<LesHouchesEvents version="3.0">
  <!--
  <scalesfunctionalform>
    muR  H_T/2 := sum_i mT(i)/2, i=final state
    muF1 H_T/2 := sum_i mT(i)/2, i=final state
    muF2 H_T/2 := sum_i mT(i)/2, i=final state
    QES  H_T/2 := sum_i mT(i)/2, i=final state
  </scalesfunctionalform>
HERWIG6   
  -->
  <header>
      529
  </header>
  <init>
   2212   2212 0.65000000D+04 0.65000000D+04 -1 -1   244800   244800 -4   1
 0.14521619D-02 0.63199933D-05 0.29788925D-05     66
  </init>
  <event>
  8     66 0.29788925E-05 0.13454065E+03 0.75467711E-02 0.10654731E+00
       -1 -1    0    0    0  501 0.00000000E+00 0.00000000E+00 0.17692725E+02 0.17695618E+02 0.32000000E+00 0.0000E+00 0.9000E+01
        1 -1    0    0  501    0 0.00000000E+00 0.00000000E+00 -.30909898E+04 0.30909898E+04 0.32000000E+00 0.0000E+00 0.9000E+01
       25  2    1    2    0    0 -.70457873E+02 -.31479033E+02 -.15462879E+04 0.15769848E+04 0.29986615E+03 0.0000E+00 0.0000E+00
       23  2    1    2    0    0 0.70457873E+02 0.31479033E+02 -.15270092E+04 0.15317006E+04 0.91621037E+02 0.0000E+00 0.0000E+00
       24  1    3    3    0    0 -.12282138E+03 0.99206668E+01 -.13146704E+04 0.13228791E+04 0.80419002E+02 0.0000E+00 0.9000E+01
      -13  1    4    4    0    0 0.81714169E+02 0.19856690E+02 -.78067359E+03 0.78518963E+03 0.10565837E+00 0.0000E+00 0.9000E+01
       13  1    4    4    0    0 -.11256295E+02 0.11622343E+02 -.74633558E+03 0.74651095E+03 0.10565837E+00 0.0000E+00 0.9000E+01
      -24  1    3    3    0    0 0.52363509E+02 -.41399700E+02 -.23161745E+03 0.25410575E+03 0.80419002E+02 0.0000E+00 0.9000E+01
#aMCatNLO 1  0  0  2  1 0.39056025D+02 0.00000000D+00  -5  7  0 0.00000000D+00 0.00000000D+00 0.00000000D+00 0.00000000D+00 0.00000000D+00
  <mgrwgt>
 0.9597908186D-03    9    2    0
 0.233864392363562D+03 0.000000000000000D+00 0.000000000000000D+00 0.233864392363562D+03
 0.233864392363562D+03 0.000000000000000D+00 0.000000000000000D+00 -.233864392363562D+03
 0.154025476200997D+03 -.122821387233424D+03 0.992066445142786D+01 -.455315123784914D+02
 0.890809654414061D+02 0.817142850538285D+02 0.198567041160432D+02 -.293922663937738D+02
 0.576332426770459D+02 -.112564006090376D+02 0.116223341735379D+02 -.553155082699123D+02
 0.166989100407674D+03 0.523635027886334D+02 -.413997027410090D+02 0.130239287042178D+03
 0.000000000000000D+00 -.000000000000000D+00 -.000000000000000D+00 -.000000000000000D+00
 0.240442414915437D+03 0.000000000000000D+00 0.000000000000000D+00 0.240442414915437D+03
 0.300836276564118D+03 0.000000000000000D+00 0.000000000000000D+00 -.300836276564118D+03
 0.148020343042384D+03 -.114061935929273D+03 0.189621241586510D+02 -.455315123784914D+02
 0.953295784633739D+02 0.870622656461517D+02 0.253768616420729D+02 -.293922663937738D+02
 0.578768190414962D+02 -.790656195443340D+01 0.150800200684237D+02 -.553155082699123D+02
 0.168129828800057D+03 0.620820877001800D+02 -.313682303533114D+02 0.130239287042178D+03
 0.719221221322442D+02 -.271758554626254D+02 -.280507755158362D+02 -.603938616486816D+02
0.232202467941D-04 0.000000000000D+00 0.000000000000D+00 0.753980103598D-06 0.000000000000D+00  7 -1 1 24 -13 13 -24 21 0 0.27221815D-02 0.47553711D+00 0.30963243D+05 0.30963243D+05 0.30963243D+05 0.11660646D+01  1  2  2  2  7  2        1 0.652938087998D-03 0.100000000000D+01
-.116309413945D-05 0.000000000000D+00 -.891718617207D-07 0.753980103598D-06 0.000000000000D+00  7 -1 1 24 -13 13 -24 21 2 0.27221815D-02 0.47553711D+00 0.30963243D+05 0.30963243D+05 0.30963243D+05 0.11660646D+01  1  2  3  2  7  2        1 -.444698096301D-04 0.100000000000D+01
0.150324817013D-05 0.000000000000D+00 0.000000000000D+00 0.753980103598D-06 0.000000000000D+00  7 -1 1 24 -13 13 -24 21 2 0.27221815D-02 0.47553711D+00 0.30963243D+05 0.30963243D+05 0.30963243D+05 0.11660646D+01  1  2 15  2  7  2        1 0.574752788147D-04 0.100000000000D+01
0.394587747109D-04 0.000000000000D+00 0.000000000000D+00 0.753980103598D-06 0.000000000000D+00  7 -1 1 24 -13 13 -24 21 2 0.27221815D-02 0.61704305D+00 0.38796910D+05 0.38796910D+05 0.38796910D+05 0.11571141D+01  1  2 12  2  7  2        1 0.261770307125D-03 0.100000000000D+01
-.403133127087D-04 0.000000000000D+00 0.000000000000D+00 0.753980103598D-06 0.000000000000D+00  7 -1 1 24 -13 13 -24 21 2 0.27221815D-02 0.47553711D+00 0.30963243D+05 0.30963243D+05 0.30963243D+05 0.11660646D+01  1  2  4  2  7  2        1 -.154134156550D-02 0.100000000000D+01
-.497632803586D-04 0.000000000000D+00 -.764890482518D-05 0.753980103598D-06 0.000000000000D+00  7 -1 1 24 -13 13 -24 21 2 0.27221815D-02 0.61476897D+00 0.30963243D+05 0.30963243D+05 0.30963243D+05 0.11660646D+01  1  2  5  2  7  2        1 -.349748281918D-03 0.100000000000D+01
0.503051202295D-04 0.000000000000D+00 0.740344262683D-05 0.753980103598D-06 0.000000000000D+00  7 -1 1 24 -13 13 -24 21 2 0.27221815D-02 0.47553711D+00 0.30963243D+05 0.30963243D+05 0.30963243D+05 0.11660646D+01  1  2  6  2  7  2        1 0.192336892101D-02 0.100000000000D+01
0.137641520706D-05 0.000000000000D+00 0.000000000000D+00 0.753980103598D-06 0.000000000000D+00  7 -1 21 24 -13 13 -24 -1 2 0.27221815D-02 0.61704305D+00 0.38796910D+05 0.38796910D+05 0.38796910D+05 0.11571141D+01  1  2 12  4  7  2        1 0.808724671570D-06 0.100000000000D+01
-.158383551934D-05 0.000000000000D+00 -.264030477605D-06 0.753980103598D-06 0.000000000000D+00  7 -1 21 24 -13 13 -24 -1 2 0.27221815D-02 0.61476897D+00 0.30963243D+05 0.30963243D+05 0.30963243D+05 0.11660646D+01  1  2  5  4  7  2        1 -.101084399288D-05 0.100000000000D+01
  </mgrwgt>
  </event>
  <event>
  9     66 0.29788925E-05 0.44730125E+03 0.75467711E-02 0.88259823E-01
       21 -1    0    0  502  501 0.00000000E+00 0.00000000E+00 0.36688790E+03 0.36688867E+03 0.75000000E+00 0.0000E+00 0.9000E+01
        1 -1    0    0  501    0 0.00000000E+00 0.00000000E+00 -.23716089E+04 0.23716089E+04 0.32000000E+00 0.0000E+00 0.9000E+01
       25  2    1    2    0    0 0.22729398E+02 -.40647113E+03 -.74622502E+03 0.90187640E+03 0.30132021E+03 0.0000E+00 0.0000E+00
       23  2    1    2    0    0 -.62269166E+03 0.52496452E+02 -.70872506E+03 0.94920867E+03 0.90581995E+02 0.0000E+00 0.0000E+00
       24  1    3    3    0    0 0.13140214E+03 -.19708875E+03 -.44900578E+03 0.51398823E+03 0.80419002E+02 0.0000E+00 0.9000E+01
      -11  1    4    4    0    0 -.11492011E+03 0.43824004E+02 -.12227525E+03 0.17343129E+03 0.51099893E-03 0.0000E+00 0.9000E+01
       11  1    4    4    0    0 -.50777155E+03 0.86724480E+01 -.58644981E+03 0.77577738E+03 0.51099893E-03 0.0000E+00 0.9000E+01
      -24  1    3    3    0    0 -.10867274E+03 -.20938238E+03 -.29721924E+03 0.38788817E+03 0.80419002E+02 0.0000E+00 0.9000E+01
        1  1    1    2  502    0 0.59996226E+03 0.35397467E+03 -.54977090E+03 0.88741249E+03 0.32000000E+00 0.0000E+00 0.9000E+01
#aMCatNLO 2  0  0  1  2 0.69660088D+03 0.00000000D+00  -5  7  0 0.00000000D+00 0.00000000D+00 0.00000000D+00 0.00000000D+00 0.00000000D+00
  <mgrwgt>
 0.4110511155D-04    1    2    0
 0.453977814754096D+03 0.000000000000000D+00 0.000000000000000D+00 0.453977814754096D+03
 0.453977814754096D+03 0.000000000000000D+00 0.000000000000000D+00 -.453977814754096D+03
 0.338372091891414D+03 0.306480483927263D+03 -.937934166884610D+02 -.728077233143324D+02
 0.987895652050495D+02 -.494787293564801D+02 0.824340842431123D+02 0.227124479013249D+02
 0.309707627262258D+03 -.268367979598210D+03 0.149919334413145D+03 0.377045763788945D+02
 0.161086345149471D+03 0.113662250274273D+02 -.138560001967796D+03 0.123906990341131D+02
 0.000000000000000D+00 0.000000000000000D+00 0.000000000000000D+00 0.000000000000000D+00
 0.105990262529868D+04 0.000000000000000D+00 0.000000000000000D+00 0.105990262529868D+04
 0.820939199042262D+03 0.000000000000000D+00 0.000000000000000D+00 -.820939199042262D+03
 0.260535365489747D+03 0.131402136080415D+03 -.197088748475892D+03 -.728077233143324D+02
 0.125072099738657D+03 -.114920109258426D+03 0.438240040548300D+02 0.227124479013249D+02
 0.509243356420610D+03 -.507771552593789D+03 0.867244804597962D+01 0.377045763788945D+02
 0.249542560757294D+03 -.108672738485697D+03 -.209382377869779D+03 0.123906990341131D+02
 0.736448441934628D+03 0.599962264257496D+03 0.353974674244861D+03 0.238963426256413D+03
0.700874817409D-05 0.000000000000D+00 0.000000000000D+00 0.252533926045D-06 0.280977886576D-11  7 21 1 24 -11 11 -24 1 2 0.56444351D-01 0.36486295D+00 0.83432623D+06 0.83432623D+06 0.83432623D+06 0.10531408D+01  1  2  1  3  7  1       -1 0.411051115519D-04 0.100000000000D+01
  </mgrwgt>
  </event>
  <event>
  8     66 0.29788925E-05 0.20668349E+03 0.75467711E-02 0.94926123E-01
       -1 -1    0    0    0  501 0.00000000E+00 0.00000000E+00 0.15926455E+03 0.15926487E+03 0.32000000E+00 0.0000E+00 0.9000E+01
        1 -1    0    0  501    0 0.00000000E+00 0.00000000E+00 -.33874246E+03 0.33874261E+03 0.32000000E+00 0.0000E+00 0.9000E+01
       25  2    1    2    0    0 0.15150857E+02 -.28511805E+02 -.20472005E+03 0.36516186E+03 0.30064998E+03 0.0000E+00 0.0000E+00
       23  2    1    2    0    0 -.15150857E+02 0.28511805E+02 0.25242139E+02 0.13284562E+03 0.12636583E+03 0.0000E+00 0.0000E+00
       24  1    3    3    0    0 0.15884370E+02 -.13030082E+03 -.17307792E+03 0.23163290E+03 0.80419002E+02 0.0000E+00 0.9000E+01
      -13  1    4    4    0    0 0.22119571E+02 -.43415609E+02 0.29049286E+01 0.48812297E+02 0.10565837E+00 0.0000E+00 0.9000E+01
       13  1    4    4    0    0 -.37270429E+02 0.71927415E+02 0.22337210E+02 0.84033327E+02 0.10565837E+00 0.0000E+00 0.9000E+01
      -24  1    3    3    0    0 -.73351247E+00 0.10178902E+03 -.31642129E+02 0.13352896E+03 0.80419002E+02 0.0000E+00 0.9000E+01
#aMCatNLO 1  0  0  1  2 0.40110503D+03 0.00000000D+00  -5  7  0 0.00000000D+00 0.00000000D+00 0.00000000D+00 0.00000000D+00 0.00000000D+00
  <mgrwgt>
 0.5611291918D-03    3    2    0
 0.232270923989881D+03 0.000000000000000D+00 0.000000000000000D+00 0.232270923989881D+03
 0.232270923989881D+03 0.000000000000000D+00 0.000000000000000D+00 -.232270923989881D+03
 0.181470383353651D+03 0.158891795244693D+02 -.130309872621839D+03 -.960789006570631D+02
 0.534323827292749D+02 0.221066633380635D+02 -.433906657221516D+02 0.219901134233939D+02
 0.987232917852537D+02 -.372658004962132D+02 0.719180526781037D+02 0.564388355060793D+02
 0.130915790111582D+03 -.730042366319648D+00 0.101782485665887D+03 0.176499517275899D+02
 0.000000000000000D+00 0.000000000000000D+00 -.000000000000000D+00 -.000000000000000D+00
 0.451988110124813D+03 0.000000000000000D+00 0.000000000000000D+00 0.451988110124813D+03
 0.584041570371870D+03 0.000000000000000D+00 0.000000000000000D+00 -.584041570371870D+03
 0.198531126942233D+03 -.121038973426272D+03 -.952145165981902D+02 -.960789006570631D+02
 0.428020826894575D+02 -.125700609458181D+02 -.345028515053444D+02 0.219901134233939D+02
 0.177018621628009D+03 -.136625486896886D+03 0.973844267836844D+02 0.564388355060793D+02
 0.195394345597712D+03 -.118311270232990D+03 0.131919130064816D+03 0.176499517275899D+02
 0.422283503639271D+03 0.388545791501966D+03 -.995861887449656D+02 -.132053460247057D+03
0.446318304010D-05 0.000000000000D+00 0.000000000000D+00 0.574146471650D-09 0.000000000000D+00  7 -1 1 24 -13 13 -24 21 0 0.24502274D-01 0.52114261D-01 0.42718063D+05 0.42718063D+05 0.42718063D+05 0.11533571D+01  1  2  2  1  7  1       -1 0.554807297402D-03 0.100000000000D+01
-.243847717116D-06 0.000000000000D+00 -.171397980571D-07 0.574146471650D-09 0.000000000000D+00  7 -1 1 24 -13 13 -24 21 2 0.24502274D-01 0.52114261D-01 0.42718063D+05 0.42718063D+05 0.42718063D+05 0.11533571D+01  1  2  3  1  7  1       -1 -.403221594596D-04 0.100000000000D+01
0.282079288771D-06 0.000000000000D+00 0.000000000000D+00 0.574146471650D-09 0.000000000000D+00  7 -1 1 24 -13 13 -24 21 2 0.24502274D-01 0.52114261D-01 0.42718063D+05 0.42718063D+05 0.42718063D+05 0.11533571D+01  1  2 15  1  7  1       -1 0.466440539063D-04 0.100000000000D+01
  </mgrwgt>
  </event>
  <event>
  8     66 0.29788925E-05 0.35589513E+03 0.75467711E-02 0.89687730E-01
       -1 -1    0    0    0  501 0.00000000E+00 0.00000000E+00 0.13665351E+03 0.13665389E+03 0.32000000E+00 0.0000E+00 0.9000E+01
        1 -1    0    0  501    0 0.00000000E+00 0.00000000E+00 -.15683855E+04 0.15683855E+04 0.32000000E+00 0.0000E+00 0.9000E+01
       25  2    1    2    0    0 0.29659267E+03 0.48346702E+02 -.12942702E+04 0.13624771E+04 0.30150249E+03 0.0000E+00 0.0000E+00
       23  2    1    2    0    0 -.29659267E+03 -.48346702E+02 -.13746176E+03 0.34256234E+03 0.90269616E+02 0.0000E+00 0.0000E+00
       24  1    3    3    0    0 0.29413744E+03 -.19065427E+02 -.78205398E+03 0.83961656E+03 0.80419002E+02 0.0000E+00 0.9000E+01
      -11  1    4    4    0    0 -.21103936E+03 -.44358228E+02 -.52555722E+02 0.22196254E+03 0.51099893E-03 0.0000E+00 0.9000E+01
       11  1    4    4    0    0 -.85553313E+02 -.39884744E+01 -.84906036E+02 0.12059980E+03 0.51099893E-03 0.0000E+00 0.9000E+01
      -24  1    3    3    0    0 0.24552313E+01 0.67412129E+02 -.51221622E+03 0.52286049E+03 0.80419002E+02 0.0000E+00 0.9000E+01
#aMCatNLO 1  0  0  1  2 0.64420083D+03 0.00000000D+00  -5  7  0 0.00000000D+00 0.00000000D+00 0.00000000D+00 0.00000000D+00 0.00000000D+00
  <mgrwgt>
 0.1025492076D-02    3    2    0
 0.462953271434506D+03 0.000000000000000D+00 0.000000000000000D+00 0.462953271434506D+03
 0.462953271434506D+03 0.000000000000000D+00 0.000000000000000D+00 -.462953271434506D+03
 0.336845694474577D+03 0.294137441039877D+03 -.190654266348277D+02 -.141836106889023D+03
 0.327472747982116D+03 -.211039359159972D+03 -.443582279839015D+02 0.246440940524164D+03
 0.907918068495469D+02 -.855533131325864D+02 -.398847437916868D+01 0.301309620684401D+02
 0.170796293562773D+03 0.245523125268191D+01 0.674121289978979D+02 -.134735795703581D+03
 0.000000000000000D+00 -.000000000000000D+00 0.000000000000000D+00 -.000000000000000D+00
 0.863884594900170D+03 0.000000000000000D+00 0.000000000000000D+00 0.863884594900170D+03
 0.909920793191705D+03 0.000000000000000D+00 0.000000000000000D+00 -.909920793191705D+03
 0.498551109282757D+03 0.391290013109179D+03 -.262413103781579D+03 -.141836106889023D+03
 0.373156171607629D+03 -.129559634437381D+03 -.248448570869063D+03 0.246440940524164D+03
 0.911118912963650D+02 -.643988006131361D+02 -.569762787484440D+02 0.301309620684401D+02
 0.165142546799473D+03 0.415232792178873D+02 -.304454832144570D+02 -.134735795703581D+03
 0.645843669105651D+03 -.238854857276548D+03 0.598283436613543D+03 -.460361982915350D+02
0.763568438540D-04 0.000000000000D+00 0.000000000000D+00 0.695220969181D-06 0.000000000000D+00  7 -1 1 24 -11 11 -24 21 0 0.21023649D-01 0.24129010D+00 0.12666135D+06 0.12666135D+06 0.12666135D+06 0.11133950D+01  1  2  2  1  7  1       -1 0.100932914142D-02 0.100000000000D+01
-.388532030871D-05 0.000000000000D+00 -.293230385618D-06 0.695220969181D-06 0.000000000000D+00  7 -1 1 24 -11 11 -24 21 2 0.21023649D-01 0.24129010D+00 0.12666135D+06 0.12666135D+06 0.12666135D+06 0.11133950D+01  1  2  3  1  7  1       -1 -.636663850096D-04 0.100000000000D+01
0.487168351713D-05 0.000000000000D+00 0.000000000000D+00 0.695220969181D-06 0.000000000000D+00  7 -1 1 24 -11 11 -24 21 2 0.21023649D-01 0.24129010D+00 0.12666135D+06 0.12666135D+06 0.12666135D+06 0.11133950D+01  1  2 15  1  7  1       -1 0.798293200565D-04 0.100000000000D+01
  </mgrwgt>
  </event>
  <event>
  8     66 0.29788925E-05 0.18874923E+03 0.75467711E-02 0.98470244E-01
       -1 -1    0    0    0  501 0.00000000E+00 0.00000000E+00 0.19567910E+03 0.19567936E+03 0.32000000E+00 0.0000E+00 0.9000E+01
        1 -1    0    0  501    0 0.00000000E+00 0.00000000E+00 -.46199197E+03 0.46199208E+03 0.32000000E+00 0.0000E+00 0.9000E+01
       25  2    1    2    0    0 0.19288487E+03 -.64381363E+02 -.22910436E+03 0.42986494E+03 0.30157176E+03 0.0000E+00 0.0000E+00
       23  2    1    2    0    0 -.19288487E+03 0.64381363E+02 -.37208509E+02 0.22780650E+03 0.95717268E+02 0.0000E+00 0.0000E+00
       24  1    3    3    0    0 0.69398177E+02 0.86661681E+02 -.31272340E+02 0.14061127E+03 0.80419002E+02 0.0000E+00 0.9000E+01
      -11  1    4    4    0    0 0.50738747E+01 0.17537357E+02 -.14109788E+02 0.23073561E+02 0.51099893E-03 0.0000E+00 0.9000E+01
       11  1    4    4    0    0 -.19795874E+03 0.46844006E+02 -.23098721E+02 0.20473294E+03 0.51099893E-03 0.0000E+00 0.9000E+01
      -24  1    3    3    0    0 0.12348669E+03 -.15104304E+03 -.19783202E+03 0.28925367E+03 0.80419002E+02 0.0000E+00 0.9000E+01
#aMCatNLO 1  0  0  2  1 0.13800664D+03 0.00000000D+00  -5  7  0 0.00000000D+00 0.00000000D+00 0.00000000D+00 0.00000000D+00 0.00000000D+00
  <mgrwgt>
 0.6610270785D-03    9    2    0
 0.300669745248333D+03 0.000000000000000D+00 0.000000000000000D+00 0.300669745248333D+03
 0.300669745248333D+03 0.000000000000000D+00 0.000000000000000D+00 -.300669745248333D+03
 0.139933915900378D+03 0.693981770543378D+02 0.866616804925556D+02 0.280701090233832D+02
 0.189862865782319D+02 0.507387461098454D+01 0.175373569640087D+02 -.521305909996159D+01
 0.213682159103202D+03 -.197958744650532D+03 0.468440057511660D+02 0.654067248880156D+02
 0.228737128914853D+03 0.123486692985209D+03 -.151043043207730D+03 -.882637748114372D+02
 0.000000000000000D+00 -.000000000000000D+00 -.000000000000000D+00 -.000000000000000D+00
 0.335789311404247D+03 0.000000000000000D+00 0.000000000000000D+00 0.335789311404247D+03
 0.482878931074985D+03 0.000000000000000D+00 0.000000000000000D+00 -.482878931074985D+03
 0.165256014177640D+03 0.736184079610420D+02 0.120974101592890D+03 0.280701090233832D+02
 0.236167198156759D+02 0.566299799476108D+01 0.223272014230126D+02 -.521305909996159D+01
 0.224361474500139D+03 -.191901384630346D+03 0.960931327216267D+02 0.654067248880156D+02
 0.203738250827005D+03 0.129467054013205D+03 -.102419953509338D+03 -.882637748114372D+02
 0.201695783158771D+03 -.168470753386619D+02 -.136974482228191D+03 -.147089619670738D+03
0.109788944937D-04 0.000000000000D+00 0.000000000000D+00 0.134751416045D-07 0.000000000000D+00  7 -1 1 24 -11 11 -24 21 0 0.30104506D-01 0.71075716D-01 0.81166218D+05 0.81166218D+05 0.81166218D+05 0.11292356D+01  1  2  2  2  7  2        1 0.644291432790D-03 0.100000000000D+01
-.607785267231D-06 0.000000000000D+00 -.421618456653D-07 0.134751416045D-07 0.000000000000D+00  7 -1 1 24 -11 11 -24 21 2 0.30104506D-01 0.71075716D-01 0.81166218D+05 0.81166218D+05 0.81166218D+05 0.11292356D+01  1  2  3  2  7  2        1 -.454823637406D-04 0.100000000000D+01
0.711513947272D-06 0.000000000000D+00 0.000000000000D+00 0.134751416045D-07 0.000000000000D+00  7 -1 1 24 -11 11 -24 21 2 0.30104506D-01 0.71075716D-01 0.81166218D+05 0.81166218D+05 0.81166218D+05 0.11292356D+01  1  2 15  2  7  2        1 0.532446867358D-04 0.100000000000D+01
0.687394036967D-05 0.000000000000D+00 0.000000000000D+00 0.134751416045D-07 0.000000000000D+00  7 -1 1 24 -11 11 -24 21 2 0.30104506D-01 0.11621758D+00 0.13037088D+06 0.13037088D+06 0.13037088D+06 0.11123909D+01  1  2 12  2  7  2        1 0.244581400300D-03 0.100000000000D+01
-.100764458713D-04 0.000000000000D+00 0.000000000000D+00 0.134751416045D-07 0.000000000000D+00  7 -1 1 24 -11 11 -24 21 2 0.30104506D-01 0.71075716D-01 0.81166218D+05 0.81166218D+05 0.81166218D+05 0.11292356D+01  1  2  4  2  7  2        1 -.754050157250D-03 0.100000000000D+01
-.114854795077D-04 0.000000000000D+00 -.385353438621D-05 0.134751416045D-07 0.000000000000D+00  7 -1 1 24 -11 11 -24 21 2 0.30104506D-01 0.12247670D+00 0.81166218D+05 0.81166218D+05 0.81166218D+05 0.11292356D+01  1  2  5  2  7  2        1 -.391588874617D-03 0.100000000000D+01
0.122337073202D-04 0.000000000000D+00 0.334579839155D-05 0.134751416045D-07 0.000000000000D+00  7 -1 1 24 -11 11 -24 21 2 0.30104506D-01 0.71075716D-01 0.81166218D+05 0.81166218D+05 0.81166218D+05 0.11292356D+01  1  2  6  2  7  2        1 0.915484392654D-03 0.100000000000D+01
0.382494553665D-06 0.000000000000D+00 0.000000000000D+00 0.134751416045D-07 0.000000000000D+00  7 -1 21 24 -11 11 -24 -1 2 0.30104506D-01 0.11621758D+00 0.13037088D+06 0.13037088D+06 0.13037088D+06 0.11123909D+01  1  2 12  4  7  2        1 0.261145157081D-04 0.100000000000D+01
-.503219734223D-06 0.000000000000D+00 -.232694562923D-06 0.134751416045D-07 0.000000000000D+00  7 -1 21 24 -11 11 -24 -1 2 0.30104506D-01 0.12247670D+00 0.81166218D+05 0.81166218D+05 0.81166218D+05 0.11292356D+01  1  2  5  4  7  2        1 -.315679540993D-04 0.100000000000D+01
  </mgrwgt>
  </event>
  <event>
  8     66 0.29788925E-05 0.93452560E+02 0.75467711E-02 0.10766280E+00
       -1 -1    0    0    0  501 0.00000000E+00 0.00000000E+00 0.69424184E+02 0.69424921E+02 0.32000000E+00 0.0000E+00 0.9000E+01
        1 -1    0    0  501    0 0.00000000E+00 0.00000000E+00 -.10773627E+04 0.10773628E+04 0.32000000E+00 0.0000E+00 0.9000E+01
       25  2    1    2    0    0 -.62416024E+02 0.68441910E+02 -.95736221E+03 0.10076405E+04 0.30036121E+03 0.0000E+00 0.0000E+00
       23  2    1    2    0    0 0.62416024E+02 -.68441910E+02 -.50576350E+02 0.13914724E+03 0.90685903E+02 0.0000E+00 0.0000E+00
       24  1    3    3    0    0 -.28871233E+02 -.95415364E+01 -.83114677E+03 0.83558169E+03 0.80419002E+02 0.0000E+00 0.9000E+01
      -13  1    4    4    0    0 0.67225901E+02 -.90524325E+01 -.14093771E+02 0.69281410E+02 0.10565837E+00 0.0000E+00 0.9000E+01
       13  1    4    4    0    0 -.48098763E+01 -.59389478E+02 -.36482578E+02 0.69865833E+02 0.10565837E+00 0.0000E+00 0.9000E+01
      -24  1    3    3    0    0 -.33544791E+02 0.77983447E+02 -.12621544E+03 0.17205878E+03 0.80419002E+02 0.0000E+00 0.9000E+01
#aMCatNLO 1  0  0  2  1 0.33051378D+02 0.00000000D+00  -5  7  0 0.00000000D+00 0.00000000D+00 0.00000000D+00 0.00000000D+00 0.00000000D+00
  <mgrwgt>
 0.5423241254D-03    9    2    0
 0.273487622332911D+03 0.000000000000000D+00 0.000000000000000D+00 0.273487622332911D+03
 0.273487622332911D+03 0.000000000000000D+00 0.000000000000000D+00 -.273487622332911D+03
 0.220284074078293D+03 -.288712334705976D+02 -.954153601024266D+01 -.202813382957367D+03
 0.119284089427671D+03 0.672259972117284D+02 -.905236610580585D+01 0.981193862463667D+02
 0.792523105911004D+02 -.480997244775696D+01 -.593895449114832D+02 0.522558595210813D+02
 0.128154770568759D+03 -.335447912933738D+02 0.779834470275317D+02 0.524381371899191D+02
 0.000000000000000D+00 -.000000000000000D+00 -.000000000000000D+00 -.000000000000000D+00
 0.279908522376772D+03 0.000000000000000D+00 0.000000000000000D+00 0.279908522376772D+03
 0.320101844541158D+03 0.000000000000000D+00 0.000000000000000D+00 -.320101844541158D+03
 0.218933640627017D+03 -.156145187213052D+02 -.936170616498245D+01 -.202813382957367D+03
 0.123556046961346D+03 0.745555340450695D+02 -.895293955107523D+01 0.981193862463667D+02
 0.790575688201402D+02 -.317751139864297D-01 -.593247277600694D+02 0.522558595210813D+02
 0.126425655224172D+03 -.258609024781090D+02 0.780876804339810D+02 0.524381371899191D+02
 0.520374552852555D+02 -.330483377316688D+02 -.448306957853962D+00 -.401933221643852D+02
0.454663592045D-05 0.000000000000D+00 0.000000000000D+00 0.847031788349D-06 0.000000000000D+00  7 -1 1 24 -13 13 -24 21 0 0.10680704D-01 0.16574818D+00 0.27279105D+05 0.27279105D+05 0.27279105D+05 0.11711865D+01  1  2  2  2  7  2        1 0.383635510150D-03 0.100000000000D+01
-.174480553233D-06 0.000000000000D+00 -.174602790913D-07 0.847031788349D-06 0.000000000000D+00  7 -1 1 24 -13 13 -24 21 2 0.10680704D-01 0.16574818D+00 0.27279105D+05 0.27279105D+05 0.27279105D+05 0.11711865D+01  1  2  3  2  7  2        1 -.201942506113D-04 0.100000000000D+01
0.284049427665D-06 0.000000000000D+00 0.000000000000D+00 0.847031788349D-06 0.000000000000D+00  7 -1 1 24 -13 13 -24 21 2 0.10680704D-01 0.16574818D+00 0.27279105D+05 0.27279105D+05 0.27279105D+05 0.11711865D+01  1  2 15  2  7  2        1 0.328756713686D-04 0.100000000000D+01
0.138953911904D-04 0.000000000000D+00 0.000000000000D+00 0.847031788349D-06 0.000000000000D+00  7 -1 1 24 -13 13 -24 21 2 0.10680704D-01 0.19572380D+00 0.33298786D+05 0.33298786D+05 0.33298786D+05 0.11631554D+01  1  2 12  2  7  2        1 0.116159261612D-02 0.100000000000D+01
-.143106282706D-04 0.000000000000D+00 0.000000000000D+00 0.847031788349D-06 0.000000000000D+00  7 -1 1 24 -13 13 -24 21 2 0.10680704D-01 0.16574818D+00 0.27279105D+05 0.27279105D+05 0.27279105D+05 0.11711865D+01  1  2  4  2  7  2        1 -.165630156684D-02 0.100000000000D+01
-.196953479596D-04 0.000000000000D+00 -.342336189708D-05 0.847031788349D-06 0.000000000000D+00  7 -1 1 24 -13 13 -24 21 2 0.10680704D-01 0.19608444D+00 0.27279105D+05 0.27279105D+05 0.27279105D+05 0.11711865D+01  1  2  5  2  7  2        1 -.166668786334D-02 0.100000000000D+01
0.200348695369D-04 0.000000000000D+00 0.337557052485D-05 0.847031788349D-06 0.000000000000D+00  7 -1 1 24 -13 13 -24 21 2 0.10680704D-01 0.16574818D+00 0.27279105D+05 0.27279105D+05 0.27279105D+05 0.11711865D+01  1  2  6  2  7  2        1 0.231882103132D-02 0.100000000000D+01
0.344195872969D-06 0.000000000000D+00 0.000000000000D+00 0.847031788349D-06 0.000000000000D+00  7 -1 21 24 -13 13 -24 -1 2 0.10680704D-01 0.19572380D+00 0.33298786D+05 0.33298786D+05 0.33298786D+05 0.11631554D+01  1  2 12  4  7  2        1 0.307928201571D-04 0.100000000000D+01
-.463041844667D-06 0.000000000000D+00 -.855426980427D-07 0.847031788349D-06 0.000000000000D+00  7 -1 21 24 -13 13 -24 -1 2 0.10680704D-01 0.19608444D+00 0.27279105D+05 0.27279105D+05 0.27279105D+05 0.11711865D+01  1  2  5  4  7  2        1 -.422098429078D-04 0.100000000000D+01
  </mgrwgt>
  </event>
  <event>
  7     66 0.29788925E-05 0.72772249E+03 0.75467711E-02 0.89665220E-01
       -1 -1    0    0    0  501 0.00000000E+00 0.00000000E+00 0.24545193E+03 0.24545214E+03 0.32000000E+00 0.0000E+00 0.9000E+01
        1 -1    0    0  501    0 0.00000000E+00 0.00000000E+00 -.24014422E+04 0.24014422E+04 0.32000000E+00 0.0000E+00 0.9000E+01
       25  2    1    2    0    0 -.68461834E+03 0.43330424E+02 -.68997151E+03 0.10184959E+04 0.30115351E+03 0.0000E+00 0.0000E+00
       24  1    3    3    0    0 -.10216222E+03 -.74010111E+02 -.13740948E+03 0.20313345E+03 0.80419002E+02 0.0000E+00 0.9000E+01
      -11  1    1    2    0    0 0.55371964E+03 0.33059023E+02 -.10912008E+04 0.12240986E+04 0.51099893E-03 0.0000E+00 0.9000E+01
       11  1    1    2    0    0 0.13089869E+03 -.76389447E+02 -.37481797E+03 0.40429980E+03 0.51099893E-03 0.0000E+00 0.9000E+01
      -24  1    3    3    0    0 -.58245612E+03 0.11734053E+03 -.55256203E+03 0.81536246E+03 0.80419002E+02 0.0000E+00 0.9000E+01
#aMCatNLO 1  0  0  2  1 0.12712058D+03 0.00000000D+00  -5  7  0 0.00000000D+00 0.00000000D+00 0.00000000D+00 0.00000000D+00 0.00000000D+00
  <mgrwgt>
 0.8607146729D-03    4    2    0
 0.767749253795627D+03 0.000000000000000D+00 0.000000000000000D+00 0.767749253795627D+03
 0.767749253795627D+03 0.000000000000000D+00 0.000000000000000D+00 -.767749253795627D+03
 0.157225335429250D+03 -.102162220322563D+03 -.740101111434595D+02 0.483526042087351D+02
 0.577950099567978D+03 0.553719643442321D+03 0.330590221010142D+02 -.162258975451186D+03
 0.170651390456427D+03 0.130898693079087D+03 -.763894459418569D+02 -.784352074236749D+02
 0.629671682137599D+03 -.582456116198846D+03 0.117340534984302D+03 0.192341578666126D+03
 0.000000000000000D+00 0.000000000000000D+00 -.000000000000000D+00 0.000000000000000D+00
 0.103686002628780D+04 0.000000000000000D+00 0.000000000000000D+00 0.103686002628780D+04
 0.785535803384899D+03 0.000000000000000D+00 0.000000000000000D+00 -.785535803384899D+03
 0.154831008340729D+03 -.106491237251456D+03 -.618632948065629D+02 0.483526042087351D+02
 0.567116068856074D+03 0.537834656878919D+03 0.776308076747547D+02 -.162258975451186D+03
 0.161640087602524D+03 0.126288963257653D+03 -.634549755012457D+02 -.784352074236749D+02
 0.657164375115645D+03 -.600307812495928D+03 0.167430724000531D+03 0.192341578666126D+03
 0.281644289757725D+03 0.426754296108122D+02 -.119743261367477D+03 0.251324222902899D+03
0.725696487042D-03 0.000000000000D+00 0.000000000000D+00 0.629190737032D-09 0.000000000000D+00  7 -1 1 24 -11 11 -24 21 0 0.37761853D-01 0.36945266D+00 0.52958003D+06 0.52958003D+06 0.52958003D+06 0.10667507D+01  1  2  2  2  7  2        1 0.932434501404D-03 0.100000000000D+01
-.401759392718D-04 0.000000000000D+00 -.278686559052D-05 0.629190737032D-09 0.000000000000D+00  7 -1 1 24 -11 11 -24 21 2 0.37761853D-01 0.36945266D+00 0.52958003D+06 0.52958003D+06 0.52958003D+06 0.10667507D+01  1  2  3  2  7  2        1 -.587428793067D-04 0.100000000000D+01
0.463529392483D-04 0.000000000000D+00 0.000000000000D+00 0.629190737032D-09 0.000000000000D+00  7 -1 1 24 -11 11 -24 21 2 0.37761853D-01 0.36945266D+00 0.52958003D+06 0.52958003D+06 0.52958003D+06 0.10667507D+01  1  2 15  2  7  2        1 0.677745228893D-04 0.100000000000D+01
-.552282468243D-04 0.000000000000D+00 0.000000000000D+00 0.629190737032D-09 0.000000000000D+00  7 -1 1 24 -11 11 -24 21 2 0.37761853D-01 0.36945266D+00 0.52958003D+06 0.52958003D+06 0.52958003D+06 0.10667507D+01  1  2  4  2  7  2        1 -.807514720583D-04 0.100000000000D+01
  </mgrwgt>
  </event>
  <event>
  8     66 0.29788925E-05 0.30576908E+03 0.75467711E-02 0.94778654E-01
       -1 -1    0    0    0  501 0.00000000E+00 0.00000000E+00 0.54758977E+03 0.54758987E+03 0.32000000E+00 0.0000E+00 0.9000E+01
        1 -1    0    0  501    0 0.00000000E+00 0.00000000E+00 -.33179951E+03 0.33179966E+03 0.32000000E+00 0.0000E+00 0.9000E+01
       25  2    1    2    0    0 0.11443424E+01 0.23285415E+03 0.41310696E+03 0.56159639E+03 0.30085010E+03 0.0000E+00 0.0000E+00
       23  2    1    2    0    0 -.11443424E+01 -.23285415E+03 -.19731669E+03 0.31779314E+03 0.88522522E+02 0.0000E+00 0.0000E+00
       24  1    3    3    0    0 0.12177970E+03 0.90165055E+02 0.23678606E+03 0.29239508E+03 0.80419002E+02 0.0000E+00 0.9000E+01
      -11  1    4    4    0    0 -.58709890E+01 -.28604658E+01 -.36580573E+02 0.37158971E+02 0.51099893E-03 0.0000E+00 0.9000E+01
       11  1    4    4    0    0 0.47266465E+01 -.22999368E+03 -.16073612E+03 0.28063417E+03 0.51099893E-03 0.0000E+00 0.9000E+01
      -24  1    3    3    0    0 -.12063536E+03 0.14268909E+03 0.17632090E+03 0.26920131E+03 0.80419002E+02 0.0000E+00 0.9000E+01
#aMCatNLO 1  0  0  2  1 0.29642779D+03 0.00000000D+00  -5  7  0 0.00000000D+00 0.00000000D+00 0.00000000D+00 0.00000000D+00 0.00000000D+00
  <mgrwgt>
 0.1609892734D-02    3    2    0
 0.426251246484539D+03 0.000000000000000D+00 0.000000000000000D+00 0.426251246484539D+03
 0.426251246484539D+03 0.000000000000000D+00 0.000000000000000D+00 -.426251246484539D+03
 0.241680287334082D+03 0.121779699124705D+03 0.901650545877553D+02 0.170241337940575D+03
 0.475904079027829D+02 -.587098896036606D+01 -.286046574853639D+01 -.471401755266352D+02
 0.330171511497754D+03 0.472664653787580D+01 -.229993682827463D+03 -.236841279503125D+03
 0.233060286234461D+03 -.120635356702215D+03 0.142689093988244D+03 0.113740117089185D+03
 0.000000000000000D+00 -.000000000000000D+00 0.000000000000000D+00 0.000000000000000D+00
 0.144931430862103D+04 0.000000000000000D+00 0.000000000000000D+00 0.144931430862103D+04
 0.473294979382284D+03 0.000000000000000D+00 0.000000000000000D+00 -.473294979382284D+03
 0.257929054837870D+03 0.174598894840073D+03 0.243576302627007D+02 0.170241337940575D+03
 0.498831621451673D+02 0.443401364638330D+01 -.156994662298679D+02 -.471401755266352D+02
 0.412958320288900D+03 0.832910702062352D+02 -.327877080996906D+03 -.236841279503125D+03
 0.181797983915159D+03 -.767761284701895D+02 0.880448911800869D+02 0.113740117089185D+03
 0.102004076681622D+04 -.185547850222502D+03 0.231174025783987D+03 0.976019329238743D+03
0.112525433005D-03 0.000000000000D+00 0.000000000000D+00 0.388248572848D-06 0.000000000000D+00  7 -1 1 24 -11 11 -24 21 0 0.84244600D-01 0.51046097D-01 0.93494732D+05 0.93494732D+05 0.93494732D+05 0.11241272D+01  1  2  2  2  7  2        1 0.158251618972D-02 0.100000000000D+01
-.541261815620D-05 0.000000000000D+00 -.432127291367D-06 0.388248572848D-06 0.000000000000D+00  7 -1 1 24 -11 11 -24 21 2 0.84244600D-01 0.51046097D-01 0.93494732D+05 0.93494732D+05 0.93494732D+05 0.11241272D+01  1  2  3  2  7  2        1 -.961912963687D-04 0.100000000000D+01
0.695307748096D-05 0.000000000000D+00 0.000000000000D+00 0.388248572848D-06 0.000000000000D+00  7 -1 1 24 -11 11 -24 21 2 0.84244600D-01 0.51046097D-01 0.93494732D+05 0.93494732D+05 0.93494732D+05 0.11241272D+01  1  2 15  2  7  2        1 0.123567840432D-03 0.100000000000D+01
  </mgrwgt>
  </event>
  <event>
  8     66 0.29788925E-05 0.16596460E+03 0.75467711E-02 0.93001466E-01
       -1 -1    0    0    0  501 0.00000000E+00 0.00000000E+00 0.36445375E+03 0.36445389E+03 0.32000000E+00 0.0000E+00 0.9000E+01
        1 -1    0    0  501    0 0.00000000E+00 0.00000000E+00 -.14442055E+03 0.14442090E+03 0.32000000E+00 0.0000E+00 0.9000E+01
       25  2    1    2    0    0 0.68023540E+02 0.68991437E+02 0.10533514E+03 0.33276791E+03 0.30041966E+03 0.0000E+00 0.0000E+00
       23  2    1    2    0    0 -.68023540E+02 -.68991437E+02 0.11469807E+03 0.17610688E+03 0.92037845E+02 0.0000E+00 0.0000E+00
       24  1    3    3    0    0 0.36595929E+02 -.39129406E+02 -.62628500E+02 0.11515171E+03 0.80419002E+02 0.0000E+00 0.9000E+01
      -11  1    4    4    0    0 -.44012372E+02 -.46646759E+02 0.81789165E+01 0.64652175E+02 0.51099893E-03 0.0000E+00 0.9000E+01
       11  1    4    4    0    0 -.24011168E+02 -.22344678E+02 0.10651915E+03 0.11145470E+03 0.51099893E-03 0.0000E+00 0.9000E+01
      -24  1    3    3    0    0 0.31427611E+02 0.10812084E+03 0.16796363E+03 0.21761620E+03 0.80419002E+02 0.0000E+00 0.9000E+01
#aMCatNLO 1  0  0  1  2 0.52760924D+03 0.00000000D+00  -5  7  0 0.00000000D+00 0.00000000D+00 0.00000000D+00 0.00000000D+00 0.00000000D+00
  <mgrwgt>
 0.5743944643D-03    5    2    0
 0.229422613580928D+03 0.000000000000000D+00 0.000000000000000D+00 0.229422613580928D+03
 0.229422613580928D+03 0.000000000000000D+00 0.000000000000000D+00 -.229422613580928D+03
 0.157739800122193D+03 0.365959290904106D+02 -.391294064047420D+02 -.124676606132190D+03
 0.677793447431016D+02 -.440123719752646D+02 -.466467594499737D+02 -.219324079784105D+02
 0.725271532046740D+02 -.240111679525127D+02 -.223446777379707D+02 0.646866844282246D+02
 0.160798929091886D+03 0.314276108373667D+02 0.108120843592686D+03 0.819223296823754D+02
 0.000000000000000D+00 -.000000000000000D+00 0.000000000000000D+00 0.000000000000000D+00
 0.906496145998227D+03 0.000000000000000D+00 0.000000000000000D+00 0.906496145998227D+03
 0.474578682263932D+03 0.000000000000000D+00 0.000000000000000D+00 -.474578682263932D+03
 0.300574681278720D+03 0.208359791093608D+03 -.157860268624568D+03 -.124676606132190D+03
 0.921558889294323D+02 0.159270244889455D+02 -.880795506094971D+02 -.219324079784105D+02
 0.102420134975977D+03 0.415543401960479D+02 -.676664888778177D+02 0.646866844282246D+02
 0.204070614597714D+03 0.168170839547715D+03 0.135978091304060D+02 0.819223296823754D+02
 0.681853508480316D+03 -.434011995326316D+03 0.300008498981477D+03 0.431917463734295D+03
0.610811938740D-05 0.000000000000D+00 0.000000000000D+00 0.361804602795D-06 0.000000000000D+00  7 -1 1 24 -11 11 -24 21 0 0.56069846D-01 0.22218584D-01 0.27544250D+05 0.27544250D+05 0.27544250D+05 0.11707929D+01  1  2  2  1  7  1       -1 0.555901609987D-03 0.100000000000D+01
-.296083931858D-06 0.000000000000D+00 -.234567867524D-07 0.361804602795D-06 0.000000000000D+00  7 -1 1 24 -11 11 -24 21 2 0.56069846D-01 0.22218584D-01 0.27544250D+05 0.27544250D+05 0.27544250D+05 0.11707929D+01  1  2  3  1  7  1       -1 -.369373248671D-04 0.100000000000D+01
0.389617960863D-06 0.000000000000D+00 0.000000000000D+00 0.361804602795D-06 0.000000000000D+00  7 -1 1 24 -11 11 -24 21 2 0.56069846D-01 0.22218584D-01 0.27544250D+05 0.27544250D+05 0.27544250D+05 0.11707929D+01  1  2 15  1  7  1       -1 0.486059648835D-04 0.100000000000D+01
0.508629109160D-05 0.000000000000D+00 -.284341679108D-05 0.361804602795D-06 0.000000000000D+00  7 -1 1 24 -11 11 -24 21 2 0.33874833D+00 0.22218584D-01 0.27544250D+05 0.27544250D+05 0.27544250D+05 0.11707929D+01  1  2  5  1  7  1       -1 0.208534172006D-05 0.100000000000D+01
0.935644284256D-06 0.000000000000D+00 -.626814953511D-06 0.361804602795D-06 0.000000000000D+00  7 21 1 24 -11 11 -24 1 2 0.33874833D+00 0.22218584D-01 0.27544250D+05 0.27544250D+05 0.27544250D+05 0.11707929D+01  1  2  5  3  7  1       -1 0.473887257831D-05 0.100000000000D+01
  </mgrwgt>
  </event>
  <event>
  8     66 0.29788925E-05 0.54341600E+03 0.75467711E-02 0.85329562E-01
       -1 -1    0    0    0  501 0.00000000E+00 0.00000000E+00 0.30514273E+03 0.30514290E+03 0.32000000E+00 0.0000E+00 0.9000E+01
        1 -1    0    0  501    0 0.00000000E+00 0.00000000E+00 -.11087303E+04 0.11087304E+04 0.32000000E+00 0.0000E+00 0.9000E+01
       25  2    1    2    0    0 -.30609394E+03 0.40397895E+03 -.64976253E+03 0.87708090E+03 0.30031161E+03 0.0000E+00 0.0000E+00
       23  2    1    2    0    0 0.30609394E+03 -.40397895E+03 -.15382506E+03 0.53679237E+03 0.87128706E+02 0.0000E+00 0.0000E+00
       24  1    3    3    0    0 -.26780468E+03 0.17180919E+03 -.27955368E+03 0.43110929E+03 0.80419002E+02 0.0000E+00 0.9000E+01
      -13  1    4    4    0    0 0.21649462E+03 -.24074846E+03 -.13069093E+03 0.34915595E+03 0.10565837E+00 0.0000E+00 0.9000E+01
       13  1    4    4    0    0 0.89599313E+02 -.16323049E+03 -.23134127E+02 0.18763643E+03 0.10565837E+00 0.0000E+00 0.9000E+01
      -24  1    3    3    0    0 -.38289254E+02 0.23216976E+03 -.37020885E+03 0.44597161E+03 0.80419002E+02 0.0000E+00 0.9000E+01
#aMCatNLO 1  0  0  2  2 0.10304816D+04 0.00000000D+00  -5  7  0 0.00000000D+00 0.00000000D+00 0.00000000D+00 0.00000000D+00 0.00000000D+00
  <mgrwgt>
 0.9165419414D-03    5    2    0
 0.581653807800390D+03 0.000000000000000D+00 0.000000000000000D+00 0.581653807800390D+03
 0.581653807800390D+03 0.000000000000000D+00 0.000000000000000D+00 -.581653807800390D+03
 0.330856628251707D+03 -.267804681769605D+03 0.171809189222355D+03 -.419660270308670D+02
 0.334082620922167D+03 0.216494809361957D+03 -.240748577043905D+03 0.823487569601934D+02
 0.212070837251542D+03 0.895991266611846D+02 -.163230373649961D+03 0.101498185364159D+03
 0.286297529175364D+03 -.382892542535369D+02 0.232169761471512D+03 -.141880915293485D+03
 0.000000000000000D+00 0.000000000000000D+00 -.000000000000000D+00 -.000000000000000D+00
 0.112268168048523D+04 0.000000000000000D+00 0.000000000000000D+00 0.112268168048523D+04
 0.154510511530502D+04 0.000000000000000D+00 0.000000000000000D+00 -.154510511530502D+04
 0.699819624113089D+03 -.483463742403225D+03 0.497777011016105D+03 -.419660270308670D+02
 0.162633103811850D+03 0.112561836857444D+03 -.836542979521384D+02 0.823487569601934D+02
 0.118926157965851D+03 0.203411992592940D+02 -.585472888270249D+02 0.101498185364159D+03
 0.572705093216395D+03 -.218027264323895D+03 0.503843056644180D+03 -.141880915293485D+03
 0.111370281668307D+04 0.568587970610382D+03 -.859418480881121D+03 -.422423434819792D+03
0.132848346056D-03 0.000000000000D+00 0.000000000000D+00 0.448250822515D-06 0.000000000000D+00  7 -1 1 24 -13 13 -24 21 0 0.46945052D-01 0.17057391D+00 0.29530095D+06 0.29530095D+06 0.29530095D+06 0.10850595D+01  1  2  2  2  7  2        1 0.904671655403D-03 0.100000000000D+01
-.733896952726D-05 0.000000000000D+00 -.510172628629D-06 0.448250822515D-06 0.000000000000D+00  7 -1 1 24 -13 13 -24 21 2 0.46945052D-01 0.17057391D+00 0.29530095D+06 0.29530095D+06 0.29530095D+06 0.10850595D+01  1  2  3  2  7  2        1 -.588405904157D-04 0.100000000000D+01
0.855937143675D-05 0.000000000000D+00 0.000000000000D+00 0.448250822515D-06 0.000000000000D+00  7 -1 1 24 -13 13 -24 21 2 0.46945052D-01 0.17057391D+00 0.29530095D+06 0.29530095D+06 0.29530095D+06 0.10850595D+01  1  2 15  2  7  2        1 0.686252296123D-04 0.100000000000D+01
0.179046621672D-04 0.000000000000D+00 -.393260909050D-04 0.448250822515D-06 0.000000000000D+00  7 -1 1 24 -13 13 -24 21 2 0.46945052D-01 0.56693629D+00 0.29530095D+06 0.29530095D+06 0.29530095D+06 0.10850595D+01  1  2  5  2  7  2        1 0.203617783057D-05 0.100000000000D+01
0.401618634995D-05 0.000000000000D+00 -.547700893664D-05 0.448250822515D-06 0.000000000000D+00  7 -1 21 24 -13 13 -24 -1 2 0.46945052D-01 0.56693629D+00 0.29530095D+06 0.29530095D+06 0.29530095D+06 0.10850595D+01  1  2  5  4  7  2        1 0.494689467496D-07 0.100000000000D+01
  </mgrwgt>
  </event>
  <event>
  8     66 0.29788925E-05 0.46960978E+03 0.75467711E-02 0.91694720E-01
       -1 -1    0    0    0  501 0.00000000E+00 0.00000000E+00 0.25352882E+03 0.25352902E+03 0.32000000E+00 0.0000E+00 0.9000E+01
        1 -1    0    0  501    0 0.00000000E+00 0.00000000E+00 -.11172870E+04 0.11172871E+04 0.32000000E+00 0.0000E+00 0.9000E+01
       25  2    1    2    0    0 -.56246058E+02 0.44665882E+03 -.22946223E+03 0.58762985E+03 0.29998034E+03 0.0000E+00 0.0000E+00
       23  2    1    2    0    0 0.56246058E+02 -.44665882E+03 -.63429597E+03 0.78318623E+03 0.91550965E+02 0.0000E+00 0.0000E+00
       24  1    3    3    0    0 -.48130733E+02 0.26209947E+03 0.51190149E+01 0.27839921E+03 0.80419002E+02 0.0000E+00 0.9000E+01
      -13  1    4    4    0    0 0.21520337E+02 -.14768387E+02 -.34536295E+02 0.43289687E+02 0.10565837E+00 0.0000E+00 0.9000E+01
       13  1    4    4    0    0 0.34725721E+02 -.43189043E+03 -.59975968E+03 0.73989655E+03 0.10565837E+00 0.0000E+00 0.9000E+01
      -24  1    3    3    0    0 -.81153250E+01 0.18455934E+03 -.23458124E+03 0.30923063E+03 0.80419002E+02 0.0000E+00 0.9000E+01
#aMCatNLO 1  0  0  2  2 0.32223676D+03 0.00000000D+00  -5  7  0 0.00000000D+00 0.00000000D+00 0.00000000D+00 0.00000000D+00 0.00000000D+00
  <mgrwgt>
 0.1067566288D-02    7    2    0
 0.532226103853403D+03 0.000000000000000D+00 0.000000000000000D+00 0.532226103853403D+03
 0.532226103853403D+03 0.000000000000000D+00 0.000000000000000D+00 -.532226103853403D+03
 0.362680172551769D+03 -.481307327932569D+02 0.262099474351039D+03 0.232501590776285D+03
 0.277237145675712D+02 0.215203189432659D+02 -.147678313653699D+02 -.934833561487124D+01
 0.466169702167101D+03 0.347257388345605D+02 -.431890986095946D+03 -.171983983004316D+03
 0.207878618420365D+03 -.811532498456958D+01 0.184559343110277D+03 -.511692721570976D+02
 0.000000000000000D+00 -.000000000000000D+00 0.000000000000000D+00 -.000000000000000D+00
 0.693747953191095D+03 0.000000000000000D+00 0.000000000000000D+00 0.693747953191095D+03
 0.744640796394453D+03 0.000000000000000D+00 0.000000000000000D+00 -.744640796394453D+03
 0.338569435436493D+03 0.496592041037928D+02 0.227242206448736D+03 0.232501590776285D+03
 0.366038046790259D+02 0.304908537944936D+02 -.179653826314616D+02 -.934833561487124D+01
 0.540862625583306D+03 0.175157372110639D+03 -.481947906249352D+03 -.171983983004316D+03
 0.196121962586024D+03 0.482229472553594D+02 0.164477540105459D+03 -.511692721570976D+02
 0.326230921300698D+03 -.303530377264285D+03 0.108193542326618D+03 -.508928432033579D+02
0.100583051113D-03 0.000000000000D+00 0.000000000000D+00 0.961442331011D-05 0.000000000000D+00  7 -1 1 24 -13 13 -24 21 0 0.39004452D-01 0.17189033D+00 0.22053334D+06 0.22053334D+06 0.22053334D+06 0.10945804D+01  1  2  2  2  7  2        1 0.947137518995D-03 0.100000000000D+01
-.548150632943D-05 0.000000000000D+00 -.386265400400D-06 0.961442331011D-05 0.000000000000D+00  7 -1 1 24 -13 13 -24 21 2 0.39004452D-01 0.17189033D+00 0.22053334D+06 0.22053334D+06 0.22053334D+06 0.10945804D+01  1  2  3  2  7  2        1 -.618419898463D-04 0.100000000000D+01
0.642336458496D-05 0.000000000000D+00 0.000000000000D+00 0.961442331011D-05 0.000000000000D+00  7 -1 1 24 -13 13 -24 21 2 0.39004452D-01 0.17189033D+00 0.22053334D+06 0.22053334D+06 0.22053334D+06 0.10945804D+01  1  2 15  2  7  2        1 0.724679720444D-04 0.100000000000D+01
-.353844124009D-04 0.000000000000D+00 0.000000000000D+00 0.961442331011D-05 0.000000000000D+00  7 -1 1 24 -13 13 -24 21 2 0.39004452D-01 0.17189033D+00 0.22053334D+06 0.22053334D+06 0.22053334D+06 0.10945804D+01  1  2  4  2  7  2        1 -.399204587372D-03 0.100000000000D+01
-.492320069172D-04 0.000000000000D+00 -.331667510517D-04 0.961442331011D-05 0.000000000000D+00  7 -1 1 24 -13 13 -24 21 2 0.39004452D-01 0.28105940D+00 0.22053334D+06 0.22053334D+06 0.22053334D+06 0.10945804D+01  1  2  5  2  7  2        1 -.183013438812D-03 0.100000000000D+01
0.615858780375D-04 0.000000000000D+00 0.295250052575D-04 0.961442331011D-05 0.000000000000D+00  7 -1 1 24 -13 13 -24 21 2 0.39004452D-01 0.17189033D+00 0.22053334D+06 0.22053334D+06 0.22053334D+06 0.10945804D+01  1  2  6  2  7  2        1 0.694807780085D-03 0.100000000000D+01
-.127165813234D-05 0.000000000000D+00 -.184550901754D-05 0.961442331011D-05 0.000000000000D+00  7 -1 21 24 -13 13 -24 -1 2 0.39004452D-01 0.28105940D+00 0.22053334D+06 0.22053334D+06 0.22053334D+06 0.10945804D+01  1  2  5  4  7  2        1 -.278696716353D-05 0.100000000000D+01
  </mgrwgt>
  </event>
  <event>
  8     66 0.29788925E-05 0.10964288E+03 0.75467711E-02 0.10668069E+00
       -3 -1    0    0    0  501 0.00000000E+00 0.00000000E+00 0.29904889E+03 0.29904930E+03 0.50000000E+00 0.0000E+00 0.9000E+01
        3 -1    0    0  501    0 0.00000000E+00 0.00000000E+00 -.26601625E+03 0.26601672E+03 0.50000000E+00 0.0000E+00 0.9000E+01
       25  2    1    2    0    0 0.25430465E+02 0.51518346E+02 -.16234886E+03 0.34438702E+03 0.29823551E+03 0.0000E+00 0.0000E+00
       23  2    1    2    0    0 -.25430465E+02 -.51518346E+02 0.19538150E+03 0.22067900E+03 0.84996735E+02 0.0000E+00 0.0000E+00
       24  1    3    3    0    0 0.35132093E+02 0.10953508E+03 0.14808313E+02 0.14113362E+03 0.80419002E+02 0.0000E+00 0.9000E+01
      -13  1    4    4    0    0 -.57538381E+01 0.13291402E+02 0.64291627E+00 0.14498018E+02 0.10565837E+00 0.0000E+00 0.9000E+01
       13  1    4    4    0    0 -.19676627E+02 -.64809748E+02 0.19473858E+03 0.20618099E+03 0.10565837E+00 0.0000E+00 0.9000E+01
      -24  1    3    3    0    0 -.97016275E+01 -.58016732E+02 -.17715717E+03 0.20325339E+03 0.80419002E+02 0.0000E+00 0.9000E+01
#aMCatNLO 1  0  0  2  1 0.49987809D+02 0.00000000D+00  -5  7  0 0.00000000D+00 0.00000000D+00 0.00000000D+00 0.00000000D+00 0.00000000D+00
  <mgrwgt>
 0.2929690684D-03    9    2    0
 0.282049841553608D+03 0.000000000000000D+00 0.000000000000000D+00 0.282049841553608D+03
 0.282049841553608D+03 0.000000000000000D+00 0.000000000000000D+00 -.282049841553608D+03
 0.140508245648547D+03 0.351320927418011D+02 0.109535078425471D+03 0.656915479869591D+01
 0.144849245746985D+02 -.575381611397348D+01 0.132915204641018D+02 -.205240867393876D+00
 0.195130934022925D+03 -.196766493561409D+02 -.648098673607513D+02 0.182998885175447D+03
 0.213975578861046D+03 -.970162727168670D+01 -.580167315288218D+02 -.189362799106749D+03
 0.000000000000000D+00 -.000000000000000D+00 0.000000000000000D+00 -.000000000000000D+00
 0.296758955200048D+03 0.000000000000000D+00 0.000000000000000D+00 0.296758955200048D+03
 0.329075539695708D+03 0.000000000000000D+00 0.000000000000000D+00 -.329075539695708D+03
 0.132065105039740D+03 0.372864293624854D+02 0.976757104167359D+02 0.656915479869591D+01
 0.132916897390895D+02 -.553427822714884D+01 0.120829903919135D+02 -.205240867393876D+00
 0.201234600381418D+03 -.165438970757431D+02 -.820552977251298D+02 0.182998885175447D+03
 0.219718796776115D+03 -.627383921661575D+01 -.768862988985303D+02 -.189362799106749D+03
 0.595243029593939D+02 -.893441484297777D+01 0.491828958150107D+02 -.323165844956593D+02
0.222927543039D-04 0.000000000000D+00 0.000000000000D+00 0.684032159984D-08 0.000000000000D+00  7 -3 3 24 -13 13 -24 21 0 0.46007589D-01 0.40925645D-01 0.25953984D+05 0.25953984D+05 0.25953984D+05 0.11732189D+01  1  2  2  2  7  2        3 0.258689545224D-03 0.100000000000D+01
-.766188045274D-06 0.000000000000D+00 -.856100463439D-07 0.684032159984D-08 0.000000000000D+00  7 -3 3 24 -13 13 -24 21 2 0.46007589D-01 0.40925645D-01 0.25953984D+05 0.25953984D+05 0.25953984D+05 0.11732189D+01  1  2  3  2  7  2        3 -.122379479133D-04 0.100000000000D+01
0.138358836951D-05 0.000000000000D+00 0.000000000000D+00 0.684032159984D-08 0.000000000000D+00  7 -3 3 24 -13 13 -24 21 2 0.46007589D-01 0.40925645D-01 0.25953984D+05 0.25953984D+05 0.25953984D+05 0.11732189D+01  1  2 15  2  7  2        3 0.220993821346D-04 0.100000000000D+01
0.343499509107D-04 0.000000000000D+00 0.000000000000D+00 0.684032159984D-08 0.000000000000D+00  7 -3 3 24 -13 13 -24 21 2 0.46007589D-01 0.48687642D-01 0.38087902D+05 0.38087902D+05 0.38087902D+05 0.11578381D+01  1  2 12  2  7  2        3 0.383683119078D-03 0.100000000000D+01
-.372397998590D-04 0.000000000000D+00 0.000000000000D+00 0.684032159984D-08 0.000000000000D+00  7 -3 3 24 -13 13 -24 21 2 0.46007589D-01 0.40925645D-01 0.25953984D+05 0.25953984D+05 0.25953984D+05 0.11732189D+01  1  2  4  2  7  2        3 -.594813158187D-03 0.100000000000D+01
-.577187598272D-04 0.000000000000D+00 -.167934225977D-04 0.684032159984D-08 0.000000000000D+00  7 -3 3 24 -13 13 -24 21 2 0.46007589D-01 0.49830144D-01 0.25953984D+05 0.25953984D+05 0.25953984D+05 0.11732189D+01  1  2  5  2  7  2        3 -.628392431445D-03 0.100000000000D+01
0.601751901837D-04 0.000000000000D+00 0.164731802187D-04 0.684032159984D-08 0.000000000000D+00  7 -3 3 24 -13 13 -24 21 2 0.46007589D-01 0.40925645D-01 0.25953984D+05 0.25953984D+05 0.25953984D+05 0.11732189D+01  1  2  6  2  7  2        3 0.961148960340D-03 0.100000000000D+01
0.880825717353D-06 0.000000000000D+00 0.000000000000D+00 0.684032159984D-08 0.000000000000D+00  7 -3 21 24 -13 13 -24 -3 2 0.46007589D-01 0.48687642D-01 0.38087902D+05 0.38087902D+05 0.38087902D+05 0.11578381D+01  1  2 12  4  7  2        3 0.157114488640D-03 0.100000000000D+01
-.144358418253D-05 0.000000000000D+00 -.474774246157D-06 0.684032159984D-08 0.000000000000D+00  7 -3 21 24 -13 13 -24 -3 2 0.46007589D-01 0.49830144D-01 0.25953984D+05 0.25953984D+05 0.25953984D+05 0.11732189D+01  1  2  5  4  7  2        3 -.254322889439D-03 0.100000000000D+01
  </mgrwgt>
  </event>
  <event>
  8     66 0.29788925E-05 0.31826453E+03 0.75467711E-02 0.94893321E-01
       -1 -1    0    0    0  501 0.00000000E+00 0.00000000E+00 0.38906430E+03 0.38906443E+03 0.32000000E+00 0.0000E+00 0.9000E+01
        1 -1    0    0  501    0 0.00000000E+00 0.00000000E+00 -.15346132E+04 0.15346132E+04 0.32000000E+00 0.0000E+00 0.9000E+01
       25  2    1    2    0    0 -.24957957E+03 -.30828291E+03 -.13705932E+04 0.14580449E+04 0.30006843E+03 0.0000E+00 0.0000E+00
       23  2    1    2    0    0 0.24957957E+03 0.30828291E+03 0.22504427E+03 0.46563273E+03 0.94024446E+02 0.0000E+00 0.0000E+00
       24  1    3    3    0    0 0.23531074E+02 -.18205892E+02 -.16789198E+03 0.18852082E+03 0.80419002E+02 0.0000E+00 0.9000E+01
      -13  1    4    4    0    0 0.19741676E+03 0.29106867E+03 0.18303207E+03 0.39647837E+03 0.10565837E+00 0.0000E+00 0.9000E+01
       13  1    4    4    0    0 0.52162812E+02 0.17214244E+02 0.42012202E+02 0.69154360E+02 0.10565837E+00 0.0000E+00 0.9000E+01
      -24  1    3    3    0    0 -.27311065E+03 -.29007702E+03 -.12027012E+04 0.12695241E+04 0.80419002E+02 0.0000E+00 0.9000E+01
#aMCatNLO 1  0  0  1  2 0.74192851D+02 0.00000000D+00  -5  7  0 0.00000000D+00 0.00000000D+00 0.00000000D+00 0.00000000D+00 0.00000000D+00
  <mgrwgt>
 0.1422102266D-02    6    2    0
 0.772698750476271D+03 0.000000000000000D+00 0.000000000000000D+00 0.772698750476271D+03
 0.772698750476271D+03 0.000000000000000D+00 0.000000000000000D+00 -.772698750476271D+03
 0.110214242082366D+03 0.235310740301670D+02 -.182058919326166D+02 -.692444745618348D+02
 0.629203655052507D+03 0.197416942476647D+03 0.291069015929320D+03 0.521730407701663D+03
 0.117223386405138D+03 0.521626289868900D+02 0.172138984479687D+02 0.103557057498210D+03
 0.688756217412531D+03 -.273110645493704D+03 -.290077022444672D+03 -.556042990638038D+03
 0.000000000000000D+00 -.000000000000000D+00 0.000000000000000D+00 -.000000000000000D+00
 0.803357334006311D+03 0.000000000000000D+00 0.000000000000000D+00 0.803357334006311D+03
 0.819816756866348D+03 0.000000000000000D+00 0.000000000000000D+00 -.819816756866348D+03
 0.111519313193164D+03 0.288417873700000D+02 -.185120313489249D+02 -.692444745618348D+02
 0.638586214032674D+03 0.227781623011757D+03 0.289318624789643D+03 0.521730407701663D+03
 0.119810960039872D+03 0.578398097099423D+02 0.168866337884744D+02 0.103557057498210D+03
 0.677260947635757D+03 -.240393334972758D+03 -.291963032422077D+03 -.556042990638038D+03
 0.759966559711925D+02 -.740698851189409D+02 0.426980519288413D+01 -.164594228600372D+02
0.401722190814D-03 0.000000000000D+00 0.000000000000D+00 0.495612256320D-05 0.000000000000D+00  7 -1 1 24 -13 13 -24 21 0 0.59856058D-01 0.23609435D+00 0.20197282D+06 0.20197282D+06 0.20197282D+06 0.10974981D+01  1  2  2  1  7  1       -1 0.902699108676D-03 0.100000000000D+01
-.143481377281D-04 0.000000000000D+00 -.154271898861D-05 0.495612256320D-05 0.000000000000D+00  7 -1 1 24 -13 13 -24 21 2 0.59856058D-01 0.23609435D+00 0.20197282D+06 0.20197282D+06 0.20197282D+06 0.10974981D+01  1  2  3  1  7  1       -1 -.388347313653D-04 0.100000000000D+01
0.251756036292D-04 0.000000000000D+00 0.000000000000D+00 0.495612256320D-05 0.000000000000D+00  7 -1 1 24 -13 13 -24 21 2 0.59856058D-01 0.23609435D+00 0.20197282D+06 0.20197282D+06 0.20197282D+06 0.10974981D+01  1  2 15  1  7  1       -1 0.681403972020D-04 0.100000000000D+01
0.591958396582D-03 0.000000000000D+00 0.000000000000D+00 0.495612256320D-05 0.000000000000D+00  7 -1 1 24 -13 13 -24 21 2 0.63968288D-01 0.23609435D+00 0.23850529D+06 0.23850529D+06 0.23850529D+06 0.10920003D+01  1  2 12  1  7  1       -1 0.138598413888D-02 0.100000000000D+01
-.379164280394D-03 0.000000000000D+00 0.000000000000D+00 0.495612256320D-05 0.000000000000D+00  7 -1 1 24 -13 13 -24 21 2 0.59856058D-01 0.23609435D+00 0.20197282D+06 0.20197282D+06 0.20197282D+06 0.10974981D+01  1  2  4  1  7  1       -1 -.102624767419D-02 0.100000000000D+01
0.672617882393D-05 0.000000000000D+00 0.000000000000D+00 0.495612256320D-05 0.000000000000D+00  7 21 1 24 -13 13 -24 1 2 0.63968288D-01 0.23609435D+00 0.23850529D+06 0.23850529D+06 0.23850529D+06 0.10920003D+01  1  2 12  3  7  1       -1 0.130361027182D-03 0.100000000000D+01
  </mgrwgt>
  </event>
  <event>
  7     66 0.29788925E-05 0.64601164E+03 0.75467711E-02 0.83171801E-01
       -1 -1    0    0    0  501 0.00000000E+00 0.00000000E+00 0.58098046E+03 0.58098055E+03 0.32000000E+00 0.0000E+00 0.9000E+01
        1 -1    0    0  501    0 0.00000000E+00 0.00000000E+00 -.15134147E+04 0.15134147E+04 0.32000000E+00 0.0000E+00 0.9000E+01
       23  2    1    2    0    0 0.58570255E+03 -.19151000E+03 -.11999251E+04 0.13520017E+04 0.91458667E+02 0.0000E+00 0.0000E+00
       24  1    1    2    0    0 -.15560536E+03 0.15934050E+03 0.17390817E+03 0.29379192E+03 0.80419002E+02 0.0000E+00 0.9000E+01
      -13  1    3    3    0    0 0.17539580E+02 -.91944215E+01 -.13474499E+02 0.23953028E+02 0.10565837E+00 0.0000E+00 0.9000E+01
       13  1    3    3    0    0 0.56816297E+03 -.18231558E+03 -.11864506E+04 0.13280487E+04 0.10565837E+00 0.0000E+00 0.9000E+01
      -24  1    1    2    0    0 -.43009719E+03 0.32169499E+02 0.93582763E+02 0.44860163E+03 0.80419002E+02 0.0000E+00 0.9000E+01
#aMCatNLO 1  0  0  2  1 0.14534676D+04 0.00000000D+00  -5  7  0 0.00000000D+00 0.00000000D+00 0.00000000D+00 0.00000000D+00 0.00000000D+00
  <mgrwgt>
 0.1630958622D-02    3    2    0
 0.937691029791976D+03 0.000000000000000D+00 0.000000000000000D+00 0.937691029791976D+03
 0.937691029791976D+03 0.000000000000000D+00 0.000000000000000D+00 -.937691029791976D+03
 0.414568496935111D+03 -.155605361386485D+03 0.159340500921880D+03 0.340290168783073D+03
 0.200496952555366D+02 0.175388455974688D+02 -.919419046213715D+01 -.313783949461734D+01
 0.893244032171396D+03 0.568163701844900D+03 -.182315813356344D+03 -.664707343961182D+03
 0.547519835221907D+03 -.430097186055884D+03 0.321695028966008D+02 0.327555014672726D+03
 0.000000000000000D+00 0.000000000000000D+00 -.000000000000000D+00 0.000000000000000D+00
 0.261670415126106D+04 0.000000000000000D+00 0.000000000000000D+00 0.261670415126106D+04
 0.155557813476450D+04 0.000000000000000D+00 0.000000000000000D+00 -.155557813476450D+04
 0.693516453233469D+03 -.470045739209284D+03 0.371156919687544D+03 0.340290168783073D+03
 0.101115219509447D+02 0.898002117470353D+01 -.342871100740921D+01 -.313783949461734D+01
 0.685957820154537D+03 0.120034858448658D+03 0.119557143962400D+03 -.664707343961182D+03
 0.983097494466248D+03 -.864439238419328D+03 0.324755266493412D+03 0.327555014672726D+03
 0.179959899622037D+04 0.120547009800525D+04 -.812040619135948D+03 0.106112601649656D+04
0.159956682174D-02 0.000000000000D+00 0.000000000000D+00 0.735401078894D-07 0.000000000000D+00  7 -1 1 24 -13 13 -24 21 0 0.89381618D-01 0.23283303D+00 0.41733104D+06 0.41733104D+06 0.41733104D+06 0.10741022D+01  1  2  2  2  7  2        1 0.159994812241D-02 0.100000000000D+01
-.738643821435D-04 0.000000000000D+00 -.614275777112D-05 0.735401078894D-07 0.000000000000D+00  7 -1 1 24 -13 13 -24 21 2 0.89381618D-01 0.23283303D+00 0.41733104D+06 0.41733104D+06 0.41733104D+06 0.10741022D+01  1  2  3  2  7  2        1 -.852373227262D-04 0.100000000000D+01
0.100737250997D-03 0.000000000000D+00 0.000000000000D+00 0.735401078894D-07 0.000000000000D+00  7 -1 1 24 -13 13 -24 21 2 0.89381618D-01 0.23283303D+00 0.41733104D+06 0.41733104D+06 0.41733104D+06 0.10741022D+01  1  2 15  2  7  2        1 0.116247822355D-03 0.100000000000D+01
  </mgrwgt>
  </event>
  <event>
  8     66 0.29788925E-05 0.20784684E+03 0.75467711E-02 0.10305267E+00
       -1 -1    0    0    0  501 0.00000000E+00 0.00000000E+00 0.39313972E+03 0.39313985E+03 0.32000000E+00 0.0000E+00 0.9000E+01
        1 -1    0    0  501    0 0.00000000E+00 0.00000000E+00 -.24900833E+03 0.24900853E+03 0.32000000E+00 0.0000E+00 0.9000E+01
       25  2    1    2    0    0 -.96126971E+02 0.10332830E+03 0.27172693E+03 0.42879131E+03 0.30018217E+03 0.0000E+00 0.0000E+00
       23  2    1    2    0    0 0.96126971E+02 -.10332830E+03 -.12759554E+03 0.21335707E+03 0.96558195E+02 0.0000E+00 0.0000E+00
       24  1    3    3    0    0 0.40693541E+02 0.10901023E+03 0.38426624E+02 0.14657086E+03 0.80419002E+02 0.0000E+00 0.9000E+01
      -13  1    4    4    0    0 0.95284031E+02 -.36988712E+02 -.94553570E+02 0.13923936E+03 0.10565837E+00 0.0000E+00 0.9000E+01
       13  1    4    4    0    0 0.84294092E+00 -.66339587E+02 -.33041966E+02 0.74117704E+02 0.10565837E+00 0.0000E+00 0.9000E+01
      -24  1    3    3    0    0 -.13682051E+03 -.56819347E+01 0.23330030E+03 0.28222045E+03 0.80419002E+02 0.0000E+00 0.9000E+01
#aMCatNLO 1  0  0  2  1 0.35435127D+02 0.00000000D+00  -5  7  0 0.00000000D+00 0.00000000D+00 0.00000000D+00 0.00000000D+00 0.00000000D+00
  <mgrwgt>
 0.5310005735D-03    9    2    0
 0.312882039531180D+03 0.000000000000000D+00 0.000000000000000D+00 0.312882039531180D+03
 0.312882039531180D+03 0.000000000000000D+00 0.000000000000000D+00 -.312882039531180D+03
 0.141557754138654D+03 0.406935377353430D+02 0.109010236507512D+03 0.567328172819104D+01
 0.164663538634184D+03 0.952841247016512D+02 -.369887063567791D+02 -.129100163196735D+03
 0.836687235407054D+02 0.842854679381816D+00 -.663396007816543D+02 -.509784490059396D+02
 0.235874062748816D+03 -.136820517116376D+03 -.568192936907901D+01 0.174405330474484D+03
 0.000000000000000D+00 0.000000000000000D+00 0.000000000000000D+00 -.000000000000000D+00
 0.330408628062446D+03 0.000000000000000D+00 0.000000000000000D+00 0.330408628062446D+03
 0.331821211736969D+03 0.000000000000000D+00 0.000000000000000D+00 -.331821211736969D+03
 0.138624491134624D+03 0.328477579015314D+02 0.107881287827119D+03 0.567328172819104D+01
 0.159885006331580D+03 0.861959812802089D+02 -.382964218089316D+02 -.129100163196735D+03
 0.842905585345680D+02 -.386041103583994D+01 -.670163653270798D+02 -.509784490059396D+02
 0.243966512102173D+03 -.150257212585564D+03 -.761536873904618D+01 0.174405330474484D+03
 0.354632716964712D+02 0.350738844396641D+02 0.504686804793841D+01 -.141258367452269D+01
0.708215618067D-05 0.000000000000D+00 0.000000000000D+00 0.778613485206D-07 0.000000000000D+00  7 -1 1 24 -13 13 -24 21 0 0.60483059D-01 0.38308999D-01 0.54944928D+05 0.54944928D+05 0.54944928D+05 0.11437101D+01  1  2  2  2  7  2        1 0.278380903400D-03 0.100000000000D+01
-.353558210346D-06 0.000000000000D+00 -.271973445083D-07 0.778613485206D-07 0.000000000000D+00  7 -1 1 24 -13 13 -24 21 2 0.60483059D-01 0.38308999D-01 0.54944928D+05 0.54944928D+05 0.54944928D+05 0.11437101D+01  1  2  3  2  7  2        1 -.181788659250D-04 0.100000000000D+01
0.444510421457D-06 0.000000000000D+00 0.000000000000D+00 0.778613485206D-07 0.000000000000D+00  7 -1 1 24 -13 13 -24 21 2 0.60483059D-01 0.38308999D-01 0.54944928D+05 0.54944928D+05 0.54944928D+05 0.11437101D+01  1  2 15  2  7  2        1 0.228553463546D-04 0.100000000000D+01
0.119865905260D-04 0.000000000000D+00 0.000000000000D+00 0.778613485206D-07 0.000000000000D+00  7 -1 1 24 -13 13 -24 21 2 0.60483059D-01 0.41639702D-01 0.64005419D+05 0.64005419D+05 0.64005419D+05 0.11379798D+01  1  2 12  2  7  2        1 0.546758598741D-03 0.100000000000D+01
-.960059619426D-05 0.000000000000D+00 0.000000000000D+00 0.778613485206D-07 0.000000000000D+00  7 -1 1 24 -13 13 -24 21 2 0.60483059D-01 0.38308999D-01 0.54944928D+05 0.54944928D+05 0.54944928D+05 0.11437101D+01  1  2  4  2  7  2        1 -.493632861319D-03 0.100000000000D+01
-.382731695746D-04 0.000000000000D+00 -.912811878508D-05 0.778613485206D-07 0.000000000000D+00  7 -1 1 24 -13 13 -24 21 2 0.60483059D-01 0.42724208D-01 0.54944928D+05 0.54944928D+05 0.54944928D+05 0.11437101D+01  1  2  5  2  7  2        1 -.170894948727D-02 0.100000000000D+01
0.390901205316D-04 0.000000000000D+00 0.907408065577D-05 0.778613485206D-07 0.000000000000D+00  7 -1 1 24 -13 13 -24 21 2 0.60483059D-01 0.38308999D-01 0.54944928D+05 0.54944928D+05 0.54944928D+05 0.11437101D+01  1  2  6  2  7  2        1 0.200989268342D-02 0.100000000000D+01
0.166066266335D-06 0.000000000000D+00 0.000000000000D+00 0.778613485206D-07 0.000000000000D+00  7 -1 21 24 -13 13 -24 -1 2 0.60483059D-01 0.41639702D-01 0.64005419D+05 0.64005419D+05 0.64005419D+05 0.11379798D+01  1  2 12  4  7  2        1 0.395342837906D-04 0.100000000000D+01
-.634415818525D-06 0.000000000000D+00 -.159749216698D-06 0.778613485206D-07 0.000000000000D+00  7 -1 21 24 -13 13 -24 -1 2 0.60483059D-01 0.42724208D-01 0.54944928D+05 0.54944928D+05 0.54944928D+05 0.11437101D+01  1  2  5  4  7  2        1 -.145660027727D-03 0.100000000000D+01
  </mgrwgt>
  </event>
  <event>
  8     66 0.29788925E-05 0.28066944E+03 0.75467711E-02 0.10160099E+00
       -1 -1    0    0    0  501 0.00000000E+00 0.00000000E+00 0.10604251E+04 0.10604252E+04 0.32000000E+00 0.0000E+00 0.9000E+01
        1 -1    0    0  501    0 0.00000000E+00 0.00000000E+00 -.16836051E+03 0.16836082E+03 0.32000000E+00 0.0000E+00 0.9000E+01
       25  2    1    2    0    0 0.87716961E+02 0.22870527E+03 0.10848376E+03 0.40280857E+03 0.30080833E+03 0.0000E+00 0.0000E+00
       23  2    1    2    0    0 -.87716961E+02 -.22870527E+03 0.78358087E+03 0.82597744E+03 0.90770973E+02 0.0000E+00 0.0000E+00
       24  1    3    3    0    0 -.11370982E+02 0.13616797E+03 -.62340188E+02 0.17036588E+03 0.80419002E+02 0.0000E+00 0.9000E+01
      -11  1    4    4    0    0 -.17936849E+02 -.36402272E+02 0.27199554E+03 0.27500624E+03 0.51099893E-03 0.0000E+00 0.9000E+01
       11  1    4    4    0    0 -.69780111E+02 -.19230300E+03 0.51158533E+03 0.55097120E+03 0.51099893E-03 0.0000E+00 0.9000E+01
      -24  1    3    3    0    0 0.99087942E+02 0.92537299E+02 0.17082394E+03 0.23244270E+03 0.80419002E+02 0.0000E+00 0.9000E+01
#aMCatNLO 1  0  0  1  2 0.29514457D+01 0.00000000D+00  -5  7  0 0.00000000D+00 0.00000000D+00 0.00000000D+00 0.00000000D+00 0.00000000D+00
  <mgrwgt>
 0.5422131483D-03    6    2    0
 0.422532764971821D+03 0.000000000000000D+00 0.000000000000000D+00 0.422532764971821D+03
 0.422532764971821D+03 0.000000000000000D+00 0.000000000000000D+00 -.422532764971821D+03
 0.313531520841333D+03 -.113709816770851D+02 0.136167974247381D+03 -.270488044415594D+03
 0.112756006199596D+03 -.179368493240257D+02 -.364022722917462D+02 0.105200099536113D+03
 0.261114091885540D+03 -.697801112593752D+02 -.192303001001726D+03 0.162267867612690D+03
 0.157663911017173D+03 0.990879422604861D+02 0.925372990460915D+02 0.302007726679162D+01
 0.000000000000000D+00 0.000000000000000D+00 0.000000000000000D+00 -.000000000000000D+00
 0.423001254804189D+03 0.000000000000000D+00 0.000000000000000D+00 0.423001254804189D+03
 0.427209516837127D+03 0.000000000000000D+00 0.000000000000000D+00 -.427209516837127D+03
 0.313119121470828D+03 -.118331298136797D+02 0.135176045005514D+03 -.270488044415594D+03
 0.112898393568695D+03 -.181032670268505D+02 -.367594620599719D+02 0.105200099536113D+03
 0.261827406014724D+03 -.701657750128039D+02 -.193130768386817D+03 0.162267867612690D+03
 0.157225762930651D+03 0.988557144987609D+02 0.920388582012883D+02 0.302007726679162D+01
 0.514008765641756D+01 0.124645735457329D+01 0.267532723998663D+01 -.420826203293852D+01
0.733628207515D-04 0.000000000000D+00 0.000000000000D+00 0.141058752809D-05 0.000000000000D+00  7 -1 1 24 -11 11 -24 21 0 0.16314236D+00 0.25901644D-01 0.78775334D+05 0.78775334D+05 0.78775334D+05 0.11303249D+01  1  2  2  1  7  1       -1 0.499618899634D-03 0.100000000000D+01
-.324639358254D-05 0.000000000000D+00 -.281732548560D-06 0.141058752809D-05 0.000000000000D+00  7 -1 1 24 -11 11 -24 21 2 0.16314236D+00 0.25901644D-01 0.78775334D+05 0.78775334D+05 0.78775334D+05 0.11303249D+01  1  2  3  1  7  1       -1 -.282468872504D-04 0.100000000000D+01
0.458996048517D-05 0.000000000000D+00 0.000000000000D+00 0.141058752809D-05 0.000000000000D+00  7 -1 1 24 -11 11 -24 21 2 0.16314236D+00 0.25901644D-01 0.78775334D+05 0.78775334D+05 0.78775334D+05 0.11303249D+01  1  2 15  1  7  1       -1 0.399372697771D-04 0.100000000000D+01
-.147387307989D-03 0.000000000000D+00 0.000000000000D+00 0.141058752809D-05 0.000000000000D+00  7 -1 1 24 -11 11 -24 21 2 0.16314236D+00 0.25901644D-01 0.78775334D+05 0.78775334D+05 0.78775334D+05 0.11303249D+01  1  2  4  1  7  1       -1 -.128241772449D-02 0.100000000000D+01
0.147356875321D-03 0.000000000000D+00 0.000000000000D+00 0.141058752809D-05 0.110271737808D-05  7 -1 1 24 -11 11 -24 21 2 0.16332324D+00 0.26188334D-01 0.79619532D+05 0.79619532D+05 0.79619532D+05 0.11299362D+01  1  2 11  1  7  1       -1 0.125841166937D-02 0.100000000000D+01
0.993059104362D-06 0.000000000000D+00 0.000000000000D+00 0.141058752809D-05 0.230018353288D-09  7 21 1 24 -11 11 -24 1 2 0.16332324D+00 0.26188334D-01 0.79619532D+05 0.79619532D+05 0.79619532D+05 0.11299362D+01  1  2 11  3  7  1       -1 0.549099212173D-04 0.100000000000D+01
  </mgrwgt>
  </event>
  <event>
  8     66 0.29788925E-05 0.31291587E+03 0.75467711E-02 0.93403854E-01
       -1 -1    0    0    0  501 0.00000000E+00 0.00000000E+00 0.83954632E+02 0.83955242E+02 0.32000000E+00 0.0000E+00 0.9000E+01
        1 -1    0    0  501    0 0.00000000E+00 0.00000000E+00 -.13616056E+04 0.13616057E+04 0.32000000E+00 0.0000E+00 0.9000E+01
       25  2    1    2    0    0 -.24271393E+03 -.66112419E+02 -.91170166E+03 0.99221228E+03 0.30000730E+03 0.0000E+00 0.0000E+00
       23  2    1    2    0    0 0.24271393E+03 0.66112419E+02 -.36594935E+03 0.45334864E+03 0.91242347E+02 0.0000E+00 0.0000E+00
       24  1    3    3    0    0 -.20305098E+03 0.51828987E+02 -.39105638E+03 0.45089717E+03 0.80419002E+02 0.0000E+00 0.9000E+01
      -13  1    4    4    0    0 0.20636511E+03 0.66645796E+02 -.24565152E+03 0.32767805E+03 0.10565837E+00 0.0000E+00 0.9000E+01
       13  1    4    4    0    0 0.36348816E+02 -.53337734E+00 -.12029783E+03 0.12567060E+03 0.10565837E+00 0.0000E+00 0.9000E+01
      -24  1    3    3    0    0 -.39662943E+02 -.11794141E+03 -.52064528E+03 0.54131511E+03 0.80419002E+02 0.0000E+00 0.9000E+01
#aMCatNLO 1  0  0  2  2 0.38931642D+03 0.00000000D+00  -5  7  0 0.00000000D+00 0.00000000D+00 0.00000000D+00 0.00000000D+00 0.00000000D+00
  <mgrwgt>
 0.8545344893D-03    3    2    0
 0.338102897130661D+03 0.000000000000000D+00 0.000000000000000D+00 0.338102897130661D+03
 0.338102897130661D+03 0.000000000000000D+00 0.000000000000000D+00 -.338102897130661D+03
 0.225028749576033D+03 -.203050984259516D+03 0.518289869851818D+02 0.159617066980337D+02
 0.236350890645360D+03 0.206365339215871D+03 0.666458860235133D+02 0.939862551403874D+02
 0.413567720496092D+02 0.363485882845457D+02 -.533467366949425D+00 -.197199933228267D+02
 0.173469381990319D+03 -.396629432409005D+02 -.117941405641746D+03 -.902279685155943D+02
 0.000000000000000D+00 0.000000000000000D+00 -.000000000000000D+00 0.000000000000000D+00
 0.652890630464519D+03 0.000000000000000D+00 0.000000000000000D+00 0.652890630464519D+03
 0.534344482578937D+03 0.000000000000000D+00 0.000000000000000D+00 -.534344482578937D+03
 0.331790832106312D+03 -.259760878526070D+03 0.189439832722894D+03 0.159617066980337D+02
 0.262930626623643D+03 0.155515471529784D+03 0.190036934242417D+03 0.939862551403874D+02
 0.394637504253889D+02 0.281173345088128D+02 0.194402922072839D+02 -.197199933228267D+02
 0.146084966609567D+03 -.722083024877226D+02 -.389676309818584D+02 -.902279685155943D+02
 0.406964937278545D+03 0.148336374975196D+03 -.359949428190737D+03 0.118546147885581D+03
0.213589844522D-04 0.000000000000D+00 0.000000000000D+00 0.385728423863D-05 0.000000000000D+00  7 -1 1 24 -13 13 -24 21 0 0.12916147D-01 0.20947784D+00 0.97916343D+05 0.97916343D+05 0.97916343D+05 0.11224733D+01  1  2  2  2  7  2        1 0.844341772677D-03 0.100000000000D+01
-.117796355604D-05 0.000000000000D+00 -.820241242460D-07 0.385728423863D-05 0.000000000000D+00  7 -1 1 24 -13 13 -24 21 2 0.12916147D-01 0.20947784D+00 0.97916343D+05 0.97916343D+05 0.97916343D+05 0.11224733D+01  1  2  3  2  7  2        1 -.586707357570D-04 0.100000000000D+01
0.138260814673D-05 0.000000000000D+00 0.000000000000D+00 0.385728423863D-05 0.000000000000D+00  7 -1 1 24 -13 13 -24 21 2 0.12916147D-01 0.20947784D+00 0.97916343D+05 0.97916343D+05 0.97916343D+05 0.11224733D+01  1  2 15  2  7  2        1 0.688634523678D-04 0.100000000000D+01
  </mgrwgt>
  </event>
  <event>
  8     66 0.29788925E-05 0.28043314E+03 0.75467711E-02 0.99068304E-01
       -1 -1    0    0    0  501 0.00000000E+00 0.00000000E+00 0.45995282E+03 0.45995293E+03 0.32000000E+00 0.0000E+00 0.9000E+01
        1 -1    0    0  501    0 0.00000000E+00 0.00000000E+00 -.26207658E+03 0.26207677E+03 0.32000000E+00 0.0000E+00 0.9000E+01
       25  2    1    2    0    0 0.39669895E+02 -.20019435E+03 -.73499417E+02 0.37026775E+03 0.30007426E+03 0.0000E+00 0.0000E+00
       23  2    1    2    0    0 -.39669895E+02 0.20019435E+03 0.27137566E+03 0.35176196E+03 0.91870816E+02 0.0000E+00 0.0000E+00
       24  1    3    3    0    0 -.91261368E+02 -.15226854E+03 -.39530546E+01 0.19492867E+03 0.80419002E+02 0.0000E+00 0.9000E+01
      -13  1    4    4    0    0 -.29223409E+02 0.17924242E+03 0.27344452E+03 0.32825869E+03 0.10565837E+00 0.0000E+00 0.9000E+01
       13  1    4    4    0    0 -.10446486E+02 0.20951927E+02 -.20688520E+01 0.23503268E+02 0.10565837E+00 0.0000E+00 0.9000E+01
      -24  1    3    3    0    0 0.13093126E+03 -.47925807E+02 -.69546362E+02 0.17533907E+03 0.80419002E+02 0.0000E+00 0.9000E+01
#aMCatNLO 1  0  0  1  2 0.11675050D+03 0.00000000D+00  -5  7  0 0.00000000D+00 0.00000000D+00 0.00000000D+00 0.00000000D+00 0.00000000D+00
  <mgrwgt>
 0.4710045315D-03    4    2    0
 0.347192989338494D+03 0.000000000000000D+00 0.000000000000000D+00 0.347192989338494D+03
 0.347192989338494D+03 0.000000000000000D+00 0.000000000000000D+00 -.347192989338494D+03
 0.203815332199429D+03 -.912613676629149D+02 -.152268539592908D+03 -.596584303156750D+02
 0.263404756353118D+03 -.292234338061648D+02 0.179242629200581D+03 0.190788197914036D+03
 0.250281774961265D+02 -.104464608344529D+02 0.209517175324544D+02 -.884910488422994D+01
 0.202137712628314D+03 0.130931262303533D+03 -.479258071401275D+02 -.122280662714131D+03
 0.000000000000000D+00 0.000000000000000D+00 -.000000000000000D+00 -.000000000000000D+00
 0.397922160003707D+03 0.000000000000000D+00 0.000000000000000D+00 0.397922160003707D+03
 0.426378789425259D+03 0.000000000000000D+00 0.000000000000000D+00 -.426378789425259D+03
 0.216244630744416D+03 -.125531700375129D+03 -.144835038111007D+03 -.596584303156750D+02
 0.278292143627597D+03 -.734174409222289D+02 0.188828652778091D+03 0.190788197914036D+03
 0.278427150455344D+02 -.147598999575160D+02 0.218873359982171D+02 -.884910488422994D+01
 0.181753002276672D+03 0.996117753599930D+02 -.411323670366355D+02 -.122280662714131D+03
 0.120168457734747D+03 0.114097265894881D+03 -.247485836286654D+02 -.284566294215520D+02
0.294223272776D-04 0.000000000000D+00 0.000000000000D+00 0.430164396474D-05 0.000000000000D+00  7 -1 1 24 -13 13 -24 21 0 0.70761996D-01 0.40319497D-01 0.78642744D+05 0.78642744D+05 0.78642744D+05 0.11303864D+01  1  2  2  1  7  1       -1 0.800281812317D-03 0.100000000000D+01
-.154394483207D-05 0.000000000000D+00 -.112989483823D-06 0.430164396474D-05 0.000000000000D+00  7 -1 1 24 -13 13 -24 21 2 0.70761996D-01 0.40319497D-01 0.78642744D+05 0.78642744D+05 0.78642744D+05 0.11303864D+01  1  2  3  1  7  1       -1 -.536601059193D-04 0.100000000000D+01
0.186959595123D-05 0.000000000000D+00 0.000000000000D+00 0.430164396474D-05 0.000000000000D+00  7 -1 1 24 -13 13 -24 21 2 0.70761996D-01 0.40319497D-01 0.78642744D+05 0.78642744D+05 0.78642744D+05 0.11303864D+01  1  2 15  1  7  1       -1 0.649781745341D-04 0.100000000000D+01
-.979983957370D-05 0.000000000000D+00 0.000000000000D+00 0.430164396474D-05 0.000000000000D+00  7 -1 1 24 -13 13 -24 21 2 0.70761996D-01 0.40319497D-01 0.78642744D+05 0.78642744D+05 0.78642744D+05 0.11303864D+01  1  2  4  1  7  1       -1 -.340595349390D-03 0.100000000000D+01
  </mgrwgt>
  </event>
  <event>
  8     66 0.29788925E-05 0.42341298E+03 0.75467711E-02 0.86848111E-01
       -1 -1    0    0    0  501 0.00000000E+00 0.00000000E+00 0.42602772E+03 0.42602784E+03 0.32000000E+00 0.0000E+00 0.9000E+01
        1 -1    0    0  501    0 0.00000000E+00 0.00000000E+00 -.85363056E+03 0.85363062E+03 0.32000000E+00 0.0000E+00 0.9000E+01
       25  2    1    2    0    0 0.32699187E+03 0.19380055E+03 -.66546680E+03 0.82293534E+03 0.29982358E+03 0.0000E+00 0.0000E+00
       23  2    1    2    0    0 -.32699187E+03 -.19380055E+03 0.23786396E+03 0.45672313E+03 0.86800990E+02 0.0000E+00 0.0000E+00
       24  1    3    3    0    0 0.11228987E+03 0.18112307E+03 -.19670625E+03 0.30095705E+03 0.80419002E+02 0.0000E+00 0.9000E+01
      -13  1    4    4    0    0 0.16741438E+01 0.50300587E+01 0.88359390E+00 0.53755139E+01 0.10565837E+00 0.0000E+00 0.9000E+01
       13  1    4    4    0    0 -.32866602E+03 -.19883061E+03 0.23698036E+03 0.45134761E+03 0.10565837E+00 0.0000E+00 0.9000E+01
      -24  1    3    3    0    0 0.21470200E+03 0.12677482E+02 -.46876055E+03 0.52197829E+03 0.80419002E+02 0.0000E+00 0.9000E+01
#aMCatNLO 1  0  0  1  2 0.96936399D+03 0.00000000D+00  -5  7  0 0.00000000D+00 0.00000000D+00 0.00000000D+00 0.00000000D+00 0.00000000D+00
  <mgrwgt>
 0.2148751130D-02    3    2    0
 0.603050911144275D+03 0.000000000000000D+00 0.000000000000000D+00 0.603050911144275D+03
 0.603050911144275D+03 0.000000000000000D+00 0.000000000000000D+00 -.603050911144275D+03
 0.249572700303745D+03 0.112289871826566D+03 0.181123071798036D+03 -.102003599594081D+03
 0.601578889787003D+01 0.167463324001357D+01 0.503036073822989D+01 0.284267311143114D+01
 0.562892164809848D+03 -.328666508244860D+03 -.198830914901916D+03 0.411451312844807D+03
 0.387621168277087D+03 0.214702003178281D+03 0.126774823656506D+02 -.312290386362157D+03
 0.000000000000000D+00 -.000000000000000D+00 -.000000000000000D+00 -.000000000000000D+00
 0.863799733370835D+03 0.000000000000000D+00 0.000000000000000D+00 0.863799733370835D+03
 0.338051872081620D+04 0.000000000000000D+00 0.000000000000000D+00 -.338051872081620D+04
 0.489511480285713D+03 0.281147171993037D+03 0.379085487360447D+03 -.102003599594081D+03
 0.116673992386866D+02 0.571468102549491D+01 0.976677200272941D+01 0.284267311143114D+01
 0.429154038511426D+03 -.102015406878264D+03 0.668869395952107D+02 0.411451312844807D+03
 0.617035219663007D+03 0.444234131882841D+03 0.281772952936008D+03 -.312290386362157D+03
 0.269695031648820D+04 -.629080578023109D+03 -.737512151894395D+03 -.251671898744536D+04
0.357865193963D-03 0.000000000000D+00 0.000000000000D+00 0.939184565428D-06 0.000000000000D+00  7 -1 1 24 -13 13 -24 21 0 0.65542741D-01 0.13132779D+00 0.17927855D+06 0.17927855D+06 0.17927855D+06 0.11014924D+01  1  2  2  1  7  1       -1 0.210632696902D-02 0.100000000000D+01
-.168580760253D-04 0.000000000000D+00 -.137429657289D-05 0.939184565428D-06 0.000000000000D+00  7 -1 1 24 -13 13 -24 21 2 0.65542741D-01 0.13132779D+00 0.17927855D+06 0.17927855D+06 0.17927855D+06 0.11014924D+01  1  2  3  1  7  1       -1 -.120386371894D-03 0.100000000000D+01
0.227988624625D-04 0.000000000000D+00 0.000000000000D+00 0.939184565428D-06 0.000000000000D+00  7 -1 1 24 -13 13 -24 21 2 0.65542741D-01 0.13132779D+00 0.17927855D+06 0.17927855D+06 0.17927855D+06 0.11014924D+01  1  2 15  1  7  1       -1 0.162810532534D-03 0.100000000000D+01
  </mgrwgt>
  </event>
  <event>
  8     66 0.29788925E-05 0.26222825E+03 0.75467711E-02 0.97752561E-01
       -1 -1    0    0    0  501 0.00000000E+00 0.00000000E+00 0.52917411E+02 0.52918378E+02 0.32000000E+00 0.0000E+00 0.9000E+01
        1 -1    0    0  501    0 0.00000000E+00 0.00000000E+00 -.15278943E+04 0.15278943E+04 0.32000000E+00 0.0000E+00 0.9000E+01
       25  2    1    2    0    0 0.14692532E+03 0.75907722E+02 -.11972046E+04 0.12450966E+04 0.29936222E+03 0.0000E+00 0.0000E+00
       23  2    1    2    0    0 -.14692532E+03 -.75907722E+02 -.27777224E+03 0.33571603E+03 0.90547242E+02 0.0000E+00 0.0000E+00
       24  1    3    3    0    0 0.19308238E+03 0.11541263E+03 -.77235872E+03 0.80845909E+03 0.80419002E+02 0.0000E+00 0.9000E+01
      -13  1    4    4    0    0 -.10819207E+03 -.92783836E+02 -.18302397E+03 0.23197446E+03 0.10565837E+00 0.0000E+00 0.9000E+01
       13  1    4    4    0    0 -.38733249E+02 0.16876114E+02 -.94748268E+02 0.10374157E+03 0.10565837E+00 0.0000E+00 0.9000E+01
      -24  1    3    3    0    0 -.46157060E+02 -.39504903E+02 -.42484590E+03 0.43663756E+03 0.80419002E+02 0.0000E+00 0.9000E+01
#aMCatNLO 1  0  0  1  2 0.20592955D+03 0.00000000D+00  -5  7  0 0.00000000D+00 0.00000000D+00 0.00000000D+00 0.00000000D+00 0.00000000D+00
  <mgrwgt>
 0.9172313950D-03    3    2    0
 0.284346618569970D+03 0.000000000000000D+00 0.000000000000000D+00 0.284346618569970D+03
 0.284346618569970D+03 0.000000000000000D+00 0.000000000000000D+00 -.284346618569970D+03
 0.244087889767800D+03 0.193082383255908D+03 0.115412625417938D+03 -.501078950594082D+02
 0.170130641056358D+03 -.108192169031359D+03 -.927839840552052D+02 0.928979111141945D+02
 0.426317479158996D+02 -.387331539601120D+02 0.168762619535680D+02 0.569214345757558D+01
 0.111842958399882D+03 -.461570602644372D+02 -.395049033163003D+02 -.484821595123619D+02
 0.000000000000000D+00 0.000000000000000D+00 -.000000000000000D+00 -.000000000000000D+00
 0.329764136576353D+03 0.000000000000000D+00 0.000000000000000D+00 0.329764136576353D+03
 0.690057413320383D+03 0.000000000000000D+00 0.000000000000000D+00 -.690057413320383D+03
 0.273294633253563D+03 0.160267982132635D+03 0.200065272765360D+03 -.501078950594082D+02
 0.163774464727775D+03 -.129369722564331D+03 -.381513864900942D+02 0.928979111141945D+02
 0.561079592693053D+02 -.449956081679747D+02 0.330317701889935D+02 0.569214345757558D+01
 0.111652653623993D+03 -.603320165799599D+02 -.293719105986570D+01 -.484821595123619D+02
 0.414991839022099D+03 0.744293651796306D+02 -.192008465404393D+03 -.360293276744031D+03
0.145018228555D-04 0.000000000000D+00 0.000000000000D+00 0.561904598959D-06 0.000000000000D+00  7 -1 1 24 -13 13 -24 21 0 0.81412171D-02 0.23506073D+00 0.68763655D+05 0.68763655D+05 0.68763655D+05 0.11353181D+01  1  2  2  1  7  1       -1 0.907206091767D-03 0.100000000000D+01
-.799233308192D-06 0.000000000000D+00 -.556908181826D-07 0.561904598959D-06 0.000000000000D+00  7 -1 1 24 -13 13 -24 21 2 0.81412171D-02 0.23506073D+00 0.68763655D+05 0.68763655D+05 0.68763655D+05 0.11353181D+01  1  2  3  1  7  1       -1 -.644454211210D-04 0.100000000000D+01
0.923564193054D-06 0.000000000000D+00 0.000000000000D+00 0.561904598959D-06 0.000000000000D+00  7 -1 1 24 -13 13 -24 21 2 0.81412171D-02 0.23506073D+00 0.68763655D+05 0.68763655D+05 0.68763655D+05 0.11353181D+01  1  2 15  1  7  1       -1 0.744707243098D-04 0.100000000000D+01
  </mgrwgt>
  </event>
  <event>
  8     66 0.29788925E-05 0.57937762E+03 0.75467711E-02 0.87636056E-01
       -1 -1    0    0    0  501 0.00000000E+00 0.00000000E+00 0.23279044E+03 0.23279066E+03 0.32000000E+00 0.0000E+00 0.9000E+01
        1 -1    0    0  501    0 0.00000000E+00 0.00000000E+00 -.17172551E+04 0.17172552E+04 0.32000000E+00 0.0000E+00 0.9000E+01
       25  2    1    2    0    0 0.43058152E+03 0.32280440E+03 -.11666671E+04 0.13194332E+04 0.30031436E+03 0.0000E+00 0.0000E+00
       23  2    1    2    0    0 -.43058152E+03 -.32280440E+03 -.31779759E+03 0.63061262E+03 0.84106128E+02 0.0000E+00 0.0000E+00
       24  1    3    3    0    0 0.19703873E+02 0.12803821E+03 -.33789888E+03 0.37070864E+03 0.80419002E+02 0.0000E+00 0.9000E+01
      -13  1    4    4    0    0 -.39422054E+03 -.32053506E+03 -.30029409E+03 0.59019413E+03 0.10565837E+00 0.0000E+00 0.9000E+01
       13  1    4    4    0    0 -.36360980E+02 -.22693456E+01 -.17503494E+02 0.40418489E+02 0.10565837E+00 0.0000E+00 0.9000E+01
      -24  1    3    3    0    0 0.41087765E+03 0.19476620E+03 -.82876822E+03 0.94872456E+03 0.80419002E+02 0.0000E+00 0.9000E+01
#aMCatNLO 1  0  0  2  2 0.63782331D+03 0.00000000D+00  -5  7  0 0.00000000D+00 0.00000000D+00 0.00000000D+00 0.00000000D+00 0.00000000D+00
  <mgrwgt>
 0.4271946381D-02    3    2    0
 0.632266417348797D+03 0.000000000000000D+00 0.000000000000000D+00 0.632266417348797D+03
 0.632266417348797D+03 0.000000000000000D+00 0.000000000000000D+00 -.632266417348797D+03
 0.175005241428848D+03 0.197038730219799D+02 0.128038206366143D+03 -.858929197994445D+02
 0.557621464601219D+03 -.394221106193366D+03 -.320535561457816D+03 0.229757200228003D+03
 0.417810880247211D+02 -.363604151382262D+02 -.226884338608337D+01 0.204556074755741D+02
 0.490125040642805D+03 0.410877648309612D+03 0.194766198477757D+03 -.164319887904133D+03
 0.000000000000000D+00 -.000000000000000D+00 0.000000000000000D+00 0.000000000000000D+00
 0.242061056075754D+04 0.000000000000000D+00 0.000000000000000D+00 0.242061056075754D+04
 0.767532938108373D+03 0.000000000000000D+00 0.000000000000000D+00 -.767532938108373D+03
 0.187715675117177D+03 0.102643759333803D+03 0.104195123343069D+03 -.858929197994445D+02
 0.478105002058580D+03 -.157391545293174D+03 -.388617965883013D+03 0.229757200228003D+03
 0.294851301015299D+02 -.200646578227948D+02 -.695345427564889D+01 0.204556074755741D+02
 0.720978722590688D+03 0.687809040606813D+03 0.115155549466096D+03 -.164319887904133D+03
 0.177185896899794D+04 -.612996596824648D+03 0.176220747349497D+03 0.165307762264917D+04
0.101400347951D-02 0.000000000000D+00 0.000000000000D+00 0.299087997916D-06 0.000000000000D+00  7 -1 1 24 -13 13 -24 21 0 0.35813933D-01 0.26419312D+00 0.33567842D+06 0.33567842D+06 0.33567842D+06 0.10809596D+01  1  2  2  2  7  2        1 0.422710716923D-02 0.100000000000D+01
-.558108442056D-04 0.000000000000D+00 -.389404035456D-05 0.299087997916D-06 0.000000000000D+00  7 -1 1 24 -13 13 -24 21 2 0.35813933D-01 0.26419312D+00 0.33567842D+06 0.33567842D+06 0.33567842D+06 0.10809596D+01  1  2  3  2  7  2        1 -.271857522071D-03 0.100000000000D+01
0.650160860466D-04 0.000000000000D+00 0.000000000000D+00 0.299087997916D-06 0.000000000000D+00  7 -1 1 24 -13 13 -24 21 2 0.35813933D-01 0.26419312D+00 0.33567842D+06 0.33567842D+06 0.33567842D+06 0.10809596D+01  1  2 15  2  7  2        1 0.316696733385D-03 0.100000000000D+01
  </mgrwgt>
  </event>
  <event>
  8     66 0.29788925E-05 0.31139437E+03 0.75467711E-02 0.92756595E-01
       -1 -1    0    0    0  501 0.00000000E+00 0.00000000E+00 0.96703662E+03 0.96703667E+03 0.32000000E+00 0.0000E+00 0.9000E+01
        1 -1    0    0  501    0 0.00000000E+00 0.00000000E+00 -.30755392E+03 0.30755408E+03 0.32000000E+00 0.0000E+00 0.9000E+01
       25  2    1    2    0    0 -.44701345E+03 -.10070484E+03 0.11735867E+03 0.55899012E+03 0.29788321E+03 0.0000E+00 0.0000E+00
       23  2    1    2    0    0 0.44701345E+03 0.10070484E+03 0.54212403E+03 0.71560064E+03 0.90682506E+02 0.0000E+00 0.0000E+00
       24  1    3    3    0    0 -.27023022E+03 0.53835664E+02 0.63717169E+01 0.28710706E+03 0.80419002E+02 0.0000E+00 0.9000E+01
      -11  1    4    4    0    0 0.31839998E+03 0.83458792E+02 0.32444453E+03 0.46217764E+03 0.51099893E-03 0.0000E+00 0.9000E+01
       11  1    4    4    0    0 0.12861347E+03 0.17246045E+02 0.21767950E+03 0.25342300E+03 0.51099893E-03 0.0000E+00 0.9000E+01
      -24  1    3    3    0    0 -.17678323E+03 -.15454050E+03 0.11098696E+03 0.27188306E+03 0.80419002E+02 0.0000E+00 0.9000E+01
#aMCatNLO 1  0  0  1  2 0.17584366D+03 0.00000000D+00  -5  7  0 0.00000000D+00 0.00000000D+00 0.00000000D+00 0.00000000D+00 0.00000000D+00
  <mgrwgt>
 0.1040828420D-02    9    2    0
 0.545358635126986D+03 0.000000000000000D+00 0.000000000000000D+00 0.545358635126986D+03
 0.545358635126986D+03 0.000000000000000D+00 0.000000000000000D+00 -.545358635126986D+03
 0.331655120781644D+03 -.270230217928109D+03 0.538356637026387D+02 -.166148288641622D+03
 0.343922114934748D+03 0.318399977966464D+03 0.834587922317009D+02 0.996920516960626D+02
 0.164529114610427D+03 0.128613474444686D+03 0.172460446097264D+02 0.101148295542122D+03
 0.250610919927154D+03 -.176783234483042D+03 -.154540500544066D+03 -.346920585965630D+02
 0.000000000000000D+00 -.000000000000000D+00 0.000000000000000D+00 0.000000000000000D+00
 0.688253098090511D+03 0.000000000000000D+00 0.000000000000000D+00 0.688253098090511D+03
 0.609302198953437D+03 0.000000000000000D+00 0.000000000000000D+00 -.609302198953437D+03
 0.316746430805867D+03 -.257378022017536D+03 0.351929505533990D+01 -.166148288641622D+03
 0.348030138263556D+03 0.332115407698385D+03 0.297628617191782D+02 0.996920516960626D+02
 0.169091181581781D+03 0.135226280037004D+03 -.864310042752536D+01 0.101148295542122D+03
 0.270933206415609D+03 -.166445524353640D+03 -.195012653120885D+03 -.346920585965630D+02
 0.192754339977135D+03 -.435181413642129D+02 0.170373596773892D+03 0.789508991370740D+02
0.175994084213D-03 0.000000000000D+00 0.000000000000D+00 0.467956564635D-06 0.000000000000D+00  7 -1 1 24 -11 11 -24 21 0 0.14877488D+00 0.47316004D-01 0.24708625D+06 0.24708625D+06 0.24708625D+06 0.10908423D+01  1  2  2  1  7  1       -1 0.682640571436D-03 0.100000000000D+01
-.967529854345D-05 0.000000000000D+00 -.675863623683D-06 0.467956564635D-06 0.000000000000D+00  7 -1 1 24 -11 11 -24 21 2 0.14877488D+00 0.47316004D-01 0.24708625D+06 0.24708625D+06 0.24708625D+06 0.10908423D+01  1  2  3  1  7  1       -1 -.446562627337D-04 0.100000000000D+01
0.112389661490D-04 0.000000000000D+00 0.000000000000D+00 0.467956564635D-06 0.000000000000D+00  7 -1 1 24 -11 11 -24 21 2 0.14877488D+00 0.47316004D-01 0.24708625D+06 0.24708625D+06 0.24708625D+06 0.10908423D+01  1  2 15  1  7  1       -1 0.518733580105D-04 0.100000000000D+01
0.120193165116D-03 0.000000000000D+00 0.000000000000D+00 0.467956564635D-06 0.000000000000D+00  7 -1 1 24 -11 11 -24 21 2 0.19468919D+00 0.47316004D-01 0.34997119D+06 0.34997119D+06 0.34997119D+06 0.10796359D+01  1  2 12  1  7  1       -1 0.225285307522D-03 0.100000000000D+01
-.132800048256D-03 0.000000000000D+00 0.000000000000D+00 0.467956564635D-06 0.000000000000D+00  7 -1 1 24 -11 11 -24 21 2 0.14877488D+00 0.47316004D-01 0.24708625D+06 0.24708625D+06 0.24708625D+06 0.10908423D+01  1  2  4  1  7  1       -1 -.612937556328D-03 0.100000000000D+01
-.243759792270D-03 0.000000000000D+00 -.802191209212D-04 0.467956564635D-06 0.000000000000D+00  7 -1 1 24 -11 11 -24 21 2 0.20072968D+00 0.47316004D-01 0.24708625D+06 0.24708625D+06 0.24708625D+06 0.10908423D+01  1  2  5  1  7  1       -1 -.424614856888D-03 0.100000000000D+01
0.259527019551D-03 0.000000000000D+00 0.767504654105D-04 0.467956564635D-06 0.000000000000D+00  7 -1 1 24 -11 11 -24 21 2 0.14877488D+00 0.47316004D-01 0.24708625D+06 0.24708625D+06 0.24708625D+06 0.10908423D+01  1  2  6  1  7  1       -1 0.119784487471D-02 0.100000000000D+01
0.429202472014D-05 0.000000000000D+00 0.000000000000D+00 0.467956564635D-06 0.000000000000D+00  7 21 1 24 -11 11 -24 1 2 0.19468919D+00 0.47316004D-01 0.34997119D+06 0.34997119D+06 0.34997119D+06 0.10796359D+01  1  2 12  3  7  1       -1 0.509153772571D-04 0.100000000000D+01
-.761759068976D-05 0.000000000000D+00 -.309734095403D-05 0.467956564635D-06 0.000000000000D+00  7 21 1 24 -11 11 -24 1 2 0.20072968D+00 0.47316004D-01 0.24708625D+06 0.24708625D+06 0.24708625D+06 0.10908423D+01  1  2  5  3  7  1       -1 -.855223934273D-04 0.100000000000D+01
  </mgrwgt>
  </event>
  <event>
  8     66 0.29788925E-05 0.19617693E+03 0.75467711E-02 0.87826588E-01
       -1 -1    0    0    0  501 0.00000000E+00 0.00000000E+00 0.22743931E+03 0.22743954E+03 0.32000000E+00 0.0000E+00 0.9000E+01
        1 -1    0    0  501    0 0.00000000E+00 0.00000000E+00 -.66636833E+03 0.66636840E+03 0.32000000E+00 0.0000E+00 0.9000E+01
       25  2    1    2    0    0 -.47036193E+02 0.80306287E+02 -.60527307E+03 0.68187408E+03 0.29989210E+03 0.0000E+00 0.0000E+00
       23  2    1    2    0    0 0.47036193E+02 -.80306287E+02 0.16634405E+03 0.21193386E+03 0.92650505E+02 0.0000E+00 0.0000E+00
       24  1    3    3    0    0 0.62193405E+02 -.37290560E+01 -.44209068E+03 0.45364448E+03 0.80419002E+02 0.0000E+00 0.9000E+01
      -13  1    4    4    0    0 0.20540658E+02 0.19181766E+02 0.41359071E+02 0.50004427E+02 0.10565837E+00 0.0000E+00 0.9000E+01
       13  1    4    4    0    0 0.26495535E+02 -.99488053E+02 0.12498498E+03 0.16192944E+03 0.10565837E+00 0.0000E+00 0.9000E+01
      -24  1    3    3    0    0 -.10922960E+03 0.84035343E+02 -.16318238E+03 0.22822960E+03 0.80419002E+02 0.0000E+00 0.9000E+01
#aMCatNLO 1  0  0  2  2 0.90015009D+03 0.00000000D+00  -5  7  0 0.00000000D+00 0.00000000D+00 0.00000000D+00 0.00000000D+00 0.00000000D+00
  <mgrwgt>
 0.7811982934D-03    5    2    0
 0.389305136039281D+03 0.000000000000000D+00 0.000000000000000D+00 0.389305136039281D+03
 0.389305136039281D+03 0.000000000000000D+00 0.000000000000000D+00 -.389305136039281D+03
 0.271540998268892D+03 0.621934046179243D+02 -.372905595427831D+01 -.251764517655322D+03
 0.807180098825632D+02 0.205406499723330D+02 0.191819196751729D+02 0.756672503510659D+02
 0.256345870781830D+03 0.264955434860475D+02 -.994882066567850D+02 0.234762195377558D+03
 0.170005393145276D+03 -.109229598076305D+03 0.840353429358904D+02 -.586649280733011D+02
 0.000000000000000D+00 -.000000000000000D+00 0.000000000000000D+00 -.000000000000000D+00
 0.101607098516442D+04 0.000000000000000D+00 0.000000000000000D+00 0.101607098516442D+04
 0.107625886605403D+04 0.000000000000000D+00 0.000000000000000D+00 -.107625886605403D+04
 0.439620751057901D+03 0.154510239818005D+03 -.315500241279634D+03 -.251764517655322D+03
 0.108862748893466D+03 0.451503757929364D+02 -.639297183374655D+02 0.756672503510659D+02
 0.510827544436878D+03 0.126083326166530D+03 -.435814738896821D+03 0.234762195377558D+03
 0.130858750823482D+03 -.701740307279910D+02 -.478625985321833D+02 -.586649280733011D+02
 0.902160056006722D+03 -.255569911049481D+03 0.863107297046104D+03 -.601878808896121D+02
0.261930981282D-04 0.000000000000D+00 0.000000000000D+00 0.179851202925D-05 0.000000000000D+00  7 -1 1 24 -13 13 -24 21 0 0.34990687D-01 0.10251823D+00 0.38485390D+05 0.38485390D+05 0.38485390D+05 0.11574304D+01  1  2  2  2  7  2        1 0.721982520072D-03 0.100000000000D+01
-.624143030261D-06 0.000000000000D+00 -.100588393614D-06 0.179851202925D-05 0.000000000000D+00  7 -1 1 24 -13 13 -24 21 2 0.34990687D-01 0.10251823D+00 0.38485390D+05 0.38485390D+05 0.38485390D+05 0.11574304D+01  1  2  3  2  7  2        1 -.230469629022D-04 0.100000000000D+01
0.163072076172D-05 0.000000000000D+00 0.000000000000D+00 0.179851202925D-05 0.000000000000D+00  7 -1 1 24 -13 13 -24 21 2 0.34990687D-01 0.10251823D+00 0.38485390D+05 0.38485390D+05 0.38485390D+05 0.11574304D+01  1  2 15  2  7  2        1 0.602156221845D-04 0.100000000000D+01
0.262396505947D-04 0.000000000000D+00 -.994259668153D-05 0.179851202925D-05 0.000000000000D+00  7 -1 1 24 -13 13 -24 21 2 0.34990687D-01 0.47016022D+00 0.38485390D+05 0.38485390D+05 0.38485390D+05 0.11574304D+01  1  2  5  2  7  2        1 0.211480791747D-04 0.100000000000D+01
0.471887668669D-05 0.000000000000D+00 -.183407711019D-05 0.179851202925D-05 0.000000000000D+00  7 -1 21 24 -13 13 -24 -1 2 0.34990687D-01 0.47016022D+00 0.38485390D+05 0.38485390D+05 0.38485390D+05 0.11574304D+01  1  2  5  4  7  2        1 0.899034839544D-06 0.100000000000D+01
  </mgrwgt>
  </event>
  <event>
  8     66 0.29788925E-05 0.18892375E+03 0.75467711E-02 0.95361359E-01
       -1 -1    0    0    0  501 0.00000000E+00 0.00000000E+00 0.46367770E+03 0.46367781E+03 0.32000000E+00 0.0000E+00 0.9000E+01
        1 -1    0    0  501    0 0.00000000E+00 0.00000000E+00 -.53832299E+03 0.53832309E+03 0.32000000E+00 0.0000E+00 0.9000E+01
       25  2    1    2    0    0 -.40654640E+03 0.84861856E+02 0.13054565E+03 0.52986298E+03 0.30204486E+03 0.0000E+00 0.0000E+00
       23  2    1    2    0    0 0.40654640E+03 -.84861856E+02 -.20519094E+03 0.47213792E+03 0.91265460E+02 0.0000E+00 0.0000E+00
       24  1    3    3    0    0 -.22657122E+03 0.85497506E+02 -.52887466E+02 0.26059286E+03 0.80419002E+02 0.0000E+00 0.9000E+01
      -11  1    4    4    0    0 0.40759780E+03 -.84408708E+02 -.19112921E+03 0.45802966E+03 0.51099893E-03 0.0000E+00 0.9000E+01
       11  1    4    4    0    0 -.10513957E+01 -.45314790E+00 -.14061732E+02 0.14108263E+02 0.51099893E-03 0.0000E+00 0.9000E+01
      -24  1    3    3    0    0 -.17997519E+03 -.63565012E+00 0.18343311E+03 0.26927011E+03 0.80419002E+02 0.0000E+00 0.9000E+01
#aMCatNLO 1  0  0  2  1 0.65263010D+02 0.00000000D+00  -5  7  0 0.00000000D+00 0.00000000D+00 0.00000000D+00 0.00000000D+00 0.00000000D+00
  <mgrwgt>
 0.8705017074D-03    9    2    0
 0.499608319025431D+03 0.000000000000000D+00 0.000000000000000D+00 0.499608319025431D+03
 0.499608319025431D+03 0.000000000000000D+00 0.000000000000000D+00 -.499608319025431D+03
 0.257368097059345D+03 -.226571218912817D+03 0.854975058901172D+02 -.335675539250001D+02
 0.445027856417547D+03 0.407597799764481D+03 -.844087078727778D+02 -.157445217933091D+03
 0.130971098650309D+02 -.105139570550195D+01 -.453147896548645D+00 -.130469732455843D+02
 0.283723574708939D+03 -.179975185146163D+03 -.635650120790721D+00 0.204059745103675D+03
 0.000000000000000D+00 0.000000000000000D+00 -.000000000000000D+00 -.000000000000000D+00
 0.507790823657278D+03 0.000000000000000D+00 0.000000000000000D+00 0.507790823657278D+03
 0.650267776064481D+03 0.000000000000000D+00 0.000000000000000D+00 -.650267776064481D+03
 0.265723113758767D+03 -.229211543430455D+03 0.102356460045300D+03 -.335675539250001D+02
 0.436410267641309D+03 0.403148704383785D+03 -.560004214844496D+02 -.157445217933091D+03
 0.131064005668618D+02 -.118365900798282D+01 0.391377440409716D+00 -.130469732455843D+02
 0.286105887732840D+03 -.182851422921607D+03 0.177296532620617D+02 0.204059745103675D+03
 0.156712930021981D+03 0.100979209762602D+02 -.644770692633213D+02 -.142476952407203D+03
0.693124850100D-04 0.000000000000D+00 0.000000000000D+00 0.511532596246D-06 0.000000000000D+00  7 -1 1 24 -11 11 -24 21 0 0.71335047D-01 0.82818938D-01 0.18908874D+06 0.18908874D+06 0.18908874D+06 0.10997015D+01  1  2  2  2  7  2        1 0.691946531722D-03 0.100000000000D+01
-.376044494792D-05 0.000000000000D+00 -.266178192835D-06 0.511532596246D-06 0.000000000000D+00  7 -1 1 24 -11 11 -24 21 2 0.71335047D-01 0.82818938D-01 0.18908874D+06 0.18908874D+06 0.18908874D+06 0.10997015D+01  1  2  3  2  7  2        1 -.453993851756D-04 0.100000000000D+01
0.436406930489D-05 0.000000000000D+00 0.000000000000D+00 0.511532596246D-06 0.000000000000D+00  7 -1 1 24 -11 11 -24 21 2 0.71335047D-01 0.82818938D-01 0.18908874D+06 0.18908874D+06 0.18908874D+06 0.10997015D+01  1  2 15  2  7  2        1 0.526868671260D-04 0.100000000000D+01
0.338456897716D-03 0.000000000000D+00 0.000000000000D+00 0.511532596247D-06 0.000000000000D+00  7 -1 1 24 -11 11 -24 21 2 0.71335047D-01 0.10832670D+00 0.21980316D+06 0.21980316D+06 0.21980316D+06 0.10946900D+01  1  2 12  2  7  2        1 0.271997103608D-02 0.100000000000D+01
-.335182806091D-03 0.000000000000D+00 0.000000000000D+00 0.511532596246D-06 0.000000000000D+00  7 -1 1 24 -11 11 -24 21 2 0.71335047D-01 0.82818938D-01 0.18908874D+06 0.18908874D+06 0.18908874D+06 0.10997015D+01  1  2  4  2  7  2        1 -.404662042091D-02 0.100000000000D+01
-.393539079241D-03 0.000000000000D+00 -.381996090559D-04 0.511532596246D-06 0.000000000000D+00  7 -1 1 24 -11 11 -24 21 2 0.71335047D-01 0.10863168D+00 0.18908874D+06 0.18908874D+06 0.18908874D+06 0.10997015D+01  1  2  5  2  7  2        1 -.319535082095D-02 0.100000000000D+01
0.390795774107D-03 0.000000000000D+00 0.368355915962D-04 0.511532596246D-06 0.000000000000D+00  7 -1 1 24 -11 11 -24 21 2 0.71335047D-01 0.82818938D-01 0.18908874D+06 0.18908874D+06 0.18908874D+06 0.10997015D+01  1  2  6  2  7  2        1 0.471802888206D-02 0.100000000000D+01
0.120704894390D-04 0.000000000000D+00 0.000000000000D+00 0.511532596247D-06 0.000000000000D+00  7 -1 21 24 -11 11 -24 -1 2 0.71335047D-01 0.10832670D+00 0.21980316D+06 0.21980316D+06 0.21980316D+06 0.10946900D+01  1  2 12  4  7  2        1 0.197613365263D-03 0.100000000000D+01
-.134111186627D-04 0.000000000000D+00 -.137272264240D-05 0.511532596246D-06 0.000000000000D+00  7 -1 21 24 -11 11 -24 -1 2 0.71335047D-01 0.10863168D+00 0.18908874D+06 0.18908874D+06 0.18908874D+06 0.10997015D+01  1  2  5  4  7  2        1 -.222374347811D-03 0.100000000000D+01
  </mgrwgt>
  </event>
  <event>
  8     66 0.29788925E-05 0.43380394E+03 0.75467711E-02 0.91332975E-01
       -1 -1    0    0    0  501 0.00000000E+00 0.00000000E+00 0.88498551E+03 0.88498557E+03 0.32000000E+00 0.0000E+00 0.9000E+01
        1 -1    0    0  501    0 0.00000000E+00 0.00000000E+00 -.27909667E+03 0.27909686E+03 0.32000000E+00 0.0000E+00 0.9000E+01
       25  2    1    2    0    0 -.36044065E+03 -.13972453E+03 0.66764772E+02 0.49435580E+03 0.30081508E+03 0.0000E+00 0.0000E+00
       23  2    1    2    0    0 0.36044065E+03 0.13972453E+03 0.53912407E+03 0.66972663E+03 0.91861827E+02 0.0000E+00 0.0000E+00
       24  1    3    3    0    0 -.45756500E+02 -.12077283E+03 0.73436750E+02 0.16893758E+03 0.80419002E+02 0.0000E+00 0.9000E+01
      -11  1    4    4    0    0 0.15832085E+03 0.33665710E+02 0.28800274E+03 0.33037017E+03 0.51099893E-03 0.0000E+00 0.9000E+01
       11  1    4    4    0    0 0.20211980E+03 0.10605882E+03 0.25112133E+03 0.33935647E+03 0.51099893E-03 0.0000E+00 0.9000E+01
      -24  1    3    3    0    0 -.31468415E+03 -.18951698E+02 -.66719774E+01 0.32541821E+03 0.80419002E+02 0.0000E+00 0.9000E+01
#aMCatNLO 1  0  0  1  1 0.40896875D+03 0.00000000D+00  -5  7  0 0.00000000D+00 0.00000000D+00 0.00000000D+00 0.00000000D+00 0.00000000D+00
  <mgrwgt>
 0.5997042198D-03    3    2    0
 0.496987579098040D+03 0.000000000000000D+00 0.000000000000000D+00 0.496987579098040D+03
 0.496987579098040D+03 0.000000000000000D+00 0.000000000000000D+00 -.496987579098040D+03
 0.153085077809027D+03 -.457564999157798D+02 -.120772833727185D+03 -.169732272237287D+02
 0.211353835869985D+03 0.158320848930814D+03 0.336657099029905D+02 0.135910164106702D+03
 0.244359515333151D+03 0.202119802217498D+03 0.106058822081342D+03 0.872392374114416D+02
 0.385176729183917D+03 -.314684151232532D+03 -.189516982571484D+02 -.206176174294415D+03
 0.000000000000000D+00 -.000000000000000D+00 -.000000000000000D+00 -.000000000000000D+00
 0.642501807473495D+03 0.000000000000000D+00 0.000000000000000D+00 0.642501807473495D+03
 0.935293834885062D+03 0.000000000000000D+00 0.000000000000000D+00 -.935293834885062D+03
 0.141266836519054D+03 0.120666645762835D+02 -.114260265662854D+03 -.169732272237287D+02
 0.294826438110150D+03 0.257756061750147D+03 0.448650034242924D+02 0.135910164106702D+03
 0.351758133117753D+03 0.319222518949211D+03 0.119247989777932D+03 0.872392374114416D+02
 0.286970464549108D+03 -.182646016420933D+03 -.408036861613799D+01 -.206176174294415D+03
 0.502973770062490D+03 -.406399228854709D+03 -.457723589232333D+02 -.292792027411567D+03
0.104200681525D-03 0.000000000000D+00 0.000000000000D+00 0.154355437086D-05 0.000000000000D+00  7 -1 1 24 -11 11 -24 21 0 0.13615164D+00 0.42937968D-01 0.18818585D+06 0.18818585D+06 0.18818585D+06 0.10998621D+01  1  2  2  1  7  1       -1 0.593076010686D-03 0.100000000000D+01
-.565879572771D-05 0.000000000000D+00 -.400158053727D-06 0.154355437086D-05 0.000000000000D+00  7 -1 1 24 -11 11 -24 21 2 0.13615164D+00 0.42937968D-01 0.18818585D+06 0.18818585D+06 0.18818585D+06 0.10998621D+01  1  2  3  1  7  1       -1 -.389619122705D-04 0.100000000000D+01
0.662147130685D-05 0.000000000000D+00 0.000000000000D+00 0.154355437086D-05 0.000000000000D+00  7 -1 1 24 -11 11 -24 21 2 0.13615164D+00 0.42937968D-01 0.18818585D+06 0.18818585D+06 0.18818585D+06 0.10998621D+01  1  2 15  1  7  1       -1 0.455901213922D-04 0.100000000000D+01
  </mgrwgt>
  </event>
  <event>
  8     66 0.29788925E-05 0.22679938E+03 0.75467711E-02 0.83480329E-01
       -1 -1    0    0    0  501 0.00000000E+00 0.00000000E+00 0.86665662E+02 0.86666253E+02 0.32000000E+00 0.0000E+00 0.9000E+01
        1 -1    0    0  501    0 0.00000000E+00 0.00000000E+00 -.13677802E+04 0.13677802E+04 0.32000000E+00 0.0000E+00 0.9000E+01
       25  2    1    2    0    0 0.10809891E+03 -.10155601E+03 -.27454879E+03 0.43247603E+03 0.29943192E+03 0.0000E+00 0.0000E+00
       23  2    1    2    0    0 -.10809891E+03 0.10155601E+03 -.10065658E+04 0.10219705E+04 0.96177083E+02 0.0000E+00 0.0000E+00
       24  1    3    3    0    0 0.48557986E+02 0.57509588E+02 -.13715732E+02 0.11099805E+03 0.80419002E+02 0.0000E+00 0.9000E+01
      -11  1    4    4    0    0 -.19810020E+02 -.14523948E+01 -.29706963E+02 0.35735837E+02 0.51099893E-03 0.0000E+00 0.9000E+01
       11  1    4    4    0    0 -.88288893E+02 0.10300840E+03 -.97685879E+03 0.98623463E+03 0.51099893E-03 0.0000E+00 0.9000E+01
      -24  1    3    3    0    0 0.59540927E+02 -.15906560E+03 -.26083306E+03 0.32147797E+03 0.80419002E+02 0.0000E+00 0.9000E+01
#aMCatNLO 1  0  0  2  2 0.14840180D+04 0.00000000D+00  -5  7  0 0.00000000D+00 0.00000000D+00 0.00000000D+00 0.00000000D+00 0.00000000D+00
  <mgrwgt>
 0.1330151554D-02    3    2    0
 0.344296433218146D+03 0.000000000000000D+00 0.000000000000000D+00 0.344296433218146D+03
 0.344296433218146D+03 0.000000000000000D+00 0.000000000000000D+00 -.344296433218146D+03
 0.208932322018596D+03 0.485579859055763D+02 0.575095879214103D+02 0.177539484429846D+03
 0.202120006977838D+02 -.198100200286933D+02 -.145239478351185D+01 0.373880035075567D+01
 0.265697649144091D+03 -.882888931845686D+02 0.103008401976916D+03 -.228450391164258D+03
 0.193750894575821D+03 0.595409273076856D+02 -.159065595114815D+03 0.471721063836564D+02
 0.000000000000000D+00 -.000000000000000D+00 -.000000000000000D+00 0.000000000000000D+00
 0.454808035427714D+04 0.000000000000000D+00 0.000000000000000D+00 0.454808035427714D+04
 0.965600502100861D+03 0.000000000000000D+00 0.000000000000000D+00 -.965600502100861D+03
 0.652023556506810D+03 0.270358410718988D+03 0.560404821095703D+03 0.177539484429846D+03
 0.279281268435571D+02 -.740810605659867D+01 0.266668634372547D+02 0.373880035075567D+01
 0.757593011188264D+03 0.175332401274850D+03 0.700725437272970D+03 -.228450391164258D+03
 0.198447240828692D+03 0.160579453454623D+03 0.700223032018639D+02 0.471721063836564D+02
 0.387768892101068D+04 -.598862159391863D+03 -.135781942500779D+04 0.358247985217628D+04
0.344579846765D-04 0.000000000000D+00 0.000000000000D+00 0.173798512454D-06 0.000000000000D+00  7 -1 1 24 -11 11 -24 21 0 0.13333227D-01 0.21042777D+00 0.51437961D+05 0.51437961D+05 0.51437961D+05 0.11462139D+01  1  2  2  2  7  2        1 0.129954516473D-02 0.100000000000D+01
-.150874824106D-05 0.000000000000D+00 -.132327734153D-06 0.173798512454D-06 0.000000000000D+00  7 -1 1 24 -11 11 -24 21 2 0.13333227D-01 0.21042777D+00 0.51437961D+05 0.51437961D+05 0.51437961D+05 0.11462139D+01  1  2  3  2  7  2        1 -.747566075987D-04 0.100000000000D+01
0.212645064493D-05 0.000000000000D+00 0.000000000000D+00 0.173798512454D-06 0.000000000000D+00  7 -1 1 24 -11 11 -24 21 2 0.13333227D-01 0.21042777D+00 0.51437961D+05 0.51437961D+05 0.51437961D+05 0.11462139D+01  1  2 15  2  7  2        1 0.105362997030D-03 0.100000000000D+01
  </mgrwgt>
  </event>
  <event>
  8     66 0.29788925E-05 0.37646463E+03 0.75467711E-02 0.92342394E-01
       -1 -1    0    0    0  501 0.00000000E+00 0.00000000E+00 0.70913423E+03 0.70913430E+03 0.32000000E+00 0.0000E+00 0.9000E+01
        1 -1    0    0  501    0 0.00000000E+00 0.00000000E+00 -.82582142E+03 0.82582148E+03 0.32000000E+00 0.0000E+00 0.9000E+01
       25  2    1    2    0    0 -.30482525E+03 -.38491893E+03 0.48531306E+03 0.75268695E+03 0.29987973E+03 0.0000E+00 0.0000E+00
       23  2    1    2    0    0 0.30482525E+03 0.38491893E+03 -.60200026E+03 0.78226883E+03 0.91973909E+02 0.0000E+00 0.0000E+00
       24  1    3    3    0    0 -.24435491E+03 -.35804211E+03 0.47493933E+03 0.64802628E+03 0.80419002E+02 0.0000E+00 0.9000E+01
      -13  1    4    4    0    0 0.27031043E+03 0.37436570E+03 -.57345479E+03 0.73625255E+03 0.10565837E+00 0.0000E+00 0.9000E+01
       13  1    4    4    0    0 0.34514826E+02 0.10553231E+02 -.28545469E+02 0.46016289E+02 0.10565837E+00 0.0000E+00 0.9000E+01
      -24  1    3    3    0    0 -.60470341E+02 -.26876821E+02 0.10373735E+02 0.10466067E+03 0.80419002E+02 0.0000E+00 0.9000E+01
#aMCatNLO 1  0  0  2  1 0.17808119D+03 0.00000000D+00  -5  7  0 0.00000000D+00 0.00000000D+00 0.00000000D+00 0.00000000D+00 0.00000000D+00
  <mgrwgt>
 0.8280026431D-03    9    2    0
 0.765257039851104D+03 0.000000000000000D+00 0.000000000000000D+00 0.765257039851104D+03
 0.765257039851104D+03 0.000000000000000D+00 0.000000000000000D+00 -.765257039851104D+03
 0.686116535561145D+03 -.244354912977639D+03 -.358042108094680D+03 0.525723510745778D+03
 0.694669586749614D+03 0.270310739601765D+03 0.374366177470620D+03 -.518987383254028D+03
 0.439726522845228D+02 0.345145144498794D+02 0.105527511624465D+02 -.251193527808364D+02
 0.105755305106926D+03 -.604703410740051D+02 -.268768205383860D+02 0.183832252890863D+02
 0.000000000000000D+00 -.000000000000000D+00 -.000000000000000D+00 -.000000000000000D+00
 0.805474880109290D+03 0.000000000000000D+00 0.000000000000000D+00 0.805474880109290D+03
 0.996584152032426D+03 0.000000000000000D+00 0.000000000000000D+00 -.996584152032426D+03
 0.643558889468630D+03 -.181205370027890D+03 -.313815602515100D+03 0.525723510745778D+03
 0.750105805463277D+03 0.338926661928257D+03 0.422421037884026D+03 -.518987383254028D+03
 0.482630841518286D+02 0.388950155029530D+02 0.136206158723982D+02 -.251193527808364D+02
 0.989116858352249D+02 -.507502043461959D+02 -.200693653907088D+02 0.183832252890863D+02
 0.261219567222756D+03 -.145866103057124D+03 -.102156685850615D+03 -.191109271923136D+03
0.350589866189D-03 0.000000000000D+00 0.000000000000D+00 0.156257582046D-04 0.000000000000D+00  7 -1 1 24 -13 13 -24 21 0 0.10909758D+00 0.12704946D+00 0.27189300D+06 0.27189300D+06 0.27189300D+06 0.10877269D+01  1  2  2  2  7  2        1 0.734307188879D-03 0.100000000000D+01
-.159919714005D-04 0.000000000000D+00 -.134635739860D-05 0.156257582046D-04 0.000000000000D+00  7 -1 1 24 -13 13 -24 21 2 0.10909758D+00 0.12704946D+00 0.27189300D+06 0.27189300D+06 0.27189300D+06 0.10877269D+01  1  2  3  2  7  2        1 -.396296462386D-04 0.100000000000D+01
0.218585995895D-04 0.000000000000D+00 0.000000000000D+00 0.156257582046D-04 0.000000000000D+00  7 -1 1 24 -13 13 -24 21 2 0.10909758D+00 0.12704946D+00 0.27189300D+06 0.27189300D+06 0.27189300D+06 0.10877269D+01  1  2 15  2  7  2        1 0.541677162439D-04 0.100000000000D+01
0.504427916394D-03 0.000000000000D+00 0.000000000000D+00 0.156257582046D-04 0.000000000000D+00  7 -1 1 24 -13 13 -24 21 2 0.10909758D+00 0.16805213D+00 0.37776597D+06 0.37776597D+06 0.37776597D+06 0.10772227D+01  1  2 12  2  7  2        1 0.743091236041D-03 0.100000000000D+01
-.570742113588D-03 0.000000000000D+00 0.000000000000D+00 0.156257582046D-04 0.000000000000D+00  7 -1 1 24 -13 13 -24 21 2 0.10909758D+00 0.12704946D+00 0.27189300D+06 0.27189300D+06 0.27189300D+06 0.10877269D+01  1  2  4  2  7  2        1 -.141435395853D-02 0.100000000000D+01
-.708945167010D-03 0.000000000000D+00 -.174174304289D-03 0.156257582046D-04 0.000000000000D+00  7 -1 1 24 -13 13 -24 21 2 0.10909758D+00 0.16990149D+00 0.27189300D+06 0.27189300D+06 0.27189300D+06 0.10877269D+01  1  2  5  2  7  2        1 -.106342441406D-02 0.100000000000D+01
0.735394053496D-03 0.000000000000D+00 0.167068121188D-03 0.156257582046D-04 0.000000000000D+00  7 -1 1 24 -13 13 -24 21 2 0.10909758D+00 0.12704946D+00 0.27189300D+06 0.27189300D+06 0.27189300D+06 0.10877269D+01  1  2  6  2  7  2        1 0.182237733273D-02 0.100000000000D+01
0.185334638652D-04 0.000000000000D+00 0.000000000000D+00 0.156257582046D-04 0.000000000000D+00  7 -1 21 24 -13 13 -24 -1 2 0.10909758D+00 0.16805213D+00 0.37776597D+06 0.37776597D+06 0.37776597D+06 0.10772227D+01  1  2 12  4  7  2        1 0.320923532156D-04 0.100000000000D+01
-.230664508537D-04 0.000000000000D+00 -.658016984229D-05 0.156257582046D-04 0.000000000000D+00  7 -1 21 24 -13 13 -24 -1 2 0.10909758D+00 0.16990149D+00 0.27189300D+06 0.27189300D+06 0.27189300D+06 0.10877269D+01  1  2  5  4  7  2        1 -.406251651712D-04 0.100000000000D+01
  </mgrwgt>
  </event>
  <event>
  8     66 0.29788925E-05 0.10065654E+03 0.75467711E-02 0.10223152E+00
       -3 -1    0    0    0  501 0.00000000E+00 0.00000000E+00 0.22553905E+03 0.22553961E+03 0.50000000E+00 0.0000E+00 0.9000E+01
        3 -1    0    0  501    0 0.00000000E+00 0.00000000E+00 -.30263644E+03 0.30263685E+03 0.50000000E+00 0.0000E+00 0.9000E+01
       25  2    1    2    0    0 -.50209549E+02 0.12420911E+03 0.31742406E+02 0.33067192E+03 0.30064503E+03 0.0000E+00 0.0000E+00
       23  2    1    2    0    0 0.50209549E+02 -.12420911E+03 -.10883980E+03 0.19750454E+03 0.95984590E+02 0.0000E+00 0.0000E+00
       24  1    3    3    0    0 -.10591432E+03 -.38703797E+02 0.23356464E+02 0.14045842E+03 0.80419002E+02 0.0000E+00 0.9000E+01
      -11  1    4    4    0    0 -.11134501E+02 -.46330719E+02 0.33764452E+01 0.47769373E+02 0.51099893E-03 0.0000E+00 0.9000E+01
       11  1    4    4    0    0 0.61344050E+02 -.77878390E+02 -.11221624E+03 0.14973517E+03 0.51099893E-03 0.0000E+00 0.9000E+01
      -24  1    3    3    0    0 0.55704768E+02 0.16291291E+03 0.83859427E+01 0.19021350E+03 0.80419002E+02 0.0000E+00 0.9000E+01
#aMCatNLO 1  0  0  1  2 0.60179258D+02 0.00000000D+00  -5  7  0 0.00000000D+00 0.00000000D+00 0.00000000D+00 0.00000000D+00 0.00000000D+00
  <mgrwgt>
 0.1512192527D-03    9    2    0
 0.261259624662945D+03 0.000000000000000D+00 0.000000000000000D+00 0.261259624662945D+03
 0.261259624662945D+03 0.000000000000000D+00 0.000000000000000D+00 -.261259624662945D+03
 0.145425362889930D+03 -.105914316159706D+03 -.387037971080615D+02 0.443338915406377D+02
 0.487847551486888D+02 -.111345008507352D+02 -.463307191580200D+02 0.104613425535717D+02
 0.134798885627572D+03 0.613440495366637D+02 -.778783900900846D+02 -.913378536525529D+02
 0.193510245659699D+03 0.557047674737778D+02 0.162912906356166D+03 0.365426195583435D+02
 0.000000000000000D+00 0.000000000000000D+00 0.000000000000000D+00 0.000000000000000D+00
 0.293663038027192D+03 0.000000000000000D+00 0.000000000000000D+00 0.293663038027192D+03
 0.292500739911298D+03 0.000000000000000D+00 0.000000000000000D+00 -.292500739911298D+03
 0.159289697438538D+03 -.122917292877688D+03 -.427999641141669D+02 0.443338915406377D+02
 0.516036778500156D+02 -.167361346760922D+02 -.476802021359886D+02 0.104613425535717D+02
 0.130922082003325D+03 0.465169273680468D+02 -.814503745508027D+02 -.913378536525529D+02
 0.184157839552651D+03 0.346310415704102D+02 0.157836059979626D+03 0.365426195583435D+02
 0.601904810939603D+02 0.585054586153231D+02 0.140944808213322D+02 0.116229811589431D+01
0.624978053046D-05 0.000000000000D+00 0.000000000000D+00 0.460627249027D-07 0.000000000000D+00  7 -3 3 24 -11 11 -24 21 0 0.34698390D-01 0.46559527D-01 0.56481864D+05 0.56481864D+05 0.56481864D+05 0.11426678D+01  1  2  2  1  7  1       -3 0.997273655641D-04 0.100000000000D+01
-.343425911934D-06 0.000000000000D+00 -.240008028420D-07 0.460627249027D-07 0.000000000000D+00  7 -3 3 24 -11 11 -24 21 2 0.34698390D-01 0.46559527D-01 0.56481864D+05 0.56481864D+05 0.56481864D+05 0.11426678D+01  1  2  3  1  7  1       -3 -.715521395159D-05 0.100000000000D+01
0.402741273436D-06 0.000000000000D+00 0.000000000000D+00 0.460627249027D-07 0.000000000000D+00  7 -3 3 24 -11 11 -24 21 2 0.34698390D-01 0.46559527D-01 0.56481864D+05 0.56481864D+05 0.56481864D+05 0.11426678D+01  1  2 15  1  7  1       -3 0.839103829511D-05 0.100000000000D+01
0.491437662948D-05 0.000000000000D+00 0.000000000000D+00 0.460627249027D-07 0.000000000000D+00  7 -3 3 24 -11 11 -24 21 2 0.40836057D-01 0.46559527D-01 0.72361174D+05 0.72361174D+05 0.72361174D+05 0.11334369D+01  1  2 12  1  7  1       -3 0.736524154224D-04 0.100000000000D+01
-.413291116008D-05 0.000000000000D+00 0.000000000000D+00 0.460627249027D-07 0.000000000000D+00  7 -3 3 24 -11 11 -24 21 2 0.34698390D-01 0.46559527D-01 0.56481864D+05 0.56481864D+05 0.56481864D+05 0.11426678D+01  1  2  4  1  7  1       -3 -.861084227069D-04 0.100000000000D+01
-.128819825652D-04 0.000000000000D+00 -.412617055135D-05 0.460627249027D-07 0.000000000000D+00  7 -3 3 24 -11 11 -24 21 2 0.43300137D-01 0.46559527D-01 0.56481864D+05 0.56481864D+05 0.56481864D+05 0.11426678D+01  1  2  5  1  7  1       -3 -.173957561181D-03 0.100000000000D+01
0.135610168501D-04 0.000000000000D+00 0.402701254949D-05 0.460627249027D-07 0.000000000000D+00  7 -3 3 24 -11 11 -24 21 2 0.34698390D-01 0.46559527D-01 0.56481864D+05 0.56481864D+05 0.56481864D+05 0.11426678D+01  1  2  6  1  7  1       -3 0.282541222405D-03 0.100000000000D+01
0.119767775528D-06 0.000000000000D+00 0.000000000000D+00 0.460627249027D-07 0.000000000000D+00  7 21 3 24 -11 11 -24 3 2 0.40836057D-01 0.46559527D-01 0.72361174D+05 0.72361174D+05 0.72361174D+05 0.11334369D+01  1  2 12  3  7  1       -3 0.288953635157D-04 0.100000000000D+01
-.341797218488D-06 0.000000000000D+00 -.127586040758D-06 0.460627249027D-07 0.000000000000D+00  7 21 3 24 -11 11 -24 3 2 0.43300137D-01 0.46559527D-01 0.56481864D+05 0.56481864D+05 0.56481864D+05 0.11426678D+01  1  2  5  3  7  1       -3 -.747669546504D-04 0.100000000000D+01
  </mgrwgt>
  </event>
  <event>
  8     66 0.29788925E-05 0.74698739E+02 0.75467711E-02 0.10479664E+00
       -3 -1    0    0    0  501 0.00000000E+00 0.00000000E+00 0.30840727E+03 0.30840768E+03 0.50000000E+00 0.0000E+00 0.9000E+01
        3 -1    0    0  501    0 0.00000000E+00 0.00000000E+00 -.22327313E+03 0.22327369E+03 0.50000000E+00 0.0000E+00 0.9000E+01
       25  2    1    2    0    0 -.11130810E+03 0.90039800E+02 -.24835305E+02 0.33234745E+03 0.29890028E+03 0.0000E+00 0.0000E+00
       23  2    1    2    0    0 0.11130810E+03 -.90039800E+02 0.10996945E+03 0.19933391E+03 0.84522597E+02 0.0000E+00 0.0000E+00
       24  1    3    3    0    0 -.63934557E+02 0.77526801E+02 -.13560408E+03 0.18695913E+03 0.80419002E+02 0.0000E+00 0.9000E+01
      -11  1    4    4    0    0 0.41821509E+02 -.16525067E+02 -.60888402E+01 0.45378303E+02 0.51099893E-03 0.0000E+00 0.9000E+01
       11  1    4    4    0    0 0.69486594E+02 -.73514733E+02 0.11605829E+03 0.15395561E+03 0.51099893E-03 0.0000E+00 0.9000E+01
      -24  1    3    3    0    0 -.47373545E+02 0.12512999E+02 0.11076878E+03 0.14538833E+03 0.80419002E+02 0.0000E+00 0.9000E+01
#aMCatNLO 1  0  0  2  1 0.76294136D+02 0.00000000D+00  -5  7  0 0.00000000D+00 0.00000000D+00 0.00000000D+00 0.00000000D+00 0.00000000D+00
  <mgrwgt>
 0.2916950624D-03    9    2    0
 0.262410581049369D+03 0.000000000000000D+00 0.000000000000000D+00 0.262410581049369D+03
 0.262410581049369D+03 0.000000000000000D+00 0.000000000000000D+00 -.262410581049369D+03
 0.211400053232392D+03 -.639345573334766D+02 0.775268008657408D+02 -.167704305485529D+03
 0.469591703509820D+02 0.418215085450428D+02 -.165250667623432D+02 -.135294963531377D+02
 0.137141583776280D+03 0.694865939372368D+02 -.735147328454098D+02 0.926013570005111D+02
 0.129320354739084D+03 -.473735451488030D+02 0.125129987420123D+02 0.886324448381557D+02
 0.000000000000000D+00 -.000000000000000D+00 0.000000000000000D+00 -.000000000000000D+00
 0.291322154223102D+03 0.000000000000000D+00 0.000000000000000D+00 0.291322154223102D+03
 0.320809914294404D+03 0.000000000000000D+00 0.000000000000000D+00 -.320809914294404D+03
 0.200805986270514D+03 -.362629415610150D+02 0.664536918362103D+02 -.167704305485529D+03
 0.539897733206635D+02 0.485982660745694D+02 -.192368626910008D+02 -.135294963531377D+02
 0.151931903207398D+03 0.888922544449395D+02 -.812801266828630D+02 0.926013570005111D+02
 0.123610010142341D+03 -.303941920984992D+02 0.571851918856266D+01 0.886324448381557D+02
 0.817943955765886D+02 -.708333868599947D+02 0.283447783490908D+02 -.294877600713022D+02
0.155839698761D-04 0.000000000000D+00 0.000000000000D+00 0.754681036050D-08 0.000000000000D+00  7 -3 3 24 -11 11 -24 21 0 0.47447347D-01 0.34349786D-01 0.34040547D+05 0.34040547D+05 0.34040547D+05 0.11622785D+01  1  2  2  2  7  2        3 0.238223716247D-03 0.100000000000D+01
-.735157436427D-06 0.000000000000D+00 -.598465476778D-07 0.754681036050D-08 0.000000000000D+00  7 -3 3 24 -11 11 -24 21 2 0.47447347D-01 0.34349786D-01 0.34040547D+05 0.34040547D+05 0.34040547D+05 0.11622785D+01  1  2  3  2  7  2        3 -.151812540197D-04 0.100000000000D+01
0.997614991129D-06 0.000000000000D+00 0.000000000000D+00 0.754681036050D-08 0.000000000000D+00  7 -3 3 24 -11 11 -24 21 2 0.47447347D-01 0.34349786D-01 0.34040547D+05 0.34040547D+05 0.34040547D+05 0.11622785D+01  1  2 15  2  7  2        3 0.206010928323D-04 0.100000000000D+01
0.108353393581D-04 0.000000000000D+00 0.000000000000D+00 0.754681036050D-08 0.000000000000D+00  7 -3 3 24 -11 11 -24 21 2 0.47447347D-01 0.43554247D-01 0.49643982D+05 0.49643982D+05 0.49643982D+05 0.11475685D+01  1  2 12  2  7  2        3 0.139595608781D-03 0.100000000000D+01
-.131845867992D-04 0.000000000000D+00 0.000000000000D+00 0.754681036050D-08 0.000000000000D+00  7 -3 3 24 -11 11 -24 21 2 0.47447347D-01 0.34349786D-01 0.34040547D+05 0.34040547D+05 0.34040547D+05 0.11622785D+01  1  2  4  2  7  2        3 -.272266254037D-03 0.100000000000D+01
-.209422789010D-04 0.000000000000D+00 -.848730365398D-05 0.754681036050D-08 0.000000000000D+00  7 -3 3 24 -11 11 -24 21 2 0.47447347D-01 0.46091719D-01 0.34040547D+05 0.34040547D+05 0.34040547D+05 0.11622785D+01  1  2  5  2  7  2        3 -.246303391049D-03 0.100000000000D+01
0.227992818729D-04 0.000000000000D+00 0.813317398753D-05 0.754681036050D-08 0.000000000000D+00  7 -3 3 24 -11 11 -24 21 2 0.47447347D-01 0.34349786D-01 0.34040547D+05 0.34040547D+05 0.34040547D+05 0.11622785D+01  1  2  6  2  7  2        3 0.470813015593D-03 0.100000000000D+01
0.352934813818D-06 0.000000000000D+00 0.000000000000D+00 0.754681036050D-08 0.000000000000D+00  7 -3 21 24 -11 11 -24 -3 2 0.47447347D-01 0.43554247D-01 0.49643982D+05 0.49643982D+05 0.49643982D+05 0.11475685D+01  1  2 12  4  7  2        3 0.727170490548D-04 0.100000000000D+01
-.613418975246D-06 0.000000000000D+00 -.323351033568D-06 0.754681036050D-08 0.000000000000D+00  7 -3 21 24 -11 11 -24 -3 2 0.47447347D-01 0.46091719D-01 0.34040547D+05 0.34040547D+05 0.34040547D+05 0.11622785D+01  1  2  5  4  7  2        3 -.116504521051D-03 0.100000000000D+01
  </mgrwgt>
  </event>
  <event>
  8     66 0.29788925E-05 0.17952485E+03 0.75467711E-02 0.91470933E-01
       -1 -1    0    0    0  501 0.00000000E+00 0.00000000E+00 0.67701144E+03 0.67701152E+03 0.32000000E+00 0.0000E+00 0.9000E+01
        1 -1    0    0  501    0 0.00000000E+00 0.00000000E+00 -.67121184E+03 0.67121192E+03 0.32000000E+00 0.0000E+00 0.9000E+01
       25  2    1    2    0    0 -.54841228E+02 -.11249333E+02 0.63565617E+03 0.70891380E+03 0.30881370E+03 0.0000E+00 0.0000E+00
       23  2    1    2    0    0 0.54841228E+02 0.11249333E+02 -.62985657E+03 0.63930964E+03 0.94145675E+02 0.0000E+00 0.0000E+00
       24  1    3    3    0    0 -.11996273E+03 -.19447401E+02 0.13852662E+03 0.20106243E+03 0.80419002E+02 0.0000E+00 0.9000E+01
      -13  1    4    4    0    0 0.94810496E+01 -.39982540E+02 -.24141417E+03 0.24488631E+03 0.10565837E+00 0.0000E+00 0.9000E+01
       13  1    4    4    0    0 0.45360179E+02 0.51231873E+02 -.38844240E+03 0.39442333E+03 0.10565837E+00 0.0000E+00 0.9000E+01
      -24  1    3    3    0    0 0.65121500E+02 0.81980674E+01 0.49712954E+03 0.50785137E+03 0.80419002E+02 0.0000E+00 0.9000E+01
#aMCatNLO 1  0  0  1  1 0.58657110D+03 0.00000000D+00  -5  7  0 0.00000000D+00 0.00000000D+00 0.00000000D+00 0.00000000D+00 0.00000000D+00
  <mgrwgt>
 0.1318693926D-02    3    2    0
 0.674105480598701D+03 0.000000000000000D+00 0.000000000000000D+00 0.674105480598701D+03
 0.674105480598701D+03 0.000000000000000D+00 0.000000000000000D+00 -.674105480598701D+03
 0.200468385991349D+03 -.119962728596101D+03 -.194474006386674D+02 0.137662994968812D+03
 0.245926880425415D+03 0.948100445408906D+01 -.399826545952194D+02 -.242469644289419D+03
 0.396098125385449D+03 0.453602239806086D+02 0.512319878205909D+02 -.390142869264898D+03
 0.505717569395189D+03 0.651215001614038D+02 0.819806741329596D+01 0.494949518585504D+03
 0.000000000000000D+00 -.000000000000000D+00 0.000000000000000D+00 -.000000000000000D+00
 0.793930581752967D+03 0.000000000000000D+00 0.000000000000000D+00 0.793930581752967D+03
 0.219830534048312D+04 0.000000000000000D+00 0.000000000000000D+00 -.219830534048312D+04
 0.168620936200086D+03 -.442644878846771D+02 -.324862909416740D+02 0.137662994968812D+03
 0.275212324763787D+03 0.116363860789097D+03 -.583930407009807D+02 -.242469644289419D+03
 0.447627950723463D+03 0.218403917644202D+03 0.214255125564154D+02 -.390142869264898D+03
 0.578823948962551D+03 0.287555149638796D+03 -.301157418374311D+02 0.494949518585504D+03
 0.152195076158620D+04 -.578058440187417D+03 0.995695609236704D+02 -.140437475873016D+04
0.317700326981D-03 0.000000000000D+00 0.000000000000D+00 0.110026929832D-07 0.000000000000D+00  7 -1 1 24 -13 13 -24 21 0 0.10415562D+00 0.10326337D+00 0.32229171D+05 0.32229171D+05 0.32229171D+05 0.11644588D+01  1  2  2  1  7  1       -1 0.112871697433D-02 0.100000000000D+01
0.199159211082D-04 0.000000000000D+00 -.122005290803D-05 0.110026929832D-07 0.000000000000D+00  7 -1 1 24 -13 13 -24 21 2 0.10415562D+00 0.10326337D+00 0.32229171D+05 0.32229171D+05 0.32229171D+05 0.11644588D+01  1  2  3  1  7  1       -1 0.959436071921D-04 0.100000000000D+01
0.195193897364D-04 0.000000000000D+00 0.000000000000D+00 0.110026929832D-07 0.000000000000D+00  7 -1 1 24 -13 13 -24 21 2 0.10415562D+00 0.10326337D+00 0.32229171D+05 0.32229171D+05 0.32229171D+05 0.11644588D+01  1  2 15  1  7  1       -1 0.940333440429D-04 0.100000000000D+01
  </mgrwgt>
  </event>
  <event>
  8     66 0.29788925E-05 0.33903481E+03 0.75467711E-02 0.97295709E-01
       -1 -1    0    0    0  501 0.00000000E+00 0.00000000E+00 0.15276830E+04 0.15276830E+04 0.32000000E+00 0.0000E+00 0.9000E+01
        1 -1    0    0  501    0 0.00000000E+00 0.00000000E+00 -.81523391E+02 0.81524019E+02 0.32000000E+00 0.0000E+00 0.9000E+01
       25  2    1    2    0    0 0.24285123E+03 -.13489190E+03 0.88355419E+03 0.97526768E+03 0.30546110E+03 0.0000E+00 0.0000E+00
       23  2    1    2    0    0 -.24285123E+03 0.13489190E+03 0.56260537E+03 0.63393933E+03 0.90452904E+02 0.0000E+00 0.0000E+00
       24  1    3    3    0    0 0.14833501E+03 -.19831884E+03 0.68380893E+03 0.73170725E+03 0.80419002E+02 0.0000E+00 0.9000E+01
      -13  1    4    4    0    0 -.21965591E+03 0.12746166E+03 0.43229545E+03 0.50137267E+03 0.10565837E+00 0.0000E+00 0.9000E+01
       13  1    4    4    0    0 -.23195318E+02 0.74302425E+01 0.13030992E+03 0.13256665E+03 0.10565837E+00 0.0000E+00 0.9000E+01
      -24  1    3    3    0    0 0.94516216E+02 0.63426946E+02 0.19974527E+03 0.24356043E+03 0.80419002E+02 0.0000E+00 0.9000E+01
#aMCatNLO 1  0  0  1  1 0.10988926D+03 0.00000000D+00  -5  7  0 0.00000000D+00 0.00000000D+00 0.00000000D+00 0.00000000D+00 0.00000000D+00
  <mgrwgt>
 0.1070849132D-02    4    2    0
 0.352905690321288D+03 0.000000000000000D+00 0.000000000000000D+00 0.352905690321288D+03
 0.352905690321288D+03 0.000000000000000D+00 0.000000000000000D+00 -.352905690321288D+03
 0.267169978360053D+03 0.148335025168044D+03 -.198318823621859D+03 0.598242917900265D+02
 0.257355516010346D+03 -.219656196966674D+03 0.127461830328986D+03 -.416713158452387D+02
 0.352474315307010D+02 -.231950521671792D+02 0.743008019748899D+01 0.254787145031331D+02
 0.146038454741477D+03 0.945162239658096D+02 0.634269130953846D+02 -.436316904479209D+02
 0.000000000000000D+00 -.000000000000000D+00 0.000000000000000D+00 -.000000000000000D+00
 0.394238601723138D+03 0.000000000000000D+00 0.000000000000000D+00 0.394238601723138D+03
 0.438570646224978D+03 0.000000000000000D+00 0.000000000000000D+00 -.438570646224978D+03
 0.306502221543311D+03 0.185693218961779D+03 -.222295925288901D+03 0.598242917900265D+02
 0.220956208849646D+03 -.188507987040962D+03 0.107470398188056D+03 -.416713158452387D+02
 0.320080646358204D+02 -.188152968645761D+02 0.461908139098654D+01 0.254787145031331D+02
 0.154848110190938D+03 0.114110303310373D+03 0.508511115159345D+02 -.436316904479209D+02
 0.118494642728400D+03 -.924802383666144D+02 0.593553341939235D+02 -.443320445018396D+02
0.347627642000D-03 0.000000000000D+00 0.000000000000D+00 0.228824388395D-07 0.000000000000D+00  7 -1 1 24 -13 13 -24 21 0 0.23502820D+00 0.12542111D-01 0.11494460D+06 0.11494460D+06 0.11494460D+06 0.11167918D+01  1  2  2  1  7  1       -1 0.159886831317D-02 0.100000000000D+01
-.192748921335D-04 0.000000000000D+00 -.133498167774D-05 0.228824388395D-07 0.000000000000D+00  7 -1 1 24 -13 13 -24 21 2 0.23502820D+00 0.12542111D-01 0.11494460D+06 0.11494460D+06 0.11494460D+06 0.11167918D+01  1  2  3  1  7  1       -1 -.110569356440D-03 0.100000000000D+01
0.222375090050D-04 0.000000000000D+00 0.000000000000D+00 0.228824388395D-07 0.000000000000D+00  7 -1 1 24 -13 13 -24 21 2 0.23502820D+00 0.12542111D-01 0.11494460D+06 0.11494460D+06 0.11494460D+06 0.11167918D+01  1  2 15  1  7  1       -1 0.127564244846D-03 0.100000000000D+01
-.950090308402D-04 0.000000000000D+00 0.000000000000D+00 0.228824388395D-07 0.000000000000D+00  7 -1 1 24 -13 13 -24 21 2 0.23502820D+00 0.12542111D-01 0.11494460D+06 0.11494460D+06 0.11494460D+06 0.11167918D+01  1  2  4  1  7  1       -1 -.545014069247D-03 0.100000000000D+01
  </mgrwgt>
  </event>
  <event>
  8     66 0.29788925E-05 0.50618452E+03 0.75467711E-02 0.87181133E-01
       -1 -1    0    0    0  501 0.00000000E+00 0.00000000E+00 0.14696653E+03 0.14696688E+03 0.32000000E+00 0.0000E+00 0.9000E+01
        1 -1    0    0  501    0 0.00000000E+00 0.00000000E+00 -.22359084E+04 0.22359084E+04 0.32000000E+00 0.0000E+00 0.9000E+01
       25  2    1    2    0    0 -.47169906E+03 -.10282018E+03 -.65311248E+03 0.86536854E+03 0.29872196E+03 0.0000E+00 0.0000E+00
       23  2    1    2    0    0 0.47169906E+03 0.10282018E+03 -.14358294E+04 0.15175067E+04 0.90270427E+02 0.0000E+00 0.0000E+00
       24  1    3    3    0    0 -.15244071E+03 -.95324912E+02 -.41379789E+03 0.45828040E+03 0.80419002E+02 0.0000E+00 0.9000E+01
      -11  1    4    4    0    0 0.21241534E+03 0.75247173E+02 -.55849345E+03 0.60224360E+03 0.51099893E-03 0.0000E+00 0.9000E+01
       11  1    4    4    0    0 0.25928372E+03 0.27573005E+02 -.87733590E+03 0.91526313E+03 0.51099893E-03 0.0000E+00 0.9000E+01
      -24  1    3    3    0    0 -.31925835E+03 -.74952659E+01 -.23931459E+03 0.40708815E+03 0.80419002E+02 0.0000E+00 0.9000E+01
#aMCatNLO 1  0  0  1  1 0.78091329D+03 0.00000000D+00  -5  7  0 0.00000000D+00 0.00000000D+00 0.00000000D+00 0.00000000D+00 0.00000000D+00
  <mgrwgt>
 0.5333237564D-03    5    2    0
 0.573240041294615D+03 0.000000000000000D+00 0.000000000000000D+00 0.573240041294615D+03
 0.573240041294615D+03 0.000000000000000D+00 0.000000000000000D+00 -.573240041294615D+03
 0.198542740444961D+03 -.152440714855460D+03 -.953249122353902D+02 -.250398360756653D+02
 0.234117492700325D+03 0.212415344610496D+03 0.752471730391254D+02 -.634711329023747D+02
 0.303759500816578D+03 0.259283716383872D+03 0.275730050470548D+02 -.155825280834593D+03
 0.410060348627366D+03 -.319258346138908D+03 -.749526585079005D+01 0.244336249812633D+03
 0.000000000000000D+00 -.000000000000000D+00 0.000000000000000D+00 0.000000000000000D+00
 0.227391583349491D+04 0.000000000000000D+00 0.000000000000000D+00 0.227391583349491D+04
 0.790056478962516D+03 0.000000000000000D+00 0.000000000000000D+00 -.790056478962516D+03
 0.230503680793794D+03 -.736491121925508D+02 -.201528027300595D+03 -.250398360756653D+02
 0.328311991317849D+03 0.315701884800525D+03 -.639726415319571D+02 -.634711329023747D+02
 0.457674975206349D+03 0.399116237339111D+03 -.160907097031868D+03 -.155825280834593D+03
 0.370679904564131D+03 -.175880443965075D+03 -.200754183397133D+03 0.244336249812633D+03
 0.167680176057530D+04 -.465288565982010D+03 0.627161949261553D+03 0.148385935453239D+04
0.131891045182D-03 0.000000000000D+00 0.000000000000D+00 0.791072017986D-06 0.000000000000D+00  7 -1 1 24 -11 11 -24 21 0 0.22610265D-01 0.34398593D+00 0.25622277D+06 0.25622277D+06 0.25622277D+06 0.10896567D+01  1  2  2  1  7  1       -1 0.543904761601D-03 0.100000000000D+01
-.718940452753D-05 0.000000000000D+00 -.506496341210D-06 0.791072017986D-06 0.000000000000D+00  7 -1 1 24 -11 11 -24 21 2 0.22610265D-01 0.34398593D+00 0.25622277D+06 0.25622277D+06 0.25622277D+06 0.10896567D+01  1  2  3  1  7  1       -1 -.352030171241D-04 0.100000000000D+01
0.820061356371D-05 0.000000000000D+00 0.000000000000D+00 0.791072017986D-06 0.000000000000D+00  7 -1 1 24 -11 11 -24 21 2 0.22610265D-01 0.34398593D+00 0.25622277D+06 0.25622277D+06 0.25622277D+06 0.10896567D+01  1  2 15  1  7  1       -1 0.401544159334D-04 0.100000000000D+01
-.270302160730D-04 0.000000000000D+00 -.592661877708D-04 0.791072017986D-06 0.000000000000D+00  7 -1 1 24 -11 11 -24 21 2 0.12410135D+00 0.34398593D+00 0.25622277D+06 0.25622277D+06 0.25622277D+06 0.10896567D+01  1  2  5  1  7  1       -1 -.513394921152D-05 0.100000000000D+01
-.838417276670D-05 0.000000000000D+00 -.123494429404D-04 0.791072017986D-06 0.000000000000D+00  7 21 1 24 -11 11 -24 1 2 0.12410135D+00 0.34398593D+00 0.25622277D+06 0.25622277D+06 0.25622277D+06 0.10896567D+01  1  2  5  3  7  1       -1 -.103984547543D-04 0.100000000000D+01
  </mgrwgt>
  </event>
  <event>
  8     66 0.29788925E-05 0.35931424E+03 0.75467711E-02 0.92490455E-01
       -1 -1    0    0    0  501 0.00000000E+00 0.00000000E+00 0.11173208E+03 0.11173254E+03 0.32000000E+00 0.0000E+00 0.9000E+01
        1 -1    0    0  501    0 0.00000000E+00 0.00000000E+00 -.12610580E+04 0.12610581E+04 0.32000000E+00 0.0000E+00 0.9000E+01
       25  2    1    2    0    0 0.10269808E+03 -.28123564E+03 -.53250236E+03 0.68113615E+03 0.30124294E+03 0.0000E+00 0.0000E+00
       23  2    1    2    0    0 -.10269808E+03 0.28123564E+03 -.61682360E+03 0.69165447E+03 0.90962482E+02 0.0000E+00 0.0000E+00
       24  1    3    3    0    0 0.15663935E+03 -.25396903E+03 -.47065656E+03 0.56304615E+03 0.80419002E+02 0.0000E+00 0.9000E+01
      -13  1    4    4    0    0 -.74497534E+01 -.38712067E+01 -.43547731E+02 0.44349759E+02 0.10565837E+00 0.0000E+00 0.9000E+01
       13  1    4    4    0    0 -.95248328E+02 0.28510684E+03 -.57327587E+03 0.64730471E+03 0.10565837E+00 0.0000E+00 0.9000E+01
      -24  1    3    3    0    0 -.53941268E+02 -.27266603E+02 -.61845802E+02 0.11809000E+03 0.80419002E+02 0.0000E+00 0.9000E+01
#aMCatNLO 1  0  0  2  2 0.40003674D+03 0.00000000D+00  -5  7  0 0.00000000D+00 0.00000000D+00 0.00000000D+00 0.00000000D+00 0.00000000D+00
  <mgrwgt>
 0.1632907973D-02    3    2    0
 0.375367790457786D+03 0.000000000000000D+00 0.000000000000000D+00 0.375367790457786D+03
 0.375367790457786D+03 0.000000000000000D+00 0.000000000000000D+00 -.375367790457786D+03
 0.309039129752585D+03 0.156639349161470D+03 -.253969033087339D+03 0.134621351105066D+01
 0.144286481129197D+02 -.744963490017417D+01 -.387159648370178D+01 -.117345458748073D+02
 0.306010924799401D+03 -.952484465018444D+02 0.285107232102399D+03 -.573086881587659D+02
 0.121256878250668D+03 -.539412677594519D+02 -.272666025313577D+02 0.676970205225225D+02
 0.000000000000000D+00 -.000000000000000D+00 -.000000000000000D+00 0.000000000000000D+00
 0.136924708580016D+04 0.000000000000000D+00 0.000000000000000D+00 0.136924708580016D+04
 0.467717727049335D+03 0.000000000000000D+00 0.000000000000000D+00 -.467717727049335D+03
 0.329728761377144D+03 0.280552541770557D+03 -.153434999723652D+03 0.134621351105066D+01
 0.119668221668091D+02 -.232923508327855D+01 0.282718607276276D+00 -.117345458748073D+02
 0.403048195023535D+03 0.423003885381515D+02 0.396704220928858D+03 -.573086881587659D+02
 0.105922611324382D+03 -.987121314421440D+01 0.848859227671218D+01 0.676970205225225D+02
 0.986298422957629D+03 -.310652482081216D+03 -.252040532089194D+03 0.901529358750829D+03
0.549721754537D-04 0.000000000000D+00 0.000000000000D+00 0.638340333249D-06 0.000000000000D+00  7 -1 1 24 -13 13 -24 21 0 0.17189589D-01 0.19400897D+00 0.12910672D+06 0.12910672D+06 0.12910672D+06 0.11127295D+01  1  2  2  2  7  2        1 0.161477017704D-02 0.100000000000D+01
-.304691570502D-05 0.000000000000D+00 -.211107628248D-06 0.638340333249D-06 0.000000000000D+00  7 -1 1 24 -13 13 -24 21 2 0.17189589D-01 0.19400897D+00 0.12910672D+06 0.12910672D+06 0.12910672D+06 0.11127295D+01  1  2  3  2  7  2        1 -.110817275912D-03 0.100000000000D+01
0.354561352667D-05 0.000000000000D+00 0.000000000000D+00 0.638340333249D-06 0.000000000000D+00  7 -1 1 24 -13 13 -24 21 2 0.17189589D-01 0.19400897D+00 0.12910672D+06 0.12910672D+06 0.12910672D+06 0.11127295D+01  1  2 15  2  7  2        1 0.128955071456D-03 0.100000000000D+01
  </mgrwgt>
  </event>
  <event>
  9     66 0.29788925E-05 0.31227603E+03 0.75467711E-02 0.95961666E-01
       21 -1    0    0  502  501 0.00000000E+00 0.00000000E+00 0.27941337E+03 0.27941438E+03 0.75000000E+00 0.0000E+00 0.9000E+01
        1 -1    0    0  501    0 0.00000000E+00 0.00000000E+00 -.13761094E+04 0.13761094E+04 0.32000000E+00 0.0000E+00 0.9000E+01
       25  2    1    2    0    0 -.42517995E+02 0.12680718E+03 -.10062175E+04 0.10584837E+04 0.30004387E+03 0.0000E+00 0.0000E+00
       23  2    1    2    0    0 -.38235800E+02 -.33673867E+03 -.11790188E+03 0.37044675E+03 0.92059918E+02 0.0000E+00 0.0000E+00
       24  1    3    3    0    0 -.13054310E+03 0.12110128E+03 -.76208365E+03 0.78673104E+03 0.80419002E+02 0.0000E+00 0.9000E+01
      -13  1    4    4    0    0 0.23810376E+02 -.33168035E+02 -.74600601E+01 0.41505617E+02 0.10565837E+00 0.0000E+00 0.9000E+01
       13  1    4    4    0    0 -.62046176E+02 -.30357064E+03 -.11044182E+03 0.32894113E+03 0.10565837E+00 0.0000E+00 0.9000E+01
      -24  1    3    3    0    0 0.88025100E+02 0.57058979E+01 -.24413382E+03 0.27175267E+03 0.80419002E+02 0.0000E+00 0.9000E+01
        1  1    1    2  502    0 0.80753795E+02 0.20993149E+03 0.27423331E+02 0.22659336E+03 0.32000000E+00 0.0000E+00 0.9000E+01
#aMCatNLO 2  0  0  1  2 0.22492756D+03 0.00000000D+00  -5  7  0 0.00000000D+00 0.00000000D+00 0.00000000D+00 0.00000000D+00 0.00000000D+00
  <mgrwgt>
 0.1722289405D-03    2    2    0
 0.426498979622417D+03 0.000000000000000D+00 0.000000000000000D+00 0.426498979622417D+03
 0.426498979622417D+03 0.000000000000000D+00 0.000000000000000D+00 -.426498979622417D+03
 0.331058333401978D+03 -.101022610517739D+03 0.197844170505379D+03 -.231914899309519D+03
 0.537892261821771D+02 0.290003372854635D+02 -.196758964815476D+02 0.408058866862881D+02
 0.324907005453583D+03 -.286773277161936D+02 -.216823421384514D+03 0.240270216645730D+03
 0.143243394207096D+03 0.100699600948469D+03 0.386551473606830D+02 -.491612040224996D+02
 0.000000000000000D+00 0.000000000000000D+00 0.000000000000000D+00 0.000000000000000D+00
 0.808652991175813D+03 0.000000000000000D+00 0.000000000000000D+00 0.808652991175813D+03
 0.475487185118989D+03 0.000000000000000D+00 0.000000000000000D+00 -.475487185118989D+03
 0.303247022555433D+03 -.130543095403995D+03 0.121101281805621D+03 -.231914899309519D+03
 0.577248187440322D+02 0.238104888206328D+02 -.331676790399886D+02 0.408058866862881D+02
 0.392090382577423D+03 -.620462885141147D+02 -.303570995294918D+03 0.240270216645730D+03
 0.129093049491289D+03 0.880250999456514D+02 0.570589793161733D+01 -.491612040224996D+02
 0.401984902926624D+03 0.807537951518251D+02 0.209931494597669D+03 0.333165806056824D+03
-.414817413934D-06 0.000000000000D+00 0.000000000000D+00 0.339942191058D-05 0.000000000000D+00  7 21 1 24 -13 13 -24 1 2 0.43233129D-01 0.18989734D+00 0.19818160D+06 0.19818160D+06 0.19818160D+06 0.10981302D+01  1  2 13  3  7  1       -1 -.311257232462D-04 0.100000000000D+01
0.335382892397D-05 0.000000000000D+00 0.000000000000D+00 0.339942191058D-05 0.445217600066D-10  7 21 1 24 -13 13 -24 1 2 0.42986748D-01 0.21170919D+00 0.19818160D+06 0.19818160D+06 0.19818160D+06 0.10981302D+01  1  2  1  3  7  1       -1 0.203354663751D-03 0.100000000000D+01
  </mgrwgt>
  </event>
  <event>
  8     66 0.29788925E-05 0.27246981E+03 0.75467711E-02 0.98281069E-01
       -1 -1    0    0    0  501 0.00000000E+00 0.00000000E+00 0.45229152E+03 0.45229164E+03 0.32000000E+00 0.0000E+00 0.9000E+01
        1 -1    0    0  501    0 0.00000000E+00 0.00000000E+00 -.18332525E+03 0.18332553E+03 0.32000000E+00 0.0000E+00 0.9000E+01
       25  2    1    2    0    0 0.10542666E+03 -.16165176E+03 0.12433943E+03 0.37729613E+03 0.29940942E+03 0.0000E+00 0.0000E+00
       23  2    1    2    0    0 -.10542666E+03 0.16165176E+03 0.14462684E+03 0.25832104E+03 0.92556803E+02 0.0000E+00 0.0000E+00
       24  1    3    3    0    0 -.53294844E+02 0.16600272E+02 0.68050776E+02 0.11922262E+03 0.80419002E+02 0.0000E+00 0.9000E+01
      -11  1    4    4    0    0 -.64514930E+02 0.12305426E+03 0.48902751E+02 0.14729564E+03 0.51099893E-03 0.0000E+00 0.9000E+01
       11  1    4    4    0    0 -.40911734E+02 0.38597504E+02 0.95724091E+02 0.11102540E+03 0.51099893E-03 0.0000E+00 0.9000E+01
      -24  1    3    3    0    0 0.15872151E+03 -.17825204E+03 0.56288656E+02 0.25807351E+03 0.80419002E+02 0.0000E+00 0.9000E+01
#aMCatNLO 1  0  0  2  1 0.16819425D+03 0.00000000D+00  -5  7  0 0.00000000D+00 0.00000000D+00 0.00000000D+00 0.00000000D+00 0.00000000D+00
  <mgrwgt>
 0.6599537009D-03    3    2    0
 0.287952394442431D+03 0.000000000000000D+00 0.000000000000000D+00 0.287952394442431D+03
 0.287952394442431D+03 0.000000000000000D+00 0.000000000000000D+00 -.287952394442431D+03
 0.998022283978407D+02 -.532948441716703D+02 0.166002717721114D+02 0.194257406709150D+02
 0.139728735497811D+03 -.645149296015901D+02 0.123054260234926D+03 -.148186510976637D+02
 0.778307410783079D+02 -.409117343753060D+02 0.385975039449675D+02 0.537967186399061D+02
 0.258543083910903D+03 0.158721508148566D+03 -.178252035952005D+03 -.584038082131574D+02
 0.000000000000000D+00 -.000000000000000D+00 0.000000000000000D+00 0.000000000000000D+00
 0.658475241780688D+03 0.000000000000000D+00 0.000000000000000D+00 0.658475241780688D+03
 0.319709405203725D+03 0.000000000000000D+00 0.000000000000000D+00 -.319709405203725D+03
 0.879945272424289D+02 -.265717029220975D+02 0.138710516347603D+02 0.194257406709150D+02
 0.123170271574858D+03 -.271048727748741D+02 0.119233591119818D+03 -.148186510976637D+02
 0.680502685885078D+02 -.201531285428170D+02 0.364774386228465D+02 0.537967186399061D+02
 0.320747956468752D+03 0.241153583420041D+03 -.186670779755118D+03 -.584038082131574D+02
 0.378221623109866D+03 -.167323879180253D+03 0.170886983776933D+02 0.338765836576963D+03
0.146027091429D-04 0.000000000000D+00 0.000000000000D+00 0.335842204168D-06 0.000000000000D+00  7 -1 1 24 -11 11 -24 21 0 0.69583341D-01 0.28203915D-01 0.74239799D+05 0.74239799D+05 0.74239799D+05 0.11324949D+01  1  2  2  2  7  2        1 0.652239487220D-03 0.100000000000D+01
-.808248754840D-06 0.000000000000D+00 -.560782480904D-07 0.335842204168D-06 0.000000000000D+00  7 -1 1 24 -11 11 -24 21 2 0.69583341D-01 0.28203915D-01 0.74239799D+05 0.74239799D+05 0.74239799D+05 0.11324949D+01  1  2  3  2  7  2        1 -.463010929877D-04 0.100000000000D+01
0.942910880427D-06 0.000000000000D+00 0.000000000000D+00 0.335842204168D-06 0.000000000000D+00  7 -1 1 24 -11 11 -24 21 2 0.69583341D-01 0.28203915D-01 0.74239799D+05 0.74239799D+05 0.74239799D+05 0.11324949D+01  1  2 15  2  7  2        1 0.540153066643D-04 0.100000000000D+01
  </mgrwgt>
  </event>
  <event>
  8     66 0.29788925E-05 0.17244191E+03 0.75467711E-02 0.10218171E+00
       -1 -1    0    0    0  501 0.00000000E+00 0.00000000E+00 0.39002565E+02 0.39003877E+02 0.32000000E+00 0.0000E+00 0.9000E+01
        1 -1    0    0  501    0 0.00000000E+00 0.00000000E+00 -.18967506E+04 0.18967507E+04 0.32000000E+00 0.0000E+00 0.9000E+01
       25  2    1    2    0    0 -.14782735E+03 -.91074521E+02 -.11998038E+04 0.12490127E+04 0.30059286E+03 0.0000E+00 0.0000E+00
       23  2    1    2    0    0 0.14782735E+03 0.91074521E+02 -.65794424E+03 0.68674181E+03 0.92607781E+02 0.0000E+00 0.0000E+00
       24  1    3    3    0    0 0.47872961E+02 0.24073125E+02 -.22474994E+03 0.24464482E+03 0.80419002E+02 0.0000E+00 0.9000E+01
      -11  1    4    4    0    0 -.10148304E+02 -.44366326E+01 -.57627574E+02 0.58682272E+02 0.51099893E-03 0.0000E+00 0.9000E+01
       11  1    4    4    0    0 0.15797565E+03 0.95511154E+02 -.60031667E+03 0.62805954E+03 0.51099893E-03 0.0000E+00 0.9000E+01
      -24  1    3    3    0    0 -.19570031E+03 -.11514765E+03 -.97505390E+03 0.10043679E+04 0.80419002E+02 0.0000E+00 0.9000E+01
#aMCatNLO 1  0  0  2  1 0.67834572D+01 0.00000000D+00  -5  7  0 0.00000000D+00 0.00000000D+00 0.00000000D+00 0.00000000D+00 0.00000000D+00
  <mgrwgt>
 0.1497678591D-02   11    2    0
 0.271991610879043D+03 0.000000000000000D+00 0.000000000000000D+00 0.271991610879043D+03
 0.271991610879043D+03 0.000000000000000D+00 0.000000000000000D+00 -.271991610879043D+03
 0.103024410128307D+03 0.478729610437570D+02 0.240731246382372D+02 0.357138264397683D+02
 0.120168416324827D+02 -.101483035948750D+02 -.443663261848326D+01 -.466183525824614D+01
 0.184807131688506D+03 0.157975651355005D+03 0.955111535946547D+02 0.865962129153559D+01
 0.244134838308790D+03 -.195700308803887D+03 -.115147645614409D+03 -.397116124730578D+02
 0.000000000000000D+00 0.000000000000000D+00 -.000000000000000D+00 -.000000000000000D+00
 0.272565640361115D+03 0.000000000000000D+00 0.000000000000000D+00 0.272565640361115D+03
 0.292819735918582D+03 0.000000000000000D+00 0.000000000000000D+00 -.292819735918582D+03
 0.103106147021025D+03 0.474258058032192D+02 0.252779972326943D+02 0.357138264397683D+02
 0.120099387255561D+02 -.102004244492448D+02 -.429619148453983D+01 -.466183525824614D+01
 0.185252691279141D+03 0.157172887361928D+03 0.976742241513426D+02 0.865962129153559D+01
 0.243656737859602D+03 -.196758466131895D+03 -.112296410406683D+03 -.397116124730578D+02
 0.213598613943733D+02 0.236019741599295D+01 -.635961949281453D+01 -.202540955574667D+02
0.999468347816D-05 0.000000000000D+00 0.000000000000D+00 0.290292203165D-06 0.000000000000D+00  7 -1 1 24 -11 11 -24 21 0 0.60004976D-02 0.29180790D+00 0.71075410D+05 0.71075410D+05 0.71075410D+05 0.11340972D+01  1  2  2  2  7  2        1 0.568533614129D-03 0.100000000000D+01
-.554989529001D-06 0.000000000000D+00 -.383822162167D-07 0.290292203165D-06 0.000000000000D+00  7 -1 1 24 -11 11 -24 21 2 0.60004976D-02 0.29180790D+00 0.71075410D+05 0.71075410D+05 0.71075410D+05 0.11340972D+01  1  2  3  2  7  2        1 -.406043371951D-04 0.100000000000D+01
0.650165138812D-06 0.000000000000D+00 0.000000000000D+00 0.290292203165D-06 0.000000000000D+00  7 -1 1 24 -11 11 -24 21 2 0.60004976D-02 0.29180790D+00 0.71075410D+05 0.71075410D+05 0.71075410D+05 0.11340972D+01  1  2 15  2  7  2        1 0.475676083049D-04 0.100000000000D+01
0.204703392254D-03 0.000000000000D+00 0.000000000000D+00 0.290292203165D-06 0.000000000000D+00  7 -1 1 24 -11 11 -24 21 2 0.60004976D-02 0.31444803D+00 0.72906486D+05 0.72906486D+05 0.72906486D+05 0.11331607D+01  1  2 12  2  7  2        1 0.119814264408D-01 0.100000000000D+01
-.222350413533D-03 0.000000000000D+00 0.000000000000D+00 0.290292203165D-06 0.000000000000D+00  7 -1 1 24 -11 11 -24 21 2 0.60004976D-02 0.29180790D+00 0.71075410D+05 0.71075410D+05 0.71075410D+05 0.11340972D+01  1  2  4  2  7  2        1 -.162676783881D-01 0.100000000000D+01
-.295185903457D-03 0.000000000000D+00 -.136122293157D-04 0.290292203165D-06 0.000000000000D+00  7 -1 1 24 -11 11 -24 21 2 0.60004976D-02 0.31437757D+00 0.71075410D+05 0.71075410D+05 0.71075410D+05 0.11340972D+01  1  2  5  2  7  2        1 -.173272329734D-01 0.100000000000D+01
0.295417510470D-03 0.000000000000D+00 0.135745418261D-04 0.290292203165D-06 0.000000000000D+00  7 -1 1 24 -11 11 -24 21 2 0.60004976D-02 0.29180790D+00 0.71075410D+05 0.71075410D+05 0.71075410D+05 0.11340972D+01  1  2  6  2  7  2        1 0.216134387798D-01 0.100000000000D+01
0.161280474978D-04 0.000000000000D+00 0.000000000000D+00 0.290292203165D-06 0.433188915944D-07  7 -1 1 24 -11 11 -24 21 2 0.60131615D-02 0.31415348D+00 0.72906486D+05 0.72906486D+05 0.72906486D+05 0.11331607D+01  1  2 11  2  7  2        1 0.943735924814D-03 0.100000000000D+01
0.292166083409D-05 0.000000000000D+00 0.000000000000D+00 0.290292203165D-06 0.000000000000D+00  7 -1 21 24 -11 11 -24 -1 2 0.60004976D-02 0.31444803D+00 0.72906486D+05 0.72906486D+05 0.72906486D+05 0.11331607D+01  1  2 12  4  7  2        1 0.894561239357D-04 0.100000000000D+01
-.380859414375D-05 0.000000000000D+00 -.170622366870D-06 0.290292203165D-06 0.000000000000D+00  7 -1 21 24 -11 11 -24 -1 2 0.60004976D-02 0.31437757D+00 0.71075410D+05 0.71075410D+05 0.71075410D+05 0.11340972D+01  1  2  5  4  7  2        1 -.117151868642D-03 0.100000000000D+01
0.201840315993D-06 0.000000000000D+00 0.000000000000D+00 0.290292203165D-06 0.539527803986D-09  7 -1 21 24 -11 11 -24 -1 2 0.60131615D-02 0.31415348D+00 0.72906486D+05 0.72906486D+05 0.72906486D+05 0.11331607D+01  1  2 11  4  7  2        1 0.618766621603D-05 0.100000000000D+01
  </mgrwgt>
  </event>
  <event>
  8     66 0.29788925E-05 0.21180045E+03 0.75467711E-02 0.10218309E+00
       -1 -1    0    0    0  501 0.00000000E+00 0.00000000E+00 0.35311875E+02 0.35313325E+02 0.32000000E+00 0.0000E+00 0.9000E+01
        1 -1    0    0  501    0 0.00000000E+00 0.00000000E+00 -.24629263E+04 0.24629263E+04 0.32000000E+00 0.0000E+00 0.9000E+01
       25  2    1    2    0    0 0.15152832E+03 0.23447863E+02 -.20826652E+04 0.21097767E+04 0.30025454E+03 0.0000E+00 0.0000E+00
       23  2    1    2    0    0 -.15152832E+03 -.23447863E+02 -.34494922E+03 0.38846293E+03 0.91667060E+02 0.0000E+00 0.0000E+00
       24  1    3    3    0    0 0.10015214E+02 0.23346881E+02 -.16583232E+03 0.18604558E+03 0.80419002E+02 0.0000E+00 0.9000E+01
      -11  1    4    4    0    0 -.16235290E+03 -.28008784E+02 -.30292798E+03 0.34483086E+03 0.51099893E-03 0.0000E+00 0.9000E+01
       11  1    4    4    0    0 0.10824580E+02 0.45609214E+01 -.42021235E+02 0.43632072E+02 0.51099893E-03 0.0000E+00 0.9000E+01
      -24  1    3    3    0    0 0.14151311E+03 0.10098186E+00 -.19168329E+04 0.19237311E+04 0.80419002E+02 0.0000E+00 0.9000E+01
#aMCatNLO 1  0  0  2  1 0.10612704D+03 0.00000000D+00  -5  7  0 0.00000000D+00 0.00000000D+00 0.00000000D+00 0.00000000D+00 0.00000000D+00
  <mgrwgt>
 0.8015703349D-03    4    2    0
 0.294910802908249D+03 0.000000000000000D+00 0.000000000000000D+00 0.294910802908249D+03
 0.294910802908249D+03 0.000000000000000D+00 0.000000000000000D+00 -.294910802908249D+03
 0.105471714652717D+03 0.100152135514699D+02 0.233468806790474D+02 0.633378662214829D+02
 0.213755781309928D+03 -.162352904604674D+03 -.280087839107925D+02 0.136193158542130D+03
 0.118544601021697D+02 0.108245804882073D+02 0.456092137255025D+01 0.159833594768742D+01
 0.258739649751683D+03 0.141513110564997D+03 0.100981859194953D+00 -.201129360711300D+03
 0.000000000000000D+00 0.000000000000000D+00 -.000000000000000D+00 0.000000000000000D+00
 0.381854151069838D+03 0.000000000000000D+00 0.000000000000000D+00 0.381854151069838D+03
 0.333898246240585D+03 0.000000000000000D+00 0.000000000000000D+00 -.333898246240585D+03
 0.110467117699848D+03 0.325433576110086D+01 0.413943491288981D+02 0.633378662214829D+02
 0.222716957059560D+03 -.176018528387088D+03 0.847019436802887D+01 0.136193158542130D+03
 0.121300606327214D+02 0.100736436984574D+02 0.656546995944362D+01 0.159833594768742D+01
 0.253979178440467D+03 0.125460280694320D+03 0.429523614588325D+02 -.201129360711300D+03
 0.116459083477825D+03 0.372302682332096D+02 -.993823749152031D+02 0.479559048292530D+02
0.394429400158D-04 0.000000000000D+00 0.000000000000D+00 0.230149340465D-05 0.000000000000D+00  7 -1 1 24 -11 11 -24 21 0 0.54327092D-02 0.37891185D+00 0.44859432D+05 0.44859432D+05 0.44859432D+05 0.11514629D+01  1  2  2  2  7  2        1 0.111342935766D-02 0.100000000000D+01
-.189932428548D-05 0.000000000000D+00 -.151471275225D-06 0.230149340465D-05 0.000000000000D+00  7 -1 1 24 -11 11 -24 21 2 0.54327092D-02 0.37891185D+00 0.44859432D+05 0.44859432D+05 0.44859432D+05 0.11514629D+01  1  2  3  2  7  2        1 -.710873653719D-04 0.100000000000D+01
0.249900138530D-05 0.000000000000D+00 0.000000000000D+00 0.230149340465D-05 0.000000000000D+00  7 -1 1 24 -11 11 -24 21 2 0.54327092D-02 0.37891185D+00 0.44859432D+05 0.44859432D+05 0.44859432D+05 0.11514629D+01  1  2 15  2  7  2        1 0.935319081106D-04 0.100000000000D+01
-.893197936614D-05 0.000000000000D+00 0.000000000000D+00 0.230149340465D-05 0.000000000000D+00  7 -1 1 24 -11 11 -24 21 2 0.54327092D-02 0.37891185D+00 0.44859432D+05 0.44859432D+05 0.44859432D+05 0.11514629D+01  1  2  4  2  7  2        1 -.334303565510D-03 0.100000000000D+01
  </mgrwgt>
  </event>
  <event>
  8     66 0.29788925E-05 0.27045678E+03 0.75467711E-02 0.95333501E-01
       -1 -1    0    0    0  501 0.00000000E+00 0.00000000E+00 0.44348343E+02 0.44349498E+02 0.32000000E+00 0.0000E+00 0.9000E+01
        1 -1    0    0  501    0 0.00000000E+00 0.00000000E+00 -.23392804E+04 0.23392804E+04 0.32000000E+00 0.0000E+00 0.9000E+01
       25  2    1    2    0    0 0.45283007E+02 0.21204983E+03 -.17781438E+04 0.18160754E+04 0.29886240E+03 0.0000E+00 0.0000E+00
       23  2    1    2    0    0 -.45283007E+02 -.21204983E+03 -.51678819E+03 0.56755447E+03 0.89623470E+02 0.0000E+00 0.0000E+00
       24  1    3    3    0    0 0.72634548E+02 0.18975655E+03 -.16242824E+04 0.16389154E+04 0.80419002E+02 0.0000E+00 0.9000E+01
      -11  1    4    4    0    0 -.64448777E+02 -.88127851E+02 -.24628874E+03 0.26940362E+03 0.51099893E-03 0.0000E+00 0.9000E+01
       11  1    4    4    0    0 0.19165770E+02 -.12392198E+03 -.27049944E+03 0.29815085E+03 0.51099893E-03 0.0000E+00 0.9000E+01
      -24  1    3    3    0    0 -.27351541E+02 0.22293284E+02 -.15386147E+03 0.17716000E+03 0.80419002E+02 0.0000E+00 0.9000E+01
#aMCatNLO 1  0  0  2  1 0.31683846D+03 0.00000000D+00  -5  7  0 0.00000000D+00 0.00000000D+00 0.00000000D+00 0.00000000D+00 0.00000000D+00
  <mgrwgt>
 0.4491997366D-03    6    2    0
 0.322094103180318D+03 0.000000000000000D+00 0.000000000000000D+00 0.322094103180318D+03
 0.322094103180318D+03 0.000000000000000D+00 0.000000000000000D+00 -.322094103180318D+03
 0.277791725557010D+03 0.726345477535073D+02 0.189756545255821D+03 -.171515896752428D+03
 0.119441159364675D+03 -.644487773588207D+02 -.881278513825839D+02 0.484358076016094D+02
 0.139560849419348D+03 0.191657702253068D+02 -.123921977448860D+03 0.612637531292748D+02
 0.107394472019603D+03 -.273515406199934D+02 0.222932835756229D+02 0.618163360215438D+02
 0.000000000000000D+00 0.000000000000000D+00 -.000000000000000D+00 -.000000000000000D+00
 0.460321340847031D+03 0.000000000000000D+00 0.000000000000000D+00 0.460321340847031D+03
 0.606503068444687D+03 0.000000000000000D+00 0.000000000000000D+00 -.606503068444687D+03
 0.281698465013602D+03 -.570639794237940D+02 0.200531315884029D+03 -.171515896752428D+03
 0.161107552903227D+03 -.129484331861618D+03 -.827249898567315D+02 0.484358076016094D+02
 0.141087678518852D+03 -.458929231021650D+02 -.118517193653465D+03 0.612637531292748D+02
 0.133995608800715D+03 -.833095153713911D+02 0.269420205804861D+02 0.618163360215438D+02
 0.348935104055322D+03 0.315750749758968D+03 -.262311529543185D+02 -.146181727597656D+03
0.132628208235D-04 0.000000000000D+00 0.000000000000D+00 0.464733264879D-07 0.000000000000D+00  7 -1 1 24 -11 11 -24 21 0 0.68229125D-02 0.35988938D+00 0.73146868D+05 0.73146868D+05 0.73146868D+05 0.11330397D+01  1  2  2  2  7  2        1 0.318178779495D-03 0.100000000000D+01
-.709471505766D-06 0.000000000000D+00 -.509327241433D-07 0.464733264879D-07 0.000000000000D+00  7 -1 1 24 -11 11 -24 21 2 0.68229125D-02 0.35988938D+00 0.73146868D+05 0.73146868D+05 0.73146868D+05 0.11330397D+01  1  2  3  2  7  2        1 -.218504565860D-04 0.100000000000D+01
0.845953436841D-06 0.000000000000D+00 0.000000000000D+00 0.464733264879D-07 0.000000000000D+00  7 -1 1 24 -11 11 -24 21 2 0.68229125D-02 0.35988938D+00 0.73146868D+05 0.73146868D+05 0.73146868D+05 0.11330397D+01  1  2 15  2  7  2        1 0.260538565612D-04 0.100000000000D+01
-.257192238632D-05 0.000000000000D+00 -.292308474427D-05 0.464733264879D-07 0.000000000000D+00  7 -1 1 24 -11 11 -24 21 2 0.68229125D-02 0.71923484D+00 0.73146868D+05 0.73146868D+05 0.73146868D+05 0.11330397D+01  1  2  5  2  7  2        1 -.852979953234D-06 0.100000000000D+01
0.414539671228D-05 0.000000000000D+00 0.233952829055D-05 0.464733264879D-07 0.000000000000D+00  7 -1 1 24 -11 11 -24 21 2 0.68229125D-02 0.35988938D+00 0.73146868D+05 0.73146868D+05 0.73146868D+05 0.11330397D+01  1  2  6  2  7  2        1 0.127670822799D-03 0.100000000000D+01
-.174113676194D-07 0.000000000000D+00 -.218999414196D-06 0.464733264879D-07 0.000000000000D+00  7 -1 21 24 -11 11 -24 -1 2 0.68229125D-02 0.71923484D+00 0.73146868D+05 0.73146868D+05 0.73146868D+05 0.11330397D+01  1  2  5  4  7  2        1 -.285705012817D-09 0.100000000000D+01
  </mgrwgt>
  </event>
  <event>
  7     66 0.29788925E-05 0.35421431E+03 0.75467711E-02 0.97144579E-01
       -1 -1    0    0    0  501 0.00000000E+00 0.00000000E+00 0.73535020E+03 0.73535027E+03 0.32000000E+00 0.0000E+00 0.9000E+01
        1 -1    0    0  501    0 0.00000000E+00 0.00000000E+00 -.27375918E+03 0.27375936E+03 0.32000000E+00 0.0000E+00 0.9000E+01
       25  2    1    2    0    0 0.16387517E+03 -.26581594E+03 0.59534072E+02 0.43667350E+03 0.29937644E+03 0.0000E+00 0.0000E+00
       24  1    3    3    0    0 -.11486426E+02 -.27142626E+02 0.94798653E+02 0.12776017E+03 0.80419002E+02 0.0000E+00 0.9000E+01
      -13  1    1    2    0    0 -.65256991E+02 0.15117680E+03 0.25465612E+02 0.16661755E+03 0.10565837E+00 0.0000E+00 0.9000E+01
       13  1    1    2    0    0 -.98618178E+02 0.11463913E+03 0.37659134E+03 0.40581859E+03 0.10565837E+00 0.0000E+00 0.9000E+01
      -24  1    3    3    0    0 0.17536159E+03 -.23867331E+03 -.35264580E+02 0.30891333E+03 0.80419002E+02 0.0000E+00 0.9000E+01
#aMCatNLO 1  0  0  2  2 0.87884306D+02 0.00000000D+00  -5  7  0 0.00000000D+00 0.00000000D+00 0.00000000D+00 0.00000000D+00 0.00000000D+00
  <mgrwgt>
 0.3015112445D-02    4    2    0
 0.448674709424263D+03 0.000000000000000D+00 0.000000000000000D+00 0.448674709424263D+03
 0.448674709424263D+03 0.000000000000000D+00 0.000000000000000D+00 -.448674709424263D+03
 0.949081703639161D+02 -.114861464075327D+02 -.271430792808251D+02 0.408860188244730D+02
 0.174268068768431D+03 -.652575293358205D+02 0.151176383319979D+03 -.570658898428297D+02
 0.262644195895187D+03 -.986189959540147D+02 0.114641752322423D+03 0.214740624705471D+03
 0.365528983820991D+03 0.175362671697368D+03 -.238675056361577D+03 -.198560753687114D+03
 0.000000000000000D+00 0.000000000000000D+00 -.000000000000000D+00 0.000000000000000D+00
 0.547104151792130D+03 0.000000000000000D+00 0.000000000000000D+00 0.547104151792130D+03
 0.470875971201839D+03 0.000000000000000D+00 0.000000000000000D+00 -.470875971201839D+03
 0.963212893522551D+02 -.208103403174700D+02 -.265676124005571D+02 0.408860188244730D+02
 0.182392924532849D+03 -.826480311266425D+02 0.152249683372351D+03 -.570658898428297D+02
 0.274232608282597D+03 -.124796675038247D+03 0.116257375877742D+03 0.214740624705471D+03
 0.348695917871031D+03 0.140537642705670D+03 -.236525739114138D+03 -.198560753687114D+03
 0.116337382955236D+03 0.877174037766897D+02 -.541370773539787D+01 0.762281805902915D+02
0.420757261102D-03 0.000000000000D+00 0.000000000000D+00 0.388675349404D-09 0.000000000000D+00  7 -1 1 24 -13 13 -24 21 0 0.11313082D+00 0.42116816D-01 0.12546777D+06 0.12546777D+06 0.12546777D+06 0.11137249D+01  1  2  2  2  7  2        1 0.395650476530D-02 0.100000000000D+01
-.217871456134D-04 0.000000000000D+00 -.161581867056D-05 0.388675349404D-09 0.000000000000D+00  7 -1 1 24 -13 13 -24 21 2 0.11313082D+00 0.42116816D-01 0.12546777D+06 0.12546777D+06 0.12546777D+06 0.11137249D+01  1  2  3  2  7  2        1 -.254118497950D-03 0.100000000000D+01
0.268904618591D-04 0.000000000000D+00 0.000000000000D+00 0.388675349404D-09 0.000000000000D+00  7 -1 1 24 -13 13 -24 21 2 0.11313082D+00 0.42116816D-01 0.12546777D+06 0.12546777D+06 0.12546777D+06 0.11137249D+01  1  2 15  2  7  2        1 0.313641993222D-03 0.100000000000D+01
-.858146840802D-04 0.000000000000D+00 0.000000000000D+00 0.388675349404D-09 0.000000000000D+00  7 -1 1 24 -13 13 -24 21 2 0.11313082D+00 0.42116816D-01 0.12546777D+06 0.12546777D+06 0.12546777D+06 0.11137249D+01  1  2  4  2  7  2        1 -.100091581557D-02 0.100000000000D+01
  </mgrwgt>
  </event>
  <event>
  8     66 0.29788925E-05 0.64890106E+03 0.75467711E-02 0.88218747E-01
       -1 -1    0    0    0  501 0.00000000E+00 0.00000000E+00 0.70004293E+03 0.70004301E+03 0.32000000E+00 0.0000E+00 0.9000E+01
        1 -1    0    0  501    0 0.00000000E+00 0.00000000E+00 -.62579249E+03 0.62579257E+03 0.32000000E+00 0.0000E+00 0.9000E+01
       25  2    1    2    0    0 -.11754440E+02 -.61376847E+03 0.15215295E+03 0.70005418E+03 0.30012570E+03 0.0000E+00 0.0000E+00
       23  2    1    2    0    0 0.11754440E+02 0.61376847E+03 -.77902505E+02 0.62578139E+03 0.93186083E+02 0.0000E+00 0.0000E+00
       24  1    3    3    0    0 0.97569371E+02 -.43289990E+03 0.14533590E+03 0.47382681E+03 0.80419002E+02 0.0000E+00 0.9000E+01
      -11  1    4    4    0    0 -.34871073E+02 0.12720468E+03 -.97082361E+01 0.13225457E+03 0.51099893E-03 0.0000E+00 0.9000E+01
       11  1    4    4    0    0 0.46625514E+02 0.48656379E+03 -.68194269E+02 0.49352682E+03 0.51099893E-03 0.0000E+00 0.9000E+01
      -24  1    3    3    0    0 -.10932381E+03 -.18086857E+03 0.68170458E+01 0.22622737E+03 0.80419002E+02 0.0000E+00 0.9000E+01
#aMCatNLO 1  0  0  2  1 0.45977747D+03 0.00000000D+00  -5  7  0 0.00000000D+00 0.00000000D+00 0.00000000D+00 0.00000000D+00 0.00000000D+00
  <mgrwgt>
 0.4480364311D-03    4    2    0
 0.661877414628249D+03 0.000000000000000D+00 0.000000000000000D+00 0.661877414628249D+03
 0.661877414628249D+03 0.000000000000000D+00 0.000000000000000D+00 -.661877414628249D+03
 0.466419594242921D+03 0.975693708200643D+02 -.432899902368643D+03 0.118987034362392D+03
 0.133007002069677D+03 -.348710733591142D+02 0.127204681329234D+03 -.171417586692379D+02
 0.498127639194115D+03 0.466255135776549D+02 0.486563791297250D+03 -.959837663939474D+02
 0.226200593749785D+03 -.109323811038605D+03 -.180868570257841D+03 -.586150929920665D+01
 0.000000000000000D+00 0.000000000000000D+00 -.000000000000000D+00 0.000000000000000D+00
 0.969931287175286D+03 0.000000000000000D+00 0.000000000000000D+00 0.969931287175286D+03
 0.896933652361414D+03 0.000000000000000D+00 0.000000000000000D+00 -.896933652361414D+03
 0.413729805031519D+03 -.431929766815957D+02 -.385592515534307D+03 0.118987034362392D+03
 0.166357064835535D+03 -.827483869719616D+02 0.143295281094523D+03 -.171417586692379D+02
 0.565805459885346D+03 -.123529372325350D+03 0.543749417652842D+03 -.959837663939474D+02
 0.255436385827132D+03 -.186352042773745D+03 -.154980934675348D+03 -.586150929920665D+01
 0.465536223957169D+03 0.435822778752653D+03 -.146471248537710D+03 0.729976348138720D+02
0.185049752967D-03 0.000000000000D+00 0.000000000000D+00 0.187542626441D-05 0.000000000000D+00  7 -1 1 24 -11 11 -24 21 0 0.10769892D+00 0.96275779D-01 0.42107259D+06 0.42107259D+06 0.42107259D+06 0.10738239D+01  1  2  2  2  7  2        1 0.600259245161D-03 0.100000000000D+01
-.102756414193D-04 0.000000000000D+00 -.710639776113D-06 0.187542626441D-05 0.000000000000D+00  7 -1 1 24 -11 11 -24 21 2 0.10769892D+00 0.96275779D-01 0.42107259D+06 0.42107259D+06 0.42107259D+06 0.10738239D+01  1  2  3  2  7  2        1 -.384348729011D-04 0.100000000000D+01
0.118114210692D-04 0.000000000000D+00 0.000000000000D+00 0.187542626441D-05 0.000000000000D+00  7 -1 1 24 -11 11 -24 21 2 0.10769892D+00 0.96275779D-01 0.42107259D+06 0.42107259D+06 0.42107259D+06 0.10738239D+01  1  2 15  2  7  2        1 0.441792827377D-04 0.100000000000D+01
-.422328584895D-04 0.000000000000D+00 0.000000000000D+00 0.187542626441D-05 0.000000000000D+00  7 -1 1 24 -11 11 -24 21 2 0.10769892D+00 0.96275779D-01 0.42107259D+06 0.42107259D+06 0.42107259D+06 0.10738239D+01  1  2  4  2  7  2        1 -.157967223850D-03 0.100000000000D+01
  </mgrwgt>
  </event>
  <event>
  8     66 0.29788925E-05 0.19192976E+03 0.75467711E-02 0.89021424E-01
       -3 -1    0    0    0  501 0.00000000E+00 0.00000000E+00 0.12356553E+03 0.12356654E+03 0.50000000E+00 0.0000E+00 0.9000E+01
        3 -1    0    0  501    0 0.00000000E+00 0.00000000E+00 -.35256063E+03 0.35256099E+03 0.50000000E+00 0.0000E+00 0.9000E+01
       25  2    1    2    0    0 0.14518836E+02 -.36003339E+02 -.11196506E+03 0.32199599E+03 0.29939641E+03 0.0000E+00 0.0000E+00
       23  2    1    2    0    0 -.14518836E+02 0.36003339E+02 -.11703005E+03 0.15413153E+03 0.92484914E+02 0.0000E+00 0.0000E+00
       24  1    3    3    0    0 0.75024663E+01 0.98097541E+02 0.41000613E+01 0.12713552E+03 0.80419002E+02 0.0000E+00 0.9000E+01
      -11  1    4    4    0    0 0.39529028E+02 0.15617446E+02 -.51627046E+02 0.66871522E+02 0.51099893E-03 0.0000E+00 0.9000E+01
       11  1    4    4    0    0 -.54047864E+02 0.20385893E+02 -.65403005E+02 0.87260010E+02 0.51099893E-03 0.0000E+00 0.9000E+01
      -24  1    3    3    0    0 0.70163701E+01 -.13410088E+03 -.11606512E+03 0.19486047E+03 0.80419002E+02 0.0000E+00 0.9000E+01
#aMCatNLO 1  0  0  1  1 0.81315264D+03 0.00000000D+00  -5  7  0 0.00000000D+00 0.00000000D+00 0.00000000D+00 0.00000000D+00 0.00000000D+00
  <mgrwgt>
 0.2283858768D-03    5    2    0
 0.208721501756142D+03 0.000000000000000D+00 0.000000000000000D+00 0.208721501756142D+03
 0.208721501756142D+03 0.000000000000000D+00 0.000000000000000D+00 -.208721501756142D+03
 0.147257506122054D+03 0.750246667259047D+01 0.980975400737940D+02 0.744186991300792D+02
 0.479515311213836D+02 0.395290256449488D+02 0.156174465236058D+02 -.222013700597128D+02
 0.636492269758862D+02 -.540478628273519D+02 0.203858946870570D+02 -.267295326601843D+02
 0.158584739292961D+03 0.701637050981258D+01 -.134100881284457D+03 -.254877964101821D+02
 0.000000000000000D+00 -.000000000000000D+00 0.000000000000000D+00 0.000000000000000D+00
 0.417269044962939D+04 0.000000000000000D+00 0.000000000000000D+00 0.417269044962939D+04
 0.501510288800413D+03 0.000000000000000D+00 0.000000000000000D+00 -.501510288800413D+03
 0.252802598505021D+03 0.227691243343156D+03 -.777771053425489D+01 0.744186991300792D+02
 0.161207339649183D+03 0.154647817426746D+03 -.397361056141986D+02 -.222013700597128D+02
 0.272766873476832D+02 -.400321800773821D+01 -.367749942405474D+01 -.267295326601843D+02
 0.472757069797906D+03 0.354500108570335D+03 -.301184455686718D+03 -.254877964101821D+02
 0.376015704313001D+04 -.732835951332499D+03 0.352375771259227D+03 0.367118016082897D+04
0.651570960165D-05 0.000000000000D+00 0.000000000000D+00 0.914726741449D-07 0.000000000000D+00  7 -3 3 24 -11 11 -24 21 0 0.19010186D-01 0.54240203D-01 0.36837034D+05 0.36837034D+05 0.36837034D+05 0.11591525D+01  1  2  2  1  7  1       -3 0.226661555417D-03 0.100000000000D+01
-.358887887659D-06 0.000000000000D+00 -.250220404961D-07 0.914726741449D-07 0.000000000000D+00  7 -3 3 24 -11 11 -24 21 2 0.19010186D-01 0.54240203D-01 0.36837034D+05 0.36837034D+05 0.36837034D+05 0.11591525D+01  1  2  3  1  7  1       -3 -.167747513294D-04 0.100000000000D+01
0.397973849257D-06 0.000000000000D+00 0.000000000000D+00 0.914726741449D-07 0.000000000000D+00  7 -3 3 24 -11 11 -24 21 2 0.19010186D-01 0.54240203D-01 0.36837034D+05 0.36837034D+05 0.36837034D+05 0.11591525D+01  1  2 15  1  7  1       -3 0.186016652734D-04 0.100000000000D+01
-.587148374982D-05 0.000000000000D+00 -.122100040172D-04 0.914726741449D-07 0.000000000000D+00  7 -3 3 24 -11 11 -24 21 2 0.52728117D+00 0.54240203D-01 0.36837034D+05 0.36837034D+05 0.36837034D+05 0.11591525D+01  1  2  5  1  7  1       -3 -.819420944030D-10 0.100000000000D+01
-.547215182819D-05 0.000000000000D+00 -.410156122996D-05 0.914726741449D-07 0.000000000000D+00  7 21 3 24 -11 11 -24 3 2 0.52728117D+00 0.54240203D-01 0.36837034D+05 0.36837034D+05 0.36837034D+05 0.11591525D+01  1  2  5  3  7  1       -3 -.102510601293D-06 0.100000000000D+01
  </mgrwgt>
  </event>
  <event>
  8     66 0.29788925E-05 0.29422883E+03 0.75467711E-02 0.95292399E-01
       -3 -1    0    0    0  501 0.00000000E+00 0.00000000E+00 0.12572427E+04 0.12572428E+04 0.50000000E+00 0.0000E+00 0.9000E+01
        3 -1    0    0  501    0 0.00000000E+00 0.00000000E+00 -.72750052E+02 0.72751770E+02 0.50000000E+00 0.0000E+00 0.9000E+01
       25  2    1    2    0    0 0.43342677E+02 0.21213533E+03 0.71819347E+03 0.80777554E+03 0.29969897E+03 0.0000E+00 0.0000E+00
       23  2    1    2    0    0 -.43342677E+02 -.21213533E+03 0.46629918E+03 0.52221904E+03 0.91639529E+02 0.0000E+00 0.0000E+00
       24  1    3    3    0    0 -.82341005E+02 0.17128942E+03 0.32204114E+03 0.38248898E+03 0.80419002E+02 0.0000E+00 0.9000E+01
      -13  1    4    4    0    0 0.17010162E+02 -.84640085E+02 0.11611910E+03 0.14469605E+03 0.10565837E+00 0.0000E+00 0.9000E+01
       13  1    4    4    0    0 -.60352839E+02 -.12749525E+03 0.35018008E+03 0.37752298E+03 0.10565837E+00 0.0000E+00 0.9000E+01
      -24  1    3    3    0    0 0.12568368E+03 0.40845918E+02 0.39615233E+03 0.42528656E+03 0.80419002E+02 0.0000E+00 0.9000E+01
#aMCatNLO 1  0  0  2  2 0.28996224D+03 0.00000000D+00  -5  7  0 0.00000000D+00 0.00000000D+00 0.00000000D+00 0.00000000D+00 0.00000000D+00
  <mgrwgt>
 0.8729131755D-04    3    2    0
 0.302432935404364D+03 0.000000000000000D+00 0.000000000000000D+00 0.302432935404364D+03
 0.302432935404364D+03 0.000000000000000D+00 0.000000000000000D+00 -.302432935404364D+03
 0.210382012185390D+03 -.823410050242891D+02 0.171289416894287D+03 -.409056187877414D+02
 0.907683770465024D+02 0.170102648799346D+02 -.846400279798616D+02 -.280288213084092D+02
 0.144358998808524D+03 -.603529415561736D+02 -.127495307256282D+03 0.306918492460604D+02
 0.159356482768312D+03 0.125683681700528D+03 0.408459183418561D+02 0.382425908500902D+02
 0.000000000000000D+00 -.000000000000000D+00 -.000000000000000D+00 0.000000000000000D+00
 0.637205830480202D+03 0.000000000000000D+00 0.000000000000000D+00 0.637205830480202D+03
 0.405031263127968D+03 0.000000000000000D+00 0.000000000000000D+00 -.405031263127968D+03
 0.286740863145806D+03 -.285656300763364D+02 0.270672942447459D+03 -.409056187877414D+02
 0.688538837083468D+02 0.342771164936592D+02 -.527287565059516D+02 -.280288213084092D+02
 0.925663474364427D+02 -.347239673905644D+02 -.801298019231318D+02 0.306918492460604D+02
 0.222615190593039D+03 0.167002782015151D+03 0.117208712016970D+03 0.382425908500902D+02
 0.371460808724536D+03 -.137990301041910D+03 -.255023096035345D+03 0.232174567352234D+03
0.347155018223D-04 0.000000000000D+00 0.000000000000D+00 0.711594547239D-06 0.000000000000D+00  7 -3 3 24 -13 13 -24 21 0 0.19342209D+00 0.11192455D-01 0.86570602D+05 0.86570602D+05 0.86570602D+05 0.11268980D+01  1  2  2  2  7  2        3 0.863635926169D-04 0.100000000000D+01
-.192686539866D-05 0.000000000000D+00 -.133316667799D-06 0.711594547239D-06 0.000000000000D+00  7 -3 3 24 -13 13 -24 21 2 0.19342209D+00 0.11192455D-01 0.86570602D+05 0.86570602D+05 0.86570602D+05 0.11268980D+01  1  2  3  2  7  2        3 -.608734449605D-05 0.100000000000D+01
0.222052400142D-05 0.000000000000D+00 0.000000000000D+00 0.711594547239D-06 0.000000000000D+00  7 -3 3 24 -13 13 -24 21 2 0.19342209D+00 0.11192455D-01 0.86570602D+05 0.86570602D+05 0.86570602D+05 0.11268980D+01  1  2 15  2  7  2        3 0.701506943235D-05 0.100000000000D+01
  </mgrwgt>
  </event>
  <event>
  8     66 0.29788925E-05 0.17781104E+03 0.75467711E-02 0.10804454E+00
       -3 -1    0    0    0  501 0.00000000E+00 0.00000000E+00 0.79909059E+02 0.79910624E+02 0.50000000E+00 0.0000E+00 0.9000E+01
        3 -1    0    0  501    0 0.00000000E+00 0.00000000E+00 -.81264574E+03 0.81264590E+03 0.50000000E+00 0.0000E+00 0.9000E+01
       25  2    1    2    0    0 -.29295032E+02 0.33960689E+02 -.23235881E+03 0.38214908E+03 0.30005962E+03 0.0000E+00 0.0000E+00
       23  2    1    2    0    0 0.29295032E+02 -.33960689E+02 -.50037788E+03 0.51040744E+03 0.90145512E+02 0.0000E+00 0.0000E+00
       24  1    3    3    0    0 0.57295282E+02 0.81632766E+02 -.21939624E+03 0.25406413E+03 0.80419002E+02 0.0000E+00 0.9000E+01
      -11  1    4    4    0    0 -.20506488E+02 -.44657556E+02 -.27375615E+03 0.27813170E+03 0.51099893E-03 0.0000E+00 0.9000E+01
       11  1    4    4    0    0 0.49801520E+02 0.10696867E+02 -.22662173E+03 0.23227574E+03 0.51099893E-03 0.0000E+00 0.9000E+01
      -24  1    3    3    0    0 -.86590314E+02 -.47672077E+02 -.12962573E+02 0.12808495E+03 0.80419002E+02 0.0000E+00 0.9000E+01
#aMCatNLO 1  0  0  2  1 0.53808084D-01 0.00000000D+00  -5  7  0 0.00000000D+00 0.00000000D+00 0.00000000D+00 0.00000000D+00 0.00000000D+00
  <mgrwgt>
 0.3668604266D-04    6    2    0
 0.254830382285592D+03 0.000000000000000D+00 0.000000000000000D+00 0.254830382285592D+03
 0.254830382285592D+03 0.000000000000000D+00 0.000000000000000D+00 -.254830382285592D+03
 0.129511490956082D+03 0.572952818227304D+02 0.816327660518114D+02 -.189565957619198D+02
 0.935074717600972D+02 -.205064880790339D+02 -.446575561887990D+02 -.795539684545911D+02
 0.809659689697953D+02 0.498015203584741D+02 0.106968669737351D+02 -.629354728126242D+02
 0.205675832885210D+03 -.865903141021706D+02 -.476720768367476D+02 0.161446037029135D+03
 0.000000000000000D+00 0.000000000000000D+00 -.000000000000000D+00 0.000000000000000D+00
 0.255735592480366D+03 0.000000000000000D+00 0.000000000000000D+00 0.255735592480366D+03
 0.254831183330693D+03 0.000000000000000D+00 0.000000000000000D+00 -.254831183330693D+03
 0.129517868879320D+03 0.572911336002461D+02 0.816457953148109D+02 -.189565957619198D+02
 0.935036365031454D+02 -.205094829661178D+02 -.446481494678198D+02 -.795539684545911D+02
 0.809654504413027D+02 0.497989271097577D+02 0.107050121780190D+02 -.629354728126242D+02
 0.205673811587845D+03 -.865969016559722D+02 -.476513858127418D+02 0.161446037029135D+03
 0.906008399446500D+00 0.163239120862495D-01 -.512722122682592D-01 0.904409149672275D+00
0.261768773931D-05 0.000000000000D+00 0.000000000000D+00 0.607758546357D-06 0.000000000000D+00  7 -3 3 24 -11 11 -24 21 0 0.12293834D-01 0.12502255D+00 0.31616767D+05 0.31616767D+05 0.31616767D+05 0.11652267D+01  1  2  2  2  7  2        3 0.291793541254D-04 0.100000000000D+01
-.122527154983D-06 0.000000000000D+00 -.100526101720D-07 0.607758546357D-06 0.000000000000D+00  7 -3 3 24 -11 11 -24 21 2 0.12293834D-01 0.12502255D+00 0.31616767D+05 0.31616767D+05 0.31616767D+05 0.11652267D+01  1  2  3  2  7  2        3 -.185443267800D-05 0.100000000000D+01
0.163880115025D-06 0.000000000000D+00 0.000000000000D+00 0.607758546357D-06 0.000000000000D+00  7 -3 3 24 -11 11 -24 21 2 0.12293834D-01 0.12502255D+00 0.31616767D+05 0.31616767D+05 0.31616767D+05 0.11652267D+01  1  2 15  2  7  2        3 0.248030439146D-05 0.100000000000D+01
-.149913103227D-05 0.000000000000D+00 0.000000000000D+00 0.607758546357D-06 0.000000000000D+00  7 -3 3 24 -11 11 -24 21 2 0.12293834D-01 0.12502255D+00 0.31616767D+05 0.31616767D+05 0.31616767D+05 0.11652267D+01  1  2  4  2  7  2        3 -.226891547040D-04 0.100000000000D+01
0.149914021302D-05 0.000000000000D+00 0.000000000000D+00 0.607758546357D-06 0.152002275972D-02  7 -3 3 24 -11 11 -24 21 2 0.12337504D-01 0.12502295D+00 0.31625457D+05 0.31625457D+05 0.31625457D+05 0.11652157D+01  1  2 11  2  7  2        3 0.225567531524D-04 0.100000000000D+01
0.335348999333D-07 0.000000000000D+00 0.000000000000D+00 0.607758546357D-06 0.897444535341D-09  7 -3 21 24 -11 11 -24 -3 2 0.12337504D-01 0.12502295D+00 0.31625457D+05 0.31625457D+05 0.31625457D+05 0.11652157D+01  1  2 11  4  7  2        3 0.701321837368D-05 0.100000000000D+01
  </mgrwgt>
  </event>
  <event>
  8     66 0.29788925E-05 0.25355340E+03 0.75467711E-02 0.96989565E-01
       -1 -1    0    0    0  501 0.00000000E+00 0.00000000E+00 0.57595746E+02 0.57596635E+02 0.32000000E+00 0.0000E+00 0.9000E+01
        1 -1    0    0  501    0 0.00000000E+00 0.00000000E+00 -.26960022E+04 0.26960022E+04 0.32000000E+00 0.0000E+00 0.9000E+01
       25  2    1    2    0    0 0.67901355E+02 -.30690732E+03 -.18452111E+04 0.18955892E+04 0.29941923E+03 0.0000E+00 0.0000E+00
       23  2    1    2    0    0 -.67901355E+02 0.30690732E+03 -.79319531E+03 0.85800957E+03 0.90658296E+02 0.0000E+00 0.0000E+00
       24  1    3    3    0    0 -.11633581E+02 -.30954435E+03 -.14163001E+04 0.14520077E+04 0.80419002E+02 0.0000E+00 0.9000E+01
      -11  1    4    4    0    0 0.73667356E+01 0.59568854E+02 -.23983879E+03 0.24723544E+03 0.51099893E-03 0.0000E+00 0.9000E+01
       11  1    4    4    0    0 -.75268091E+02 0.24733846E+03 -.55335653E+03 0.61077414E+03 0.51099893E-03 0.0000E+00 0.9000E+01
      -24  1    3    3    0    0 0.79534936E+02 0.26370384E+01 -.42891098E+03 0.44358157E+03 0.80419002E+02 0.0000E+00 0.9000E+01
#aMCatNLO 1  0  0  2  1 0.62408669D+02 0.00000000D+00  -5  7  0 0.00000000D+00 0.00000000D+00 0.00000000D+00 0.00000000D+00 0.00000000D+00
  <mgrwgt>
 0.9933071576D-03    9    2    0
 0.394055207640631D+03 0.000000000000000D+00 0.000000000000000D+00 0.394055207640631D+03
 0.394055207640631D+03 0.000000000000000D+00 0.000000000000000D+00 -.394055207640631D+03
 0.331769878424004D+03 -.116335806819912D+02 -.309544354360447D+03 -.874699306001662D+02
 0.608988398507252D+02 0.736673564244377D+01 0.595688537973613D+02 -.102932773404404D+02
 0.281492954694679D+03 -.752680905839107D+02 0.247338462207093D+03 0.111340393369266D+03
 0.113948742311854D+03 0.795349356234581D+02 0.263703835599195D+01 -.135771854286591D+02
 0.000000000000000D+00 0.000000000000000D+00 0.000000000000000D+00 -.000000000000000D+00
 0.415440725795461D+03 0.000000000000000D+00 0.000000000000000D+00 0.415440725795461D+03
 0.443607204533261D+03 0.000000000000000D+00 0.000000000000000D+00 -.443607204533261D+03
 0.354627372640111D+03 -.249301022579339D+02 -.333197927234653D+03 -.874699306001662D+02
 0.566916571497613D+02 0.508883523117485D+01 0.555166298325900D+02 -.102932773404404D+02
 0.268221342613462D+03 -.859168628559885D+02 0.228395048358607D+03 0.111340393369266D+03
 0.111037181419895D+03 0.751766282663921D+02 -.511608264559903D+01 -.135771854286591D+02
 0.684703765054935D+02 0.305815016163554D+02 0.544023316890550D+02 -.281664787377999D+02
0.497095823238D-04 0.000000000000D+00 0.000000000000D+00 0.139385566295D-05 0.000000000000D+00  7 -1 1 24 -11 11 -24 21 0 0.88609539D-02 0.41476963D+00 0.14127401D+06 0.14127401D+06 0.14127401D+06 0.11096118D+01  1  2  2  2  7  2        1 0.446034180395D-03 0.100000000000D+01
-.275414302922D-05 0.000000000000D+00 -.190897884957D-06 0.139385566295D-05 0.000000000000D+00  7 -1 1 24 -11 11 -24 21 2 0.88609539D-02 0.41476963D+00 0.14127401D+06 0.14127401D+06 0.14127401D+06 0.11096118D+01  1  2  3  2  7  2        1 -.304268274929D-04 0.100000000000D+01
0.315651764030D-05 0.000000000000D+00 0.000000000000D+00 0.139385566295D-05 0.000000000000D+00  7 -1 1 24 -11 11 -24 21 2 0.88609539D-02 0.41476963D+00 0.14127401D+06 0.14127401D+06 0.14127401D+06 0.11096118D+01  1  2 15  2  7  2        1 0.348721241783D-04 0.100000000000D+01
0.593324319727D-04 0.000000000000D+00 0.000000000000D+00 0.139385566295D-05 0.000000000000D+00  7 -1 1 24 -11 11 -24 21 2 0.88609539D-02 0.47711713D+00 0.16648573D+06 0.16648573D+06 0.16648573D+06 0.11039958D+01  1  2 12  2  7  2        1 0.326742919435D-03 0.100000000000D+01
-.574177564623D-04 0.000000000000D+00 0.000000000000D+00 0.139385566295D-05 0.000000000000D+00  7 -1 1 24 -11 11 -24 21 2 0.88609539D-02 0.41476963D+00 0.14127401D+06 0.14127401D+06 0.14127401D+06 0.11096118D+01  1  2  4  2  7  2        1 -.634331678629D-03 0.100000000000D+01
-.154848736671D-03 0.000000000000D+00 -.320456364954D-04 0.139385566295D-05 0.000000000000D+00  7 -1 1 24 -11 11 -24 21 2 0.88609539D-02 0.47463439D+00 0.14127401D+06 0.14127401D+06 0.14127401D+06 0.11096118D+01  1  2  5  2  7  2        1 -.893054374381D-03 0.100000000000D+01
0.158019904861D-03 0.000000000000D+00 0.317565817801D-04 0.139385566295D-05 0.000000000000D+00  7 -1 1 24 -11 11 -24 21 2 0.88609539D-02 0.41476963D+00 0.14127401D+06 0.14127401D+06 0.14127401D+06 0.11096118D+01  1  2  6  2  7  2        1 0.174574970676D-02 0.100000000000D+01
0.127976058401D-05 0.000000000000D+00 0.000000000000D+00 0.139385566295D-05 0.000000000000D+00  7 -1 21 24 -11 11 -24 -1 2 0.88609539D-02 0.47711713D+00 0.16648573D+06 0.16648573D+06 0.16648573D+06 0.11039958D+01  1  2 12  4  7  2        1 0.145921986079D-05 0.100000000000D+01
-.305393161120D-05 0.000000000000D+00 -.669960231987D-06 0.139385566295D-05 0.000000000000D+00  7 -1 21 24 -11 11 -24 -1 2 0.88609539D-02 0.47463439D+00 0.14127401D+06 0.14127401D+06 0.14127401D+06 0.11096118D+01  1  2  5  4  7  2        1 -.373811251086D-05 0.100000000000D+01
  </mgrwgt>
  </event>
  <event>
  8     66 0.29788925E-05 0.50369568E+03 0.75467711E-02 0.87451573E-01
       -1 -1    0    0    0  501 0.00000000E+00 0.00000000E+00 0.75276413E+03 0.75276419E+03 0.32000000E+00 0.0000E+00 0.9000E+01
        1 -1    0    0  501    0 0.00000000E+00 0.00000000E+00 -.12998771E+04 0.12998772E+04 0.32000000E+00 0.0000E+00 0.9000E+01
       25  2    1    2    0    0 -.41622936E+03 0.70018131E+03 -.81459981E+03 0.11902195E+04 0.29924732E+03 0.0000E+00 0.0000E+00
       23  2    1    2    0    0 0.41622936E+03 -.70018131E+03 0.26748682E+03 0.86242180E+03 0.93388528E+02 0.0000E+00 0.0000E+00
       24  1    3    3    0    0 -.27796621E+03 0.54550735E+03 -.71975431E+03 0.94834433E+03 0.80419002E+02 0.0000E+00 0.9000E+01
      -11  1    4    4    0    0 0.23100048E+03 -.37990254E+03 0.97150669E+02 0.45511033E+03 0.51099893E-03 0.0000E+00 0.9000E+01
       11  1    4    4    0    0 0.18522889E+03 -.32027877E+03 0.17033616E+03 0.40731148E+03 0.51099893E-03 0.0000E+00 0.9000E+01
      -24  1    3    3    0    0 -.13826315E+03 0.15467396E+03 -.94845498E+02 0.24187521E+03 0.80419002E+02 0.0000E+00 0.9000E+01
#aMCatNLO 1  0  0  1  2 0.30195725D+03 0.00000000D+00  -5  7  0 0.00000000D+00 0.00000000D+00 0.00000000D+00 0.00000000D+00 0.00000000D+00
  <mgrwgt>
 0.1000731545D-02    9    2    0
 0.989192078887468D+03 0.000000000000000D+00 0.000000000000000D+00 0.989192078887468D+03
 0.989192078887468D+03 0.000000000000000D+00 0.000000000000000D+00 -.989192078887468D+03
 0.784895007078745D+03 -.277966210868659D+03 0.545507346348643D+03 -.484509521968097D+03
 0.499059127110219D+03 0.231000477521455D+03 -.379902538285020D+03 0.226655803238020D+03
 0.469705286284938D+03 0.185228886466552D+03 -.320278771329464D+03 0.289369701624177D+03
 0.224724737301034D+03 -.138263153119348D+03 0.154673963265841D+03 -.315159828940994D+02
 0.000000000000000D+00 -.000000000000000D+00 -.000000000000000D+00 0.000000000000000D+00
 0.125345358425986D+04 0.000000000000000D+00 0.000000000000000D+00 0.125345358425986D+04
 0.109081368689643D+04 0.000000000000000D+00 0.000000000000000D+00 -.109081368689643D+04
 0.836464946000875D+03 -.205727039180504D+03 0.645083946789986D+03 -.484509521968097D+03
 0.478608048387086D+03 0.274560124354027D+03 -.319858639017496D+03 0.226655803238020D+03
 0.452178028478020D+03 0.226303101310155D+03 -.263660864668251D+03 0.289369701624177D+03
 0.234044071252460D+03 -.117822856278836D+03 0.182849470041812D+03 -.315159828940994D+02
 0.342972177037853D+03 -.177313330204842D+03 -.244413913146052D+03 0.162639897363431D+03
0.962947684005D-03 0.000000000000D+00 0.000000000000D+00 0.282441874503D-05 0.000000000000D+00  7 -1 1 24 -11 11 -24 21 0 0.11580987D+00 0.19998110D+00 0.68443502D+06 0.68443502D+06 0.68443502D+06 0.10590045D+01  1  2  2  1  7  1       -1 0.725405883205D-03 0.100000000000D+01
-.514196510635D-04 0.000000000000D+00 -.369797265653D-05 0.282441874503D-05 0.000000000000D+00  7 -1 1 24 -11 11 -24 21 2 0.11580987D+00 0.19998110D+00 0.68443502D+06 0.68443502D+06 0.68443502D+06 0.10590045D+01  1  2  3  1  7  1       -1 -.434413263935D-04 0.100000000000D+01
0.605405519369D-04 0.000000000000D+00 0.000000000000D+00 0.282441874503D-05 0.000000000000D+00  7 -1 1 24 -11 11 -24 21 2 0.11580987D+00 0.19998110D+00 0.68443502D+06 0.68443502D+06 0.68443502D+06 0.10590045D+01  1  2 15  1  7  1       -1 0.511470191325D-04 0.100000000000D+01
0.733145250167D-03 0.000000000000D+00 0.000000000000D+00 0.282441874503D-05 0.000000000000D+00  7 -1 1 24 -11 11 -24 21 2 0.15147369D+00 0.19998110D+00 0.98478016D+06 0.98478016D+06 0.98478016D+06 0.10483076D+01  1  2 12  1  7  1       -1 0.289471129480D-03 0.100000000000D+01
-.836023119692D-03 0.000000000000D+00 0.000000000000D+00 0.282441874503D-05 0.000000000000D+00  7 -1 1 24 -11 11 -24 21 2 0.11580987D+00 0.19998110D+00 0.68443502D+06 0.68443502D+06 0.68443502D+06 0.10590045D+01  1  2  4  1  7  1       -1 -.706304933306D-03 0.100000000000D+01
-.137605156296D-02 0.000000000000D+00 -.454995408566D-03 0.282441874503D-05 0.000000000000D+00  7 -1 1 24 -11 11 -24 21 2 0.15637560D+00 0.19998110D+00 0.68443502D+06 0.68443502D+06 0.68443502D+06 0.10590045D+01  1  2  5  1  7  1       -1 -.517756316406D-03 0.100000000000D+01
0.146586614398D-02 0.000000000000D+00 0.435221860397D-03 0.282441874503D-05 0.000000000000D+00  7 -1 1 24 -11 11 -24 21 2 0.11580987D+00 0.19998110D+00 0.68443502D+06 0.68443502D+06 0.68443502D+06 0.10590045D+01  1  2  6  1  7  1       -1 0.123842088176D-02 0.100000000000D+01
0.261440498513D-04 0.000000000000D+00 0.000000000000D+00 0.282441874503D-05 0.000000000000D+00  7 21 1 24 -11 11 -24 1 2 0.15147369D+00 0.19998110D+00 0.98478016D+06 0.98478016D+06 0.98478016D+06 0.10483076D+01  1  2 12  3  7  1       -1 0.625740409383D-04 0.100000000000D+01
-.430133439584D-04 0.000000000000D+00 -.176011346476D-04 0.282441874503D-05 0.000000000000D+00  7 21 1 24 -11 11 -24 1 2 0.15637560D+00 0.19998110D+00 0.68443502D+06 0.68443502D+06 0.68443502D+06 0.10590045D+01  1  2  5  3  7  1       -1 -.987848334118D-04 0.100000000000D+01
  </mgrwgt>
  </event>
  <event>
  8     66 0.29788925E-05 0.16160017E+03 0.75467711E-02 0.10394047E+00
       -1 -1    0    0    0  501 0.00000000E+00 0.00000000E+00 0.78187734E+03 0.78187740E+03 0.32000000E+00 0.0000E+00 0.9000E+01
        1 -1    0    0  501    0 0.00000000E+00 0.00000000E+00 -.12921160E+03 0.12921199E+03 0.32000000E+00 0.0000E+00 0.9000E+01
       25  2    1    2    0    0 -.21826301E+02 -.54616261E+02 0.72023061E+03 0.78232068E+03 0.29972353E+03 0.0000E+00 0.0000E+00
       23  2    1    2    0    0 0.21826301E+02 0.54616261E+02 -.67564870E+02 0.12876871E+03 0.92504306E+02 0.0000E+00 0.0000E+00
       24  1    3    3    0    0 0.92293852E+01 -.90948730E+02 0.65982179E+03 0.67096115E+03 0.80419002E+02 0.0000E+00 0.9000E+01
      -13  1    4    4    0    0 0.55613630E+02 0.18918396E+02 -.25362839E+02 0.63984891E+02 0.10565837E+00 0.0000E+00 0.9000E+01
       13  1    4    4    0    0 -.33787328E+02 0.35697866E+02 -.42202031E+02 0.64783823E+02 0.10565837E+00 0.0000E+00 0.9000E+01
      -24  1    3    3    0    0 -.31055686E+02 0.36332468E+02 0.60408815E+02 0.11135953E+03 0.80419002E+02 0.0000E+00 0.9000E+01
#aMCatNLO 1  0  0  2  2 0.12944248D+03 0.00000000D+00  -5  7  0 0.00000000D+00 0.00000000D+00 0.00000000D+00 0.00000000D+00 0.00000000D+00
  <mgrwgt>
 0.3140580830D-03    4    2    0
 0.317848754214253D+03 0.000000000000000D+00 0.000000000000000D+00 0.317848754214253D+03
 0.317848754214253D+03 0.000000000000000D+00 0.000000000000000D+00 -.317848754214253D+03
 0.284195723993506D+03 0.922938511149530D+01 -.909487299186907D+02 0.256793965190896D+03
 0.117743731579989D+03 0.556137453037451D+02 0.189183742086130D+02 -.102043092745044D+03
 0.136177486969738D+03 -.337874439748504D+02 0.356978873731437D+02 -.126997548890259D+03
 0.975805658852730D+02 -.310556864403900D+02 0.363324683369340D+02 -.277533235555931D+02
 0.000000000000000D+00 -.000000000000000D+00 0.000000000000000D+00 0.000000000000000D+00
 0.395899529484261D+03 0.000000000000000D+00 0.000000000000000D+00 0.395899529484261D+03
 0.382933144747276D+03 0.000000000000000D+00 0.000000000000000D+00 -.382933144747276D+03
 0.305266497288076D+03 0.480792825846548D+02 -.135888411720213D+03 0.256793965190896D+03
 0.124651613315323D+03 0.715893820064331D+02 0.438530587622139D+00 -.102043092745044D+03
 0.128973597586833D+03 -.163120365984054D+02 0.154831815970994D+02 -.126997548890259D+03
 0.898506744638980D+02 -.187025886371061D+02 0.220430024528554D+02 -.277533235555931D+02
 0.130090291577407D+03 -.846540393555764D+02 0.979236970826357D+02 0.129663847369847D+02
0.252760692607D-04 0.000000000000D+00 0.000000000000D+00 0.936255827448D-06 0.000000000000D+00  7 -1 1 24 -13 13 -24 21 0 0.12028886D+00 0.19878743D-01 0.26114614D+05 0.26114614D+05 0.26114614D+05 0.11729665D+01  1  2  2  2  7  2        1 0.563701575578D-03 0.100000000000D+01
-.622975134050D-06 0.000000000000D+00 -.970667613031D-07 0.936255827448D-06 0.000000000000D+00  7 -1 1 24 -13 13 -24 21 2 0.12028886D+00 0.19878743D-01 0.26114614D+05 0.26114614D+05 0.26114614D+05 0.11729665D+01  1  2  3  2  7  2        1 -.191153216787D-04 0.100000000000D+01
0.152849965804D-05 0.000000000000D+00 0.000000000000D+00 0.936255827448D-06 0.000000000000D+00  7 -1 1 24 -13 13 -24 21 2 0.12028886D+00 0.19878743D-01 0.26114614D+05 0.26114614D+05 0.26114614D+05 0.11729665D+01  1  2 15  2  7  2        1 0.469003673699D-04 0.100000000000D+01
-.904149475972D-05 0.000000000000D+00 0.000000000000D+00 0.936255827448D-06 0.000000000000D+00  7 -1 1 24 -13 13 -24 21 2 0.12028886D+00 0.19878743D-01 0.26114614D+05 0.26114614D+05 0.26114614D+05 0.11729665D+01  1  2  4  2  7  2        1 -.277428538222D-03 0.100000000000D+01
  </mgrwgt>
  </event>
  <event>
  8     66 0.29788925E-05 0.34675355E+03 0.75467711E-02 0.93805155E-01
       -1 -1    0    0    0  501 0.00000000E+00 0.00000000E+00 0.16885509E+03 0.16885539E+03 0.32000000E+00 0.0000E+00 0.9000E+01
        1 -1    0    0  501    0 0.00000000E+00 0.00000000E+00 -.13219251E+04 0.13219251E+04 0.32000000E+00 0.0000E+00 0.9000E+01
       25  2    1    2    0    0 -.27827882E+03 0.90607204E+01 -.11240511E+04 0.11963101E+04 0.30024260E+03 0.0000E+00 0.0000E+00
       23  2    1    2    0    0 0.27827882E+03 -.90607204E+01 -.29018873E+02 0.29447046E+03 0.91375899E+02 0.0000E+00 0.0000E+00
       24  1    3    3    0    0 -.30587943E+03 0.21448407E+02 -.78615790E+03 0.84766368E+03 0.80419002E+02 0.0000E+00 0.9000E+01
      -11  1    4    4    0    0 0.28235560E+03 -.15702544E+02 -.21446045E+02 0.28360392E+03 0.51099893E-03 0.0000E+00 0.9000E+01
       11  1    4    4    0    0 -.40767706E+01 0.66418236E+01 -.75728275E+01 0.10866536E+02 0.51099893E-03 0.0000E+00 0.9000E+01
      -24  1    3    3    0    0 0.27600600E+02 -.12387686E+02 -.33789322E+03 0.34864637E+03 0.80419002E+02 0.0000E+00 0.9000E+01
#aMCatNLO 1  0  0  2  2 0.30829367D+03 0.00000000D+00  -5  7  0 0.00000000D+00 0.00000000D+00 0.00000000D+00 0.00000000D+00 0.00000000D+00
  <mgrwgt>
 0.1255062316D-02    3    2    0
 0.472455321592654D+03 0.000000000000000D+00 0.000000000000000D+00 0.472455321592654D+03
 0.472455321592654D+03 0.000000000000000D+00 0.000000000000000D+00 -.472455321592654D+03
 0.378009724462023D+03 -.305879425298050D+03 0.214484068206682D+02 -.205917165038938D+03
 0.421269897711438D+03 0.282355595555313D+03 -.157025439424520D+02 0.312245215319859D+03
 0.790298994652601D+01 -.407677060359700D+01 0.664182359053038D+01 0.131277223188660D+01
 0.137728031065322D+03 0.276006003463342D+02 -.123876864687466D+02 -.107640822512808D+03
 0.000000000000000D+00 -.000000000000000D+00 -.000000000000000D+00 0.000000000000000D+00
 0.897696709077958D+03 0.000000000000000D+00 0.000000000000000D+00 0.897696709077958D+03
 0.556260883155798D+03 0.000000000000000D+00 0.000000000000000D+00 -.556260883155798D+03
 0.308043031967291D+03 -.205044360417572D+03 0.630731717333627D+02 -.205917165038938D+03
 0.526323776754185D+03 0.421631575062169D+03 0.417906496388668D+02 0.312245215319859D+03
 0.791037397607114D+01 -.175254471547030D+01 0.760126519263524D+01 0.131277223188660D+01
 0.151654963547345D+03 0.701337040524509D+02 0.516999988642064D+01 -.107640822512808D+03
 0.460025445988863D+03 -.284968373981577D+03 -.117635086451285D+03 0.341435825922159D+03
0.898058719330D-04 0.000000000000D+00 0.000000000000D+00 0.106459721537D-04 0.000000000000D+00  7 -1 1 24 -11 11 -24 21 0 0.25977732D-01 0.20337312D+00 0.12023802D+06 0.12023802D+06 0.12023802D+06 0.11152123D+01  1  2  2  2  7  2        1 0.123160984537D-02 0.100000000000D+01
-.440877861044D-05 0.000000000000D+00 -.344878194652D-06 0.106459721537D-04 0.000000000000D+00  7 -1 1 24 -11 11 -24 21 2 0.25977732D-01 0.20337312D+00 0.12023802D+06 0.12023802D+06 0.12023802D+06 0.11152123D+01  1  2  3  2  7  2        1 -.751972209026D-04 0.100000000000D+01
0.578378622430D-05 0.000000000000D+00 0.000000000000D+00 0.106459721537D-04 0.000000000000D+00  7 -1 1 24 -11 11 -24 21 2 0.25977732D-01 0.20337312D+00 0.12023802D+06 0.12023802D+06 0.12023802D+06 0.11152123D+01  1  2 15  2  7  2        1 0.986496916248D-04 0.100000000000D+01
  </mgrwgt>
  </event>
  <event>
  8     66 0.29788925E-05 0.36620631E+03 0.75467711E-02 0.80241430E-01
       -1 -1    0    0    0  501 0.00000000E+00 0.00000000E+00 0.18461528E+03 0.18461555E+03 0.32000000E+00 0.0000E+00 0.9000E+01
        1 -1    0    0  501    0 0.00000000E+00 0.00000000E+00 -.92277847E+03 0.92277853E+03 0.32000000E+00 0.0000E+00 0.9000E+01
       25  2    1    2    0    0 -.30949243E+03 -.30495927E+02 -.19423135E+03 0.47424780E+03 0.30078165E+03 0.0000E+00 0.0000E+00
       23  2    1    2    0    0 0.30949243E+03 0.30495927E+02 -.54393184E+03 0.63314628E+03 0.91086721E+02 0.0000E+00 0.0000E+00
       24  1    3    3    0    0 -.19562415E+03 -.12078291E+03 -.18862717E+03 0.30806613E+03 0.80419002E+02 0.0000E+00 0.9000E+01
      -11  1    4    4    0    0 -.18801329E+00 0.12558270E+02 -.34359043E+02 0.36582637E+02 0.51099893E-03 0.0000E+00 0.9000E+01
       11  1    4    4    0    0 0.30968044E+03 0.17937657E+02 -.50957280E+03 0.59656364E+03 0.51099893E-03 0.0000E+00 0.9000E+01
      -24  1    3    3    0    0 -.11386828E+03 0.90286984E+02 -.56041825E+01 0.16618167E+03 0.80419002E+02 0.0000E+00 0.9000E+01
#aMCatNLO 1  0  0  2  2 0.21884320D+04 0.00000000D+00  -5  7  0 0.00000000D+00 0.00000000D+00 0.00000000D+00 0.00000000D+00 0.00000000D+00
  <mgrwgt>
 0.1458185284D-02    3    2    0
 0.412745911242972D+03 0.000000000000000D+00 0.000000000000000D+00 0.412745911242972D+03
 0.412745911242972D+03 0.000000000000000D+00 0.000000000000000D+00 -.412745911242972D+03
 0.244597192258260D+03 -.195624148915022D+03 -.120782911245555D+03 0.224332614342062D+02
 0.183512598228425D+02 -.188013302330127D+00 0.125582701236668D+02 -.133799566361270D+02
 0.344622621523091D+03 0.309680441677273D+03 0.179376569686726D+02 -.150136656984531D+03
 0.217920748881750D+03 -.113868279459921D+03 0.902869841532160D+02 0.141083352186452D+03
 0.000000000000000D+00 0.000000000000000D+00 0.000000000000000D+00 0.000000000000000D+00
 0.397998439494548D+04 0.000000000000000D+00 0.000000000000000D+00 0.397998439494548D+04
 0.159548435571009D+04 0.000000000000000D+00 0.000000000000000D+00 -.159548435571009D+04
 0.123984685487782D+04 -.741042607812116D+03 -.990507753520632D+03 0.224332614342062D+02
 0.240558642474966D+02 -.157693538731155D+02 -.122877517688877D+02 -.133799566361270D+02
 0.499987803756491D+03 -.648612094181885D+00 -.476913375192078D+03 -.150136656984531D+03
 0.575056144010342D+03 -.405226000686691D+03 -.374312341384808D+03 0.141083352186452D+03
 0.323652208376342D+04 0.116268657446610D+04 0.185402122186641D+04 0.238450003923539D+04
0.627869783481D-04 0.000000000000D+00 0.000000000000D+00 0.203015660845D-05 0.000000000000D+00  7 -1 1 24 -11 11 -24 21 0 0.28402376D-01 0.14196594D+00 0.13410706D+06 0.13410706D+06 0.13410706D+06 0.11114108D+01  1  2  2  2  7  2        1 0.144156980108D-02 0.100000000000D+01
-.342746425059D-05 0.000000000000D+00 -.241118529048D-06 0.203015660845D-05 0.000000000000D+00  7 -1 1 24 -11 11 -24 21 2 0.28402376D-01 0.14196594D+00 0.13410706D+06 0.13410706D+06 0.13410706D+06 0.11114108D+01  1  2  3  2  7  2        1 -.972049258712D-04 0.100000000000D+01
0.401332935206D-05 0.000000000000D+00 0.000000000000D+00 0.203015660845D-05 0.000000000000D+00  7 -1 1 24 -11 11 -24 21 2 0.28402376D-01 0.14196594D+00 0.13410706D+06 0.13410706D+06 0.13410706D+06 0.11114108D+01  1  2 15  2  7  2        1 0.113820408804D-03 0.100000000000D+01
  </mgrwgt>
  </event>
  <event>
  8     66 0.29788925E-05 0.16074684E+03 0.75467711E-02 0.10246398E+00
       -1 -1    0    0    0  501 0.00000000E+00 0.00000000E+00 0.18100860E+03 0.18100888E+03 0.32000000E+00 0.0000E+00 0.9000E+01
        1 -1    0    0  501    0 0.00000000E+00 0.00000000E+00 -.24721417E+03 0.24721438E+03 0.32000000E+00 0.0000E+00 0.9000E+01
       25  2    1    2    0    0 -.43610631E+02 0.35028732E+02 -.83891319E+01 0.30493719E+03 0.29964548E+03 0.0000E+00 0.0000E+00
       23  2    1    2    0    0 0.43610631E+02 -.35028732E+02 -.57816436E+02 0.12328607E+03 0.93422773E+02 0.0000E+00 0.0000E+00
       24  1    3    3    0    0 -.65701254E+02 -.37472593E+02 0.10086636E+03 0.14953959E+03 0.80419002E+02 0.0000E+00 0.9000E+01
      -11  1    4    4    0    0 0.38893751E+02 -.62009544E+02 -.61558232E+02 0.95641640E+02 0.51099893E-03 0.0000E+00 0.9000E+01
       11  1    4    4    0    0 0.47168805E+01 0.26980813E+02 0.37417962E+01 0.27644425E+02 0.51099893E-03 0.0000E+00 0.9000E+01
      -24  1    3    3    0    0 0.22090622E+02 0.72501324E+02 -.10925549E+03 0.15539761E+03 0.80419002E+02 0.0000E+00 0.9000E+01
#aMCatNLO 1  0  0  2  2 0.16820272D+03 0.00000000D+00  -5  7  0 0.00000000D+00 0.00000000D+00 0.00000000D+00 0.00000000D+00 0.00000000D+00
  <mgrwgt>
 0.5678837277D-03    3    2    0
 0.211537219994790D+03 0.000000000000000D+00 0.000000000000000D+00 0.211537219994790D+03
 0.211537219994790D+03 0.000000000000000D+00 0.000000000000000D+00 -.211537219994790D+03
 0.167143740738302D+03 -.657012554044692D+02 -.374725910841885D+02 0.125494876665688D+03
 0.871725502343749D+02 0.388937528293560D+02 -.620095444254146D+02 -.473407425519087D+02
 0.285663970099279D+02 0.471688164718978D+01 0.269808099355987D+02 0.811331996622347D+01
 0.140191752006974D+03 0.220906209279234D+02 0.725013255740043D+02 -.862674540800027D+02
 0.000000000000000D+00 -.000000000000000D+00 0.000000000000000D+00 0.000000000000000D+00
 0.678177399478032D+03 0.000000000000000D+00 0.000000000000000D+00 0.678177399478032D+03
 0.243341536431667D+03 0.000000000000000D+00 0.000000000000000D+00 -.243341536431667D+03
 0.179170079635606D+03 -.315152140067246D+02 -.943002051908314D+02 0.125494876665688D+03
 0.122905675273568D+03 0.596314262673530D+02 -.964818745174802D+02 -.473407425519087D+02
 0.225161720780034D+02 0.975944916487566D+01 0.185985267204192D+02 0.811331996622347D+01
 0.130692750583241D+03 0.488307285261653D+02 0.280511215248377D+02 -.862674540800027D+02
 0.466234258339282D+03 -.867063899516695D+02 0.144132431463055D+03 0.434835863046365D+03
0.369192564862D-05 0.000000000000D+00 0.000000000000D+00 0.822248718039D-07 0.000000000000D+00  7 -1 1 24 -11 11 -24 21 0 0.27847515D-01 0.38032987D-01 0.25839545D+05 0.25839545D+05 0.25839545D+05 0.11733998D+01  1  2  2  2  7  2        1 0.557767985345D-03 0.100000000000D+01
-.186306497898D-06 0.000000000000D+00 -.141779665970D-07 0.822248718039D-07 0.000000000000D+00  7 -1 1 24 -11 11 -24 21 2 0.27847515D-01 0.38032987D-01 0.25839545D+05 0.25839545D+05 0.25839545D+05 0.11733998D+01  1  2  3  2  7  2        1 -.387543654296D-04 0.100000000000D+01
0.234936594566D-06 0.000000000000D+00 0.000000000000D+00 0.822248718039D-07 0.000000000000D+00  7 -1 1 24 -11 11 -24 21 2 0.27847515D-01 0.38032987D-01 0.25839545D+05 0.25839545D+05 0.25839545D+05 0.11733998D+01  1  2 15  2  7  2        1 0.488701078133D-04 0.100000000000D+01
  </mgrwgt>
  </event>
  <event>
  9     66 0.29788925E-05 0.21439570E+03 0.75467711E-02 0.10079984E+00
       21 -1    0    0  502  501 0.00000000E+00 0.00000000E+00 0.38490531E+03 0.38490604E+03 0.75000000E+00 0.0000E+00 0.9000E+01
        1 -1    0    0  501    0 0.00000000E+00 0.00000000E+00 -.39715369E+03 0.39715382E+03 0.32000000E+00 0.0000E+00 0.9000E+01
       25  2    1    2    0    0 -.77397568E+02 -.11662644E+03 -.24317534E+03 0.41329141E+03 0.30345252E+03 0.0000E+00 0.0000E+00
       23  2    1    2    0    0 -.61166649E+02 0.69066693E+02 0.15847250E+03 0.20533124E+03 0.92389486E+02 0.0000E+00 0.0000E+00
       24  1    3    3    0    0 -.11282762E+03 0.47052720E+02 -.13015616E+03 0.19583634E+03 0.80419002E+02 0.0000E+00 0.9000E+01
      -11  1    4    4    0    0 -.55127149E+02 0.86821150E+02 0.98158445E+02 0.14216890E+03 0.51099893E-03 0.0000E+00 0.9000E+01
       11  1    4    4    0    0 -.60395003E+01 -.17754457E+02 0.60314052E+02 0.63162340E+02 0.51099893E-03 0.0000E+00 0.9000E+01
      -24  1    3    3    0    0 0.35430051E+02 -.16367916E+03 -.11301918E+03 0.21745507E+03 0.80419002E+02 0.0000E+00 0.9000E+01
        1  1    1    2  502    0 0.13856422E+03 0.47559750E+02 0.72454463E+02 0.16343722E+03 0.32000000E+00 0.0000E+00 0.9000E+01
#aMCatNLO 2  0  0  1  2 0.14649905D+03 0.00000000D+00  -5  7  0 0.00000000D+00 0.00000000D+00 0.00000000D+00 0.00000000D+00 0.00000000D+00
  <mgrwgt>
 0.8167109744D-04    2    2    0
 0.297513626857674D+03 0.000000000000000D+00 0.000000000000000D+00 0.297513626857674D+03
 0.297513626857674D+03 0.000000000000000D+00 0.000000000000000D+00 -.297513626857674D+03
 0.162560860084941D+03 -.735618131927323D+02 0.605300228744343D+02 -.104324461406724D+03
 0.155881496939512D+03 -.192225464786026D+02 0.991447782372583D+02 0.118742779752142D+03
 0.714272646270653D+02 0.104262308547185D+02 -.121028822094307D+02 0.696180155167725D+02
 0.205157632063831D+03 0.823581288166164D+02 -.147571918902262D+03 -.840363338621905D+02
 0.000000000000000D+00 0.000000000000000D+00 0.000000000000000D+00 0.000000000000000D+00
 0.441768127125212D+03 0.000000000000000D+00 0.000000000000000D+00 0.441768127125212D+03
 0.346033970537323D+03 0.000000000000000D+00 0.000000000000000D+00 -.346033970537323D+03
 0.179707649415646D+03 -.112827618833669D+03 0.470527202683033D+02 -.104324461406724D+03
 0.157088390325632D+03 -.551271489287383D+02 0.868211499740751D+02 0.118742779752142D+03
 0.720996837396251D+02 -.603950029602762D+01 -.177544571033492D+02 0.696180155167725D+02
 0.203900657661460D+03 0.354300508476445D+02 -.163679162779936D+03 -.840363338621905D+02
 0.175005716520174D+03 0.138564217210791D+03 0.475597496409072D+02 0.957341565878889D+02
-.777419286331D-07 0.000000000000D+00 0.000000000000D+00 0.288071629324D-07 0.000000000000D+00  7 21 1 24 -11 11 -24 1 2 0.61204837D-01 0.52533177D-01 0.90060106D+05 0.90060106D+05 0.90060106D+05 0.11254724D+01  1  2 13  3  7  1       -1 -.215768515839D-04 0.100000000000D+01
0.422353654613D-06 0.000000000000D+00 0.000000000000D+00 0.288071629324D-07 0.478254127388D-12  7 21 1 24 -11 11 -24 1 2 0.59216244D-01 0.61100609D-01 0.90060106D+05 0.90060106D+05 0.90060106D+05 0.11254724D+01  1  2  1  3  7  1       -1 0.103247949025D-03 0.100000000000D+01
  </mgrwgt>
  </event>
  <event>
  8     66 0.29788925E-05 0.58685261E+03 0.75467711E-02 0.82651672E-01
       -1 -1    0    0    0  501 0.00000000E+00 0.00000000E+00 0.29315810E+03 0.29315828E+03 0.32000000E+00 0.0000E+00 0.9000E+01
        1 -1    0    0  501    0 0.00000000E+00 0.00000000E+00 -.13828931E+04 0.13828931E+04 0.32000000E+00 0.0000E+00 0.9000E+01
       25  2    1    2    0    0 -.39092544E+03 -.38401681E+03 -.88613158E+03 0.10847277E+04 0.30184986E+03 0.0000E+00 0.0000E+00
       23  2    1    2    0    0 0.39092544E+03 0.38401681E+03 -.20360343E+03 0.59132375E+03 0.88982052E+02 0.0000E+00 0.0000E+00
       24  1    3    3    0    0 -.37573292E+03 -.22173133E+03 -.64209103E+03 0.78044097E+03 0.80419002E+02 0.0000E+00 0.9000E+01
      -11  1    4    4    0    0 0.23765160E+03 0.24641592E+03 -.17136541E+03 0.38283834E+03 0.51099893E-03 0.0000E+00 0.9000E+01
       11  1    4    4    0    0 0.15327384E+03 0.13760089E+03 -.32238012E+02 0.20848541E+03 0.51099893E-03 0.0000E+00 0.9000E+01
      -24  1    3    3    0    0 -.15192528E+02 -.16228548E+03 -.24404055E+03 0.30428670E+03 0.80419002E+02 0.0000E+00 0.9000E+01
#aMCatNLO 1  0  0  1  2 0.14803188D+04 0.00000000D+00  -5  7  0 0.00000000D+00 0.00000000D+00 0.00000000D+00 0.00000000D+00 0.00000000D+00
  <mgrwgt>
 0.8562244581D-03    5    2    0
 0.636715397691292D+03 0.000000000000000D+00 0.000000000000000D+00 0.636715397691292D+03
 0.636715397691292D+03 0.000000000000000D+00 0.000000000000000D+00 -.636715397691292D+03
 0.477725320217964D+03 -.375732917023574D+03 -.221731333061066D+03 -.177240674301652D+03
 0.357234848798724D+03 0.237651604717442D+03 0.246415920333719D+03 0.102066871106929D+03
 0.246814647148872D+03 0.153273839895643D+03 0.137600891441567D+03 0.135980126214653D+03
 0.191655979217024D+03 -.151925275895109D+02 -.162285478714220D+03 -.608063230199300D+02
 0.000000000000000D+00 -.000000000000000D+00 0.000000000000000D+00 0.000000000000000D+00
 0.465149955479129D+04 0.000000000000000D+00 0.000000000000000D+00 0.465149955479129D+04
 0.112540594121872D+04 0.000000000000000D+00 0.000000000000000D+00 -.112540594121872D+04
 0.856930649351410D+03 -.203345718885571D+03 -.809381976465664D+03 -.177240674301652D+03
 0.350682186214782D+03 0.329087777755738D+03 -.652808094512511D+02 0.102066871106929D+03
 0.275132269352141D+03 0.220689689795456D+03 -.922129694321305D+02 0.135980126214653D+03
 0.469937602490027D+03 0.702604029461102D+02 -.453585935781027D+03 -.608063230199300D+02
 0.382422278860165D+04 -.416692151611733D+03 0.142046169113007D+04 0.352609361357257D+04
0.181908488238D-03 0.000000000000D+00 0.000000000000D+00 0.237810548386D-06 0.000000000000D+00  7 -1 1 24 -11 11 -24 21 0 0.45101263D-01 0.21275280D+00 0.34439599D+06 0.34439599D+06 0.34439599D+06 0.10801451D+01  1  2  2  1  7  1       -1 0.847734250557D-03 0.100000000000D+01
-.100243124708D-04 0.000000000000D+00 -.698576492438D-06 0.237810548386D-06 0.000000000000D+00  7 -1 1 24 -11 11 -24 21 2 0.45101263D-01 0.21275280D+00 0.34439599D+06 0.34439599D+06 0.34439599D+06 0.10801451D+01  1  2  3  1  7  1       -1 -.545036503118D-04 0.100000000000D+01
0.116620316312D-04 0.000000000000D+00 0.000000000000D+00 0.237810548386D-06 0.000000000000D+00  7 -1 1 24 -11 11 -24 21 2 0.45101263D-01 0.21275280D+00 0.34439599D+06 0.34439599D+06 0.34439599D+06 0.10801451D+01  1  2 15  1  7  1       -1 0.634081684713D-04 0.100000000000D+01
0.174190355629D-04 0.000000000000D+00 -.120079736103D-03 0.237810548386D-06 0.000000000000D+00  7 -1 1 24 -11 11 -24 21 2 0.41412072D+00 0.21275280D+00 0.34439599D+06 0.34439599D+06 0.34439599D+06 0.10801451D+01  1  2  5  1  7  1       -1 0.368235635760D-07 0.100000000000D+01
-.127461094917D-04 0.000000000000D+00 -.319584964761D-04 0.237810548386D-06 0.000000000000D+00  7 21 1 24 -11 11 -24 1 2 0.41412072D+00 0.21275280D+00 0.34439599D+06 0.34439599D+06 0.34439599D+06 0.10801451D+01  1  2  5  3  7  1       -1 -.451134179592D-06 0.100000000000D+01
  </mgrwgt>
  </event>
  <event>
  8     66 0.29788925E-05 0.48352062E+03 0.75467711E-02 0.94735232E-01
       21 -1    0    0  502  501 0.00000000E+00 0.00000000E+00 0.22097223E+03 0.22097350E+03 0.75000000E+00 0.0000E+00 0.9000E+01
        1 -1    0    0  501    0 0.00000000E+00 0.00000000E+00 -.15529839E+04 0.15529839E+04 0.32000000E+00 0.0000E+00 0.9000E+01
       25  2    1    2    0    0 -.11933888E+02 -.39989109E+03 -.86792597E+03 0.10014700E+04 0.29931801E+03 0.0000E+00 0.0000E+00
       24  1    3    3    0    0 0.43684700E+02 -.25755588E+03 -.73306196E+03 0.78236209E+03 0.80419002E+02 0.0000E+00 0.9000E+01
      -11  1    1    2    0    0 0.14672514E+03 0.77868283E+02 -.79036827E+00 0.16610949E+03 0.51099893E-03 0.0000E+00 0.9000E+01
       11  1    1    2    0    0 -.11726589E+03 0.33598659E+03 -.38210624E+03 0.52215271E+03 0.51099893E-03 0.0000E+00 0.9000E+01
      -24  1    3    3    0    0 -.55618588E+02 -.14233521E+03 -.13486402E+03 0.21910787E+03 0.80419002E+02 0.0000E+00 0.9000E+01
        1  1    1    2  502    0 -.17525360E+02 -.13963778E+02 -.81189111E+02 0.84225290E+02 0.32000000E+00 0.0000E+00 0.9000E+01
#aMCatNLO 2  0  0  1  1 0.22408153D+02 0.00000000D+00  -5  7  0 0.00000000D+00 0.00000000D+00 0.00000000D+00 0.00000000D+00 0.00000000D+00
  <mgrwgt>
 0.9091036218D-03    1    2    0
 0.567920661303404D+03 0.000000000000000D+00 0.000000000000000D+00 0.567920661303404D+03
 0.567920661303404D+03 0.000000000000000D+00 0.000000000000000D+00 -.567920661303404D+03
 0.359101928589423D+03 0.381642689157768D+02 -.261954443024307D+03 -.228933041565042D+03
 0.243020889687571D+03 0.142951339714927D+03 0.748614486237686D+02 0.181713595551343D+03
 0.353671404991463D+03 -.122739654504767D+03 0.331625214771580D+03 0.656938721562464D+01
 0.180047099338352D+03 -.583759541259370D+02 -.144532220371042D+03 0.406500587980746D+02
 0.000000000000000D+00 -.000000000000000D+00 -.000000000000000D+00 -.000000000000000D+00
 0.571959843245633D+03 0.000000000000000D+00 0.000000000000000D+00 0.571959843245633D+03
 0.599983761294440D+03 0.000000000000000D+00 0.000000000000000D+00 -.599983761294440D+03
 0.356540246767738D+03 0.436846995179714D+02 -.257555899017344D+03 -.228933041565042D+03
 0.246194161790261D+03 0.146725121968446D+03 0.778683059707662D+02 0.181713595551343D+03
 0.355923348903331D+03 -.117265873431701D+03 0.335986589575348D+03 0.656938721562464D+01
 0.177404580378624D+03 -.556185884207497D+02 -.142335218855845D+03 0.406500587980746D+02
 0.358812667001182D+02 -.175253596339663D+02 -.139637776729250D+02 -.280239180488075D+02
0.125216281010D-04 0.000000000000D+00 0.000000000000D+00 0.216572453129D-09 0.375816744266D-14  7 21 1 24 -11 11 -24 1 2 0.33995785D-01 0.23892041D+00 0.24522079D+06 0.24522079D+06 0.24522079D+06 0.10910903D+01  1  2  1  3  7  1       -1 0.909103621753D-03 0.100000000000D+01
  </mgrwgt>
  </event>
  <event>
  8     66 0.29788925E-05 0.11703800E+03 0.75467711E-02 0.10440496E+00
       -1 -1    0    0    0  501 0.00000000E+00 0.00000000E+00 0.12372473E+03 0.12372514E+03 0.32000000E+00 0.0000E+00 0.9000E+01
        1 -1    0    0  501    0 0.00000000E+00 0.00000000E+00 -.40743783E+03 0.40743796E+03 0.32000000E+00 0.0000E+00 0.9000E+01
       25  2    1    2    0    0 0.42099471E+02 -.14687181E+02 -.12493492E+03 0.32805088E+03 0.30003428E+03 0.0000E+00 0.0000E+00
       23  2    1    2    0    0 -.42099471E+02 0.14687181E+02 -.15877818E+03 0.20311222E+03 0.11855793E+03 0.0000E+00 0.0000E+00
       24  1    3    3    0    0 0.10641920E+03 0.80431643E+02 -.29675235E+02 0.15856270E+03 0.80419002E+02 0.0000E+00 0.9000E+01
      -13  1    4    4    0    0 -.12767487E+02 -.47861065E+02 -.32723173E+02 0.59367563E+02 0.10565837E+00 0.0000E+00 0.9000E+01
       13  1    4    4    0    0 -.29331984E+02 0.62548246E+02 -.12605501E+03 0.14374465E+03 0.10565837E+00 0.0000E+00 0.9000E+01
      -24  1    3    3    0    0 -.64319730E+02 -.95118824E+02 -.95259686E+02 0.16948818E+03 0.80419002E+02 0.0000E+00 0.9000E+01
#aMCatNLO 1  0  0  1  2 0.40382010D+02 0.00000000D+00  -5  7  0 0.00000000D+00 0.00000000D+00 0.00000000D+00 0.00000000D+00 0.00000000D+00
  <mgrwgt>
 0.3227596621D-03    9    2    0
 0.224522331774166D+03 0.000000000000000D+00 0.000000000000000D+00 0.224522331774166D+03
 0.224522331774166D+03 0.000000000000000D+00 0.000000000000000D+00 -.224522331774166D+03
 0.168825745228703D+03 0.106434421158051D+03 0.804263333078455D+02 0.651017296318793D+02
 0.495298683572849D+02 -.127781486521402D+02 -.478376384391603D+02 -.121947737902683D+01
 0.903959586645895D+02 -.293491906816566D+02 0.625345419406964D+02 -.583051062385553D+02
 0.140293091297755D+03 -.643070818242537D+02 -.951232368093815D+02 -.557714601429712D+01
 0.000000000000000D+00 -.000000000000000D+00 -.000000000000000D+00 0.000000000000000D+00
 0.256720062698075D+03 0.000000000000000D+00 0.000000000000000D+00 0.256720062698075D+03
 0.238456654815356D+03 0.000000000000000D+00 0.000000000000000D+00 -.238456654815356D+03
 0.181464678342860D+03 0.118168796814471D+03 0.908851681522626D+02 0.651017296318793D+02
 0.460095068363343D+02 -.957767600698204D+01 -.449850610375268D+02 -.121947737902683D+01
 0.925322411192887D+02 -.232212806105488D+02 0.679963407829798D+02 -.583051062385553D+02
 0.130850332075874D+03 -.552240507947626D+02 -.870275422274390D+02 -.557714601429712D+01
 0.443199591390745D+02 -.301457894021778D+02 -.268689056702765D+02 0.182634078827191D+02
0.165471574977D-05 0.000000000000D+00 0.000000000000D+00 0.246612500902D-08 0.000000000000D+00  7 -1 1 24 -13 13 -24 21 0 0.19034615D-01 0.62682785D-01 0.42961896D+05 0.42961896D+05 0.42961896D+05 0.11531362D+01  1  2  2  1  7  1       -1 0.241572812116D-03 0.100000000000D+01
-.912143723281D-07 0.000000000000D+00 -.635454417578D-08 0.246612500902D-08 0.000000000000D+00  7 -1 1 24 -13 13 -24 21 2 0.19034615D-01 0.62682785D-01 0.42961896D+05 0.42961896D+05 0.42961896D+05 0.11531362D+01  1  2  3  1  7  1       -1 -.177071701558D-04 0.100000000000D+01
0.102644857613D-06 0.000000000000D+00 0.000000000000D+00 0.246612500902D-08 0.000000000000D+00  7 -1 1 24 -13 13 -24 21 2 0.19034615D-01 0.62682785D-01 0.42961896D+05 0.42961896D+05 0.42961896D+05 0.11531362D+01  1  2 15  1  7  1       -1 0.199261356843D-04 0.100000000000D+01
0.228926268529D-05 0.000000000000D+00 0.000000000000D+00 0.246612500902D-08 0.000000000000D+00  7 -1 1 24 -13 13 -24 21 2 0.22290866D-01 0.62682785D-01 0.52519730D+05 0.52519730D+05 0.52519730D+05 0.11454220D+01  1  2 12  1  7  1       -1 0.341267997356D-03 0.100000000000D+01
-.223287512905D-05 0.000000000000D+00 0.000000000000D+00 0.246612500902D-08 0.000000000000D+00  7 -1 1 24 -13 13 -24 21 2 0.19034615D-01 0.62682785D-01 0.42961896D+05 0.42961896D+05 0.42961896D+05 0.11531362D+01  1  2  4  1  7  1       -1 -.433461293845D-03 0.100000000000D+01
-.512619291470D-05 0.000000000000D+00 -.126338001397D-05 0.246612500902D-08 0.000000000000D+00  7 -1 1 24 -13 13 -24 21 2 0.23029620D-01 0.62682785D-01 0.42961896D+05 0.42961896D+05 0.42961896D+05 0.11531362D+01  1  2  5  1  7  1       -1 -.734585115714D-03 0.100000000000D+01
0.529312483179D-05 0.000000000000D+00 0.124079226360D-05 0.246612500902D-08 0.000000000000D+00  7 -1 1 24 -13 13 -24 21 2 0.19034615D-01 0.62682785D-01 0.42961896D+05 0.42961896D+05 0.42961896D+05 0.11531362D+01  1  2  6  1  7  1       -1 0.102753831068D-02 0.100000000000D+01
0.544301263190D-07 0.000000000000D+00 0.000000000000D+00 0.246612500902D-08 0.000000000000D+00  7 21 1 24 -13 13 -24 1 2 0.22290866D-01 0.62682785D-01 0.52519730D+05 0.52519730D+05 0.52519730D+05 0.11454220D+01  1  2 12  3  7  1       -1 0.972086828909D-04 0.100000000000D+01
-.127929841832D-06 0.000000000000D+00 -.348264811470D-07 0.246612500902D-08 0.000000000000D+00  7 21 1 24 -13 13 -24 1 2 0.23029620D-01 0.62682785D-01 0.42961896D+05 0.42961896D+05 0.42961896D+05 0.11531362D+01  1  2  5  3  7  1       -1 -.219000696950D-03 0.100000000000D+01
  </mgrwgt>
  </event>
  <event>
  8     66 0.29788925E-05 0.19285802E+03 0.75467711E-02 0.99101251E-01
       -1 -1    0    0    0  501 0.00000000E+00 0.00000000E+00 0.11911256E+03 0.11911299E+03 0.32000000E+00 0.0000E+00 0.9000E+01
        1 -1    0    0  501    0 0.00000000E+00 0.00000000E+00 -.90273636E+03 0.90273641E+03 0.32000000E+00 0.0000E+00 0.9000E+01
       25  2    1    2    0    0 0.86545988E+02 0.48202519E+01 -.82361355E+03 0.88087034E+03 0.30013301E+03 0.0000E+00 0.0000E+00
       23  2    1    2    0    0 -.86545988E+02 -.48202519E+01 0.39989754E+02 0.14097907E+03 0.10374235E+03 0.0000E+00 0.0000E+00
       24  1    3    3    0    0 -.47740066E+02 -.74912934E+01 -.60204487E+03 0.60931147E+03 0.80419002E+02 0.0000E+00 0.9000E+01
      -11  1    4    4    0    0 -.96953148E+02 0.27625927E+02 0.25749454E+02 0.10404873E+03 0.51099893E-03 0.0000E+00 0.9000E+01
       11  1    4    4    0    0 0.10407160E+02 -.32446179E+02 0.14240300E+02 0.36930335E+02 0.51099893E-03 0.0000E+00 0.9000E+01
      -24  1    3    3    0    0 0.13428605E+03 0.12311545E+02 -.22156869E+03 0.27155886E+03 0.80419002E+02 0.0000E+00 0.9000E+01
#aMCatNLO 1  0  0  2  2 0.25880054D+03 0.00000000D+00  -5  7  0 0.00000000D+00 0.00000000D+00 0.00000000D+00 0.00000000D+00 0.00000000D+00
  <mgrwgt>
 0.9459447984D-03    3    2    0
 0.327913841650885D+03 0.000000000000000D+00 0.000000000000000D+00 0.327913841650885D+03
 0.327913841650885D+03 0.000000000000000D+00 0.000000000000000D+00 -.327913841650885D+03
 0.230011457184637D+03 -.477400659283928D+02 -.749129341609097D+01 -.210006716821002D+03
 0.192886066056752D+03 -.969531472466561D+02 0.276259262142692D+02 0.164444306434190D+03
 0.745565936100730D+02 0.104071591239046D+02 -.324461780857606D+02 0.663145701737893D+02
 0.158373566450307D+03 0.134286054051144D+03 0.123115452875824D+02 -.207521597869777D+02
 0.000000000000000D+00 -.000000000000000D+00 -.000000000000000D+00 0.000000000000000D+00
 0.708541449154898D+03 0.000000000000000D+00 0.000000000000000D+00 0.708541449154898D+03
 0.399554598024245D+03 0.000000000000000D+00 0.000000000000000D+00 -.399554598024245D+03
 0.230534755059472D+03 0.216997288341463D+02 0.458841802209453D+02 -.210006716821002D+03
 0.183671344822256D+03 -.401769353648139D+02 0.712674319369345D+02 0.164444306434190D+03
 0.756048274467116D+02 0.330480537447195D+02 -.150430668282348D+02 0.663145701737893D+02
 0.215233517945521D+03 0.190617424438197D+03 0.556111199092268D+02 -.207521597869777D+02
 0.403051601905183D+03 -.205188271652248D+03 -.157719665238872D+03 0.308986851130652D+03
0.185053098314D-04 0.000000000000D+00 0.000000000000D+00 0.351903094181D-07 0.000000000000D+00  7 -1 1 24 -11 11 -24 21 0 0.18325047D-01 0.13888255D+00 0.37194217D+05 0.37194217D+05 0.37194217D+05 0.11587722D+01  1  2  2  2  7  2        1 0.913628644227D-03 0.100000000000D+01
-.675895241743D-06 0.000000000000D+00 -.710652623125D-07 0.351903094181D-07 0.000000000000D+00  7 -1 1 24 -11 11 -24 21 2 0.18325047D-01 0.13888255D+00 0.37194217D+05 0.37194217D+05 0.37194217D+05 0.11587722D+01  1  2  3  2  7  2        1 -.448073097298D-04 0.100000000000D+01
0.116336782011D-05 0.000000000000D+00 0.000000000000D+00 0.351903094181D-07 0.000000000000D+00  7 -1 1 24 -11 11 -24 21 2 0.18325047D-01 0.13888255D+00 0.37194217D+05 0.37194217D+05 0.37194217D+05 0.11587722D+01  1  2 15  2  7  2        1 0.771234638537D-04 0.100000000000D+01
  </mgrwgt>
  </event>
  <event>
  8     66 0.29788925E-05 0.18043671E+03 0.75467711E-02 0.94113887E-01
       -1 -1    0    0    0  501 0.00000000E+00 0.00000000E+00 0.57245020E+02 0.57245915E+02 0.32000000E+00 0.0000E+00 0.9000E+01
        1 -1    0    0  501    0 0.00000000E+00 0.00000000E+00 -.10075816E+04 0.10075816E+04 0.32000000E+00 0.0000E+00 0.9000E+01
       25  2    1    2    0    0 0.23884151E+01 0.33175873E+01 -.92094921E+03 0.96860473E+03 0.30005161E+03 0.0000E+00 0.0000E+00
       23  2    1    2    0    0 -.23884151E+01 -.33175873E+01 -.29387365E+02 0.96222829E+02 0.91534172E+02 0.0000E+00 0.0000E+00
       24  1    3    3    0    0 -.79112616E+01 -.11811614E+03 -.58584615E+03 0.60307291E+03 0.80419002E+02 0.0000E+00 0.9000E+01
      -13  1    4    4    0    0 0.26793634E+02 -.24007960E+02 0.15202810E+02 0.39056594E+02 0.10565837E+00 0.0000E+00 0.9000E+01
       13  1    4    4    0    0 -.29182049E+02 0.20690373E+02 -.44590175E+02 0.57166235E+02 0.10565837E+00 0.0000E+00 0.9000E+01
      -24  1    3    3    0    0 0.10299677E+02 0.12143373E+03 -.33510306E+03 0.36553182E+03 0.80419002E+02 0.0000E+00 0.9000E+01
#aMCatNLO 1  0  0  1  1 0.45250570D+03 0.00000000D+00  -5  7  0 0.00000000D+00 0.00000000D+00 0.00000000D+00 0.00000000D+00 0.00000000D+00
  <mgrwgt>
 0.5704475358D-03    5    2    0
 0.240165634230330D+03 0.000000000000000D+00 0.000000000000000D+00 0.240165634230330D+03
 0.240165634230330D+03 0.000000000000000D+00 0.000000000000000D+00 -.240165634230330D+03
 0.177830676693727D+03 -.791126136386936D+01 -.118116138296167D+03 -.105558151919269D+03
 0.116661935585117D+03 0.267937076686261D+02 -.240080192325341D+02 0.110976211218281D+03
 0.385077114456792D+02 -.291821228910299D+02 0.206904318573319D+02 0.142531952176916D+02
 0.147330944736137D+03 0.102996765862732D+02 0.121433725671370D+03 -.196712545167044D+02
 0.000000000000000D+00 -.000000000000000D+00 0.000000000000000D+00 0.000000000000000D+00
 0.433471077521312D+04 0.000000000000000D+00 0.000000000000000D+00 0.433471077521312D+04
 0.342736754677657D+03 0.000000000000000D+00 0.000000000000000D+00 -.342736754677657D+03
 0.245062393621513D+03 0.159460259122760D+03 -.130454065237638D+03 -.105558151919269D+03
 0.187113347342611D+03 0.147021099789215D+03 -.328706786385935D+02 0.110976211218281D+03
 0.240540896552766D+02 -.442157581740782D+01 0.188651881125361D+02 0.142531952176916D+02
 0.203678901895708D+03 0.149221441591211D+03 0.111192995454977D+03 -.196712545167044D+02
 0.401753879737567D+04 -.451281224685779D+03 0.332665603087180D+02 0.399197402053546D+04
0.518407888390D-05 0.000000000000D+00 0.000000000000D+00 0.144295156119D-05 0.000000000000D+00  7 -1 1 24 -13 13 -24 21 0 0.88069989D-02 0.15501263D+00 0.32557405D+05 0.32557405D+05 0.32557405D+05 0.11640538D+01  1  2  2  1  7  1       -1 0.657454115028D-03 0.100000000000D+01
-.259372029643D-06 0.000000000000D+00 -.199082279135D-07 0.144295156119D-05 0.000000000000D+00  7 -1 1 24 -13 13 -24 21 2 0.88069989D-02 0.15501263D+00 0.32557405D+05 0.32557405D+05 0.32557405D+05 0.11640538D+01  1  2  3  1  7  1       -1 -.445721002632D-04 0.100000000000D+01
0.322142192356D-06 0.000000000000D+00 0.000000000000D+00 0.144295156119D-05 0.000000000000D+00  7 -1 1 24 -13 13 -24 21 2 0.88069989D-02 0.15501263D+00 0.32557405D+05 0.32557405D+05 0.32557405D+05 0.11640538D+01  1  2 15  1  7  1       -1 0.553589148238D-04 0.100000000000D+01
-.606083101538D-04 0.000000000000D+00 -.785501759724D-05 0.144295156119D-05 0.000000000000D+00  7 -1 1 24 -13 13 -24 21 2 0.19341189D+00 0.15501263D+00 0.32557405D+05 0.32557405D+05 0.32557405D+05 0.11640538D+01  1  2  5  1  7  1       -1 -.283836049772D-04 0.100000000000D+01
-.218516775070D-04 0.000000000000D+00 -.256180642180D-05 0.144295156119D-05 0.000000000000D+00  7 21 1 24 -13 13 -24 1 2 0.19341189D+00 0.15501263D+00 0.32557405D+05 0.32557405D+05 0.32557405D+05 0.11640538D+01  1  2  5  3  7  1       -1 -.694097888321D-04 0.100000000000D+01
  </mgrwgt>
  </event>
  <event>
  8     66 0.29788925E-05 0.43309987E+03 0.75467711E-02 0.87752177E-01
       -3 -1    0    0    0  501 0.00000000E+00 0.00000000E+00 0.85589555E+03 0.85589570E+03 0.50000000E+00 0.0000E+00 0.9000E+01
        3 -1    0    0  501    0 0.00000000E+00 0.00000000E+00 -.60424943E+03 0.60424964E+03 0.50000000E+00 0.0000E+00 0.9000E+01
       25  2    1    2    0    0 0.31936460E+03 -.20160175E+03 -.44792437E+03 0.65983554E+03 0.30349578E+03 0.0000E+00 0.0000E+00
       23  2    1    2    0    0 -.31936460E+03 0.20160175E+03 0.69957049E+03 0.80030980E+03 0.91977645E+02 0.0000E+00 0.0000E+00
       24  1    3    3    0    0 0.79017969E+02 -.19639320E+03 -.25664418E+03 0.34226829E+03 0.80419002E+02 0.0000E+00 0.9000E+01
      -11  1    4    4    0    0 -.32361243E+03 0.19336603E+03 0.66399777E+03 0.76354991E+03 0.51099893E-03 0.0000E+00 0.9000E+01
       11  1    4    4    0    0 0.42478241E+01 0.82357177E+01 0.35572715E+02 0.36759884E+02 0.51099893E-03 0.0000E+00 0.9000E+01
      -24  1    3    3    0    0 0.24034663E+03 -.52085427E+01 -.19128019E+03 0.31756725E+03 0.80419002E+02 0.0000E+00 0.9000E+01
#aMCatNLO 1  0  0  1  2 0.81388170D+03 0.00000000D+00  -5  7  0 0.00000000D+00 0.00000000D+00 0.00000000D+00 0.00000000D+00 0.00000000D+00
  <mgrwgt>
 0.1264612164D-03    3    2    0
 0.719148564148847D+03 0.000000000000000D+00 0.000000000000000D+00 0.719148564148847D+03
 0.719148564148847D+03 0.000000000000000D+00 0.000000000000000D+00 -.719148564148847D+03
 0.392370216471151D+03 0.790179694693939D+02 -.196393202499857D+03 -.320426343068155D+03
 0.658974671056697D+03 -.323612428227518D+03 0.193366027462596D+03 0.540492546492831D+03
 0.310944359576727D+02 0.424782406149443D+01 0.823571771348893D+01 0.296815244219719D+02
 0.355857804812174D+03 0.240346634696630D+03 -.520854267622842D+01 -.249747727846648D+03
 0.000000000000000D+00 -.000000000000000D+00 -.000000000000000D+00 -.000000000000000D+00
 0.949993742949931D+03 0.000000000000000D+00 0.000000000000000D+00 0.949993742949931D+03
 0.216512469915421D+04 0.000000000000000D+00 0.000000000000000D+00 -.216512469915421D+04
 0.474350229596157D+03 0.303347401331113D+03 -.154428744530241D+03 -.320426343068155D+03
 0.597283513460733D+03 0.153933908471208D+01 0.254190938219431D+03 0.540492546492831D+03
 0.389471635554208D+02 0.223763824643247D+02 0.116269585365578D+02 0.296815244219719D+02
 0.542023719542156D+03 0.472741351068532D+03 0.382646575481676D+02 -.249747727846648D+03
 0.146251381594968D+04 -.800004473948682D+03 -.149653809773915D+03 -.121513095620428D+04
0.742364559011D-03 0.000000000000D+00 0.000000000000D+00 0.572543670096D-06 0.000000000000D+00  7 -3 3 24 -11 11 -24 21 0 0.13167627D+00 0.92961478D-01 0.18757550D+06 0.18757550D+06 0.18757550D+06 0.10999711D+01  1  2  2  1  7  1       -3 0.122892292086D-03 0.100000000000D+01
-.283477299389D-04 0.000000000000D+00 -.285087537568D-05 0.572543670096D-06 0.000000000000D+00  7 -3 3 24 -11 11 -24 21 2 0.13167627D+00 0.92961478D-01 0.18757550D+06 0.18757550D+06 0.18757550D+06 0.10999711D+01  1  2  3  1  7  1       -3 -.567790629399D-05 0.100000000000D+01
0.461660767633D-04 0.000000000000D+00 0.000000000000D+00 0.572543670096D-06 0.000000000000D+00  7 -3 3 24 -11 11 -24 21 2 0.13167627D+00 0.92961478D-01 0.18757550D+06 0.18757550D+06 0.18757550D+06 0.10999711D+01  1  2 15  1  7  1       -3 0.924683064175D-05 0.100000000000D+01
  </mgrwgt>
  </event>
  <event>
  8     66 0.29788925E-05 0.16691056E+03 0.75467711E-02 0.10597313E+00
       -1 -1    0    0    0  501 0.00000000E+00 0.00000000E+00 0.14771774E+03 0.14771808E+03 0.32000000E+00 0.0000E+00 0.9000E+01
        1 -1    0    0  501    0 0.00000000E+00 0.00000000E+00 -.63794499E+03 0.63794507E+03 0.32000000E+00 0.0000E+00 0.9000E+01
       25  2    1    2    0    0 0.52939301E+02 -.60673773E+02 -.32378562E+02 0.31212016E+03 0.29981119E+03 0.0000E+00 0.0000E+00
       23  2    1    2    0    0 -.52939301E+02 0.60673773E+02 -.45784869E+03 0.47354299E+03 0.90186831E+02 0.0000E+00 0.0000E+00
       24  1    3    3    0    0 0.10172928E+03 -.82771443E+02 -.10921822E+03 0.18866848E+03 0.80419002E+02 0.0000E+00 0.9000E+01
      -13  1    4    4    0    0 -.43718512E+01 -.13542986E+01 0.33445588E+01 0.56696071E+01 0.10565837E+00 0.0000E+00 0.9000E+01
       13  1    4    4    0    0 -.48567450E+02 0.62028072E+02 -.46119325E+03 0.46787339E+03 0.10565837E+00 0.0000E+00 0.9000E+01
      -24  1    3    3    0    0 -.48789977E+02 0.22097669E+02 0.76839662E+02 0.12345168E+03 0.80419002E+02 0.0000E+00 0.9000E+01
#aMCatNLO 1  0  0  1  2 0.74053441D+02 0.00000000D+00  -5  7  0 0.00000000D+00 0.00000000D+00 0.00000000D+00 0.00000000D+00 0.00000000D+00
  <mgrwgt>
 0.6297116043D-03    4    2    0
 0.306978758513222D+03 0.000000000000000D+00 0.000000000000000D+00 0.306978758513222D+03
 0.306978758513222D+03 0.000000000000000D+00 0.000000000000000D+00 -.306978758513222D+03
 0.154225851202745D+03 0.101729277958030D+03 -.827714425284368D+02 0.108829928209128D+02
 0.992545764676328D+01 -.437179050025177D+01 -.135438556385436D+01 0.880725820355136D+01
 0.230474522252693D+03 -.485675104329592D+02 0.620281587979409D+02 -.216592266376454D+03
 0.219331685924243D+03 -.487899770248193D+02 0.220976692943503D+02 0.196902015351990D+03
 0.000000000000000D+00 0.000000000000000D+00 0.000000000000000D+00 -.000000000000000D+00
 0.328550842076430D+03 0.000000000000000D+00 0.000000000000000D+00 0.328550842076430D+03
 0.380065805284134D+03 0.000000000000000D+00 0.000000000000000D+00 -.380065805284134D+03
 0.158859760516947D+03 0.933963187690576D+02 -.996388260909354D+02 0.108829928209128D+02
 0.103774184260090D+02 -.491216358480174D+01 -.244819628310238D+01 0.880725820355136D+01
 0.228031942532849D+03 -.607709318484372D+02 0.373262749747164D+02 -.216592266376454D+03
 0.221138304782106D+03 -.605133469885894D+02 -.163250546585532D+01 0.196902015351990D+03
 0.902092211026538D+02 0.328001236527707D+02 0.663932528651766D+02 -.515149632077044D+02
0.141620142822D-04 0.000000000000D+00 0.000000000000D+00 0.267634982126D-05 0.000000000000D+00  7 -1 1 24 -13 13 -24 21 0 0.22725838D-01 0.98145416D-01 0.27859134D+05 0.27859134D+05 0.27859134D+05 0.11703310D+01  1  2  2  1  7  1       -1 0.844560807240D-03 0.100000000000D+01
-.431617338835D-06 0.000000000000D+00 -.543858637878D-07 0.267634982126D-05 0.000000000000D+00  7 -1 1 24 -13 13 -24 21 2 0.22725838D-01 0.98145416D-01 0.27859134D+05 0.27859134D+05 0.27859134D+05 0.11703310D+01  1  2  3  1  7  1       -1 -.352551191388D-04 0.100000000000D+01
0.874695365989D-06 0.000000000000D+00 0.000000000000D+00 0.267634982126D-05 0.000000000000D+00  7 -1 1 24 -13 13 -24 21 2 0.22725838D-01 0.98145416D-01 0.27859134D+05 0.27859134D+05 0.27859134D+05 0.11703310D+01  1  2 15  1  7  1       -1 0.714463636270D-04 0.100000000000D+01
-.307340926662D-05 0.000000000000D+00 0.000000000000D+00 0.267634982126D-05 0.000000000000D+00  7 -1 1 24 -13 13 -24 21 2 0.22725838D-01 0.98145416D-01 0.27859134D+05 0.27859134D+05 0.27859134D+05 0.11703310D+01  1  2  4  1  7  1       -1 -.251040447424D-03 0.100000000000D+01
  </mgrwgt>
  </event>
  <event>
  8     66 0.29788925E-05 0.40523962E+03 0.75467711E-02 0.94697724E-01
       -1 -1    0    0    0  501 0.00000000E+00 0.00000000E+00 0.42044209E+03 0.42044221E+03 0.32000000E+00 0.0000E+00 0.9000E+01
        1 -1    0    0  501    0 0.00000000E+00 0.00000000E+00 -.21986396E+04 0.21986396E+04 0.32000000E+00 0.0000E+00 0.9000E+01
       25  2    1    2    0    0 0.25197668E+03 -.24397151E+03 0.27305967E+03 0.53606024E+03 0.29964088E+03 0.0000E+00 0.0000E+00
       23  2    1    2    0    0 -.25197668E+03 0.24397151E+03 -.20512572E+04 0.20830216E+04 0.91151384E+02 0.0000E+00 0.0000E+00
       24  1    3    3    0    0 0.97006377E+02 -.25467310E+03 0.19432611E+03 0.34423608E+03 0.80419002E+02 0.0000E+00 0.9000E+01
      -11  1    4    4    0    0 -.79513257E+02 0.63173865E+02 -.85061391E+03 0.85665472E+03 0.51099893E-03 0.0000E+00 0.9000E+01
       11  1    4    4    0    0 -.17246342E+03 0.18079764E+03 -.12006433E+04 0.12263669E+04 0.51099893E-03 0.0000E+00 0.9000E+01
      -24  1    3    3    0    0 0.15497030E+03 0.10701595E+02 0.78733567E+02 0.19182416E+03 0.80419002E+02 0.0000E+00 0.9000E+01
#aMCatNLO 1  0  0  1  2 0.16640600D+03 0.00000000D+00  -5  7  0 0.00000000D+00 0.00000000D+00 0.00000000D+00 0.00000000D+00 0.00000000D+00
  <mgrwgt>
 0.1577414222D-02    3    2    0
 0.961457655117734D+03 0.000000000000000D+00 0.000000000000000D+00 0.961457655117734D+03
 0.961457655117734D+03 0.000000000000000D+00 0.000000000000000D+00 -.961457655117734D+03
 0.648563491776596D+03 0.970063770889599D+02 -.254673103034687D+03 0.583008370699631D+03
 0.380198384543613D+03 -.795132571561973D+02 0.631738653429379D+02 -.366384383241996D+03
 0.560073709495743D+03 -.172463424036420D+03 0.180797642641710D+03 -.501249578406961D+03
 0.334079724419516D+03 0.154970304103658D+03 0.107015950500389D+02 0.284625590949327D+03
 0.000000000000000D+00 -.000000000000000D+00 -.000000000000000D+00 -.000000000000000D+00
 0.969698203318397D+03 0.000000000000000D+00 0.000000000000000D+00 0.969698203318397D+03
 0.245472960486732D+04 0.000000000000000D+00 0.000000000000000D+00 -.245472960486732D+04
 0.629086234172548D+03 0.978931904824144D+02 -.199500468727175D+03 0.583008370699631D+03
 0.386975034266718D+03 -.789807640564959D+02 0.963026467505509D+02 -.366384383241996D+03
 0.577571020440672D+03 -.171673787751130D+03 0.229924453677513D+03 -.501249578406961D+03
 0.336469845063242D+03 0.155435730837695D+03 0.396578773790222D+02 0.284625590949327D+03
 0.149432567424254D+04 -.267436951248370D+01 -.166384509079911D+03 -.148503140154892D+04
0.206851702350D-02 0.000000000000D+00 0.000000000000D+00 0.251545152965D-04 0.000000000000D+00  7 -1 1 24 -11 11 -24 21 0 0.64683410D-01 0.33825226D+00 0.16421915D+06 0.16421915D+06 0.16421915D+06 0.11044613D+01  1  2  2  1  7  1       -1 0.147681432983D-02 0.100000000000D+01
-.106216722243D-04 0.000000000000D+00 -.794365002329D-05 0.251545152965D-04 0.000000000000D+00  7 -1 1 24 -11 11 -24 21 2 0.64683410D-01 0.33825226D+00 0.16421915D+06 0.16421915D+06 0.16421915D+06 0.11044613D+01  1  2  3  1  7  1       -1 -.925040425652D-05 0.100000000000D+01
0.126134361960D-03 0.000000000000D+00 0.000000000000D+00 0.251545152965D-04 0.000000000000D+00  7 -1 1 24 -11 11 -24 21 2 0.64683410D-01 0.33825226D+00 0.16421915D+06 0.16421915D+06 0.16421915D+06 0.11044613D+01  1  2 15  1  7  1       -1 0.109850296086D-03 0.100000000000D+01
  </mgrwgt>
  </event>
  <event>
  8     66 0.29788925E-05 0.24735674E+03 0.75467711E-02 0.94503257E-01
       -3 -1    0    0    0  501 0.00000000E+00 0.00000000E+00 0.33425690E+03 0.33425727E+03 0.50000000E+00 0.0000E+00 0.9000E+01
        3 -1    0    0  501    0 0.00000000E+00 0.00000000E+00 -.50330125E+03 0.50330150E+03 0.50000000E+00 0.0000E+00 0.9000E+01
       25  2    1    2    0    0 0.13260544E+03 0.11514622E+03 0.21296928E+03 0.40740960E+03 0.29963947E+03 0.0000E+00 0.0000E+00
       23  2    1    2    0    0 -.13260544E+03 -.11514622E+03 -.38201364E+03 0.43014917E+03 0.90835176E+02 0.0000E+00 0.0000E+00
       24  1    3    3    0    0 0.18287905E+03 0.59948699E+02 0.56142526E+02 0.21600415E+03 0.80419002E+02 0.0000E+00 0.9000E+01
      -11  1    4    4    0    0 -.32267348E+02 -.37873417E+02 -.35232840E+02 0.60966634E+02 0.51099893E-03 0.0000E+00 0.9000E+01
       11  1    4    4    0    0 -.10033810E+03 -.77272803E+02 -.34678080E+03 0.36918253E+03 0.51099893E-03 0.0000E+00 0.9000E+01
      -24  1    3    3    0    0 -.50273603E+02 0.55197521E+02 0.15682676E+03 0.19140546E+03 0.80419002E+02 0.0000E+00 0.9000E+01
#aMCatNLO 1  0  0  2  1 0.40563320D+03 0.00000000D+00  -5  7  0 0.00000000D+00 0.00000000D+00 0.00000000D+00 0.00000000D+00 0.00000000D+00
  <mgrwgt>
 0.9045306655D-04    5    2    0
 0.410161156622927D+03 0.000000000000000D+00 0.000000000000000D+00 0.410161156622927D+03
 0.410161156622927D+03 0.000000000000000D+00 0.000000000000000D+00 -.410161156622927D+03
 0.232112112093915D+03 0.182879046773157D+03 0.599486991411398D+02 0.101834298490017D+03
 0.549871992310173D+02 -.322673479401165D+02 -.378734171733934D+02 -.234097118263586D+02
 0.305478378203408D+03 -.100338095815054D+03 -.772728028790214D+02 -.277989604145935D+03
 0.227744623717515D+03 -.502736030179866D+02 0.551975209112750D+02 0.199565017482276D+03
 0.000000000000000D+00 -.000000000000000D+00 0.000000000000000D+00 -.000000000000000D+00
 0.652464975504111D+03 0.000000000000000D+00 0.000000000000000D+00 0.652464975504111D+03
 0.668622101154291D+03 0.000000000000000D+00 0.000000000000000D+00 -.668622101154291D+03
 0.313521992289762D+03 0.284929982176123D+03 -.165379745776634D+02 0.101834298490017D+03
 0.598066265438312D+02 -.107972506630394D+02 -.539651493918032D+02 -.234097118263586D+02
 0.323998730716169D+03 0.173941486760747D+02 -.165512540565087D+03 -.277989604145935D+03
 0.217804874409920D+03 0.330583270921849D+02 -.725935048854937D+01 0.199565017482276D+03
 0.405954852698720D+03 -.324585207281343D+03 0.243275015023103D+03 -.161571256501800D+02
0.315012772831D-04 0.000000000000D+00 0.000000000000D+00 0.560663282547D-05 0.000000000000D+00  7 -3 3 24 -11 11 -24 21 0 0.51424186D-01 0.77431010D-01 0.61185359D+05 0.61185359D+05 0.61185359D+05 0.11396623D+01  1  2  2  2  7  2        3 0.798485773568D-04 0.100000000000D+01
-.120587549817D-05 0.000000000000D+00 -.120973199244D-06 0.560663282547D-05 0.000000000000D+00  7 -3 3 24 -11 11 -24 21 2 0.51424186D-01 0.77431010D-01 0.61185359D+05 0.61185359D+05 0.61185359D+05 0.11396623D+01  1  2  3  2  7  2        3 -.397003026329D-05 0.100000000000D+01
0.191223880781D-05 0.000000000000D+00 0.000000000000D+00 0.560663282547D-05 0.000000000000D+00  7 -3 3 24 -11 11 -24 21 2 0.51424186D-01 0.77431010D-01 0.61185359D+05 0.61185359D+05 0.61185359D+05 0.11396623D+01  1  2 15  2  7  2        3 0.629554705206D-05 0.100000000000D+01
0.650899597757D-05 0.000000000000D+00 -.967134885055D-05 0.560663282547D-05 0.000000000000D+00  7 -3 3 24 -11 11 -24 21 2 0.51424186D-01 0.18024393D+00 0.61185359D+05 0.61185359D+05 0.61185359D+05 0.11396623D+01  1  2  5  2  7  2        3 0.238154338528D-05 0.100000000000D+01
0.121063935624D-05 0.000000000000D+00 -.890534401082D-06 0.560663282547D-05 0.000000000000D+00  7 -3 21 24 -11 11 -24 -3 2 0.51424186D-01 0.18024393D+00 0.61185359D+05 0.61185359D+05 0.61185359D+05 0.11396623D+01  1  2  5  4  7  2        3 0.589742902206D-05 0.100000000000D+01
  </mgrwgt>
  </event>
  <event>
  8     66 0.29788925E-05 0.30027834E+03 0.75467711E-02 0.92451933E-01
       -1 -1    0    0    0  501 0.00000000E+00 0.00000000E+00 0.67892102E+02 0.67892856E+02 0.32000000E+00 0.0000E+00 0.9000E+01
        1 -1    0    0  501    0 0.00000000E+00 0.00000000E+00 -.17683296E+04 0.17683296E+04 0.32000000E+00 0.0000E+00 0.9000E+01
       25  2    1    2    0    0 -.25949514E+03 0.18367230E+02 -.77097512E+03 0.86689150E+03 0.29903704E+03 0.0000E+00 0.0000E+00
       23  2    1    2    0    0 0.25949514E+03 -.18367230E+02 -.92946234E+03 0.96933094E+03 0.89594438E+02 0.0000E+00 0.0000E+00
       24  1    3    3    0    0 -.16901592E+03 0.79733829E+02 -.66284388E+03 0.69336360E+03 0.80419002E+02 0.0000E+00 0.9000E+01
      -13  1    4    4    0    0 0.67987808E+02 0.63972732E+01 -.39928517E+03 0.40508261E+03 0.10565837E+00 0.0000E+00 0.9000E+01
       13  1    4    4    0    0 0.19150733E+03 -.24764503E+02 -.53017717E+03 0.56424833E+03 0.10565837E+00 0.0000E+00 0.9000E+01
      -24  1    3    3    0    0 -.90479224E+02 -.61366599E+02 -.10813124E+03 0.17352790E+03 0.80419002E+02 0.0000E+00 0.9000E+01
#aMCatNLO 1  0  0  2  1 0.46428159D+03 0.00000000D+00  -5  7  0 0.00000000D+00 0.00000000D+00 0.00000000D+00 0.00000000D+00 0.00000000D+00
  <mgrwgt>
 0.8166241774D-03    5    2    0
 0.346491457403804D+03 0.000000000000000D+00 0.000000000000000D+00 0.346491457403804D+03
 0.346491457403804D+03 0.000000000000000D+00 0.000000000000000D+00 -.346491457403804D+03
 0.210748703892125D+03 -.169015915152910D+03 0.797338288047730D+02 -.549903373966350D+02
 0.935986049626266D+02 0.679876368477733D+02 0.639731645406450D+01 -.640113617179926D+02
 0.194164138988885D+03 0.191507502271337D+03 -.247645461387482D+02 -.202806976613344D+02
 0.194471466963970D+03 -.904792239662006D+02 -.613665991200893D+02 0.139282396775962D+03
 0.000000000000000D+00 0.000000000000000D+00 -.000000000000000D+00 -.000000000000000D+00
 0.491229188705928D+03 0.000000000000000D+00 0.000000000000000D+00 0.491229188705928D+03
 0.114371916043585D+04 0.000000000000000D+00 0.000000000000000D+00 -.114371916043585D+04
 0.378836728042213D+03 -.329053187849489D+03 0.160468417199312D+03 -.549903373966350D+02
 0.739259005110689D+02 0.225147273868095D+02 0.293372014356929D+02 -.640113617179926D+02
 0.111686200483963D+03 0.108487380790437D+03 0.171169182431944D+02 -.202806976613344D+02
 0.269687081984135D+03 -.216470580348170D+03 0.219272132679873D+01 0.139282396775962D+03
 0.800812438120398D+03 0.414521660020412D+03 -.209115258204998D+03 -.652489971729922D+03
0.272367682070D-04 0.000000000000D+00 0.000000000000D+00 0.246215953225D-06 0.000000000000D+00  7 -1 1 24 -13 13 -24 21 0 0.10444999D-01 0.27205076D+00 0.90167084D+05 0.90167084D+05 0.90167084D+05 0.11254296D+01  1  2  2  2  7  2        1 0.807161054144D-03 0.100000000000D+01
-.147545416822D-05 0.000000000000D+00 -.104596361520D-06 0.246215953225D-06 0.000000000000D+00  7 -1 1 24 -13 13 -24 21 2 0.10444999D-01 0.27205076D+00 0.90167084D+05 0.90167084D+05 0.90167084D+05 0.11254296D+01  1  2  3  2  7  2        1 -.553817975782D-04 0.100000000000D+01
0.172770914146D-05 0.000000000000D+00 0.000000000000D+00 0.246215953225D-06 0.000000000000D+00  7 -1 1 24 -13 13 -24 21 2 0.10444999D-01 0.27205076D+00 0.90167084D+05 0.90167084D+05 0.90167084D+05 0.11254296D+01  1  2 15  2  7  2        1 0.648502949172D-04 0.100000000000D+01
-.480265847516D-05 0.000000000000D+00 -.709401964820D-05 0.246215953225D-06 0.000000000000D+00  7 -1 1 24 -13 13 -24 21 2 0.10444999D-01 0.90980908D+00 0.90167084D+05 0.90167084D+05 0.90167084D+05 0.11254296D+01  1  2  5  2  7  2        1 -.536799961996D-08 0.100000000000D+01
-.403866348757D-06 0.000000000000D+00 -.994153362900D-06 0.246215953225D-06 0.000000000000D+00  7 -1 21 24 -13 13 -24 -1 2 0.10444999D-01 0.90980908D+00 0.90167084D+05 0.90167084D+05 0.90167084D+05 0.11254296D+01  1  2  5  4  7  2        1 -.612531245011D-11 0.100000000000D+01
  </mgrwgt>
  </event>
  <event>
  8     66 0.29788925E-05 0.59330401E+03 0.75467711E-02 0.87304158E-01
       -1 -1    0    0    0  501 0.00000000E+00 0.00000000E+00 0.56755693E+03 0.56755702E+03 0.32000000E+00 0.0000E+00 0.9000E+01
        1 -1    0    0  501    0 0.00000000E+00 0.00000000E+00 -.12926492E+04 0.12926492E+04 0.32000000E+00 0.0000E+00 0.9000E+01
       25  2    1    2    0    0 -.93540298E+02 0.55048075E+03 -.10360027E+04 0.12144189E+04 0.29955410E+03 0.0000E+00 0.0000E+00
       23  2    1    2    0    0 0.93540298E+02 -.55048075E+03 0.31091045E+03 0.64578740E+03 0.92721187E+02 0.0000E+00 0.0000E+00
       24  1    3    3    0    0 -.40504723E+02 0.51700335E+03 -.92634836E+03 0.10646697E+04 0.80419002E+02 0.0000E+00 0.9000E+01
      -13  1    4    4    0    0 0.85478469E+02 -.53942238E+03 0.31623763E+03 0.63110168E+03 0.10565837E+00 0.0000E+00 0.9000E+01
       13  1    4    4    0    0 0.80618298E+01 -.11058365E+02 -.53271792E+01 0.14685726E+02 0.10565837E+00 0.0000E+00 0.9000E+01
      -24  1    3    3    0    0 -.53035576E+02 0.33477394E+02 -.10965436E+03 0.14974914E+03 0.80419002E+02 0.0000E+00 0.9000E+01
#aMCatNLO 1  0  0  2  1 0.65560798D+03 0.00000000D+00  -5  7  0 0.00000000D+00 0.00000000D+00 0.00000000D+00 0.00000000D+00 0.00000000D+00
  <mgrwgt>
 0.1639048999D-02    6    2    0
 0.856534952441102D+03 0.000000000000000D+00 0.000000000000000D+00 0.856534952441102D+03
 0.856534952441102D+03 0.000000000000000D+00 0.000000000000000D+00 -.856534952441102D+03
 0.764018572374556D+03 -.405047227420408D+02 0.517003353889665D+03 -.555269360294004D+03
 0.819162448888497D+03 0.854785692596605D+02 -.539423068527177D+03 0.610527055098334D+03
 0.136912048845422D+02 0.806172923414922D+01 -.110576793357265D+02 0.430512083483926D+00
 0.116197678734610D+03 -.530355757517690D+02 0.334773939732383D+02 -.556882068878142D+02
 0.000000000000000D+00 -.000000000000000D+00 -.000000000000000D+00 -.000000000000000D+00
 0.108963826470568D+04 0.000000000000000D+00 0.000000000000000D+00 0.108963826470568D+04
 0.153998041555686D+04 0.000000000000000D+00 0.000000000000000D+00 -.153998041555686D+04
 0.825839226874650D+03 0.251307809716756D+03 0.551419563476490D+03 -.555269360294004D+03
 0.885411428535692D+03 0.398346814563840D+03 -.502523559747612D+03 0.610527055098334D+03
 0.172280010367593D+02 0.137368353887820D+02 -.103883604370500D+02 0.430512083483926D+00
 0.105759691905834D+03 -.122961193959422D+02 0.382821830499151D+02 -.556882068878142D+02
 0.795380331909613D+03 -.651095340273436D+03 -.767898263417438D+02 -.450342150851182D+03
0.757590780321D-03 0.000000000000D+00 0.000000000000D+00 0.113878108470D-04 0.000000000000D+00  7 -1 1 24 -13 13 -24 21 0 0.87316460D-01 0.19886912D+00 0.35200965D+06 0.35200965D+06 0.35200965D+06 0.10794520D+01  1  2  2  2  7  2        1 0.113959556265D-02 0.100000000000D+01
-.351888214498D-04 0.000000000000D+00 -.290934807467D-05 0.113878108470D-04 0.000000000000D+00  7 -1 1 24 -13 13 -24 21 2 0.87316460D-01 0.19886912D+00 0.35200965D+06 0.35200965D+06 0.35200965D+06 0.10794520D+01  1  2  3  2  7  2        1 -.616775949325D-04 0.100000000000D+01
0.477375278779D-04 0.000000000000D+00 0.000000000000D+00 0.113878108470D-04 0.000000000000D+00  7 -1 1 24 -13 13 -24 21 2 0.87316460D-01 0.19886912D+00 0.35200965D+06 0.35200965D+06 0.35200965D+06 0.10794520D+01  1  2 15  2  7  2        1 0.836724785380D-04 0.100000000000D+01
-.187184028558D-03 0.000000000000D+00 -.210107997767D-03 0.113878108470D-04 0.000000000000D+00  7 -1 1 24 -13 13 -24 21 2 0.87316460D-01 0.39233299D+00 0.35200965D+06 0.35200965D+06 0.35200965D+06 0.10794520D+01  1  2  5  2  7  2        1 -.463349082256D-04 0.100000000000D+01
0.298898831439D-03 0.000000000000D+00 0.169461840916D-03 0.113878108470D-04 0.000000000000D+00  7 -1 1 24 -13 13 -24 21 2 0.87316460D-01 0.19886912D+00 0.35200965D+06 0.35200965D+06 0.35200965D+06 0.10794520D+01  1  2  6  2  7  2        1 0.523898223690D-03 0.100000000000D+01
-.130973294076D-05 0.000000000000D+00 -.154581722797D-04 0.113878108470D-04 0.000000000000D+00  7 -1 21 24 -13 13 -24 -1 2 0.87316460D-01 0.39233299D+00 0.35200965D+06 0.35200965D+06 0.35200965D+06 0.10794520D+01  1  2  5  4  7  2        1 -.104762233909D-06 0.100000000000D+01
  </mgrwgt>
  </event>
  <event>
  7     66 0.29788925E-05 0.13428518E+03 0.75467711E-02 0.10428405E+00
       -1 -1    0    0    0  501 0.00000000E+00 0.00000000E+00 0.11048669E+03 0.11048716E+03 0.32000000E+00 0.0000E+00 0.9000E+01
        1 -1    0    0  501    0 0.00000000E+00 0.00000000E+00 -.80501093E+03 0.80501099E+03 0.32000000E+00 0.0000E+00 0.9000E+01
       23  2    1    2    0    0 -.10623377E+03 0.10362694E+03 -.58398815E+03 0.60975550E+03 0.93463618E+02 0.0000E+00 0.0000E+00
       24  1    1    2    0    0 0.12408924E+03 -.16928522E+02 -.11179025E+03 0.18614239E+03 0.80419002E+02 0.0000E+00 0.9000E+01
      -11  1    3    3    0    0 0.11706729E+02 0.16244605E+02 -.26189630E+02 0.32967126E+02 0.51099893E-03 0.0000E+00 0.9000E+01
       11  1    3    3    0    0 -.11794050E+03 0.87382333E+02 -.55779852E+03 0.57678837E+03 0.51099893E-03 0.0000E+00 0.9000E+01
      -24  1    1    2    0    0 -.17855466E+02 -.86698415E+02 0.12541682E+01 0.11960026E+03 0.80419002E+02 0.0000E+00 0.9000E+01
#aMCatNLO 1  0  0  2  1 0.25309580D+02 0.00000000D+00  -5  7  0 0.00000000D+00 0.00000000D+00 0.00000000D+00 0.00000000D+00 0.00000000D+00
  <mgrwgt>
 0.1071022061D-04    9    2    0
 0.298233526264190D+03 0.000000000000000D+00 0.000000000000000D+00 0.298233526264190D+03
 0.298233526264190D+03 0.000000000000000D+00 0.000000000000000D+00 -.298233526264190D+03
 0.155535793314841D+03 0.124089237544658D+03 -.169285224764356D+02 0.451603066869185D+02
 0.201050670858055D+02 0.117067285323836D+02 0.162446049066525D+02 -.181081225437016D+01
 0.235795242752395D+03 -.117940500351464D+03 0.873823328119014D+02 -.184536616404055D+03
 0.185030949375340D+03 -.178554657255783D+02 -.866984152421183D+02 0.141187121971506D+03
 0.000000000000000D+00 0.000000000000000D+00 0.000000000000000D+00 -.000000000000000D+00
 0.300605563865586D+03 0.000000000000000D+00 0.000000000000000D+00 0.300605563865586D+03
 0.374627718276857D+03 0.000000000000000D+00 0.000000000000000D+00 -.374627718276857D+03
 0.154144350561999D+03 0.121364048456815D+03 -.229036961629572D+02 0.451603066869185D+02
 0.192898769140982D+02 0.113600525390160D+02 0.154844927799163D+02 -.181081225437016D+01
 0.234710571175998D+03 -.122080957320491D+03 0.783040821900003D+02 -.184536616404055D+03
 0.188858986590074D+03 -.211457017762060D+02 -.939124951604106D+02 0.141187121971506D+03
 0.782294969002734D+02 0.105025581008654D+02 0.230276163534512D+02 -.740221544112714D+02
0.127830936536D-06 0.000000000000D+00 0.000000000000D+00 0.433027970146D-10 0.000000000000D+00  7 -1 1 24 -11 11 -24 21 0 0.16997993D-01 0.12384788D+00 0.47357722D+05 0.47357722D+05 0.47357722D+05 0.11493752D+01  1  2  2  2  7  2        1 0.850431445259D-05 0.100000000000D+01
-.624421470825D-08 0.000000000000D+00 -.490904454958D-09 0.433027970146D-10 0.000000000000D+00  7 -1 1 24 -11 11 -24 21 2 0.16997993D-01 0.12384788D+00 0.47357722D+05 0.47357722D+05 0.47357722D+05 0.11493752D+01  1  2  3  2  7  2        1 -.548788254967D-06 0.100000000000D+01
0.794228659730D-08 0.000000000000D+00 0.000000000000D+00 0.433027970146D-10 0.000000000000D+00  7 -1 1 24 -11 11 -24 21 2 0.16997993D-01 0.12384788D+00 0.47357722D+05 0.47357722D+05 0.47357722D+05 0.11493752D+01  1  2 15  2  7  2        1 0.698027503190D-06 0.100000000000D+01
0.116649251444D-05 0.000000000000D+00 0.000000000000D+00 0.433027970146D-10 0.000000000000D+00  7 -1 1 24 -11 11 -24 21 2 0.16997993D-01 0.15597910D+00 0.53445395D+05 0.53445395D+05 0.53445395D+05 0.11447585D+01  1  2 12  2  7  2        1 0.696241735083D-04 0.100000000000D+01
-.115287856020D-05 0.000000000000D+00 0.000000000000D+00 0.433027970146D-10 0.000000000000D+00  7 -1 1 24 -11 11 -24 21 2 0.16997993D-01 0.12384788D+00 0.47357722D+05 0.47357722D+05 0.47357722D+05 0.11493752D+01  1  2  4  2  7  2        1 -.101323583958D-03 0.100000000000D+01
-.127247858390D-05 0.000000000000D+00 -.766888281412D-07 0.433027970146D-10 0.000000000000D+00  7 -1 1 24 -11 11 -24 21 2 0.16997993D-01 0.15607375D+00 0.47357722D+05 0.47357722D+05 0.47357722D+05 0.11493752D+01  1  2  5  2  7  2        1 -.766047268772D-04 0.100000000000D+01
0.125841566598D-05 0.000000000000D+00 0.746825992129D-07 0.433027970146D-10 0.000000000000D+00  7 -1 1 24 -11 11 -24 21 2 0.16997993D-01 0.12384788D+00 0.47357722D+05 0.47357722D+05 0.47357722D+05 0.11493752D+01  1  2  6  2  7  2        1 0.110598973549D-03 0.100000000000D+01
0.371880839512D-07 0.000000000000D+00 0.000000000000D+00 0.433027970146D-10 0.000000000000D+00  7 -1 21 24 -11 11 -24 -1 2 0.16997993D-01 0.15597910D+00 0.53445395D+05 0.53445395D+05 0.53445395D+05 0.11447585D+01  1  2 12  4  7  2        1 0.310755200475D-05 0.100000000000D+01
-.395167356315D-07 0.000000000000D+00 -.244966260678D-08 0.433027970146D-10 0.000000000000D+00  7 -1 21 24 -11 11 -24 -1 2 0.16997993D-01 0.15607375D+00 0.47357722D+05 0.47357722D+05 0.47357722D+05 0.11493752D+01  1  2  5  4  7  2        1 -.334572131690D-05 0.100000000000D+01
  </mgrwgt>
  </event>
  <event>
  8     66 0.29788925E-05 0.33714317E+03 0.75467711E-02 0.92616264E-01
       -1 -1    0    0    0  501 0.00000000E+00 0.00000000E+00 0.67119578E+02 0.67120340E+02 0.32000000E+00 0.0000E+00 0.9000E+01
        1 -1    0    0  501    0 0.00000000E+00 0.00000000E+00 -.18544399E+04 0.18544399E+04 0.32000000E+00 0.0000E+00 0.9000E+01
       25  2    1    2    0    0 0.59542219E+02 0.26552436E+03 -.88785825E+03 0.97590070E+03 0.30006905E+03 0.0000E+00 0.0000E+00
       23  2    1    2    0    0 -.59542219E+02 -.26552436E+03 -.89946204E+03 0.94565954E+03 0.10579007E+03 0.0000E+00 0.0000E+00
       24  1    3    3    0    0 0.14529557E+03 0.86061559E+02 -.47788851E+03 0.51318811E+03 0.80419002E+02 0.0000E+00 0.9000E+01
      -11  1    4    4    0    0 -.23579751E+01 -.39065184E+02 -.44008065E+02 0.58892770E+02 0.51099893E-03 0.0000E+00 0.9000E+01
       11  1    4    4    0    0 -.57184243E+02 -.22645918E+03 -.85545397E+03 0.88676677E+03 0.51099893E-03 0.0000E+00 0.9000E+01
      -24  1    3    3    0    0 -.85753348E+02 0.17946280E+03 -.40996974E+03 0.46271258E+03 0.80419002E+02 0.0000E+00 0.9000E+01
#aMCatNLO 1  0  0  2  2 0.41342403D+03 0.00000000D+00  -5  7  0 0.00000000D+00 0.00000000D+00 0.00000000D+00 0.00000000D+00 0.00000000D+00
  <mgrwgt>
 0.8603487119D-03    3    2    0
 0.352803032374648D+03 0.000000000000000D+00 0.000000000000000D+00 0.352803032374648D+03
 0.352803032374648D+03 0.000000000000000D+00 0.000000000000000D+00 -.352803032374648D+03
 0.187047765635947D+03 0.145295566895999D+03 0.860615593781876D+02 -.150230249768337D+01
 0.489075990147462D+02 -.235797523492159D+01 -.390651839586503D+02 0.293309494639282D+02
 0.248021551860657D+03 -.571842433946836D+02 -.226459176167444D+03 -.834319724344844D+02
 0.221629148237947D+03 -.857533482663935D+02 0.179462800747907D+03 0.556033254682395D+02
 0.000000000000000D+00 0.000000000000000D+00 -.000000000000000D+00 0.000000000000000D+00
 0.623541298275474D+03 0.000000000000000D+00 0.000000000000000D+00 0.623541298275474D+03
 0.607977132495797D+03 0.000000000000000D+00 0.000000000000000D+00 -.607977132495797D+03
 0.190128162656719D+03 0.713293336751698D+02 0.156816362429151D+03 -.150230249768337D+01
 0.418607501152379D+02 -.201581379102250D+02 -.220378601444703D+02 0.293309494639282D+02
 0.219951575146209D+03 -.148956296849834D+03 -.138671637380446D+03 -.834319724344844D+02
 0.365861044870269D+03 -.200963342804205D+03 0.289670663418004D+03 0.556033254682395D+02
 0.413716897982837D+03 0.298748443889094D+03 -.285777528322239D+03 0.155641657796760D+02
0.323074440131D-04 0.000000000000D+00 0.000000000000D+00 0.346974329501D-07 0.000000000000D+00  7 -1 1 24 -11 11 -24 21 0 0.10326150D-01 0.28529850D+00 0.11366552D+06 0.11366552D+06 0.11366552D+06 0.11171854D+01  1  2  2  2  7  2        1 0.850982602588D-03 0.100000000000D+01
-.179035951770D-05 0.000000000000D+00 -.124069091756D-06 0.346974329501D-07 0.000000000000D+00  7 -1 1 24 -11 11 -24 21 2 0.10326150D-01 0.28529850D+00 0.11366552D+06 0.11366552D+06 0.11366552D+06 0.11171854D+01  1  2  3  2  7  2        1 -.588584568856D-04 0.100000000000D+01
0.207525830542D-05 0.000000000000D+00 0.000000000000D+00 0.346974329501D-07 0.000000000000D+00  7 -1 1 24 -11 11 -24 21 2 0.10326150D-01 0.28529850D+00 0.11366552D+06 0.11366552D+06 0.11366552D+06 0.11171854D+01  1  2 15  2  7  2        1 0.682245662331D-04 0.100000000000D+01
  </mgrwgt>
  </event>
  <event>
  8     66 0.29788925E-05 0.24276364E+03 0.75467711E-02 0.94606065E-01
       -1 -1    0    0    0  501 0.00000000E+00 0.00000000E+00 0.88603019E+02 0.88603597E+02 0.32000000E+00 0.0000E+00 0.9000E+01
        1 -1    0    0  501    0 0.00000000E+00 0.00000000E+00 -.74208516E+03 0.74208523E+03 0.32000000E+00 0.0000E+00 0.9000E+01
       25  2    1    2    0    0 0.11298492E+03 0.81906591E+02 -.33509618E+03 0.47129849E+03 0.30059695E+03 0.0000E+00 0.0000E+00
       23  2    1    2    0    0 -.11298492E+03 -.81906591E+02 -.31838596E+03 0.35939034E+03 0.91200433E+02 0.0000E+00 0.0000E+00
       24  1    3    3    0    0 0.16047504E+03 -.33173701E+02 -.17004470E+03 0.24946974E+03 0.80419002E+02 0.0000E+00 0.9000E+01
      -11  1    4    4    0    0 0.23622874E+01 -.26873962E+02 -.16644078E+02 0.31698826E+02 0.51099893E-03 0.0000E+00 0.9000E+01
       11  1    4    4    0    0 -.11534720E+03 -.55032629E+02 -.30174188E+03 0.32769152E+03 0.51099893E-03 0.0000E+00 0.9000E+01
      -24  1    3    3    0    0 -.47490125E+02 0.11508029E+03 -.16505149E+03 0.22182875E+03 0.80419002E+02 0.0000E+00 0.9000E+01
#aMCatNLO 1  0  0  1  1 0.38138557D+03 0.00000000D+00  -5  7  0 0.00000000D+00 0.00000000D+00 0.00000000D+00 0.00000000D+00 0.00000000D+00
  <mgrwgt>
 0.5475543043D-03    5    2    0
 0.256420074506814D+03 0.000000000000000D+00 0.000000000000000D+00 0.256420074506814D+03
 0.256420074506814D+03 0.000000000000000D+00 0.000000000000000D+00 -.256420074506814D+03
 0.187408392612497D+03 0.160475041382509D+03 -.331737007215880D+02 0.424494563091906D+02
 0.301365893868634D+02 0.236228736390229D+01 -.268739622763415D+02 0.134321915506194D+02
 0.146296563297858D+03 -.115347203823684D+03 -.550326290647583D+02 -.711977298868621D+02
 0.148998603716410D+03 -.474901249227272D+02 0.115080292062688D+03 0.153160820270522D+02
 0.000000000000000D+00 0.000000000000000D+00 0.000000000000000D+00 0.000000000000000D+00
 0.226025885181200D+04 0.000000000000000D+00 0.000000000000000D+00 0.226025885181200D+04
 0.338291755210168D+03 0.000000000000000D+00 0.000000000000000D+00 -.338291755210168D+03
 0.136821556921837D+03 0.638160461082186D+02 -.798653767430717D+02 0.424494563091906D+02
 0.446677614407669D+02 -.199382848180595D+02 -.376463801817740D+02 0.134321915506194D+02
 0.277359333116547D+03 -.241646928288554D+03 -.116042427475987D+03 -.711977298868621D+02
 0.180260078268051D+03 -.145648279132922D+03 0.676644388123660D+02 0.153160820270522D+02
 0.195944187727497D+04 0.343417446131317D+03 0.165889745588467D+03 0.192196709660183D+04
0.618818787782D-05 0.000000000000D+00 0.000000000000D+00 0.678520104125D-06 0.000000000000D+00  7 -1 1 24 -11 11 -24 21 0 0.13631284D-01 0.11416700D+00 0.58934185D+05 0.58934185D+05 0.58934185D+05 0.11410678D+01  1  2  2  1  7  1       -1 0.657851742000D-03 0.100000000000D+01
-.342536219036D-06 0.000000000000D+00 -.237642708381D-07 0.678520104125D-06 0.000000000000D+00  7 -1 1 24 -11 11 -24 21 2 0.13631284D-01 0.11416700D+00 0.58934185D+05 0.58934185D+05 0.58934185D+05 0.11410678D+01  1  2  3  1  7  1       -1 -.474126159672D-04 0.100000000000D+01
0.401610813704D-06 0.000000000000D+00 0.000000000000D+00 0.678520104125D-06 0.000000000000D+00  7 -1 1 24 -11 11 -24 21 2 0.13631284D-01 0.11416700D+00 0.58934185D+05 0.58934185D+05 0.58934185D+05 0.11410678D+01  1  2 15  1  7  1       -1 0.555895062192D-04 0.100000000000D+01
-.211696811010D-04 0.000000000000D+00 -.470821891793D-05 0.678520104125D-06 0.000000000000D+00  7 -1 1 24 -11 11 -24 21 2 0.14206231D+00 0.11416700D+00 0.58934185D+05 0.58934185D+05 0.58934185D+05 0.11410678D+01  1  2  5  1  7  1       -1 -.384005879185D-04 0.100000000000D+01
-.666189124619D-05 0.000000000000D+00 -.130721170413D-05 0.678520104125D-06 0.000000000000D+00  7 21 1 24 -11 11 -24 1 2 0.14206231D+00 0.11416700D+00 0.58934185D+05 0.58934185D+05 0.58934185D+05 0.11410678D+01  1  2  5  3  7  1       -1 -.800737399934D-04 0.100000000000D+01
  </mgrwgt>
  </event>
  <event>
  8     66 0.29788925E-05 0.18792407E+03 0.75467711E-02 0.10023107E+00
       -1 -1    0    0    0  501 0.00000000E+00 0.00000000E+00 0.24680635E+03 0.24680656E+03 0.32000000E+00 0.0000E+00 0.9000E+01
        1 -1    0    0  501    0 0.00000000E+00 0.00000000E+00 -.17359967E+03 0.17359996E+03 0.32000000E+00 0.0000E+00 0.9000E+01
       25  2    1    2    0    0 -.30653138E+02 0.47827577E+02 0.33772344E+02 0.30737362E+03 0.30018474E+03 0.0000E+00 0.0000E+00
       23  2    1    2    0    0 0.30653138E+02 -.47827577E+02 0.39434340E+02 0.11303290E+03 0.89410725E+02 0.0000E+00 0.0000E+00
       24  1    3    3    0    0 -.85217213E+02 0.10859407E+03 -.47730109E+02 0.16673340E+03 0.80419002E+02 0.0000E+00 0.9000E+01
      -13  1    4    4    0    0 0.59905869E+02 -.36217153E+02 0.11479951E+02 0.70937971E+02 0.10565837E+00 0.0000E+00 0.9000E+01
       13  1    4    4    0    0 -.29252731E+02 -.11610424E+02 0.27954389E+02 0.42094931E+02 0.10565837E+00 0.0000E+00 0.9000E+01
      -24  1    3    3    0    0 0.54564075E+02 -.60766498E+02 0.81502454E+02 0.14064022E+03 0.80419002E+02 0.0000E+00 0.9000E+01
#aMCatNLO 1  0  0  1  1 0.19992968D+03 0.00000000D+00  -5  7  0 0.00000000D+00 0.00000000D+00 0.00000000D+00 0.00000000D+00 0.00000000D+00
  <mgrwgt>
 0.1500612837D-02    3    2    0
 0.206991801012496D+03 0.000000000000000D+00 0.000000000000000D+00 0.206991801012496D+03
 0.206991801012496D+03 0.000000000000000D+00 0.000000000000000D+00 -.206991801012496D+03
 0.177760604136046D+03 -.852172188225506D+02 0.108594091943884D+03 -.779548923382896D+02
 0.700086060202079D+02 0.599060214972168D+02 -.362172344818376D+02 -.886245877442846D+00
 0.378046769365045D+02 -.292528365680877D+02 -.116104160641986D+02 0.209442925354482D+02
 0.128409714932234D+03 0.545640338934215D+02 -.607664413978475D+02 0.578968456802842D+02
 0.000000000000000D+00 0.000000000000000D+00 0.000000000000000D+00 -.000000000000000D+00
 0.281396560480703D+03 0.000000000000000D+00 0.000000000000000D+00 0.281396560480703D+03
 0.423791217780574D+03 0.000000000000000D+00 0.000000000000000D+00 -.423791217780574D+03
 0.219886278988829D+03 -.171550501181046D+03 0.798512369236703D+02 -.779548923382896D+02
 0.558205210194132D+02 0.325872067028777D+02 -.453124606971128D+02 -.886245877442846D+00
 0.571577146717730D+02 -.498701614260846D+02 -.184745218077667D+02 0.209442925354482D+02
 0.126868344364856D+03 -.859493131442697D+00 -.792185418910217D+02 0.578968456802842D+02
 0.245454919216405D+03 0.189692949035696D+03 0.631542874722309D+02 -.142394657299871D+03
0.104039873434D-04 0.000000000000D+00 0.000000000000D+00 0.102574202595D-06 0.000000000000D+00  7 -1 1 24 -13 13 -24 21 0 0.37970246D-01 0.26707680D-01 0.35315454D+05 0.35315454D+05 0.35315454D+05 0.11608195D+01  1  2  2  1  7  1       -1 0.148054469253D-02 0.100000000000D+01
-.571435826685D-06 0.000000000000D+00 -.399540508314D-07 0.102574202595D-06 0.000000000000D+00  7 -1 1 24 -13 13 -24 21 2 0.37970246D-01 0.26707680D-01 0.35315454D+05 0.35315454D+05 0.35315454D+05 0.11608195D+01  1  2  3  1  7  1       -1 -.109576778218D-03 0.100000000000D+01
0.676089905808D-06 0.000000000000D+00 0.000000000000D+00 0.102574202595D-06 0.000000000000D+00  7 -1 1 24 -13 13 -24 21 2 0.37970246D-01 0.26707680D-01 0.35315454D+05 0.35315454D+05 0.35315454D+05 0.11608195D+01  1  2 15  1  7  1       -1 0.129644922849D-03 0.100000000000D+01
  </mgrwgt>
  </event>
  <event>
  8     66 0.29788925E-05 0.82981655E+02 0.75467711E-02 0.10581418E+00
       -1 -1    0    0    0  501 0.00000000E+00 0.00000000E+00 0.63067168E+02 0.63067979E+02 0.32000000E+00 0.0000E+00 0.9000E+01
        1 -1    0    0  501    0 0.00000000E+00 0.00000000E+00 -.74823018E+03 0.74823025E+03 0.32000000E+00 0.0000E+00 0.9000E+01
       25  2    1    2    0    0 0.28887818E+02 0.60715909E+02 -.40142977E+03 0.50563402E+03 0.29999830E+03 0.0000E+00 0.0000E+00
       23  2    1    2    0    0 -.28887818E+02 -.60715909E+02 -.28373324E+03 0.30566421E+03 0.91679470E+02 0.0000E+00 0.0000E+00
       24  1    3    3    0    0 -.65084486E+02 -.46959041E+02 -.63839584E+02 0.13032210E+03 0.80419002E+02 0.0000E+00 0.9000E+01
      -11  1    4    4    0    0 -.95087354E+01 -.66693812E+02 -.98561950E+02 0.11938567E+03 0.51099893E-03 0.0000E+00 0.9000E+01
       11  1    4    4    0    0 -.19379082E+02 0.59779026E+01 -.18517129E+03 0.18627853E+03 0.51099893E-03 0.0000E+00 0.9000E+01
      -24  1    3    3    0    0 0.93972304E+02 0.10767495E+03 -.33759019E+03 0.37531192E+03 0.80419002E+02 0.0000E+00 0.9000E+01
#aMCatNLO 1  0  0  2  1 0.48728703D+02 0.00000000D+00  -5  7  0 0.00000000D+00 0.00000000D+00 0.00000000D+00 0.00000000D+00 0.00000000D+00
  <mgrwgt>
 0.8470971562D-03    9    2    0
 0.217230557938073D+03 0.000000000000000D+00 0.000000000000000D+00 0.217230557938073D+03
 0.217230557938073D+03 0.000000000000000D+00 0.000000000000000D+00 -.217230557938073D+03
 0.142681512073426D+03 -.650844858250210D+02 -.469590411840721D+02 0.863113902631270D+02
 0.675005888699357D+02 -.950873552938586D+01 -.666938116938094D+02 0.422479918705877D+01
 0.558276035412821D+02 -.193790824100701D+02 0.597790222797294D+01 -.520138170783406D+02
 0.168451411391502D+03 0.939723037644769D+02 0.107674950649909D+03 -.385223723718451D+02
 0.000000000000000D+00 -.000000000000000D+00 0.000000000000000D+00 -.000000000000000D+00
 0.238021247352036D+03 0.000000000000000D+00 0.000000000000000D+00 0.238021247352036D+03
 0.249146606914391D+03 0.000000000000000D+00 0.000000000000000D+00 -.249146606914391D+03
 0.144816142361975D+03 -.575655282045748D+02 -.611641480575641D+02 0.863113902631270D+02
 0.740361768615727D+02 -.580710900530108D+01 -.736870683438258D+02 0.422479918705877D+01
 0.545682450855442D+02 -.164918876991135D+02 0.523301802750066D+00 -.520138170783406D+02
 0.163764691330285D+03 0.102660787856983D+03 0.912603289253395D+02 -.385223723718451D+02
 0.499825986270507D+02 -.227962629479941D+02 0.430675856733004D+02 -.111253595623556D+02
0.283696624701D-05 0.000000000000D+00 0.000000000000D+00 0.679399438642D-06 0.000000000000D+00  7 -1 1 24 -11 11 -24 21 0 0.97027089D-02 0.11511240D+00 0.33352047D+05 0.33352047D+05 0.33352047D+05 0.11630918D+01  1  2  2  2  7  2        1 0.500457742751D-03 0.100000000000D+01
-.151839279613D-06 0.000000000000D+00 -.108946973789D-07 0.679399438642D-06 0.000000000000D+00  7 -1 1 24 -11 11 -24 21 2 0.97027089D-02 0.11511240D+00 0.33352047D+05 0.33352047D+05 0.33352047D+05 0.11630918D+01  1  2  3  2  7  2        1 -.362347556105D-04 0.100000000000D+01
0.180851915875D-06 0.000000000000D+00 0.000000000000D+00 0.679399438642D-06 0.000000000000D+00  7 -1 1 24 -11 11 -24 21 2 0.97027089D-02 0.11511240D+00 0.33352047D+05 0.33352047D+05 0.33352047D+05 0.11630918D+01  1  2 15  2  7  2        1 0.431582986308D-04 0.100000000000D+01
0.267858559597D-05 0.000000000000D+00 0.000000000000D+00 0.679399438642D-06 0.000000000000D+00  7 -1 1 24 -11 11 -24 21 2 0.97027089D-02 0.13686220D+00 0.42972922D+05 0.42972922D+05 0.42972922D+05 0.11531263D+01  1  2 12  2  7  2        1 0.480089860944D-03 0.100000000000D+01
-.253210489726D-05 0.000000000000D+00 0.000000000000D+00 0.679399438642D-06 0.000000000000D+00  7 -1 1 24 -11 11 -24 21 2 0.97027089D-02 0.11511240D+00 0.33352047D+05 0.33352047D+05 0.33352047D+05 0.11630918D+01  1  2  4  2  7  2        1 -.604258676452D-03 0.100000000000D+01
-.644698408302D-05 0.000000000000D+00 -.191386961412D-05 0.679399438642D-06 0.000000000000D+00  7 -1 1 24 -11 11 -24 21 2 0.97027089D-02 0.14113122D+00 0.33352047D+05 0.33352047D+05 0.33352047D+05 0.11630918D+01  1  2  5  2  7  2        1 -.111784398826D-02 0.100000000000D+01
0.673571586994D-05 0.000000000000D+00 0.187480743406D-05 0.679399438642D-06 0.000000000000D+00  7 -1 1 24 -11 11 -24 21 2 0.97027089D-02 0.11511240D+00 0.33352047D+05 0.33352047D+05 0.33352047D+05 0.11630918D+01  1  2  6  2  7  2        1 0.160740369048D-02 0.100000000000D+01
0.684982121863D-07 0.000000000000D+00 0.000000000000D+00 0.679399438642D-06 0.000000000000D+00  7 -1 21 24 -11 11 -24 -1 2 0.97027089D-02 0.13686220D+00 0.42972922D+05 0.42972922D+05 0.42972922D+05 0.11531263D+01  1  2 12  4  7  2        1 0.203515234342D-04 0.100000000000D+01
-.164395107456D-06 0.000000000000D+00 -.555598474133D-07 0.679399438642D-06 0.000000000000D+00  7 -1 21 24 -11 11 -24 -1 2 0.97027089D-02 0.14113122D+00 0.33352047D+05 0.33352047D+05 0.33352047D+05 0.11630918D+01  1  2  5  4  7  2        1 -.460265397303D-04 0.100000000000D+01
  </mgrwgt>
  </event>
  <event>
  8     66 0.29788925E-05 0.24664249E+03 0.75467711E-02 0.96957135E-01
       -1 -1    0    0    0  501 0.00000000E+00 0.00000000E+00 0.16124162E+03 0.16124194E+03 0.32000000E+00 0.0000E+00 0.9000E+01
        1 -1    0    0  501    0 0.00000000E+00 0.00000000E+00 -.12237720E+04 0.12237721E+04 0.32000000E+00 0.0000E+00 0.9000E+01
       25  2    1    2    0    0 -.10200212E+03 -.32668780E+03 -.30219544E+03 0.54618509E+03 0.29977778E+03 0.0000E+00 0.0000E+00
       23  2    1    2    0    0 0.10200212E+03 0.32668780E+03 -.76033499E+03 0.83882894E+03 0.91626106E+02 0.0000E+00 0.0000E+00
       24  1    3    3    0    0 0.30477617E+02 0.63931255E+01 -.74600182E+02 0.11402702E+03 0.80419002E+02 0.0000E+00 0.9000E+01
      -13  1    4    4    0    0 -.67374775E+01 0.15534050E+02 -.93043165E+02 0.94571359E+02 0.10565837E+00 0.0000E+00 0.9000E+01
       13  1    4    4    0    0 0.10873960E+03 0.31115375E+03 -.66729182E+03 0.74425758E+03 0.10565837E+00 0.0000E+00 0.9000E+01
      -24  1    3    3    0    0 -.13247974E+03 -.33308092E+03 -.22759526E+03 0.43215807E+03 0.80419002E+02 0.0000E+00 0.9000E+01
#aMCatNLO 1  0  0  2  1 0.17700281D+02 0.00000000D+00  -5  7  0 0.00000000D+00 0.00000000D+00 0.00000000D+00 0.00000000D+00 0.00000000D+00
  <mgrwgt>
 0.1503399826D-02    9    2    0
 0.444210800553095D+03 0.000000000000000D+00 0.000000000000000D+00 0.444210800553095D+03
 0.444210800553095D+03 0.000000000000000D+00 0.000000000000000D+00 -.444210800553095D+03
 0.885436063410003D+02 0.304776165467160D+02 0.639312540578069D+01 0.200747878364079D+02
 0.361552219813330D+02 -.673763104713749D+01 0.155336570293280D+02 -.319454206998017D+02
 0.362203826874076D+03 0.108739753751108D+03 0.311154139898996D+03 -.150167837369025D+03
 0.401518945909780D+03 -.132479739250687D+03 -.333080922334105D+03 0.162038470232419D+03
 0.000000000000000D+00 -.000000000000000D+00 -.000000000000000D+00 -.000000000000000D+00
 0.448685303931862D+03 0.000000000000000D+00 0.000000000000000D+00 0.448685303931862D+03
 0.462155482494493D+03 0.000000000000000D+00 0.000000000000000D+00 -.462155482494493D+03
 0.889085026209619D+02 0.311453519027282D+02 0.802968443399182D+01 0.200747878364079D+02
 0.363982337448382D+02 -.646461931528138D+01 0.162027841177079D+02 -.319454206998017D+02
 0.368833973688434D+03 0.111490579249167D+03 0.317896164659776D+03 -.150167837369025D+03
 0.394457197473834D+03 -.129484556964105D+03 -.325740001162104D+03 0.162038470232419D+03
 0.222428788982879D+02 -.668675487250907D+01 -.163886320493721D+02 -.134701785626313D+02
0.320744104692D-04 0.000000000000D+00 0.000000000000D+00 0.553914512573D-05 0.000000000000D+00  7 -1 1 24 -13 13 -24 21 0 0.24806431D-01 0.18827265D+00 0.16005916D+06 0.16005916D+06 0.16005916D+06 0.11053342D+01  1  2  2  2  7  2        1 0.550072912714D-03 0.100000000000D+01
-.175818458871D-05 0.000000000000D+00 -.123174181588D-06 0.553914512573D-05 0.000000000000D+00  7 -1 1 24 -13 13 -24 21 2 0.24806431D-01 0.18827265D+00 0.16005916D+06 0.16005916D+06 0.16005916D+06 0.11053342D+01  1  2  3  2  7  2        1 -.368394612894D-04 0.100000000000D+01
0.204760579869D-05 0.000000000000D+00 0.000000000000D+00 0.553914512573D-05 0.000000000000D+00  7 -1 1 24 -13 13 -24 21 2 0.24806431D-01 0.18827265D+00 0.16005916D+06 0.16005916D+06 0.16005916D+06 0.11053342D+01  1  2 15  2  7  2        1 0.429037400518D-04 0.100000000000D+01
0.105137414748D-03 0.000000000000D+00 0.000000000000D+00 0.553914512573D-05 0.000000000000D+00  7 -1 1 24 -13 13 -24 21 2 0.24806431D-01 0.19680176D+00 0.16739403D+06 0.16739403D+06 0.16739403D+06 0.11038113D+01  1  2 12  2  7  2        1 0.200776627387D-02 0.100000000000D+01
-.105539802017D-03 0.000000000000D+00 0.000000000000D+00 0.553914512573D-05 0.000000000000D+00  7 -1 1 24 -13 13 -24 21 2 0.24806431D-01 0.18827265D+00 0.16005916D+06 0.16005916D+06 0.16005916D+06 0.11053342D+01  1  2  4  2  7  2        1 -.221138865388D-02 0.100000000000D+01
-.638098788733D-03 0.000000000000D+00 -.819636159647D-04 0.553914512573D-05 0.000000000000D+00  7 -1 1 24 -13 13 -24 21 2 0.24806431D-01 0.19689231D+00 0.16005916D+06 0.16005916D+06 0.16005916D+06 0.11053342D+01  1  2  5  2  7  2        1 -.122234705853D-01 0.100000000000D+01
0.641207422319D-03 0.000000000000D+00 0.818815579931D-04 0.553914512573D-05 0.000000000000D+00  7 -1 1 24 -13 13 -24 21 2 0.24806431D-01 0.18827265D+00 0.16005916D+06 0.16005916D+06 0.16005916D+06 0.11053342D+01  1  2  6  2  7  2        1 0.134352992085D-01 0.100000000000D+01
0.174714922400D-05 0.000000000000D+00 0.000000000000D+00 0.553914512573D-05 0.000000000000D+00  7 -1 21 24 -13 13 -24 -1 2 0.24806431D-01 0.19680176D+00 0.16739403D+06 0.16739403D+06 0.16739403D+06 0.11038113D+01  1  2 12  4  7  2        1 0.329611893890D-04 0.100000000000D+01
-.495578700917D-05 0.000000000000D+00 -.644045834361D-06 0.553914512573D-05 0.000000000000D+00  7 -1 21 24 -13 13 -24 -1 2 0.24806431D-01 0.19689231D+00 0.16005916D+06 0.16005916D+06 0.16005916D+06 0.11053342D+01  1  2  5  4  7  2        1 -.939047976653D-04 0.100000000000D+01
  </mgrwgt>
  </event>
  <event>
  8     66 0.29788925E-05 0.36139224E+02 0.75467711E-02 0.10663487E+00
       -1 -1    0    0    0  501 0.00000000E+00 0.00000000E+00 0.77845246E+02 0.77845903E+02 0.32000000E+00 0.0000E+00 0.9000E+01
        1 -1    0    0  501    0 0.00000000E+00 0.00000000E+00 -.92500043E+03 0.92500049E+03 0.32000000E+00 0.0000E+00 0.9000E+01
       25  2    1    2    0    0 0.87689292E+01 -.26162812E+02 -.85555900E+03 0.90745596E+03 0.30122039E+03 0.0000E+00 0.0000E+00
       23  2    1    2    0    0 -.87689292E+01 0.26162812E+02 0.84038157E+01 0.95390434E+02 0.90924825E+02 0.0000E+00 0.0000E+00
       24  1    3    3    0    0 -.58076411E+02 0.21807885E+02 -.73049340E+03 0.73752036E+03 0.80419002E+02 0.0000E+00 0.9000E+01
      -11  1    4    4    0    0 -.11461302E+02 0.57878631E+02 -.80670863E+01 0.59551451E+02 0.51099893E-03 0.0000E+00 0.9000E+01
       11  1    4    4    0    0 0.26923731E+01 -.31715819E+02 0.16470902E+02 0.35838983E+02 0.51099893E-03 0.0000E+00 0.9000E+01
      -24  1    3    3    0    0 0.66845340E+02 -.47970697E+02 -.12506560E+03 0.16993560E+03 0.80419002E+02 0.0000E+00 0.9000E+01
#aMCatNLO 1  0  0  1  2 0.68187645D+02 0.00000000D+00  -5  7  0 0.00000000D+00 0.00000000D+00 0.00000000D+00 0.00000000D+00 0.00000000D+00
  <mgrwgt>
 0.6093362950D-03    6    2    0
 0.268341653973434D+03 0.000000000000000D+00 0.000000000000000D+00 0.268341653973434D+03
 0.268341653973434D+03 0.000000000000000D+00 0.000000000000000D+00 -.268341653973434D+03
 0.225045858003648D+03 -.580764112225497D+02 0.218078847795483D+02 -.200823227917437D+03
 0.985439322789301D+02 -.114613023180128D+02 0.578786313881665D+02 0.789278731932023D+02
 0.929680570046156D+02 0.269237306825478D+01 -.317158192048442D+02 0.873493993261570D+02
 0.120125460659674D+03 0.668453404723078D+02 -.479706969628706D+02 0.345459553980779D+02
 0.000000000000000D+00 0.000000000000000D+00 0.000000000000000D+00 -.000000000000000D+00
 0.303175825538319D+03 0.000000000000000D+00 0.000000000000000D+00 0.303175825538319D+03
 0.306070968399054D+03 0.000000000000000D+00 0.000000000000000D+00 -.306070968399054D+03
 0.233749562324145D+03 -.867937704846478D+02 0.175645798765063D+02 -.200823227917437D+03
 0.997017708883770D+02 -.238700859016748D+02 0.560450974709015D+02 0.789278731932023D+02
 0.939660514130277D+02 -.900838441954669D+01 -.334447344983483D+02 0.873493993261570D+02
 0.113580330634761D+03 0.522170053301651D+02 -.501321939746769D+02 0.345459553980779D+02
 0.682490786770626D+02 0.674552354757041D+02 0.996725112561733D+01 -.289514286073498D+01
0.677156570109D-05 0.000000000000D+00 0.000000000000D+00 0.218096593772D-06 0.000000000000D+00  7 -1 1 24 -11 11 -24 21 0 0.11976246D-01 0.14230781D+00 0.23631279D+05 0.23631279D+05 0.23631279D+05 0.11770751D+01  1  2  2  1  7  1       -1 0.622164165170D-03 0.100000000000D+01
-.234239754614D-06 0.000000000000D+00 -.260045952864D-07 0.218096593772D-06 0.000000000000D+00  7 -1 1 24 -11 11 -24 21 2 0.11976246D-01 0.14230781D+00 0.23631279D+05 0.23631279D+05 0.23631279D+05 0.11770751D+01  1  2  3  1  7  1       -1 -.298184361159D-04 0.100000000000D+01
0.423829563574D-06 0.000000000000D+00 0.000000000000D+00 0.218096593772D-06 0.000000000000D+00  7 -1 1 24 -11 11 -24 21 2 0.11976246D-01 0.14230781D+00 0.23631279D+05 0.23631279D+05 0.23631279D+05 0.11770751D+01  1  2 15  1  7  1       -1 0.539529884083D-04 0.100000000000D+01
0.344285922841D-05 0.000000000000D+00 0.000000000000D+00 0.218096593772D-06 0.000000000000D+00  7 -1 1 24 -11 11 -24 21 2 0.14266812D-01 0.14230781D+00 0.38329796D+05 0.38329796D+05 0.38329796D+05 0.11575894D+01  1  2 12  1  7  1       -1 0.323382925054D-03 0.100000000000D+01
-.370506647729D-05 0.000000000000D+00 0.000000000000D+00 0.218096593772D-06 0.000000000000D+00  7 -1 1 24 -11 11 -24 21 2 0.11976246D-01 0.14230781D+00 0.23631279D+05 0.23631279D+05 0.23631279D+05 0.11770751D+01  1  2  4  1  7  1       -1 -.471650460189D-03 0.100000000000D+01
0.888210141034D-07 0.000000000000D+00 0.000000000000D+00 0.218096593772D-06 0.000000000000D+00  7 21 1 24 -11 11 -24 1 2 0.14266812D-01 0.14230781D+00 0.38329796D+05 0.38329796D+05 0.38329796D+05 0.11575894D+01  1  2 12  3  7  1       -1 0.111305112633D-03 0.100000000000D+01
  </mgrwgt>
  </event>
  <event>
  9     66 0.29788925E-05 0.19153103E+03 0.75467711E-02 0.10593206E+00
       -1 -1    0    0    0  501 0.00000000E+00 0.00000000E+00 0.19487070E+03 0.19487096E+03 0.32000000E+00 0.0000E+00 0.9000E+01
        1 -1    0    0  502    0 0.00000000E+00 0.00000000E+00 -.42797294E+03 0.42797306E+03 0.32000000E+00 0.0000E+00 0.9000E+01
       25  2    1    2    0    0 -.77872458E+02 -.50979240E+02 0.35925045E+01 0.31409105E+03 0.29996213E+03 0.0000E+00 0.0000E+00
       23  2    1    2    0    0 0.85365811E+02 0.20629083E+02 -.24453791E+03 0.27651386E+03 0.94595146E+02 0.0000E+00 0.0000E+00
       24  1    3    3    0    0 -.27020215E+02 -.11305037E+03 -.89431772E+02 0.16725949E+03 0.80419002E+02 0.0000E+00 0.9000E+01
      -13  1    4    4    0    0 -.80125118E+01 -.21194998E+02 -.22003984E+02 0.31585040E+02 0.10565837E+00 0.0000E+00 0.9000E+01
       13  1    4    4    0    0 0.93378323E+02 0.41824081E+02 -.22253393E+03 0.24492882E+03 0.10565837E+00 0.0000E+00 0.9000E+01
      -24  1    3    3    0    0 -.50852244E+02 0.62071129E+02 0.93024277E+02 0.14683156E+03 0.80419002E+02 0.0000E+00 0.9000E+01
       21  1    1    2  502  501 -.74933530E+01 0.30350157E+02 0.78431673E+01 0.32239109E+02 0.75000000E+00 0.0000E+00 0.9000E+01
#aMCatNLO 2  0  0  2  2 0.31261516D+02 0.00000000D+00  -5  7  0 0.00000000D+00 0.00000000D+00 0.00000000D+00 0.00000000D+00 0.00000000D+00
  <mgrwgt>
 0.2638853249D-03    1    2    0
 0.269157102471825D+03 0.000000000000000D+00 0.000000000000000D+00 0.269157102471825D+03
 0.269157102471825D+03 0.000000000000000D+00 0.000000000000000D+00 -.269157102471825D+03
 0.137480069027407D+03 -.289723632281592D+02 -.105143632441170D+03 -.232157737640112D+02
 0.237206983226297D+02 -.834979361109024D+01 -.198294823444851D+02 -.998719708001980D+01
 0.170174560027649D+03 0.910209442476852D+02 0.513727047351737D+02 -.134295993227856D+03
 0.206938877565965D+03 -.536987874084358D+02 0.736004100504818D+02 0.167498964071887D+03
 0.000000000000000D+00 -.000000000000000D+00 0.000000000000000D+00 0.000000000000000D+00
 0.300512808599808D+03 0.000000000000000D+00 0.000000000000000D+00 0.300512808599808D+03
 0.277516828675121D+03 0.000000000000000D+00 0.000000000000000D+00 -.277516828675121D+03
 0.143236399833724D+03 -.270202160832424D+02 -.113050369545212D+03 -.232157737640112D+02
 0.247624202200171D+02 -.801263426371148D+01 -.211950711674566D+02 -.998719708001980D+01
 0.168831894497862D+03 0.933784492597538D+02 0.418241558973340D+02 -.134295993227856D+03
 0.202390451216329D+03 -.508522459007184D+02 0.620711278363471D+02 0.167498964071887D+03
 0.388084715069976D+02 -.749335301208150D+01 0.303501569789873D+02 0.229959799246869D+02
0.301560591916D-05 0.000000000000D+00 0.000000000000D+00 0.290506637821D-06 0.212012580323D-08  7 -1 1 24 -13 13 -24 21 2 0.29979752D-01 0.65841174D-01 0.42268219D+05 0.42268219D+05 0.42268219D+05 0.11537684D+01  1  2  1  2  7  2        1 0.263885324873D-03 0.100000000000D+01
  </mgrwgt>
  </event>
  <event>
  8     66 0.29788925E-05 0.13087656E+03 0.75467711E-02 0.94752896E-01
       -1 -1    0    0    0  501 0.00000000E+00 0.00000000E+00 0.11283698E+03 0.11283744E+03 0.32000000E+00 0.0000E+00 0.9000E+01
        1 -1    0    0  501    0 0.00000000E+00 0.00000000E+00 -.11871228E+04 0.11871228E+04 0.32000000E+00 0.0000E+00 0.9000E+01
       25  2    1    2    0    0 0.27614135E+03 0.98226496E+02 -.53809603E+03 0.68224423E+03 0.30001227E+03 0.0000E+00 0.0000E+00
       23  2    1    2    0    0 -.27614135E+03 -.98226496E+02 -.53618974E+03 0.61771600E+03 0.90394347E+02 0.0000E+00 0.0000E+00
       24  1    3    3    0    0 0.17465751E+03 0.16996222E+02 -.98254424E+02 0.21659932E+03 0.80419002E+02 0.0000E+00 0.9000E+01
      -11  1    4    4    0    0 -.12355569E+03 -.86020895E+02 -.30964347E+03 0.34430319E+03 0.51099893E-03 0.0000E+00 0.9000E+01
       11  1    4    4    0    0 -.15258565E+03 -.12205602E+02 -.22654626E+03 0.27341282E+03 0.51099893E-03 0.0000E+00 0.9000E+01
      -24  1    3    3    0    0 0.10148384E+03 0.81230274E+02 -.43984161E+03 0.46564491E+03 0.80419002E+02 0.0000E+00 0.9000E+01
#aMCatNLO 1  0  0  2  1 0.27256761D+03 0.00000000D+00  -5  7  0 0.00000000D+00 0.00000000D+00 0.00000000D+00 0.00000000D+00 0.00000000D+00
  <mgrwgt>
 0.2838004436D-03    7    2    0
 0.365994089277103D+03 0.000000000000000D+00 0.000000000000000D+00 0.365994089277103D+03
 0.365994089277103D+03 0.000000000000000D+00 0.000000000000000D+00 -.365994089277103D+03
 0.240464500766367D+03 0.174657509702969D+03 0.169962219264800D+02 0.143394012842346D+03
 0.157017390196072D+03 -.123555692569876D+03 -.860208947760168D+02 -.445966065917269D+02
 0.153076736982658D+03 -.152585654914965D+03 -.122056015245748D+02 -.106236098014281D+01
 0.181429550609110D+03 0.101483837781873D+03 0.812302743741116D+02 -.977350452704761D+02
 0.000000000000000D+00 -.000000000000000D+00 -.000000000000000D+00 -.000000000000000D+00
 0.411096238744508D+03 0.000000000000000D+00 0.000000000000000D+00 0.411096238744508D+03
 0.129427369983775D+04 0.000000000000000D+00 0.000000000000000D+00 -.129427369983775D+04
 0.312231588824591D+03 0.253975252908984D+03 0.771756250142806D+02 0.143394012842346D+03
 0.111536614454076D+03 -.850153482849149D+02 -.567798344518065D+02 -.445966065917269D+02
 0.115333598024920D+03 -.114065928745512D+03 0.170198155673157D+02 -.106236098014281D+01
 0.241987050126156D+03 0.162248604963668D+03 0.127333293319970D+03 -.977350452704761D+02
 0.924281087152516D+03 -.217142580842225D+03 -.164748899449760D+03 -.883177461093244D+03
0.867247277505D-05 0.000000000000D+00 0.000000000000D+00 0.691247268980D-06 0.000000000000D+00  7 -1 1 24 -11 11 -24 21 0 0.17359574D-01 0.18263431D+00 0.10546602D+06 0.10546602D+06 0.10546602D+06 0.11198303D+01  1  2  2  2  7  2        1 0.283533795068D-03 0.100000000000D+01
-.473432302038D-06 0.000000000000D+00 -.333045789707D-07 0.691247268980D-06 0.000000000000D+00  7 -1 1 24 -11 11 -24 21 2 0.17359574D-01 0.18263431D+00 0.10546602D+06 0.10546602D+06 0.10546602D+06 0.11198303D+01  1  2  3  2  7  2        1 -.194099407855D-04 0.100000000000D+01
0.548680399592D-06 0.000000000000D+00 0.000000000000D+00 0.691247268980D-06 0.000000000000D+00  7 -1 1 24 -11 11 -24 21 2 0.17359574D-01 0.18263431D+00 0.10546602D+06 0.10546602D+06 0.10546602D+06 0.11198303D+01  1  2 15  2  7  2        1 0.224949882388D-04 0.100000000000D+01
0.847159966790D-06 0.000000000000D+00 0.000000000000D+00 0.691247268980D-06 0.000000000000D+00  7 -1 1 24 -11 11 -24 21 2 0.17359574D-01 0.62287500D+00 0.24446000D+06 0.24446000D+06 0.24446000D+06 0.10911920D+01  1  2 12  2  7  2        1 0.249881845236D-06 0.100000000000D+01
-.142402783133D-04 0.000000000000D+00 -.261296416672D-05 0.691247268980D-06 0.000000000000D+00  7 -1 1 24 -11 11 -24 21 2 0.17359574D-01 0.65367016D+00 0.10546602D+06 0.10546602D+06 0.10546602D+06 0.11198303D+01  1  2  5  2  7  2        1 -.304075789308D-05 0.100000000000D+01
0.121062775120D-06 0.000000000000D+00 0.000000000000D+00 0.691247268980D-06 0.000000000000D+00  7 -1 21 24 -11 11 -24 -1 2 0.17359574D-01 0.62287500D+00 0.24446000D+06 0.24446000D+06 0.24446000D+06 0.10911920D+01  1  2 12  4  7  2        1 0.281686454871D-08 0.100000000000D+01
-.205684609678D-05 0.000000000000D+00 -.391228277229D-06 0.691247268980D-06 0.000000000000D+00  7 -1 21 24 -11 11 -24 -1 2 0.17359574D-01 0.65367016D+00 0.10546602D+06 0.10546602D+06 0.10546602D+06 0.11198303D+01  1  2  5  4  7  2        1 -.303397078229D-07 0.100000000000D+01
  </mgrwgt>
  </event>
  <event>
  7     66 0.29788925E-05 0.24416670E+03 0.75467711E-02 0.92284803E-01
       -1 -1    0    0    0  501 0.00000000E+00 0.00000000E+00 0.87409491E+03 0.87409497E+03 0.32000000E+00 0.0000E+00 0.9000E+01
        1 -1    0    0  501    0 0.00000000E+00 0.00000000E+00 -.39371481E+03 0.39371494E+03 0.32000000E+00 0.0000E+00 0.9000E+01
       25  2    1    2    0    0 0.67426414E+02 0.50279630E+03 0.42012640E+03 0.72402003E+03 0.30058007E+03 0.0000E+00 0.0000E+00
       24  1    3    3    0    0 0.15693780E+03 0.36215174E+03 0.31336968E+03 0.51034412E+03 0.80419002E+02 0.0000E+00 0.9000E+01
      -11  1    1    2    0    0 0.52423376E+01 -.12021813E+03 -.62350970E+02 0.13552684E+03 0.51099893E-03 0.0000E+00 0.9000E+01
       11  1    1    2    0    0 -.72668752E+02 -.38257817E+03 0.12260467E+03 0.40826304E+03 0.51099893E-03 0.0000E+00 0.9000E+01
      -24  1    3    3    0    0 -.89511386E+02 0.14064456E+03 0.10675672E+03 0.21367591E+03 0.80419002E+02 0.0000E+00 0.9000E+01
#aMCatNLO 1  0  0  2  1 0.12864726D+03 0.00000000D+00  -5  7  0 0.00000000D+00 0.00000000D+00 0.00000000D+00 0.00000000D+00 0.00000000D+00
  <mgrwgt>
 0.1429723866D-02    9    2    0
 0.586638078046877D+03 0.000000000000000D+00 0.000000000000000D+00 0.586638078046877D+03
 0.586638078046877D+03 0.000000000000000D+00 0.000000000000000D+00 -.586638078046877D+03
 0.423159356731068D+03 0.156937800790429D+03 0.362151737615478D+03 0.129665997315542D+03
 0.171975231200201D+03 0.524233669662537D+01 -.120218133852695D+03 -.122864145890073D+03
 0.390959178394163D+03 -.726687512048673D+02 -.382578167879972D+03 -.346738695643912D+02
 0.187182389768322D+03 -.895113862821869D+02 0.140644564117189D+03 0.278720181389226D+02
 0.000000000000000D+00 0.000000000000000D+00 0.000000000000000D+00 -.000000000000000D+00
 0.598937945501035D+03 0.000000000000000D+00 0.000000000000000D+00 0.598937945501035D+03
 0.106118811100101D+04 0.000000000000000D+00 0.000000000000000D+00 -.106118811100101D+04
 0.382563779282265D+03 0.136172803506708D+03 0.323313355724208D+03 0.129665997315542D+03
 0.184359436067175D+03 -.394107639799392D+01 -.137394582275048D+03 -.122864145890073D+03
 0.434052647670611D+03 -.939308542295333D+02 -.422346325120758D+03 -.346738695643912D+02
 0.179332171746821D+03 -.989571543557750D+02 0.122977412868102D+03 0.278720181389226D+02
 0.479818021735177D+03 0.606562814765940D+02 0.113450138803496D+03 -.462250165499979D+03
0.385906553612D-03 0.000000000000D+00 0.000000000000D+00 0.154309807058D-08 0.000000000000D+00  7 -1 1 24 -11 11 -24 21 0 0.13447615D+00 0.60571524D-01 0.30120886D+06 0.30120886D+06 0.30120886D+06 0.10844227D+01  1  2  2  2  7  2        1 0.140655300662D-02 0.100000000000D+01
-.213235323137D-04 0.000000000000D+00 -.148198277740D-05 0.154309807058D-08 0.000000000000D+00  7 -1 1 24 -11 11 -24 21 2 0.13447615D+00 0.60571524D-01 0.30120886D+06 0.30120886D+06 0.30120886D+06 0.10844227D+01  1  2  3  2  7  2        1 -.913966504513D-04 0.100000000000D+01
0.247283430386D-04 0.000000000000D+00 0.000000000000D+00 0.154309807058D-08 0.000000000000D+00  7 -1 1 24 -11 11 -24 21 2 0.13447615D+00 0.60571524D-01 0.30120886D+06 0.30120886D+06 0.30120886D+06 0.10844227D+01  1  2 15  2  7  2        1 0.105990306469D-03 0.100000000000D+01
0.199731120231D-02 0.000000000000D+00 0.000000000000D+00 0.154309807058D-08 0.000000000000D+00  7 -1 1 24 -11 11 -24 21 2 0.13447615D+00 0.10973119D+00 0.38182262D+06 0.38182262D+06 0.38182262D+06 0.10768867D+01  1  2 12  2  7  2        1 0.356961152568D-02 0.100000000000D+01
-.177398054877D-02 0.000000000000D+00 0.000000000000D+00 0.154309807058D-08 0.000000000000D+00  7 -1 1 24 -11 11 -24 21 2 0.13447615D+00 0.60571524D-01 0.30120886D+06 0.30120886D+06 0.30120886D+06 0.10844227D+01  1  2  4  2  7  2        1 -.760361265374D-02 0.100000000000D+01
-.204965450001D-02 0.000000000000D+00 -.131066152671D-03 0.154309807058D-08 0.000000000000D+00  7 -1 1 24 -11 11 -24 21 2 0.13447615D+00 0.11046794D+00 0.30120886D+06 0.30120886D+06 0.30120886D+06 0.10844227D+01  1  2  5  2  7  2        1 -.372403310384D-02 0.100000000000D+01
0.181188893861D-02 0.000000000000D+00 0.110507458068D-03 0.154309807058D-08 0.000000000000D+00  7 -1 1 24 -11 11 -24 21 2 0.13447615D+00 0.60571524D-01 0.30120886D+06 0.30120886D+06 0.30120886D+06 0.10844227D+01  1  2  6  2  7  2        1 0.776609510763D-02 0.100000000000D+01
0.129982859558D-03 0.000000000000D+00 0.000000000000D+00 0.154309807058D-08 0.000000000000D+00  7 -1 21 24 -11 11 -24 -1 2 0.13447615D+00 0.10973119D+00 0.38182262D+06 0.38182262D+06 0.38182262D+06 0.10768867D+01  1  2 12  4  7  2        1 0.457202927031D-03 0.100000000000D+01
-.127603773900D-03 0.000000000000D+00 -.861391348305D-05 0.154309807058D-08 0.000000000000D+00  7 -1 21 24 -11 11 -24 -1 2 0.13447615D+00 0.11046794D+00 0.30120886D+06 0.30120886D+06 0.30120886D+06 0.10844227D+01  1  2  5  4  7  2        1 -.456686599026D-03 0.100000000000D+01
  </mgrwgt>
  </event>
  <event>
  9     66 0.29788925E-05 0.25784084E+03 0.75467711E-02 0.10256375E+00
       -1 -1    0    0    0  501 0.00000000E+00 0.00000000E+00 0.12085843E+03 0.12085886E+03 0.32000000E+00 0.0000E+00 0.9000E+01
        1 -1    0    0  502    0 0.00000000E+00 0.00000000E+00 -.60414068E+03 0.60414077E+03 0.32000000E+00 0.0000E+00 0.9000E+01
       25  2    1    2    0    0 -.16493496E+03 0.90268792E+01 -.37742529E+03 0.50973612E+03 0.30016002E+03 0.0000E+00 0.0000E+00
       23  2    1    2    0    0 0.15598368E+03 -.77206148E+01 -.10393327E+03 0.20598477E+03 0.85071046E+02 0.0000E+00 0.0000E+00
       24  1    3    3    0    0 -.44384510E+02 0.12381620E+03 -.13541176E+03 0.20519258E+03 0.80419002E+02 0.0000E+00 0.9000E+01
      -11  1    4    4    0    0 0.13419829E+03 -.37897530E+02 -.71965961E+02 0.15692197E+03 0.51099893E-03 0.0000E+00 0.9000E+01
       11  1    4    4    0    0 0.21785389E+02 0.30176915E+02 -.31967313E+02 0.49062801E+02 0.51099893E-03 0.0000E+00 0.9000E+01
      -24  1    3    3    0    0 -.12055045E+03 -.11478932E+03 -.24201353E+03 0.30454354E+03 0.80419002E+02 0.0000E+00 0.9000E+01
       21  1    1    2  502  501 0.89512834E+01 -.13062643E+01 -.19236847E+01 0.92787318E+01 0.75000000E+00 0.0000E+00 0.9000E+01
#aMCatNLO 2  0  0  2  1 0.90460931D+01 0.00000000D+00  -5  7  0 0.00000000D+00 0.00000000D+00 0.00000000D+00 0.00000000D+00 0.00000000D+00
  <mgrwgt>
 0.4198045623D-03    2    2    0
 0.264796381438201D+03 0.000000000000000D+00 0.000000000000000D+00 0.264796381438201D+03
 0.264796381438201D+03 0.000000000000000D+00 0.000000000000000D+00 -.264796381438201D+03
 0.153174251684236D+03 -.417869864295530D+02 0.123437144774205D+03 0.350063991054551D+01
 0.149023277299970D+03 0.136696790102911D+03 -.382621372046279D+02 0.453644531469160D+02
 0.375441695214102D+02 0.224173937047640D+02 0.300846867536529D+02 0.139167074862396D+01
 0.189851064370786D+03 -.117327197378122D+03 -.115259694323230D+03 -.502567638060855D+02
 0.000000000000000D+00 0.000000000000000D+00 -.000000000000000D+00 0.000000000000000D+00
 0.273133119034099D+03 0.000000000000000D+00 0.000000000000000D+00 0.273133119034099D+03
 0.267300382620542D+03 0.000000000000000D+00 0.000000000000000D+00 -.267300382620542D+03
 0.154207351054770D+03 -.443845098022451D+02 0.123816202392053D+03 0.350063991054551D+01
 0.146640163932243D+03 0.134198290868709D+03 -.378975302186554D+02 0.453644531469160D+02
 0.372449481555096D+02 0.217853894486285D+02 0.301769153858642D+02 0.139167074862396D+01
 0.191577553274724D+03 -.120550453879225D+03 -.114789323221332D+03 -.502567638060855D+02
 0.107634852373933D+02 0.895128336413258D+01 -.130626433792950D+01 0.583273641355753D+01
-.101038065278D-04 0.000000000000D+00 0.000000000000D+00 0.332605885048D-07 0.000000000000D+00  7 -1 1 24 -11 11 -24 21 2 0.18025242D-01 0.92069605D-01 0.66481898D+05 0.66481898D+05 0.66481898D+05 0.11365683D+01  1  2  8  2  7  2        1 -.122845614209D-02 0.100000000000D+01
0.144660460866D-04 0.000000000000D+00 0.000000000000D+00 0.332605885048D-07 0.279728279688D-08  7 -1 1 24 -11 11 -24 21 2 0.18592741D-01 0.92940245D-01 0.68839992D+05 0.68839992D+05 0.68839992D+05 0.11352771D+01  1  2  1  2  7  2        1 0.164826070436D-02 0.100000000000D+01
  </mgrwgt>
  </event>
  <event>
  9     66 0.29788925E-05 0.28304678E+03 0.75467711E-02 0.95416855E-01
       -1 -1    0    0    0  501 0.00000000E+00 0.00000000E+00 0.88914980E+03 0.88914985E+03 0.32000000E+00 0.0000E+00 0.9000E+01
       21 -1    0    0  501  502 0.00000000E+00 0.00000000E+00 -.35203300E+03 0.35203380E+03 0.75000000E+00 0.0000E+00 0.9000E+01
       25  2    1    2    0    0 0.97911055E+02 -.71874368E+02 -.10248292E+03 0.34157890E+03 0.30235888E+03 0.0000E+00 0.0000E+00
       23  2    1    2    0    0 -.28986237E+03 -.13647967E+03 0.44538046E+03 0.55612560E+03 0.90912252E+02 0.0000E+00 0.0000E+00
       24  1    3    3    0    0 -.70753862E+02 -.86388858E+02 -.55354738E+02 0.14832568E+03 0.80419002E+02 0.0000E+00 0.9000E+01
      -13  1    4    4    0    0 -.86006104E+02 -.68475391E+02 0.96038736E+02 0.14597732E+03 0.10565837E+00 0.0000E+00 0.9000E+01
       13  1    4    4    0    0 -.20385627E+03 -.68004279E+02 0.34934172E+03 0.41014828E+03 0.10565837E+00 0.0000E+00 0.9000E+01
      -24  1    3    3    0    0 0.16866492E+03 0.14514491E+02 -.47128183E+02 0.19325322E+03 0.80419002E+02 0.0000E+00 0.9000E+01
       -1  1    1    2    0  502 0.19195131E+03 0.20835404E+03 0.19421925E+03 0.34347916E+03 0.32000000E+00 0.0000E+00 0.9000E+01
#aMCatNLO 2  0  0  2  1 0.28329616D+03 0.00000000D+00  -5  7  0 0.00000000D+00 0.00000000D+00 0.00000000D+00 0.00000000D+00 0.00000000D+00
  <mgrwgt>
 0.2925338357D-04    1    2    0
 0.389883934953911D+03 0.000000000000000D+00 0.000000000000000D+00 0.389883934953911D+03
 0.389883934953911D+03 0.000000000000000D+00 0.000000000000000D+00 -.389883934953911D+03
 0.154600967807670D+03 -.304440342285454D+02 -.426344545641838D+02 -.121201102951265D+03
 0.863548949222060D+02 -.616017785677857D+02 -.419858278092472D+02 0.435841601672325D+02
 0.250208135625627D+03 -.138303838741683D+03 0.314994131535729D+01 0.208485580298199D+03
 0.288603871552320D+03 0.230349651538014D+03 0.814703410580737D+02 -.130868637514166D+03
 0.000000000000000D+00 0.000000000000000D+00 0.000000000000000D+00 0.000000000000000D+00
 0.594606673889135D+03 0.000000000000000D+00 0.000000000000000D+00 0.594606673889135D+03
 0.526416066871675D+03 0.000000000000000D+00 0.000000000000000D+00 -.526416066871675D+03
 0.183374117916160D+03 -.707538617423365D+02 -.863888584199513D+02 -.121201102951265D+03
 0.118260225020902D+03 -.860059448510959D+02 -.684753916000607D+02 0.435841601672325D+02
 0.299413194815892D+03 -.203856425200975D+03 -.680042788496555D+02 0.208485580298199D+03
 0.228587709474797D+03 0.168664917060800D+03 0.145144905740099D+02 -.130868637514166D+03
 0.291387493533058D+03 0.191951314733607D+03 0.208354038295658D+03 0.681906070174594D+02
0.146097411758D-05 0.000000000000D+00 0.000000000000D+00 0.181796161024D-06 0.106673498419D-11  7 -1 21 24 -13 13 -24 -1 2 0.13679232D+00 0.54158981D-01 0.21769697D+06 0.21769697D+06 0.21769697D+06 0.10950085D+01  1  2  1  4  7  2        1 0.292533835731D-04 0.100000000000D+01
  </mgrwgt>
  </event>
  <event>
  8     66 0.29788925E-05 0.19518810E+03 0.75467711E-02 0.10067911E+00
       -1 -1    0    0    0  501 0.00000000E+00 0.00000000E+00 0.51745830E+03 0.51745840E+03 0.32000000E+00 0.0000E+00 0.9000E+01
        1 -1    0    0  501    0 0.00000000E+00 0.00000000E+00 -.17317304E+03 0.17317334E+03 0.32000000E+00 0.0000E+00 0.9000E+01
       25  2    1    2    0    0 0.20269788E+03 0.34018616E+02 0.15476582E+03 0.39640572E+03 0.30156482E+03 0.0000E+00 0.0000E+00
       23  2    1    2    0    0 -.20269788E+03 -.34018616E+02 0.18951944E+03 0.29422602E+03 0.91693171E+02 0.0000E+00 0.0000E+00
       24  1    3    3    0    0 0.15919566E+03 -.98336825E+02 0.95800516E+02 0.22507408E+03 0.80419002E+02 0.0000E+00 0.9000E+01
      -11  1    4    4    0    0 -.37120904E+02 0.58345515E+01 -.23820647E+01 0.37652061E+02 0.51099893E-03 0.0000E+00 0.9000E+01
       11  1    4    4    0    0 -.16557697E+03 -.39853167E+02 0.19190151E+03 0.25657396E+03 0.51099893E-03 0.0000E+00 0.9000E+01
      -24  1    3    3    0    0 0.43502218E+02 0.13235544E+03 0.58965301E+02 0.17133163E+03 0.80419002E+02 0.0000E+00 0.9000E+01
#aMCatNLO 1  0  0  2  1 0.33661840D+02 0.00000000D+00  -5  7  0 0.00000000D+00 0.00000000D+00 0.00000000D+00 0.00000000D+00 0.00000000D+00
  <mgrwgt>
 0.5634880593D-03    9    2    0
 0.299349235609709D+03 0.000000000000000D+00 0.000000000000000D+00 0.299349235609709D+03
 0.299349235609709D+03 0.000000000000000D+00 0.000000000000000D+00 -.299349235609709D+03
 0.204544703324889D+03 0.159195658412769D+03 -.983368252021397D+02 -.189190606422511D+02
 0.448035523823573D+02 -.371209037264370D+02 0.583455152266398D+01 -.243998938756014D+02
 0.185618079511364D+03 -.165576972544822D+03 -.398531671395089D+02 0.738245397772904D+02
 0.163732136000806D+03 0.435022178584896D+02 0.132355440818985D+03 -.305055852594379D+02
 0.000000000000000D+00 -.000000000000000D+00 0.000000000000000D+00 -.000000000000000D+00
 0.307769219764587D+03 0.000000000000000D+00 0.000000000000000D+00 0.307769219764587D+03
 0.335467273659352D+03 0.000000000000000D+00 0.000000000000000D+00 -.335467273659352D+03
 0.214366235576141D+03 0.170893355399556D+03 -.996152459486564D+02 -.189190606422511D+02
 0.427639043313315D+02 -.346756642270161D+02 0.556731559496021D+01 -.243998938756014D+02
 0.176900211395946D+03 -.155453987620326D+03 -.409594903720878D+02 0.738245397772904D+02
 0.165613692224760D+03 0.526988927234423D+02 0.131350352384945D+03 -.305055852594379D+02
 0.435924498957601D+02 -.334625962756553D+02 0.365706834083931D+01 -.276980538947646D+02
0.114711240271D-04 0.000000000000D+00 0.000000000000D+00 0.178122873969D-06 0.000000000000D+00  7 -1 1 24 -11 11 -24 21 0 0.79609000D-01 0.26642037D-01 0.81914840D+05 0.81914840D+05 0.81914840D+05 0.11289017D+01  1  2  2  2  7  2        1 0.422881179876D-03 0.100000000000D+01
-.635723047168D-06 0.000000000000D+00 -.440521366803D-07 0.178122873969D-06 0.000000000000D+00  7 -1 1 24 -11 11 -24 21 2 0.79609000D-01 0.26642037D-01 0.81914840D+05 0.81914840D+05 0.81914840D+05 0.11289017D+01  1  2  3  2  7  2        1 -.298670705530D-04 0.100000000000D+01
0.742026601390D-06 0.000000000000D+00 0.000000000000D+00 0.178122873969D-06 0.000000000000D+00  7 -1 1 24 -11 11 -24 21 2 0.79609000D-01 0.26642037D-01 0.81914840D+05 0.81914840D+05 0.81914840D+05 0.11289017D+01  1  2 15  2  7  2        1 0.348613456042D-04 0.100000000000D+01
0.335548000931D-04 0.000000000000D+00 0.000000000000D+00 0.178122873969D-06 0.000000000000D+00  7 -1 1 24 -11 11 -24 21 2 0.79609000D-01 0.30200642D-01 0.91763791D+05 0.91763791D+05 0.91763791D+05 0.11247982D+01  1  2 12  2  7  2        1 0.132825800313D-02 0.100000000000D+01
-.338490507489D-04 0.000000000000D+00 0.000000000000D+00 0.178122873969D-06 0.000000000000D+00  7 -1 1 24 -11 11 -24 21 2 0.79609000D-01 0.26642037D-01 0.81914840D+05 0.81914840D+05 0.81914840D+05 0.11289017D+01  1  2  4  2  7  2        1 -.159027109584D-02 0.100000000000D+01
-.689007342217D-04 0.000000000000D+00 -.120371622678D-04 0.178122873969D-06 0.000000000000D+00  7 -1 1 24 -11 11 -24 21 2 0.79609000D-01 0.30585452D-01 0.81914840D+05 0.81914840D+05 0.81914840D+05 0.11289017D+01  1  2  5  2  7  2        1 -.270723173697D-02 0.100000000000D+01
0.700080387908D-04 0.000000000000D+00 0.119233910425D-04 0.178122873969D-06 0.000000000000D+00  7 -1 1 24 -11 11 -24 21 2 0.79609000D-01 0.26642037D-01 0.81914840D+05 0.81914840D+05 0.81914840D+05 0.11289017D+01  1  2  6  2  7  2        1 0.328906595907D-02 0.100000000000D+01
0.660460078792D-06 0.000000000000D+00 0.000000000000D+00 0.178122873969D-06 0.000000000000D+00  7 -1 21 24 -11 11 -24 -1 2 0.79609000D-01 0.30200642D-01 0.91763791D+05 0.91763791D+05 0.91763791D+05 0.11247982D+01  1  2 12  4  7  2        1 0.169296235626D-03 0.100000000000D+01
-.139676355998D-05 0.000000000000D+00 -.256580191075D-06 0.178122873969D-06 0.000000000000D+00  7 -1 21 24 -11 11 -24 -1 2 0.79609000D-01 0.30585452D-01 0.81914840D+05 0.81914840D+05 0.81914840D+05 0.11289017D+01  1  2  5  4  7  2        1 -.353504760617D-03 0.100000000000D+01
  </mgrwgt>
  </event>
  <event>
  9     66 0.29788925E-05 0.19769304E+03 0.75467711E-02 0.10571676E+00
       21 -1    0    0  502  501 0.00000000E+00 0.00000000E+00 0.56070571E+02 0.56075586E+02 0.75000000E+00 0.0000E+00 0.9000E+01
        1 -1    0    0  501    0 0.00000000E+00 0.00000000E+00 -.90902578E+03 0.90902584E+03 0.32000000E+00 0.0000E+00 0.9000E+01
       25  2    1    2    0    0 -.56919793E+02 -.50902208E+02 -.57985774E+03 0.65708778E+03 0.29949701E+03 0.0000E+00 0.0000E+00
       23  2    1    2    0    0 0.41609798E+02 0.64355302E+02 -.20540188E+03 0.23731585E+03 0.90861995E+02 0.0000E+00 0.0000E+00
       24  1    3    3    0    0 0.10675782E+02 0.97761710E+02 -.23999090E+03 0.27154037E+03 0.80419002E+02 0.0000E+00 0.9000E+01
      -13  1    4    4    0    0 -.91924677E+01 0.10517499E+02 0.45545368E+01 0.14692659E+02 0.10565837E+00 0.0000E+00 0.9000E+01
       13  1    4    4    0    0 0.50802266E+02 0.53837804E+02 -.20995641E+03 0.22262319E+03 0.10565837E+00 0.0000E+00 0.9000E+01
      -24  1    3    3    0    0 -.67595575E+02 -.14866392E+03 -.33986684E+03 0.38554741E+03 0.80419002E+02 0.0000E+00 0.9000E+01
        1  1    1    2  502    0 0.15309995E+02 -.13453095E+02 -.67695593E+02 0.70697789E+02 0.32000000E+00 0.0000E+00 0.9000E+01
#aMCatNLO 2  0  0  1  1 0.20380915D+02 0.00000000D+00  -5  7  0 0.00000000D+00 0.00000000D+00 0.00000000D+00 0.00000000D+00 0.00000000D+00
  <mgrwgt>
 0.2054348049D-03    1    2    0
 0.213839783666309D+03 0.000000000000000D+00 0.000000000000000D+00 0.213839783666309D+03
 0.213839783666309D+03 0.000000000000000D+00 0.000000000000000D+00 -.213839783666309D+03
 0.124531948750550D+03 0.151768009384811D+02 0.938065601947375D+02 -.331425450799850D+01
 0.384292216989355D+02 -.780659204368004D+01 0.929965102780421D+01 0.364606457953030D+02
 0.801960846995666D+02 0.536677119575782D+02 0.513200712888444D+02 -.302892551457840D+02
 0.184522312183566D+03 -.610379208523793D+02 -.154426282511386D+03 -.285713614152052D+01
 0.000000000000000D+00 0.000000000000000D+00 -.000000000000000D+00 -.000000000000000D+00
 0.219970094345688D+03 0.000000000000000D+00 0.000000000000000D+00 0.219970094345688D+03
 0.231720335139340D+03 0.000000000000000D+00 0.000000000000000D+00 -.231720335139340D+03
 0.127080756541937D+03 0.106757621372640D+02 0.977616824156849D+02 -.331425450799850D+01
 0.390448215616975D+02 -.919250645685693D+01 0.105174723206144D+02 0.364606457953030D+02
 0.799802322633683D+02 0.508023565819499D+02 0.538378968881248D+02 -.302892551457840D+02
 0.182059104134796D+03 -.675956071056870D+02 -.148663957020780D+03 -.285713614152052D+01
 0.235255149832299D+02 0.153099948433301D+02 -.134530946036436D+02 -.117502407936516D+02
0.680830047445D-07 0.000000000000D+00 0.000000000000D+00 0.397798433971D-06 0.366150909514D-10  7 21 1 24 -13 13 -24 1 2 0.86265897D-02 0.13984983D+00 0.43565417D+05 0.43565417D+05 0.43565417D+05 0.11525953D+01  1  2  1  3  7  1       -1 0.205434804920D-03 0.100000000000D+01
  </mgrwgt>
  </event>
  <event>
  9     66 -.29788925E-05 0.39315921E+03 0.75467711E-02 0.97361808E-01
       -1 -1    0    0    0  501 0.00000000E+00 0.00000000E+00 0.92186680E+03 0.92186685E+03 0.32000000E+00 0.0000E+00 0.9000E+01
        1 -1    0    0  502    0 0.00000000E+00 0.00000000E+00 -.34721500E+03 0.34721515E+03 0.32000000E+00 0.0000E+00 0.9000E+01
       25  2    1    2    0    0 -.17505680E+03 -.32046002E+03 -.97272517E+02 0.48240656E+03 0.29985770E+03 0.0000E+00 0.0000E+00
       23  2    1    2    0    0 0.17962183E+03 0.32110697E+03 0.67937115E+03 0.77788477E+03 0.90475716E+02 0.0000E+00 0.0000E+00
       24  1    3    3    0    0 -.30837564E+02 -.14387192E+03 -.16091898E+03 0.23240529E+03 0.80419002E+02 0.0000E+00 0.9000E+01
      -13  1    4    4    0    0 -.81730867E+01 0.58159612E+01 0.82838684E+01 0.13009934E+02 0.10565837E+00 0.0000E+00 0.9000E+01
       13  1    4    4    0    0 0.18779492E+03 0.31529101E+03 0.67108729E+03 0.76487483E+03 0.10565837E+00 0.0000E+00 0.9000E+01
      -24  1    3    3    0    0 -.14421924E+03 -.17658809E+03 0.63646466E+02 0.25000127E+03 0.80419002E+02 0.0000E+00 0.9000E+01
       21  1    1    2  502  501 -.45650306E+01 -.64695474E+00 -.74468370E+01 0.87906732E+01 0.75000000E+00 0.0000E+00 0.9000E+01
#aMCatNLO 2  0  0  2  1 0.46106458D+01 0.00000000D+00  -5  7  0 0.00000000D+00 0.00000000D+00 0.00000000D+00 0.00000000D+00 0.00000000D+00
  <mgrwgt>
 -.2608056935D-03    5    2    0
 0.558899397045045D+03 0.000000000000000D+00 0.000000000000000D+00 0.558899397045045D+03
 0.558899397045045D+03 0.000000000000000D+00 0.000000000000000D+00 -.558899397045045D+03
 0.346039869563753D+03 -.322503335602979D+02 -.144072138327894D+03 -.302455798946237D+03
 0.103838562018327D+02 -.821569943387757D+01 0.580953796273437D+01 0.256437538049144D+01
 0.511957627149749D+03 0.185702459672119D+03 0.314994850700469D+03 0.358320321082569D+03
 0.249417441174754D+03 -.145236426677943D+03 -.176732250335309D+03 -.584288975168241D+02
 0.000000000000000D+00 -.000000000000000D+00 -.000000000000000D+00 -.000000000000000D+00
 0.559301616271199D+03 0.000000000000000D+00 0.000000000000000D+00 0.559301616271199D+03
 0.572275181110744D+03 0.000000000000000D+00 0.000000000000000D+00 -.572275181110744D+03
 0.345827719156602D+03 -.308375644309227D+02 -.143871921118922D+03 -.302455798946237D+03
 0.103537544763721D+02 -.817335396682461D+01 0.581553914937534D+01 0.256437538049144D+01
 0.512902692531787D+03 0.187795188172735D+03 0.315291431543594D+03 0.358320321082569D+03
 0.248724136776214D+03 -.144219239206148D+03 -.176588094837875D+03 -.584288975168241D+02
 0.137684944409677D+02 -.456503056883932D+01 -.646954736172269D+00 -.129735648395445D+02
-.231056310544D-03 0.000000000000D+00 0.000000000000D+00 0.844149331355D-05 0.000000000000D+00  7 -1 1 24 -13 13 -24 21 2 0.14172110D+00 0.53435266D-01 0.15644782D+06 0.15644782D+06 0.15644782D+06 0.11061124D+01  1  2 13  2  7  2        1 -.108934638919D-02 0.100000000000D+01
-.232074869498D-02 0.000000000000D+00 0.000000000000D+00 0.844149331355D-05 0.000000000000D+00  7 -1 1 24 -13 13 -24 21 2 0.14172110D+00 0.52168225D-01 0.15457417D+06 0.15457417D+06 0.15457417D+06 0.11065239D+01  1  2  8  2  7  2        1 -.113106383231D-01 0.100000000000D+01
-.736102020359D-03 0.000000000000D+00 0.000000000000D+00 0.844149331355D-05 0.000000000000D+00  7 -1 1 24 -13 13 -24 21 2 0.14172110D+00 0.53437331D-01 0.15457417D+06 0.15457417D+06 0.15457417D+06 0.11065239D+01  1  2  9  2  7  2        1 -.347466664680D-02 0.100000000000D+01
0.735889437725D-03 0.000000000000D+00 0.000000000000D+00 0.844149331355D-05 0.000000000000D+00  7 -1 1 24 -13 13 -24 21 2 0.14172110D+00 0.52168225D-01 0.15457417D+06 0.15457417D+06 0.15457417D+06 0.11065239D+01  1  2 10  2  7  2        1 0.358650606758D-02 0.100000000000D+01
0.255490254260D-02 0.000000000000D+00 0.000000000000D+00 0.844149331355D-05 0.259196864284D-05  7 -1 1 24 -13 13 -24 21 2 0.14182309D+00 0.53416733D-01 0.15644782D+06 0.15644782D+06 0.15644782D+06 0.11061124D+01  1  2  1  2  7  2        1 0.120273395979D-01 0.100000000000D+01
  </mgrwgt>
  </event>
  <event>
  9     66 0.29788925E-05 0.25142050E+03 0.75467711E-02 0.10041840E+00
       -1 -1    0    0    0  501 0.00000000E+00 0.00000000E+00 0.14606735E+03 0.14606770E+03 0.32000000E+00 0.0000E+00 0.9000E+01
        1 -1    0    0  502    0 0.00000000E+00 0.00000000E+00 -.13545081E+04 0.13545082E+04 0.32000000E+00 0.0000E+00 0.9000E+01
       25  2    1    2    0    0 -.49798068E+02 -.15223853E+03 -.15084360E+03 0.37266389E+03 0.30077927E+03 0.0000E+00 0.0000E+00
       23  2    1    2    0    0 0.13347971E+03 0.22325855E+03 -.84041478E+03 0.88457020E+03 0.92229210E+02 0.0000E+00 0.0000E+00
       24  1    3    3    0    0 -.99436411E+01 -.12439028E+02 -.18563281E+03 0.20292945E+03 0.80419002E+02 0.0000E+00 0.9000E+01
      -13  1    4    4    0    0 0.83158440E+02 0.15059363E+03 -.40081303E+03 0.43617068E+03 0.10565837E+00 0.0000E+00 0.9000E+01
       13  1    4    4    0    0 0.50321273E+02 0.72664924E+02 -.43960174E+03 0.44839951E+03 0.10565837E+00 0.0000E+00 0.9000E+01
      -24  1    3    3    0    0 -.39854427E+02 -.13979950E+03 0.34789210E+02 0.16973444E+03 0.80419002E+02 0.0000E+00 0.9000E+01
       21  1    1    2  502  501 -.83681645E+02 -.71020023E+02 -.21718240E+03 0.24334177E+03 0.75000000E+00 0.0000E+00 0.9000E+01
#aMCatNLO 2  0  0  2  1 0.10975637D+03 0.00000000D+00  -5  7  0 0.00000000D+00 0.00000000D+00 0.00000000D+00 0.00000000D+00 0.00000000D+00
  <mgrwgt>
 0.5051197579D-04    2    2    0
 0.382752509763086D+03 0.000000000000000D+00 0.000000000000000D+00 0.382752509763086D+03
 0.382752509763086D+03 0.000000000000000D+00 0.000000000000000D+00 -.382752509763086D+03
 0.951466855340829D+02 -.201187384627749D+02 -.210745615875967D+02 -.416746329354942D+02
 0.174271097471441D+03 0.630593712773205D+02 0.133535756384582D+03 -.925317938592302D+02
 0.154946856875636D+03 0.328955812786477D+02 0.578757967675469D+02 -.139917123099713D+03
 0.341140379645012D+03 -.758362140931932D+02 -.170336991564532D+03 0.274123549894437D+03
 0.000000000000000D+00 -.000000000000000D+00 -.000000000000000D+00 -.000000000000000D+00
 0.424695115206618D+03 0.000000000000000D+00 0.000000000000000D+00 0.424695115206618D+03
 0.465860366071260D+03 0.000000000000000D+00 0.000000000000000D+00 -.465860366071260D+03
 0.919651912702471D+02 -.994364114617032D+01 -.124390281553908D+02 -.416746329354942D+02
 0.195335450296454D+03 0.831584834054372D+02 0.150593731295227D+03 -.925317938592302D+02
 0.165496839385842D+03 0.503212297710878D+02 0.726648219190577D+02 -.139917123099713D+03
 0.320535821257128D+03 -.398544268798618D+02 -.139799502166354D+03 0.274123549894437D+03
 0.117222179068207D+03 -.836816451504928D+02 -.710200228925395D+02 -.411652508646425D+02
-.111479946688D-04 0.000000000000D+00 0.000000000000D+00 0.852354411843D-06 0.000000000000D+00  7 -1 1 24 -13 13 -24 21 2 0.20252562D-01 0.21615485D+00 0.95568849D+05 0.95568849D+05 0.95568849D+05 0.11233409D+01  1  2 13  2  7  2        1 -.255754251058D-03 0.100000000000D+01
0.145983219076D-04 0.000000000000D+00 0.000000000000D+00 0.852354411843D-06 0.486942398829D-09  7 -1 1 24 -13 13 -24 21 2 0.22471868D-01 0.20838533D+00 0.95568849D+05 0.95568849D+05 0.95568849D+05 0.11233409D+01  1  2  1  2  7  2        1 0.306266226845D-03 0.100000000000D+01
  </mgrwgt>
  </event>
  <event>
  8     66 0.29788925E-05 0.17656005E+03 0.75467711E-02 0.94483950E-01
       -1 -1    0    0    0  501 0.00000000E+00 0.00000000E+00 0.21418479E+03 0.21418503E+03 0.32000000E+00 0.0000E+00 0.9000E+01
        1 -1    0    0  501    0 0.00000000E+00 0.00000000E+00 -.55752469E+03 0.55752478E+03 0.32000000E+00 0.0000E+00 0.9000E+01
       25  2    1    2    0    0 -.85971222E+01 0.88371145E+02 0.84510955E+02 0.32461219E+03 0.30057878E+03 0.0000E+00 0.0000E+00
       23  2    1    2    0    0 0.85971222E+01 -.88371145E+02 -.42785086E+03 0.44709761E+03 0.94639057E+02 0.0000E+00 0.0000E+00
       24  1    3    3    0    0 -.47034866E+02 -.45087948E+02 0.12181412E+03 0.15984711E+03 0.80419002E+02 0.0000E+00 0.9000E+01
      -13  1    4    4    0    0 0.40709692E+01 -.12930279E+02 -.98409750E+00 0.13592076E+02 0.10565837E+00 0.0000E+00 0.9000E+01
       13  1    4    4    0    0 0.45261531E+01 -.75440866E+02 -.42686676E+03 0.43350554E+03 0.10565837E+00 0.0000E+00 0.9000E+01
      -24  1    3    3    0    0 0.38437744E+02 0.13345909E+03 -.37303169E+02 0.16476508E+03 0.80419002E+02 0.0000E+00 0.9000E+01
#aMCatNLO 1  0  0  2  1 0.43840578D+03 0.00000000D+00  -5  7  0 0.00000000D+00 0.00000000D+00 0.00000000D+00 0.00000000D+00 0.00000000D+00
  <mgrwgt>
 0.1165021771D-02    3    2    0
 0.345562488896584D+03 0.000000000000000D+00 0.000000000000000D+00 0.345562488896584D+03
 0.345562488896584D+03 0.000000000000000D+00 0.000000000000000D+00 -.345562488896584D+03
 0.239000522797580D+03 -.470348655666680D+02 -.450879471983531D+02 0.215427092961191D+03
 0.146876993820191D+02 0.407096833916228D+01 -.129302009613955D+02 0.565381579254494D+01
 0.271991768992239D+03 0.452615394801969D+01 -.754409450358168D+02 -.261280883613917D+03
 0.165444986621330D+03 0.384377432794860D+02 0.133459093195565D+03 0.401999748601810D+02
 0.000000000000000D+00 -.000000000000000D+00 0.000000000000000D+00 0.000000000000000D+00
 0.868563306546572D+03 0.000000000000000D+00 0.000000000000000D+00 0.868563306546572D+03
 0.513829154025100D+03 0.000000000000000D+00 0.000000000000000D+00 -.513829154025100D+03
 0.260147283674940D+03 0.944391360860542D+02 -.766929621457470D+02 0.215427092961191D+03
 0.217019969972467D+02 0.143849392691051D+02 -.152343218712430D+02 0.565381579254494D+01
 0.335334308238744D+03 0.176661239667660D+03 -.113895586125949D+03 -.261280883613917D+03
 0.201262111405648D+03 0.142373931958680D+03 0.110239952163246D+03 0.401999748601810D+02
 0.563946760255093D+03 -.427859246981499D+03 0.955829179796922D+02 0.354734152521472D+03
0.281916518799D-04 0.000000000000D+00 0.000000000000D+00 0.385984964568D-06 0.000000000000D+00  7 -1 1 24 -13 13 -24 21 0 0.32951531D-01 0.85773054D-01 0.31173452D+05 0.31173452D+05 0.31173452D+05 0.11657930D+01  1  2  2  2  7  2        1 0.110973640644D-02 0.100000000000D+01
-.707510427037D-06 0.000000000000D+00 -.108263366251D-06 0.385984964568D-06 0.000000000000D+00  7 -1 1 24 -13 13 -24 21 2 0.32951531D-01 0.85773054D-01 0.31173452D+05 0.31173452D+05 0.31173452D+05 0.11657930D+01  1  2  3  2  7  2        1 -.378507974707D-04 0.100000000000D+01
0.174090930536D-05 0.000000000000D+00 0.000000000000D+00 0.385984964568D-06 0.000000000000D+00  7 -1 1 24 -13 13 -24 21 2 0.32951531D-01 0.85773054D-01 0.31173452D+05 0.31173452D+05 0.31173452D+05 0.11657930D+01  1  2 15  2  7  2        1 0.931361616931D-04 0.100000000000D+01
  </mgrwgt>
  </event>
  <event>
  8     66 0.29788925E-05 0.46208092E+03 0.75467711E-02 0.91804917E-01
       -1 -1    0    0    0  501 0.00000000E+00 0.00000000E+00 0.86839340E+03 0.86839346E+03 0.32000000E+00 0.0000E+00 0.9000E+01
        1 -1    0    0  501    0 0.00000000E+00 0.00000000E+00 -.44826051E+03 0.44826063E+03 0.32000000E+00 0.0000E+00 0.9000E+01
       25  2    1    2    0    0 -.31128300E+03 -.49444160E+03 0.23355958E+03 0.69721142E+03 0.30030665E+03 0.0000E+00 0.0000E+00
       23  2    1    2    0    0 0.31128300E+03 0.49444160E+03 0.18657331E+03 0.61944267E+03 0.86775663E+02 0.0000E+00 0.0000E+00
       24  1    3    3    0    0 -.48401281E+02 -.31056442E+03 0.14113052E+03 0.35380501E+03 0.80419002E+02 0.0000E+00 0.9000E+01
      -13  1    4    4    0    0 0.41209110E+02 0.74389808E+02 0.60575011E+02 0.10440966E+03 0.10565837E+00 0.0000E+00 0.9000E+01
       13  1    4    4    0    0 0.27007389E+03 0.42005179E+03 0.12599829E+03 0.51503300E+03 0.10565837E+00 0.0000E+00 0.9000E+01
      -24  1    3    3    0    0 -.26288172E+03 -.18387718E+03 0.92429061E+02 0.34340641E+03 0.80419002E+02 0.0000E+00 0.9000E+01
#aMCatNLO 1  0  0  2  1 0.51569330D+02 0.00000000D+00  -5  7  0 0.00000000D+00 0.00000000D+00 0.00000000D+00 0.00000000D+00 0.00000000D+00
  <mgrwgt>
 0.1126463892D-02    9    2    0
 0.623912320646852D+03 0.000000000000000D+00 0.000000000000000D+00 0.623912320646852D+03
 0.623912320646852D+03 0.000000000000000D+00 0.000000000000000D+00 -.623912320646852D+03
 0.325803179785374D+03 -.484012809584191D+02 -.310564421666953D+03 0.297918109578056D+02
 0.897731045511255D+02 0.412087706403871D+02 0.743892954072042D+02 0.287624799326309D+02
 0.501019952831936D+03 0.270074230231801D+03 0.420052304638240D+03 -.404594200220232D+02
 0.331228404125268D+03 -.262881719913769D+03 -.183877178378491D+03 -.180948708684133D+02
 0.000000000000000D+00 -.000000000000000D+00 -.000000000000000D+00 -.000000000000000D+00
 0.636151163240502D+03 0.000000000000000D+00 0.000000000000000D+00 0.636151163240502D+03
 0.681239192608609D+03 0.000000000000000D+00 0.000000000000000D+00 -.681239192608609D+03
 0.313791576563904D+03 -.422493061391465D+02 -.298873521240516D+03 0.297918109578056D+02
 0.933634375294455D+02 0.429702788206591D+02 0.777367760684382D+02 0.287624799326309D+02
 0.522007787505299D+03 0.279914274784222D+03 0.438751825431737D+03 -.404594200220232D+02
 0.319726997883303D+03 -.256620472144190D+03 -.171978621188355D+03 -.180948708684133D+02
 0.685005563671595D+02 -.240147753215448D+02 -.456364590713043D+02 -.450880293681071D+02
0.233227748269D-03 0.000000000000D+00 0.000000000000D+00 0.717921500229D-06 0.000000000000D+00  7 -1 1 24 -13 13 -24 21 0 0.13359900D+00 0.68963169D-01 0.38414981D+06 0.38414981D+06 0.38414981D+06 0.10766958D+01  1  2  2  2  7  2        1 0.716510410029D-03 0.100000000000D+01
-.129564075734D-04 0.000000000000D+00 -.895655963631D-06 0.717921500229D-06 0.000000000000D+00  7 -1 1 24 -13 13 -24 21 2 0.13359900D+00 0.68963169D-01 0.38414981D+06 0.38414981D+06 0.38414981D+06 0.10766958D+01  1  2  3  2  7  2        1 -.461437499979D-04 0.100000000000D+01
0.148485778265D-04 0.000000000000D+00 0.000000000000D+00 0.717921500229D-06 0.000000000000D+00  7 -1 1 24 -13 13 -24 21 2 0.13359900D+00 0.68963169D-01 0.38414981D+06 0.38414981D+06 0.38414981D+06 0.10766958D+01  1  2 15  2  7  2        1 0.528826419802D-04 0.100000000000D+01
0.934895235297D-03 0.000000000000D+00 0.000000000000D+00 0.717921500229D-06 0.000000000000D+00  7 -1 1 24 -13 13 -24 21 2 0.13359900D+00 0.75935384D-01 0.41758612D+06 0.41758612D+06 0.41758612D+06 0.10740831D+01  1  2 12  2  7  2        1 0.288634171451D-02 0.100000000000D+01
-.945863194855D-03 0.000000000000D+00 0.000000000000D+00 0.717921500229D-06 0.000000000000D+00  7 -1 1 24 -13 13 -24 21 2 0.13359900D+00 0.68963169D-01 0.38414981D+06 0.38414981D+06 0.38414981D+06 0.10766958D+01  1  2  4  2  7  2        1 -.336865558979D-02 0.100000000000D+01
-.205943468241D-02 0.000000000000D+00 -.310861446785D-03 0.717921500229D-06 0.000000000000D+00  7 -1 1 24 -13 13 -24 21 2 0.13359900D+00 0.76343424D-01 0.38414981D+06 0.38414981D+06 0.38414981D+06 0.10766958D+01  1  2  5  2  7  2        1 -.636612046515D-02 0.100000000000D+01
0.208187044168D-02 0.000000000000D+00 0.309261704349D-03 0.717921500229D-06 0.000000000000D+00  7 -1 1 24 -13 13 -24 21 2 0.13359900D+00 0.68963169D-01 0.38414981D+06 0.38414981D+06 0.38414981D+06 0.10766958D+01  1  2  6  2  7  2        1 0.741450194778D-02 0.100000000000D+01
0.146983726776D-04 0.000000000000D+00 0.000000000000D+00 0.717921500229D-06 0.000000000000D+00  7 -1 21 24 -13 13 -24 -1 2 0.13359900D+00 0.75935384D-01 0.41758612D+06 0.41758612D+06 0.41758612D+06 0.10740831D+01  1  2 12  4  7  2        1 0.132019915142D-03 0.100000000000D+01
-.328737582543D-04 0.000000000000D+00 -.512174934023D-05 0.717921500229D-06 0.000000000000D+00  7 -1 21 24 -13 13 -24 -1 2 0.13359900D+00 0.76343424D-01 0.38414981D+06 0.38414981D+06 0.38414981D+06 0.10766958D+01  1  2  5  4  7  2        1 -.294872932612D-03 0.100000000000D+01
  </mgrwgt>
  </event>
  <event>
  8     66 0.29788925E-05 0.49260994E+03 0.75467711E-02 0.88266029E-01
       -1 -1    0    0    0  501 0.00000000E+00 0.00000000E+00 0.77730002E+03 0.77730008E+03 0.32000000E+00 0.0000E+00 0.9000E+01
        1 -1    0    0  501    0 0.00000000E+00 0.00000000E+00 -.46865191E+03 0.46865202E+03 0.32000000E+00 0.0000E+00 0.9000E+01
       25  2    1    2    0    0 0.63192810E+01 -.47073841E+03 0.48097913E+03 0.73638335E+03 0.29880584E+03 0.0000E+00 0.0000E+00
       23  2    1    2    0    0 -.63192810E+01 0.47073841E+03 -.17233102E+03 0.50956876E+03 0.91256550E+02 0.0000E+00 0.0000E+00
       24  1    3    3    0    0 -.27462408E+02 -.14027057E+03 0.31784240E+03 0.35766049E+03 0.80419002E+02 0.0000E+00 0.9000E+01
      -11  1    4    4    0    0 -.47165982E+02 0.31080212E+03 -.10771895E+03 0.33230402E+03 0.51099893E-03 0.0000E+00 0.9000E+01
       11  1    4    4    0    0 0.40846701E+02 0.15993628E+03 -.64612068E+02 0.17726474E+03 0.51099893E-03 0.0000E+00 0.9000E+01
      -24  1    3    3    0    0 0.33781689E+02 -.33046784E+03 0.16313672E+03 0.37872286E+03 0.80419002E+02 0.0000E+00 0.9000E+01
#aMCatNLO 1  0  0  1  1 0.64319962D+03 0.00000000D+00  -5  7  0 0.00000000D+00 0.00000000D+00 0.00000000D+00 0.00000000D+00 0.00000000D+00
  <mgrwgt>
 0.3816857484D-03    3    2    0
 0.603558821263954D+03 0.000000000000000D+00 0.000000000000000D+00 0.603558821263954D+03
 0.603558821263954D+03 0.000000000000000D+00 0.000000000000000D+00 -.603558821263954D+03
 0.287897692175361D+03 -.274624075652331D+02 -.140270565702984D+03 0.236617517892514D+03
 0.370537329563425D+03 -.471659819074034D+02 0.310802124335216D+03 -.196151273917407D+03
 0.199488234166448D+03 0.408467008822685D+02 0.159936284680179D+03 -.112015567849218D+03
 0.349194386622674D+03 0.337816885903680D+02 -.330467843312411D+03 0.715493238741109D+02
 0.000000000000000D+00 0.000000000000000D+00 0.000000000000000D+00 -.000000000000000D+00
 0.996067988344532D+03 0.000000000000000D+00 0.000000000000000D+00 0.996067988344532D+03
 0.101520225842001D+04 0.000000000000000D+00 0.000000000000000D+00 -.101520225842001D+04
 0.362694747012178D+03 -.182421762929199D+03 -.189247758750390D+03 0.236617517892514D+03
 0.393910454319599D+03 -.229243621708839D+03 0.253253796948171D+03 -.196151273917407D+03
 0.179604619925697D+03 -.494463624164143D+02 0.131397828375723D+03 -.112015567849218D+03
 0.431576257461174D+03 -.152183761370028D+03 -.389244970524028D+03 0.715493238741109D+02
 0.643484168045897D+03 0.613295508424480D+03 0.193841103950524D+03 -.191342700754804D+02
0.964478666826D-04 0.000000000000D+00 0.000000000000D+00 0.721322044223D-06 0.000000000000D+00  7 -1 1 24 -11 11 -24 21 0 0.11958463D+00 0.72100308D-01 0.24266455D+06 0.24266455D+06 0.24266455D+06 0.10914334D+01  1  2  2  1  7  1       -1 0.377031590652D-03 0.100000000000D+01
-.508941312885D-05 0.000000000000D+00 -.370385203368D-06 0.721322044223D-06 0.000000000000D+00  7 -1 1 24 -11 11 -24 21 2 0.11958463D+00 0.72100308D-01 0.24266455D+06 0.24266455D+06 0.24266455D+06 0.10914334D+01  1  2  3  1  7  1       -1 -.236999445903D-04 0.100000000000D+01
0.608886405641D-05 0.000000000000D+00 0.000000000000D+00 0.721322044223D-06 0.000000000000D+00  7 -1 1 24 -11 11 -24 21 2 0.11958463D+00 0.72100308D-01 0.24266455D+06 0.24266455D+06 0.24266455D+06 0.10914334D+01  1  2 15  1  7  1       -1 0.283541023496D-04 0.100000000000D+01
  </mgrwgt>
  </event>
  <event>
  8     66 0.29788925E-05 0.21773990E+03 0.75467711E-02 0.10176716E+00
       -1 -1    0    0    0  501 0.00000000E+00 0.00000000E+00 0.64335493E+02 0.64336289E+02 0.32000000E+00 0.0000E+00 0.9000E+01
        1 -1    0    0  501    0 0.00000000E+00 0.00000000E+00 -.18922307E+04 0.18922307E+04 0.32000000E+00 0.0000E+00 0.9000E+01
       25  2    1    2    0    0 -.16246132E+03 -.11927580E+03 -.15965961E+04 0.16365232E+04 0.29743686E+03 0.0000E+00 0.0000E+00
       23  2    1    2    0    0 0.16246132E+03 0.11927580E+03 -.23129910E+03 0.32004381E+03 0.91150251E+02 0.0000E+00 0.0000E+00
       24  1    3    3    0    0 -.18246829E+03 -.61812038E+02 -.60893228E+03 0.64372443E+03 0.80419002E+02 0.0000E+00 0.9000E+01
      -13  1    4    4    0    0 0.82673791E+02 0.10572553E+03 -.10664987E+03 0.17142651E+03 0.10565837E+00 0.0000E+00 0.9000E+01
       13  1    4    4    0    0 0.79787526E+02 0.13550278E+02 -.12464923E+03 0.14861730E+03 0.10565837E+00 0.0000E+00 0.9000E+01
      -24  1    3    3    0    0 0.20006969E+02 -.57463766E+02 -.98766384E+03 0.99279879E+03 0.80419002E+02 0.0000E+00 0.9000E+01
#aMCatNLO 1  0  0  2  1 0.30451678D+02 0.00000000D+00  -5  7  0 0.00000000D+00 0.00000000D+00 0.00000000D+00 0.00000000D+00 0.00000000D+00
  <mgrwgt>
 0.1096519887D-02    9    2    0
 0.348910304851330D+03 0.000000000000000D+00 0.000000000000000D+00 0.348910304851330D+03
 0.348910304851330D+03 0.000000000000000D+00 0.000000000000000D+00 -.348910304851330D+03
 0.209832711517482D+03 -.182468286158966D+03 -.618120384673614D+02 -.211458581080861D+02
 0.201287800438276D+03 0.826737949586292D+02 0.105725649603432D+03 0.150013030261874D+03
 0.901863134283819D+02 0.797875222987990D+02 0.135501546712079D+02 0.397984387081621D+02
 0.196513784318521D+03 0.200069689015376D+02 -.574637658072787D+02 -.168665610861950D+03
 0.000000000000000D+00 -.000000000000000D+00 0.000000000000000D+00 -.000000000000000D+00
 0.358286191607030D+03 0.000000000000000D+00 0.000000000000000D+00 0.358286191607030D+03
 0.374875988190590D+03 0.000000000000000D+00 0.000000000000000D+00 -.374875988190590D+03
 0.209267570986655D+03 -.178760341457148D+03 -.701661835878277D+02 -.211458581080861D+02
 0.198725981363688D+03 0.862128738970267D+02 0.977519656836960D+02 0.150013030261874D+03
 0.911441765584397D+02 0.813918243183714D+02 0.993559917851331D+01 0.397984387081621D+02
 0.199346993900722D+03 0.235093045871289D+02 -.653546657345810D+02 -.168665610861950D+03
 0.346774569881151D+02 -.123536613453792D+02 0.278332844601994D+02 -.165897965835594D+02
0.175126466789D-04 0.000000000000D+00 0.000000000000D+00 0.129877949141D-06 0.000000000000D+00  7 -1 1 24 -13 13 -24 21 0 0.98978315D-02 0.29111248D+00 0.68840853D+05 0.68840853D+05 0.68840853D+05 0.11352766D+01  1  2  2  2  7  2        1 0.471215284587D-03 0.100000000000D+01
-.876814941282D-06 0.000000000000D+00 -.672531744329D-07 0.129877949141D-06 0.000000000000D+00  7 -1 1 24 -13 13 -24 21 2 0.98978315D-02 0.29111248D+00 0.68840853D+05 0.68840853D+05 0.68840853D+05 0.11352766D+01  1  2  3  2  7  2        1 -.304073733294D-04 0.100000000000D+01
0.112220546714D-05 0.000000000000D+00 0.000000000000D+00 0.129877949141D-06 0.000000000000D+00  7 -1 1 24 -13 13 -24 21 2 0.98978315D-02 0.29111248D+00 0.68840853D+05 0.68840853D+05 0.68840853D+05 0.11352766D+01  1  2 15  2  7  2        1 0.389173575687D-04 0.100000000000D+01
0.452035207911D-04 0.000000000000D+00 0.000000000000D+00 0.129877949141D-06 0.000000000000D+00  7 -1 1 24 -13 13 -24 21 2 0.98978315D-02 0.31648186D+00 0.77629756D+05 0.77629756D+05 0.77629756D+05 0.11308598D+01  1  2 12  2  7  2        1 0.121009292135D-02 0.100000000000D+01
-.442529858681D-04 0.000000000000D+00 0.000000000000D+00 0.129877949141D-06 0.000000000000D+00  7 -1 1 24 -13 13 -24 21 2 0.98978315D-02 0.29111248D+00 0.68840853D+05 0.68840853D+05 0.68840853D+05 0.11352766D+01  1  2  4  2  7  2        1 -.153466484075D-02 0.100000000000D+01
-.119663097005D-03 0.000000000000D+00 -.215111519615D-04 0.129877949141D-06 0.000000000000D+00  7 -1 1 24 -13 13 -24 21 2 0.98978315D-02 0.31633504D+00 0.68840853D+05 0.68840853D+05 0.68840853D+05 0.11352766D+01  1  2  5  2  7  2        1 -.324463816286D-02 0.100000000000D+01
0.121106234047D-03 0.000000000000D+00 0.214371051800D-04 0.129877949141D-06 0.000000000000D+00  7 -1 1 24 -13 13 -24 21 2 0.98978315D-02 0.29111248D+00 0.68840853D+05 0.68840853D+05 0.68840853D+05 0.11352766D+01  1  2  6  2  7  2        1 0.419988562901D-02 0.100000000000D+01
0.630419608332D-06 0.000000000000D+00 0.000000000000D+00 0.129877949141D-06 0.000000000000D+00  7 -1 21 24 -13 13 -24 -1 2 0.98978315D-02 0.31648186D+00 0.77629756D+05 0.77629756D+05 0.77629756D+05 0.11308598D+01  1  2 12  4  7  2        1 0.870859563635D-05 0.100000000000D+01
-.160289463135D-05 0.000000000000D+00 -.297146572971D-06 0.129877949141D-06 0.000000000000D+00  7 -1 21 24 -13 13 -24 -1 2 0.98978315D-02 0.31633504D+00 0.68840853D+05 0.68840853D+05 0.68840853D+05 0.11352766D+01  1  2  5  4  7  2        1 -.225895242718D-04 0.100000000000D+01
  </mgrwgt>
  </event>
  <event>
  8     66 0.29788925E-05 0.28789916E+03 0.75467711E-02 0.89160856E-01
       -3 -1    0    0    0  501 0.00000000E+00 0.00000000E+00 0.38855390E+03 0.38855422E+03 0.50000000E+00 0.0000E+00 0.9000E+01
        3 -1    0    0  501    0 0.00000000E+00 0.00000000E+00 -.46011456E+03 0.46011483E+03 0.50000000E+00 0.0000E+00 0.9000E+01
       25  2    1    2    0    0 -.21583218E+03 0.99843107E+02 0.23556628E+03 0.44966163E+03 0.30025311E+03 0.0000E+00 0.0000E+00
       23  2    1    2    0    0 0.21583218E+03 -.99843107E+02 -.30712694E+03 0.39900742E+03 0.91256718E+02 0.0000E+00 0.0000E+00
       24  1    3    3    0    0 -.29953729E+02 -.29324542E+02 -.26184749E+02 0.94392858E+02 0.80419002E+02 0.0000E+00 0.9000E+01
      -11  1    4    4    0    0 0.21452505E+03 -.86206833E+02 -.30818604E+03 0.38526776E+03 0.51099893E-03 0.0000E+00 0.9000E+01
       11  1    4    4    0    0 0.13071247E+01 -.13636273E+02 0.10590939E+01 0.13739658E+02 0.51099893E-03 0.0000E+00 0.9000E+01
      -24  1    3    3    0    0 -.18587845E+03 0.12916765E+03 0.26175103E+03 0.35526877E+03 0.80419002E+02 0.0000E+00 0.9000E+01
#aMCatNLO 1  0  0  2  2 0.79989031D+03 0.00000000D+00  -5  7  0 0.00000000D+00 0.00000000D+00 0.00000000D+00 0.00000000D+00 0.00000000D+00
  <mgrwgt>
 0.9896810773D-04    5    2    0
 0.422823313968295D+03 0.000000000000000D+00 0.000000000000000D+00 0.422823313968295D+03
 0.422823313968295D+03 0.000000000000000D+00 0.000000000000000D+00 -.422823313968295D+03
 0.925144099404112D+02 -.299537285534125D+02 -.293245420504100D+02 -.182905842316241D+02
 0.360565296561762D+03 0.214525050433840D+03 -.862068334649865D+02 -.276685232141092D+03
 0.138783876652372D+02 0.130712464761740D+01 -.136362730385197D+02 0.222556216743914D+01
 0.378688533769180D+03 -.185878446528044D+03 0.129167648553916D+03 0.292750254205277D+03
 0.000000000000000D+00 0.000000000000000D+00 -.000000000000000D+00 -.000000000000000D+00
 0.764277379876970D+03 0.000000000000000D+00 0.000000000000000D+00 0.764277379876970D+03
 0.145960074088769D+04 0.000000000000000D+00 0.000000000000000D+00 -.145960074088769D+04
 0.149448046812111D+03 -.124249423690021D+03 -.974874262394829D+01 -.182905842316241D+02
 0.281056687648532D+03 -.355227951206497D+02 -.342968659473577D+02 -.276685232141092D+03
 0.152709916075128D+02 -.100527409208493D+02 -.112779633664005D+02 0.222556216743914D+01
 0.718244345591364D+03 -.613366453410441D+03 0.217914218244337D+03 0.292750254205277D+03
 0.105985804910514D+04 0.783191413141960D+03 -.162590646306631D+03 -.695323361010722D+03
0.427572905098D-04 0.000000000000D+00 0.000000000000D+00 0.545005662443D-05 0.000000000000D+00  7 -3 3 24 -11 11 -24 21 0 0.59777568D-01 0.70786900D-01 0.82885929D+05 0.82885929D+05 0.82885929D+05 0.11284737D+01  1  2  2  2  7  2        3 0.956025303023D-04 0.100000000000D+01
-.194876695658D-05 0.000000000000D+00 -.164199253811D-06 0.545005662443D-05 0.000000000000D+00  7 -3 3 24 -11 11 -24 21 2 0.59777568D-01 0.70786900D-01 0.82885929D+05 0.82885929D+05 0.82885929D+05 0.11284737D+01  1  2  3  2  7  2        3 -.554883701937D-05 0.100000000000D+01
0.260932788354D-05 0.000000000000D+00 0.000000000000D+00 0.545005662443D-05 0.000000000000D+00  7 -3 3 24 -11 11 -24 21 2 0.59777568D-01 0.70786900D-01 0.82885929D+05 0.82885929D+05 0.82885929D+05 0.11284737D+01  1  2 15  2  7  2        3 0.742969040344D-05 0.100000000000D+01
0.239008455709D-04 0.000000000000D+00 -.172147006882D-04 0.545005662443D-05 0.000000000000D+00  7 -3 3 24 -11 11 -24 21 2 0.59777568D-01 0.33711566D+00 0.82885929D+05 0.82885929D+05 0.82885929D+05 0.11284737D+01  1  2  5  2  7  2        3 0.265684272469D-06 0.100000000000D+01
0.420120366928D-05 0.000000000000D+00 -.326403354592D-05 0.545005662443D-05 0.000000000000D+00  7 -3 21 24 -11 11 -24 -3 2 0.59777568D-01 0.33711566D+00 0.82885929D+05 0.82885929D+05 0.82885929D+05 0.11284737D+01  1  2  5  4  7  2        3 0.121903976638D-05 0.100000000000D+01
  </mgrwgt>
  </event>
  <event>
  8     66 0.29788925E-05 0.21831197E+03 0.75467711E-02 0.97117333E-01
       -1 -1    0    0    0  501 0.00000000E+00 0.00000000E+00 0.42567953E+03 0.42567965E+03 0.32000000E+00 0.0000E+00 0.9000E+01
        1 -1    0    0  501    0 0.00000000E+00 0.00000000E+00 -.51439138E+03 0.51439148E+03 0.32000000E+00 0.0000E+00 0.9000E+01
       25  2    1    2    0    0 0.20574820E+03 -.27324541E+03 -.28334741E+03 0.53616960E+03 0.30032767E+03 0.0000E+00 0.0000E+00
       23  2    1    2    0    0 -.20574820E+03 0.27324541E+03 0.19463556E+03 0.40390153E+03 0.90873928E+02 0.0000E+00 0.0000E+00
       24  1    3    3    0    0 -.37570261E+02 -.80635517E+02 -.14186686E+03 0.18576069E+03 0.80419002E+02 0.0000E+00 0.9000E+01
      -13  1    4    4    0    0 -.18308315E+03 0.27323186E+03 0.19260524E+03 0.38114548E+03 0.10565837E+00 0.0000E+00 0.9000E+01
       13  1    4    4    0    0 -.22665047E+02 0.13552862E-01 0.20303233E+01 0.22756052E+02 0.10565837E+00 0.0000E+00 0.9000E+01
      -24  1    3    3    0    0 0.24331846E+03 -.19260990E+03 -.14148055E+03 0.35040891E+03 0.80419002E+02 0.0000E+00 0.9000E+01
#aMCatNLO 1  0  0  1  2 0.15703390D+02 0.00000000D+00  -5  7  0 0.00000000D+00 0.00000000D+00 0.00000000D+00 0.00000000D+00 0.00000000D+00
  <mgrwgt>
 0.9661637694D-03    9    2    0
 0.467938013455639D+03 0.000000000000000D+00 0.000000000000000D+00 0.467938013455639D+03
 0.467938013455639D+03 0.000000000000000D+00 0.000000000000000D+00 -.467938013455639D+03
 0.173145782012917D+03 -.375702609898111D+02 -.806355170277885D+02 -.124894494503612D+03
 0.401111575358024D+03 -.183083366347447D+03 0.273232229060105D+03 0.229597747933050D+03
 0.230500004211325D+02 -.226648297223655D+02 0.131835441814658D-01 0.419616959434982D+01
 0.338568669119205D+03 0.243318457059624D+03 -.192609895576498D+03 -.108899423023788D+03
 0.000000000000000D+00 -.000000000000000D+00 0.000000000000000D+00 0.000000000000000D+00
 0.484751631798354D+03 0.000000000000000D+00 0.000000000000000D+00 0.484751631798354D+03
 0.471684920788454D+03 0.000000000000000D+00 0.000000000000000D+00 -.471684920788454D+03
 0.174105309148078D+03 -.362829359192684D+02 -.832487628913652D+02 -.124894494503612D+03
 0.395697772766757D+03 -.180129444311222D+03 0.267235822465429D+03 0.229597747933050D+03
 0.228849891808350D+02 -.224945400811378D+02 -.332501248829391D+00 0.419616959434982D+01
 0.343319692875823D+03 0.245846345397635D+03 -.197741461716282D+03 -.108899423023788D+03
 0.204287886153154D+02 -.693942508600697D+01 0.140869033910476D+02 0.130667110098995D+02
0.371054744329D-04 0.000000000000D+00 0.000000000000D+00 0.664104591439D-05 0.000000000000D+00  7 -1 1 24 -13 13 -24 21 0 0.65489176D-01 0.79137152D-01 0.15684065D+06 0.15684065D+06 0.15684065D+06 0.11060268D+01  1  2  2  1  7  1       -1 0.468588061018D-03 0.100000000000D+01
-.199164613034D-05 0.000000000000D+00 -.142494791918D-06 0.664104591439D-05 0.000000000000D+00  7 -1 1 24 -13 13 -24 21 2 0.65489176D-01 0.79137152D-01 0.15684065D+06 0.15684065D+06 0.15684065D+06 0.11060268D+01  1  2  3  1  7  1       -1 -.307678173096D-04 0.100000000000D+01
0.235515288592D-05 0.000000000000D+00 0.000000000000D+00 0.664104591439D-05 0.000000000000D+00  7 -1 1 24 -13 13 -24 21 2 0.65489176D-01 0.79137152D-01 0.15684065D+06 0.15684065D+06 0.15684065D+06 0.11060268D+01  1  2 15  1  7  1       -1 0.363834280730D-04 0.100000000000D+01
0.119147911253D-03 0.000000000000D+00 0.000000000000D+00 0.664104591439D-05 0.000000000000D+00  7 -1 1 24 -13 13 -24 21 2 0.68098538D-01 0.79137152D-01 0.16296084D+06 0.16296084D+06 0.16296084D+06 0.11047228D+01  1  2 12  1  7  1       -1 0.170147506179D-02 0.100000000000D+01
-.120176020356D-03 0.000000000000D+00 0.000000000000D+00 0.664104591439D-05 0.000000000000D+00  7 -1 1 24 -13 13 -24 21 2 0.65489176D-01 0.79137152D-01 0.15684065D+06 0.15684065D+06 0.15684065D+06 0.11060268D+01  1  2  4  1  7  1       -1 -.185653153087D-02 0.100000000000D+01
-.921486337007D-03 0.000000000000D+00 -.114215573785D-03 0.664104591439D-05 0.000000000000D+00  7 -1 1 24 -13 13 -24 21 2 0.68238634D-01 0.79137152D-01 0.15684065D+06 0.15684065D+06 0.15684065D+06 0.11060268D+01  1  2  5  1  7  1       -1 -.131522190462D-01 0.100000000000D+01
0.925497309218D-03 0.000000000000D+00 0.114119052633D-03 0.664104591439D-05 0.000000000000D+00  7 -1 1 24 -13 13 -24 21 2 0.65489176D-01 0.79137152D-01 0.15684065D+06 0.15684065D+06 0.15684065D+06 0.11060268D+01  1  2  6  1  7  1       -1 0.142974857314D-01 0.100000000000D+01
0.235024419150D-05 0.000000000000D+00 0.000000000000D+00 0.664104591439D-05 0.000000000000D+00  7 21 1 24 -13 13 -24 1 2 0.68098538D-01 0.79137152D-01 0.16296084D+06 0.16296084D+06 0.16296084D+06 0.11047228D+01  1  2 12  3  7  1       -1 0.274430846867D-03 0.100000000000D+01
-.661841828370D-05 0.000000000000D+00 -.828858153991D-06 0.664104591439D-05 0.000000000000D+00  7 21 1 24 -13 13 -24 1 2 0.68238634D-01 0.79137152D-01 0.15684065D+06 0.15684065D+06 0.15684065D+06 0.11060268D+01  1  2  5  3  7  1       -1 -.772680965367D-03 0.100000000000D+01
  </mgrwgt>
  </event>
  <event>
  8     66 0.29788925E-05 0.24376863E+03 0.75467711E-02 0.90971559E-01
       -1 -1    0    0    0  501 0.00000000E+00 0.00000000E+00 0.13140999E+03 0.13141038E+03 0.32000000E+00 0.0000E+00 0.9000E+01
        1 -1    0    0  501    0 0.00000000E+00 0.00000000E+00 -.10858308E+04 0.10858308E+04 0.32000000E+00 0.0000E+00 0.9000E+01
       25  2    1    2    0    0 0.56106355E+02 0.16515436E+03 -.13082918E+03 0.37023180E+03 0.29921803E+03 0.0000E+00 0.0000E+00
       23  2    1    2    0    0 -.56106355E+02 -.16515436E+03 -.82359164E+03 0.84700942E+03 0.93262502E+02 0.0000E+00 0.0000E+00
       24  1    3    3    0    0 0.64787949E+02 -.25104733E+02 0.27560328E+02 0.10979305E+03 0.80419002E+02 0.0000E+00 0.9000E+01
      -13  1    4    4    0    0 -.11053865E+02 -.25922869E+02 -.34906364E+02 0.44862551E+02 0.10565837E+00 0.0000E+00 0.9000E+01
       13  1    4    4    0    0 -.45052490E+02 -.13923149E+03 -.78868527E+03 0.80214687E+03 0.10565837E+00 0.0000E+00 0.9000E+01
      -24  1    3    3    0    0 -.86815946E+01 0.19025909E+03 -.15838951E+03 0.26043875E+03 0.80419002E+02 0.0000E+00 0.9000E+01
#aMCatNLO 1  0  0  1  1 0.61870078D+03 0.00000000D+00  -5  7  0 0.00000000D+00 0.00000000D+00 0.00000000D+00 0.00000000D+00 0.00000000D+00
  <mgrwgt>
 0.1237499512D-02    3    2    0
 0.377742340362495D+03 0.000000000000000D+00 0.000000000000000D+00 0.377742340362495D+03
 0.377742340362495D+03 0.000000000000000D+00 0.000000000000000D+00 -.377742340362495D+03
 0.211716769241352D+03 0.647879492201887D+02 -.251047328213677D+02 0.183109389298953D+03
 0.281844579582971D+02 -.110538213211589D+02 -.259227235002257D+02 0.434868869611776D+00
 0.296060084968163D+03 -.450525333779937D+02 -.139231633145824D+03 -.257364324410216D+03
 0.219523368557179D+03 -.868159452103601D+01 0.190259089467418D+03 0.738200662416517D+02
 0.000000000000000D+00 -.000000000000000D+00 -.000000000000000D+00 -.000000000000000D+00
 0.703658114907405D+03 0.000000000000000D+00 0.000000000000000D+00 0.703658114907405D+03
 0.932508599254074D+03 0.000000000000000D+00 0.000000000000000D+00 -.932508599254074D+03
 0.320135861311919D+03 0.249097689470602D+03 0.210011046025221D+02 0.183109389298953D+03
 0.224959486988639D+02 0.650911256345794D+01 -.215292835590132D+02 0.434868869611776D+00
 0.319207513199696D+03 0.168164069658917D+03 -.858946254416327D+02 -.257364324410216D+03
 0.314658379467708D+03 0.176435284796753D+03 0.236566836039291D+03 0.738200662416517D+02
 0.659669011483291D+03 -.600206156489729D+03 -.150144031641167D+03 -.228850484346670D+03
0.394561534393D-04 0.000000000000D+00 0.000000000000D+00 0.661561737865D-06 0.000000000000D+00  7 -1 1 24 -13 13 -24 21 0 0.20216954D-01 0.16705093D+00 0.59423143D+05 0.59423143D+05 0.59423143D+05 0.11407575D+01  1  2  2  1  7  1       -1 0.120784488681D-02 0.100000000000D+01
-.168072983106D-05 0.000000000000D+00 -.151522018251D-06 0.661561737865D-06 0.000000000000D+00  7 -1 1 24 -13 13 -24 21 2 0.20216954D-01 0.16705093D+00 0.59423143D+05 0.59423143D+05 0.59423143D+05 0.11407575D+01  1  2  3  1  7  1       -1 -.669546914016D-04 0.100000000000D+01
0.242513491258D-05 0.000000000000D+00 0.000000000000D+00 0.661561737865D-06 0.000000000000D+00  7 -1 1 24 -13 13 -24 21 2 0.20216954D-01 0.16705093D+00 0.59423143D+05 0.59423143D+05 0.59423143D+05 0.11407575D+01  1  2 15  1  7  1       -1 0.966093161904D-04 0.100000000000D+01
  </mgrwgt>
  </event>
  <event>
  8     66 0.29788925E-05 0.36067222E+03 0.75467711E-02 0.80624267E-01
       -1 -1    0    0    0  501 0.00000000E+00 0.00000000E+00 0.11724006E+03 0.11724049E+03 0.32000000E+00 0.0000E+00 0.9000E+01
        1 -1    0    0  501    0 0.00000000E+00 0.00000000E+00 -.11978983E+04 0.11978984E+04 0.32000000E+00 0.0000E+00 0.9000E+01
       25  2    1    2    0    0 -.15629161E+03 0.24741985E+03 -.77192332E+03 0.87935140E+03 0.30290201E+03 0.0000E+00 0.0000E+00
       23  2    1    2    0    0 0.15629161E+03 -.24741985E+03 -.30873495E+03 0.43578746E+03 0.94603332E+02 0.0000E+00 0.0000E+00
       24  1    3    3    0    0 -.10775142E+03 -.20640965E+02 -.28055473E+03 0.31179254E+03 0.80419002E+02 0.0000E+00 0.9000E+01
      -11  1    4    4    0    0 0.50472455E+01 -.61041038E+02 -.30808284E+02 0.68561166E+02 0.51099893E-03 0.0000E+00 0.9000E+01
       11  1    4    4    0    0 0.15124436E+03 -.18637882E+03 -.27792667E+03 0.36722629E+03 0.51099893E-03 0.0000E+00 0.9000E+01
      -24  1    3    3    0    0 -.48540188E+02 0.26806082E+03 -.49136859E+03 0.56755886E+03 0.80419002E+02 0.0000E+00 0.9000E+01
#aMCatNLO 1  0  0  1  1 0.20887135D+04 0.00000000D+00  -5  7  0 0.00000000D+00 0.00000000D+00 0.00000000D+00 0.00000000D+00 0.00000000D+00
  <mgrwgt>
 0.6383522492D-03    5    2    0
 0.374755899591433D+03 0.000000000000000D+00 0.000000000000000D+00 0.374755899591433D+03
 0.374755899591433D+03 0.000000000000000D+00 0.000000000000000D+00 -.374755899591433D+03
 0.142581748044202D+03 -.107751418828504D+03 -.206409653152626D+02 -.427307993403868D+02
 0.758816958909052D+02 0.504724549088406D+01 -.610410384053112D+02 0.447945165688379D+02
 0.243638356317247D+03 0.151244361589804D+03 -.186378816469641D+03 0.418058432236245D+02
 0.287409998930512D+03 -.485401882521848D+02 0.268060820190215D+03 -.438695604520756D+02
 0.000000000000000D+00 0.000000000000000D+00 -.000000000000000D+00 0.000000000000000D+00
 0.301675351769073D+04 0.000000000000000D+00 0.000000000000000D+00 0.301675351769073D+04
 0.168143727386476D+04 0.000000000000000D+00 0.000000000000000D+00 -.168143727386476D+04
 0.367954836086885D+03 -.111727113423353D+03 0.338547893744996D+03 -.427307993403868D+02
 0.544146881769677D+02 0.403259023214552D+01 0.306291983372131D+02 0.447945165688379D+02
 0.197325986307690D+03 0.147810445964583D+03 0.123862376888286D+03 0.418058432236245D+02
 0.159942415751690D+04 -.632335062049654D+02 0.159554611498792D+04 -.438695604520756D+02
 0.247907112346704D+04 0.231175834315900D+02 -.208858558395842D+04 0.133531624382597D+04
0.209556973458D-04 0.000000000000D+00 0.000000000000D+00 0.109108170080D-07 0.000000000000D+00  7 -1 1 24 -11 11 -24 21 0 0.18036969D-01 0.18429209D+00 0.13008445D+06 0.13008445D+06 0.13008445D+06 0.11124673D+01  1  2  2  1  7  1       -1 0.630821540530D-03 0.100000000000D+01
-.116212844371D-05 0.000000000000D+00 -.804753955697D-07 0.109108170080D-07 0.000000000000D+00  7 -1 1 24 -11 11 -24 21 2 0.18036969D-01 0.18429209D+00 0.13008445D+06 0.13008445D+06 0.13008445D+06 0.11124673D+01  1  2  3  1  7  1       -1 -.432945333191D-04 0.100000000000D+01
0.136293663445D-05 0.000000000000D+00 0.000000000000D+00 0.109108170080D-07 0.000000000000D+00  7 -1 1 24 -11 11 -24 21 2 0.18036969D-01 0.18429209D+00 0.13008445D+06 0.13008445D+06 0.13008445D+06 0.11124673D+01  1  2 15  1  7  1       -1 0.507755453808D-04 0.100000000000D+01
0.199649329998D-03 0.000000000000D+00 -.519499032571D-04 0.109108170080D-07 0.000000000000D+00  7 -1 1 24 -11 11 -24 21 2 0.66775866D+00 0.18429209D+00 0.13008445D+06 0.13008445D+06 0.13008445D+06 0.11124673D+01  1  2  5  1  7  1       -1 0.220497838216D-07 0.100000000000D+01
0.529856531599D-04 0.000000000000D+00 -.179455736567D-04 0.109108170080D-07 0.000000000000D+00  7 21 1 24 -11 11 -24 1 2 0.66775866D+00 0.18429209D+00 0.13008445D+06 0.13008445D+06 0.13008445D+06 0.11124673D+01  1  2  5  3  7  1       -1 0.276468650551D-07 0.100000000000D+01
  </mgrwgt>
  </event>
  <event>
  8     66 0.29788925E-05 0.33361086E+03 0.75467711E-02 0.96759779E-01
       -1 -1    0    0    0  501 0.00000000E+00 0.00000000E+00 0.16476878E+03 0.16476909E+03 0.32000000E+00 0.0000E+00 0.9000E+01
        1 -1    0    0  501    0 0.00000000E+00 0.00000000E+00 -.10931217E+04 0.10931217E+04 0.32000000E+00 0.0000E+00 0.9000E+01
       25  2    1    2    0    0 0.23600599E+03 -.13268271E+03 -.15292799E+03 0.43156360E+03 0.29926015E+03 0.0000E+00 0.0000E+00
       23  2    1    2    0    0 -.23600599E+03 0.13268271E+03 -.77542489E+03 0.82632720E+03 0.90715794E+02 0.0000E+00 0.0000E+00
       24  1    3    3    0    0 0.54561973E+02 -.15542787E+03 -.14132230E+03 0.23146067E+03 0.80419002E+02 0.0000E+00 0.9000E+01
      -11  1    4    4    0    0 -.73805461E+02 -.12214112E+01 -.16745604E+03 0.18300345E+03 0.51099893E-03 0.0000E+00 0.9000E+01
       11  1    4    4    0    0 -.16220053E+03 0.13390412E+03 -.60796885E+03 0.64332375E+03 0.51099893E-03 0.0000E+00 0.9000E+01
      -24  1    3    3    0    0 0.18144402E+03 0.22745166E+02 -.11605690E+02 0.20010293E+03 0.80419002E+02 0.0000E+00 0.9000E+01
#aMCatNLO 1  0  0  2  1 0.15599047D+03 0.00000000D+00  -5  7  0 0.00000000D+00 0.00000000D+00 0.00000000D+00 0.00000000D+00 0.00000000D+00
  <mgrwgt>
 0.5516753009D-03    4    2    0
 0.424396683963426D+03 0.000000000000000D+00 0.000000000000000D+00 0.424396683963426D+03
 0.424396683963426D+03 0.000000000000000D+00 0.000000000000000D+00 -.424396683963426D+03
 0.188450197174453D+03 0.545619732610758D+02 -.155427870731218D+03 0.437198917489197D+02
 0.880544822768759D+02 -.738054614946901D+02 -.122141117712770D+01 -.480088935233969D+02
 0.288434614735419D+03 -.162200528107332D+03 0.133904116354804D+03 -.197370725495224D+03
 0.283854073740104D+03 0.181444016340947D+03 0.227451655535414D+02 0.201659727269701D+03
 0.000000000000000D+00 0.000000000000000D+00 0.000000000000000D+00 0.000000000000000D+00
 0.564553740346083D+03 0.000000000000000D+00 0.000000000000000D+00 0.564553740346083D+03
 0.477225829355137D+03 0.000000000000000D+00 0.000000000000000D+00 -.477225829355137D+03
 0.206678635592439D+03 0.310359141335691D+02 -.182686029995012D+03 0.437198917489197D+02
 0.985614546581122D+02 -.849166161419585D+02 -.140952045030047D+02 -.480088935233969D+02
 0.294112131779321D+03 -.196885491761017D+03 0.937168389953925D+02 -.197370725495224D+03
 0.263656010009619D+03 0.148845143429029D+03 -.150250901802068D+02 0.201659727269701D+03
 0.178771337661728D+03 0.101921050340377D+03 0.118089485682830D+03 0.873279109909462D+02
0.351710993815D-04 0.000000000000D+00 0.000000000000D+00 0.154997042755D-05 0.000000000000D+00  7 -1 1 24 -11 11 -24 21 0 0.25349070D-01 0.16817259D+00 0.11129621D+06 0.11129621D+06 0.11129621D+06 0.11179276D+01  1  2  2  2  7  2        1 0.727901504313D-03 0.100000000000D+01
-.181631678733D-05 0.000000000000D+00 -.135066282388D-06 0.154997042755D-05 0.000000000000D+00  7 -1 1 24 -11 11 -24 21 2 0.25349070D-01 0.16817259D+00 0.11129621D+06 0.11129621D+06 0.11129621D+06 0.11179276D+01  1  2  3  2  7  2        1 -.469792038391D-04 0.100000000000D+01
0.223374914023D-05 0.000000000000D+00 0.000000000000D+00 0.154997042755D-05 0.000000000000D+00  7 -1 1 24 -11 11 -24 21 2 0.25349070D-01 0.16817259D+00 0.11129621D+06 0.11129621D+06 0.11129621D+06 0.11179276D+01  1  2 15  2  7  2        1 0.577761307480D-04 0.100000000000D+01
-.723071537070D-05 0.000000000000D+00 0.000000000000D+00 0.154997042755D-05 0.000000000000D+00  7 -1 1 24 -11 11 -24 21 2 0.25349070D-01 0.16817259D+00 0.11129621D+06 0.11129621D+06 0.11129621D+06 0.11179276D+01  1  2  4  2  7  2        1 -.187023130366D-03 0.100000000000D+01
  </mgrwgt>
  </event>
  <event>
  8     66 0.29788925E-05 0.58975789E+03 0.75467711E-02 0.84023049E-01
       -1 -1    0    0    0  501 0.00000000E+00 0.00000000E+00 0.11554413E+04 0.11554414E+04 0.32000000E+00 0.0000E+00 0.9000E+01
        1 -1    0    0  501    0 0.00000000E+00 0.00000000E+00 -.47755267E+03 0.47755278E+03 0.32000000E+00 0.0000E+00 0.9000E+01
       25  2    1    2    0    0 0.49838054E+03 0.23317318E+03 -.14155801E+03 0.64175348E+03 0.29842244E+03 0.0000E+00 0.0000E+00
       23  2    1    2    0    0 -.49838054E+03 -.23317318E+03 0.81944666E+03 0.99124067E+03 0.91171994E+02 0.0000E+00 0.0000E+00
       24  1    3    3    0    0 0.62829137E+01 0.16784280E+02 -.18486703E+02 0.84440282E+02 0.80419002E+02 0.0000E+00 0.9000E+01
      -13  1    4    4    0    0 -.42480074E+03 -.22146474E+03 0.74630808E+03 0.88683598E+03 0.10565837E+00 0.0000E+00 0.9000E+01
       13  1    4    4    0    0 -.73579803E+02 -.11708446E+02 0.73138580E+02 0.10440468E+03 0.10565837E+00 0.0000E+00 0.9000E+01
      -24  1    3    3    0    0 0.49209763E+03 0.21638890E+03 -.12307131E+03 0.55731319E+03 0.80419002E+02 0.0000E+00 0.9000E+01
#aMCatNLO 1  0  0  1  1 0.12627637D+04 0.00000000D+00  -5  7  0 0.00000000D+00 0.00000000D+00 0.00000000D+00 0.00000000D+00 0.00000000D+00
  <mgrwgt>
 0.1391108573D-02    3    2    0
 0.742821791890251D+03 0.000000000000000D+00 0.000000000000000D+00 0.742821791890251D+03
 0.742821791890251D+03 0.000000000000000D+00 0.000000000000000D+00 -.742821791890251D+03
 0.101250672400745D+03 0.628291365627396D+01 0.167842798575054D+02 -.588497719017259D+02
 0.634260670436588D+03 -.424801210497857D+03 -.221465019041672D+03 0.415672677672105D+03
 0.813864937382625D+02 -.735793309862224D+02 -.117081645881756D+02 0.327530501877973D+02
 0.668745747204905D+03 0.492097627827806D+03 0.216388903772342D+03 -.389575955958176D+03
 0.000000000000000D+00 0.000000000000000D+00 0.000000000000000D+00 -.000000000000000D+00
 0.104394841878838D+04 0.000000000000000D+00 0.000000000000000D+00 0.104394841878838D+04
 0.674816339683801D+04 0.000000000000000D+00 0.000000000000000D+00 -.674816339683801D+04
 0.124485297448443D+03 -.745846290899002D+02 -.179186413925041D+01 -.588497719017259D+02
 0.122646968278401D+04 -.109138833650485D+04 -.374587248536833D+03 0.415672677672105D+03
 0.169995014025820D+03 -.163634118613959D+03 -.323947175086825D+02 0.327530501877973D+02
 0.428847160122279D+03 0.988964848709329D+02 0.126066373827516D+03 -.389575955958176D+03
 0.584231466124584D+04 0.123071059933778D+04 0.282707456357250D+03 -.570421497804963D+04
0.113062589102D-02 0.000000000000D+00 0.000000000000D+00 0.273418714042D-05 0.000000000000D+00  7 -1 1 24 -13 13 -24 21 0 0.17776021D+00 0.73469654D-01 0.34781437D+06 0.34781437D+06 0.34781437D+06 0.10798319D+01  1  2  2  1  7  1       -1 0.137339509950D-02 0.100000000000D+01
-.587463468498D-04 0.000000000000D+00 -.434190112217D-05 0.273418714042D-05 0.000000000000D+00  7 -1 1 24 -13 13 -24 21 2 0.17776021D+00 0.73469654D-01 0.34781437D+06 0.34781437D+06 0.34781437D+06 0.10798319D+01  1  2  3  1  7  1       -1 -.832088870985D-04 0.100000000000D+01
0.712522449186D-04 0.000000000000D+00 0.000000000000D+00 0.273418714042D-05 0.000000000000D+00  7 -1 1 24 -13 13 -24 21 2 0.17776021D+00 0.73469654D-01 0.34781437D+06 0.34781437D+06 0.34781437D+06 0.10798319D+01  1  2 15  1  7  1       -1 0.100922360638D-03 0.100000000000D+01
  </mgrwgt>
  </event>
  <event>
  8     66 0.29788925E-05 0.23516773E+03 0.75467711E-02 0.97197393E-01
       -1 -1    0    0    0  501 0.00000000E+00 0.00000000E+00 0.40560904E+02 0.40562166E+02 0.32000000E+00 0.0000E+00 0.9000E+01
        1 -1    0    0  501    0 0.00000000E+00 0.00000000E+00 -.36695256E+04 0.36695256E+04 0.32000000E+00 0.0000E+00 0.9000E+01
       25  2    1    2    0    0 -.11413529E+03 -.28507495E+03 -.24468048E+04 0.24841601E+04 0.29983812E+03 0.0000E+00 0.0000E+00
       23  2    1    2    0    0 0.11413529E+03 0.28507495E+03 -.11821598E+04 0.12259277E+04 0.10536675E+03 0.0000E+00 0.0000E+00
       24  1    3    3    0    0 -.23047001E+02 -.15616206E+03 -.19243647E+04 0.19325021E+04 0.80419002E+02 0.0000E+00 0.9000E+01
      -11  1    4    4    0    0 0.55015536E+02 0.24535413E+03 -.86101425E+03 0.89697876E+03 0.51099893E-03 0.0000E+00 0.9000E+01
       11  1    4    4    0    0 0.59119751E+02 0.39720816E+02 -.32114559E+03 0.32894890E+03 0.51099893E-03 0.0000E+00 0.9000E+01
      -24  1    3    3    0    0 -.91088286E+02 -.12891289E+03 -.52244016E+03 0.55165800E+03 0.80419002E+02 0.0000E+00 0.9000E+01
#aMCatNLO 1  0  0  1  2 0.11449287D+03 0.00000000D+00  -5  7  0 0.00000000D+00 0.00000000D+00 0.00000000D+00 0.00000000D+00 0.00000000D+00
  <mgrwgt>
 0.3370490032D-03    9    2    0
 0.385800002034948D+03 0.000000000000000D+00 0.000000000000000D+00 0.385800002034948D+03
 0.385800002034948D+03 0.000000000000000D+00 0.000000000000000D+00 -.385800002034948D+03
 0.241447591945747D+03 -.230470007414918D+02 -.156162062384485D+03 -.164048680978164D+03
 0.263452080875830D+03 0.550155359688463D+02 0.245354134819512D+03 0.786233950350288D+02
 0.712847091080170D+02 0.591197512013033D+02 0.397208156615063D+02 0.293625164031192D+01
 0.195415622140302D+03 -.910882864286578D+02 -.128912888096534D+03 0.824890343028229D+02
 0.000000000000000D+00 -.000000000000000D+00 0.000000000000000D+00 0.000000000000000D+00
 0.504203202366079D+03 0.000000000000000D+00 0.000000000000000D+00 0.504203202366079D+03
 0.418725968461656D+03 0.000000000000000D+00 0.000000000000000D+00 -.418725968461656D+03
 0.248881634720094D+03 0.109087320359380D+02 -.168653141035880D+03 -.164048680978164D+03
 0.261428890830722D+03 0.913640076608499D+02 0.231982854578297D+03 0.786233950350288D+02
 0.782633708092839D+02 0.694760880519114D+02 0.359110961366998D+02 0.293625164031192D+01
 0.191474296199540D+03 -.642958172732708D+02 -.138768862687884D+03 0.824890343028229D+02
 0.142880978268095D+03 -.107453010475428D+03 0.395280530087666D+02 0.854772339044227D+02
0.973241294833D-04 0.000000000000D+00 0.000000000000D+00 0.218699441867D-07 0.000000000000D+00  7 -1 1 24 -11 11 -24 21 0 0.62402372D-02 0.56454249D+00 0.11457574D+06 0.11457574D+06 0.11457574D+06 0.11169048D+01  1  2  2  1  7  1       -1 0.269598536746D-03 0.100000000000D+01
-.529438363884D-05 0.000000000000D+00 -.373750283248D-06 0.218699441867D-07 0.000000000000D+00  7 -1 1 24 -11 11 -24 21 2 0.62402372D-02 0.56454249D+00 0.11457574D+06 0.11457574D+06 0.11457574D+06 0.11169048D+01  1  2  3  1  7  1       -1 -.182955194596D-04 0.100000000000D+01
0.622660658820D-05 0.000000000000D+00 0.000000000000D+00 0.218699441867D-07 0.000000000000D+00  7 -1 1 24 -11 11 -24 21 2 0.62402372D-02 0.56454249D+00 0.11457574D+06 0.11457574D+06 0.11457574D+06 0.11169048D+01  1  2 15  1  7  1       -1 0.215169526376D-04 0.100000000000D+01
0.816907125310D-04 0.000000000000D+00 0.000000000000D+00 0.218699441867D-07 0.000000000000D+00  7 -1 1 24 -11 11 -24 21 2 0.83597994D-02 0.56454249D+00 0.16079497D+06 0.16079497D+06 0.16079497D+06 0.11051780D+01  1  2 12  1  7  1       -1 0.173880855309D-03 0.100000000000D+01
-.910741269278D-04 0.000000000000D+00 0.000000000000D+00 0.218699441867D-07 0.000000000000D+00  7 -1 1 24 -11 11 -24 21 2 0.62402372D-02 0.56454249D+00 0.11457574D+06 0.11457574D+06 0.11457574D+06 0.11169048D+01  1  2  4  1  7  1       -1 -.314720008058D-03 0.100000000000D+01
-.118245473641D-03 0.000000000000D+00 -.411796588792D-04 0.218699441867D-07 0.000000000000D+00  7 -1 1 24 -11 11 -24 21 2 0.94318813D-02 0.56454249D+00 0.11457574D+06 0.11457574D+06 0.11457574D+06 0.11169048D+01  1  2  5  1  7  1       -1 -.218202036745D-03 0.100000000000D+01
0.127502006328D-03 0.000000000000D+00 0.378999304243D-04 0.218699441867D-07 0.000000000000D+00  7 -1 1 24 -11 11 -24 21 2 0.62402372D-02 0.56454249D+00 0.11457574D+06 0.11457574D+06 0.11457574D+06 0.11169048D+01  1  2  6  1  7  1       -1 0.440601890049D-03 0.100000000000D+01
0.309983972881D-05 0.000000000000D+00 0.000000000000D+00 0.218699441867D-07 0.000000000000D+00  7 21 1 24 -11 11 -24 1 2 0.83597994D-02 0.56454249D+00 0.16079497D+06 0.16079497D+06 0.16079497D+06 0.11051780D+01  1  2 12  3  7  1       -1 0.946510617971D-04 0.100000000000D+01
-.429584216466D-05 0.000000000000D+00 -.200714142144D-05 0.218699441867D-07 0.000000000000D+00  7 21 1 24 -11 11 -24 1 2 0.94318813D-02 0.56454249D+00 0.11457574D+06 0.11457574D+06 0.11457574D+06 0.11169048D+01  1  2  5  3  7  1       -1 -.111982729078D-03 0.100000000000D+01
  </mgrwgt>
  </event>
  <event>
  8     66 0.29788925E-05 0.39087270E+03 0.75467711E-02 0.88901595E-01
       -1 -1    0    0    0  501 0.00000000E+00 0.00000000E+00 0.31369389E+03 0.31369405E+03 0.32000000E+00 0.0000E+00 0.9000E+01
        1 -1    0    0  501    0 0.00000000E+00 0.00000000E+00 -.19313532E+04 0.19313532E+04 0.32000000E+00 0.0000E+00 0.9000E+01
       25  2    1    2    0    0 0.56021949E+03 -.48816124E+03 -.93952897E+03 0.12349302E+04 0.30031772E+03 0.0000E+00 0.0000E+00
       23  2    1    2    0    0 -.56021949E+03 0.48816124E+03 -.67813030E+03 0.10101170E+04 0.91260067E+02 0.0000E+00 0.0000E+00
       24  1    3    3    0    0 0.49868606E+03 -.47362172E+03 -.86676267E+03 0.11093918E+04 0.80419002E+02 0.0000E+00 0.9000E+01
      -13  1    4    4    0    0 -.50910894E+03 0.42375487E+03 -.56730106E+03 0.87211846E+03 0.10565837E+00 0.0000E+00 0.9000E+01
       13  1    4    4    0    0 -.51110551E+02 0.64406362E+02 -.11082924E+03 0.13799855E+03 0.10565837E+00 0.0000E+00 0.9000E+01
      -24  1    3    3    0    0 0.61533423E+02 -.14539517E+02 -.72766304E+02 0.12553848E+03 0.80419002E+02 0.0000E+00 0.9000E+01
#aMCatNLO 1  0  0  1  2 0.16423856D+03 0.00000000D+00  -5  7  0 0.00000000D+00 0.00000000D+00 0.00000000D+00 0.00000000D+00 0.00000000D+00
  <mgrwgt>
 0.8713538557D-03    9    2    0
 0.778366175119287D+03 0.000000000000000D+00 0.000000000000000D+00 0.778366175119287D+03
 0.778366175119287D+03 0.000000000000000D+00 0.000000000000000D+00 -.778366175119287D+03
 0.699227604921074D+03 0.498686064942100D+03 -.473621719405381D+03 -.971941514153268D+02
 0.668225686603535D+03 -.509109550831932D+03 0.423755355978884D+03 0.881160131172693D+02
 0.838474869612695D+02 -.511099371315860D+02 0.644058803207524D+02 -.164334407910973D+02
 0.105431571752696D+03 0.615334230214188D+02 -.145395168942550D+02 0.255115790891549D+02
 0.000000000000000D+00 -.000000000000000D+00 0.000000000000000D+00 0.000000000000000D+00
 0.100358628729686D+04 0.000000000000000D+00 0.000000000000000D+00 0.100358628729686D+04
 0.813213767971825D+03 0.000000000000000D+00 0.000000000000000D+00 -.813213767971825D+03
 0.766254744168349D+03 0.573483507148236D+03 -.492289631178381D+03 -.971941514153268D+02
 0.608994831722381D+03 -.443920892665334D+03 0.407485600177602D+03 0.881160131172693D+02
 0.774357001124901D+02 -.428781287638724D+02 0.623513893139982D+02 -.164334407910973D+02
 0.112686856856019D+03 0.726660719871949D+02 -.173179983845732D+02 0.255115790891549D+02
 0.251427922409448D+03 -.159350557706223D+03 0.397706400713538D+02 0.190372519325038D+03
0.383152818260D-03 0.000000000000D+00 0.000000000000D+00 0.156640637384D-04 0.000000000000D+00  7 -1 1 24 -13 13 -24 21 0 0.48260613D-01 0.29713127D+00 0.59239945D+06 0.59239945D+06 0.59239945D+06 0.10633442D+01  1  2  2  1  7  1       -1 0.657796470298D-03 0.100000000000D+01
-.212830044165D-04 0.000000000000D+00 -.147140770857D-05 0.156640637384D-04 0.000000000000D+00  7 -1 1 24 -13 13 -24 21 2 0.48260613D-01 0.29713127D+00 0.59239945D+06 0.59239945D+06 0.59239945D+06 0.10633442D+01  1  2  3  1  7  1       -1 -.413142786199D-04 0.100000000000D+01
0.243049564064D-04 0.000000000000D+00 0.000000000000D+00 0.156640637384D-04 0.000000000000D+00  7 -1 1 24 -13 13 -24 21 2 0.48260613D-01 0.29713127D+00 0.59239945D+06 0.59239945D+06 0.59239945D+06 0.10633442D+01  1  2 15  1  7  1       -1 0.471804507092D-04 0.100000000000D+01
0.713331677977D-03 0.000000000000D+00 0.000000000000D+00 0.156640637384D-04 0.000000000000D+00  7 -1 1 24 -13 13 -24 21 2 0.63078453D-01 0.29713127D+00 0.73301279D+06 0.73301279D+06 0.73301279D+06 0.10569628D+01  1  2 12  1  7  1       -1 0.817953620814D-03 0.100000000000D+01
-.727822461071D-03 0.000000000000D+00 0.000000000000D+00 0.156640637384D-04 0.000000000000D+00  7 -1 1 24 -13 13 -24 21 2 0.48260613D-01 0.29713127D+00 0.59239945D+06 0.59239945D+06 0.59239945D+06 0.10633442D+01  1  2  4  1  7  1       -1 -.141283905947D-02 0.100000000000D+01
-.104373931924D-02 0.000000000000D+00 -.201977347805D-03 0.156640637384D-04 0.000000000000D+00  7 -1 1 24 -13 13 -24 21 2 0.64289283D-01 0.29713127D+00 0.59239945D+06 0.59239945D+06 0.59239945D+06 0.10633442D+01  1  2  5  1  7  1       -1 -.118281050459D-02 0.100000000000D+01
0.106557372084D-02 0.000000000000D+00 0.193947315173D-03 0.156640637384D-04 0.000000000000D+00  7 -1 1 24 -13 13 -24 21 2 0.48260613D-01 0.29713127D+00 0.59239945D+06 0.59239945D+06 0.59239945D+06 0.10633442D+01  1  2  6  1  7  1       -1 0.206847720985D-02 0.100000000000D+01
0.253891142748D-04 0.000000000000D+00 0.000000000000D+00 0.156640637384D-04 0.000000000000D+00  7 21 1 24 -13 13 -24 1 2 0.63078453D-01 0.29713127D+00 0.73301279D+06 0.73301279D+06 0.73301279D+06 0.10569628D+01  1  2 12  3  7  1       -1 0.234781324247D-03 0.100000000000D+01
-.348303764154D-04 0.000000000000D+00 -.755686890702D-05 0.156640637384D-04 0.000000000000D+00  7 21 1 24 -13 13 -24 1 2 0.64289283D-01 0.29713127D+00 0.59239945D+06 0.59239945D+06 0.59239945D+06 0.10633442D+01  1  2  5  3  7  1       -1 -.317871377525D-03 0.100000000000D+01
  </mgrwgt>
  </event>
  <event>
  7     66 0.29788925E-05 0.24626243E+03 0.75467711E-02 0.92606520E-01
       -1 -1    0    0    0  501 0.00000000E+00 0.00000000E+00 0.99545306E+02 0.99545821E+02 0.32000000E+00 0.0000E+00 0.9000E+01
        1 -1    0    0  501    0 0.00000000E+00 0.00000000E+00 -.40547869E+04 0.40547869E+04 0.32000000E+00 0.0000E+00 0.9000E+01
       23  2    1    2    0    0 0.54764739E+03 -.44107270E+02 -.26729296E+04 0.27306623E+04 0.10050166E+03 0.0000E+00 0.0000E+00
       24  1    1    2    0    0 -.45078230E+03 -.50170380E+02 -.98157650E+03 0.10842884E+04 0.80419002E+02 0.0000E+00 0.9000E+01
      -11  1    3    3    0    0 0.89621027E+02 0.23502764E+02 -.55886179E+03 0.56648990E+03 0.51099893E-03 0.0000E+00 0.9000E+01
       11  1    3    3    0    0 0.45802636E+03 -.67610035E+02 -.21140678E+04 0.21641724E+04 0.51099893E-03 0.0000E+00 0.9000E+01
      -24  1    1    2    0    0 -.96865085E+02 0.94277650E+02 -.30073543E+03 0.33938199E+03 0.80419002E+02 0.0000E+00 0.9000E+01
#aMCatNLO 1  0  0  2  1 0.25532687D+02 0.00000000D+00  -5  7  0 0.00000000D+00 0.00000000D+00 0.00000000D+00 0.00000000D+00 0.00000000D+00
  <mgrwgt>
 0.2433518073D-02    9    2    0
 0.635323614311997D+03 0.000000000000000D+00 0.000000000000000D+00 0.635323614311997D+03
 0.635323614311997D+03 0.000000000000000D+00 0.000000000000000D+00 -.635323614311997D+03
 0.489610874272193D+03 -.450782302656137D+03 -.501703800270906D+02 0.165921188614291D+03
 0.112504983001477D+03 0.896210273560873D+02 0.235027643797996D+02 -.638205509401920D+02
 0.495057239101863D+03 0.458026360111385D+03 -.676100345663196D+02 -.175278083787495D+03
 0.173474132248462D+03 -.968650848113356D+02 0.942776502136107D+02 0.731774461133969D+02
 0.000000000000000D+00 -.000000000000000D+00 -.000000000000000D+00 -.000000000000000D+00
 0.647610159736152D+03 0.000000000000000D+00 0.000000000000000D+00 0.647610159736152D+03
 0.648856669449278D+03 0.000000000000000D+00 0.000000000000000D+00 -.648856669449278D+03
 0.480608992414736D+03 -.441167660655557D+03 -.485699701056278D+02 0.165921188614291D+03
 0.114381663542149D+03 0.918694186291686D+02 0.238770214452788D+02 -.638205509401920D+02
 0.504012878280178D+03 0.467926901052591D+03 -.659620351973156D+02 -.175278083787495D+03
 0.171900198437677D+03 -.934425095170610D+02 0.948473566527667D+02 0.731774461133969D+02
 0.255630965106905D+02 -.251861495091418D+02 -.419237279510206D+01 -.124650971312655D+01
0.172002549002D-02 0.000000000000D+00 0.000000000000D+00 0.196255748787D-09 0.000000000000D+00  7 -1 1 24 -11 11 -24 21 0 0.15314703D-01 0.62381340D+00 0.34431371D+06 0.34431371D+06 0.34431371D+06 0.10801527D+01  1  2  2  2  7  2        1 0.500102775336D-03 0.100000000000D+01
-.948230284935D-04 0.000000000000D+00 -.660535077478D-05 0.196255748787D-09 0.000000000000D+00  7 -1 1 24 -11 11 -24 21 2 0.15314703D-01 0.62381340D+00 0.34431371D+06 0.34431371D+06 0.34431371D+06 0.10801527D+01  1  2  3  2  7  2        1 -.321668496214D-04 0.100000000000D+01
0.110469577951D-03 0.000000000000D+00 0.000000000000D+00 0.196255748787D-09 0.000000000000D+00  7 -1 1 24 -11 11 -24 21 2 0.15314703D-01 0.62381340D+00 0.34431371D+06 0.34431371D+06 0.34431371D+06 0.10801527D+01  1  2 15  2  7  2        1 0.374746341490D-04 0.100000000000D+01
0.144818645626D-02 0.000000000000D+00 0.000000000000D+00 0.196255748787D-09 0.000000000000D+00  7 -1 1 24 -11 11 -24 21 2 0.15314703D-01 0.64301160D+00 0.35976851D+06 0.35976851D+06 0.35976851D+06 0.10787622D+01  1  2 12  2  7  2        1 0.370244996004D-03 0.100000000000D+01
-.114216779673D-02 0.000000000000D+00 0.000000000000D+00 0.196255748787D-09 0.000000000000D+00  7 -1 1 24 -11 11 -24 21 2 0.15314703D-01 0.62381340D+00 0.34431371D+06 0.34431371D+06 0.34431371D+06 0.10801527D+01  1  2  4  2  7  2        1 -.387457987194D-03 0.100000000000D+01
-.269951852051D-01 0.000000000000D+00 -.357313593265D-02 0.196255748787D-09 0.000000000000D+00  7 -1 1 24 -11 11 -24 21 2 0.15314703D-01 0.63976961D+00 0.34431371D+06 0.34431371D+06 0.34431371D+06 0.10801527D+01  1  2  5  2  7  2        1 -.728117854976D-02 0.100000000000D+01
0.272038608315D-01 0.000000000000D+00 0.363937653586D-02 0.196255748787D-09 0.000000000000D+00  7 -1 1 24 -11 11 -24 21 2 0.15314703D-01 0.62381340D+00 0.34431371D+06 0.34431371D+06 0.34431371D+06 0.10801527D+01  1  2  6  2  7  2        1 0.922837536820D-02 0.100000000000D+01
0.264324169376D-04 0.000000000000D+00 0.000000000000D+00 0.196255748787D-09 0.000000000000D+00  7 -1 21 24 -11 11 -24 -1 2 0.15314703D-01 0.64301160D+00 0.35976851D+06 0.35976851D+06 0.35976851D+06 0.10787622D+01  1  2 12  4  7  2        1 0.472311944299D-06 0.100000000000D+01
-.122303779225D-03 0.000000000000D+00 -.162979667187D-04 0.196255748787D-09 0.000000000000D+00  7 -1 21 24 -11 11 -24 -1 2 0.15314703D-01 0.63976961D+00 0.34431371D+06 0.34431371D+06 0.34431371D+06 0.10801527D+01  1  2  5  4  7  2        1 -.234862642609D-05 0.100000000000D+01
  </mgrwgt>
  </event>
  <event>
  8     66 0.29788925E-05 0.23036987E+03 0.75467711E-02 0.98323576E-01
       -1 -1    0    0    0  501 0.00000000E+00 0.00000000E+00 0.87001736E+02 0.87002325E+02 0.32000000E+00 0.0000E+00 0.9000E+01
        1 -1    0    0  501    0 0.00000000E+00 0.00000000E+00 -.11629364E+04 0.11629364E+04 0.32000000E+00 0.0000E+00 0.9000E+01
       25  2    1    2    0    0 -.61727568E+02 -.11658953E+03 -.25973941E+03 0.41801038E+03 0.29977442E+03 0.0000E+00 0.0000E+00
       23  2    1    2    0    0 0.61727568E+02 0.11658953E+03 -.81619524E+03 0.83192838E+03 0.92340420E+02 0.0000E+00 0.0000E+00
       24  1    3    3    0    0 -.35822739E+02 -.17714199E+03 -.24200166E+03 0.31256131E+03 0.80419002E+02 0.0000E+00 0.9000E+01
      -11  1    4    4    0    0 -.22215828E+02 0.13340088E+02 -.18934763E+03 0.19111260E+03 0.51099893E-03 0.0000E+00 0.9000E+01
       11  1    4    4    0    0 0.83943396E+02 0.10324944E+03 -.62684760E+03 0.64081577E+03 0.51099893E-03 0.0000E+00 0.9000E+01
      -24  1    3    3    0    0 -.25904828E+02 0.60552466E+02 -.17737753E+02 0.10544906E+03 0.80419002E+02 0.0000E+00 0.9000E+01
#aMCatNLO 1  0  0  1  2 0.21668861D+03 0.00000000D+00  -5  7  0 0.00000000D+00 0.00000000D+00 0.00000000D+00 0.00000000D+00 0.00000000D+00
  <mgrwgt>
 0.8864646794D-03    7    2    0
 0.318084705765982D+03 0.000000000000000D+00 0.000000000000000D+00 0.318084705765982D+03
 0.318084705765982D+03 0.000000000000000D+00 0.000000000000000D+00 -.318084705765982D+03
 0.204826770256908D+03 -.358227394294584D+02 -.177141993290918D+03 0.531435359398951D+02
 0.552578754931879D+02 -.222158283913932D+02 0.133400883284325D+02 -.488050388412349D+02
 0.198898930926607D+03 0.839433959714576D+02 0.103249439028960D+03 -.147830458081992D+03
 0.177185834855260D+03 -.259048281506061D+02 0.605524659335255D+02 0.143491960983331D+03
 0.000000000000000D+00 -.000000000000000D+00 -.000000000000000D+00 0.000000000000000D+00
 0.475153359728247D+03 0.000000000000000D+00 0.000000000000000D+00 0.475153359728247D+03
 0.420405170127477D+03 0.000000000000000D+00 0.000000000000000D+00 -.420405170127477D+03
 0.186531068022759D+03 0.259739284533861D+02 -.157568217010423D+03 0.531435359398951D+02
 0.525336363288732D+02 -.519520019613647D+01 0.187312846479338D+02 -.488050388412349D+02
 0.247997419115776D+03 0.154509774411768D+03 0.125600975961889D+03 -.147830458081992D+03
 0.184998493550909D+03 0.312852482083424D+02 0.786671280741558D+02 0.143491960983331D+03
 0.223497912837408D+03 -.206573750877360D+03 -.654311716735553D+02 0.547481896007696D+02
0.172152433119D-04 0.000000000000D+00 0.000000000000D+00 0.143117857987D-05 0.000000000000D+00  7 -1 1 24 -11 11 -24 21 0 0.13384931D-01 0.17891334D+00 0.53070277D+05 0.53070277D+05 0.53070277D+05 0.11450258D+01  1  2  2  1  7  1       -1 0.889471823233D-03 0.100000000000D+01
-.835360460839D-06 0.000000000000D+00 -.661110671953D-07 0.143117857987D-05 0.000000000000D+00  7 -1 1 24 -11 11 -24 21 2 0.13384931D-01 0.17891334D+00 0.53070277D+05 0.53070277D+05 0.53070277D+05 0.11450258D+01  1  2  3  1  7  1       -1 -.565878898726D-04 0.100000000000D+01
0.105776974538D-05 0.000000000000D+00 0.000000000000D+00 0.143117857987D-05 0.000000000000D+00  7 -1 1 24 -11 11 -24 21 2 0.13384931D-01 0.17891334D+00 0.53070277D+05 0.53070277D+05 0.53070277D+05 0.11450258D+01  1  2 15  1  7  1       -1 0.716540471664D-04 0.100000000000D+01
-.597858674667D-05 0.000000000000D+00 0.000000000000D+00 0.143117857987D-05 0.000000000000D+00  7 -1 1 24 -11 11 -24 21 2 0.13384931D-01 0.17891334D+00 0.53070277D+05 0.53070277D+05 0.53070277D+05 0.11450258D+01  1  2  4  1  7  1       -1 -.404993561791D-03 0.100000000000D+01
-.224507555863D-05 0.000000000000D+00 -.563969180183D-05 0.143117857987D-05 0.000000000000D+00  7 -1 1 24 -11 11 -24 21 2 0.26663329D-01 0.17891334D+00 0.53070277D+05 0.53070277D+05 0.53070277D+05 0.11450258D+01  1  2  5  1  7  1       -1 -.509622757812D-04 0.100000000000D+01
0.581296350338D-05 0.000000000000D+00 0.452253780011D-05 0.143117857987D-05 0.000000000000D+00  7 -1 1 24 -11 11 -24 21 2 0.13384931D-01 0.17891334D+00 0.53070277D+05 0.53070277D+05 0.53070277D+05 0.11450258D+01  1  2  6  1  7  1       -1 0.393774129832D-03 0.100000000000D+01
0.169844474754D-06 0.000000000000D+00 -.420620026956D-06 0.143117857987D-05 0.000000000000D+00  7 21 1 24 -11 11 -24 1 2 0.26663329D-01 0.17891334D+00 0.53070277D+05 0.53070277D+05 0.53070277D+05 0.11450258D+01  1  2  5  3  7  1       -1 0.441084066497D-04 0.100000000000D+01
  </mgrwgt>
  </event>
  <event>
  9     66 0.29788925E-05 0.18977506E+03 0.75467711E-02 0.10489698E+00
       -1 -1    0    0    0  501 0.00000000E+00 0.00000000E+00 0.12963262E+03 0.12963301E+03 0.32000000E+00 0.0000E+00 0.9000E+01
        1 -1    0    0  502    0 0.00000000E+00 0.00000000E+00 -.70043692E+03 0.70043699E+03 0.32000000E+00 0.0000E+00 0.9000E+01
       25  2    1    2    0    0 0.11826148E+03 -.21682128E+02 -.43159088E+03 0.53896208E+03 0.29958896E+03 0.0000E+00 0.0000E+00
       23  2    1    2    0    0 -.60669791E+02 0.39114084E+02 0.22394336E+02 0.11865994E+03 0.91476450E+02 0.0000E+00 0.0000E+00
       24  1    3    3    0    0 0.87523527E+01 -.88104913E+02 -.34398617E+03 0.36418784E+03 0.80419002E+02 0.0000E+00 0.9000E+01
      -13  1    4    4    0    0 0.17355915E+02 0.27517820E+02 0.22883004E+02 0.39775636E+02 0.10565837E+00 0.0000E+00 0.9000E+01
       13  1    4    4    0    0 -.78025706E+02 0.11596264E+02 -.48866815E+00 0.78884308E+02 0.10565837E+00 0.0000E+00 0.9000E+01
      -24  1    3    3    0    0 0.10950913E+03 0.66422784E+02 -.87604709E+02 0.17477424E+03 0.80419002E+02 0.0000E+00 0.9000E+01
       21  1    1    2  502  501 -.57591689E+02 -.17431956E+02 -.16160776E+03 0.17244798E+03 0.75000000E+00 0.0000E+00 0.9000E+01
#aMCatNLO 2  0  0  2  1 0.60172051D+02 0.00000000D+00  -5  7  0 0.00000000D+00 0.00000000D+00 0.00000000D+00 0.00000000D+00 0.00000000D+00
  <mgrwgt>
 0.3884672709D-04    2    2    0
 0.255638534443057D+03 0.000000000000000D+00 0.000000000000000D+00 0.255638534443057D+03
 0.255638534443057D+03 0.000000000000000D+00 0.000000000000000D+00 -.255638534443057D+03
 0.195142274441144D+03 -.129658624618468D+02 -.946786218122388D+02 -.149937107822072D+03
 0.665817160330901D+02 0.974621245120959D+01 0.252144852092493D+02 0.608470704997330D+02
 0.109466307603933D+03 -.898040165497405D+02 0.803120187049044D+01 0.620774589403288D+02
 0.140086770807948D+03 0.930236665603777D+02 0.614329347324991D+02 0.270125783820102D+02
 0.000000000000000D+00 -.000000000000000D+00 -.000000000000000D+00 -.000000000000000D+00
 0.268633325422214D+03 0.000000000000000D+00 0.000000000000000D+00 0.268633325422214D+03
 0.338002225912097D+03 0.000000000000000D+00 0.000000000000000D+00 -.338002225912097D+03
 0.191800499623104D+03 0.875235420899562D+01 -.881049130017985D+02 -.149937107822072D+03
 0.689987645492023D+02 0.173560360504332D+02 0.275178402774062D+02 0.608470704997330D+02
 0.100379848097582D+03 -.780258297413932D+02 0.115962445978242D+02 0.620774589403288D+02
 0.153626595689745D+03 0.109509128908514D+03 0.664227840707100D+02 0.270125783820102D+02
 0.918298433746778D+02 -.575916894265493D+02 -.174319559441419D+02 -.693689004898827D+02
-.481475429652D-05 0.000000000000D+00 0.000000000000D+00 0.653581604413D-06 0.000000000000D+00  7 -1 1 24 -13 13 -24 21 2 0.18978669D-01 0.10933718D+00 0.48936289D+05 0.48936289D+05 0.48936289D+05 0.11481177D+01  1  2 13  2  7  2        1 -.429005525085D-03 0.100000000000D+01
0.555878337057D-05 0.000000000000D+00 0.000000000000D+00 0.653581604413D-06 0.133810688829D-08  7 -1 1 24 -13 13 -24 21 2 0.19943405D-01 0.10775897D+00 0.48936289D+05 0.48936289D+05 0.48936289D+05 0.11481177D+01  1  2  1  2  7  2        1 0.467852252177D-03 0.100000000000D+01
  </mgrwgt>
  </event>
  <event>
  9     66 0.29788925E-05 0.27175882E+03 0.75467711E-02 0.98652621E-01
       21 -1    0    0  502  501 0.00000000E+00 0.00000000E+00 0.58742258E+02 0.58747045E+02 0.75000000E+00 0.0000E+00 0.9000E+01
        1 -1    0    0  501    0 0.00000000E+00 0.00000000E+00 -.27703173E+04 0.27703173E+04 0.32000000E+00 0.0000E+00 0.9000E+01
       25  2    1    2    0    0 -.29143677E+01 -.29654265E+03 -.15034449E+04 0.15628646E+04 0.30700666E+03 0.0000E+00 0.0000E+00
       23  2    1    2    0    0 0.17393160E+01 0.15040894E+03 -.32952969E+03 0.37552852E+03 0.99025153E+02 0.0000E+00 0.0000E+00
       24  1    3    3    0    0 0.78104487E+02 -.23250283E+03 -.12629583E+04 0.12890650E+04 0.80419002E+02 0.0000E+00 0.9000E+01
      -11  1    4    4    0    0 0.27215069E+01 -.12842089E+02 -.51174037E+02 0.52830937E+02 0.51099893E-03 0.0000E+00 0.9000E+01
       11  1    4    4    0    0 -.98219085E+00 0.16325103E+03 -.27835566E+03 0.32269759E+03 0.51099893E-03 0.0000E+00 0.9000E+01
      -24  1    3    3    0    0 -.81018855E+02 -.64039816E+02 -.24048668E+03 0.27379958E+03 0.80419002E+02 0.0000E+00 0.9000E+01
        1  1    1    2  502    0 0.11750517E+01 0.14613371E+03 -.87860038E+03 0.89067119E+03 0.32000000E+00 0.0000E+00 0.9000E+01
#aMCatNLO 2  0  0  1  1 0.14613843D+03 0.00000000D+00  -5  7  0 0.00000000D+00 0.00000000D+00 0.00000000D+00 0.00000000D+00 0.00000000D+00
  <mgrwgt>
 0.7052381999D-04    1    2    0
 0.306682052287640D+03 0.000000000000000D+00 0.000000000000000D+00 0.306682052287640D+03
 0.306682052287640D+03 0.000000000000000D+00 0.000000000000000D+00 -.306682052287640D+03
 0.244324115033476D+03 0.786105715648769D+02 -.169564364901137D+03 -.135260346836898D+03
 0.109770852121658D+02 0.274477036631473D+01 -.994895286094042D+01 -.373911384717492D+01
 0.226865669617630D+03 -.595147087008726D+00 0.211385194001743D+03 0.823649051953910D+02
 0.131197234712010D+03 -.807601948441829D+02 -.318718762396663D+02 0.566345554886821D+02
 0.000000000000000D+00 0.000000000000000D+00 0.000000000000000D+00 -.000000000000000D+00
 0.351365603350552D+03 0.000000000000000D+00 0.000000000000000D+00 0.351365603350552D+03
 0.463168180006244D+03 0.000000000000000D+00 0.000000000000000D+00 -.463168180006244D+03
 0.291411144143632D+03 0.781044874367942D+02 -.232502831364540D+03 -.135260346836898D+03
 0.136494252824301D+02 0.272150684972162D+01 -.128420885624351D+02 -.373911384717492D+01
 0.182854695083964D+03 -.982190817985515D+00 0.163251025134916D+03 0.823649051953910D+02
 0.142617817022196D+03 -.810188551607088D+02 -.640398158246380D+02 0.566345554886821D+02
 0.184000701824574D+03 0.117505169217844D+01 0.146133710616697D+03 -.111802576655692D+03
0.516590282845D-06 0.000000000000D+00 0.000000000000D+00 0.345508386085D-09 0.354654085399D-14  7 21 1 24 -11 11 -24 1 2 0.90376367D-02 0.42620287D+00 0.12656829D+06 0.12656829D+06 0.12656829D+06 0.11134206D+01  1  2  1  3  7  1       -1 0.705238199927D-04 0.100000000000D+01
  </mgrwgt>
  </event>
  <event>
  8     66 0.29788925E-05 0.10088088E+03 0.75467711E-02 0.10262953E+00
       -1 -1    0    0    0  501 0.00000000E+00 0.00000000E+00 0.12677104E+04 0.12677104E+04 0.32000000E+00 0.0000E+00 0.9000E+01
        1 -1    0    0  501    0 0.00000000E+00 0.00000000E+00 -.57903847E+02 0.57904731E+02 0.32000000E+00 0.0000E+00 0.9000E+01
       25  2    1    2    0    0 0.68696574E+02 0.15558533E+03 0.69140952E+03 0.77242176E+03 0.29943655E+03 0.0000E+00 0.0000E+00
       23  2    1    2    0    0 -.68696574E+02 -.15558533E+03 0.51839701E+03 0.55319338E+03 0.91440923E+02 0.0000E+00 0.0000E+00
       24  1    3    3    0    0 0.10921817E+03 -.28074913E+02 0.31270140E+03 0.34200320E+03 0.80419002E+02 0.0000E+00 0.9000E+01
      -13  1    4    4    0    0 0.44916051E+01 -.22726568E+01 0.11976053E+03 0.11986632E+03 0.10565837E+00 0.0000E+00 0.9000E+01
       13  1    4    4    0    0 -.73188179E+02 -.15331267E+03 0.39863648E+03 0.43332706E+03 0.10565837E+00 0.0000E+00 0.9000E+01
      -24  1    3    3    0    0 -.40521595E+02 0.18366024E+03 0.37870812E+03 0.43041856E+03 0.80419002E+02 0.0000E+00 0.9000E+01
#aMCatNLO 1  0  0  1  2 0.41453491D+01 0.00000000D+00  -5  7  0 0.00000000D+00 0.00000000D+00 0.00000000D+00 0.00000000D+00 0.00000000D+00
  <mgrwgt>
 0.3388423359D-02   11    2    0
 0.270935269565537D+03 0.000000000000000D+00 0.000000000000000D+00 0.270935269565537D+03
 0.270935269565537D+03 0.000000000000000D+00 0.000000000000000D+00 -.270935269565537D+03
 0.138513584266244D+03 0.109218169075896D+03 -.280749120558502D+02 0.140993924571322D+01
 0.258538450134724D+02 0.449170855403214D+01 -.227245559447803D+01 0.253590575892996D+02
 0.170062762818252D+03 -.731882830101761D+02 -.153312875273802D+03 0.774472741153554D+01
 0.207440347033106D+03 -.405215946197523D+02 0.183660242924130D+03 -.345137242465484D+02
 0.000000000000000D+00 0.000000000000000D+00 0.000000000000000D+00 0.000000000000000D+00
 0.273912336864700D+03 0.000000000000000D+00 0.000000000000000D+00 0.273912336864700D+03
 0.272390074602817D+03 0.000000000000000D+00 0.000000000000000D+00 -.272390074602817D+03
 0.138609934967136D+03 0.109065624160337D+03 -.291238701937537D+02 0.140993924571322D+01
 0.258668599532901D+02 0.446323846750307D+01 -.246822697657897D+01 0.253590575892996D+02
 0.171308960370764D+03 -.733761938768979D+02 -.154605023439644D+03 0.774472741153554D+01
 0.206100639719016D+03 -.407492316499071D+02 0.182094922215840D+03 -.345137242465484D+02
 0.441601645731052D+01 0.596562898964778D+00 0.410219839413752D+01 0.152226226188251D+01
0.581126343472D-04 0.000000000000D+00 0.000000000000D+00 0.697869045636D-06 0.000000000000D+00  7 -1 1 24 -13 13 -24 21 0 0.19503244D+00 0.89083552D-02 0.67074676D+05 0.67074676D+05 0.67074676D+05 0.11362390D+01  1  2  2  1  7  1       -1 0.897639849268D-03 0.100000000000D+01
-.322049581344D-05 0.000000000000D+00 -.223167817301D-06 0.697869045636D-06 0.000000000000D+00  7 -1 1 24 -13 13 -24 21 2 0.19503244D+00 0.89083552D-02 0.67074676D+05 0.67074676D+05 0.67074676D+05 0.11362390D+01  1  2  3  1  7  1       -1 -.642234618095D-04 0.100000000000D+01
0.374193803600D-05 0.000000000000D+00 0.000000000000D+00 0.697869045636D-06 0.000000000000D+00  7 -1 1 24 -13 13 -24 21 2 0.19503244D+00 0.89083552D-02 0.67074676D+05 0.67074676D+05 0.67074676D+05 0.11362390D+01  1  2 15  1  7  1       -1 0.746221167392D-04 0.100000000000D+01
0.376148830066D-05 0.000000000000D+00 0.000000000000D+00 0.697869045636D-06 0.000000000000D+00  7 -1 1 24 -13 13 -24 21 2 0.19769480D+00 0.89083552D-02 0.68166010D+05 0.68166010D+05 0.68166010D+05 0.11356411D+01  1  2 12  1  7  1       -1 0.713365479038D-04 0.100000000000D+01
-.653967591076D-03 0.000000000000D+00 0.000000000000D+00 0.697869045636D-06 0.000000000000D+00  7 -1 1 24 -13 13 -24 21 2 0.19503244D+00 0.89083552D-02 0.67074676D+05 0.67074676D+05 0.67074676D+05 0.11362390D+01  1  2  4  1  7  1       -1 -.130414895852D-01 0.100000000000D+01
-.410922674940D-02 0.000000000000D+00 -.443637621870D-03 0.697869045636D-06 0.000000000000D+00  7 -1 1 24 -13 13 -24 21 2 0.19779835D+00 0.89083552D-02 0.67074676D+05 0.67074676D+05 0.67074676D+05 0.11362390D+01  1  2  5  1  7  1       -1 -.778975256854D-01 0.100000000000D+01
0.411511009154D-02 0.000000000000D+00 0.443593636970D-03 0.697869045636D-06 0.000000000000D+00  7 -1 1 24 -13 13 -24 21 2 0.19503244D+00 0.89083552D-02 0.67074676D+05 0.67074676D+05 0.67074676D+05 0.11362390D+01  1  2  6  1  7  1       -1 0.820639526073D-01 0.100000000000D+01
0.650553096170D-03 0.000000000000D+00 0.000000000000D+00 0.697869045636D-06 0.279375464720D-06  7 -1 1 24 -13 13 -24 21 2 0.19717548D+00 0.89561892D-02 0.68166010D+05 0.68166010D+05 0.68166010D+05 0.11356411D+01  1  2 11  1  7  1       -1 0.123670076143D-01 0.100000000000D+01
0.261921449921D-06 0.000000000000D+00 0.000000000000D+00 0.697869045636D-06 0.000000000000D+00  7 21 1 24 -13 13 -24 1 2 0.19769480D+00 0.89083552D-02 0.68166010D+05 0.68166010D+05 0.68166010D+05 0.11356411D+01  1  2 12  3  7  1       -1 0.331018672836D-04 0.100000000000D+01
-.105920268588D-04 0.000000000000D+00 -.114702882323D-05 0.697869045636D-06 0.000000000000D+00  7 21 1 24 -13 13 -24 1 2 0.19779835D+00 0.89083552D-02 0.67074676D+05 0.67074676D+05 0.67074676D+05 0.11362390D+01  1  2  5  3  7  1       -1 -.133893444420D-02 0.100000000000D+01
0.176111753436D-05 0.000000000000D+00 0.000000000000D+00 0.697869045636D-06 0.563129336289D-09  7 21 1 24 -13 13 -24 1 2 0.19717548D+00 0.89561892D-02 0.68166010D+05 0.68166010D+05 0.68166010D+05 0.11356411D+01  1  2 11  3  7  1       -1 0.222935932622D-03 0.100000000000D+01
  </mgrwgt>
  </event>
  <event>
  8     66 0.29788925E-05 0.15849476E+03 0.75467711E-02 0.10521926E+00
       -1 -1    0    0    0  501 0.00000000E+00 0.00000000E+00 0.25080898E+03 0.25080919E+03 0.32000000E+00 0.0000E+00 0.9000E+01
        1 -1    0    0  501    0 0.00000000E+00 0.00000000E+00 -.26155495E+03 0.26155514E+03 0.32000000E+00 0.0000E+00 0.9000E+01
       25  2    1    2    0    0 0.28803120E+01 -.10737767E+02 -.15675545E+03 0.33863912E+03 0.29996764E+03 0.0000E+00 0.0000E+00
       23  2    1    2    0    0 -.28803120E+01 0.10737767E+02 0.14600949E+03 0.17372521E+03 0.93477706E+02 0.0000E+00 0.0000E+00
       24  1    3    3    0    0 0.76894599E+02 -.20647839E+02 0.34351155E+02 0.11826382E+03 0.80419002E+02 0.0000E+00 0.9000E+01
      -13  1    4    4    0    0 0.12329956E+02 0.50250996E+02 0.83245880E+02 0.98015703E+02 0.10565837E+00 0.0000E+00 0.9000E+01
       13  1    4    4    0    0 -.15210268E+02 -.39513228E+02 0.62763605E+02 0.75709502E+02 0.10565837E+00 0.0000E+00 0.9000E+01
      -24  1    3    3    0    0 -.74014287E+02 0.99100716E+01 -.19110660E+03 0.22037530E+03 0.80419002E+02 0.0000E+00 0.9000E+01
#aMCatNLO 1  0  0  2  2 0.10736524D+03 0.00000000D+00  -5  7  0 0.00000000D+00 0.00000000D+00 0.00000000D+00 0.00000000D+00 0.00000000D+00
  <mgrwgt>
 0.5581334599D-03    3    2    0
 0.256125812487711D+03 0.000000000000000D+00 0.000000000000000D+00 0.256125812487711D+03
 0.256125812487711D+03 0.000000000000000D+00 0.000000000000000D+00 -.256125812487711D+03
 0.119010448993272D+03 0.768945995190722D+02 -.206478396158194D+02 0.368396294662506D+02
 0.997836166532111D+02 0.123299802980635D+02 0.502510790806242D+02 0.853204007812740D+02
 0.770427707300148D+02 -.152102927895161D+02 -.395133098062823D+02 0.643656264101234D+02
 0.216414788598925D+03 -.740142870276196D+02 0.991007034147753D+01 -.186525656657648D+03
 0.000000000000000D+00 -.000000000000000D+00 -.000000000000000D+00 0.000000000000000D+00
 0.501271124022270D+03 0.000000000000000D+00 0.000000000000000D+00 0.501271124022270D+03
 0.273719795491587D+03 0.000000000000000D+00 0.000000000000000D+00 -.273719795491587D+03
 0.129813006352160D+03 0.949839216301666D+02 -.225765284292821D+01 0.368396294662506D+02
 0.111272719549713D+03 0.276736545664797D+02 0.658499519320020D+02 0.853204007812740D+02
 0.705770378967762D+02 -.447841759502931D+01 -.286029402502598D+02 0.643656264101234D+02
 0.211719526933024D+03 -.428891684984251D+02 0.415528671010756D+02 -.186525656657648D+03
 0.251608628782184D+03 -.752899901031919D+02 -.765422259398896D+02 0.227551328530683D+03
0.660796900960D-05 0.000000000000D+00 0.000000000000D+00 0.297828174773D-06 0.000000000000D+00  7 -1 1 24 -13 13 -24 21 0 0.38586028D-01 0.40239253D-01 0.25120590D+05 0.25120590D+05 0.25120590D+05 0.11745569D+01  1  2  2  2  7  2        1 0.541249036726D-03 0.100000000000D+01
-.264292618689D-06 0.000000000000D+00 -.253763409151D-07 0.297828174773D-06 0.000000000000D+00  7 -1 1 24 -13 13 -24 21 2 0.38586028D-01 0.40239253D-01 0.25120590D+05 0.25120590D+05 0.25120590D+05 0.11745569D+01  1  2  3  2  7  2        1 -.298649831032D-04 0.100000000000D+01
0.413712707369D-06 0.000000000000D+00 0.000000000000D+00 0.297828174773D-06 0.000000000000D+00  7 -1 1 24 -13 13 -24 21 2 0.38586028D-01 0.40239253D-01 0.25120590D+05 0.25120590D+05 0.25120590D+05 0.11745569D+01  1  2 15  2  7  2        1 0.467494063075D-04 0.100000000000D+01
  </mgrwgt>
  </event>
  <event>
  7     66 0.29788925E-05 0.19707218E+03 0.75467711E-02 0.10101613E+00
       -1 -1    0    0    0  501 0.00000000E+00 0.00000000E+00 0.19766723E+03 0.19766748E+03 0.32000000E+00 0.0000E+00 0.9000E+01
        1 -1    0    0  501    0 0.00000000E+00 0.00000000E+00 -.22924824E+03 0.22924846E+03 0.32000000E+00 0.0000E+00 0.9000E+01
       23  2    1    2    0    0 0.11422556E+03 0.35466959E+02 -.25932066E+02 0.15116557E+03 0.88730896E+02 0.0000E+00 0.0000E+00
       24  1    1    2    0    0 -.50081073E+02 0.72604362E+02 0.28446381E+02 0.12270257E+03 0.80419002E+02 0.0000E+00 0.9000E+01
      -13  1    3    3    0    0 0.93754861E-01 -.46160733E+01 0.20934717E+02 0.21438061E+02 0.10565837E+00 0.0000E+00 0.9000E+01
       13  1    3    3    0    0 0.11413181E+03 0.40083032E+02 -.46866783E+02 0.12972751E+03 0.10565837E+00 0.0000E+00 0.9000E+01
      -24  1    1    2    0    0 -.64144491E+02 -.10807132E+03 -.34095328E+02 0.15304781E+03 0.80419002E+02 0.0000E+00 0.9000E+01
#aMCatNLO 1  0  0  1  1 0.16148777D+03 0.00000000D+00  -5  7  0 0.00000000D+00 0.00000000D+00 0.00000000D+00 0.00000000D+00 0.00000000D+00
  <mgrwgt>
 0.2305338457D-02    5    2    0
 0.212873122552998D+03 0.000000000000000D+00 0.000000000000000D+00 0.212873122552998D+03
 0.212873122552998D+03 0.000000000000000D+00 0.000000000000000D+00 -.212873122552998D+03
 0.125149778637334D+03 -.500810782324592D+02 0.726043602491177D+02 0.376263686062556D+02
 0.230497011432831D+02 0.936002438883108D-01 -.461613312808505D+01 0.225825436284933D+02
 0.126607585130272D+03 0.114131975162500D+03 0.400830956659931D+02 -.373726945758045D+02
 0.150939180195107D+03 -.641444971739294D+02 -.108071322787026D+03 -.228362176589444D+02
 0.000000000000000D+00 -.000000000000000D+00 0.000000000000000D+00 0.000000000000000D+00
 0.311960164670186D+03 0.000000000000000D+00 0.000000000000000D+00 0.311960164670186D+03
 0.305020641768622D+03 0.000000000000000D+00 0.000000000000000D+00 -.305020641768622D+03
 0.104742025528404D+03 -.121681282724163D+02 0.542205588063656D+02 0.376263686062556D+02
 0.254479963696237D+02 0.809167040413877D+01 -.849435769004099D+01 0.225825436284933D+02
 0.167728817693340D+03 0.162672902283267D+03 0.165458407972542D+02 -.373726945758045D+02
 0.157425166165286D+03 -.132901308103751D+02 -.132730352873312D+03 -.228362176589444D+02
 0.161636800682154D+03 -.145306313604614D+03 0.704583109597329D+02 0.693952290156460D+01
0.167648000343D-04 0.000000000000D+00 0.000000000000D+00 0.120017674632D-10 0.000000000000D+00  7 -1 1 24 -13 13 -24 21 0 0.30410380D-01 0.35268997D-01 0.38837445D+05 0.38837445D+05 0.38837445D+05 0.11570731D+01  1  2  2  1  7  1       -1 0.242393393315D-02 0.100000000000D+01
-.924641628073D-06 0.000000000000D+00 -.643812464049D-07 0.120017674632D-10 0.000000000000D+00  7 -1 1 24 -13 13 -24 21 2 0.30410380D-01 0.35268997D-01 0.38837445D+05 0.38837445D+05 0.38837445D+05 0.11570731D+01  1  2  3  1  7  1       -1 -.178985344877D-03 0.100000000000D+01
0.109580818363D-05 0.000000000000D+00 0.000000000000D+00 0.120017674632D-10 0.000000000000D+00  7 -1 1 24 -13 13 -24 21 2 0.30410380D-01 0.35268997D-01 0.38837445D+05 0.38837445D+05 0.38837445D+05 0.11570731D+01  1  2 15  1  7  1       -1 0.212118511335D-03 0.100000000000D+01
-.331838632559D-05 0.000000000000D+00 -.535408844680D-05 0.120017674632D-10 0.000000000000D+00  7 -1 1 24 -13 13 -24 21 2 0.61864953D-01 0.35268997D-01 0.38837445D+05 0.38837445D+05 0.38837445D+05 0.11570731D+01  1  2  5  1  7  1       -1 -.186926393839D-03 0.100000000000D+01
0.704978222001D-07 0.000000000000D+00 -.411203468721D-06 0.120017674632D-10 0.000000000000D+00  7 21 1 24 -13 13 -24 1 2 0.61864953D-01 0.35268997D-01 0.38837445D+05 0.38837445D+05 0.38837445D+05 0.11570731D+01  1  2  5  3  7  1       -1 0.351977510027D-04 0.100000000000D+01
  </mgrwgt>
  </event>
  <event>
  8     66 0.29788925E-05 0.20238755E+03 0.75467711E-02 0.92051686E-01
       -1 -1    0    0    0  501 0.00000000E+00 0.00000000E+00 0.11442306E+04 0.11442307E+04 0.32000000E+00 0.0000E+00 0.9000E+01
        1 -1    0    0  501    0 0.00000000E+00 0.00000000E+00 -.75049544E+02 0.75050226E+02 0.32000000E+00 0.0000E+00 0.9000E+01
       25  2    1    2    0    0 -.14993002E+03 -.21301064E+01 0.94570712E+03 0.10042133E+04 0.30265288E+03 0.0000E+00 0.0000E+00
       23  2    1    2    0    0 0.14993002E+03 0.21301064E+01 0.12347394E+03 0.21506762E+03 0.92329402E+02 0.0000E+00 0.0000E+00
       24  1    3    3    0    0 -.72012164E+02 -.41317392E+02 0.83165008E+03 0.83964394E+03 0.80419002E+02 0.0000E+00 0.9000E+01
      -11  1    4    4    0    0 0.15063571E+03 0.20629961E+02 0.12452017E+03 0.19652477E+03 0.51099893E-03 0.0000E+00 0.9000E+01
       11  1    4    4    0    0 -.70569059E+00 -.18499854E+02 -.10462306E+01 0.18542848E+02 0.51099893E-03 0.0000E+00 0.9000E+01
      -24  1    3    3    0    0 -.77917854E+02 0.39187285E+02 0.11405704E+03 0.16456931E+03 0.80419002E+02 0.0000E+00 0.9000E+01
#aMCatNLO 1  0  0  2  1 0.56530329D+03 0.00000000D+00  -5  7  0 0.00000000D+00 0.00000000D+00 0.00000000D+00 0.00000000D+00 0.00000000D+00
  <mgrwgt>
 0.6938380132D-03    3    2    0
 0.293043390078938D+03 0.000000000000000D+00 0.000000000000000D+00 0.293043390078938D+03
 0.293043390078938D+03 0.000000000000000D+00 0.000000000000000D+00 -.293043390078938D+03
 0.229620069459400D+03 -.720121638240332D+02 -.413173915808433D+02 0.198406859151857D+03
 0.181686889625260D+03 0.150635708430452D+03 0.206299608376588D+02 -.994656419231995D+02
 0.404847042903477D+02 -.705690578450984D+00 -.184998544874442D+02 -.360037312820182D+02
 0.134295116782868D+03 -.779178540279675D+02 0.391872852306287D+02 -.629374859466392D+02
 0.000000000000000D+00 -.000000000000000D+00 0.000000000000000D+00 0.000000000000000D+00
 0.805604096871121D+03 0.000000000000000D+00 0.000000000000000D+00 0.805604096871121D+03
 0.607646032807121D+03 0.000000000000000D+00 0.000000000000000D+00 -.607646032807121D+03
 0.310708131235105D+03 0.556015104893622D+02 -.218209800728650D+03 0.198406859151857D+03
 0.321298093118646D+03 0.269429733413613D+03 -.144037042010565D+03 -.994656419231995D+02
 0.703209183096731D+02 0.254641680674553D+02 -.547753505723179D+02 -.360037312820182D+02
 0.111961212755809D+03 -.197575081586083D+02 -.414320038310980D+02 -.629374859466392D+02
 0.598961774259009D+03 -.330737903811822D+03 0.458454197142632D+03 0.197958064064001D+03
0.431670213841D-04 0.000000000000D+00 0.000000000000D+00 0.372996122943D-07 0.000000000000D+00  7 -1 1 24 -11 11 -24 21 0 0.17603553D+00 0.11546140D-01 0.40960721D+05 0.40960721D+05 0.40960721D+05 0.11549917D+01  1  2  2  2  7  2        1 0.677614773622D-03 0.100000000000D+01
-.199869769218D-05 0.000000000000D+00 -.165772728253D-06 0.372996122943D-07 0.000000000000D+00  7 -1 1 24 -11 11 -24 21 2 0.17603553D+00 0.11546140D-01 0.40960721D+05 0.40960721D+05 0.40960721D+05 0.11549917D+01  1  2  3  2  7  2        1 -.418538704559D-04 0.100000000000D+01
0.277342536356D-05 0.000000000000D+00 0.000000000000D+00 0.372996122943D-07 0.000000000000D+00  7 -1 1 24 -11 11 -24 21 2 0.17603553D+00 0.11546140D-01 0.40960721D+05 0.40960721D+05 0.40960721D+05 0.11549917D+01  1  2 15  2  7  2        1 0.580771100800D-04 0.100000000000D+01
  </mgrwgt>
  </event>
  <event>
  8     66 0.29788925E-05 0.11993176E+03 0.75467711E-02 0.99617485E-01
       -1 -1    0    0    0  501 0.00000000E+00 0.00000000E+00 0.28288398E+03 0.28288417E+03 0.32000000E+00 0.0000E+00 0.9000E+01
        1 -1    0    0  501    0 0.00000000E+00 0.00000000E+00 -.31766425E+03 0.31766441E+03 0.32000000E+00 0.0000E+00 0.9000E+01
       25  2    1    2    0    0 -.13757609E+03 -.16122008E+03 -.29920630E+02 0.36965435E+03 0.30138015E+03 0.0000E+00 0.0000E+00
       23  2    1    2    0    0 0.13757609E+03 0.16122008E+03 -.48596337E+01 0.23089423E+03 0.91484614E+02 0.0000E+00 0.0000E+00
       24  1    3    3    0    0 -.17193328E+03 -.10435109E+03 -.10540820E+03 0.24089066E+03 0.80419002E+02 0.0000E+00 0.9000E+01
      -11  1    4    4    0    0 0.27510554E+02 0.53344081E+02 -.40887036E+02 0.72623490E+02 0.51099893E-03 0.0000E+00 0.9000E+01
       11  1    4    4    0    0 0.11006553E+03 0.10787600E+03 0.36027403E+02 0.15827074E+03 0.51099893E-03 0.0000E+00 0.9000E+01
      -24  1    3    3    0    0 0.34357194E+02 -.56868986E+02 0.75487569E+02 0.12876369E+03 0.80419002E+02 0.0000E+00 0.9000E+01
#aMCatNLO 1  0  0  2  1 0.11314684D+03 0.00000000D+00  -5  7  0 0.00000000D+00 0.00000000D+00 0.00000000D+00 0.00000000D+00 0.00000000D+00
  <mgrwgt>
 0.4657185270D-03    9    2    0
 0.299770297264471D+03 0.000000000000000D+00 0.000000000000000D+00 0.299770297264471D+03
 0.299770297264471D+03 0.000000000000000D+00 0.000000000000000D+00 -.299770297264471D+03
 0.235180765861294D+03 -.171933282136647D+03 -.104351094273947D+03 -.916109834806067D+02
 0.703736692693958D+02 0.275105535449230D+02 0.533440812446898D+02 -.367427784231155D+02
 0.160626837329825D+03 0.110065534692336D+03 0.107875999382314D+03 0.452695007785512D+02
 0.133359322068427D+03 0.343571938993885D+02 -.568689863530567D+02 0.830842611251711D+02
 0.000000000000000D+00 0.000000000000000D+00 -.000000000000000D+00 -.000000000000000D+00
 0.321345801699986D+03 0.000000000000000D+00 0.000000000000000D+00 0.321345801699986D+03
 0.501609307958728D+03 0.000000000000000D+00 0.000000000000000D+00 -.501609307958728D+03
 0.270050617243136D+03 -.219030414100690D+03 -.100465045282548D+03 -.916109834806067D+02
 0.672694958282493D+02 0.146796041476002D+02 0.544027804878247D+02 -.367427784231155D+02
 0.144434900273376D+03 0.816280041003207D+02 0.110222419057282D+03 0.452695007785512D+02
 0.128368852177660D+03 0.995917197637562D+01 -.548558720819277D+02 0.830842611251711D+02
 0.212831244136291D+03 0.112763633876394D+03 -.930428218063078D+01 -.180263506258742D+03
0.951179916426D-05 0.000000000000D+00 0.000000000000D+00 0.233479816820D-06 0.000000000000D+00  7 -1 1 24 -11 11 -24 21 0 0.43520639D-01 0.48871449D-01 0.71571134D+05 0.71571134D+05 0.71571134D+05 0.11338410D+01  1  2  2  2  7  2        1 0.490970218898D-03 0.100000000000D+01
-.520113688977D-06 0.000000000000D+00 -.365278133050D-07 0.233479816820D-06 0.000000000000D+00  7 -1 1 24 -11 11 -24 21 2 0.43520639D-01 0.48871449D-01 0.71571134D+05 0.71571134D+05 0.71571134D+05 0.11338410D+01  1  2  3  2  7  2        1 -.345139854640D-04 0.100000000000D+01
0.615940064473D-06 0.000000000000D+00 0.000000000000D+00 0.233479816820D-06 0.000000000000D+00  7 -1 1 24 -11 11 -24 21 2 0.43520639D-01 0.48871449D-01 0.71571134D+05 0.71571134D+05 0.71571134D+05 0.11338410D+01  1  2 15  2  7  2        1 0.408728839146D-04 0.100000000000D+01
0.113657016377D-04 0.000000000000D+00 0.000000000000D+00 0.233479816820D-06 0.000000000000D+00  7 -1 1 24 -11 11 -24 21 2 0.43520639D-01 0.82521579D-01 0.10842017D+06 0.10842017D+06 0.10842017D+06 0.11188522D+01  1  2 12  2  7  2        1 0.360854083009D-03 0.100000000000D+01
-.137155063700D-04 0.000000000000D+00 0.000000000000D+00 0.233479816820D-06 0.000000000000D+00  7 -1 1 24 -11 11 -24 21 2 0.43520639D-01 0.48871449D-01 0.71571134D+05 0.71571134D+05 0.71571134D+05 0.11338410D+01  1  2  4  2  7  2        1 -.910140989402D-03 0.100000000000D+01
-.150156412024D-04 0.000000000000D+00 -.337675471396D-05 0.233479816820D-06 0.000000000000D+00  7 -1 1 24 -11 11 -24 21 2 0.43520639D-01 0.85425972D-01 0.71571134D+05 0.71571134D+05 0.71571134D+05 0.11338410D+01  1  2  5  2  7  2        1 -.470048845620D-03 0.100000000000D+01
0.149713552979D-04 0.000000000000D+00 0.291091489547D-05 0.233479816820D-06 0.000000000000D+00  7 -1 1 24 -11 11 -24 21 2 0.43520639D-01 0.48871449D-01 0.71571134D+05 0.71571134D+05 0.71571134D+05 0.11338410D+01  1  2  6  2  7  2        1 0.993477291752D-03 0.100000000000D+01
0.665238918689D-06 0.000000000000D+00 0.000000000000D+00 0.233479816820D-06 0.000000000000D+00  7 -1 21 24 -11 11 -24 -1 2 0.43520639D-01 0.82521579D-01 0.10842017D+06 0.10842017D+06 0.10842017D+06 0.11188522D+01  1  2 12  4  7  2        1 0.591759539560D-04 0.100000000000D+01
-.755413394335D-06 0.000000000000D+00 -.208363906559D-06 0.233479816820D-06 0.000000000000D+00  7 -1 21 24 -11 11 -24 -1 2 0.43520639D-01 0.85425972D-01 0.71571134D+05 0.71571134D+05 0.71571134D+05 0.11338410D+01  1  2  5  4  7  2        1 -.649280840497D-04 0.100000000000D+01
  </mgrwgt>
  </event>
  <event>
  9     66 0.29788925E-05 0.14435023E+03 0.75467711E-02 0.10805084E+00
       -1 -1    0    0    0  502 0.00000000E+00 0.00000000E+00 0.17017481E+04 0.17017481E+04 0.32000000E+00 0.0000E+00 0.9000E+01
        1 -1    0    0  501    0 0.00000000E+00 0.00000000E+00 -.35273259E+02 0.35274710E+02 0.32000000E+00 0.0000E+00 0.9000E+01
       25  2    1    2    0    0 -.72946749E+02 0.42521962E+02 0.10825561E+04 0.11260614E+04 0.29825704E+03 0.0000E+00 0.0000E+00
       23  2    1    2    0    0 0.75855817E+02 0.17141390E+02 0.39392888E+03 0.41180097E+03 0.91390043E+02 0.0000E+00 0.0000E+00
       24  1    3    3    0    0 -.22560014E+02 -.12415027E+02 0.76172069E+02 0.11372109E+03 0.80419002E+02 0.0000E+00 0.9000E+01
      -13  1    4    4    0    0 0.76564132E+02 -.75983420E+01 0.36799464E+03 0.37595195E+03 0.10565837E+00 0.0000E+00 0.9000E+01
       13  1    4    4    0    0 -.70831475E+00 0.24739732E+02 0.25934240E+02 0.35849017E+02 0.10565837E+00 0.0000E+00 0.9000E+01
      -24  1    3    3    0    0 -.50386735E+02 0.54936988E+02 0.10063840E+04 0.10123403E+04 0.80419002E+02 0.0000E+00 0.9000E+01
       21  1    1    2  501  502 -.29090681E+01 -.59663351E+02 0.18998984E+03 0.19916043E+03 0.75000000E+00 0.0000E+00 0.9000E+01
#aMCatNLO 2  0  0  1  2 0.59734229D+02 0.00000000D+00  -5  7  0 0.00000000D+00 0.00000000D+00 0.00000000D+00 0.00000000D+00 0.00000000D+00
  <mgrwgt>
 0.3887545145D-04    2    2    0
 0.212981590187040D+03 0.000000000000000D+00 0.000000000000000D+00 0.212981590187040D+03
 0.212981590187040D+03 0.000000000000000D+00 0.000000000000000D+00 -.212981590187040D+03
 0.148432617882032D+03 -.235575795654620D+02 -.328734163762263D+02 -.118022900480013D+03
 0.822945475441651D+02 0.760095262875477D+02 -.189760386125859D+02 0.251963177392073D+02
 0.360718889269329D+02 -.963956904119161D+00 0.194973951567312D+02 -.303332085336560D+02
 0.159164126020950D+03 -.514879898179665D+02 0.323520598320809D+02 0.123159791274461D+03
 0.000000000000000D+00 -.000000000000000D+00 -.000000000000000D+00 -.000000000000000D+00
 0.242828073218867D+03 0.000000000000000D+00 0.000000000000000D+00 0.242828073218867D+03
 0.247196856327865D+03 0.000000000000000D+00 0.000000000000000D+00 -.247196856327865D+03
 0.145119642265082D+03 -.225600685701645D+02 -.124150265875355D+02 -.118022900480013D+03
 0.809609681773238D+02 0.765642798836997D+02 -.759835419581409D+01 0.251963177392073D+02
 0.391492027424479D+02 -.708350403317952D+00 0.247397408056178D+02 -.303332085336560D+02
 0.164901340280907D+03 -.503867928260907D+02 0.549369911262045D+02 0.123159791274461D+03
 0.598937760809711D+02 -.290906808412642D+01 -.596633511484727D+02 -.436878310899825D+01
-.324436436885D-04 0.000000000000D+00 0.000000000000D+00 0.584697633216D-07 0.000000000000D+00  7 -1 1 24 -13 13 -24 21 2 0.27770546D+00 0.46755888D-02 0.31598649D+05 0.31598649D+05 0.31598649D+05 0.11652497D+01  1  2 13  1  7  1       -1 -.354075555152D-03 0.100000000000D+01
0.324932255299D-04 0.000000000000D+00 0.000000000000D+00 0.584697633216D-07 0.120283754848D-09  7 -1 1 24 -13 13 -24 21 2 0.26180500D+00 0.54267172D-02 0.31598649D+05 0.31598649D+05 0.31598649D+05 0.11652497D+01  1  2  1  1  7  1       -1 0.392951006607D-03 0.100000000000D+01
  </mgrwgt>
  </event>
  <event>
  8     66 0.29788925E-05 0.31386359E+03 0.75467711E-02 0.99848691E-01
       -1 -1    0    0    0  501 0.00000000E+00 0.00000000E+00 0.32257866E+03 0.32257882E+03 0.32000000E+00 0.0000E+00 0.9000E+01
        1 -1    0    0  501    0 0.00000000E+00 0.00000000E+00 -.39794268E+03 0.39794281E+03 0.32000000E+00 0.0000E+00 0.9000E+01
       25  2    1    2    0    0 0.13592678E+03 -.25271798E+03 -.54117630E+02 0.41910203E+03 0.30062489E+03 0.0000E+00 0.0000E+00
       23  2    1    2    0    0 -.13592678E+03 0.25271798E+03 -.21246392E+02 0.30141960E+03 0.89776951E+02 0.0000E+00 0.0000E+00
       24  1    3    3    0    0 0.20049725E+02 -.61990418E+02 0.93688842E+02 0.13960522E+03 0.80419002E+02 0.0000E+00 0.9000E+01
      -13  1    4    4    0    0 -.50824355E+02 0.88665023E+02 0.35342029E+02 0.10813728E+03 0.10565837E+00 0.0000E+00 0.9000E+01
       13  1    4    4    0    0 -.85102426E+02 0.16405296E+03 -.56588421E+02 0.19328232E+03 0.10565837E+00 0.0000E+00 0.9000E+01
      -24  1    3    3    0    0 0.11587706E+03 -.19072756E+03 -.14780647E+03 0.27949681E+03 0.80419002E+02 0.0000E+00 0.9000E+01
#aMCatNLO 1  0  0  1  2 0.17663486D+02 0.00000000D+00  -5  7  0 0.00000000D+00 0.00000000D+00 0.00000000D+00 0.00000000D+00 0.00000000D+00
  <mgrwgt>
 0.3067723303D-03    4    2    0
 0.358284693348982D+03 0.000000000000000D+00 0.000000000000000D+00 0.358284693348982D+03
 0.358284693348982D+03 0.000000000000000D+00 0.000000000000000D+00 -.358284693348982D+03
 0.150228789722641D+03 0.200497247179496D+02 -.619904179845521D+02 0.108888336951180D+03
 0.112450648529653D+03 -.508243075551976D+02 0.886649188328636D+02 0.469102364589646D+02
 0.188396881982175D+03 -.851024736249689D+02 0.164053060486486D+03 -.365724960665017D+02
 0.265493066463495D+03 0.115877056462217D+03 -.190727561334798D+03 -.119226077343643D+03
 0.000000000000000D+00 -.000000000000000D+00 0.000000000000000D+00 -.000000000000000D+00
 0.361094025709482D+03 0.000000000000000D+00 0.000000000000000D+00 0.361094025709482D+03
 0.387276981553393D+03 0.000000000000000D+00 0.000000000000000D+00 -.387276981553393D+03
 0.151838277840067D+03 0.203590615590133D+02 -.656999646233505D+02 0.108888336951180D+03
 0.110202659650919D+03 -.505962957048470D+02 0.859306160250704D+02 0.469102364589646D+02
 0.184249850755215D+03 -.847208584953628D+02 0.159476757461999D+03 -.365724960665017D+02
 0.270496268491534D+03 0.116425945320101D+03 -.197309799683245D+03 -.119226077343643D+03
 0.315839505251399D+02 -.146785267890412D+01 0.176023908195255D+02 -.261829558439111D+02
0.153182877883D-04 0.000000000000D+00 0.000000000000D+00 0.728817016462D-06 0.000000000000D+00  7 -1 1 24 -13 13 -24 21 0 0.49627508D-01 0.61221973D-01 0.98510352D+05 0.98510352D+05 0.98510352D+05 0.11222573D+01  1  2  2  1  7  1       -1 0.463413289530D-03 0.100000000000D+01
-.832886116779D-06 0.000000000000D+00 -.588262585049D-07 0.728817016462D-06 0.000000000000D+00  7 -1 1 24 -13 13 -24 21 2 0.49627508D-01 0.61221973D-01 0.98510352D+05 0.98510352D+05 0.98510352D+05 0.11222573D+01  1  2  3  1  7  1       -1 -.317342895368D-04 0.100000000000D+01
0.983047613651D-06 0.000000000000D+00 0.000000000000D+00 0.728817016462D-06 0.000000000000D+00  7 -1 1 24 -13 13 -24 21 2 0.49627508D-01 0.61221973D-01 0.98510352D+05 0.98510352D+05 0.98510352D+05 0.11222573D+01  1  2 15  1  7  1       -1 0.374556820814D-04 0.100000000000D+01
-.426130065081D-05 0.000000000000D+00 0.000000000000D+00 0.728817016462D-06 0.000000000000D+00  7 -1 1 24 -13 13 -24 21 2 0.49627508D-01 0.61221973D-01 0.98510352D+05 0.98510352D+05 0.98510352D+05 0.11222573D+01  1  2  4  1  7  1       -1 -.162362351745D-03 0.100000000000D+01
  </mgrwgt>
  </event>
  <event>
  8     66 0.29788925E-05 0.17510217E+03 0.75467711E-02 0.10373068E+00
       -1 -1    0    0    0  501 0.00000000E+00 0.00000000E+00 0.20182038E+03 0.20182063E+03 0.32000000E+00 0.0000E+00 0.9000E+01
        1 -1    0    0  501    0 0.00000000E+00 0.00000000E+00 -.13493256E+04 0.13493257E+04 0.32000000E+00 0.0000E+00 0.9000E+01
       25  2    1    2    0    0 -.95008946E+02 -.86923795E+02 0.60059366E+02 0.33321459E+03 0.30140071E+03 0.0000E+00 0.0000E+00
       23  2    1    2    0    0 0.95008946E+02 0.86923795E+02 -.12075646E+04 0.12179317E+04 0.92536015E+02 0.0000E+00 0.0000E+00
       24  1    3    3    0    0 -.17070055E+03 -.80959648E+02 -.40670241E+01 0.20537015E+03 0.80419002E+02 0.0000E+00 0.9000E+01
      -11  1    4    4    0    0 -.10731621E+02 0.16830563E+02 -.56995773E+02 0.60390013E+02 0.51099893E-03 0.0000E+00 0.9000E+01
       11  1    4    4    0    0 0.10574057E+03 0.70093232E+02 -.11505688E+04 0.11575417E+04 0.51099893E-03 0.0000E+00 0.9000E+01
      -24  1    3    3    0    0 0.75691603E+02 -.59641468E+01 0.64126390E+02 0.12784444E+03 0.80419002E+02 0.0000E+00 0.9000E+01
#aMCatNLO 1  0  0  2  1 0.17522137D+02 0.00000000D+00  -5  7  0 0.00000000D+00 0.00000000D+00 0.00000000D+00 0.00000000D+00 0.00000000D+00
  <mgrwgt>
 0.1389703920D-02    9    2    0
 0.521844456563580D+03 0.000000000000000D+00 0.000000000000000D+00 0.521844456563580D+03
 0.521844456563580D+03 0.000000000000000D+00 0.000000000000000D+00 -.521844456563580D+03
 0.300752660619862D+03 -.170700548895784D+03 -.809596483000281D+02 0.219753964399665D+03
 0.270873786312454D+02 -.107316208515885D+02 0.168305631860625D+02 -.183109403868333D+02
 0.455339454665330D+03 0.105740566845844D+03 0.700932318667681D+02 -.437309833349893D+03
 0.260509419210723D+03 0.756916029015282D+02 -.596414675280254D+01 0.235866809337062D+03
 0.000000000000000D+00 -.000000000000000D+00 0.000000000000000D+00 -.000000000000000D+00
 0.526606381139166D+03 0.000000000000000D+00 0.000000000000000D+00 0.526606381139166D+03
 0.538289581311543D+03 0.000000000000000D+00 0.000000000000000D+00 -.538289581311543D+03
 0.300359060916569D+03 -.167932284362383D+03 -.851780049060512D+02 0.219753964399665D+03
 0.267561087183374D+02 -.104836585992414D+02 0.164527115780920D+02 -.183109403868333D+02
 0.455393770523681D+03 0.109934713119079D+03 0.637020779778019D+02 -.437309833349893D+03
 0.261327049202208D+03 0.780947857641915D+02 -.962618200336624D+01 0.235866809337062D+03
 0.210599730899134D+02 -.961355592164580D+01 0.146493973535235D+02 -.116832001723775D+02
0.489190215387D-04 0.000000000000D+00 0.000000000000D+00 0.111830307611D-05 0.000000000000D+00  7 -1 1 24 -11 11 -24 21 0 0.31049312D-01 0.20758858D+00 0.53534798D+05 0.53534798D+05 0.53534798D+05 0.11446951D+01  1  2  2  2  7  2        1 0.491560790964D-03 0.100000000000D+01
-.531895050548D-06 0.000000000000D+00 -.187861923383D-06 0.111830307611D-05 0.000000000000D+00  7 -1 1 24 -11 11 -24 21 2 0.31049312D-01 0.20758858D+00 0.53534798D+05 0.53534798D+05 0.53534798D+05 0.11446951D+01  1  2  3  2  7  2        1 -.700333738857D-05 0.100000000000D+01
0.301291227887D-05 0.000000000000D+00 0.000000000000D+00 0.111830307611D-05 0.000000000000D+00  7 -1 1 24 -11 11 -24 21 2 0.31049312D-01 0.20758858D+00 0.53534798D+05 0.53534798D+05 0.53534798D+05 0.11446951D+01  1  2 15  2  7  2        1 0.396703093766D-04 0.100000000000D+01
0.111704731942D-03 0.000000000000D+00 0.000000000000D+00 0.111830307611D-05 0.000000000000D+00  7 -1 1 24 -11 11 -24 21 2 0.31049312D-01 0.21505786D+00 0.57924993D+05 0.57924993D+05 0.57924993D+05 0.11417172D+01  1  2 12  2  7  2        1 0.135425528145D-02 0.100000000000D+01
-.111036713913D-03 0.000000000000D+00 0.000000000000D+00 0.111830307611D-05 0.000000000000D+00  7 -1 1 24 -11 11 -24 21 2 0.31049312D-01 0.20758858D+00 0.53534798D+05 0.53534798D+05 0.53534798D+05 0.11446951D+01  1  2  4  2  7  2        1 -.146199437136D-02 0.100000000000D+01
-.999725804230D-03 0.000000000000D+00 -.152498204805D-03 0.111830307611D-05 0.000000000000D+00  7 -1 1 24 -11 11 -24 21 2 0.31049312D-01 0.21512220D+00 0.53534798D+05 0.53534798D+05 0.53534798D+05 0.11446951D+01  1  2  5  2  7  2        1 -.122102319816D-01 0.100000000000D+01
0.100462052318D-02 0.000000000000D+00 0.152401359733D-03 0.111830307611D-05 0.000000000000D+00  7 -1 1 24 -11 11 -24 21 2 0.31049312D-01 0.20758858D+00 0.53534798D+05 0.53534798D+05 0.53534798D+05 0.11446951D+01  1  2  6  2  7  2        1 0.132276028214D-01 0.100000000000D+01
0.237644761602D-05 0.000000000000D+00 0.000000000000D+00 0.111830307611D-05 0.000000000000D+00  7 -1 21 24 -11 11 -24 -1 2 0.31049312D-01 0.21505786D+00 0.57924993D+05 0.57924993D+05 0.57924993D+05 0.11417172D+01  1  2 12  4  7  2        1 0.264966429774D-04 0.100000000000D+01
-.626943377360D-05 0.000000000000D+00 -.966937505442D-06 0.111830307611D-05 0.000000000000D+00  7 -1 21 24 -11 11 -24 -1 2 0.31049312D-01 0.21512220D+00 0.53534798D+05 0.53534798D+05 0.53534798D+05 0.11446951D+01  1  2  5  4  7  2        1 -.706522361918D-04 0.100000000000D+01
  </mgrwgt>
  </event>
  <event>
  8     66 0.29788925E-05 0.48601206E+03 0.75467711E-02 0.85721337E-01
       -3 -1    0    0    0  501 0.00000000E+00 0.00000000E+00 0.13135310E+04 0.13135311E+04 0.50000000E+00 0.0000E+00 0.9000E+01
        3 -1    0    0  501    0 0.00000000E+00 0.00000000E+00 -.29180351E+03 0.29180394E+03 0.50000000E+00 0.0000E+00 0.9000E+01
       25  2    1    2    0    0 0.43140260E+03 -.12701644E+03 0.64699032E+02 0.54416595E+03 0.29948162E+03 0.0000E+00 0.0000E+00
       23  2    1    2    0    0 -.43140260E+03 0.12701644E+03 0.95702848E+03 0.10611691E+04 0.89078610E+02 0.0000E+00 0.0000E+00
       24  1    3    3    0    0 0.12462207E+03 -.12935801E+03 -.56325844E+02 0.20470460E+03 0.80419002E+02 0.0000E+00 0.9000E+01
      -13  1    4    4    0    0 -.30653107E+03 0.47925312E+02 0.62764178E+03 0.70013737E+03 0.10565837E+00 0.0000E+00 0.9000E+01
       13  1    4    4    0    0 -.12487153E+03 0.79091132E+02 0.32938671E+03 0.36103174E+03 0.10565837E+00 0.0000E+00 0.9000E+01
      -24  1    3    3    0    0 0.30678053E+03 0.23415693E+01 0.12102488E+03 0.33946135E+03 0.80419002E+02 0.0000E+00 0.9000E+01
#aMCatNLO 1  0  0  1  1 0.10326385D+04 0.00000000D+00  -5  7  0 0.00000000D+00 0.00000000D+00 0.00000000D+00 0.00000000D+00 0.00000000D+00
  <mgrwgt>
 0.5689812993D-04    3    2    0
 0.619106931103319D+03 0.000000000000000D+00 0.000000000000000D+00 0.619106931103319D+03
 0.619106931103319D+03 0.000000000000000D+00 0.000000000000000D+00 -.619106931103319D+03
 0.311875958345245D+03 0.124622069848988D+03 -.129358012835418D+03 -.241940574648446D+03
 0.389816780901288D+03 -.306531321296721D+03 0.479252678545679D+02 0.236006017799117D+03
 0.196277176687377D+03 -.124871275160981D+03 0.790911756377083D+02 0.129137448729188D+03
 0.340243946272729D+03 0.306780526608714D+03 0.234156934314198D+01 -.123202891879859D+03
 0.000000000000000D+00 -.000000000000000D+00 0.000000000000000D+00 -.000000000000000D+00
 0.111741283246550D+04 0.000000000000000D+00 0.000000000000000D+00 0.111741283246550D+04
 0.166261714255455D+04 0.000000000000000D+00 0.000000000000000D+00 -.166261714255455D+04
 0.555338660572981D+03 0.322204719014833D+03 -.373607667688946D+03 -.241940574648446D+03
 0.315736220023515D+03 -.145780997203327D+03 -.150792642565026D+03 0.236006017799117D+03
 0.138798745343984D+03 -.485289408617397D+02 -.152824390598606D+02 0.129137448729188D+03
 0.602427782925864D+03 0.521555016666484D+03 -.263160463803103D+03 -.123202891879859D+03
 0.116772856615370D+04 -.649449797616251D+03 0.802843213116936D+03 -.545204310089046D+03
0.345270482576D-03 0.000000000000D+00 0.000000000000D+00 0.102473930317D-05 0.000000000000D+00  7 -3 3 24 -13 13 -24 21 0 0.20208174D+00 0.44892889D-01 0.23620772D+06 0.23620772D+06 0.23620772D+06 0.10923181D+01  1  2  2  1  7  1       -3 0.561504945925D-04 0.100000000000D+01
-.178153523823D-04 0.000000000000D+00 -.132592956490D-05 0.102473930317D-05 0.000000000000D+00  7 -3 3 24 -13 13 -24 21 2 0.20208174D+00 0.44892889D-01 0.23620772D+06 0.23620772D+06 0.23620772D+06 0.10923181D+01  1  2  3  1  7  1       -3 -.345689975867D-05 0.100000000000D+01
0.216683385838D-04 0.000000000000D+00 0.000000000000D+00 0.102473930317D-05 0.000000000000D+00  7 -3 3 24 -13 13 -24 21 2 0.20208174D+00 0.44892889D-01 0.23620772D+06 0.23620772D+06 0.23620772D+06 0.10923181D+01  1  2 15  1  7  1       -3 0.420453510060D-05 0.100000000000D+01
  </mgrwgt>
  </event>
  <event>
  7     66 0.29788925E-05 0.76109300E+03 0.75467711E-02 0.81749622E-01
       -1 -1    0    0    0  501 0.00000000E+00 0.00000000E+00 0.32114975E+03 0.32114991E+03 0.32000000E+00 0.0000E+00 0.9000E+01
        1 -1    0    0  501    0 0.00000000E+00 0.00000000E+00 -.25230082E+04 0.25230082E+04 0.32000000E+00 0.0000E+00 0.9000E+01
       23  2    1    2    0    0 -.53659259E+02 0.72675263E+03 -.32271680E+03 0.80113854E+03 0.81413307E+02 0.0000E+00 0.0000E+00
       24  1    1    2    0    0 -.56219749E+02 -.58222512E+03 -.15496387E+04 0.16583106E+04 0.80419002E+02 0.0000E+00 0.9000E+01
      -11  1    3    3    0    0 0.14461865E+02 0.32201007E+02 -.18116642E+02 0.39676984E+02 0.51099893E-03 0.0000E+00 0.9000E+01
       11  1    3    3    0    0 -.68121124E+02 0.69455162E+03 -.30460016E+03 0.76146155E+03 0.51099893E-03 0.0000E+00 0.9000E+01
      -24  1    1    2    0    0 0.10987901E+03 -.14452750E+03 -.32950293E+03 0.38470897E+03 0.80419002E+02 0.0000E+00 0.9000E+01
#aMCatNLO 1  0  0  1  1 0.16247550D+04 0.00000000D+00  -5  7  0 0.00000000D+00 0.00000000D+00 0.00000000D+00 0.00000000D+00 0.00000000D+00
  <mgrwgt>
 0.3044415700D-02    5    2    0
 0.900146492319702D+03 0.000000000000000D+00 0.000000000000000D+00 0.900146492319702D+03
 0.900146492319702D+03 0.000000000000000D+00 0.000000000000000D+00 -.900146492319702D+03
 0.724555691969101D+03 -.562197490989099D+02 -.582225123138139D+03 -.419960689360906D+03
 0.405252573812617D+02 0.144618650458657D+02 0.322010068486713D+02 0.199059313558673D+02
 0.830437399787192D+03 -.681211237761218D+02 0.694551620253288D+03 0.450093139543721D+03
 0.204774635501850D+03 0.109879007829166D+03 -.144527503963821D+03 -.500383815386819D+02
 0.000000000000000D+00 0.000000000000000D+00 0.000000000000000D+00 0.000000000000000D+00
 0.411197931856516D+04 0.000000000000000D+00 0.000000000000000D+00 0.411197931856516D+04
 0.144014107940721D+04 0.000000000000000D+00 0.000000000000000D+00 -.144014107940721D+04
 0.149099626149302D+04 -.322440796152669D+03 -.139149832490008D+04 -.419960689360906D+03
 0.229044181153426D+02 0.684014595297830D+01 0.903209108677975D+01 0.199059313558673D+02
 0.542399307565548D+03 -.233081383495678D+03 0.193096461000724D+03 0.450093139543721D+03
 0.368753347199952D+03 0.409638014712598D+02 -.354019692190718D+03 -.500383815386819D+02
 0.312706706359851D+04 0.507718232224110D+03 0.154338946500330D+04 0.267183823915795D+04
0.462643002896D-02 0.000000000000D+00 0.000000000000D+00 0.127354371167D-09 0.000000000000D+00  7 -1 1 24 -11 11 -24 21 0 0.49407668D-01 0.38815512D+00 0.57926256D+06 0.57926256D+06 0.57926256D+06 0.10640230D+01  1  2  2  1  7  1       -1 0.300753015134D-02 0.100000000000D+01
-.248224571646D-03 0.000000000000D+00 -.177667094782D-04 0.127354371167D-09 0.000000000000D+00  7 -1 1 24 -11 11 -24 21 2 0.49407668D-01 0.38815512D+00 0.57926256D+06 0.57926256D+06 0.57926256D+06 0.10640230D+01  1  2  3  1  7  1       -1 -.182688325106D-03 0.100000000000D+01
0.292038363271D-03 0.000000000000D+00 0.000000000000D+00 0.127354371167D-09 0.000000000000D+00  7 -1 1 24 -11 11 -24 21 2 0.49407668D-01 0.38815512D+00 0.57926256D+06 0.57926256D+06 0.57926256D+06 0.10640230D+01  1  2 15  1  7  1       -1 0.214934400325D-03 0.100000000000D+01
0.148715694617D-02 0.000000000000D+00 -.239021654590D-02 0.127354371167D-09 0.000000000000D+00  7 -1 1 24 -11 11 -24 21 2 0.33873038D+00 0.38815512D+00 0.57926256D+06 0.57926256D+06 0.57926256D+06 0.10640230D+01  1  2  5  1  7  1       -1 0.229399581675D-05 0.100000000000D+01
0.134911675094D-03 0.000000000000D+00 -.562852558018D-03 0.127354371167D-09 0.000000000000D+00  7 21 1 24 -11 11 -24 1 2 0.33873038D+00 0.38815512D+00 0.57926256D+06 0.57926256D+06 0.57926256D+06 0.10640230D+01  1  2  5  3  7  1       -1 0.234547744743D-05 0.100000000000D+01
  </mgrwgt>
  </event>
  <event>
  8     66 0.29788925E-05 0.22292823E+03 0.75467711E-02 0.10131472E+00
       -1 -1    0    0    0  501 0.00000000E+00 0.00000000E+00 0.30798253E+03 0.30798270E+03 0.32000000E+00 0.0000E+00 0.9000E+01
        1 -1    0    0  501    0 0.00000000E+00 0.00000000E+00 -.22257222E+03 0.22257245E+03 0.32000000E+00 0.0000E+00 0.9000E+01
       25  2    1    2    0    0 0.10564750E+03 0.29071239E+02 -.58774003E+02 0.32455545E+03 0.29979213E+03 0.0000E+00 0.0000E+00
       23  2    1    2    0    0 -.10564750E+03 -.29071239E+02 0.14418431E+03 0.20599971E+03 0.98184684E+02 0.0000E+00 0.0000E+00
       24  1    3    3    0    0 0.10080805E+03 0.13229498E+03 -.10661917E+02 0.18505437E+03 0.80419002E+02 0.0000E+00 0.9000E+01
      -13  1    4    4    0    0 -.17871615E+02 -.37946186E+02 0.64564220E+01 0.42438240E+02 0.10565837E+00 0.0000E+00 0.9000E+01
       13  1    4    4    0    0 -.87775886E+02 0.88749464E+01 0.13772789E+03 0.16356147E+03 0.10565837E+00 0.0000E+00 0.9000E+01
      -24  1    3    3    0    0 0.48394461E+01 -.10322375E+03 -.48112086E+02 0.13950108E+03 0.80419002E+02 0.0000E+00 0.9000E+01
#aMCatNLO 1  0  0  1  1 0.11004735D+03 0.00000000D+00  -5  7  0 0.00000000D+00 0.00000000D+00 0.00000000D+00 0.00000000D+00 0.00000000D+00
  <mgrwgt>
 0.4915640452D-03    4    2    0
 0.261817613192469D+03 0.000000000000000D+00 0.000000000000000D+00 0.261817613192469D+03
 0.261817613192469D+03 0.000000000000000D+00 0.000000000000000D+00 -.261817613192469D+03
 0.189239030412228D+03 0.100808126311790D+03 0.132295004695135D+03 -.409871696901586D+02
 0.419457361866660D+02 -.178715920848398D+02 -.379460975239534D+02 -.380346285751969D+00
 0.143258254362144D+03 -.877760367453622D+02 0.887482285020569D+01 0.112869536791567D+03
 0.149192205423900D+03 0.483950251841196D+01 -.103223730021387D+03 -.715020208156569D+02
 0.000000000000000D+00 0.000000000000000D+00 -.000000000000000D+00 -.000000000000000D+00
 0.294912461948102D+03 0.000000000000000D+00 0.000000000000000D+00 0.294912461948102D+03
 0.378132764643861D+03 0.000000000000000D+00 0.000000000000000D+00 -.378132764643861D+03
 0.180788997090119D+03 0.638740993322024D+02 0.143030055826636D+03 -.409871696901586D+02
 0.442428955044323D+02 -.264744356848225D+02 -.354456399926596D+02 -.380346285751969D+00
 0.164622278657155D+03 -.118506865406584D+03 0.178068847987700D+02 0.112869536791567D+03
 0.145419907065261D+03 -.245669502431129D+02 -.946766042458657D+02 -.715020208156569D+02
 0.137971148274996D+03 0.105674152002317D+03 -.307146963868811D+02 -.832203026957590D+02
0.841478173970D-05 0.000000000000D+00 0.000000000000D+00 0.357922557739D-07 0.000000000000D+00  7 -1 1 24 -13 13 -24 21 0 0.47381959D-01 0.34241911D-01 0.49696997D+05 0.49696997D+05 0.49696997D+05 0.11475277D+01  1  2  2  1  7  1       -1 0.594445783157D-03 0.100000000000D+01
-.452791357251D-06 0.000000000000D+00 -.323149775434D-07 0.357922557739D-07 0.000000000000D+00  7 -1 1 24 -13 13 -24 21 2 0.47381959D-01 0.34241911D-01 0.49696997D+05 0.49696997D+05 0.49696997D+05 0.11475277D+01  1  2  3  1  7  1       -1 -.421205321556D-04 0.100000000000D+01
0.543392816761D-06 0.000000000000D+00 0.000000000000D+00 0.357922557739D-07 0.000000000000D+00  7 -1 1 24 -13 13 -24 21 2 0.47381959D-01 0.34241911D-01 0.49696997D+05 0.49696997D+05 0.49696997D+05 0.11475277D+01  1  2 15  1  7  1       -1 0.505486561194D-04 0.100000000000D+01
-.119656948487D-05 0.000000000000D+00 0.000000000000D+00 0.357922557739D-07 0.000000000000D+00  7 -1 1 24 -13 13 -24 21 2 0.47381959D-01 0.34241911D-01 0.49696997D+05 0.49696997D+05 0.49696997D+05 0.11475277D+01  1  2  4  1  7  1       -1 -.111309861941D-03 0.100000000000D+01
  </mgrwgt>
  </event>
  <event>
  8     66 0.29788925E-05 0.16023710E+03 0.75467711E-02 0.10348898E+00
       -1 -1    0    0    0  501 0.00000000E+00 0.00000000E+00 0.32396344E+03 0.32396360E+03 0.32000000E+00 0.0000E+00 0.9000E+01
        1 -1    0    0  501    0 0.00000000E+00 0.00000000E+00 -.34227044E+03 0.34227059E+03 0.32000000E+00 0.0000E+00 0.9000E+01
       25  2    1    2    0    0 -.34156140E+02 0.35906565E+02 -.26014246E+03 0.40297999E+03 0.30374801E+03 0.0000E+00 0.0000E+00
       23  2    1    2    0    0 0.34156140E+02 -.35906565E+02 0.24183546E+03 0.26325420E+03 0.91446487E+02 0.0000E+00 0.0000E+00
       24  1    3    3    0    0 -.76474370E+02 -.19852067E+02 0.93894414E+01 0.11312741E+03 0.80419002E+02 0.0000E+00 0.9000E+01
      -13  1    4    4    0    0 0.10945734E+02 -.63857562E+02 0.12343986E+03 0.13940950E+03 0.10565837E+00 0.0000E+00 0.9000E+01
       13  1    4    4    0    0 0.23210406E+02 0.27950997E+02 0.11839560E+03 0.12384470E+03 0.10565837E+00 0.0000E+00 0.9000E+01
      -24  1    3    3    0    0 0.42318230E+02 0.55758632E+02 -.26953190E+03 0.28985258E+03 0.80419002E+02 0.0000E+00 0.9000E+01
#aMCatNLO 1  0  0  1  1 0.13564153D+03 0.00000000D+00  -5  7  0 0.00000000D+00 0.00000000D+00 0.00000000D+00 0.00000000D+00 0.00000000D+00
  <mgrwgt>
 0.6055441425D-03    4    2    0
 0.332991308870791D+03 0.000000000000000D+00 0.000000000000000D+00 0.332991308870791D+03
 0.332991308870791D+03 0.000000000000000D+00 0.000000000000000D+00 -.332991308870791D+03
 0.113428249111188D+03 -.764743703818798D+02 -.198520667770361D+02 0.125027141627044D+02
 0.142855380729661D+03 0.109457180093409D+02 -.638576839100003D+02 0.127318683885465D+03
 0.127146001174669D+03 0.232104224830566D+02 0.279511185253888D+02 0.121844642377277D+03
 0.282552986726063D+03 0.423182298894823D+02 0.557586321616476D+02 -.261666040425447D+03
 0.000000000000000D+00 -.000000000000000D+00 0.000000000000000D+00 -.000000000000000D+00
 0.357229803912622D+03 0.000000000000000D+00 0.000000000000000D+00 0.357229803912622D+03
 0.604143823842388D+03 0.000000000000000D+00 0.000000000000000D+00 -.604143823842388D+03
 0.108855499744931D+03 -.620871948134754D+02 -.370292620653923D+02 0.125027141627044D+02
 0.157190331750047D+03 0.303659876701103D+02 -.870440114090654D+02 0.127318683885465D+03
 0.128427497510932D+03 0.397522561310088D+02 0.820142508157066D+01 0.121844642377277D+03
 0.285182076713154D+03 0.790645241015993D+02 0.118863468194785D+02 -.261666040425447D+03
 0.281718222035945D+03 -.870955730892430D+02 0.103985501573409D+03 -.246914019929766D+03
0.164690907485D-04 0.000000000000D+00 0.000000000000D+00 0.558408270784D-07 0.000000000000D+00  7 -1 1 24 -13 13 -24 21 0 0.49840553D-01 0.52657014D-01 0.25675928D+05 0.25675928D+05 0.25675928D+05 0.11736599D+01  1  2  2  1  7  1       -1 0.613703086416D-03 0.100000000000D+01
-.319750845091D-06 0.000000000000D+00 -.632456448856D-07 0.558408270784D-07 0.000000000000D+00  7 -1 1 24 -13 13 -24 21 2 0.49840553D-01 0.52657014D-01 0.25675928D+05 0.25675928D+05 0.25675928D+05 0.11736599D+01  1  2  3  1  7  1       -1 -.164128855861D-04 0.100000000000D+01
0.103444093363D-05 0.000000000000D+00 0.000000000000D+00 0.558408270784D-07 0.000000000000D+00  7 -1 1 24 -13 13 -24 21 2 0.49840553D-01 0.52657014D-01 0.25675928D+05 0.25675928D+05 0.25675928D+05 0.11736599D+01  1  2 15  1  7  1       -1 0.530980948129D-04 0.100000000000D+01
-.873640151631D-06 0.000000000000D+00 0.000000000000D+00 0.558408270784D-07 0.000000000000D+00  7 -1 1 24 -13 13 -24 21 2 0.49840553D-01 0.52657014D-01 0.25675928D+05 0.25675928D+05 0.25675928D+05 0.11736599D+01  1  2  4  1  7  1       -1 -.448441531032D-04 0.100000000000D+01
  </mgrwgt>
  </event>
  <event>
  9     66 0.29788925E-05 0.17782993E+03 0.75467711E-02 0.10291611E+00
       21 -1    0    0  502  501 0.00000000E+00 0.00000000E+00 0.93919521E+02 0.93922516E+02 0.75000000E+00 0.0000E+00 0.9000E+01
        1 -1    0    0  501    0 0.00000000E+00 0.00000000E+00 -.12199483E+04 0.12199484E+04 0.32000000E+00 0.0000E+00 0.9000E+01
       25  2    1    2    0    0 0.43096133E+02 0.14238322E+02 -.88637371E+03 0.93671579E+03 0.29952980E+03 0.0000E+00 0.0000E+00
       23  2    1    2    0    0 0.54059051E+02 0.78096174E+02 -.69879078E+02 0.16084794E+03 0.10939644E+03 0.0000E+00 0.0000E+00
       24  1    3    3    0    0 -.34254584E+02 -.70205475E+02 -.66808167E+03 0.67742344E+03 0.80419002E+02 0.0000E+00 0.9000E+01
      -13  1    4    4    0    0 0.65657175E+02 0.24269778E+02 0.23331850E+01 0.70038144E+02 0.10565837E+00 0.0000E+00 0.9000E+01
       13  1    4    4    0    0 -.11598124E+02 0.53826395E+02 -.72212263E+02 0.90809798E+02 0.10565837E+00 0.0000E+00 0.9000E+01
      -24  1    3    3    0    0 0.77350717E+02 0.84443797E+02 -.21829204E+03 0.25929234E+03 0.80419002E+02 0.0000E+00 0.9000E+01
        1  1    1    2  502    0 -.97155184E+02 -.92334495E+02 -.16977602E+03 0.21630717E+03 0.32000000E+00 0.0000E+00 0.9000E+01
#aMCatNLO 2  0  0  1  2 0.13403279D+03 0.00000000D+00  -5  7  0 0.00000000D+00 0.00000000D+00 0.00000000D+00 0.00000000D+00 0.00000000D+00
  <mgrwgt>
 0.1284965713D-03    2    2    0
 0.260893632464772D+03 0.000000000000000D+00 0.000000000000000D+00 0.260893632464772D+03
 0.260893632464772D+03 0.000000000000000D+00 0.000000000000000D+00 -.260893632464772D+03
 0.219382355501268D+03 -.721501905700326D+02 -.106220794285072D+03 -.158659682380467D+03
 0.135079222733333D+03 0.398308231119682D+02 -.274845975991230D+00 0.129072949932020D+03
 0.513102427730987D+02 -.215050071669446D+02 0.444108627180824D+02 0.140695043558620D+02
 0.116015443921844D+03 0.538243746250089D+02 0.620847775429807D+02 0.155172280925849D+02
 0.000000000000000D+00 -.000000000000000D+00 -.000000000000000D+00 0.000000000000000D+00
 0.358059814708641D+03 0.000000000000000D+00 0.000000000000000D+00 0.358059814708641D+03
 0.319999138140652D+03 0.000000000000000D+00 0.000000000000000D+00 -.319999138140652D+03
 0.194273774091053D+03 -.342545768895158D+02 -.702055018802704D+02 -.158659682380467D+03
 0.146832277274986D+03 0.656571279389728D+02 0.242699978658785D+02 0.129072949932020D+03
 0.568307140137244D+02 -.115980636255211D+02 0.538262391648206D+02 0.140695043558620D+02
 0.140790195757567D+03 0.773506966496822D+02 0.844437601437495D+02 0.155172280925849D+02
 0.139331991711962D+03 -.971551840736182D+02 -.923344952941781D+02 0.380606765679896D+02
-.164726195683D-07 0.000000000000D+00 0.000000000000D+00 0.649692647310D-08 0.000000000000D+00  7 21 1 24 -13 13 -24 1 2 0.15279379D-01 0.15301819D+00 0.65315879D+05 0.65315879D+05 0.65315879D+05 0.11372256D+01  1  2 13  3  7  1       -1 -.153672726327D-04 0.100000000000D+01
0.202622305808D-06 0.000000000000D+00 0.000000000000D+00 0.649692647310D-08 0.124131928692D-12  7 21 1 24 -13 13 -24 1 2 0.14449383D-01 0.18768449D+00 0.65315879D+05 0.65315879D+05 0.65315879D+05 0.11372256D+01  1  2  1  3  7  1       -1 0.143863843915D-03 0.100000000000D+01
  </mgrwgt>
  </event>
  <event>
  8     66 0.29788925E-05 0.20404762E+03 0.75467711E-02 0.96988849E-01
       -1 -1    0    0    0  501 0.00000000E+00 0.00000000E+00 0.69380496E+03 0.69380503E+03 0.32000000E+00 0.0000E+00 0.9000E+01
        1 -1    0    0  501    0 0.00000000E+00 0.00000000E+00 -.18601543E+03 0.18601571E+03 0.32000000E+00 0.0000E+00 0.9000E+01
       25  2    1    2    0    0 0.14202583E+03 -.73087391E+02 0.95467131E+00 0.34041657E+03 0.30061508E+03 0.0000E+00 0.0000E+00
       23  2    1    2    0    0 -.14202583E+03 0.73087391E+02 0.50683485E+03 0.53940417E+03 0.92532101E+02 0.0000E+00 0.0000E+00
       24  1    3    3    0    0 0.72015204E+02 -.11115917E+02 0.12497464E+03 0.16551625E+03 0.80419002E+02 0.0000E+00 0.9000E+01
      -13  1    4    4    0    0 0.41478882E+01 -.80566932E+01 0.47830198E+01 0.10247132E+02 0.10565837E+00 0.0000E+00 0.9000E+01
       13  1    4    4    0    0 -.14617372E+03 0.81144084E+02 0.50205183E+03 0.52915704E+03 0.10565837E+00 0.0000E+00 0.9000E+01
      -24  1    3    3    0    0 0.70010624E+02 -.61971474E+02 -.12401997E+03 0.17490032E+03 0.80419002E+02 0.0000E+00 0.9000E+01
#aMCatNLO 1  0  0  1  2 0.32066583D+03 0.00000000D+00  -5  7  0 0.00000000D+00 0.00000000D+00 0.00000000D+00 0.00000000D+00 0.00000000D+00
  <mgrwgt>
 0.7203318579D-03    5    2    0
 0.359247246755855D+03 0.000000000000000D+00 0.000000000000000D+00 0.359247246755855D+03
 0.359247246755855D+03 0.000000000000000D+00 0.000000000000000D+00 -.359247246755855D+03
 0.114355530989772D+03 0.720152040135523D+02 -.111159167276999D+02 0.360585399007138D+02
 0.916723266354589D+01 0.414808408781483D+01 -.805680938039673D+01 -.138541535863845D+01
 0.293150393768088D+03 -.146173912237444D+03 0.811442000895060D+02 0.240802739891844D+03
 0.301821336090305D+03 0.700106241360770D+02 -.619714739814094D+02 -.275475864433919D+03
 0.000000000000000D+00 0.000000000000000D+00 -.000000000000000D+00 0.000000000000000D+00
 0.981429774979154D+03 0.000000000000000D+00 0.000000000000000D+00 0.981429774979154D+03
 0.437118843616660D+03 0.000000000000000D+00 0.000000000000000D+00 -.437118843616660D+03
 0.990736516010112D+02 0.400010875143782D+02 0.211675975274408D+02 0.360585399007138D+02
 0.618199603032937D+01 0.184571854617118D+01 -.573506950710943D+01 -.138541535863845D+01
 0.392672433446311D+03 -.249046497990312D+03 0.184882455327677D+03 0.240802739891844D+03
 0.288876157163993D+03 -.185932778011359D+02 0.273780269278188D+02 -.275475864433919D+03
 0.631744380354168D+03 0.225792969730898D+03 -.227693010275827D+03 0.544310931362494D+03
0.385659195204D-04 0.000000000000D+00 0.000000000000D+00 0.932032647259D-06 0.000000000000D+00  7 -1 1 24 -13 13 -24 21 0 0.10673925D+00 0.28617786D-01 0.41635432D+05 0.41635432D+05 0.41635432D+05 0.11543551D+01  1  2  2  1  7  1       -1 0.704391489843D-03 0.100000000000D+01
-.130902400025D-05 0.000000000000D+00 -.148103285598D-06 0.932032647259D-06 0.000000000000D+00  7 -1 1 24 -13 13 -24 21 2 0.10673925D+00 0.28617786D-01 0.41635432D+05 0.41635432D+05 0.41635432D+05 0.11543551D+01  1  2  3  1  7  1       -1 -.318593493450D-04 0.100000000000D+01
0.237138358400D-05 0.000000000000D+00 0.000000000000D+00 0.932032647259D-06 0.000000000000D+00  7 -1 1 24 -13 13 -24 21 2 0.10673925D+00 0.28617786D-01 0.41635432D+05 0.41635432D+05 0.41635432D+05 0.11543551D+01  1  2 15  1  7  1       -1 0.577153192144D-04 0.100000000000D+01
-.117956672317D-04 0.000000000000D+00 -.113465538794D-04 0.932032647259D-06 0.000000000000D+00  7 -1 1 24 -13 13 -24 21 2 0.31308585D+00 0.28617786D-01 0.41635432D+05 0.41635432D+05 0.41635432D+05 0.11543551D+01  1  2  5  1  7  1       -1 -.570283447797D-05 0.100000000000D+01
-.847353645518D-06 0.000000000000D+00 -.138330589438D-05 0.932032647259D-06 0.000000000000D+00  7 21 1 24 -13 13 -24 1 2 0.31308585D+00 0.28617786D-01 0.41635432D+05 0.41635432D+05 0.41635432D+05 0.11543551D+01  1  2  5  3  7  1       -1 -.421276736866D-05 0.100000000000D+01
  </mgrwgt>
  </event>
  <event>
  8     66 0.29788925E-05 0.21624730E+03 0.75467711E-02 0.97926131E-01
       -1 -1    0    0    0  501 0.00000000E+00 0.00000000E+00 0.23679576E+03 0.23679598E+03 0.32000000E+00 0.0000E+00 0.9000E+01
        1 -1    0    0  501    0 0.00000000E+00 0.00000000E+00 -.44357854E+03 0.44357866E+03 0.32000000E+00 0.0000E+00 0.9000E+01
       25  2    1    2    0    0 0.74974279E+02 0.70804901E+02 -.35374703E+03 0.47899381E+03 0.30604516E+03 0.0000E+00 0.0000E+00
       23  2    1    2    0    0 -.74974279E+02 -.70804901E+02 0.14696425E+03 0.20138082E+03 0.91220991E+02 0.0000E+00 0.0000E+00
       24  1    3    3    0    0 0.15792284E+02 -.97120365E+02 -.15262547E+03 0.19860390E+03 0.80419002E+02 0.0000E+00 0.9000E+01
      -11  1    4    4    0    0 -.55071804E+02 -.25752787E+02 0.13870103E+03 0.15144004E+03 0.51099893E-03 0.0000E+00 0.9000E+01
       11  1    4    4    0    0 -.19902476E+02 -.45052113E+02 0.82632225E+01 0.49940788E+02 0.51099893E-03 0.0000E+00 0.9000E+01
      -24  1    3    3    0    0 0.59181995E+02 0.16792527E+03 -.20112156E+03 0.28038991E+03 0.80419002E+02 0.0000E+00 0.9000E+01
#aMCatNLO 1  0  0  2  1 0.23930984D+03 0.00000000D+00  -5  7  0 0.00000000D+00 0.00000000D+00 0.00000000D+00 0.00000000D+00 0.00000000D+00
  <mgrwgt>
 0.8563661216D-03    3    2    0
 0.324095098542632D+03 0.000000000000000D+00 0.000000000000000D+00 0.324095098542632D+03
 0.324095098542632D+03 0.000000000000000D+00 0.000000000000000D+00 -.324095098542632D+03
 0.159775234979485D+03 0.157922841712390D+02 -.971203644323388D+02 -.968460031780540D+02
 0.203207245007256D+03 -.550718039413660D+02 -.257527871761617D+02 0.193899651332182D+03
 0.550565835518860D+02 -.199024755587481D+02 -.450521134574780D+02 0.246054045293665D+02
 0.230151133546637D+03 0.591819953288750D+02 0.167925265065979D+03 -.121659052683495D+03
 0.000000000000000D+00 0.000000000000000D+00 0.000000000000000D+00 0.000000000000000D+00
 0.524777245175555D+03 0.000000000000000D+00 0.000000000000000D+00 0.524777245175555D+03
 0.425329183080055D+03 0.000000000000000D+00 0.000000000000000D+00 -.425329183080055D+03
 0.189575786761473D+03 -.311441291162747D+02 -.138284698581897D+03 -.968460031780540D+02
 0.238169653561004D+03 -.114372184468440D+03 -.777606102763088D+02 0.193899651332182D+03
 0.751806756017348D+02 -.374002627144990D+02 -.603980827573688D+02 0.246054045293665D+02
 0.188029549940563D+03 0.299809956925647D+01 0.118650672124551D+03 -.121659052683495D+03
 0.259150762390836D+03 0.179918476729957D+03 0.157792719491024D+03 0.994480620955004D+02
0.184876140031D-04 0.000000000000D+00 0.000000000000D+00 0.355036570430D-07 0.000000000000D+00  7 -1 1 24 -11 11 -24 21 0 0.36430143D-01 0.68242878D-01 0.46762894D+05 0.46762894D+05 0.46762894D+05 0.11498611D+01  1  2  2  2  7  2        1 0.836172638057D-03 0.100000000000D+01
-.822646602532D-06 0.000000000000D+00 -.709973056726D-07 0.355036570430D-07 0.000000000000D+00  7 -1 1 24 -11 11 -24 21 2 0.36430143D-01 0.68242878D-01 0.46762894D+05 0.46762894D+05 0.46762894D+05 0.11498611D+01  1  2  3  2  7  2        1 -.491947920503D-04 0.100000000000D+01
0.116032666897D-05 0.000000000000D+00 0.000000000000D+00 0.355036570430D-07 0.000000000000D+00  7 -1 1 24 -11 11 -24 21 2 0.36430143D-01 0.68242878D-01 0.46762894D+05 0.46762894D+05 0.46762894D+05 0.11498611D+01  1  2 15  2  7  2        1 0.693882756150D-04 0.100000000000D+01
  </mgrwgt>
  </event>
  <event>
  8     66 0.29788925E-05 0.34893178E+03 0.75467711E-02 0.93394870E-01
       -1 -1    0    0    0  501 0.00000000E+00 0.00000000E+00 0.90812518E+02 0.90813082E+02 0.32000000E+00 0.0000E+00 0.9000E+01
        1 -1    0    0  501    0 0.00000000E+00 0.00000000E+00 -.30929614E+04 0.30929615E+04 0.32000000E+00 0.0000E+00 0.9000E+01
       25  2    1    2    0    0 -.61613413E+02 -.46801126E+03 -.19161081E+04 0.19960408E+04 0.29979646E+03 0.0000E+00 0.0000E+00
       23  2    1    2    0    0 0.61613413E+02 0.46801126E+03 -.10860408E+04 0.11877337E+04 0.91629651E+02 0.0000E+00 0.0000E+00
       24  1    3    3    0    0 0.13158199E+02 -.43525815E+03 -.14539294E+04 0.15198687E+04 0.80419002E+02 0.0000E+00 0.9000E+01
      -11  1    4    4    0    0 0.56377163E+02 0.37684480E+03 -.95315784E+03 0.10264990E+04 0.51099893E-03 0.0000E+00 0.9000E+01
       11  1    4    4    0    0 0.52362504E+01 0.91166458E+02 -.13288297E+03 0.16123469E+03 0.51099893E-03 0.0000E+00 0.9000E+01
      -24  1    3    3    0    0 -.74771612E+02 -.32753106E+02 -.46217868E+03 0.47617214E+03 0.80419002E+02 0.0000E+00 0.9000E+01
#aMCatNLO 1  0  0  2  1 0.84228291D+02 0.00000000D+00  -5  7  0 0.00000000D+00 0.00000000D+00 0.00000000D+00 0.00000000D+00 0.00000000D+00
  <mgrwgt>
 0.1695534664D-02    9    2    0
 0.529981641991702D+03 0.000000000000000D+00 0.000000000000000D+00 0.529981641991702D+03
 0.529981641991702D+03 0.000000000000000D+00 0.000000000000000D+00 -.529981641991702D+03
 0.447191461187167D+03 0.131581985157044D+02 -.435258151347786D+03 -.623713916910029D+02
 0.383616767479688D+03 0.563771629673403D+02 0.376844799425497D+03 0.444008663572637D+02
 0.107928674219393D+03 0.523625041474330D+01 0.911664578481756D+02 0.575313598289389D+02
 0.121226381097156D+03 -.747716118977880D+02 -.327531059258867D+02 -.395608344951997D+02
 0.000000000000000D+00 0.000000000000000D+00 0.000000000000000D+00 -.000000000000000D+00
 0.565813089356104D+03 0.000000000000000D+00 0.000000000000000D+00 0.565813089356104D+03
 0.583571450016065D+03 0.000000000000000D+00 0.000000000000000D+00 -.583571450016065D+03
 0.483090920214981D+03 0.112898163791302D+02 -.472114361976459D+03 -.623713916910029D+02
 0.354692242671641D+03 0.548943407690317D+02 0.347594248269007D+03 0.444008663572637D+02
 0.101012719560919D+03 0.481661184527835D+01 0.828885540931792D+02 0.575313598289389D+02
 0.124508668657035D+03 -.752651469646339D+02 -.424887119457892D+02 -.395608344951997D+02
 0.860799882675938D+02 0.426437797119370D+01 0.841202715600623D+02 -.177583606599609D+02
0.313571917136D-03 0.000000000000D+00 0.000000000000D+00 0.713205144564D-05 0.000000000000D+00  7 -1 1 24 -11 11 -24 21 0 0.13971201D-01 0.47584027D+00 0.26510419D+06 0.26510419D+06 0.26510419D+06 0.10885477D+01  1  2  2  2  7  2        1 0.690467363250D-03 0.100000000000D+01
-.174029674889D-04 0.000000000000D+00 -.120419872719D-05 0.713205144564D-05 0.000000000000D+00  7 -1 1 24 -11 11 -24 21 2 0.13971201D-01 0.47584027D+00 0.26510419D+06 0.26510419D+06 0.26510419D+06 0.10885477D+01  1  2  3  2  7  2        1 -.454071466394D-04 0.100000000000D+01
0.198404793305D-04 0.000000000000D+00 0.000000000000D+00 0.713205144564D-05 0.000000000000D+00  7 -1 1 24 -11 11 -24 21 2 0.13971201D-01 0.47584027D+00 0.26510419D+06 0.26510419D+06 0.26510419D+06 0.10885477D+01  1  2 15  2  7  2        1 0.517670078355D-04 0.100000000000D+01
0.310296808907D-03 0.000000000000D+00 0.000000000000D+00 0.713205144564D-05 0.000000000000D+00  7 -1 1 24 -11 11 -24 21 2 0.13971201D-01 0.53868200D+00 0.31151080D+06 0.31151080D+06 0.31151080D+06 0.10833442D+01  1  2 12  2  7  2        1 0.378616040453D-03 0.100000000000D+01
-.276811685396D-03 0.000000000000D+00 0.000000000000D+00 0.713205144564D-05 0.000000000000D+00  7 -1 1 24 -11 11 -24 21 2 0.13971201D-01 0.47584027D+00 0.26510419D+06 0.26510419D+06 0.26510419D+06 0.10885477D+01  1  2  4  2  7  2        1 -.722246294966D-03 0.100000000000D+01
-.100424897006D-02 0.000000000000D+00 -.209250804585D-03 0.713205144564D-05 0.000000000000D+00  7 -1 1 24 -11 11 -24 21 2 0.13971201D-01 0.53397142D+00 0.26510419D+06 0.26510419D+06 0.26510419D+06 0.10885477D+01  1  2  5  2  7  2        1 -.132449028209D-02 0.100000000000D+01
0.102294712557D-02 0.000000000000D+00 0.207868520361D-03 0.713205144564D-05 0.000000000000D+00  7 -1 1 24 -11 11 -24 21 2 0.13971201D-01 0.47584027D+00 0.26510419D+06 0.26510419D+06 0.26510419D+06 0.10885477D+01  1  2  6  2  7  2        1 0.266903389694D-02 0.100000000000D+01
0.605340331476D-05 0.000000000000D+00 0.000000000000D+00 0.713205144564D-05 0.000000000000D+00  7 -1 21 24 -11 11 -24 -1 2 0.13971201D-01 0.53868200D+00 0.31151080D+06 0.31151080D+06 0.31151080D+06 0.10833442D+01  1  2 12  4  7  2        1 0.976573602914D-06 0.100000000000D+01
-.175190563300D-04 0.000000000000D+00 -.383758273211D-05 0.713205144564D-05 0.000000000000D+00  7 -1 21 24 -11 11 -24 -1 2 0.13971201D-01 0.53397142D+00 0.26510419D+06 0.26510419D+06 0.26510419D+06 0.10885477D+01  1  2  5  4  7  2        1 -.318249480901D-05 0.100000000000D+01
  </mgrwgt>
  </event>
  <event>
  8     66 0.29788925E-05 0.25589424E+03 0.75467711E-02 0.98345224E-01
       -1 -1    0    0    0  501 0.00000000E+00 0.00000000E+00 0.36129586E+03 0.36129601E+03 0.32000000E+00 0.0000E+00 0.9000E+01
        1 -1    0    0  501    0 0.00000000E+00 0.00000000E+00 -.39865065E+03 0.39865078E+03 0.32000000E+00 0.0000E+00 0.9000E+01
       25  2    1    2    0    0 -.16624974E+03 -.42074627E+02 -.28455016E+03 0.44550113E+03 0.29680501E+03 0.0000E+00 0.0000E+00
       23  2    1    2    0    0 0.16624974E+03 0.42074627E+02 0.24719537E+03 0.31444566E+03 0.91439978E+02 0.0000E+00 0.0000E+00
       24  1    3    3    0    0 0.42920030E+02 -.56227283E+02 -.42194912E+02 0.11511413E+03 0.80419002E+02 0.0000E+00 0.9000E+01
      -11  1    4    4    0    0 0.87889633E+02 0.50445254E+02 0.19548136E+03 0.22018690E+03 0.51099893E-03 0.0000E+00 0.9000E+01
       11  1    4    4    0    0 0.78360104E+02 -.83706269E+01 0.51714016E+02 0.94258754E+02 0.51099893E-03 0.0000E+00 0.9000E+01
      -24  1    3    3    0    0 -.20916977E+03 0.14152656E+02 -.24235525E+03 0.33038700E+03 0.80419002E+02 0.0000E+00 0.9000E+01
#aMCatNLO 1  0  0  2  1 0.18621473D+03 0.00000000D+00  -5  7  0 0.00000000D+00 0.00000000D+00 0.00000000D+00 0.00000000D+00 0.00000000D+00
  <mgrwgt>
 0.1198242849D-02    7    2    0
 0.379514077253273D+03 0.000000000000000D+00 0.000000000000000D+00 0.379514077253273D+03
 0.379514077253273D+03 0.000000000000000D+00 0.000000000000000D+00 -.379514077253273D+03
 0.113176870547598D+03 0.429200295938721D+02 -.562272834160641D+02 -.365807563055773D+02
 0.230073802297347D+03 0.878896326679472D+02 0.504452541399359D+02 0.206554213967688D+03
 0.969178846361048D+02 0.783601036608474D+02 -.837062687198957D+01 0.564154510960294D+02
 0.318859597025497D+03 -.209169765922667D+03 0.141526561481178D+02 -.226388908758140D+03
 0.000000000000000D+00 0.000000000000000D+00 -.000000000000000D+00 -.000000000000000D+00
 0.480461290672948D+03 0.000000000000000D+00 0.000000000000000D+00 0.480461290672948D+03
 0.487420160010718D+03 0.000000000000000D+00 0.000000000000000D+00 -.487420160010718D+03
 0.997535255955427D+02 0.226000748577445D+02 -.404306170977686D+02 -.365807563055773D+02
 0.227468919243026D+03 0.442263156406543D+02 0.843889739162300D+02 0.206554213967688D+03
 0.833539669443207D+02 0.611567549109129D+02 0.500320015119846D+01 0.564154510960294D+02
 0.370960322380190D+03 -.274999303613377D+03 0.653283233329934D+02 -.226388908758140D+03
 0.186344716520586D+03 0.147016158204065D+03 -.114289880302653D+03 -.695886933777000D+01
0.495977582790D-04 0.000000000000D+00 0.000000000000D+00 0.134431838643D-06 0.000000000000D+00  7 -1 1 24 -11 11 -24 21 0 0.55584000D-01 0.61330890D-01 0.65481861D+05 0.65481861D+05 0.65481861D+05 0.11371312D+01  1  2  2  2  7  2        1 0.122767582295D-02 0.100000000000D+01
-.223502244083D-05 0.000000000000D+00 -.190468451181D-06 0.134431838643D-06 0.000000000000D+00  7 -1 1 24 -11 11 -24 21 2 0.55584000D-01 0.61330890D-01 0.65481861D+05 0.65481861D+05 0.65481861D+05 0.11371312D+01  1  2  3  2  7  2        1 -.715360094616D-04 0.100000000000D+01
0.310982251049D-05 0.000000000000D+00 0.000000000000D+00 0.134431838643D-06 0.000000000000D+00  7 -1 1 24 -11 11 -24 21 2 0.55584000D-01 0.61330890D-01 0.65481861D+05 0.65481861D+05 0.65481861D+05 0.11371312D+01  1  2 15  2  7  2        1 0.995355968111D-04 0.100000000000D+01
-.184832329889D-04 0.000000000000D+00 0.000000000000D+00 0.134431838643D-06 0.000000000000D+00  7 -1 1 24 -11 11 -24 21 2 0.55584000D-01 0.61330890D-01 0.65481861D+05 0.65481861D+05 0.65481861D+05 0.11371312D+01  1  2  4  2  7  2        1 -.591589912396D-03 0.100000000000D+01
-.201380686798D-04 0.000000000000D+00 -.194922747743D-04 0.134431838643D-06 0.000000000000D+00  7 -1 1 24 -11 11 -24 21 2 0.55584000D-01 0.96252358D-01 0.65481861D+05 0.65481861D+05 0.65481861D+05 0.11371312D+01  1  2  5  2  7  2        1 -.346536896107D-03 0.100000000000D+01
0.278692712009D-04 0.000000000000D+00 0.176673851599D-04 0.134431838643D-06 0.000000000000D+00  7 -1 1 24 -11 11 -24 21 2 0.55584000D-01 0.61330890D-01 0.65481861D+05 0.65481861D+05 0.65481861D+05 0.11371312D+01  1  2  6  2  7  2        1 0.892007351645D-03 0.100000000000D+01
-.270536605487D-06 0.000000000000D+00 -.101409681034D-05 0.134431838643D-06 0.000000000000D+00  7 -1 21 24 -11 11 -24 -1 2 0.55584000D-01 0.96252358D-01 0.65481861D+05 0.65481861D+05 0.65481861D+05 0.11371312D+01  1  2  5  4  7  2        1 -.113131040131D-04 0.100000000000D+01
  </mgrwgt>
  </event>
  <event>
  8     66 0.29788925E-05 0.20246714E+03 0.75467711E-02 0.99860439E-01
       -1 -1    0    0    0  501 0.00000000E+00 0.00000000E+00 0.47276429E+03 0.47276440E+03 0.32000000E+00 0.0000E+00 0.9000E+01
        1 -1    0    0  501    0 0.00000000E+00 0.00000000E+00 -.15272578E+03 0.15272612E+03 0.32000000E+00 0.0000E+00 0.9000E+01
       25  2    1    2    0    0 -.16603848E+03 -.43379199E+01 0.23719521E+03 0.41767125E+03 0.30099852E+03 0.0000E+00 0.0000E+00
       23  2    1    2    0    0 0.16603848E+03 0.43379199E+01 0.82843293E+02 0.20781926E+03 0.93478547E+02 0.0000E+00 0.0000E+00
       24  1    3    3    0    0 0.13536289E+02 -.88945458E+02 0.13269231E+03 0.17935716E+03 0.80419002E+02 0.0000E+00 0.9000E+01
      -13  1    4    4    0    0 0.27167750E+02 0.32703230E+02 0.43266163E+02 0.60659376E+02 0.10565837E+00 0.0000E+00 0.9000E+01
       13  1    4    4    0    0 0.13887073E+03 -.28365310E+02 0.39577130E+02 0.14715989E+03 0.10565837E+00 0.0000E+00 0.9000E+01
      -24  1    3    3    0    0 -.17957477E+03 0.84607538E+02 0.10450290E+03 0.23831409E+03 0.80419002E+02 0.0000E+00 0.9000E+01
#aMCatNLO 1  0  0  1  2 0.11589170D+03 0.00000000D+00  -5  7  0 0.00000000D+00 0.00000000D+00 0.00000000D+00 0.00000000D+00 0.00000000D+00
  <mgrwgt>
 0.6401919665D-03    9    2    0
 0.268706969100909D+03 0.000000000000000D+00 0.000000000000000D+00 0.268706969100909D+03
 0.268706969100909D+03 0.000000000000000D+00 0.000000000000000D+00 -.268706969100909D+03
 0.129731565359034D+03 0.135362814274540D+02 -.889454533523647D+02 0.476291770786975D+02
 0.448350025939275D+02 0.271676106855236D+02 0.327033051276701D+02 0.142334894162962D+02
 0.147709196891589D+03 0.138870884059570D+03 -.283653850162492D+02 -.415726994523043D+02
 0.215138173357268D+03 -.179574776172547D+03 0.846075332409438D+02 -.202899670426894D+02
 0.000000000000000D+00 0.000000000000000D+00 0.000000000000000D+00 0.000000000000000D+00
 0.364700100259460D+03 0.000000000000000D+00 0.000000000000000D+00 0.364700100259460D+03
 0.312268262394871D+03 0.000000000000000D+00 0.000000000000000D+00 -.312268262394871D+03
 0.131991361186973D+03 -.141825250278421D+02 -.921130878228508D+02 0.476291770786975D+02
 0.392442067230953D+02 0.182628679458263D+02 0.316856938499780D+02 0.142334894162962D+02
 0.122045741835659D+03 0.110301415440142D+03 -.316302309881824D+02 -.415726994523043D+02
 0.256486484769871D+03 -.229524059526114D+03 0.788994565969508D+02 -.202899670426894D+02
 0.127200568138732D+03 0.115142301167988D+03 0.131581683641045D+02 0.524318378645889D+02
0.936562998148D-05 0.000000000000D+00 0.000000000000D+00 0.615254140263D-07 0.000000000000D+00  7 -1 1 24 -13 13 -24 21 0 0.72733001D-01 0.23496309D-01 0.67367550D+05 0.67367550D+05 0.67367550D+05 0.11360775D+01  1  2  2  1  7  1       -1 0.486642597218D-03 0.100000000000D+01
-.519552703622D-06 0.000000000000D+00 -.359664851559D-07 0.615254140263D-07 0.000000000000D+00  7 -1 1 24 -13 13 -24 21 2 0.72733001D-01 0.23496309D-01 0.67367550D+05 0.67367550D+05 0.67367550D+05 0.11360775D+01  1  2  3  1  7  1       -1 -.348432513498D-04 0.100000000000D+01
0.611744432125D-06 0.000000000000D+00 0.000000000000D+00 0.615254140263D-07 0.000000000000D+00  7 -1 1 24 -13 13 -24 21 2 0.72733001D-01 0.23496309D-01 0.67367550D+05 0.67367550D+05 0.67367550D+05 0.11360775D+01  1  2 15  1  7  1       -1 0.410259918998D-04 0.100000000000D+01
0.430423024626D-05 0.000000000000D+00 0.000000000000D+00 0.615254140263D-07 0.000000000000D+00  7 -1 1 24 -13 13 -24 21 2 0.10293553D+00 0.23496309D-01 0.10432632D+06 0.10432632D+06 0.10432632D+06 0.11202157D+01  1  2 12  1  7  1       -1 0.135566151191D-03 0.100000000000D+01
-.569532769181D-05 0.000000000000D+00 0.000000000000D+00 0.615254140263D-07 0.000000000000D+00  7 -1 1 24 -13 13 -24 21 2 0.72733001D-01 0.23496309D-01 0.67367550D+05 0.67367550D+05 0.67367550D+05 0.11360775D+01  1  2  4  1  7  1       -1 -.381951114683D-03 0.100000000000D+01
-.879115108632D-05 0.000000000000D+00 -.365760238020D-05 0.615254140263D-07 0.000000000000D+00  7 -1 1 24 -13 13 -24 21 2 0.11071227D+00 0.23496309D-01 0.67367550D+05 0.67367550D+05 0.67367550D+05 0.11360775D+01  1  2  5  1  7  1       -1 -.243325193503D-03 0.100000000000D+01
0.975483026128D-05 0.000000000000D+00 0.335693970621D-05 0.615254140263D-07 0.000000000000D+00  7 -1 1 24 -13 13 -24 21 2 0.72733001D-01 0.23496309D-01 0.67367550D+05 0.67367550D+05 0.67367550D+05 0.11360775D+01  1  2  6  1  7  1       -1 0.654197351488D-03 0.100000000000D+01
0.184904217694D-06 0.000000000000D+00 0.000000000000D+00 0.615254140263D-07 0.000000000000D+00  7 21 1 24 -13 13 -24 1 2 0.10293553D+00 0.23496309D-01 0.10432632D+06 0.10432632D+06 0.10432632D+06 0.11202157D+01  1  2 12  3  7  1       -1 0.413922275402D-04 0.100000000000D+01
-.300603688369D-06 0.000000000000D+00 -.180528467285D-06 0.615254140263D-07 0.000000000000D+00  7 21 1 24 -13 13 -24 1 2 0.11071227D+00 0.23496309D-01 0.67367550D+05 0.67367550D+05 0.67367550D+05 0.11360775D+01  1  2  5  3  7  1       -1 -.585127932608D-04 0.100000000000D+01
  </mgrwgt>
  </event>
  <event>
  8     66 0.29788925E-05 0.30276228E+03 0.75467711E-02 0.96789946E-01
       -1 -1    0    0    0  501 0.00000000E+00 0.00000000E+00 0.20244557E+03 0.20244582E+03 0.32000000E+00 0.0000E+00 0.9000E+01
        1 -1    0    0  501    0 0.00000000E+00 0.00000000E+00 -.49146374E+03 0.49146385E+03 0.32000000E+00 0.0000E+00 0.9000E+01
       25  2    1    2    0    0 0.19447021E+02 -.23245506E+03 -.16232719E+03 0.41297980E+03 0.29964756E+03 0.0000E+00 0.0000E+00
       23  2    1    2    0    0 -.19447021E+02 0.23245506E+03 -.12669098E+03 0.28092987E+03 0.91964375E+02 0.0000E+00 0.0000E+00
       24  1    3    3    0    0 0.12764883E+03 -.14614537E+03 -.45799556E+02 0.21498258E+03 0.80419002E+02 0.0000E+00 0.9000E+01
      -11  1    4    4    0    0 0.76562168E+01 0.94475720E+02 -.10003630E+03 0.13780980E+03 0.51099893E-03 0.0000E+00 0.9000E+01
       11  1    4    4    0    0 -.27103238E+02 0.13797934E+03 -.26654687E+02 0.14312008E+03 0.51099893E-03 0.0000E+00 0.9000E+01
      -24  1    3    3    0    0 -.10820181E+03 -.86309691E+02 -.11652763E+03 0.19799722E+03 0.80419002E+02 0.0000E+00 0.9000E+01
#aMCatNLO 1  0  0  1  2 0.19318373D+03 0.00000000D+00  -5  7  0 0.00000000D+00 0.00000000D+00 0.00000000D+00 0.00000000D+00 0.00000000D+00
  <mgrwgt>
 0.3786138507D-03    4    2    0
 0.315427934971067D+03 0.000000000000000D+00 0.000000000000000D+00 0.315427934971067D+03
 0.315427934971067D+03 0.000000000000000D+00 0.000000000000000D+00 -.315427934971067D+03
 0.215487550069421D+03 0.127648833985621D+03 -.146145368057419D+03 0.481141856215360D+02
 0.105753542026389D+03 0.765621679757471D+01 0.944757195105913D+02 -.468991728970984D+02
 0.145213383956859D+03 -.271032378107814D+02 0.137979339582747D+03 0.362497341877618D+02
 0.164401393889465D+03 -.108201812972415D+03 -.863096910359194D+02 -.374647469121994D+02
 0.000000000000000D+00 0.000000000000000D+00 -.000000000000000D+00 -.000000000000000D+00
 0.423262724073242D+03 0.000000000000000D+00 0.000000000000000D+00 0.423262724073242D+03
 0.429803705937962D+03 0.000000000000000D+00 0.000000000000000D+00 -.429803705937962D+03
 0.171312049794485D+03 0.111114690856858D+03 -.906595448266692D+02 0.481141856215360D+02
 0.137657343994490D+03 -.274862961380798D+01 0.129392646516065D+03 -.468991728970984D+02
 0.194732743461900D+03 -.416345815060387D+02 0.186744102370949D+03 0.362497341877618D+02
 0.156069856235007D+03 -.121900683188609D+03 -.403385702250392D+02 -.374647469121994D+02
 0.193294436525323D+03 0.551692034515975D+02 -.185138633835306D+03 -.654098186472004D+01
0.113208137206D-04 0.000000000000D+00 0.000000000000D+00 0.107022333778D-05 0.000000000000D+00  7 -1 1 24 -11 11 -24 21 0 0.31145500D-01 0.75609834D-01 0.91664999D+05 0.91664999D+05 0.91664999D+05 0.11248369D+01  1  2  2  1  7  1       -1 0.576249847061D-03 0.100000000000D+01
-.627649758216D-06 0.000000000000D+00 -.434749055258D-07 0.107022333778D-05 0.000000000000D+00  7 -1 1 24 -11 11 -24 21 2 0.31145500D-01 0.75609834D-01 0.91664999D+05 0.91664999D+05 0.91664999D+05 0.11248369D+01  1  2  3  1  7  1       -1 -.404231063345D-04 0.100000000000D+01
0.725118933789D-06 0.000000000000D+00 0.000000000000D+00 0.107022333778D-05 0.000000000000D+00  7 -1 1 24 -11 11 -24 21 2 0.31145500D-01 0.75609834D-01 0.91664999D+05 0.91664999D+05 0.91664999D+05 0.11248369D+01  1  2 15  1  7  1       -1 0.467005035562D-04 0.100000000000D+01
-.316616420079D-05 0.000000000000D+00 0.000000000000D+00 0.107022333778D-05 0.000000000000D+00  7 -1 1 24 -11 11 -24 21 2 0.31145500D-01 0.75609834D-01 0.91664999D+05 0.91664999D+05 0.91664999D+05 0.11248369D+01  1  2  4  1  7  1       -1 -.203913393554D-03 0.100000000000D+01
  </mgrwgt>
  </event>
  <event>
  9     66 -.29788925E-05 0.23339530E+03 0.75467711E-02 0.10388641E+00
       -1 -1    0    0    0  502 0.00000000E+00 0.00000000E+00 0.30477079E+02 0.30478759E+02 0.32000000E+00 0.0000E+00 0.9000E+01
        1 -1    0    0  501    0 0.00000000E+00 0.00000000E+00 -.22100684E+04 0.22100684E+04 0.32000000E+00 0.0000E+00 0.9000E+01
       25  2    1    2    0    0 0.23244613E+02 -.14343847E+03 -.12228696E+04 0.12676650E+04 0.30074861E+03 0.0000E+00 0.0000E+00
       23  2    1    2    0    0 -.16451659E+02 0.13707510E+03 -.93454411E+03 0.94881875E+03 0.88453953E+02 0.0000E+00 0.0000E+00
       24  1    3    3    0    0 -.15139821E+02 -.20157410E+03 -.66315863E+03 0.69793117E+03 0.80419002E+02 0.0000E+00 0.9000E+01
      -11  1    4    4    0    0 -.27907997E+02 0.10242864E+03 -.85173655E+03 0.85832723E+03 0.51099893E-03 0.0000E+00 0.9000E+01
       11  1    4    4    0    0 0.11456339E+02 0.34646455E+02 -.82807557E+02 0.90491524E+02 0.51099893E-03 0.0000E+00 0.9000E+01
      -24  1    3    3    0    0 0.38384435E+02 0.58135633E+02 -.55971095E+03 0.56973386E+03 0.80419002E+02 0.0000E+00 0.9000E+01
       21  1    1    2  501  502 -.67929549E+01 0.63633685E+01 -.22177604E+02 0.24063360E+02 0.75000000E+00 0.0000E+00 0.9000E+01
#aMCatNLO 2  0  0  1  2 0.93078835D+01 0.00000000D+00  -5  7  0 0.00000000D+00 0.00000000D+00 0.00000000D+00 0.00000000D+00 0.00000000D+00
  <mgrwgt>
 -.2141971842D-03    3    2    0
 0.254106247947360D+03 0.000000000000000D+00 0.000000000000000D+00 0.254106247947360D+03
 0.254106247947360D+03 0.000000000000000D+00 0.000000000000000D+00 -.254106247947360D+03
 0.226412714263890D+03 -.181811409014348D+02 -.198725111912723D+03 0.705214664961632D+02
 0.129397980425807D+03 -.296262265872530D+02 0.104038210779814D+03 -.710082722942434D+02
 0.434178349887484D+02 0.108779726066905D+02 0.351882449043445D+02 0.229905530083587D+02
 0.108983966216274D+03 0.369293948819973D+02 0.594986562285646D+02 -.225037472102785D+02
 0.000000000000000D+00 -.000000000000000D+00 0.000000000000000D+00 0.000000000000000D+00
 0.262249079237211D+03 0.000000000000000D+00 0.000000000000000D+00 0.262249079237211D+03
 0.256822763290013D+03 0.000000000000000D+00 0.000000000000000D+00 -.256822763290013D+03
 0.228695921592486D+03 -.151398213326288D+02 -.201574098464839D+03 0.705214664961632D+02
 0.127721015437374D+03 -.279079971975623D+02 0.102428642198173D+03 -.710082722942434D+02
 0.431299205615411D+02 0.114563386535049D+02 0.346464547200851D+02 0.229905530083587D+02
 0.108750867839269D+03 0.383844347547911D+02 0.581356330616139D+02 -.225037472102785D+02
 0.107741170965541D+02 -.679295487810492D+01 0.636336848496775D+01 0.542631594719742D+01
-.144360938307D-04 0.000000000000D+00 0.000000000000D+00 0.618226205729D-07 0.000000000000D+00  7 -1 1 24 -11 11 -24 21 2 0.47124298D-02 0.33639724D+00 0.56622618D+05 0.56622618D+05 0.56622618D+05 0.11425739D+01  1  2 13  1  7  1       -1 -.995881985140D-03 0.100000000000D+01
-.286549032229D-04 0.000000000000D+00 0.000000000000D+00 0.618226205729D-07 0.000000000000D+00  7 -1 1 24 -11 11 -24 21 2 0.45430922D-02 0.33639724D+00 0.54473367D+05 0.54473367D+05 0.54473367D+05 0.11440364D+01  1  2  8  1  7  1       -1 -.209278456261D-02 0.100000000000D+01
0.428509839156D-04 0.000000000000D+00 0.000000000000D+00 0.618226205729D-07 0.496980945759D-08  7 -1 1 24 -11 11 -24 21 2 0.46886756D-02 0.33999348D+00 0.56622618D+05 0.56622618D+05 0.56622618D+05 0.11425739D+01  1  2  1  1  7  1       -1 0.287446936359D-02 0.100000000000D+01
  </mgrwgt>
  </event>
  <event>
  8     66 0.29788925E-05 0.12021318E+03 0.75467711E-02 0.10164400E+00
       -1 -1    0    0    0  501 0.00000000E+00 0.00000000E+00 0.47526971E+03 0.47526982E+03 0.32000000E+00 0.0000E+00 0.9000E+01
        1 -1    0    0  501    0 0.00000000E+00 0.00000000E+00 -.35807864E+03 0.35807878E+03 0.32000000E+00 0.0000E+00 0.9000E+01
       25  2    1    2    0    0 0.13253781E+03 -.13482173E+03 -.23351393E+03 0.42483109E+03 0.30034901E+03 0.0000E+00 0.0000E+00
       23  2    1    2    0    0 -.13253781E+03 0.13482173E+03 0.35070501E+03 0.40851751E+03 0.90273957E+02 0.0000E+00 0.0000E+00
       24  1    3    3    0    0 0.16719815E+03 -.15966070E+03 -.10265678E+03 0.26542869E+03 0.80419002E+02 0.0000E+00 0.9000E+01
      -13  1    4    4    0    0 -.52258693E+02 0.11369251E+03 0.23317128E+03 0.26462391E+03 0.10565837E+00 0.0000E+00 0.9000E+01
       13  1    4    4    0    0 -.80279121E+02 0.21129224E+02 0.11753373E+03 0.14389360E+03 0.10565837E+00 0.0000E+00 0.9000E+01
      -24  1    3    3    0    0 -.34660332E+02 0.24838973E+02 -.13085716E+03 0.15940240E+03 0.80419002E+02 0.0000E+00 0.9000E+01
#aMCatNLO 1  0  0  2  1 0.16999501D+02 0.00000000D+00  -5  7  0 0.00000000D+00 0.00000000D+00 0.00000000D+00 0.00000000D+00 0.00000000D+00
  <mgrwgt>
 0.4543544182D-03    9    2    0
 0.412533679098179D+03 0.000000000000000D+00 0.000000000000000D+00 0.412533679098179D+03
 0.412533679098179D+03 0.000000000000000D+00 0.000000000000000D+00 -.412533679098179D+03
 0.282673995545936D+03 0.167198146023449D+03 -.159660702481530D+03 -.141388160229063D+03
 0.234160872354176D+03 -.522586544181810D+02 0.113692632382168D+03 0.197925067947653D+03
 0.128643449755886D+03 -.802791591866356D+02 0.211290971818514D+02 0.982748951546725D+02
 0.179589040540361D+03 -.346603324186329D+02 0.248389729175107D+02 -.154811802873262D+03
 0.000000000000000D+00 -.000000000000000D+00 -.000000000000000D+00 -.000000000000000D+00
 0.415827687550791D+03 0.000000000000000D+00 0.000000000000000D+00 0.415827687550791D+03
 0.435152589090942D+03 0.000000000000000D+00 0.000000000000000D+00 -.435152589090942D+03
 0.281046945021876D+03 0.169461064665945D+03 -.154313010018870D+03 -.141388160229063D+03
 0.235948266632904D+03 -.503715172585259D+02 0.118152284167777D+03 0.197925067947653D+03
 0.128427083709446D+03 -.792472129509166D+02 0.235677757109829D+02 0.982748951546725D+02
 0.179820171193044D+03 -.332175728065864D+02 0.282484789235522D+02 -.154811802873262D+03
 0.257378100844638D+02 -.662476164991584D+01 -.156555287834428D+02 -.193249015401509D+02
0.157641362566D-04 0.000000000000D+00 0.000000000000D+00 0.214829777393D-05 0.000000000000D+00  7 -1 1 24 -13 13 -24 21 0 0.73118436D-01 0.55089041D-01 0.73967464D+05 0.73967464D+05 0.73967464D+05 0.11326299D+01  1  2  2  2  7  2        1 0.267732113602D-03 0.100000000000D+01
-.690954208213D-06 0.000000000000D+00 -.605384340177D-07 0.214829777393D-05 0.000000000000D+00  7 -1 1 24 -13 13 -24 21 2 0.73118436D-01 0.55089041D-01 0.73967464D+05 0.73967464D+05 0.73967464D+05 0.11326299D+01  1  2  3  2  7  2        1 -.150541266175D-04 0.100000000000D+01
0.981994471118D-06 0.000000000000D+00 0.000000000000D+00 0.214829777393D-05 0.000000000000D+00  7 -1 1 24 -13 13 -24 21 2 0.73118436D-01 0.55089041D-01 0.73967464D+05 0.73967464D+05 0.73967464D+05 0.11326299D+01  1  2 15  2  7  2        1 0.213951502577D-04 0.100000000000D+01
0.100686032468D-03 0.000000000000D+00 0.000000000000D+00 0.214829777393D-05 0.000000000000D+00  7 -1 1 24 -13 13 -24 21 2 0.73118436D-01 0.58322161D-01 0.79099072D+05 0.79099072D+05 0.79099072D+05 0.11301753D+01  1  2 12  2  7  2        1 0.202208859712D-02 0.100000000000D+01
-.102562270957D-03 0.000000000000D+00 0.000000000000D+00 0.214829777393D-05 0.000000000000D+00  7 -1 1 24 -13 13 -24 21 2 0.73118436D-01 0.55089041D-01 0.73967464D+05 0.73967464D+05 0.73967464D+05 0.11326299D+01  1  2  4  2  7  2        1 -.223456980913D-02 0.100000000000D+01
-.286732575741D-03 0.000000000000D+00 -.358827681192D-04 0.214829777393D-05 0.000000000000D+00  7 -1 1 24 -13 13 -24 21 2 0.73118436D-01 0.58434679D-01 0.73967464D+05 0.73967464D+05 0.73967464D+05 0.11326299D+01  1  2  5  2  7  2        1 -.577815328686D-02 0.100000000000D+01
0.288409035559D-03 0.000000000000D+00 0.358204916954D-04 0.214829777393D-05 0.000000000000D+00  7 -1 1 24 -13 13 -24 21 2 0.73118436D-01 0.55089041D-01 0.73967464D+05 0.73967464D+05 0.73967464D+05 0.11326299D+01  1  2  6  2  7  2        1 0.628369591984D-02 0.100000000000D+01
0.144957330689D-05 0.000000000000D+00 0.000000000000D+00 0.214829777393D-05 0.000000000000D+00  7 -1 21 24 -13 13 -24 -1 2 0.73118436D-01 0.58322161D-01 0.79099072D+05 0.79099072D+05 0.79099072D+05 0.11301753D+01  1  2 12  4  7  2        1 0.114659238507D-03 0.100000000000D+01
-.286413810804D-05 0.000000000000D+00 -.363860205648D-06 0.214829777393D-05 0.000000000000D+00  7 -1 21 24 -13 13 -24 -1 2 0.73118436D-01 0.58434679D-01 0.73967464D+05 0.73967464D+05 0.73967464D+05 0.11326299D+01  1  2  5  4  7  2        1 -.227439378503D-03 0.100000000000D+01
  </mgrwgt>
  </event>
  <event>
  8     66 0.29788925E-05 0.47764645E+03 0.75467711E-02 0.93594323E-01
       -1 -1    0    0    0  501 0.00000000E+00 0.00000000E+00 0.21675903E+03 0.21675927E+03 0.32000000E+00 0.0000E+00 0.9000E+01
        1 -1    0    0  501    0 0.00000000E+00 0.00000000E+00 -.15995255E+04 0.15995255E+04 0.32000000E+00 0.0000E+00 0.9000E+01
       25  2    1    2    0    0 -.49424633E+02 0.44889603E+03 -.25690088E+03 0.59995193E+03 0.29998968E+03 0.0000E+00 0.0000E+00
       23  2    1    2    0    0 0.49424633E+02 -.44889603E+03 -.11258655E+04 0.12163328E+04 0.89117291E+02 0.0000E+00 0.0000E+00
       24  1    3    3    0    0 0.41233330E+02 0.21110976E+03 -.18675036E+00 0.22964052E+03 0.80419002E+02 0.0000E+00 0.9000E+01
      -13  1    4    4    0    0 0.70610638E+02 -.29045098E+03 -.68485161E+03 0.74724118E+03 0.10565837E+00 0.0000E+00 0.9000E+01
       13  1    4    4    0    0 -.21186006E+02 -.15844505E+03 -.44101393E+03 0.46909165E+03 0.10565837E+00 0.0000E+00 0.9000E+01
      -24  1    3    3    0    0 -.90657963E+02 0.23778627E+03 -.25671413E+03 0.37031140E+03 0.80419002E+02 0.0000E+00 0.9000E+01
#aMCatNLO 1  0  0  2  2 0.13426215D+03 0.00000000D+00  -5  7  0 0.00000000D+00 0.00000000D+00 0.00000000D+00 0.00000000D+00 0.00000000D+00
  <mgrwgt>
 0.3361050731D-03    4    2    0
 0.588822414553118D+03 0.000000000000000D+00 0.000000000000000D+00 0.588822414553118D+03
 0.588822414553118D+03 0.000000000000000D+00 0.000000000000000D+00 -.588822414553118D+03
 0.353955909928040D+03 0.412333304186124D+02 0.211109760250476D+03 0.269351168195336D+03
 0.348333533629153D+03 0.706107673624261D+02 -.290451167874764D+03 -.178853261818866D+03
 0.205651586467656D+03 -.211861348461978D+02 -.158444863931114D+03 -.129379085639037D+03
 0.269703799081386D+03 -.906579629348407D+02 0.237786271555402D+03 0.388811792625667D+02
 0.000000000000000D+00 0.000000000000000D+00 -.000000000000000D+00 0.000000000000000D+00
 0.717983558769541D+03 0.000000000000000D+00 0.000000000000000D+00 0.717983558769541D+03
 0.628589756186907D+03 0.000000000000000D+00 0.000000000000000D+00 -.628589756186907D+03
 0.353846183173415D+03 0.119609620719051D+01 0.214914920230527D+03 0.269351168195336D+03
 0.339442843475431D+03 0.317062993428996D+02 -.286753666594547D+03 -.178853261818866D+03
 0.207679258056449D+03 -.445664327999712D+02 -.156222788009847D+03 -.129379085639037D+03
 0.284305383159018D+03 -.121995812315088D+03 0.240764637385891D+03 0.388811792625667D+02
 0.161299647092135D+03 0.133659849564969D+03 -.127031030120242D+02 0.893938025826339D+02
0.816457755740D-04 0.000000000000D+00 0.000000000000D+00 0.141607997046D-05 0.000000000000D+00  7 -1 1 24 -13 13 -24 21 0 0.33347564D-01 0.24608086D+00 0.22814613D+06 0.22814613D+06 0.22814613D+06 0.10934604D+01  1  2  2  2  7  2        1 0.468685506051D-03 0.100000000000D+01
-.429439179385D-05 0.000000000000D+00 -.313541276030D-06 0.141607997046D-05 0.000000000000D+00  7 -1 1 24 -13 13 -24 21 2 0.33347564D-01 0.24608086D+00 0.22814613D+06 0.22814613D+06 0.22814613D+06 0.10934604D+01  1  2  3  2  7  2        1 -.294751199822D-04 0.100000000000D+01
0.514766176320D-05 0.000000000000D+00 0.000000000000D+00 0.141607997046D-05 0.000000000000D+00  7 -1 1 24 -13 13 -24 21 2 0.33347564D-01 0.24608086D+00 0.22814613D+06 0.22814613D+06 0.22814613D+06 0.10934604D+01  1  2 15  2  7  2        1 0.353316500640D-04 0.100000000000D+01
-.201696399652D-04 0.000000000000D+00 0.000000000000D+00 0.141607997046D-05 0.000000000000D+00  7 -1 1 24 -13 13 -24 21 2 0.33347564D-01 0.24608086D+00 0.22814613D+06 0.22814613D+06 0.22814613D+06 0.10934604D+01  1  2  4  2  7  2        1 -.138436963023D-03 0.100000000000D+01
  </mgrwgt>
  </event>
  <event>
  8     66 0.29788925E-05 0.99471206E+02 0.75467711E-02 0.10964328E+00
       -1 -1    0    0    0  501 0.00000000E+00 0.00000000E+00 0.12284550E+03 0.12284592E+03 0.32000000E+00 0.0000E+00 0.9000E+01
        1 -1    0    0  501    0 0.00000000E+00 0.00000000E+00 -.89504260E+03 0.89504266E+03 0.32000000E+00 0.0000E+00 0.9000E+01
       25  2    1    2    0    0 -.53127722E+02 -.39269133E+02 -.79380314E+02 0.31595341E+03 0.29859790E+03 0.0000E+00 0.0000E+00
       23  2    1    2    0    0 0.53127722E+02 0.39269133E+02 -.69281678E+03 0.70193516E+03 0.91396178E+02 0.0000E+00 0.0000E+00
       24  1    3    3    0    0 -.44711870E+02 -.71740389E+02 -.15947559E+03 0.19759938E+03 0.80419002E+02 0.0000E+00 0.9000E+01
      -13  1    4    4    0    0 0.40924578E+02 -.12619653E+02 -.13626146E+03 0.14283303E+03 0.10565837E+00 0.0000E+00 0.9000E+01
       13  1    4    4    0    0 0.12203145E+02 0.51888787E+02 -.55655532E+03 0.55910214E+03 0.10565837E+00 0.0000E+00 0.9000E+01
      -24  1    3    3    0    0 -.84158519E+01 0.32471256E+02 0.80095274E+02 0.11835404E+03 0.80419002E+02 0.0000E+00 0.9000E+01
#aMCatNLO 1  0  0  2  1 0.27203466D+02 0.00000000D+00  -5  7  0 0.00000000D+00 0.00000000D+00 0.00000000D+00 0.00000000D+00 0.00000000D+00
  <mgrwgt>
 0.1084199427D-02    9    2    0
 0.331590410447803D+03 0.000000000000000D+00 0.000000000000000D+00 0.331590410447803D+03
 0.331590410447803D+03 0.000000000000000D+00 0.000000000000000D+00 -.331590410447803D+03
 0.117596227873532D+03 -.447118703593032D+02 -.717403886657343D+02 -.146908862488023D+02
 0.605675985399453D+02 0.409246160087341D+02 -.126197394271218D+02 -.428293354399202D+02
 0.210098670605493D+03 0.122031063946145D+02 0.518888727601494D+02 -.203224212307978D+03
 0.274918323876637D+03 -.841585204404536D+01 0.324712553327067D+02 0.260744433996701D+03
 0.000000000000000D+00 0.000000000000000D+00 0.000000000000000D+00 -.000000000000000D+00
 0.345254866753801D+03 0.000000000000000D+00 0.000000000000000D+00 0.345254866753801D+03
 0.345690614311922D+03 0.000000000000000D+00 0.000000000000000D+00 -.345690614311922D+03
 0.121162242533698D+03 -.473634232726312D+02 -.758548420243976D+02 -.146908862488023D+02
 0.601442944000627D+02 0.395840396059262D+02 -.146999313989103D+02 -.428293354399202D+02
 0.208215071705509D+03 0.755748682678064D+01 0.446801970675512D+02 -.203224212307978D+03
 0.274216916517779D+03 -.145143211119508D+02 0.230081718645159D+02 0.260744433996701D+03
 0.272069559086756D+02 0.147362179518752D+02 0.228664044912408D+02 -.435747558121135D+00
0.908983543840D-05 0.000000000000D+00 0.000000000000D+00 0.538944019903D-06 0.000000000000D+00  7 -1 1 24 -13 13 -24 21 0 0.18899345D-01 0.13769890D+00 0.22491030D+05 0.22491030D+05 0.22491030D+05 0.11791251D+01  1  2  2  2  7  2        1 0.435781560429D-03 0.100000000000D+01
-.118428018821D-06 0.000000000000D+00 -.349073614921D-07 0.538944019903D-06 0.000000000000D+00  7 -1 1 24 -13 13 -24 21 2 0.18899345D-01 0.13769890D+00 0.22491030D+05 0.22491030D+05 0.22491030D+05 0.11791251D+01  1  2  3  2  7  2        1 -.789381694999D-05 0.100000000000D+01
0.559411470599D-06 0.000000000000D+00 0.000000000000D+00 0.538944019903D-06 0.000000000000D+00  7 -1 1 24 -13 13 -24 21 2 0.18899345D-01 0.13769890D+00 0.22491030D+05 0.22491030D+05 0.22491030D+05 0.11791251D+01  1  2 15  2  7  2        1 0.372875590810D-04 0.100000000000D+01
0.189068464877D-04 0.000000000000D+00 0.000000000000D+00 0.538944019903D-06 0.000000000000D+00  7 -1 1 24 -13 13 -24 21 2 0.18899345D-01 0.14627485D+00 0.25585217D+05 0.25585217D+05 0.25585217D+05 0.11738050D+01  1  2 12  2  7  2        1 0.113015952320D-02 0.100000000000D+01
-.148627921242D-04 0.000000000000D+00 0.000000000000D+00 0.538944019903D-06 0.000000000000D+00  7 -1 1 24 -13 13 -24 21 2 0.18899345D-01 0.13769890D+00 0.22491030D+05 0.22491030D+05 0.22491030D+05 0.11791251D+01  1  2  4  2  7  2        1 -.990679077146D-03 0.100000000000D+01
-.625012603303D-04 0.000000000000D+00 -.156215707788D-04 0.538944019903D-06 0.000000000000D+00  7 -1 1 24 -13 13 -24 21 2 0.18899345D-01 0.14794572D+00 0.22491030D+05 0.22491030D+05 0.22491030D+05 0.11791251D+01  1  2  5  2  7  2        1 -.370554788569D-02 0.100000000000D+01
0.634990309758D-04 0.000000000000D+00 0.155814173599D-04 0.538944019903D-06 0.000000000000D+00  7 -1 1 24 -13 13 -24 21 2 0.18899345D-01 0.13769890D+00 0.22491030D+05 0.22491030D+05 0.22491030D+05 0.11791251D+01  1  2  6  2  7  2        1 0.423252649174D-02 0.100000000000D+01
0.210329575344D-06 0.000000000000D+00 0.000000000000D+00 0.538944019903D-06 0.000000000000D+00  7 -1 21 24 -13 13 -24 -1 2 0.18899345D-01 0.14627485D+00 0.25585217D+05 0.25585217D+05 0.25585217D+05 0.11738050D+01  1  2 12  4  7  2        1 0.196517633045D-04 0.100000000000D+01
-.730136868405D-06 0.000000000000D+00 -.189374453604D-06 0.538944019903D-06 0.000000000000D+00  7 -1 21 24 -13 13 -24 -1 2 0.18899345D-01 0.14794572D+00 0.22491030D+05 0.22491030D+05 0.22491030D+05 0.11791251D+01  1  2  5  4  7  2        1 -.670866908865D-04 0.100000000000D+01
  </mgrwgt>
  </event>
  <event>
  8     66 0.29788925E-05 0.26860188E+03 0.75467711E-02 0.10108613E+00
       -1 -1    0    0    0  501 0.00000000E+00 0.00000000E+00 0.30644406E+03 0.30644423E+03 0.32000000E+00 0.0000E+00 0.9000E+01
        1 -1    0    0  501    0 0.00000000E+00 0.00000000E+00 -.60626021E+03 0.60626029E+03 0.32000000E+00 0.0000E+00 0.9000E+01
       25  2    1    2    0    0 0.20099216E+03 -.96035814E+02 0.14945459E+03 0.40291016E+03 0.30063133E+03 0.0000E+00 0.0000E+00
       23  2    1    2    0    0 -.20099216E+03 0.96035814E+02 -.44927074E+03 0.50979435E+03 0.91789738E+02 0.0000E+00 0.0000E+00
       24  1    3    3    0    0 0.17779408E+03 -.11661998E+03 0.20017700E+03 0.30290098E+03 0.80419002E+02 0.0000E+00 0.9000E+01
      -11  1    4    4    0    0 -.14686528E+03 0.59947441E+02 -.21837286E+03 0.26990705E+03 0.51099893E-03 0.0000E+00 0.9000E+01
       11  1    4    4    0    0 -.54126884E+02 0.36088373E+02 -.23089788E+03 0.23988731E+03 0.51099893E-03 0.0000E+00 0.9000E+01
      -24  1    3    3    0    0 0.23198083E+02 0.20584163E+02 -.50722407E+02 0.10000919E+03 0.80419002E+02 0.0000E+00 0.9000E+01
#aMCatNLO 1  0  0  1  1 0.48036401D+02 0.00000000D+00  -5  7  0 0.00000000D+00 0.00000000D+00 0.00000000D+00 0.00000000D+00 0.00000000D+00
  <mgrwgt>
 0.3569709753D-03    4    2    0
 0.431027786063543D+03 0.000000000000000D+00 0.000000000000000D+00 0.431027786063543D+03
 0.431027786063543D+03 0.000000000000000D+00 0.000000000000000D+00 -.431027786063543D+03
 0.390317511664588D+03 0.177794079440741D+03 -.116619977396602D+03 0.317284714642072D+03
 0.209816715003467D+03 -.146865277774981D+03 0.599474410246953D+02 -.137331527310790D+03
 0.173677104986376D+03 -.541268843957143D+02 0.360883732427673D+02 -.161033060266371D+03
 0.882442404726549D+02 0.231980827299545D+02 0.205841631291396D+02 -.189201270649109D+02
 0.000000000000000D+00 -.000000000000000D+00 -.000000000000000D+00 -.000000000000000D+00
 0.442297288505734D+03 0.000000000000000D+00 0.000000000000000D+00 0.442297288505734D+03
 0.486114225353210D+03 0.000000000000000D+00 0.000000000000000D+00 -.486114225353210D+03
 0.391802159900598D+03 0.191054534640998D+03 -.993493391825763D+02 0.317284714642072D+03
 0.207807841974070D+03 -.139784658363830D+03 0.691693579449256D+02 -.137331527310790D+03
 0.173704753308198D+03 -.482371954685982D+02 0.437592024199894D+02 -.161033060266371D+03
 0.900781479721948D+02 0.262214513129791D+02 0.245218488417733D+02 -.189201270649109D+02
 0.650186107038826D+02 -.292541321215487D+02 -.381010700241119D+02 -.438169368474763D+02
0.293474477350D-04 0.000000000000D+00 0.000000000000D+00 0.196870901750D-05 0.000000000000D+00  7 -1 1 24 -11 11 -24 21 0 0.47145259D-01 0.93270820D-01 0.72146969D+05 0.72146969D+05 0.72146969D+05 0.11335460D+01  1  2  2  1  7  1       -1 0.548013322019D-03 0.100000000000D+01
-.118701384444D-05 0.000000000000D+00 -.112701926663D-06 0.196870901750D-05 0.000000000000D+00  7 -1 1 24 -11 11 -24 21 2 0.47145259D-01 0.93270820D-01 0.72146969D+05 0.72146969D+05 0.72146969D+05 0.11335460D+01  1  2  3  1  7  1       -1 -.284809740087D-04 0.100000000000D+01
0.179695736300D-05 0.000000000000D+00 0.000000000000D+00 0.196870901750D-05 0.000000000000D+00  7 -1 1 24 -11 11 -24 21 2 0.47145259D-01 0.93270820D-01 0.72146969D+05 0.72146969D+05 0.72146969D+05 0.11335460D+01  1  2 15  1  7  1       -1 0.431158374352D-04 0.100000000000D+01
-.857209784629D-05 0.000000000000D+00 0.000000000000D+00 0.196870901750D-05 0.000000000000D+00  7 -1 1 24 -11 11 -24 21 2 0.47145259D-01 0.93270820D-01 0.72146969D+05 0.72146969D+05 0.72146969D+05 0.11335460D+01  1  2  4  1  7  1       -1 -.205677210171D-03 0.100000000000D+01
  </mgrwgt>
  </event>
  <event>
  8     66 0.29788925E-05 0.26680634E+03 0.75467711E-02 0.93024331E-01
       -1 -1    0    0    0  501 0.00000000E+00 0.00000000E+00 0.19105074E+03 0.19105101E+03 0.32000000E+00 0.0000E+00 0.9000E+01
        1 -1    0    0  501    0 0.00000000E+00 0.00000000E+00 -.17282484E+04 0.17282484E+04 0.32000000E+00 0.0000E+00 0.9000E+01
       25  2    1    2    0    0 0.24709627E+03 0.45452519E+03 -.61129611E+03 0.85469752E+03 0.29862218E+03 0.0000E+00 0.0000E+00
       23  2    1    2    0    0 -.24709627E+03 -.45452519E+03 -.92590152E+03 0.10646019E+04 0.91836000E+02 0.0000E+00 0.0000E+00
       24  1    3    3    0    0 0.26813331E+03 0.28748010E+03 -.48460631E+03 0.62916673E+03 0.80419002E+02 0.0000E+00 0.9000E+01
      -13  1    4    4    0    0 -.31007281E+02 -.17320173E+02 -.41296070E+02 0.54468490E+02 0.10565837E+00 0.0000E+00 0.9000E+01
       13  1    4    4    0    0 -.21608899E+03 -.43720501E+03 -.88460545E+03 0.10101334E+04 0.10565837E+00 0.0000E+00 0.9000E+01
      -24  1    3    3    0    0 -.21037036E+02 0.16704508E+03 -.12668980E+03 0.22553079E+03 0.80419002E+02 0.0000E+00 0.9000E+01
#aMCatNLO 1  0  0  1  2 0.42375269D+02 0.00000000D+00  -5  7  0 0.00000000D+00 0.00000000D+00 0.00000000D+00 0.00000000D+00 0.00000000D+00
  <mgrwgt>
 0.9879869646D-03    9    2    0
 0.574615891220068D+03 0.000000000000000D+00 0.000000000000000D+00 0.574615891220068D+03
 0.574615891220068D+03 0.000000000000000D+00 0.000000000000000D+00 -.574615891220068D+03
 0.402550357274198D+03 0.268133309773477D+03 0.287480103873556D+03 0.322380559895318D+02
 0.357285703859408D+02 -.310070361694063D+02 -.173196170738319D+02 0.388912769500960D+01
 0.503758917810902D+03 -.216089237145392D+03 -.437205570646287D+03 -.126213223791282D+03
 0.207193936969094D+03 -.210370364586791D+02 0.167045083846563D+03 0.900860401067410D+02
 0.000000000000000D+00 0.000000000000000D+00 -.000000000000000D+00 0.000000000000000D+00
 0.597031106252144D+03 0.000000000000000D+00 0.000000000000000D+00 0.597031106252144D+03
 0.595388739840391D+03 0.000000000000000D+00 0.000000000000000D+00 -.595388739840391D+03
 0.407644805722000D+03 0.261222648389714D+03 0.300716656326245D+03 0.322380559895318D+02
 0.357158765773752D+02 -.316164305514807D+02 -.161523943935754D+02 0.388912769500960D+01
 0.493498294591186D+03 -.224595467770049D+03 -.420912894506422D+03 -.126213223791282D+03
 0.213153785286164D+03 -.246224451411993D+02 0.173912509040048D+03 0.900860401067410D+02
 0.424070839158090D+02 0.196116950730151D+02 -.375638764662953D+02 0.164236641175283D+01
0.985295786301D-04 0.000000000000D+00 0.000000000000D+00 0.113251284902D-05 0.000000000000D+00  7 -1 1 24 -13 13 -24 21 0 0.29392445D-01 0.26588439D+00 0.30860808D+06 0.30860808D+06 0.30860808D+06 0.10836441D+01  1  2  2  1  7  1       -1 0.567975124744D-03 0.100000000000D+01
-.546626741036D-05 0.000000000000D+00 -.378379525373D-06 0.113251284902D-05 0.000000000000D+00  7 -1 1 24 -13 13 -24 21 2 0.29392445D-01 0.26588439D+00 0.30860808D+06 0.30860808D+06 0.30860808D+06 0.10836441D+01  1  2  3  1  7  1       -1 -.370021426750D-04 0.100000000000D+01
0.625144872409D-05 0.000000000000D+00 0.000000000000D+00 0.113251284902D-05 0.000000000000D+00  7 -1 1 24 -13 13 -24 21 2 0.29392445D-01 0.26588439D+00 0.30860808D+06 0.30860808D+06 0.30860808D+06 0.10836441D+01  1  2 15  1  7  1       -1 0.423171755512D-04 0.100000000000D+01
0.197168251093D-03 0.000000000000D+00 0.000000000000D+00 0.113251284902D-05 0.000000000000D+00  7 -1 1 24 -13 13 -24 21 2 0.31050620D-01 0.26588439D+00 0.33322560D+06 0.33322560D+06 0.33322560D+06 0.10811930D+01  1  2 12  1  7  1       -1 0.120687285298D-02 0.100000000000D+01
-.155723977211D-03 0.000000000000D+00 0.000000000000D+00 0.113251284902D-05 0.000000000000D+00  7 -1 1 24 -13 13 -24 21 2 0.29392445D-01 0.26588439D+00 0.30860808D+06 0.30860808D+06 0.30860808D+06 0.10836441D+01  1  2  4  1  7  1       -1 -.105412347953D-02 0.100000000000D+01
-.930328123434D-03 0.000000000000D+00 -.172039673940D-03 0.113251284902D-05 0.000000000000D+00  7 -1 1 24 -13 13 -24 21 2 0.31738863D-01 0.26588439D+00 0.30860808D+06 0.30860808D+06 0.30860808D+06 0.10836441D+01  1  2  5  1  7  1       -1 -.552948538605D-02 0.100000000000D+01
0.941270084176D-03 0.000000000000D+00 0.171533496839D-03 0.113251284902D-05 0.000000000000D+00  7 -1 1 24 -13 13 -24 21 2 0.29392445D-01 0.26588439D+00 0.30860808D+06 0.30860808D+06 0.30860808D+06 0.10836441D+01  1  2  6  1  7  1       -1 0.637162570648D-02 0.100000000000D+01
0.218048305633D-05 0.000000000000D+00 0.000000000000D+00 0.113251284902D-05 0.000000000000D+00  7 21 1 24 -13 13 -24 1 2 0.31050620D-01 0.26588439D+00 0.33322560D+06 0.33322560D+06 0.33322560D+06 0.10811930D+01  1  2 12  3  7  1       -1 0.139502052094D-03 0.100000000000D+01
-.116382135269D-04 0.000000000000D+00 -.221598831556D-05 0.113251284902D-05 0.000000000000D+00  7 21 1 24 -13 13 -24 1 2 0.31738863D-01 0.26588439D+00 0.30860808D+06 0.30860808D+06 0.30860808D+06 0.10836441D+01  1  2  5  3  7  1       -1 -.719694938991D-03 0.100000000000D+01
  </mgrwgt>
  </event>
  <event>
  8     66 0.29788925E-05 0.12974492E+03 0.75467711E-02 0.10562121E+00
       -1 -1    0    0    0  501 0.00000000E+00 0.00000000E+00 0.72397206E+02 0.72397913E+02 0.32000000E+00 0.0000E+00 0.9000E+01
        1 -1    0    0  501    0 0.00000000E+00 0.00000000E+00 -.10006651E+04 0.10006651E+04 0.32000000E+00 0.0000E+00 0.9000E+01
       25  2    1    2    0    0 -.96360691E+02 0.12181778E+02 -.31179104E+03 0.44233526E+03 0.29835054E+03 0.0000E+00 0.0000E+00
       23  2    1    2    0    0 0.96360691E+02 -.12181778E+02 -.61647682E+03 0.63072778E+03 0.91324026E+02 0.0000E+00 0.0000E+00
       24  1    3    3    0    0 -.17033700E+03 0.40723388E+02 -.14619682E+03 0.24189629E+03 0.80419002E+02 0.0000E+00 0.9000E+01
      -11  1    4    4    0    0 0.21847524E+02 -.25783273E+02 -.57917742E+02 0.67056366E+02 0.51099893E-03 0.0000E+00 0.9000E+01
       11  1    4    4    0    0 0.74513168E+02 0.13601495E+02 -.55855908E+03 0.56367141E+03 0.51099893E-03 0.0000E+00 0.9000E+01
      -24  1    3    3    0    0 0.73976310E+02 -.28541610E+02 -.16559422E+03 0.20043896E+03 0.80419002E+02 0.0000E+00 0.9000E+01
#aMCatNLO 1  0  0  1  2 0.50280905D+01 0.00000000D+00  -5  7  0 0.00000000D+00 0.00000000D+00 0.00000000D+00 0.00000000D+00 0.00000000D+00
  <mgrwgt>
 0.6184187552D-03    8    2    0
 0.269157503902004D+03 0.000000000000000D+00 0.000000000000000D+00 0.269157503902004D+03
 0.269157503902004D+03 0.000000000000000D+00 0.000000000000000D+00 -.269157503902004D+03
 0.230088615400703D+03 -.170337001682995D+03 0.407233882857037D+02 0.125699906471014D+03
 0.337953226291105D+02 0.218475237144382D+02 -.257832726560191D+02 0.179973048284928D+00
 0.160431175881676D+03 0.745131676516402D+02 0.136014947721145D+02 -.141424712767111D+03
 0.113999893892519D+03 0.739763103169163D+02 -.285416104017991D+02 0.155448332478125D+02
 0.000000000000000D+00 0.000000000000000D+00 -.000000000000000D+00 -.000000000000000D+00
 0.271374032539270D+03 0.000000000000000D+00 0.000000000000000D+00 0.271374032539270D+03
 0.272035925909105D+03 0.000000000000000D+00 0.000000000000000D+00 -.272035925909105D+03
 0.231065369658716D+03 -.171170848590347D+03 0.427090529886553D+02 0.125699906471014D+03
 0.334957436213398D+02 0.217258497198437D+02 -.254935267156033D+02 0.179973048284928D+00
 0.160285837344404D+03 0.739332553050533D+02 0.149824574731460D+02 -.141424712767111D+03
 0.113491538916347D+03 0.735649660938531D+02 -.275620640398735D+02 0.155448332478125D+02
 0.507146890756851D+01 0.194677747159647D+01 -.463591970632438D+01 -.661893369835228D+00
0.520302626713D-05 0.000000000000D+00 0.000000000000D+00 0.237233019812D-06 0.000000000000D+00  7 -1 1 24 -11 11 -24 21 0 0.11138090D-01 0.15394853D+00 0.43096208D+05 0.43096208D+05 0.43096208D+05 0.11530151D+01  1  2  2  1  7  1       -1 0.467393370918D-03 0.100000000000D+01
-.265353420083D-06 0.000000000000D+00 -.199809908541D-07 0.237233019812D-06 0.000000000000D+00  7 -1 1 24 -11 11 -24 21 2 0.11138090D-01 0.15394853D+00 0.43096208D+05 0.43096208D+05 0.43096208D+05 0.11530151D+01  1  2  3  1  7  1       -1 -.316899263570D-04 0.100000000000D+01
0.320882360964D-06 0.000000000000D+00 0.000000000000D+00 0.237233019812D-06 0.000000000000D+00  7 -1 1 24 -11 11 -24 21 2 0.11138090D-01 0.15394853D+00 0.43096208D+05 0.43096208D+05 0.43096208D+05 0.11530151D+01  1  2 15  1  7  1       -1 0.383214898269D-04 0.100000000000D+01
0.895074397344D-06 0.000000000000D+00 0.000000000000D+00 0.237233019812D-06 0.000000000000D+00  7 -1 1 24 -11 11 -24 21 2 0.11288810D-01 0.15394853D+00 0.44155593D+05 0.44155593D+05 0.44155593D+05 0.11520743D+01  1  2 12  1  7  1       -1 0.104538937583D-03 0.100000000000D+01
-.180391704214D-04 0.000000000000D+00 0.000000000000D+00 0.237233019812D-06 0.000000000000D+00  7 -1 1 24 -11 11 -24 21 2 0.11138090D-01 0.15394853D+00 0.43096208D+05 0.43096208D+05 0.43096208D+05 0.11530151D+01  1  2  4  1  7  1       -1 -.215433432898D-02 0.100000000000D+01
0.174401363031D-04 0.000000000000D+00 0.000000000000D+00 0.237233019812D-06 0.664283054335D-07  7 -1 1 24 -11 11 -24 21 2 0.11229813D-01 0.15559489D+00 0.44155593D+05 0.44155593D+05 0.44155593D+05 0.11520743D+01  1  2 11  1  7  1       -1 0.201610984718D-02 0.100000000000D+01
0.442093715334D-07 0.000000000000D+00 0.000000000000D+00 0.237233019812D-06 0.000000000000D+00  7 21 1 24 -11 11 -24 1 2 0.11288810D-01 0.15394853D+00 0.44155593D+05 0.44155593D+05 0.44155593D+05 0.11520743D+01  1  2 12  3  7  1       -1 0.718869169296D-04 0.100000000000D+01
0.659154813859D-07 0.000000000000D+00 0.000000000000D+00 0.237233019812D-06 0.101352402152D-09  7 21 1 24 -11 11 -24 1 2 0.11229813D-01 0.15559489D+00 0.44155593D+05 0.44155593D+05 0.44155593D+05 0.11520743D+01  1  2 11  3  7  1       -1 0.106192448054D-03 0.100000000000D+01
  </mgrwgt>
  </event>
  <event>
  8     66 0.29788925E-05 0.12175357E+03 0.75467711E-02 0.10997001E+00
       -1 -1    0    0    0  501 0.00000000E+00 0.00000000E+00 0.92832108E+01 0.92887245E+01 0.32000000E+00 0.0000E+00 0.9000E+01
        1 -1    0    0  501    0 0.00000000E+00 0.00000000E+00 -.53249153E+04 0.53249154E+04 0.32000000E+00 0.0000E+00 0.9000E+01
       25  2    1    2    0    0 -.65267082E+02 0.15183732E+02 -.45186468E+04 0.45291397E+04 0.30074413E+03 0.0000E+00 0.0000E+00
       23  2    1    2    0    0 0.65267082E+02 -.15183732E+02 -.79698535E+03 0.80506441E+03 0.91938677E+02 0.0000E+00 0.0000E+00
       24  1    3    3    0    0 -.15832031E+02 -.38858740E+02 -.38965059E+04 0.38975616E+04 0.80419002E+02 0.0000E+00 0.9000E+01
      -11  1    4    4    0    0 0.71221784E+02 0.21563068E+02 -.45309967E+03 0.45916970E+03 0.51099893E-03 0.0000E+00 0.9000E+01
       11  1    4    4    0    0 -.59547018E+01 -.36746800E+02 -.34388568E+03 0.34589471E+03 0.51099893E-03 0.0000E+00 0.9000E+01
      -24  1    3    3    0    0 -.49435051E+02 0.54042472E+02 -.62214088E+03 0.63157811E+03 0.80419002E+02 0.0000E+00 0.9000E+01
#aMCatNLO 1  0  0  2  2 0.19963338D+01 0.00000000D+00  -5  7  0 0.00000000D+00 0.00000000D+00 0.00000000D+00 0.00000000D+00 0.00000000D+00
  <mgrwgt>
 0.6452381379D-04   10    2    0
 0.222366910800525D+03 0.000000000000000D+00 0.000000000000000D+00 0.222366910800525D+03
 0.222366910800525D+03 0.000000000000000D+00 0.000000000000000D+00 -.222366910800525D+03
 0.175378587126373D+03 -.158320308778480D+02 -.388587398055030D+02 -.150099227203485D+03
 0.917262271160464D+02 0.712217836209638D+02 0.215630679535300D+02 0.536301443147843D+02
 0.384571007194259D+02 -.595470157167074D+01 -.367468001311700D+02 0.965208811896452D+01
 0.139171906639203D+03 -.494350511714450D+02 0.540424719831430D+02 0.868169947697365D+02
 0.000000000000000D+00 0.000000000000000D+00 -.000000000000000D+00 -.000000000000000D+00
 0.223147012441430D+03 0.000000000000000D+00 0.000000000000000D+00 0.223147012441430D+03
 0.223650018426372D+03 0.000000000000000D+00 0.000000000000000D+00 -.223650018426372D+03
 0.175442677426620D+03 -.166184449862756D+02 -.388196649574045D+02 -.150099227203485D+03
 0.914126462404363D+02 0.708112526516037D+02 0.215834661573460D+02 0.536301443147843D+02
 0.384759990269528D+02 -.612715769437101D+01 -.367382312401418D+02 0.965208811896452D+01
 0.139406979484552D+03 -.500595240540592D+02 0.540735003977763D+02 0.868169947697365D+02
 0.205872868924113D+01 0.199387408310205D+01 -.990703575759972D-01 -.503005984942770D+00
0.270385001284D-04 0.000000000000D+00 0.000000000000D+00 0.178095703102D-06 0.000000000000D+00  7 -1 1 24 -11 11 -24 21 0 0.14286112D-02 0.81921817D+00 0.24199144D+05 0.24199144D+05 0.24199144D+05 0.11760947D+01  1  2  2  2  7  2        1 0.878387734070D-05 0.100000000000D+01
-.126898677643D-05 0.000000000000D+00 -.103834959894D-06 0.178095703102D-06 0.000000000000D+00  7 -1 1 24 -11 11 -24 21 2 0.14286112D-02 0.81921817D+00 0.24199144D+05 0.24199144D+05 0.24199144D+05 0.11760947D+01  1  2  3  2  7  2        1 -.570223821276D-06 0.100000000000D+01
0.174078851527D-05 0.000000000000D+00 0.000000000000D+00 0.178095703102D-06 0.000000000000D+00  7 -1 1 24 -11 11 -24 21 2 0.14286112D-02 0.81921817D+00 0.24199144D+05 0.24199144D+05 0.24199144D+05 0.11760947D+01  1  2 15  2  7  2        1 0.782229647817D-06 0.100000000000D+01
-.163053163633D-03 0.000000000000D+00 0.000000000000D+00 0.178095703102D-06 0.000000000000D+00  7 -1 1 24 -11 11 -24 21 2 0.14286112D-02 0.81921817D+00 0.24199144D+05 0.24199144D+05 0.24199144D+05 0.11760947D+01  1  2  4  2  7  2        1 -.732685318436D-04 0.100000000000D+01
-.112357696872D-02 0.000000000000D+00 -.111033273372D-03 0.178095703102D-06 0.000000000000D+00  7 -1 1 24 -11 11 -24 21 2 0.14286112D-02 0.82421404D+00 0.24199144D+05 0.24199144D+05 0.24199144D+05 0.11760947D+01  1  2  5  2  7  2        1 -.443398559577D-03 0.100000000000D+01
0.113300957791D-02 0.000000000000D+00 0.114818417212D-03 0.178095703102D-06 0.000000000000D+00  7 -1 1 24 -11 11 -24 21 2 0.14286112D-02 0.81921817D+00 0.24199144D+05 0.24199144D+05 0.24199144D+05 0.11760947D+01  1  2  6  2  7  2        1 0.509121972789D-03 0.100000000000D+01
0.159843680063D-03 0.000000000000D+00 0.000000000000D+00 0.178095703102D-06 0.329364889426D-06  7 -1 1 24 -11 11 -24 21 2 0.14336230D-02 0.82394525D+00 0.24519633D+05 0.24519633D+05 0.24519633D+05 0.11755526D+01  1  2 11  2  7  2        1 0.630847120458D-04 0.100000000000D+01
0.305908505015D-09 0.000000000000D+00 0.000000000000D+00 0.178095703102D-06 0.000000000000D+00  7 -1 21 24 -11 11 -24 -1 2 0.14286112D-02 0.82537555D+00 0.24519633D+05 0.24519633D+05 0.24519633D+05 0.11755526D+01  1  2 12  4  7  2        1 0.338366245620D-11 0.100000000000D+01
-.126770997252D-05 0.000000000000D+00 -.125427618098D-06 0.178095703102D-06 0.000000000000D+00  7 -1 21 24 -11 11 -24 -1 2 0.14286112D-02 0.82421404D+00 0.24199144D+05 0.24199144D+05 0.24199144D+05 0.11760947D+01  1  2  5  4  7  2        1 -.145884357863D-07 0.100000000000D+01
0.253605330126D-06 0.000000000000D+00 0.000000000000D+00 0.178095703102D-06 0.354315350793D-09  7 -1 21 24 -11 11 -24 -1 2 0.14336230D-02 0.82394525D+00 0.24519633D+05 0.24519633D+05 0.24519633D+05 0.11755526D+01  1  2 11  4  7  2        1 0.292226312806D-08 0.100000000000D+01
  </mgrwgt>
  </event>
  <event>
  8     66 0.29788925E-05 0.20909161E+03 0.75467711E-02 0.96158086E-01
       -1 -1    0    0    0  501 0.00000000E+00 0.00000000E+00 0.80404730E+02 0.80405367E+02 0.32000000E+00 0.0000E+00 0.9000E+01
        1 -1    0    0  501    0 0.00000000E+00 0.00000000E+00 -.81928824E+03 0.81928830E+03 0.32000000E+00 0.0000E+00 0.9000E+01
       25  2    1    2    0    0 -.83144837E+02 0.12241128E+03 -.53237816E+03 0.62896675E+03 0.30045811E+03 0.0000E+00 0.0000E+00
       23  2    1    2    0    0 0.83144837E+02 -.12241128E+03 -.20650534E+03 0.27072692E+03 0.93546906E+02 0.0000E+00 0.0000E+00
       24  1    3    3    0    0 -.20400542E+02 -.79701332E+01 -.42164863E+03 0.42980750E+03 0.80419002E+02 0.0000E+00 0.9000E+01
      -13  1    4    4    0    0 -.14418701E+02 -.36695733E+02 -.81185854E+02 0.90253143E+02 0.10565837E+00 0.0000E+00 0.9000E+01
       13  1    4    4    0    0 0.97563538E+02 -.85715545E+02 -.12531949E+03 0.18047378E+03 0.10565837E+00 0.0000E+00 0.9000E+01
      -24  1    3    3    0    0 -.62744295E+02 0.13038141E+03 -.11072953E+03 0.19915924E+03 0.80419002E+02 0.0000E+00 0.9000E+01
#aMCatNLO 1  0  0  2  1 0.34109216D+03 0.00000000D+00  -5  7  0 0.00000000D+00 0.00000000D+00 0.00000000D+00 0.00000000D+00 0.00000000D+00
  <mgrwgt>
 0.5334384631D-03    5    2    0
 0.256661184813438D+03 0.000000000000000D+00 0.000000000000000D+00 0.256661184813438D+03
 0.256661184813438D+03 0.000000000000000D+00 0.000000000000000D+00 -.256661184813438D+03
 0.146391183737134D+03 -.204005486378876D+02 -.797012293707980D+01 -.120347237098447D+03
 0.413253419569491D+02 -.144188147802253D+02 -.366956694174916D+02 -.123818219254885D+02
 0.135927592136545D+03 0.975636675948095D+02 -.857156319727721D+02 0.401306803455504D+02
 0.189678251796248D+03 -.627443041766966D+02 0.130381424327344D+03 0.925983786783851D+02
 0.000000000000000D+00 -.000000000000000D+00 -.000000000000000D+00 -.000000000000000D+00
 0.475302096497483D+03 0.000000000000000D+00 0.000000000000000D+00 0.475302096497483D+03
 0.482173898830570D+03 0.000000000000000D+00 0.000000000000000D+00 -.482173898830570D+03
 0.161368971121928D+03 0.702012533917160D+02 0.126907616627719D+02 -.120347237098447D+03
 0.348543396796641D+02 0.800779349035939D+01 -.315814933739154D+02 -.123818219254885D+02
 0.213743086397274D+03 0.200503548186520D+03 -.622411651742760D+02 0.401306803455504D+02
 0.206348226290533D+03 0.538423039322418D+02 0.156967898349569D+03 0.925983786783851D+02
 0.341161371838655D+03 -.332554899000838D+03 -.758360014641500D+02 -.687180233308732D+01
0.483150455452D-05 0.000000000000D+00 0.000000000000D+00 0.950092607788D-07 0.000000000000D+00  7 -1 1 24 -13 13 -24 21 0 0.12370012D-01 0.12604440D+00 0.43719302D+05 0.43719302D+05 0.43719302D+05 0.11524587D+01  1  2  2  2  7  2        1 0.512420080427D-03 0.100000000000D+01
-.254703904950D-06 0.000000000000D+00 -.185542496537D-07 0.950092607788D-07 0.000000000000D+00  7 -1 1 24 -13 13 -24 21 2 0.12370012D-01 0.12604440D+00 0.43719302D+05 0.43719302D+05 0.43719302D+05 0.11524587D+01  1  2  3  2  7  2        1 -.358781554905D-04 0.100000000000D+01
0.312709008097D-06 0.000000000000D+00 0.000000000000D+00 0.950092607788D-07 0.000000000000D+00  7 -1 1 24 -13 13 -24 21 2 0.12370012D-01 0.12604440D+00 0.43719302D+05 0.43719302D+05 0.43719302D+05 0.11524587D+01  1  2 15  2  7  2        1 0.440488826349D-04 0.100000000000D+01
0.754442900447D-06 0.000000000000D+00 -.141984342675D-05 0.950092607788D-07 0.000000000000D+00  7 -1 1 24 -13 13 -24 21 2 0.12370012D-01 0.34350060D+00 0.43719302D+05 0.43719302D+05 0.43719302D+05 0.11524587D+01  1  2  5  2  7  2        1 0.116528272197D-04 0.100000000000D+01
0.166350269071D-06 0.000000000000D+00 -.159052994478D-06 0.950092607788D-07 0.000000000000D+00  7 -1 21 24 -13 13 -24 -1 2 0.12370012D-01 0.34350060D+00 0.43719302D+05 0.43719302D+05 0.43719302D+05 0.11524587D+01  1  2  5  4  7  2        1 0.119482831800D-05 0.100000000000D+01
  </mgrwgt>
  </event>
  <event>
  9     66 0.29788925E-05 0.22371213E+03 0.75467711E-02 0.10358844E+00
       -1 -1    0    0    0  502 0.00000000E+00 0.00000000E+00 0.25566156E+03 0.25566176E+03 0.32000000E+00 0.0000E+00 0.9000E+01
        1 -1    0    0  501    0 0.00000000E+00 0.00000000E+00 -.36720913E+03 0.36720927E+03 0.32000000E+00 0.0000E+00 0.9000E+01
       25  2    1    2    0    0 -.13445769E+03 -.10693734E+03 0.69922916E+02 0.35291692E+03 0.30024435E+03 0.0000E+00 0.0000E+00
       23  2    1    2    0    0 0.99813974E+02 0.88882819E+02 -.15305954E+03 0.22164368E+03 0.88519557E+02 0.0000E+00 0.0000E+00
       24  1    3    3    0    0 -.10671504E+03 -.15334186E+03 -.39030720E+02 0.20710490E+03 0.80419002E+02 0.0000E+00 0.9000E+01
      -13  1    4    4    0    0 0.10789814E+03 0.76599060E+02 -.98020088E+02 0.16467354E+03 0.10565837E+00 0.0000E+00 0.9000E+01
       13  1    4    4    0    0 -.80841679E+01 0.12283759E+02 -.55039450E+02 0.56970139E+02 0.10565837E+00 0.0000E+00 0.9000E+01
      -24  1    3    3    0    0 -.27742658E+02 0.46404521E+02 0.10895364E+03 0.14581202E+03 0.80419002E+02 0.0000E+00 0.9000E+01
       21  1    1    2  501  502 0.34643720E+02 0.18054523E+02 -.28410947E+02 0.48310430E+02 0.75000000E+00 0.0000E+00 0.9000E+01
#aMCatNLO 2  0  0  1  2 0.39066010D+02 0.00000000D+00  -5  7  0 0.00000000D+00 0.00000000D+00 0.00000000D+00 0.00000000D+00 0.00000000D+00
  <mgrwgt>
 0.1925651762D-03    1    2    0
 0.283585096216706D+03 0.000000000000000D+00 0.000000000000000D+00 0.283585096216706D+03
 0.283585096216706D+03 0.000000000000000D+00 0.000000000000000D+00 -.283585096216706D+03
 0.192682749684988D+03 -.946265468230773D+02 -.147041965366316D+03 -.915986513810905D+01
 0.161480470431641D+03 0.117463717912167D+03 0.815841518187921D+02 -.749816209286195D+02
 0.495417853236871D+02 -.506225928569980D+01 0.138586165771835D+02 -.472937709487122D+02
 0.163465186993096D+03 -.177749118033900D+02 0.515991969703406D+02 0.131435257015441D+03
 0.000000000000000D+00 0.000000000000000D+00 0.000000000000000D+00 -.000000000000000D+00
 0.295764479446694D+03 0.000000000000000D+00 0.000000000000000D+00 0.295764479446694D+03
 0.317412699480936D+03 0.000000000000000D+00 0.000000000000000D+00 -.317412699480936D+03
 0.203599964492427D+03 -.106715037115118D+03 -.153341864183000D+03 -.915986513810905D+01
 0.152091149859902D+03 0.107898305765381D+03 0.765991514416726D+02 -.749816209286195D+02
 0.495272216729774D+02 -.808433086862821D+01 0.122836684464181D+02 -.472937709487122D+02
 0.163295674665098D+03 -.277426579670684D+02 0.464045208160397D+02 0.131435257015441D+03
 0.446631682372248D+02 0.346437201854335D+02 0.180545234788698D+02 -.216482200342425D+02
0.290567268972D-05 0.000000000000D+00 0.000000000000D+00 0.221171118541D-06 0.101557651307D-08  7 -1 1 24 -13 13 -24 21 2 0.39332163D-01 0.56493148D-01 0.59144237D+05 0.59144237D+05 0.59144237D+05 0.11409341D+01  1  2  1  1  7  1       -1 0.192565176208D-03 0.100000000000D+01
  </mgrwgt>
  </event>
  <event>
  8     66 0.29788925E-05 0.12532891E+03 0.75467711E-02 0.97549463E-01
       -1 -1    0    0    0  501 0.00000000E+00 0.00000000E+00 0.54007281E+02 0.54008229E+02 0.32000000E+00 0.0000E+00 0.9000E+01
        1 -1    0    0  501    0 0.00000000E+00 0.00000000E+00 -.21497191E+04 0.21497191E+04 0.32000000E+00 0.0000E+00 0.9000E+01
       25  2    1    2    0    0 -.58646637E+02 -.17791721E+03 -.62054903E+03 0.71443968E+03 0.30041471E+03 0.0000E+00 0.0000E+00
       23  2    1    2    0    0 0.58646637E+02 0.17791721E+03 -.14751628E+04 0.14892877E+04 0.82331993E+02 0.0000E+00 0.0000E+00
       24  1    3    3    0    0 0.27325105E+02 -.15729354E+03 -.16429481E+03 0.24279192E+03 0.80419002E+02 0.0000E+00 0.9000E+01
      -11  1    4    4    0    0 0.18945756E+02 -.14973457E+01 -.20870875E+03 0.20957224E+03 0.51099893E-03 0.0000E+00 0.9000E+01
       11  1    4    4    0    0 0.39700881E+02 0.17941456E+03 -.12664540E+04 0.12797154E+04 0.51099893E-03 0.0000E+00 0.9000E+01
      -24  1    3    3    0    0 -.85971742E+02 -.20623675E+02 -.45625422E+03 0.47164775E+03 0.80419002E+02 0.0000E+00 0.9000E+01
#aMCatNLO 1  0  0  2  1 0.23613396D+03 0.00000000D+00  -5  7  0 0.00000000D+00 0.00000000D+00 0.00000000D+00 0.00000000D+00 0.00000000D+00
  <mgrwgt>
 0.3713429690D-02    8    2    0
 0.340736782335247D+03 0.000000000000000D+00 0.000000000000000D+00 0.340736782335247D+03
 0.340736782335247D+03 0.000000000000000D+00 0.000000000000000D+00 -.340736782335247D+03
 0.279882653325428D+03 0.273251052345876D+02 -.157293535778645D+03 0.215358226925005D+03
 0.358732845665948D+02 0.189457555124481D+02 -.149734567885179D+01 -.304254638350256D+02
 0.243620888622511D+03 0.397008813835492D+02 0.179414556612990D+03 -.159954350569016D+03
 0.122096738155960D+03 -.859717421305849D+02 -.206236751554932D+02 -.249784125209635D+02
 0.000000000000000D+00 0.000000000000000D+00 0.000000000000000D+00 -.000000000000000D+00
 0.414961490532356D+03 0.000000000000000D+00 0.000000000000000D+00 0.414961490532356D+03
 0.617099486441624D+03 0.000000000000000D+00 0.000000000000000D+00 -.617099486441624D+03
 0.342026402008079D+03 -.156351948464566D+02 -.252767123048178D+03 0.215358226925005D+03
 0.357451590187489D+02 0.139984890248847D+02 -.124919913832573D+02 -.304254638350256D+02
 0.195493787672584D+03 0.936767092159251D+01 0.112003006629833D+03 -.159954350569016D+03
 0.147959628971899D+03 -.104626724673632D+03 -.620819075345798D+02 -.249784125209635D+02
 0.310835999302668D+03 0.968957595736114D+02 0.215338015336182D+03 -.202137995909268D+03
0.979023366458D-04 0.000000000000D+00 0.000000000000D+00 0.426235672452D-07 0.000000000000D+00  7 -1 1 24 -11 11 -24 21 0 0.83088872D-02 0.33072609D+00 0.62758717D+05 0.62758717D+05 0.62758717D+05 0.11387133D+01  1  2  2  2  7  2        1 0.234020570602D-02 0.100000000000D+01
-.481337186653D-05 0.000000000000D+00 -.375970750997D-06 0.426235672452D-07 0.000000000000D+00  7 -1 1 24 -11 11 -24 21 2 0.83088872D-02 0.33072609D+00 0.62758717D+05 0.62758717D+05 0.62758717D+05 0.11387133D+01  1  2  3  2  7  2        1 -.149189821017D-03 0.100000000000D+01
0.616660373780D-05 0.000000000000D+00 0.000000000000D+00 0.426235672452D-07 0.000000000000D+00  7 -1 1 24 -11 11 -24 21 2 0.83088872D-02 0.33072609D+00 0.62758717D+05 0.62758717D+05 0.62758717D+05 0.11387133D+01  1  2 15  2  7  2        1 0.191133062942D-03 0.100000000000D+01
0.228751572704D-06 0.000000000000D+00 0.000000000000D+00 0.426235672452D-07 0.000000000000D+00  7 -1 1 24 -11 11 -24 21 2 0.83088872D-02 0.61025761D+00 0.15164713D+06 0.15164713D+06 0.15164713D+06 0.11071778D+01  1  2 12  2  7  2        1 0.270968995517D-06 0.100000000000D+01
-.346787044845D-04 0.000000000000D+00 -.232351923340D-04 0.426235672452D-07 0.000000000000D+00  7 -1 1 24 -11 11 -24 21 2 0.83088872D-02 0.62210445D+00 0.62758717D+05 0.62758717D+05 0.62758717D+05 0.11387133D+01  1  2  5  2  7  2        1 -.392119914257D-04 0.100000000000D+01
0.442112587193D-04 0.000000000000D+00 0.192611307159D-04 0.426235672452D-07 0.000000000000D+00  7 -1 1 24 -11 11 -24 21 2 0.83088872D-02 0.33072609D+00 0.62758717D+05 0.62758717D+05 0.62758717D+05 0.11387133D+01  1  2  6  2  7  2        1 0.137032208567D-02 0.100000000000D+01
0.152930300598D-07 0.000000000000D+00 0.000000000000D+00 0.426235672452D-07 0.000000000000D+00  7 -1 21 24 -11 11 -24 -1 2 0.83088872D-02 0.61025761D+00 0.15164713D+06 0.15164713D+06 0.15164713D+06 0.11071778D+01  1  2 12  4  7  2        1 0.156003147614D-08 0.100000000000D+01
-.107258157186D-05 0.000000000000D+00 -.159726071171D-05 0.426235672452D-07 0.000000000000D+00  7 -1 21 24 -11 11 -24 -1 2 0.83088872D-02 0.62210445D+00 0.62758717D+05 0.62758717D+05 0.62758717D+05 0.11387133D+01  1  2  5  4  7  2        1 -.101881355535D-06 0.100000000000D+01
  </mgrwgt>
  </event>
  <event>
  8     66 0.29788925E-05 0.15597268E+03 0.75467711E-02 0.97611419E-01
       -1 -1    0    0    0  501 0.00000000E+00 0.00000000E+00 0.20961881E+03 0.20961905E+03 0.32000000E+00 0.0000E+00 0.9000E+01
        1 -1    0    0  501    0 0.00000000E+00 0.00000000E+00 -.13046751E+04 0.13046752E+04 0.32000000E+00 0.0000E+00 0.9000E+01
       25  2    1    2    0    0 -.14445429E+03 -.30536257E+03 -.10728098E+04 0.11640026E+04 0.29977993E+03 0.0000E+00 0.0000E+00
       23  2    1    2    0    0 0.14445429E+03 0.30536257E+03 -.22246569E+02 0.35029159E+03 0.89977479E+02 0.0000E+00 0.0000E+00
       24  1    3    3    0    0 -.91070795E+02 -.15413542E+03 -.87590151E+03 0.89762035E+03 0.80419002E+02 0.0000E+00 0.9000E+01
      -11  1    4    4    0    0 0.64113686E+02 0.71066729E+02 0.23161992E+02 0.98476000E+02 0.51099893E-03 0.0000E+00 0.9000E+01
       11  1    4    4    0    0 0.80340607E+02 0.23429584E+03 -.45408561E+02 0.25181559E+03 0.51099893E-03 0.0000E+00 0.9000E+01
      -24  1    3    3    0    0 -.53383498E+02 -.15122715E+03 -.19690826E+03 0.26638230E+03 0.80419002E+02 0.0000E+00 0.9000E+01
#aMCatNLO 1  0  0  1  2 0.55891122D+02 0.00000000D+00  -5  7  0 0.00000000D+00 0.00000000D+00 0.00000000D+00 0.00000000D+00 0.00000000D+00
  <mgrwgt>
 0.4930609922D-03    9    2    0
 0.522957609897536D+03 0.000000000000000D+00 0.000000000000000D+00 0.522957609897536D+03
 0.522957609897536D+03 0.000000000000000D+00 0.000000000000000D+00 -.522957609897536D+03
 0.382535610280031D+03 -.910707950996954D+02 -.154135420738038D+03 -.328351426876392D+03
 0.166825496132784D+03 0.641136856571064D+02 0.710667289958534D+02 0.136637116118722D+03
 0.317040961545122D+03 0.803406072688836D+02 0.234295842644295D+03 0.197903552875441D+03
 0.179513151837136D+03 -.533834978262945D+02 -.151227150902110D+03 -.618924211777166D+01
 0.000000000000000D+00 -.000000000000000D+00 -.000000000000000D+00 0.000000000000000D+00
 0.670863816256077D+03 0.000000000000000D+00 0.000000000000000D+00 0.670863816256077D+03
 0.529010584677791D+03 0.000000000000000D+00 0.000000000000000D+00 -.529010584677791D+03
 0.374586298415025D+03 -.739354667717825D+02 -.143410481581284D+03 -.328351426876392D+03
 0.171982468403876D+03 0.717816525271363D+02 0.758660813375949D+02 0.136637116118722D+03
 0.327774994120855D+03 0.949342057165329D+02 0.243429922390767D+03 0.197903552875441D+03
 0.173063735940709D+03 -.454039100432385D+02 -.146232756173773D+03 -.618924211777166D+01
 0.152466904053403D+03 -.473764814286482D+02 -.296527659733052D+02 0.141853231578286D+03
0.454686840333D-04 0.000000000000D+00 0.000000000000D+00 0.298485019561D-05 0.000000000000D+00  7 -1 1 24 -11 11 -24 21 0 0.32249069D-01 0.20071928D+00 0.12926525D+06 0.12926525D+06 0.12926525D+06 0.11126869D+01  1  2  2  1  7  1       -1 0.445852803726D-03 0.100000000000D+01
-.209485218666D-05 0.000000000000D+00 -.174611718867D-06 0.298485019561D-05 0.000000000000D+00  7 -1 1 24 -11 11 -24 21 2 0.32249069D-01 0.20071928D+00 0.12926525D+06 0.12926525D+06 0.12926525D+06 0.11126869D+01  1  2  3  1  7  1       -1 -.254318781458D-04 0.100000000000D+01
0.286084555859D-05 0.000000000000D+00 0.000000000000D+00 0.298485019561D-05 0.000000000000D+00  7 -1 1 24 -11 11 -24 21 2 0.32249069D-01 0.20071928D+00 0.12926525D+06 0.12926525D+06 0.12926525D+06 0.11126869D+01  1  2 15  1  7  1       -1 0.347311739239D-04 0.100000000000D+01
0.308856302407D-03 0.000000000000D+00 0.000000000000D+00 0.298485019561D-05 0.000000000000D+00  7 -1 1 24 -11 11 -24 21 2 0.41519865D-01 0.20071928D+00 0.15009872D+06 0.15009872D+06 0.15009872D+06 0.11075294D+01  1  2 12  1  7  1       -1 0.239366616718D-02 0.100000000000D+01
-.306022528589D-03 0.000000000000D+00 0.000000000000D+00 0.298485019561D-05 0.000000000000D+00  7 -1 1 24 -11 11 -24 21 2 0.32249069D-01 0.20071928D+00 0.12926525D+06 0.12926525D+06 0.12926525D+06 0.11126869D+01  1  2  4  1  7  1       -1 -.371516792759D-02 0.100000000000D+01
-.338499729175D-03 0.000000000000D+00 -.266962006957D-04 0.298485019561D-05 0.000000000000D+00  7 -1 1 24 -11 11 -24 21 2 0.41652444D-01 0.20071928D+00 0.12926525D+06 0.12926525D+06 0.12926525D+06 0.11126869D+01  1  2  5  1  7  1       -1 -.264896897927D-02 0.100000000000D+01
0.335150078575D-03 0.000000000000D+00 0.258455227882D-04 0.298485019561D-05 0.000000000000D+00  7 -1 1 24 -11 11 -24 21 2 0.32249069D-01 0.20071928D+00 0.12926525D+06 0.12926525D+06 0.12926525D+06 0.11126869D+01  1  2  6  1  7  1       -1 0.406878156517D-02 0.100000000000D+01
0.105352632663D-04 0.000000000000D+00 0.000000000000D+00 0.298485019561D-05 0.000000000000D+00  7 21 1 24 -11 11 -24 1 2 0.41519865D-01 0.20071928D+00 0.15009872D+06 0.15009872D+06 0.15009872D+06 0.11075294D+01  1  2 12  3  7  1       -1 0.796678591871D-03 0.100000000000D+01
-.111887520311D-04 0.000000000000D+00 -.919062899448D-06 0.298485019561D-05 0.000000000000D+00  7 21 1 24 -11 11 -24 1 2 0.41652444D-01 0.20071928D+00 0.12926525D+06 0.12926525D+06 0.12926525D+06 0.11126869D+01  1  2  5  3  7  1       -1 -.857080524633D-03 0.100000000000D+01
  </mgrwgt>
  </event>
  <event>
  8     66 0.29788925E-05 0.84884130E+02 0.75467711E-02 0.99472568E-01
       -3 -1    0    0    0  501 0.00000000E+00 0.00000000E+00 0.55564995E+03 0.55565018E+03 0.50000000E+00 0.0000E+00 0.9000E+01
        3 -1    0    0  501    0 0.00000000E+00 0.00000000E+00 -.25646223E+03 0.25646271E+03 0.50000000E+00 0.0000E+00 0.9000E+01
       25  2    1    2    0    0 0.12153456E+03 -.20011406E+03 -.48439421E+02 0.38389413E+03 0.30035320E+03 0.0000E+00 0.0000E+00
       23  2    1    2    0    0 -.12153456E+03 0.20011406E+03 0.34762715E+03 0.42821876E+03 0.87808817E+02 0.0000E+00 0.0000E+00
       24  1    3    3    0    0 -.54477729E+02 0.59093348E+01 -.12073927E+01 0.97321205E+02 0.80419002E+02 0.0000E+00 0.9000E+01
      -13  1    4    4    0    0 -.88915722E+01 -.86899752E+01 0.22870788E+02 0.26031900E+02 0.10565837E+00 0.0000E+00 0.9000E+01
       13  1    4    4    0    0 -.11264298E+03 0.20880403E+03 0.32475636E+03 0.40218686E+03 0.10565837E+00 0.0000E+00 0.9000E+01
      -24  1    3    3    0    0 0.17601228E+03 -.20602339E+03 -.47232029E+02 0.28657293E+03 0.80419002E+02 0.0000E+00 0.9000E+01
#aMCatNLO 1  0  0  2  1 0.36746851D+02 0.00000000D+00  -5  7  0 0.00000000D+00 0.00000000D+00 0.00000000D+00 0.00000000D+00 0.00000000D+00
  <mgrwgt>
 0.1359573865D-03    6    2    0
 0.377496376273142D+03 0.000000000000000D+00 0.000000000000000D+00 0.377496376273142D+03
 0.377496376273142D+03 0.000000000000000D+00 0.000000000000000D+00 -.377496376273142D+03
 0.105162654975409D+03 -.544777285196168D+02 0.590933476651136D+01 -.398650837835147D+02
 0.189377593267939D+02 -.889142195648870D+01 -.869028987082794D+01 0.142849643286998D+02
 0.303921234918651D+03 -.112643133184842D+03 0.208804348459268D+03 0.189948376263869D+03
 0.326971103325429D+03 0.176012283660947D+03 -.206023393354951D+03 -.164368256809054D+03
 0.000000000000000D+00 -.000000000000000D+00 0.000000000000000D+00 0.000000000000000D+00
 0.397617436125583D+03 0.000000000000000D+00 0.000000000000000D+00 0.397617436125583D+03
 0.395101906826274D+03 0.000000000000000D+00 0.000000000000000D+00 -.395101906826274D+03
 0.102816679460532D+03 -.500251507138734D+02 0.350899015485173D+01 -.398650837835147D+02
 0.187799560887415D+02 -.808393277494078D+01 -.912560001934501D+01 0.142849643286998D+02
 0.294632470398854D+03 -.998288458852395D+02 0.201896281534040D+03 0.189948376263869D+03
 0.339657385188347D+03 0.190283967050466D+03 -.213717129392345D+03 -.164368256809054D+03
 0.368328518153828D+02 -.323460376764128D+02 0.174374577227975D+02 0.251552929930954D+01
0.248613312516D-04 0.000000000000D+00 0.000000000000D+00 0.325788258871D-06 0.000000000000D+00  7 -3 3 24 -13 13 -24 21 0 0.85484663D-01 0.39455782D-01 0.99115047D+05 0.99115047D+05 0.99115047D+05 0.11220390D+01  1  2  2  2  7  2        3 0.806890047258D-04 0.100000000000D+01
-.132583847016D-05 0.000000000000D+00 -.954740581451D-07 0.325788258871D-06 0.000000000000D+00  7 -3 3 24 -13 13 -24 21 2 0.85484663D-01 0.39455782D-01 0.99115047D+05 0.99115047D+05 0.99115047D+05 0.11220390D+01  1  2  3  2  7  2        3 -.541746954626D-05 0.100000000000D+01
0.159489256050D-05 0.000000000000D+00 0.000000000000D+00 0.325788258871D-06 0.000000000000D+00  7 -3 3 24 -13 13 -24 21 2 0.85484663D-01 0.39455782D-01 0.99115047D+05 0.99115047D+05 0.99115047D+05 0.11220390D+01  1  2 15  2  7  2        3 0.651684354508D-05 0.100000000000D+01
0.449848622904D-04 0.000000000000D+00 0.000000000000D+00 0.325788258871D-06 0.000000000000D+00  7 -3 3 24 -13 13 -24 21 2 0.85484663D-01 0.42296500D-01 0.11094827D+06 0.11094827D+06 0.11094827D+06 0.11180381D+01  1  2 12  2  7  2        3 0.159359907356D-03 0.100000000000D+01
-.329214748575D-04 0.000000000000D+00 0.000000000000D+00 0.325788258871D-06 0.000000000000D+00  7 -3 3 24 -13 13 -24 21 2 0.85484663D-01 0.39455782D-01 0.99115047D+05 0.99115047D+05 0.99115047D+05 0.11220390D+01  1  2  4  2  7  2        3 -.134519469357D-03 0.100000000000D+01
0.532987378031D-06 0.000000000000D+00 0.000000000000D+00 0.325788258871D-06 0.000000000000D+00  7 -3 21 24 -13 13 -24 -3 2 0.85484663D-01 0.42296500D-01 0.11094827D+06 0.11094827D+06 0.11094827D+06 0.11180381D+01  1  2 12  4  7  2        3 0.293285698008D-04 0.100000000000D+01
  </mgrwgt>
  </event>
  <event>
  8     66 0.29788925E-05 0.31249787E+03 0.75467711E-02 0.98652058E-01
       -1 -1    0    0    0  501 0.00000000E+00 0.00000000E+00 0.49864341E+03 0.49864351E+03 0.32000000E+00 0.0000E+00 0.9000E+01
        1 -1    0    0  501    0 0.00000000E+00 0.00000000E+00 -.38270871E+03 0.38270884E+03 0.32000000E+00 0.0000E+00 0.9000E+01
       25  2    1    2    0    0 -.24477509E+03 0.66611908E+01 0.35520426E+03 0.52689599E+03 0.30247330E+03 0.0000E+00 0.0000E+00
       23  2    1    2    0    0 0.24477509E+03 -.66611908E+01 -.23926956E+03 0.35445637E+03 0.91815999E+02 0.0000E+00 0.0000E+00
       24  1    3    3    0    0 -.26320651E+03 0.59666900E+02 0.20833706E+03 0.35029894E+03 0.80419002E+02 0.0000E+00 0.9000E+01
      -13  1    4    4    0    0 0.55106058E+02 0.47357826E+01 -.11445298E+03 0.12711648E+03 0.10565837E+00 0.0000E+00 0.9000E+01
       13  1    4    4    0    0 0.18966903E+03 -.11396973E+02 -.12481659E+03 0.22733988E+03 0.10565837E+00 0.0000E+00 0.9000E+01
      -24  1    3    3    0    0 0.18431425E+02 -.53005709E+02 0.14686721E+03 0.17659704E+03 0.80419002E+02 0.0000E+00 0.9000E+01
#aMCatNLO 1  0  0  2  1 0.92303569D+02 0.00000000D+00  -5  7  0 0.00000000D+00 0.00000000D+00 0.00000000D+00 0.00000000D+00 0.00000000D+00
  <mgrwgt>
 0.8059260939D-03    4    2    0
 0.436846973453958D+03 0.000000000000000D+00 0.000000000000000D+00 0.436846973453958D+03
 0.436846973453958D+03 0.000000000000000D+00 0.000000000000000D+00 -.436846973453958D+03
 0.325724248412163D+03 -.263206509057212D+03 0.596668984606759D+02 0.163680374105441D+03
 0.143417914148687D+03 0.551058798989580D+02 0.473580389499508D+01 -.132323891496548D+03
 0.245895298836055D+03 0.189669207046718D+03 -.113969947601775D+02 -.156077539698634D+03
 0.158656485511010D+03 0.184314221115362D+02 -.530057075954934D+02 0.124721057089740D+03
 0.000000000000000D+00 0.000000000000000D+00 0.000000000000000D+00 0.000000000000000D+00
 0.613888227659782D+03 0.000000000000000D+00 0.000000000000000D+00 0.613888227659782D+03
 0.451476651858944D+03 0.000000000000000D+00 0.000000000000000D+00 -.451476651858944D+03
 0.351422996735692D+03 -.296655631136582D+03 0.472766150224744D+02 0.163680374105441D+03
 0.138582981253256D+03 0.411758485145261D+02 -.424183166746195D+00 -.132323891496548D+03
 0.228891632182446D+03 0.166216101195479D+03 -.200845360449221D+02 -.156077539698634D+03
 0.159658626949461D+03 0.270757307767682D+01 -.588301637891933D+02 0.124721057089740D+03
 0.186808642397871D+03 0.865561083488999D+02 0.320622679783872D+02 0.162411575800838D+03
0.622249332770D-04 0.000000000000D+00 0.000000000000D+00 0.220914712106D-06 0.000000000000D+00  7 -1 1 24 -13 13 -24 21 0 0.76714389D-01 0.58878281D-01 0.97654919D+05 0.97654919D+05 0.97654919D+05 0.11225687D+01  1  2  2  2  7  2        1 0.874212415447D-03 0.100000000000D+01
-.298528518709D-05 0.000000000000D+00 -.238960127985D-06 0.220914712106D-06 0.000000000000D+00  7 -1 1 24 -13 13 -24 21 2 0.76714389D-01 0.58878281D-01 0.97654919D+05 0.97654919D+05 0.97654919D+05 0.11225687D+01  1  2  3  2  7  2        1 -.528523432624D-04 0.100000000000D+01
0.385465005033D-05 0.000000000000D+00 0.000000000000D+00 0.220914712106D-06 0.000000000000D+00  7 -1 1 24 -13 13 -24 21 2 0.76714389D-01 0.58878281D-01 0.97654919D+05 0.97654919D+05 0.97654919D+05 0.11225687D+01  1  2 15  2  7  2        1 0.682438275907D-04 0.100000000000D+01
-.472641511949D-05 0.000000000000D+00 0.000000000000D+00 0.220914712106D-06 0.000000000000D+00  7 -1 1 24 -13 13 -24 21 2 0.76714389D-01 0.58878281D-01 0.97654919D+05 0.97654919D+05 0.97654919D+05 0.11225687D+01  1  2  4  2  7  2        1 -.836778058514D-04 0.100000000000D+01
  </mgrwgt>
  </event>
  <event>
  8     66 0.29788925E-05 0.24735568E+03 0.75467711E-02 0.10219035E+00
       -1 -1    0    0    0  501 0.00000000E+00 0.00000000E+00 0.57837679E+03 0.57837687E+03 0.32000000E+00 0.0000E+00 0.9000E+01
        1 -1    0    0  501    0 0.00000000E+00 0.00000000E+00 -.12327485E+03 0.12327527E+03 0.32000000E+00 0.0000E+00 0.9000E+01
       25  2    1    2    0    0 0.10613546E+03 -.13262294E+03 0.26258212E+03 0.43326433E+03 0.29985835E+03 0.0000E+00 0.0000E+00
       23  2    1    2    0    0 -.10613546E+03 0.13262294E+03 0.19251981E+03 0.26838782E+03 0.78195659E+02 0.0000E+00 0.0000E+00
       24  1    3    3    0    0 -.15105110E+02 -.14881147E+03 0.22542864E+03 0.28223803E+03 0.80419002E+02 0.0000E+00 0.9000E+01
      -11  1    4    4    0    0 -.78132868E+02 0.53829485E+02 0.61876676E+02 0.11327436E+03 0.51099893E-03 0.0000E+00 0.9000E+01
       11  1    4    4    0    0 -.28002595E+02 0.78793452E+02 0.13064314E+03 0.15511345E+03 0.51099893E-03 0.0000E+00 0.9000E+01
      -24  1    3    3    0    0 0.12124057E+03 0.16188535E+02 0.37153480E+02 0.15102630E+03 0.80419002E+02 0.0000E+00 0.9000E+01
#aMCatNLO 1  0  0  2  1 0.43829491D+02 0.00000000D+00  -5  7  0 0.00000000D+00 0.00000000D+00 0.00000000D+00 0.00000000D+00 0.00000000D+00
  <mgrwgt>
 0.1071697342D-02    4    2    0
 0.267019643555371D+03 0.000000000000000D+00 0.000000000000000D+00 0.267019643555371D+03
 0.267019643555371D+03 0.000000000000000D+00 0.000000000000000D+00 -.267019643555371D+03
 0.178713274049131D+03 -.151051099434709D+02 -.148811472004162D+03 0.556614751919075D+02
 0.960959365896159D+02 -.781328679952540D+02 0.538294850906388D+02 -.152338604020251D+02
 0.924646226191757D+02 -.280025949794700D+02 0.787934517362359D+02 0.394607789331610D+02
 0.166765453852820D+03 0.121240572918195D+03 0.161885351772872D+02 -.798883937230433D+02
 0.000000000000000D+00 0.000000000000000D+00 0.000000000000000D+00 0.000000000000000D+00
 0.426980179206151D+03 0.000000000000000D+00 0.000000000000000D+00 0.426980179206151D+03
 0.270936710895399D+03 0.000000000000000D+00 0.000000000000000D+00 -.270936710895399D+03
 0.190726226207789D+03 -.220746159389143D+02 -.162246075205855D+03 0.556614751919075D+02
 0.954503731899779D+02 -.817464045918701D+02 0.468639368348407D+02 -.152338604020251D+02
 0.880935740499706D+02 -.314088399352393D+02 0.722274843034726D+02 0.394607789331610D+02
 0.161564674706957D+03 0.115046598538382D+03 0.424886713070833D+01 -.798883937230433D+02
 0.162082041946857D+03 0.201832619276412D+02 0.389057869368338D+02 0.156043468310752D+03
0.240632414370D-04 0.000000000000D+00 0.000000000000D+00 0.531830801696D-08 0.000000000000D+00  7 -1 1 24 -11 11 -24 21 0 0.88981083D-01 0.18965401D-01 0.61184830D+05 0.61184830D+05 0.61184830D+05 0.11396626D+01  1  2  2  2  7  2        1 0.110096448490D-02 0.100000000000D+01
-.132733569430D-05 0.000000000000D+00 -.924091831151D-07 0.531830801696D-08 0.000000000000D+00  7 -1 1 24 -11 11 -24 21 2 0.88981083D-01 0.18965401D-01 0.61184830D+05 0.61184830D+05 0.61184830D+05 0.11396626D+01  1  2  3  2  7  2        1 -.788773893435D-04 0.100000000000D+01
0.156346336780D-05 0.000000000000D+00 0.000000000000D+00 0.531830801696D-08 0.000000000000D+00  7 -1 1 24 -11 11 -24 21 2 0.88981083D-01 0.18965401D-01 0.61184830D+05 0.61184830D+05 0.61184830D+05 0.11396626D+01  1  2 15  2  7  2        1 0.929093591894D-04 0.100000000000D+01
-.728630320698D-06 0.000000000000D+00 0.000000000000D+00 0.531830801696D-08 0.000000000000D+00  7 -1 1 24 -11 11 -24 21 2 0.88981083D-01 0.18965401D-01 0.61184830D+05 0.61184830D+05 0.61184830D+05 0.11396626D+01  1  2  4  2  7  2        1 -.432991124551D-04 0.100000000000D+01
  </mgrwgt>
  </event>
  <event>
  8     66 0.29788925E-05 0.55873763E+03 0.75467711E-02 0.82617392E-01
       -1 -1    0    0    0  501 0.00000000E+00 0.00000000E+00 0.38776589E+03 0.38776602E+03 0.32000000E+00 0.0000E+00 0.9000E+01
        1 -1    0    0  501    0 0.00000000E+00 0.00000000E+00 -.11223079E+04 0.11223079E+04 0.32000000E+00 0.0000E+00 0.9000E+01
       25  2    1    2    0    0 0.14755573E+03 0.52028651E+03 -.73618822E+03 0.96187373E+03 0.30125939E+03 0.0000E+00 0.0000E+00
       23  2    1    2    0    0 -.14755573E+03 -.52028651E+03 0.16462567E+01 0.54820020E+03 0.89721800E+02 0.0000E+00 0.0000E+00
       24  1    3    3    0    0 -.33863123E-01 0.17730381E+03 -.43113152E+03 0.47305206E+03 0.80419002E+02 0.0000E+00 0.9000E+01
      -11  1    4    4    0    0 -.20009170E+02 -.63812394E+02 0.30207653E+02 0.73381815E+02 0.51099893E-03 0.0000E+00 0.9000E+01
       11  1    4    4    0    0 -.12754656E+03 -.45647412E+03 -.28561396E+02 0.47481839E+03 0.51099893E-03 0.0000E+00 0.9000E+01
      -24  1    3    3    0    0 0.14758959E+03 0.34298270E+03 -.30505670E+03 0.48882167E+03 0.80419002E+02 0.0000E+00 0.9000E+01
#aMCatNLO 1  0  0  2  2 0.15034472D+04 0.00000000D+00  -5  7  0 0.00000000D+00 0.00000000D+00 0.00000000D+00 0.00000000D+00 0.00000000D+00
  <mgrwgt>
 0.9955043109D-03    5    2    0
 0.659691475251160D+03 0.000000000000000D+00 0.000000000000000D+00 0.659691475251160D+03
 0.659691475251160D+03 0.000000000000000D+00 0.000000000000000D+00 -.659691475251160D+03
 0.301397999219479D+03 -.338631228648154D-01 0.177303814763044D+03 -.230080190592097D+03
 0.100805270223820D+03 -.200091704321040D+02 -.638123939422041D+02 0.754275412755934D+02
 0.527543061828689D+03 -.127546556251194D+03 -.456474120050369D+03 0.231656935566994D+03
 0.389636619230332D+03 0.147589589806163D+03 0.342982699229529D+03 -.770042862504905D+02
 0.000000000000000D+00 -.000000000000000D+00 0.000000000000000D+00 -.000000000000000D+00
 0.163905411614091D+04 0.000000000000000D+00 0.000000000000000D+00 0.163905411614091D+04
 0.188459265817107D+04 0.000000000000000D+00 0.000000000000000D+00 -.188459265817107D+04
 0.423276042635193D+03 0.323586906454908D+03 0.122678491116358D+03 -.230080190592097D+03
 0.142448225633029D+03 0.886215779940474D+02 -.821486391668301D+02 0.754275412755934D+02
 0.743055540454690D+03 0.439870066597636D+03 -.552250780819287D+03 0.231656935566994D+03
 0.691501389628133D+03 0.630397989498673D+03 0.261487419655998D+03 -.770042862504905D+02
 0.152336557596093D+04 -.148247654054526D+04 0.250233509213761D+03 -.245538542030155D+03
0.229983381193D-03 0.000000000000D+00 0.000000000000D+00 0.900945773153D-06 0.000000000000D+00  7 -1 1 24 -11 11 -24 21 0 0.59656305D-01 0.17266276D+00 0.31218774D+06 0.31218774D+06 0.31218774D+06 0.10832747D+01  1  2  2  2  7  2        1 0.982138282250D-03 0.100000000000D+01
-.123483018222D-04 0.000000000000D+00 -.883196739794D-06 0.900945773153D-06 0.000000000000D+00  7 -1 1 24 -11 11 -24 21 2 0.59656305D-01 0.17266276D+00 0.31218774D+06 0.31218774D+06 0.31218774D+06 0.10832747D+01  1  2  3  2  7  2        1 -.618814644153D-04 0.100000000000D+01
0.146615073097D-04 0.000000000000D+00 0.000000000000D+00 0.900945773153D-06 0.000000000000D+00  7 -1 1 24 -11 11 -24 21 2 0.59656305D-01 0.17266276D+00 0.31218774D+06 0.31218774D+06 0.31218774D+06 0.10832747D+01  1  2 15  2  7  2        1 0.734737096585D-04 0.100000000000D+01
0.834876338548D-04 0.000000000000D+00 -.722365894932D-04 0.900945773153D-06 0.000000000000D+00  7 -1 1 24 -11 11 -24 21 2 0.59656305D-01 0.65623659D+00 0.31218774D+06 0.31218774D+06 0.31218774D+06 0.10832747D+01  1  2  5  2  7  2        1 0.175362748449D-05 0.100000000000D+01
0.146446082080D-04 0.000000000000D+00 -.114297773333D-04 0.900945773153D-06 0.000000000000D+00  7 -1 21 24 -11 11 -24 -1 2 0.59656305D-01 0.65623659D+00 0.31218774D+06 0.31218774D+06 0.31218774D+06 0.10832747D+01  1  2  5  4  7  2        1 0.201559087398D-07 0.100000000000D+01
  </mgrwgt>
  </event>
  <event>
  9     66 0.29788925E-05 0.35656094E+03 0.75467711E-02 0.93531467E-01
       -1 -1    0    0    0  501 0.00000000E+00 0.00000000E+00 0.15416739E+04 0.15416739E+04 0.32000000E+00 0.0000E+00 0.9000E+01
        1 -1    0    0  502    0 0.00000000E+00 0.00000000E+00 -.22808436E+04 0.22808436E+04 0.32000000E+00 0.0000E+00 0.9000E+01
       25  2    1    2    0    0 -.27771753E+03 -.78519763E+02 0.14404951E+04 0.14994399E+04 0.30000217E+03 0.0000E+00 0.0000E+00
       23  2    1    2    0    0 0.29073002E+03 -.23390947E+03 -.17521291E+04 0.17933903E+04 0.83992200E+02 0.0000E+00 0.0000E+00
       24  1    3    3    0    0 -.16638703E+03 -.16976737E+03 0.83471365E+03 0.87161901E+03 0.80419002E+02 0.0000E+00 0.9000E+01
      -11  1    4    4    0    0 0.26424411E+03 -.20231409E+03 -.16504803E+04 0.16836987E+04 0.51099893E-03 0.0000E+00 0.9000E+01
       11  1    4    4    0    0 0.26485909E+02 -.31595379E+02 -.10164878E+03 0.10969159E+03 0.51099893E-03 0.0000E+00 0.9000E+01
      -24  1    3    3    0    0 -.11133050E+03 0.91247607E+02 0.60578149E+03 0.62782086E+03 0.80419002E+02 0.0000E+00 0.9000E+01
       21  1    1    2  502  501 -.13012487E+02 0.31242923E+03 -.42753578E+03 0.52968741E+03 0.75000000E+00 0.0000E+00 0.9000E+01
#aMCatNLO 2  0  0  2  1 0.31270010D+03 0.00000000D+00  -5  7  0 0.00000000D+00 0.00000000D+00 0.00000000D+00 0.00000000D+00 0.00000000D+00
  <mgrwgt>
 0.9156212818D-03    2    2    0
 0.163155088289670D+04 0.000000000000000D+00 0.000000000000000D+00 0.163155088289670D+04
 0.163155088289670D+04 0.000000000000000D+00 0.000000000000000D+00 -.163155088289670D+04
 0.943685939495421D+03 -.170163944702949D+03 -.790838778830709D+02 0.921339193038640D+03
 0.152098862265171D+04 0.258165976463399D+03 -.563783781727848D+02 -.149785786952810D+04
 0.978524801310503D+02 0.260912754923265D+02 -.221202566443465D+02 -.916790458991006D+02
 0.700574723515211D+03 -.114093307252777D+03 0.157582512700202D+03 0.668197722388559D+03
 0.000000000000000D+00 -.000000000000000D+00 0.000000000000000D+00 -.000000000000000D+00
 0.169518664535566D+04 0.000000000000000D+00 0.000000000000000D+00 0.169518664535566D+04
 0.207429426799200D+04 0.000000000000000D+00 0.000000000000000D+00 -.207429426799200D+04
 0.954902471034012D+03 -.166387032702802D+03 -.169767370103200D+03 0.921339193038640D+03
 0.153438396070054D+04 0.264244109728610D+03 -.202314092493698D+03 -.149785786952810D+04
 0.100522727538867D+03 0.264859085250707D+02 -.315953785304983D+02 -.916790458991006D+02
 0.688241249864708D+03 -.111330499007048D+03 0.912476073469827D+02 0.668197722388559D+03
 0.491430504209542D+03 -.130124865438306D+02 0.312429233780414D+03 -.379107622636337D+03
-.110804656707D-02 0.000000000000D+00 0.000000000000D+00 0.362754269651D-05 0.000000000000D+00  7 -1 1 24 -11 11 -24 21 2 0.22827702D+00 0.35523717D+00 0.30390947D+06 0.30390947D+06 0.30390947D+06 0.10841361D+01  1  2 13  2  7  2        1 -.253428155236D-04 0.100000000000D+01
0.465696721400D-01 0.000000000000D+00 0.000000000000D+00 0.362754269651D-05 0.238479625215D-09  7 -1 1 24 -11 11 -24 21 2 0.23718056D+00 0.35089896D+00 0.30390947D+06 0.30390947D+06 0.30390947D+06 0.10841361D+01  1  2  1  2  7  2        1 0.940964097341D-03 0.100000000000D+01
  </mgrwgt>
  </event>
  <event>
  8     66 0.29788925E-05 0.29371911E+03 0.75467711E-02 0.92198143E-01
       -1 -1    0    0    0  501 0.00000000E+00 0.00000000E+00 0.96070207E+02 0.96070740E+02 0.32000000E+00 0.0000E+00 0.9000E+01
        1 -1    0    0  501    0 0.00000000E+00 0.00000000E+00 -.13956815E+04 0.13956815E+04 0.32000000E+00 0.0000E+00 0.9000E+01
       25  2    1    2    0    0 -.45926349E+02 -.22619261E+03 -.11372754E+04 0.11958380E+04 0.28872309E+03 0.0000E+00 0.0000E+00
       23  2    1    2    0    0 0.45926349E+02 0.22619261E+03 -.16233592E+03 0.29591424E+03 0.89106446E+02 0.0000E+00 0.0000E+00
       24  1    3    3    0    0 -.67408390E+02 -.23593102E+03 -.10168405E+04 0.10491135E+04 0.80419002E+02 0.0000E+00 0.9000E+01
      -11  1    4    4    0    0 -.43231476E+01 -.62533390E+01 0.61597212E+00 0.76271407E+01 0.51099893E-03 0.0000E+00 0.9000E+01
       11  1    4    4    0    0 0.50249497E+02 0.23244594E+03 -.16295189E+03 0.28828709E+03 0.51099893E-03 0.0000E+00 0.9000E+01
      -24  1    3    3    0    0 0.21482041E+02 0.97384188E+01 -.12043490E+03 0.14672456E+03 0.80419002E+02 0.0000E+00 0.9000E+01
#aMCatNLO 1  0  0  1  1 0.51279950D+03 0.00000000D+00  -5  7  0 0.00000000D+00 0.00000000D+00 0.00000000D+00 0.00000000D+00 0.00000000D+00
  <mgrwgt>
 0.2738200689D-02    5    2    0
 0.366174594579689D+03 0.000000000000000D+00 0.000000000000000D+00 0.366174594579689D+03
 0.366174594579689D+03 0.000000000000000D+00 0.000000000000000D+00 -.366174594579689D+03
 0.332519058954021D+03 -.674083898524567D+02 -.235931024573716D+03 -.209509830877678D+03
 0.166291283560482D+02 -.432314756305303D+01 -.625333896103717D+01 0.147896604717070D+02
 0.298052908525479D+03 0.502494965110616D+02 0.232445944729004D+03 0.179664707608153D+03
 0.851480933238295D+02 0.214820409044481D+02 0.973841880574918D+01 0.150554627978182D+02
 0.000000000000000D+00 0.000000000000000D+00 0.000000000000000D+00 0.000000000000000D+00
 0.107487731009775D+04 0.000000000000000D+00 0.000000000000000D+00 0.107487731009775D+04
 0.551723756278971D+03 0.000000000000000D+00 0.000000000000000D+00 -.551723756278971D+03
 0.576976083925424D+03 -.119798116789075D+03 -.517868928829434D+03 -.209509830877678D+03
 0.251584588577626D+02 -.673024154328098D+01 -.192072341579536D+02 0.147896604717070D+02
 0.197405923376064D+03 0.217095388049891D+02 0.788567520819106D+02 0.179664707608153D+03
 0.944945812927176D+02 0.111340684683027D+02 -.459497061862439D+02 0.150554627978182D+02
 0.732566018924754D+03 0.936847510590643D+02 0.504169117091721D+03 0.523153553818780D+03
0.834096448790D-04 0.000000000000D+00 0.000000000000D+00 0.198203596984D-08 0.000000000000D+00  7 -1 1 24 -11 11 -24 21 0 0.14780076D-01 0.21472027D+00 0.86270917D+05 0.86270917D+05 0.86270917D+05 0.11270234D+01  1  2  2  1  7  1       -1 0.254078448560D-02 0.100000000000D+01
-.435997129517D-05 0.000000000000D+00 -.320314998599D-06 0.198203596984D-08 0.000000000000D+00  7 -1 1 24 -11 11 -24 21 2 0.14780076D-01 0.21472027D+00 0.86270917D+05 0.86270917D+05 0.86270917D+05 0.11270234D+01  1  2  3  1  7  1       -1 -.168694554789D-03 0.100000000000D+01
0.530979809385D-05 0.000000000000D+00 0.000000000000D+00 0.198203596984D-08 0.000000000000D+00  7 -1 1 24 -11 11 -24 21 2 0.14780076D-01 0.21472027D+00 0.86270917D+05 0.86270917D+05 0.86270917D+05 0.11270234D+01  1  2 15  1  7  1       -1 0.205444936405D-03 0.100000000000D+01
0.211454975746D-04 0.000000000000D+00 -.327883226527D-04 0.198203596984D-08 0.000000000000D+00  7 -1 1 24 -11 11 -24 21 2 0.65561887D-01 0.21472027D+00 0.86270917D+05 0.86270917D+05 0.86270917D+05 0.11270234D+01  1  2  5  1  7  1       -1 0.658371386145D-04 0.100000000000D+01
0.360143850355D-05 0.000000000000D+00 -.589800891268D-05 0.198203596984D-08 0.000000000000D+00  7 21 1 24 -11 11 -24 1 2 0.65561887D-01 0.21472027D+00 0.86270917D+05 0.86270917D+05 0.86270917D+05 0.11270234D+01  1  2  5  3  7  1       -1 0.948286834252D-04 0.100000000000D+01
  </mgrwgt>
  </event>
  <event>
  8     66 0.29788925E-05 0.28784620E+03 0.75467711E-02 0.92709665E-01
       -1 -1    0    0    0  501 0.00000000E+00 0.00000000E+00 0.12538149E+04 0.12538150E+04 0.32000000E+00 0.0000E+00 0.9000E+01
        1 -1    0    0  501    0 0.00000000E+00 0.00000000E+00 -.29014791E+03 0.29014809E+03 0.32000000E+00 0.0000E+00 0.9000E+01
       25  2    1    2    0    0 0.87808792E+02 -.22042441E+03 -.14313041E+03 0.40820046E+03 0.29973988E+03 0.0000E+00 0.0000E+00
       23  2    1    2    0    0 -.87808792E+02 0.22042441E+03 0.11067974E+04 0.11357626E+04 0.93052834E+02 0.0000E+00 0.0000E+00
       24  1    3    3    0    0 0.21465874E+02 -.21886433E+03 -.38134412E+01 0.23418825E+03 0.80419002E+02 0.0000E+00 0.9000E+01
      -13  1    4    4    0    0 -.76352658E+02 0.19125717E+03 0.75530013E+03 0.78287120E+03 0.10565837E+00 0.0000E+00 0.9000E+01
       13  1    4    4    0    0 -.11456134E+02 0.29167243E+02 0.35149732E+03 0.35289141E+03 0.10565837E+00 0.0000E+00 0.9000E+01
      -24  1    3    3    0    0 0.66342917E+02 -.15600834E+01 -.13931697E+03 0.17401221E+03 0.80419002E+02 0.0000E+00 0.9000E+01
#aMCatNLO 1  0  0  2  2 0.46576996D+03 0.00000000D+00  -5  7  0 0.00000000D+00 0.00000000D+00 0.00000000D+00 0.00000000D+00 0.00000000D+00
  <mgrwgt>
 0.5580428409D-03    5    2    0
 0.603151685363308D+03 0.000000000000000D+00 0.000000000000000D+00 0.603151685363308D+03
 0.603151685363308D+03 0.000000000000000D+00 0.000000000000000D+00 -.603151685363308D+03
 0.302786929471636D+03 0.214658744695091D+02 -.218864325611434D+03 -.191964402721969D+03
 0.398628376358583D+03 -.763527412312731D+02 0.191257375259362D+03 0.341314309330344D+03
 0.170872914999241D+03 -.114560506484361D+02 0.291670337436186D+02 0.167974986609546D+03
 0.334015149897157D+03 0.663429174102001D+02 -.156008339154661D+01 -.317324893217921D+03
 0.000000000000000D+00 0.000000000000000D+00 0.000000000000000D+00 -.000000000000000D+00
 0.692566866323063D+03 0.000000000000000D+00 0.000000000000000D+00 0.692566866323063D+03
 0.182515819882723D+04 0.000000000000000D+00 0.000000000000000D+00 -.182515819882723D+04
 0.356834527185782D+03 -.871369684543781D+02 -.276442544941456D+03 -.191964402721969D+03
 0.418766670809980D+03 -.210932089762859D+03 0.119907132131070D+03 0.341314309330344D+03
 0.181800663173396D+03 -.695217075901878D+02 -.161776931422681D+01 0.167974986609546D+03
 0.335698860902771D+03 -.439216059535476D+02 -.600192796669855D+02 -.317324893217921D+03
 0.122462434307836D+04 0.411512371760972D+03 0.218172461791599D+03 -.113259133250416D+04
0.344589113501D-03 0.000000000000D+00 0.000000000000D+00 0.382796867699D-05 0.000000000000D+00  7 -1 1 24 -13 13 -24 21 0 0.19289462D+00 0.44638157D-01 0.82855432D+05 0.82855432D+05 0.82855432D+05 0.11284870D+01  1  2  2  2  7  2        1 0.667916249293D-03 0.100000000000D+01
-.640670914311D-05 0.000000000000D+00 -.132331292824D-05 0.382796867699D-05 0.000000000000D+00  7 -1 1 24 -13 13 -24 21 2 0.19289462D+00 0.44638157D-01 0.82855432D+05 0.82855432D+05 0.82855432D+05 0.11284870D+01  1  2  3  2  7  2        1 -.158142499625D-04 0.100000000000D+01
0.210960854009D-04 0.000000000000D+00 0.000000000000D+00 0.382796867699D-05 0.000000000000D+00  7 -1 1 24 -13 13 -24 21 2 0.19289462D+00 0.44638157D-01 0.82855432D+05 0.82855432D+05 0.82855432D+05 0.11284870D+01  1  2 15  2  7  2        1 0.520733437882D-04 0.100000000000D+01
-.268731558460D-03 0.000000000000D+00 -.116412376799D-03 0.382796867699D-05 0.000000000000D+00  7 -1 1 24 -13 13 -24 21 2 0.19289462D+00 0.14490943D+00 0.82855432D+05 0.82855432D+05 0.82855432D+05 0.11284870D+01  1  2  5  2  7  2        1 -.124110286079D-03 0.100000000000D+01
-.316979631264D-04 0.000000000000D+00 -.158278416510D-04 0.382796867699D-05 0.000000000000D+00  7 -1 21 24 -13 13 -24 -1 2 0.19289462D+00 0.14490943D+00 0.82855432D+05 0.82855432D+05 0.82855432D+05 0.11284870D+01  1  2  5  4  7  2        1 -.220222161207D-04 0.100000000000D+01
  </mgrwgt>
  </event>
  <event>
  8     66 0.29788925E-05 0.24559962E+03 0.75467711E-02 0.96037358E-01
       -3 -1    0    0    0  501 0.00000000E+00 0.00000000E+00 0.63690172E+03 0.63690192E+03 0.50000000E+00 0.0000E+00 0.9000E+01
        3 -1    0    0  501    0 0.00000000E+00 0.00000000E+00 -.39275176E+03 0.39275208E+03 0.50000000E+00 0.0000E+00 0.9000E+01
       25  2    1    2    0    0 0.20408965E+03 0.28427689E+03 0.42375107E+03 0.62622967E+03 0.30022108E+03 0.0000E+00 0.0000E+00
       23  2    1    2    0    0 -.20408965E+03 -.28427689E+03 -.17960111E+03 0.40342433E+03 0.89602975E+02 0.0000E+00 0.0000E+00
       24  1    3    3    0    0 0.25226718E+03 0.23391213E+03 0.30464621E+03 0.46650846E+03 0.80419002E+02 0.0000E+00 0.9000E+01
      -11  1    4    4    0    0 -.45558558E+02 -.10891385E+03 -.97694332E+02 0.15323835E+03 0.51099893E-03 0.0000E+00 0.9000E+01
       11  1    4    4    0    0 -.15853110E+03 -.17536304E+03 -.81906776E+02 0.25018598E+03 0.51099893E-03 0.0000E+00 0.9000E+01
      -24  1    3    3    0    0 -.48177522E+02 0.50364756E+02 0.11910486E+03 0.15972121E+03 0.80419002E+02 0.0000E+00 0.9000E+01
#aMCatNLO 1  0  0  2  1 0.66978073D+02 0.00000000D+00  -5  7  0 0.00000000D+00 0.00000000D+00 0.00000000D+00 0.00000000D+00 0.00000000D+00
  <mgrwgt>
 0.8427786066D-04    6    2    0
 0.500144517077699D+03 0.000000000000000D+00 0.000000000000000D+00 0.500144517077699D+03
 0.500144517077699D+03 0.000000000000000D+00 0.000000000000000D+00 -.500144517077699D+03
 0.405845635612959D+03 0.252267176634051D+03 0.233912129924656D+03 0.199724437810978D+03
 0.181582059423932D+03 -.455585578453066D+02 -.108913845807356D+03 -.137964619751383D+03
 0.277522317378121D+03 -.158531096957846D+03 -.175363039925823D+03 -.145376518627455D+03
 0.135339021740386D+03 -.481775218308990D+02 0.503647558085231D+02 0.836167005678606D+02
 0.000000000000000D+00 -.000000000000000D+00 0.000000000000000D+00 0.000000000000000D+00
 0.537905898371631D+03 0.000000000000000D+00 0.000000000000000D+00 0.537905898371631D+03
 0.531872298059912D+03 0.000000000000000D+00 0.000000000000000D+00 -.531872298059912D+03
 0.406249466160096D+03 0.270291661476780D+03 0.213597704758744D+03 0.199724437810978D+03
 0.185419075109677D+03 -.374129522724833D+02 -.118094318718731D+03 -.137964619751383D+03
 0.279881843345506D+03 -.146159488233324D+03 -.189306413165566D+03 -.145376518627455D+03
 0.130978524757760D+03 -.422665927171437D+02 0.437028662627124D+02 0.836167005678606D+02
 0.672492870585047D+02 -.444526282538285D+02 0.501001608628407D+02 0.603360031171985D+01
0.609723765588D-04 0.000000000000D+00 0.000000000000D+00 0.206450132067D-05 0.000000000000D+00  7 -3 3 24 -11 11 -24 21 0 0.97984920D-01 0.60423387D-01 0.16572045D+06 0.16572045D+06 0.16572045D+06 0.11041522D+01  1  2  2  2  7  2        3 0.594457258460D-04 0.100000000000D+01
-.321280377096D-05 0.000000000000D+00 -.234149980381D-06 0.206450132067D-05 0.000000000000D+00  7 -3 3 24 -11 11 -24 21 2 0.97984920D-01 0.60423387D-01 0.16572045D+06 0.16572045D+06 0.16572045D+06 0.11041522D+01  1  2  3  2  7  2        3 -.381882376979D-05 0.100000000000D+01
0.386951043701D-05 0.000000000000D+00 0.000000000000D+00 0.206450132067D-05 0.000000000000D+00  7 -3 3 24 -11 11 -24 21 2 0.97984920D-01 0.60423387D-01 0.16572045D+06 0.16572045D+06 0.16572045D+06 0.11041522D+01  1  2 15  2  7  2        3 0.459940272975D-05 0.100000000000D+01
0.794705626602D-04 0.000000000000D+00 0.000000000000D+00 0.206450132067D-05 0.000000000000D+00  7 -3 3 24 -11 11 -24 21 2 0.97984920D-01 0.66386089D-01 0.19562918D+06 0.19562918D+06 0.19562918D+06 0.10985632D+01  1  2 12  2  7  2        3 0.763530677436D-04 0.100000000000D+01
-.581484170395D-04 0.000000000000D+00 0.000000000000D+00 0.206450132067D-05 0.000000000000D+00  7 -3 3 24 -11 11 -24 21 2 0.97984920D-01 0.60423387D-01 0.16572045D+06 0.16572045D+06 0.16572045D+06 0.11041522D+01  1  2  4  2  7  2        3 -.691167506627D-04 0.100000000000D+01
0.122458760988D-05 0.000000000000D+00 0.000000000000D+00 0.206450132067D-05 0.000000000000D+00  7 -3 21 24 -11 11 -24 -3 2 0.97984920D-01 0.66386089D-01 0.19562918D+06 0.19562918D+06 0.19562918D+06 0.10985632D+01  1  2 12  4  7  2        3 0.168152387724D-04 0.100000000000D+01
  </mgrwgt>
  </event>
  <event>
  8     66 0.29788925E-05 0.21338075E+03 0.75467711E-02 0.91852458E-01
       -1 -1    0    0    0  501 0.00000000E+00 0.00000000E+00 0.32545731E+03 0.32545747E+03 0.32000000E+00 0.0000E+00 0.9000E+01
        1 -1    0    0  501    0 0.00000000E+00 0.00000000E+00 -.61699543E+03 0.61699552E+03 0.32000000E+00 0.0000E+00 0.9000E+01
       25  2    1    2    0    0 0.12280829E+03 0.54805373E+02 0.22609558E+03 0.39939649E+03 0.30052095E+03 0.0000E+00 0.0000E+00
       23  2    1    2    0    0 -.12280829E+03 -.54805373E+02 -.51763370E+03 0.54305650E+03 0.94234835E+02 0.0000E+00 0.0000E+00
       24  1    3    3    0    0 -.27736151E+02 0.50716018E+02 0.20461564E+03 0.22732396E+03 0.80419002E+02 0.0000E+00 0.9000E+01
      -11  1    4    4    0    0 0.98457857E+01 -.15993471E+02 -.13348174E+03 0.13479653E+03 0.51099893E-03 0.0000E+00 0.9000E+01
       11  1    4    4    0    0 -.13265407E+03 -.38811902E+02 -.38415196E+03 0.40825996E+03 0.51099893E-03 0.0000E+00 0.9000E+01
      -24  1    3    3    0    0 0.15054444E+03 0.40893552E+01 0.21479944E+02 0.17207253E+03 0.80419002E+02 0.0000E+00 0.9000E+01
#aMCatNLO 1  0  0  2  1 0.56680285D+03 0.00000000D+00  -5  7  0 0.00000000D+00 0.00000000D+00 0.00000000D+00 0.00000000D+00 0.00000000D+00
  <mgrwgt>
 0.1002462594D-02    5    2    0
 0.448113588434710D+03 0.000000000000000D+00 0.000000000000000D+00 0.448113588434710D+03
 0.448113588434710D+03 0.000000000000000D+00 0.000000000000000D+00 -.448113588434710D+03
 0.305609348679908D+03 -.277361509943127D+02 0.507160178503731D+02 0.289116671099417D+03
 0.983281703246108D+02 0.984578568627043D+01 -.159934708812453D+02 -.965178660807234D+02
 0.304354617938551D+03 -.132654074050869D+03 -.388119021831989D+02 -.271160960219479D+03
 0.187935039926349D+03 0.150544439358911D+03 0.408935521407109D+01 0.785621552007854D+02
 0.000000000000000D+00 0.000000000000000D+00 0.000000000000000D+00 -.000000000000000D+00
 0.574040939443843D+03 0.000000000000000D+00 0.000000000000000D+00 0.574040939443843D+03
 0.236260287035298D+04 0.000000000000000D+00 0.000000000000000D+00 -.236260287035298D+04
 0.330366312187366D+03 -.362288307994522D+02 -.133318065487036D+03 0.289116671099417D+03
 0.126159216609825D+03 0.684803024555631D+01 -.809540236466618D+02 -.965178660807234D+02
 0.388500628840215D+03 -.141906311399353D+03 -.239305392850062D+03 -.271160960219479D+03
 0.215392919525176D+03 0.145158486048354D+03 -.112622801978844D+03 0.785621552007854D+02
 0.187622473263424D+04 0.261286259048952D+02 0.566200283962603D+03 -.178856193090914D+04
0.578562805219D-04 0.000000000000D+00 0.000000000000D+00 0.632828326493D-06 0.000000000000D+00  7 -1 1 24 -11 11 -24 21 0 0.50070374D-01 0.94922393D-01 0.45531345D+05 0.45531345D+05 0.45531345D+05 0.11508890D+01  1  2  2  2  7  2        1 0.956964026781D-03 0.100000000000D+01
-.106279119446D-05 0.000000000000D+00 -.222183351113D-06 0.632828326493D-06 0.000000000000D+00  7 -1 1 24 -11 11 -24 21 2 0.50070374D-01 0.94922393D-01 0.45531345D+05 0.45531345D+05 0.45531345D+05 0.11508890D+01  1  2  3  2  7  2        1 -.232841271252D-04 0.100000000000D+01
0.353936107229D-05 0.000000000000D+00 0.000000000000D+00 0.632828326493D-06 0.000000000000D+00  7 -1 1 24 -11 11 -24 21 2 0.50070374D-01 0.94922393D-01 0.45531345D+05 0.45531345D+05 0.45531345D+05 0.11508890D+01  1  2 15  2  7  2        1 0.775419796273D-04 0.100000000000D+01
-.362727922622D-04 0.000000000000D+00 -.250644615257D-04 0.632828326493D-06 0.000000000000D+00  7 -1 1 24 -11 11 -24 21 2 0.50070374D-01 0.52297576D+00 0.45531345D+05 0.45531345D+05 0.45531345D+05 0.11508890D+01  1  2  5  2  7  2        1 -.842666311328D-05 0.100000000000D+01
-.875816692760D-05 0.000000000000D+00 -.523491711616D-05 0.632828326493D-06 0.000000000000D+00  7 -1 21 24 -11 11 -24 -1 2 0.50070374D-01 0.52297576D+00 0.45531345D+05 0.45531345D+05 0.45531345D+05 0.11508890D+01  1  2  5  4  7  2        1 -.332622350554D-06 0.100000000000D+01
  </mgrwgt>
  </event>
  <event>
  9     66 0.29788925E-05 0.18396990E+03 0.75467711E-02 0.10466897E+00
       21 -1    0    0  502  501 0.00000000E+00 0.00000000E+00 0.66193395E+02 0.66197643E+02 0.75000000E+00 0.0000E+00 0.9000E+01
        1 -1    0    0  501    0 0.00000000E+00 0.00000000E+00 -.11937012E+04 0.11937012E+04 0.32000000E+00 0.0000E+00 0.9000E+01
       25  2    1    2    0    0 0.19828666E+02 0.62001318E+02 -.58258506E+03 0.65882548E+03 0.30067976E+03 0.0000E+00 0.0000E+00
       23  2    1    2    0    0 -.16889457E+02 -.14421494E+03 -.36142276E+03 0.39997625E+03 0.90947156E+02 0.0000E+00 0.0000E+00
       24  1    3    3    0    0 -.37402701E+02 0.28685706E+02 -.32126591E+02 0.98595971E+02 0.80419002E+02 0.0000E+00 0.9000E+01
      -13  1    4    4    0    0 -.51779802E+02 -.10800302E+03 -.27569433E+03 0.30058805E+03 0.10565837E+00 0.0000E+00 0.9000E+01
       13  1    4    4    0    0 0.34890345E+02 -.36211926E+02 -.85728421E+02 0.99388194E+02 0.10565837E+00 0.0000E+00 0.9000E+01
      -24  1    3    3    0    0 0.57231367E+02 0.33315612E+02 -.55045847E+03 0.56022950E+03 0.80419002E+02 0.0000E+00 0.9000E+01
        1  1    1    2  502    0 -.29392090E+01 0.82213626E+02 -.18349997E+03 0.20109715E+03 0.32000000E+00 0.0000E+00 0.9000E+01
#aMCatNLO 2  0  0  1  1 0.82266148D+02 0.00000000D+00  -5  7  0 0.00000000D+00 0.00000000D+00 0.00000000D+00 0.00000000D+00 0.00000000D+00
  <mgrwgt>
 0.1391709797D-03    1    2    0
 0.236189868978481D+03 0.000000000000000D+00 0.000000000000000D+00 0.236189868978481D+03
 0.236189868978481D+03 0.000000000000000D+00 0.000000000000000D+00 -.236189868978481D+03
 0.162018216541452D+03 -.383799554698309D+02 0.560208508466551D+02 0.123171952267767D+03
 0.104319570558942D+03 -.524755774801276D+02 -.885443922128082D+02 -.169934451302134D+02
 0.449307749342012D+02 0.345952002767537D+02 -.279532312302408D+02 0.636894950426224D+01
 0.161111175922366D+03 0.562603326732048D+02 0.604767725963939D+02 -.112547456641816D+03
 0.000000000000000D+00 -.000000000000000D+00 0.000000000000000D+00 -.000000000000000D+00
 0.276495874780579D+03 0.000000000000000D+00 0.000000000000000D+00 0.276495874780579D+03
 0.285782429393012D+03 0.000000000000000D+00 0.000000000000000D+00 -.285782429393012D+03
 0.154468047777820D+03 -.374027003301325D+02 0.286857109460718D+02 0.123171952267767D+03
 0.120973593605124D+03 -.517799109459359D+02 -.108003120301106D+03 -.169934451302134D+02
 0.506873160962463D+02 0.348904524928606D+02 -.362118325978731D+02 0.636894950426224D+01
 0.153360704559750D+03 0.572313677421446D+02 0.333156164360546D+02 -.112547456641816D+03
 0.827886421346507D+02 -.293920895893672D+01 0.822136255168526D+02 -.928655461243246D+01
0.998835055426D-07 0.000000000000D+00 0.000000000000D+00 0.156595551703D-06 0.546224975867D-11  7 21 1 24 -13 13 -24 1 2 0.10183918D-01 0.18364646D+00 0.50561253D+05 0.50561253D+05 0.50561253D+05 0.11468692D+01  1  2  1  3  7  1       -1 0.139170979668D-03 0.100000000000D+01
  </mgrwgt>
  </event>
  <event>
  8     66 0.29788925E-05 0.11891386E+03 0.75467711E-02 0.10401960E+00
       -1 -1    0    0    0  501 0.00000000E+00 0.00000000E+00 0.17315599E+03 0.17315629E+03 0.32000000E+00 0.0000E+00 0.9000E+01
        1 -1    0    0  501    0 0.00000000E+00 0.00000000E+00 -.28575204E+03 0.28575222E+03 0.32000000E+00 0.0000E+00 0.9000E+01
       25  2    1    2    0    0 -.32491213E+02 0.49552490E+02 -.54593119E+01 0.30533518E+03 0.29948061E+03 0.0000E+00 0.0000E+00
       23  2    1    2    0    0 0.32491213E+02 -.49552490E+02 -.10713674E+03 0.15357333E+03 0.92711155E+02 0.0000E+00 0.0000E+00
       24  1    3    3    0    0 0.10746617E+03 -.63730167E+01 0.10783705E+01 0.13437995E+03 0.80419002E+02 0.0000E+00 0.9000E+01
      -11  1    4    4    0    0 -.34829283E+00 0.25854623E+02 -.38874073E+02 0.46688076E+02 0.51099893E-03 0.0000E+00 0.9000E+01
       11  1    4    4    0    0 0.32839506E+02 -.75407113E+02 -.68262668E+02 0.10688525E+03 0.51099893E-03 0.0000E+00 0.9000E+01
      -24  1    3    3    0    0 -.13995738E+03 0.55925506E+02 -.65376824E+01 0.17095522E+03 0.80419002E+02 0.0000E+00 0.9000E+01
#aMCatNLO 1  0  0  2  1 0.54956427D+02 0.00000000D+00  -5  7  0 0.00000000D+00 0.00000000D+00 0.00000000D+00 0.00000000D+00 0.00000000D+00
  <mgrwgt>
 0.6390472827D-03    9    2    0
 0.222440524268905D+03 0.000000000000000D+00 0.000000000000000D+00 0.222440524268905D+03
 0.222440524268905D+03 0.000000000000000D+00 0.000000000000000D+00 -.222440524268905D+03
 0.138889989809349D+03 0.107466170371876D+03 -.637301665851369D+01 0.351229298200442D+02
 0.383214525046880D+02 -.348292817945172D+00 0.258546230477633D+02 -.282834029289279D+02
 0.929786641393661D+02 0.328395055920071D+02 -.754071126025850D+02 -.433631897645300D+02
 0.174690942084408D+03 -.139957383145937D+03 0.559255062133354D+02 0.365236628734138D+02
 0.000000000000000D+00 0.000000000000000D+00 -.000000000000000D+00 -.000000000000000D+00
 0.231513691662617D+03 0.000000000000000D+00 0.000000000000000D+00 0.231513691662617D+03
 0.326408733409136D+03 0.000000000000000D+00 0.000000000000000D+00 -.326408733409136D+03
 0.126713074425768D+03 0.913292484898562D+02 -.378621805948031D+01 0.351229298200442D+02
 0.391607449304697D+02 -.505578431793603D+01 0.266092485275276D+02 -.282834029289279D+02
 0.882054381223903D+02 0.218315237643818D+02 -.736424989929960D+02 -.433631897645300D+02
 0.194183339900968D+03 -.162368628625450D+03 0.595180983342400D+02 0.365236628734138D+02
 0.109659827692157D+03 0.542636406891481D+02 -.869862980929136D+01 -.948950417465188D+02
0.401394410444D-05 0.000000000000D+00 0.000000000000D+00 0.144082724706D-06 0.000000000000D+00  7 -1 1 24 -11 11 -24 21 0 0.26639420D-01 0.43961889D-01 0.42706362D+05 0.42706362D+05 0.42706362D+05 0.11533678D+01  1  2  2  2  7  2        1 0.543374872968D-03 0.100000000000D+01
-.221527859176D-06 0.000000000000D+00 -.154146022568D-07 0.144082724706D-06 0.000000000000D+00  7 -1 1 24 -11 11 -24 21 2 0.26639420D-01 0.43961889D-01 0.42706362D+05 0.42706362D+05 0.42706362D+05 0.11533678D+01  1  2  3  2  7  2        1 -.398925881949D-04 0.100000000000D+01
0.251005387860D-06 0.000000000000D+00 0.000000000000D+00 0.144082724706D-06 0.000000000000D+00  7 -1 1 24 -11 11 -24 21 2 0.26639420D-01 0.43961889D-01 0.42706362D+05 0.42706362D+05 0.42706362D+05 0.11533678D+01  1  2 15  2  7  2        1 0.452008817754D-04 0.100000000000D+01
0.900456900234D-05 0.000000000000D+00 0.000000000000D+00 0.144082724706D-06 0.000000000000D+00  7 -1 1 24 -11 11 -24 21 2 0.26639420D-01 0.65076093D-01 0.55535092D+05 0.55535092D+05 0.55535092D+05 0.11433061D+01  1  2 12  2  7  2        1 0.953308852612D-03 0.100000000000D+01
-.909576597313D-05 0.000000000000D+00 0.000000000000D+00 0.144082724706D-06 0.000000000000D+00  7 -1 1 24 -11 11 -24 21 2 0.26639420D-01 0.43961889D-01 0.42706362D+05 0.42706362D+05 0.42706362D+05 0.11533678D+01  1  2  4  2  7  2        1 -.163795943152D-02 0.100000000000D+01
-.107090644873D-04 0.000000000000D+00 -.170800242623D-05 0.144082724706D-06 0.000000000000D+00  7 -1 1 24 -11 11 -24 21 2 0.26639420D-01 0.66162834D-01 0.42706362D+05 0.42706362D+05 0.42706362D+05 0.11533678D+01  1  2  5  2  7  2        1 -.112909510102D-02 0.100000000000D+01
0.106392649888D-04 0.000000000000D+00 0.157459179517D-05 0.144082724706D-06 0.000000000000D+00  7 -1 1 24 -11 11 -24 21 2 0.26639420D-01 0.43961889D-01 0.42706362D+05 0.42706362D+05 0.42706362D+05 0.11533678D+01  1  2  6  2  7  2        1 0.191591169829D-02 0.100000000000D+01
0.422503611542D-06 0.000000000000D+00 0.000000000000D+00 0.144082724706D-06 0.000000000000D+00  7 -1 21 24 -11 11 -24 -1 2 0.26639420D-01 0.65076093D-01 0.55535092D+05 0.55535092D+05 0.55535092D+05 0.11433061D+01  1  2 12  4  7  2        1 0.161571240872D-03 0.100000000000D+01
-.457940656827D-06 0.000000000000D+00 -.826119260610D-07 0.144082724706D-06 0.000000000000D+00  7 -1 21 24 -11 11 -24 -1 2 0.26639420D-01 0.66162834D-01 0.42706362D+05 0.42706362D+05 0.42706362D+05 0.11533678D+01  1  2  5  4  7  2        1 -.173373143089D-03 0.100000000000D+01
  </mgrwgt>
  </event>
  <event>
  8     66 0.29788925E-05 0.18759176E+03 0.75467711E-02 0.10562713E+00
       -1 -1    0    0    0  501 0.00000000E+00 0.00000000E+00 0.94665962E+03 0.94665968E+03 0.32000000E+00 0.0000E+00 0.9000E+01
        1 -1    0    0  501    0 0.00000000E+00 0.00000000E+00 -.75104562E+02 0.75105244E+02 0.32000000E+00 0.0000E+00 0.9000E+01
       25  2    1    2    0    0 -.47997722E+02 -.20718589E+02 0.86323794E+03 0.91554095E+03 0.30050367E+03 0.0000E+00 0.0000E+00
       23  2    1    2    0    0 0.47997722E+02 0.20718589E+02 0.83171230E+01 0.10622397E+03 0.92094062E+02 0.0000E+00 0.0000E+00
       24  1    3    3    0    0 0.85404924E+02 -.67984004E+02 0.48868055E+03 0.50714074E+03 0.80419002E+02 0.0000E+00 0.9000E+01
      -11  1    4    4    0    0 0.48490614E+02 0.36710502E+02 -.27687036E+02 0.66824939E+02 0.51099893E-03 0.0000E+00 0.9000E+01
       11  1    4    4    0    0 -.49289131E+00 -.15991913E+02 0.36004159E+02 0.39399032E+02 0.51099893E-03 0.0000E+00 0.9000E+01
      -24  1    3    3    0    0 -.13340265E+03 0.47265415E+02 0.37455739E+03 0.40840022E+03 0.80419002E+02 0.0000E+00 0.9000E+01
#aMCatNLO 1  0  0  1  2 0.54491750D+02 0.00000000D+00  -5  7  0 0.00000000D+00 0.00000000D+00 0.00000000D+00 0.00000000D+00 0.00000000D+00
  <mgrwgt>
 0.6548218541D-03    4    2    0
 0.266643643238945D+03 0.000000000000000D+00 0.000000000000000D+00 0.266643643238945D+03
 0.266643643238945D+03 0.000000000000000D+00 0.000000000000000D+00 -.266643643238945D+03
 0.173014819405135D+03 0.854049239857654D+02 -.679840040918543D+02 0.107475978367472D+03
 0.173284002107372D+03 0.484906135905589D+02 0.367105017575362D+02 -.162260114756118D+03
 0.166457023227335D+02 -.492891305643422D+00 -.159919130960750D+02 0.459294888992461D+01
 0.170342762642651D+03 -.133402646270681D+03 0.472654154303932D+02 0.501911874987212D+02
 0.000000000000000D+00 0.000000000000000D+00 0.000000000000000D+00 -.000000000000000D+00
 0.275147333304619D+03 0.000000000000000D+00 0.000000000000000D+00 0.275147333304619D+03
 0.372361794932170D+03 0.000000000000000D+00 0.000000000000000D+00 -.372361794932170D+03
 0.169484951274029D+03 0.700054508089137D+02 -.761976619390963D+02 0.107475978367472D+03
 0.168049124343444D+03 0.331435950663504D+02 0.285248217874826D+02 -.162260114756118D+03
 0.175458300905663D+02 -.203021083502580D+01 -.168118772903834D+02 0.459294888992461D+01
 0.180984158291932D+03 -.149199005738337D+03 0.388400692896951D+02 0.501911874987212D+02
 0.111445064236817D+03 0.480801706980991D+02 0.256446481523020D+02 -.972144616275507D+02
0.259086432738D-04 0.000000000000D+00 0.000000000000D+00 0.692108363950D-06 0.000000000000D+00  7 -1 1 24 -11 11 -24 21 0 0.14564000D+00 0.11554605D-01 0.35190669D+05 0.35190669D+05 0.35190669D+05 0.11609597D+01  1  2  2  1  7  1       -1 0.713522625240D-03 0.100000000000D+01
-.122296646122D-05 0.000000000000D+00 -.994960120737D-07 0.692108363950D-06 0.000000000000D+00  7 -1 1 24 -11 11 -24 21 2 0.14564000D+00 0.11554605D-01 0.35190669D+05 0.35190669D+05 0.35190669D+05 0.11609597D+01  1  2  3  1  7  1       -1 -.453954045469D-04 0.100000000000D+01
0.161659781393D-05 0.000000000000D+00 0.000000000000D+00 0.692108363950D-06 0.000000000000D+00  7 -1 1 24 -11 11 -24 21 2 0.14564000D+00 0.11554605D-01 0.35190669D+05 0.35190669D+05 0.35190669D+05 0.11609597D+01  1  2 15  1  7  1       -1 0.600066429293D-04 0.100000000000D+01
-.197504857039D-05 0.000000000000D+00 0.000000000000D+00 0.692108363950D-06 0.000000000000D+00  7 -1 1 24 -11 11 -24 21 2 0.14564000D+00 0.11554605D-01 0.35190669D+05 0.35190669D+05 0.35190669D+05 0.11609597D+01  1  2  4  1  7  1       -1 -.733120095239D-04 0.100000000000D+01
  </mgrwgt>
  </event>
  <event>
  9     66 0.29788925E-05 0.19162906E+03 0.75467711E-02 0.98326207E-01
       21 -1    0    0  502  501 0.00000000E+00 0.00000000E+00 0.14246228E+04 0.14246230E+04 0.75000000E+00 0.0000E+00 0.9000E+01
        1 -1    0    0  501    0 0.00000000E+00 0.00000000E+00 -.12676929E+03 0.12676970E+03 0.32000000E+00 0.0000E+00 0.9000E+01
       25  2    1    2    0    0 0.13708272E+03 -.20125599E+03 0.31258562E+03 0.49659941E+03 0.29934187E+03 0.0000E+00 0.0000E+00
       23  2    1    2    0    0 -.37915673E+02 -.44534556E+02 0.34267616E+03 0.35968802E+03 0.92344996E+02 0.0000E+00 0.0000E+00
       24  1    3    3    0    0 -.58174725E+02 -.80995101E+01 0.75616175E+02 0.12503968E+03 0.80419002E+02 0.0000E+00 0.9000E+01
      -11  1    4    4    0    0 0.56557025E+01 -.34726823E+02 0.28285017E+03 0.28503010E+03 0.51099893E-03 0.0000E+00 0.9000E+01
       11  1    4    4    0    0 -.43571375E+02 -.98077327E+01 0.59825989E+02 0.74657922E+02 0.51099893E-03 0.0000E+00 0.9000E+01
      -24  1    3    3    0    0 0.19525745E+03 -.19315648E+03 0.23696944E+03 0.37155973E+03 0.80419002E+02 0.0000E+00 0.9000E+01
        1  1    1    2  502    0 -.99167048E+02 0.24579055E+03 0.64259174E+03 0.69510528E+03 0.32000000E+00 0.0000E+00 0.9000E+01
#aMCatNLO 2  0  0  1  1 0.26504169D+03 0.00000000D+00  -5  7  0 0.00000000D+00 0.00000000D+00 0.00000000D+00 0.00000000D+00 0.00000000D+00
  <mgrwgt>
 0.1542693113D-04    1    2    0
 0.241667680579790D+03 0.000000000000000D+00 0.000000000000000D+00 0.241667680579790D+03
 0.241667680579790D+03 0.000000000000000D+00 0.000000000000000D+00 -.241667680579790D+03
 0.126826543531780D+03 -.803337943910499D+02 0.468228661457921D+02 -.311746190751022D+02
 0.102683161103007D+03 -.143987248834573D+02 0.149790905771815D+02 0.100559112671688D+03
 0.551111197911386D+02 -.531536894285733D+02 0.139425187016622D+02 0.418652564996369D+01
 0.198714536733655D+03 0.147886208703081D+03 -.757444754246358D+02 -.735710192465491D+02
 0.000000000000000D+00 -.000000000000000D+00 0.000000000000000D+00 0.000000000000000D+00
 0.519534621604783D+03 0.000000000000000D+00 0.000000000000000D+00 0.519534621604783D+03
 0.347616525373041D+03 0.000000000000000D+00 0.000000000000000D+00 -.347616525373041D+03
 0.104350244361688D+03 -.581747248002662D+02 -.809951010302909D+01 -.311746190751022D+02
 0.106536727703735D+03 0.565570237150163D+01 -.347268230505988D+02 0.100559112671688D+03
 0.448573666744401D+02 -.435713750938967D+02 -.980773268265004D+01 0.418652564996369D+01
 0.295490791705463D+03 0.195257445083720D+03 -.193156483957316D+03 -.735710192465491D+02
 0.315916016532497D+03 -.991670475610592D+02 0.245790549793594D+03 0.171918096231742D+03
0.535925675951D-06 0.000000000000D+00 0.000000000000D+00 0.327431848349D-06 0.391181005871D-11  7 21 1 24 -11 11 -24 1 2 0.21917274D+00 0.19503011D-01 0.13346521D+06 0.13346521D+06 0.13346521D+06 0.11115771D+01  1  2  1  3  7  1       -1 0.154269311313D-04 0.100000000000D+01
  </mgrwgt>
  </event>
  <event>
  9     66 0.29788925E-05 0.22449317E+03 0.75467711E-02 0.10343998E+00
       -1 -1    0    0    0  501 0.00000000E+00 0.00000000E+00 0.12450057E+04 0.12450057E+04 0.32000000E+00 0.0000E+00 0.9000E+01
        1 -1    0    0  502    0 0.00000000E+00 0.00000000E+00 -.55026182E+02 0.55027112E+02 0.32000000E+00 0.0000E+00 0.9000E+01
       25  2    1    2    0    0 -.67056019E+02 0.13036082E+03 0.81658622E+03 0.88222743E+03 0.30003620E+03 0.0000E+00 0.0000E+00
       23  2    1    2    0    0 0.59196564E+02 -.88808721E+02 0.24227624E+03 0.28003535E+03 0.91273210E+02 0.0000E+00 0.0000E+00
       24  1    3    3    0    0 0.34493476E+02 -.54879520E+02 0.19238143E+03 0.21835611E+03 0.80419002E+02 0.0000E+00 0.9000E+01
      -11  1    4    4    0    0 0.39317284E+02 -.12509098E+02 0.16332265E+03 0.16845360E+03 0.51099893E-03 0.0000E+00 0.9000E+01
       11  1    4    4    0    0 0.19879280E+02 -.76299622E+02 0.78953588E+02 0.11158175E+03 0.51099893E-03 0.0000E+00 0.9000E+01
      -24  1    3    3    0    0 -.10154950E+03 0.18524034E+03 0.62420480E+03 0.66387132E+03 0.80419002E+02 0.0000E+00 0.9000E+01
       21  1    1    2  502  501 0.78594554E+01 -.41552100E+02 0.13111701E+03 0.13777003E+03 0.75000000E+00 0.0000E+00 0.9000E+01
#aMCatNLO 2  0  0  2  2 0.42288865D+02 0.00000000D+00  -5  7  0 0.00000000D+00 0.00000000D+00 0.00000000D+00 0.00000000D+00 0.00000000D+00
  <mgrwgt>
 0.2382275614D-03    1    2    0
 0.238682165253841D+03 0.000000000000000D+00 0.000000000000000D+00 0.238682165253841D+03
 0.238682165253841D+03 0.000000000000000D+00 0.000000000000000D+00 -.238682165253841D+03
 0.110257856012709D+03 0.362579670889889D+02 -.642081958213964D+02 -.158822627507430D+02
 0.496055379936619D+02 0.401166081668490D+02 -.167350391291187D+02 0.239020002128483D+02
 0.103512081083442D+03 0.215198498936232D+02 -.849731410494658D+02 -.550564464070164D+02
 0.213988855417868D+03 -.978944251494612D+02 0.165916375999981D+03 0.470367089449112D+02
 0.000000000000000D+00 0.000000000000000D+00 -.000000000000000D+00 0.000000000000000D+00
 0.268621400753290D+03 0.000000000000000D+00 0.000000000000000D+00 0.268621400753290D+03
 0.255031315216640D+03 0.000000000000000D+00 0.000000000000000D+00 -.255031315216640D+03
 0.104503702551574D+03 0.344934760193314D+02 -.548795201749933D+02 -.158822627507430D+02
 0.476826172032098D+02 0.393172841063610D+02 -.125090982757564D+02 0.239020002128483D+02
 0.961666804200761D+02 0.198792797942599D+02 -.762996223248182D+02 -.550564464070164D+02
 0.230880817632416D+03 -.101549495314282D+03 0.185240341203769D+03 0.470367089449112D+02
 0.444188981626541D+02 0.785945539432952D+01 -.415521004282012D+02 0.135900855366497D+02
0.103725170627D-04 0.000000000000D+00 0.000000000000D+00 0.114382549502D-05 0.445881275878D-08  7 -1 1 24 -11 11 -24 21 2 0.19153707D+00 0.84655380D-02 0.60447979D+05 0.60447979D+05 0.60447979D+05 0.11401163D+01  1  2  1  2  7  2        1 0.238227561362D-03 0.100000000000D+01
  </mgrwgt>
  </event>
  <event>
  8     66 0.29788925E-05 0.37304331E+03 0.75467711E-02 0.92681112E-01
       -1 -1    0    0    0  501 0.00000000E+00 0.00000000E+00 0.37152055E+03 0.37152068E+03 0.32000000E+00 0.0000E+00 0.9000E+01
        1 -1    0    0  501    0 0.00000000E+00 0.00000000E+00 -.12094412E+04 0.12094413E+04 0.32000000E+00 0.0000E+00 0.9000E+01
       25  2    1    2    0    0 -.31098217E+03 -.14613829E+03 -.10650165E+04 0.11584029E+04 0.29928376E+03 0.0000E+00 0.0000E+00
       23  2    1    2    0    0 0.31098217E+03 0.14613829E+03 0.22709586E+03 0.42255904E+03 0.94431446E+02 0.0000E+00 0.0000E+00
       24  1    3    3    0    0 -.23813017E+03 -.78043850E+02 -.38457151E+03 0.46600352E+03 0.80419002E+02 0.0000E+00 0.9000E+01
      -11  1    4    4    0    0 0.25235361E+03 0.76347117E+02 0.15105686E+03 0.30385754E+03 0.51099893E-03 0.0000E+00 0.9000E+01
       11  1    4    4    0    0 0.58628558E+02 0.69791176E+02 0.76039003E+02 0.11870150E+03 0.51099893E-03 0.0000E+00 0.9000E+01
      -24  1    3    3    0    0 -.72852006E+02 -.68094444E+02 -.68044502E+03 0.69239938E+03 0.80419002E+02 0.0000E+00 0.9000E+01
#aMCatNLO 1  0  0  2  2 0.36478934D+03 0.00000000D+00  -5  7  0 0.00000000D+00 0.00000000D+00 0.00000000D+00 0.00000000D+00 0.00000000D+00
  <mgrwgt>
 0.7841761306D-03    4    2    0
 0.670322610832420D+03 0.000000000000000D+00 0.000000000000000D+00 0.670322610832420D+03
 0.670322610832420D+03 0.000000000000000D+00 0.000000000000000D+00 -.670322610832420D+03
 0.309174572223096D+03 -.238130166501358D+03 -.780438498041283D+02 -.162249442109211D+03
 0.452737870451528D+03 0.252353614454649D+03 0.763471172771563D+02 0.368049385675519D+03
 0.187504644919889D+03 0.586285582715033D+02 0.697911762568432D+02 0.163859316910039D+03
 0.391228134070326D+03 -.728520062247945D+02 -.680944437298712D+02 -.369659260476348D+03
 0.000000000000000D+00 0.000000000000000D+00 -.000000000000000D+00 0.000000000000000D+00
 0.936043728234342D+03 0.000000000000000D+00 0.000000000000000D+00 0.936043728234342D+03
 0.832535224828599D+03 0.000000000000000D+00 0.000000000000000D+00 -.832535224828599D+03
 0.335210494457022D+03 -.282060373947774D+03 -.399044150976260D+01 -.162249442109211D+03
 0.452032053340395D+03 0.190671970203902D+03 0.180324226685072D+03 0.368049385675519D+03
 0.202515346990563D+03 0.320393959230516D+02 0.114612683143575D+03 0.163859316910039D+03
 0.399630773668535D+03 -.126767898560426D+03 0.227918921372120D+02 -.369659260476348D+03
 0.379190284606425D+03 0.186116906381246D+03 -.313738360456096D+03 0.103508503405743D+03
0.249514308253D-03 0.000000000000D+00 0.000000000000D+00 0.756149113294D-06 0.000000000000D+00  7 -1 1 24 -11 11 -24 21 0 0.57157021D-01 0.18606789D+00 0.13916131D+06 0.13916131D+06 0.13916131D+06 0.11101316D+01  1  2  2  2  7  2        1 0.103606978598D-02 0.100000000000D+01
-.807301458215D-05 0.000000000000D+00 -.958200642318D-06 0.756149113294D-06 0.000000000000D+00  7 -1 1 24 -11 11 -24 21 2 0.57157021D-01 0.18606789D+00 0.13916131D+06 0.13916131D+06 0.13916131D+06 0.11101316D+01  1  2  3  2  7  2        1 -.413121871015D-04 0.100000000000D+01
0.154161216700D-04 0.000000000000D+00 0.000000000000D+00 0.756149113294D-06 0.000000000000D+00  7 -1 1 24 -11 11 -24 21 2 0.57157021D-01 0.18606789D+00 0.13916131D+06 0.13916131D+06 0.13916131D+06 0.11101316D+01  1  2 15  2  7  2        1 0.788892050585D-04 0.100000000000D+01
-.565668663569D-04 0.000000000000D+00 0.000000000000D+00 0.756149113294D-06 0.000000000000D+00  7 -1 1 24 -11 11 -24 21 2 0.57157021D-01 0.18606789D+00 0.13916131D+06 0.13916131D+06 0.13916131D+06 0.11101316D+01  1  2  4  2  7  2        1 -.289470673303D-03 0.100000000000D+01
  </mgrwgt>
  </event>
  <event>
  8     66 0.29788925E-05 0.14956614E+03 0.75467711E-02 0.99736084E-01
       -1 -1    0    0    0  501 0.00000000E+00 0.00000000E+00 0.22493263E+03 0.22493286E+03 0.32000000E+00 0.0000E+00 0.9000E+01
        1 -1    0    0  501    0 0.00000000E+00 0.00000000E+00 -.10172856E+04 0.10172856E+04 0.32000000E+00 0.0000E+00 0.9000E+01
       25  2    1    2    0    0 0.22911479E+03 0.10813922E+02 0.35068585E+02 0.37850361E+03 0.29903954E+03 0.0000E+00 0.0000E+00
       23  2    1    2    0    0 -.22911479E+03 -.10813922E+02 -.82742154E+03 0.86371489E+03 0.93629457E+02 0.0000E+00 0.0000E+00
       24  1    3    3    0    0 0.24661616E+03 -.43822894E+02 0.72473732E+02 0.27287293E+03 0.80419002E+02 0.0000E+00 0.9000E+01
      -11  1    4    4    0    0 -.20367663E+03 0.76947837E+01 -.58991338E+03 0.62413234E+03 0.51099893E-03 0.0000E+00 0.9000E+01
       11  1    4    4    0    0 -.25438158E+02 -.18508706E+02 -.23750816E+03 0.23958255E+03 0.51099893E-03 0.0000E+00 0.9000E+01
      -24  1    3    3    0    0 -.17501372E+02 0.54636816E+02 -.37405147E+02 0.10563068E+03 0.80419002E+02 0.0000E+00 0.9000E+01
#aMCatNLO 1  0  0  1  2 0.57970477D+02 0.00000000D+00  -5  7  0 0.00000000D+00 0.00000000D+00 0.00000000D+00 0.00000000D+00 0.00000000D+00
  <mgrwgt>
 0.7642428801D-03    9    2    0
 0.478352273098148D+03 0.000000000000000D+00 0.000000000000000D+00 0.478352273098148D+03
 0.478352273098148D+03 0.000000000000000D+00 0.000000000000000D+00 -.478352273098148D+03
 0.414331232936230D+03 0.246616161362410D+03 -.438228939844068D+02 0.320098699700245D+03
 0.321822580072792D+03 -.203676630713789D+03 0.769478367256513D+01 -.249050985643542D+03
 0.114375522447560D+03 -.254381584066893D+02 -.185087059784149D+02 -.109964030641992D+03
 0.106175210739715D+03 -.175013722419320D+02 0.546368162902566D+02 0.389163165852892D+02
 0.000000000000000D+00 -.000000000000000D+00 -.000000000000000D+00 0.000000000000000D+00
 0.516422429362982D+03 0.000000000000000D+00 0.000000000000000D+00 0.516422429362982D+03
 0.501818524510194D+03 0.000000000000000D+00 0.000000000000000D+00 -.501818524510194D+03
 0.426389888050454D+03 0.268241118017436D+03 -.304079879682424D+02 0.320098699700245D+03
 0.312171117440631D+03 -.187369099136377D+03 0.178110584451099D+02 -.249050985643542D+03
 0.112684258244357D+03 -.195977461784350D+02 -.148856429412235D+02 -.109964030641992D+03
 0.107214002411586D+03 -.120125931808907D+02 0.580417459010750D+02 0.389163165852892D+02
 0.597816877261480D+02 -.492616795217327D+02 -.305591734367190D+02 0.146039048527886D+02
0.358997988489D-04 0.000000000000D+00 0.000000000000D+00 0.330818771208D-06 0.000000000000D+00  7 -1 1 24 -11 11 -24 21 0 0.34605042D-01 0.15650550D+00 0.89143954D+05 0.89143954D+05 0.89143954D+05 0.11258407D+01  1  2  2  1  7  1       -1 0.505927737946D-03 0.100000000000D+01
-.145569712624D-05 0.000000000000D+00 -.137864680214D-06 0.330818771208D-06 0.000000000000D+00  7 -1 1 24 -11 11 -24 21 2 0.34605042D-01 0.15650550D+00 0.89143954D+05 0.89143954D+05 0.89143954D+05 0.11258407D+01  1  2  3  1  7  1       -1 -.260028778135D-04 0.100000000000D+01
0.218893572307D-05 0.000000000000D+00 0.000000000000D+00 0.330818771208D-06 0.000000000000D+00  7 -1 1 24 -11 11 -24 21 2 0.34605042D-01 0.15650550D+00 0.89143954D+05 0.89143954D+05 0.89143954D+05 0.11258407D+01  1  2 15  1  7  1       -1 0.391005980041D-04 0.100000000000D+01
0.620705294743D-04 0.000000000000D+00 0.000000000000D+00 0.330818771208D-06 0.000000000000D+00  7 -1 1 24 -11 11 -24 21 2 0.38152882D-01 0.15650550D+00 0.10639951D+06 0.10639951D+06 0.10639951D+06 0.11195180D+01  1  2 12  1  7  1       -1 0.923218133025D-03 0.100000000000D+01
-.566154952203D-04 0.000000000000D+00 0.000000000000D+00 0.330818771208D-06 0.000000000000D+00  7 -1 1 24 -11 11 -24 21 2 0.34605042D-01 0.15650550D+00 0.89143954D+05 0.89143954D+05 0.89143954D+05 0.11258407D+01  1  2  4  1  7  1       -1 -.101131325880D-02 0.100000000000D+01
-.155900523406D-03 0.000000000000D+00 -.403412656310D-04 0.330818771208D-06 0.000000000000D+00  7 -1 1 24 -11 11 -24 21 2 0.39091475D-01 0.15650550D+00 0.89143954D+05 0.89143954D+05 0.89143954D+05 0.11258407D+01  1  2  5  1  7  1       -1 -.226127955137D-02 0.100000000000D+01
0.159926441340D-03 0.000000000000D+00 0.400433581044D-04 0.330818771208D-06 0.000000000000D+00  7 -1 1 24 -11 11 -24 21 2 0.34605042D-01 0.15650550D+00 0.89143954D+05 0.89143954D+05 0.89143954D+05 0.11258407D+01  1  2  6  1  7  1       -1 0.285673965990D-02 0.100000000000D+01
0.987213918139D-06 0.000000000000D+00 0.000000000000D+00 0.330818771208D-06 0.000000000000D+00  7 21 1 24 -11 11 -24 1 2 0.38152882D-01 0.15650550D+00 0.10639951D+06 0.10639951D+06 0.10639951D+06 0.11195180D+01  1  2 12  3  7  1       -1 0.148603087324D-03 0.100000000000D+01
-.280534422344D-05 0.000000000000D+00 -.775616990779D-06 0.330818771208D-06 0.000000000000D+00  7 21 1 24 -11 11 -24 1 2 0.39091475D-01 0.15650550D+00 0.89143954D+05 0.89143954D+05 0.89143954D+05 0.11258407D+01  1  2  5  3  7  1       -1 -.410750648076D-03 0.100000000000D+01
  </mgrwgt>
  </event>
  <event>
  9     66 0.29788925E-05 0.19119105E+03 0.75467711E-02 0.10173285E+00
       21 -1    0    0  502  501 0.00000000E+00 0.00000000E+00 0.17773866E+03 0.17774024E+03 0.75000000E+00 0.0000E+00 0.9000E+01
        1 -1    0    0  501    0 0.00000000E+00 0.00000000E+00 -.57642619E+03 0.57642628E+03 0.32000000E+00 0.0000E+00 0.9000E+01
       25  2    1    2    0    0 0.29683657E+02 0.10717962E+03 -.25200711E+03 0.40939153E+03 0.30286177E+03 0.0000E+00 0.0000E+00
       23  2    1    2    0    0 -.46828280E+02 0.40706410E+02 -.16072953E+03 0.19523671E+03 0.91834052E+02 0.0000E+00 0.0000E+00
       24  1    3    3    0    0 -.35280858E+02 -.72719894E+02 -.73249812E+02 0.13552001E+03 0.80419002E+02 0.0000E+00 0.9000E+01
      -11  1    4    4    0    0 0.68042444E+01 -.11568448E+02 0.42298147E+01 0.14071889E+02 0.51099893E-03 0.0000E+00 0.9000E+01
       11  1    4    4    0    0 -.53632524E+02 0.52274858E+02 -.16495934E+03 0.18116482E+03 0.51099893E-03 0.0000E+00 0.9000E+01
      -24  1    3    3    0    0 0.64964515E+02 0.17989952E+03 -.17875730E+03 0.27387152E+03 0.80419002E+02 0.0000E+00 0.9000E+01
        1  1    1    2  502    0 0.17144622E+02 -.14788603E+03 0.14049102E+02 0.14953828E+03 0.32000000E+00 0.0000E+00 0.9000E+01
#aMCatNLO 2  0  0  1  2 0.14887651D+03 0.00000000D+00  -5  7  0 0.00000000D+00 0.00000000D+00 0.00000000D+00 0.00000000D+00 0.00000000D+00
  <mgrwgt>
 0.3859821576D-03    2    2    0
 0.208002143036392D+03 0.000000000000000D+00 0.000000000000000D+00 0.208002143036392D+03
 0.208002143036392D+03 0.000000000000000D+00 0.000000000000000D+00 -.208002143036392D+03
 0.148690104654973D+03 -.299703585900000D+02 -.118527086423689D+03 0.263559985171173D+02
 0.290418353746848D+02 0.784847998927458D+01 -.205758458059603D+02 0.189331490554951D+02
 0.788510612421471D+02 -.501816307689089D+02 0.225080614595554D+02 -.565038136918085D+02
 0.159421284800980D+03 0.723035093696343D+02 0.116594870770094D+03 0.112146661191961D+02
 0.000000000000000D+00 0.000000000000000D+00 -.000000000000000D+00 0.000000000000000D+00
 0.409255126347747D+03 0.000000000000000D+00 0.000000000000000D+00 0.409255126347747D+03
 0.250342028733027D+03 0.000000000000000D+00 0.000000000000000D+00 -.250342028733027D+03
 0.117024677233929D+03 -.352808473434685D+02 -.727198891653947D+02 0.263559985171173D+02
 0.232075601062001D+02 0.680424065451006D+01 -.115684494224944D+02 0.189331490554951D+02
 0.938178619151065D+02 -.536325354117808D+02 0.522748639205063D+02 -.565038136918085D+02
 0.207791254924570D+03 0.649645196134661D+02 0.179899505624622D+03 0.112146661191961D+02
 0.217755800900968D+03 0.171446224872731D+02 -.147886030957240D+03 0.158913097614720D+03
-.336120637921D-07 0.000000000000D+00 0.000000000000D+00 0.213816821835D-07 0.000000000000D+00  7 21 1 24 -11 11 -24 1 2 0.27552598D-01 0.73682581D-01 0.78035914D+05 0.78035914D+05 0.78035914D+05 0.11306692D+01  1  2 13  3  7  1       -1 -.312123888108D-04 0.100000000000D+01
0.572833213887D-06 0.000000000000D+00 0.000000000000D+00 0.213816821835D-07 0.808214695482D-12  7 21 1 24 -11 11 -24 1 2 0.27344525D-01 0.88681043D-01 0.78035914D+05 0.78035914D+05 0.78035914D+05 0.11306692D+01  1  2  1  3  7  1       -1 0.417194546448D-03 0.100000000000D+01
  </mgrwgt>
  </event>
  <event>
  8     66 0.29788925E-05 0.24001994E+03 0.75467711E-02 0.10246511E+00
       -1 -1    0    0    0  501 0.00000000E+00 0.00000000E+00 0.32628274E+02 0.32629843E+02 0.32000000E+00 0.0000E+00 0.9000E+01
        1 -1    0    0  501    0 0.00000000E+00 0.00000000E+00 -.17931340E+04 0.17931340E+04 0.32000000E+00 0.0000E+00 0.9000E+01
       25  2    1    2    0    0 0.94054959E+02 0.84545217E+02 -.12705222E+04 0.13113425E+04 0.29899539E+03 0.0000E+00 0.0000E+00
       23  2    1    2    0    0 -.94054959E+02 -.84545217E+02 -.48998347E+03 0.51442132E+03 0.92473074E+02 0.0000E+00 0.0000E+00
       24  1    3    3    0    0 0.10448777E+03 0.16366823E+03 -.77101382E+03 0.79914611E+03 0.80419002E+02 0.0000E+00 0.9000E+01
      -13  1    4    4    0    0 -.10572929E+03 -.94056599E+02 -.43717069E+03 0.45950359E+03 0.10565837E+00 0.0000E+00 0.9000E+01
       13  1    4    4    0    0 0.11674335E+02 0.95113821E+01 -.52812773E+02 0.54917726E+02 0.10565837E+00 0.0000E+00 0.9000E+01
      -24  1    3    3    0    0 -.10432810E+02 -.79123008E+02 -.49950842E+03 0.51219642E+03 0.80419002E+02 0.0000E+00 0.9000E+01
#aMCatNLO 1  0  0  1  2 0.46573616D+02 0.00000000D+00  -5  7  0 0.00000000D+00 0.00000000D+00 0.00000000D+00 0.00000000D+00 0.00000000D+00
  <mgrwgt>
 0.9626685872D-03    4    2    0
 0.241884942775538D+03 0.000000000000000D+00 0.000000000000000D+00 0.241884942775538D+03
 0.241884942775538D+03 0.000000000000000D+00 0.000000000000000D+00 -.241884942775538D+03
 0.210178152821188D+03 0.104487780746328D+03 0.163668235368186D+03 -.162861141089283D+01
 0.143257445724505D+03 -.105729453039566D+03 -.940567390964711D+02 0.223004113415483D+02
 0.150681598958221D+02 0.116744758245448D+02 0.951150620923101D+01 0.536009794631276D+00
 0.115266127109559D+03 -.104328035313070D+02 -.791230024809457D+02 -.212078097252868D+02
 0.000000000000000D+00 0.000000000000000D+00 -.000000000000000D+00 -.000000000000000D+00
 0.255251205435242D+03 0.000000000000000D+00 0.000000000000000D+00 0.255251205435242D+03
 0.287278225294758D+03 0.000000000000000D+00 0.000000000000000D+00 -.287278225294758D+03
 0.225095568481509D+03 0.101145496904961D+03 0.184303377821363D+03 -.162861141089283D+01
 0.136608687935909D+03 -.107878427375713D+03 -.807890474044047D+02 0.223004113415483D+02
 0.158620401021080D+02 0.114369758271778D+02 0.109778228091681D+02 0.536009794631276D+00
 0.108440291790040D+03 -.121505510370845D+02 -.685176900171749D+02 -.212078097252868D+02
 0.565228424204336D+02 0.744650568065903D+01 -.459744632089517D+02 -.320270198595160D+02
0.154044587380D-04 0.000000000000D+00 0.000000000000D+00 0.110919703541D-06 0.000000000000D+00  7 -1 1 24 -13 13 -24 21 0 0.50198574D-02 0.27586689D+00 0.57609569D+05 0.57609569D+05 0.57609569D+05 0.11419227D+01  1  2  2  1  7  1       -1 0.133737476335D-02 0.100000000000D+01
-.855740924428D-06 0.000000000000D+00 -.591571776411D-07 0.110919703541D-06 0.000000000000D+00  7 -1 1 24 -13 13 -24 21 2 0.50198574D-02 0.27586689D+00 0.57609569D+05 0.57609569D+05 0.57609569D+05 0.11419227D+01  1  2  3  1  7  1       -1 -.968773846841D-04 0.100000000000D+01
0.986052410471D-06 0.000000000000D+00 0.000000000000D+00 0.110919703541D-06 0.000000000000D+00  7 -1 1 24 -13 13 -24 21 2 0.50198574D-02 0.27586689D+00 0.57609569D+05 0.57609569D+05 0.57609569D+05 0.11419227D+01  1  2 15  1  7  1       -1 0.111629788831D-03 0.100000000000D+01
-.344018004446D-05 0.000000000000D+00 0.000000000000D+00 0.110919703541D-06 0.000000000000D+00  7 -1 1 24 -13 13 -24 21 2 0.50198574D-02 0.27586689D+00 0.57609569D+05 0.57609569D+05 0.57609569D+05 0.11419227D+01  1  2  4  1  7  1       -1 -.389458580320D-03 0.100000000000D+01
  </mgrwgt>
  </event>
  <event>
  8     66 0.29788925E-05 0.13799868E+03 0.75467711E-02 0.10100162E+00
       -1 -1    0    0    0  501 0.00000000E+00 0.00000000E+00 0.83002976E+03 0.83002982E+03 0.32000000E+00 0.0000E+00 0.9000E+01
        1 -1    0    0  501    0 0.00000000E+00 0.00000000E+00 -.17279146E+03 0.17279176E+03 0.32000000E+00 0.0000E+00 0.9000E+01
       25  2    1    2    0    0 0.11397205E+03 0.10367834E+03 0.17516127E+02 0.33841461E+03 0.30079695E+03 0.0000E+00 0.0000E+00
       23  2    1    2    0    0 -.11397205E+03 -.10367834E+03 0.63972217E+03 0.66440697E+03 0.91942035E+02 0.0000E+00 0.0000E+00
       24  1    3    3    0    0 0.18642457E+03 0.10383192E+03 0.27591223E+02 0.22970346E+03 0.80419002E+02 0.0000E+00 0.9000E+01
      -11  1    4    4    0    0 -.11923922E+03 -.11545325E+03 0.57838221E+03 0.60172538E+03 0.51099893E-03 0.0000E+00 0.9000E+01
       11  1    4    4    0    0 0.52671716E+01 0.11774908E+02 0.61339963E+02 0.62681597E+02 0.51099893E-03 0.0000E+00 0.9000E+01
      -24  1    3    3    0    0 -.72452516E+02 -.15357837E+00 -.10075096E+02 0.10871115E+03 0.80419002E+02 0.0000E+00 0.9000E+01
#aMCatNLO 1  0  0  2  1 0.70919219D+02 0.00000000D+00  -5  7  0 0.00000000D+00 0.00000000D+00 0.00000000D+00 0.00000000D+00 0.00000000D+00
  <mgrwgt>
 0.7918244992D-03    9    2    0
 0.378711280265541D+03 0.000000000000000D+00 0.000000000000000D+00 0.378711280265541D+03
 0.378711280265541D+03 0.000000000000000D+00 0.000000000000000D+00 -.378711280265541D+03
 0.280183857212992D+03 0.186424565462355D+03 0.103831920374374D+03 -.162790023010998D+03
 0.294800103440898D+03 -.119239220744280D+03 -.115453249971201D+03 0.243638371969910D+03
 0.297634189180062D+02 0.526717156936702D+01 0.117749079692201D+02 0.268229295876491D+02
 0.152675180959186D+03 -.724525162874422D+02 -.153578372393270D+00 -.107671278546562D+03
 0.000000000000000D+00 -.000000000000000D+00 0.000000000000000D+00 -.000000000000000D+00
 0.403899449751598D+03 0.000000000000000D+00 0.000000000000000D+00 0.403899449751598D+03
 0.433801338309636D+03 0.000000000000000D+00 0.000000000000000D+00 -.433801338309636D+03
 0.283422973242023D+03 0.201488349016177D+03 0.822387951382545D+02 -.162790023010998D+03
 0.298567603757576D+03 -.103380004308154D+03 -.138186585552428D+03 0.243638371969910D+03
 0.292715514086601D+02 0.684502685261338D+01 0.951313710575278D+01 0.268229295876491D+02
 0.149473351816317D+03 -.643768510312912D+02 -.117296110880791D+02 -.107671278546562D+03
 0.769653078366588D+02 -.405765205293453D+02 0.581642643965001D+02 -.299018885580377D+02
0.453747606799D-04 0.000000000000D+00 0.000000000000D+00 0.162722065084D-05 0.000000000000D+00  7 -1 1 24 -11 11 -24 21 0 0.12769691D+00 0.26583329D-01 0.66346720D+05 0.66346720D+05 0.66346720D+05 0.11366439D+01  1  2  2  2  7  2        1 0.588840323328D-03 0.100000000000D+01
-.206545686223D-05 0.000000000000D+00 -.174251028460D-06 0.162722065084D-05 0.000000000000D+00  7 -1 1 24 -11 11 -24 21 2 0.12769691D+00 0.26583329D-01 0.66346720D+05 0.66346720D+05 0.66346720D+05 0.11366439D+01  1  2  3  2  7  2        1 -.346296534191D-04 0.100000000000D+01
0.282945563335D-05 0.000000000000D+00 0.000000000000D+00 0.162722065084D-05 0.000000000000D+00  7 -1 1 24 -11 11 -24 21 2 0.12769691D+00 0.26583329D-01 0.66346720D+05 0.66346720D+05 0.66346720D+05 0.11366439D+01  1  2 15  2  7  2        1 0.474389321507D-04 0.100000000000D+01
0.584704609267D-04 0.000000000000D+00 0.000000000000D+00 0.162722065084D-05 0.000000000000D+00  7 -1 1 24 -11 11 -24 21 2 0.12769691D+00 0.31235948D-01 0.87291672D+05 0.87291672D+05 0.87291672D+05 0.11265983D+01  1  2 12  2  7  2        1 0.775536644286D-03 0.100000000000D+01
-.591240329998D-04 0.000000000000D+00 0.000000000000D+00 0.162722065084D-05 0.000000000000D+00  7 -1 1 24 -11 11 -24 21 2 0.12769691D+00 0.26583329D-01 0.66346720D+05 0.66346720D+05 0.66346720D+05 0.11366439D+01  1  2  4  2  7  2        1 -.991279367272D-03 0.100000000000D+01
-.115957798550D-03 0.000000000000D+00 -.348219621138D-04 0.162722065084D-05 0.000000000000D+00  7 -1 1 24 -11 11 -24 21 2 0.12769691D+00 0.32339968D-01 0.66346720D+05 0.66346720D+05 0.66346720D+05 0.11366439D+01  1  2  5  2  7  2        1 -.150948441995D-02 0.100000000000D+01
0.121107868622D-03 0.000000000000D+00 0.341635139963D-04 0.162722065084D-05 0.000000000000D+00  7 -1 1 24 -11 11 -24 21 2 0.12769691D+00 0.26583329D-01 0.66346720D+05 0.66346720D+05 0.66346720D+05 0.11366439D+01  1  2  6  2  7  2        1 0.203050646730D-02 0.100000000000D+01
0.141388660943D-05 0.000000000000D+00 0.000000000000D+00 0.162722065084D-05 0.000000000000D+00  7 -1 21 24 -11 11 -24 -1 2 0.12769691D+00 0.31235948D-01 0.87291672D+05 0.87291672D+05 0.87291672D+05 0.11265983D+01  1  2 12  4  7  2        1 0.118926806323D-03 0.100000000000D+01
-.288009928927D-05 0.000000000000D+00 -.981218639019D-06 0.162722065084D-05 0.000000000000D+00  7 -1 21 24 -11 11 -24 -1 2 0.12769691D+00 0.32339968D-01 0.66346720D+05 0.66346720D+05 0.66346720D+05 0.11366439D+01  1  2  5  4  7  2        1 -.234031233532D-03 0.100000000000D+01
  </mgrwgt>
  </event>
  <event>
  8     66 0.29788925E-05 0.16607671E+03 0.75467711E-02 0.10420976E+00
       -1 -1    0    0    0  501 0.00000000E+00 0.00000000E+00 0.26643854E+03 0.26643873E+03 0.32000000E+00 0.0000E+00 0.9000E+01
        1 -1    0    0  501    0 0.00000000E+00 0.00000000E+00 -.26505133E+03 0.26505152E+03 0.32000000E+00 0.0000E+00 0.9000E+01
       25  2    1    2    0    0 -.10497816E+03 -.88402138E+02 -.91225983E+02 0.34230901E+03 0.30002988E+03 0.0000E+00 0.0000E+00
       23  2    1    2    0    0 0.10497816E+03 0.88402138E+02 0.92613188E+02 0.18918124E+03 0.91525887E+02 0.0000E+00 0.0000E+00
       24  1    3    3    0    0 0.47806263E+02 -.10342141E+03 0.13018382E+02 0.14006470E+03 0.80419002E+02 0.0000E+00 0.9000E+01
      -13  1    4    4    0    0 0.20582089E+02 0.52707512E+02 0.78041095E+02 0.96395684E+02 0.10565837E+00 0.0000E+00 0.9000E+01
       13  1    4    4    0    0 0.84396067E+02 0.35694626E+02 0.14572093E+02 0.92785557E+02 0.10565837E+00 0.0000E+00 0.9000E+01
      -24  1    3    3    0    0 -.15278442E+03 0.15019272E+02 -.10424437E+03 0.20224431E+03 0.80419002E+02 0.0000E+00 0.9000E+01
#aMCatNLO 1  0  0  1  2 0.41282562D+01 0.00000000D+00  -5  7  0 0.00000000D+00 0.00000000D+00 0.00000000D+00 0.00000000D+00 0.00000000D+00
  <mgrwgt>
 0.2216079131D-03   11    2    0
 0.265744221477929D+03 0.000000000000000D+00 0.000000000000000D+00 0.265744221477929D+03
 0.265744221477929D+03 0.000000000000000D+00 0.000000000000000D+00 -.265744221477929D+03
 0.140031200909843D+03 0.478062620994794D+02 -.103421409436548D+03 0.126528513828388D+02
 0.961923269934278D+02 0.205820049587225D+02 0.527075345194467D+02 0.777898492682111D+02
 0.927478346392225D+02 0.843961521125871D+02 0.356946038068903D+02 0.143298847840011D+02
 0.202517080413364D+03 -.152784419170789D+03 0.150192711102110D+02 -.104772585435051D+03
 0.000000000000000D+00 0.000000000000000D+00 0.000000000000000D+00 0.000000000000000D+00
 0.268509400693651D+03 0.000000000000000D+00 0.000000000000000D+00 0.268509400693651D+03
 0.267297530864042D+03 0.000000000000000D+00 0.000000000000000D+00 -.267297530864042D+03
 0.140697754654994D+03 0.474922681309583D+02 -.104465458550888D+03 0.126528513828388D+02
 0.957571348723528D+02 0.203673104211910D+02 0.519936620752743D+02 0.777898492682111D+02
 0.922963311200104D+02 0.841891811150942D+02 0.350064126048605D+02 0.143298847840011D+02
 0.202753254870146D+03 -.153237712065508D+03 0.135120445622058D+02 -.104772585435051D+03
 0.430245604018993D+01 0.118895239826495D+01 0.395333930854763D+01 0.121186982961001D+01
0.272813609046D-05 0.000000000000D+00 0.000000000000D+00 0.136076462626D-05 0.000000000000D+00  7 -1 1 24 -13 13 -24 21 0 0.40990574D-01 0.40777158D-01 0.53126730D+05 0.53126730D+05 0.53126730D+05 0.11449854D+01  1  2  2  1  7  1       -1 0.198044054448D-03 0.100000000000D+01
-.147830736945D-06 0.000000000000D+00 -.104767609221D-07 0.136076462626D-05 0.000000000000D+00  7 -1 1 24 -13 13 -24 21 2 0.40990574D-01 0.40777158D-01 0.53126730D+05 0.53126730D+05 0.53126730D+05 0.11449854D+01  1  2  3  1  7  1       -1 -.140689100797D-04 0.100000000000D+01
0.176268871876D-06 0.000000000000D+00 0.000000000000D+00 0.136076462626D-05 0.000000000000D+00  7 -1 1 24 -13 13 -24 21 2 0.40990574D-01 0.40777158D-01 0.53126730D+05 0.53126730D+05 0.53126730D+05 0.11449854D+01  1  2 15  1  7  1       -1 0.167753402271D-04 0.100000000000D+01
0.170110788294D-06 0.000000000000D+00 0.000000000000D+00 0.136076462626D-05 0.000000000000D+00  7 -1 1 24 -13 13 -24 21 2 0.41535920D-01 0.40777158D-01 0.54023271D+05 0.54023271D+05 0.54023271D+05 0.11443507D+01  1  2 12  1  7  1       -1 0.158057838349D-04 0.100000000000D+01
-.300695575381D-04 0.000000000000D+00 0.000000000000D+00 0.136076462626D-05 0.000000000000D+00  7 -1 1 24 -13 13 -24 21 2 0.40990574D-01 0.40777158D-01 0.53126730D+05 0.53126730D+05 0.53126730D+05 0.11449854D+01  1  2  4  1  7  1       -1 -.286169107915D-02 0.100000000000D+01
-.196360066820D-03 0.000000000000D+00 -.224757528033D-04 0.136076462626D-05 0.000000000000D+00  7 -1 1 24 -13 13 -24 21 2 0.41633292D-01 0.40777158D-01 0.53126730D+05 0.53126730D+05 0.53126730D+05 0.11449854D+01  1  2  5  1  7  1       -1 -.181921585999D-01 0.100000000000D+01
0.196688659626D-03 0.000000000000D+00 0.224730329337D-04 0.136076462626D-05 0.000000000000D+00  7 -1 1 24 -13 13 -24 21 2 0.40990574D-01 0.40777158D-01 0.53126730D+05 0.53126730D+05 0.53126730D+05 0.11449854D+01  1  2  6  1  7  1       -1 0.187186719295D-01 0.100000000000D+01
0.299177795562D-04 0.000000000000D+00 0.000000000000D+00 0.136076462626D-05 0.557693844030D-06  7 -1 1 24 -13 13 -24 21 2 0.41417098D-01 0.41015505D-01 0.54023271D+05 0.54023271D+05 0.54023271D+05 0.11443507D+01  1  2 11  1  7  1       -1 0.277261431990D-02 0.100000000000D+01
0.117216631323D-07 0.000000000000D+00 0.000000000000D+00 0.136076462626D-05 0.000000000000D+00  7 21 1 24 -13 13 -24 1 2 0.41535920D-01 0.40777158D-01 0.54023271D+05 0.54023271D+05 0.54023271D+05 0.11443507D+01  1  2 12  3  7  1       -1 0.109443279433D-04 0.100000000000D+01
-.557668928219D-06 0.000000000000D+00 -.640608627433D-07 0.136076462626D-05 0.000000000000D+00  7 21 1 24 -13 13 -24 1 2 0.41633292D-01 0.40777158D-01 0.53126730D+05 0.53126730D+05 0.53126730D+05 0.11449854D+01  1  2  5  3  7  1       -1 -.519056698105D-03 0.100000000000D+01
0.812422941013D-07 0.000000000000D+00 0.000000000000D+00 0.136076462626D-05 0.106466602604D-08  7 21 1 24 -13 13 -24 1 2 0.41417098D-01 0.41015505D-01 0.54023271D+05 0.54023271D+05 0.54023271D+05 0.11443507D+01  1  2 11  3  7  1       -1 0.757274443795D-04 0.100000000000D+01
  </mgrwgt>
  </event>
  <event>
  8     66 0.29788925E-05 0.14770256E+03 0.75467711E-02 0.10129554E+00
       -1 -1    0    0    0  501 0.00000000E+00 0.00000000E+00 0.21245192E+03 0.21245216E+03 0.32000000E+00 0.0000E+00 0.9000E+01
        1 -1    0    0  501    0 0.00000000E+00 0.00000000E+00 -.52957404E+03 0.52957414E+03 0.32000000E+00 0.0000E+00 0.9000E+01
       25  2    1    2    0    0 -.22914962E+03 -.13959549E+02 -.31995941E+03 0.49524104E+03 0.30030859E+03 0.0000E+00 0.0000E+00
       23  2    1    2    0    0 0.22914962E+03 0.13959549E+02 0.28372861E+01 0.24678525E+03 0.90501344E+02 0.0000E+00 0.0000E+00
       24  1    3    3    0    0 -.13218622E+03 0.25546455E+02 -.86107164E+01 0.15705788E+03 0.80419002E+02 0.0000E+00 0.9000E+01
      -11  1    4    4    0    0 0.20625156E+03 -.12364840E+02 0.20578151E+02 0.20764406E+03 0.51099893E-03 0.0000E+00 0.9000E+01
       11  1    4    4    0    0 0.22898059E+02 0.26324389E+02 -.17740865E+02 0.39141191E+02 0.51099893E-03 0.0000E+00 0.9000E+01
      -24  1    3    3    0    0 -.96963397E+02 -.39506005E+02 -.31134869E+03 0.33818316E+03 0.80419002E+02 0.0000E+00 0.9000E+01
#aMCatNLO 1  0  0  2  1 0.44933383D+02 0.00000000D+00  -5  7  0 0.00000000D+00 0.00000000D+00 0.00000000D+00 0.00000000D+00 0.00000000D+00
  <mgrwgt>
 0.6103822491D-03    9    2    0
 0.335423830381827D+03 0.000000000000000D+00 0.000000000000000D+00 0.335423830381827D+03
 0.335423830381827D+03 0.000000000000000D+00 0.000000000000000D+00 -.335423830381827D+03
 0.169651679045261D+03 -.132186222644863D+03 0.255464551662731D+02 0.647198379156348D+02
 0.239403295506460D+03 0.206251561533756D+03 -.123648399148070D+02 0.120918741302255D+03
 0.349077349991510D+02 0.228980585444409D+02 0.263243892844935D+02 -.112044922453012D+01
 0.226884951212783D+03 -.969633974333345D+02 -.395060045359595D+02 -.184518129993359D+03
 0.000000000000000D+00 0.000000000000000D+00 -.000000000000000D+00 -.000000000000000D+00
 0.341263992976115D+03 0.000000000000000D+00 0.000000000000000D+00 0.341263992976115D+03
 0.435368246729575D+03 0.000000000000000D+00 0.000000000000000D+00 -.435368246729575D+03
 0.176949201100781D+03 -.139507402777087D+03 0.345373850544521D+02 0.647198379156348D+02
 0.230574519229177D+03 0.196324315421804D+03 -.173475658873013D+00 0.120918741302255D+03
 0.353847802285370D+02 0.214132839942083D+02 0.281477980300501D+02 -.112044922453012D+01
 0.229442295439626D+03 -.106602305362757D+03 -.276687400749204D+02 -.184518129993359D+03
 0.104281443707569D+03 0.283721087238316D+02 -.348429673507088D+02 -.941042537534595D+02
0.116356469152D-04 0.000000000000D+00 0.000000000000D+00 0.192216407138D-05 0.000000000000D+00  7 -1 1 24 -11 11 -24 21 0 0.32684936D-01 0.81472955D-01 0.70319213D+05 0.70319213D+05 0.70319213D+05 0.11344917D+01  1  2  2  2  7  2        1 0.494083278504D-03 0.100000000000D+01
-.603022228036D-06 0.000000000000D+00 -.446839478905D-07 0.192216407138D-05 0.000000000000D+00  7 -1 1 24 -11 11 -24 21 2 0.32684936D-01 0.81472955D-01 0.70319213D+05 0.70319213D+05 0.70319213D+05 0.11344917D+01  1  2  3  2  7  2        1 -.329568408759D-04 0.100000000000D+01
0.743447134386D-06 0.000000000000D+00 0.000000000000D+00 0.192216407138D-05 0.000000000000D+00  7 -1 1 24 -11 11 -24 21 2 0.32684936D-01 0.81472955D-01 0.70319213D+05 0.70319213D+05 0.70319213D+05 0.11344917D+01  1  2 15  2  7  2        1 0.406314523221D-04 0.100000000000D+01
0.534290121645D-04 0.000000000000D+00 0.000000000000D+00 0.192216407138D-05 0.000000000000D+00  7 -1 1 24 -11 11 -24 21 2 0.32684936D-01 0.10630873D+00 0.83429608D+05 0.83429608D+05 0.83429608D+05 0.11282364D+01  1  2 12  2  7  2        1 0.196606299596D-02 0.100000000000D+01
-.531846838188D-04 0.000000000000D+00 0.000000000000D+00 0.192216407138D-05 0.000000000000D+00  7 -1 1 24 -11 11 -24 21 2 0.32684936D-01 0.81472955D-01 0.70319213D+05 0.70319213D+05 0.70319213D+05 0.11344917D+01  1  2  4  2  7  2        1 -.290669079872D-02 0.100000000000D+01
-.617824432495D-04 0.000000000000D+00 -.646244720345D-05 0.192216407138D-05 0.000000000000D+00  7 -1 1 24 -11 11 -24 21 2 0.32684936D-01 0.10664006D+00 0.70319213D+05 0.70319213D+05 0.70319213D+05 0.11344917D+01  1  2  5  2  7  2        1 -.229491402964D-02 0.100000000000D+01
0.615073624353D-04 0.000000000000D+00 0.623517255068D-05 0.192216407138D-05 0.000000000000D+00  7 -1 1 24 -11 11 -24 21 2 0.32684936D-01 0.81472955D-01 0.70319213D+05 0.70319213D+05 0.70319213D+05 0.11344917D+01  1  2  6  2  7  2        1 0.336154831818D-02 0.100000000000D+01
0.189289471556D-05 0.000000000000D+00 0.000000000000D+00 0.192216407138D-05 0.000000000000D+00  7 -1 21 24 -11 11 -24 -1 2 0.32684936D-01 0.10630873D+00 0.83429608D+05 0.83429608D+05 0.83429608D+05 0.11282364D+01  1  2 12  4  7  2        1 0.150343214568D-03 0.100000000000D+01
-.208541112740D-05 0.000000000000D+00 -.230906595146D-06 0.192216407138D-05 0.000000000000D+00  7 -1 21 24 -11 11 -24 -1 2 0.32684936D-01 0.10664006D+00 0.70319213D+05 0.70319213D+05 0.70319213D+05 0.11344917D+01  1  2  5  4  7  2        1 -.167725341192D-03 0.100000000000D+01
  </mgrwgt>
  </event>
  <event>
  8     66 0.29788925E-05 0.58189287E+03 0.75467711E-02 0.80003703E-01
       -1 -1    0    0    0  501 0.00000000E+00 0.00000000E+00 0.44710187E+03 0.44710198E+03 0.32000000E+00 0.0000E+00 0.9000E+01
        1 -1    0    0  501    0 0.00000000E+00 0.00000000E+00 -.10035979E+04 0.10035980E+04 0.32000000E+00 0.0000E+00 0.9000E+01
       25  2    1    2    0    0 -.45799473E+03 -.32693467E+03 -.60421215E+03 0.87856501E+03 0.30026439E+03 0.0000E+00 0.0000E+00
       23  2    1    2    0    0 0.45799473E+03 0.32693467E+03 0.47716098E+02 0.57213494E+03 0.91739349E+02 0.0000E+00 0.0000E+00
       24  1    3    3    0    0 -.97714480E+02 -.12304426E+03 -.52521801E+02 0.18415691E+03 0.80419002E+02 0.0000E+00 0.9000E+01
      -13  1    4    4    0    0 0.75259984E+02 0.81309759E+02 0.38424703E+02 0.11726812E+03 0.10565837E+00 0.0000E+00 0.9000E+01
       13  1    4    4    0    0 0.38273475E+03 0.24562491E+03 0.92913953E+01 0.45486682E+03 0.10565837E+00 0.0000E+00 0.9000E+01
      -24  1    3    3    0    0 -.36028025E+03 -.20389040E+03 -.55169035E+03 0.69440810E+03 0.80419002E+02 0.0000E+00 0.9000E+01
#aMCatNLO 1  0  0  2  1 0.21649197D+04 0.00000000D+00  -5  7  0 0.00000000D+00 0.00000000D+00 0.00000000D+00 0.00000000D+00 0.00000000D+00
  <mgrwgt>
 0.8384747284D-03    5    2    0
 0.669858656780310D+03 0.000000000000000D+00 0.000000000000000D+00 0.669858656780310D+03
 0.669858656780310D+03 0.000000000000000D+00 0.000000000000000D+00 -.669858656780310D+03
 0.177595852103292D+03 -.977144799372632D+02 -.123044263029151D+03 0.196229578842569D+02
 0.142943152847594D+03 0.752595763960699D+02 0.813095407238689D+02 0.903188778382913D+02
 0.496408100612130D+03 0.382735158503223D+03 0.245625125372626D+03 0.199005272755615D+03
 0.522770207997604D+03 -.360280254962030D+03 -.203890403067344D+03 -.308947108478163D+03
 0.000000000000000D+00 -.000000000000000D+00 0.000000000000000D+00 -.000000000000000D+00
 0.223920528547813D+04 0.000000000000000D+00 0.000000000000000D+00 0.223920528547813D+04
 0.248561456508979D+04 0.000000000000000D+00 0.000000000000000D+00 -.248561456508979D+04
 0.373677773119125D+03 0.113136215452844D+03 -.346385621014756D+03 0.196229578842569D+02
 0.259586351565652D+03 0.229218739391261D+03 -.817700662655919D+02 0.903188778382913D+02
 0.107930322413336D+04 0.985411966091485D+03 -.392753877286840D+03 0.199005272755615D+03
 0.833354858629017D+03 0.158409376196749D+03 -.753306881783352D+03 -.308947108478163D+03
 0.217889764312077D+04 -.148617629713234D+04 0.157421644635054D+04 -.246409279611659D+03
0.208823618695D-03 0.000000000000D+00 0.000000000000D+00 0.828496939869D-05 0.000000000000D+00  7 -1 1 24 -13 13 -24 21 0 0.68784915D-01 0.15439969D+00 0.33859932D+06 0.33859932D+06 0.33859932D+06 0.10806842D+01  1  2  2  2  7  2        1 0.828979926388D-03 0.100000000000D+01
-.113217535932D-04 0.000000000000D+00 -.801937680310D-06 0.828496939869D-05 0.000000000000D+00  7 -1 1 24 -13 13 -24 21 2 0.68784915D-01 0.15439969D+00 0.33859932D+06 0.33859932D+06 0.33859932D+06 0.10806842D+01  1  2  3  2  7  2        1 -.524898927495D-04 0.100000000000D+01
0.133066658729D-04 0.000000000000D+00 0.000000000000D+00 0.828496939869D-05 0.000000000000D+00  7 -1 1 24 -13 13 -24 21 2 0.68784915D-01 0.15439969D+00 0.33859932D+06 0.33859932D+06 0.33859932D+06 0.10806842D+01  1  2 15  2  7  2        1 0.616923393332D-04 0.100000000000D+01
0.131987454741D-03 0.000000000000D+00 -.787032647122D-04 0.828496939869D-05 0.000000000000D+00  7 -1 1 24 -13 13 -24 21 2 0.68784915D-01 0.76747550D+00 0.33859932D+06 0.33859932D+06 0.33859932D+06 0.10806842D+01  1  2  5  2  7  2        1 0.290436103727D-06 0.100000000000D+01
0.236390803634D-04 0.000000000000D+00 -.153762114596D-04 0.828496939869D-05 0.000000000000D+00  7 -1 21 24 -13 13 -24 -1 2 0.68784915D-01 0.76747550D+00 0.33859932D+06 0.33859932D+06 0.33859932D+06 0.10806842D+01  1  2  5  4  7  2        1 0.191928750063D-08 0.100000000000D+01
  </mgrwgt>
  </event>
  <event>
  8     66 0.29788925E-05 0.93266232E+02 0.75467711E-02 0.98022857E-01
       -1 -1    0    0    0  501 0.00000000E+00 0.00000000E+00 0.58759204E+03 0.58759213E+03 0.32000000E+00 0.0000E+00 0.9000E+01
        1 -1    0    0  501    0 0.00000000E+00 0.00000000E+00 -.12306910E+03 0.12306951E+03 0.32000000E+00 0.0000E+00 0.9000E+01
       25  2    1    2    0    0 0.51346588E+02 0.13998789E+03 0.22225170E+03 0.40080302E+03 0.29835241E+03 0.0000E+00 0.0000E+00
       23  2    1    2    0    0 -.51346588E+02 -.13998789E+03 0.24227124E+03 0.30985862E+03 0.12281664E+03 0.0000E+00 0.0000E+00
       24  1    3    3    0    0 -.30258511E+02 0.18999131E+03 0.14061438E+03 0.25149930E+03 0.80419002E+02 0.0000E+00 0.9000E+01
      -13  1    4    4    0    0 -.64491284E+02 -.15786731E+03 0.22072570E+03 0.27892841E+03 0.10565837E+00 0.0000E+00 0.9000E+01
       13  1    4    4    0    0 0.13144697E+02 0.17879411E+02 0.21545543E+02 0.30930212E+02 0.10565837E+00 0.0000E+00 0.9000E+01
      -24  1    3    3    0    0 0.81605098E+02 -.50003417E+02 0.81637322E+02 0.14930372E+03 0.80419002E+02 0.0000E+00 0.9000E+01
#aMCatNLO 1  0  0  2  1 0.18977449D+03 0.00000000D+00  -5  7  0 0.00000000D+00 0.00000000D+00 0.00000000D+00 0.00000000D+00 0.00000000D+00
  <mgrwgt>
 0.6800849101D-03    7    2    0
 0.268913741142555D+03 0.000000000000000D+00 0.000000000000000D+00 0.268913741142555D+03
 0.268913741142555D+03 0.000000000000000D+00 0.000000000000000D+00 -.268913741142555D+03
 0.210871542927572D+03 -.302583462199215D+02 0.189991753819944D+03 -.314190647018915D+02
 0.177922747895699D+03 -.644913219282028D+02 -.157867621453208D+03 0.507463073672953D+02
 0.222601874777783D+02 0.131444729662180D+02 0.178790146605465D+02 0.175488226219543D+01
 0.126773003984060D+03 0.816051951819063D+02 -.500031470272816D+02 -.210821249275993D+02
 0.000000000000000D+00 -.000000000000000D+00 0.000000000000000D+00 -.000000000000000D+00
 0.334083638848217D+03 0.000000000000000D+00 0.000000000000000D+00 0.334083638848217D+03
 0.469209914040479D+03 0.000000000000000D+00 0.000000000000000D+00 -.469209914040479D+03
 0.192269601655716D+03 0.352321198775456D+02 0.168142570066803D+03 -.314190647018915D+02
 0.184716785918950D+03 -.558036130313807D+01 -.177521725026932D+03 0.507463073672953D+02
 0.260084470366586D+02 0.209857350519976D+02 0.152629823374026D+02 0.175488226219543D+01
 0.167332052285344D+03 0.129382698112337D+03 -.659428631874869D+02 -.210821249275993D+02
 0.232966665992027D+03 -.180020191738742D+03 0.600590358102133D+02 -.135126275192262D+03
0.186898555577D-04 0.000000000000D+00 0.000000000000D+00 0.330659937482D-09 0.000000000000D+00  7 -1 1 24 -13 13 -24 21 0 0.90398814D-01 0.18933746D-01 0.69234464D+05 0.69234464D+05 0.69234464D+05 0.11350658D+01  1  2  2  2  7  2        1 0.828142310640D-03 0.100000000000D+01
-.103772734103D-05 0.000000000000D+00 -.717739664934D-07 0.330659937482D-09 0.000000000000D+00  7 -1 1 24 -13 13 -24 21 2 0.90398814D-01 0.18933746D-01 0.69234464D+05 0.69234464D+05 0.69234464D+05 0.11350658D+01  1  2  3  2  7  2        1 -.592412733722D-04 0.100000000000D+01
0.121290077518D-05 0.000000000000D+00 0.000000000000D+00 0.330659937482D-09 0.000000000000D+00  7 -1 1 24 -13 13 -24 21 2 0.90398814D-01 0.18933746D-01 0.69234464D+05 0.69234464D+05 0.69234464D+05 0.11350658D+01  1  2 15  2  7  2        1 0.692414891227D-04 0.100000000000D+01
0.178671894088D-05 0.000000000000D+00 0.000000000000D+00 0.330659937482D-09 0.000000000000D+00  7 -1 1 24 -13 13 -24 21 2 0.90398814D-01 0.33914078D-01 0.14025657D+06 0.14025657D+06 0.14025657D+06 0.11098611D+01  1  2 12  2  7  2        1 0.451933659432D-04 0.100000000000D+01
-.857795269762D-05 0.000000000000D+00 -.618635251155D-05 0.330659937482D-09 0.000000000000D+00  7 -1 1 24 -13 13 -24 21 2 0.90398814D-01 0.40293827D-01 0.69234464D+05 0.69234464D+05 0.69234464D+05 0.11350658D+01  1  2  5  2  7  2        1 -.184224478450D-03 0.100000000000D+01
0.114348877375D-06 0.000000000000D+00 0.000000000000D+00 0.330659937482D-09 0.000000000000D+00  7 -1 21 24 -13 13 -24 -1 2 0.90398814D-01 0.33914078D-01 0.14025657D+06 0.14025657D+06 0.14025657D+06 0.11098611D+01  1  2 12  4  7  2        1 0.171264898617D-04 0.100000000000D+01
-.315441088490D-06 0.000000000000D+00 -.505508240279D-06 0.330659937482D-09 0.000000000000D+00  7 -1 21 24 -13 13 -24 -1 2 0.90398814D-01 0.40293827D-01 0.69234464D+05 0.69234464D+05 0.69234464D+05 0.11350658D+01  1  2  5  4  7  2        1 -.361529936110D-04 0.100000000000D+01
  </mgrwgt>
  </event>
  <event>
  8     66 0.29788925E-05 0.48253645E+03 0.75467711E-02 0.92370787E-01
       -1 -1    0    0    0  501 0.00000000E+00 0.00000000E+00 0.31905678E+03 0.31905694E+03 0.32000000E+00 0.0000E+00 0.9000E+01
        1 -1    0    0  501    0 0.00000000E+00 0.00000000E+00 -.76433881E+03 0.76433887E+03 0.32000000E+00 0.0000E+00 0.9000E+01
       25  2    1    2    0    0 0.43953313E+03 0.41687481E+02 -.22414859E+03 0.58094287E+03 0.30384998E+03 0.0000E+00 0.0000E+00
       23  2    1    2    0    0 -.43953313E+03 -.41687481E+02 -.22113344E+03 0.50245295E+03 0.92907232E+02 0.0000E+00 0.0000E+00
       24  1    3    3    0    0 0.34917806E+03 0.11771303E+03 -.22283583E+03 0.43806929E+03 0.80419002E+02 0.0000E+00 0.9000E+01
      -11  1    4    4    0    0 -.41880389E+03 -.27062665E+02 -.22594108E+03 0.47663242E+03 0.51099893E-03 0.0000E+00 0.9000E+01
       11  1    4    4    0    0 -.20729234E+02 -.14624816E+02 0.48076470E+01 0.25820531E+02 0.51099893E-03 0.0000E+00 0.9000E+01
      -24  1    3    3    0    0 0.90355064E+02 -.76025547E+02 -.13127592E+01 0.14287358E+03 0.80419002E+02 0.0000E+00 0.9000E+01
#aMCatNLO 1  0  0  2  1 0.23538134D+03 0.00000000D+00  -5  7  0 0.00000000D+00 0.00000000D+00 0.00000000D+00 0.00000000D+00 0.00000000D+00
  <mgrwgt>
 0.1207704995D-02    3    2    0
 0.493829528374090D+03 0.000000000000000D+00 0.000000000000000D+00 0.493829528374090D+03
 0.493829528374090D+03 0.000000000000000D+00 0.000000000000000D+00 -.493829528374090D+03
 0.380068039289796D+03 0.349178061462231D+03 0.117713028212204D+03 -.469342403561693D+02
 0.420969220024461D+03 -.418803891552176D+03 -.270626651265289D+02 -.329544653272614D+02
 0.304909008723695D+02 -.207292338337098D+02 -.146248156114858D+02 0.169147470866722D+02
 0.156130896561554D+03 0.903550639236549D+02 -.760255474741890D+02 0.629739585967585D+02
 0.000000000000000D+00 0.000000000000000D+00 -.000000000000000D+00 0.000000000000000D+00
 0.951549437494629D+03 0.000000000000000D+00 0.000000000000000D+00 0.951549437494629D+03
 0.538863949223842D+03 0.000000000000000D+00 0.000000000000000D+00 -.538863949223842D+03
 0.394356308151366D+03 0.323709147879871D+03 0.205083511003400D+03 -.469342403561693D+02
 0.454499825907378D+03 -.447595916943091D+03 0.717076711426625D+02 -.329544653272614D+02
 0.293812571375271D+02 -.226982819704089D+02 -.787004431799563D+01 0.169147470866722D+02
 0.137082650352952D+03 0.807119909595650D+02 -.429452224050114D+02 0.629739585967585D+02
 0.475093345169249D+03 0.658730600740643D+02 -.225975915423055D+03 0.412685488270787D+03
0.100354312665D-03 0.000000000000D+00 0.000000000000D+00 0.476981946960D-07 0.000000000000D+00  7 -1 1 24 -11 11 -24 21 0 0.49085676D-01 0.11759060D+00 0.23284142D+06 0.23284142D+06 0.23284142D+06 0.10927898D+01  1  2  2  2  7  2        1 0.119589022332D-02 0.100000000000D+01
-.557161179095D-05 0.000000000000D+00 -.385386984532D-06 0.476981946960D-07 0.000000000000D+00  7 -1 1 24 -11 11 -24 21 2 0.49085676D-01 0.11759060D+00 0.23284142D+06 0.23284142D+06 0.23284142D+06 0.10927898D+01  1  2  3  2  7  2        1 -.792883534197D-04 0.100000000000D+01
0.640183864715D-05 0.000000000000D+00 0.000000000000D+00 0.476981946960D-07 0.000000000000D+00  7 -1 1 24 -11 11 -24 21 2 0.49085676D-01 0.11759060D+00 0.23284142D+06 0.23284142D+06 0.23284142D+06 0.10927898D+01  1  2 15  2  7  2        1 0.911031249548D-04 0.100000000000D+01
  </mgrwgt>
  </event>
  <event>
  8     66 0.29788925E-05 0.17905448E+03 0.75467711E-02 0.91042218E-01
       -1 -1    0    0    0  501 0.00000000E+00 0.00000000E+00 0.38913170E+03 0.38913183E+03 0.32000000E+00 0.0000E+00 0.9000E+01
        1 -1    0    0  501    0 0.00000000E+00 0.00000000E+00 -.58999723E+03 0.58999731E+03 0.32000000E+00 0.0000E+00 0.9000E+01
       25  2    1    2    0    0 0.11630850E+03 0.41143776E+03 -.88283035E+02 0.52949362E+03 0.29960125E+03 0.0000E+00 0.0000E+00
       23  2    1    2    0    0 -.11630850E+03 -.41143776E+03 -.11258249E+03 0.44963552E+03 0.81783806E+02 0.0000E+00 0.0000E+00
       24  1    3    3    0    0 0.14312193E+03 0.19052456E+03 -.13921156E+03 0.28745533E+03 0.80419002E+02 0.0000E+00 0.9000E+01
      -11  1    4    4    0    0 -.47291109E+02 -.57619239E+02 -.25464874E+02 0.78771095E+02 0.51099893E-03 0.0000E+00 0.9000E+01
       11  1    4    4    0    0 -.69017388E+02 -.35381852E+03 -.87117616E+02 0.37086443E+03 0.51099893E-03 0.0000E+00 0.9000E+01
      -24  1    3    3    0    0 -.26813438E+02 0.22091320E+03 0.50928523E+02 0.24203829E+03 0.80419002E+02 0.0000E+00 0.9000E+01
#aMCatNLO 1  0  0  1  2 0.38711708D+03 0.00000000D+00  -5  7  0 0.00000000D+00 0.00000000D+00 0.00000000D+00 0.00000000D+00 0.00000000D+00
  <mgrwgt>
 0.1022435989D-02    7    2    0
 0.479152095787104D+03 0.000000000000000D+00 0.000000000000000D+00 0.479152095787104D+03
 0.479152095787104D+03 0.000000000000000D+00 0.000000000000000D+00 -.479152095787104D+03
 0.264522575538307D+03 0.143121934735348D+03 0.190524557794640D+03 -.819846430120686D+02
 0.751453041256609D+02 -.472911085148148D+02 -.576192389350586D+02 -.950742300114587D+01
 0.360663395880901D+03 -.690173883142026D+02 -.353818519271812D+03 -.112756666735532D+02
 0.257972916029339D+03 -.268134379063308D+02 0.220913200412230D+03 0.102767732686768D+03
 0.000000000000000D+00 -.000000000000000D+00 0.000000000000000D+00 0.000000000000000D+00
 0.133704005444720D+04 0.000000000000000D+00 0.000000000000000D+00 0.133704005444720D+04
 0.562444284884745D+03 0.000000000000000D+00 0.000000000000000D+00 -.562444284884745D+03
 0.341667448323149D+03 0.260915282192194D+03 0.188337896128296D+03 -.819846430120686D+02
 0.623765300616342D+02 -.205682055311308D+02 -.581153106473363D+02 -.950742300114587D+01
 0.363756436117194D+03 0.717500832974448D+02 -.356431662039947D+03 -.112756666735532D+02
 0.265740371128528D+03 0.749532338857682D+02 0.219024050600942D+03 0.102767732686768D+03
 0.865943553701440D+03 -.387050393844276D+03 0.718502595804481D+01 0.774595769562455D+03
0.937028856630D-04 0.000000000000D+00 0.000000000000D+00 0.338934402661D-07 0.000000000000D+00  7 -1 1 24 -11 11 -24 21 0 0.59866432D-01 0.90768821D-01 0.21304919D+06 0.21304919D+06 0.21304919D+06 0.10957234D+01  1  2  2  1  7  1       -1 0.114495842649D-02 0.100000000000D+01
-.519687255774D-05 0.000000000000D+00 -.359843753482D-06 0.338934402661D-07 0.000000000000D+00  7 -1 1 24 -11 11 -24 21 2 0.59866432D-01 0.90768821D-01 0.21304919D+06 0.21304919D+06 0.21304919D+06 0.10957234D+01  1  2  3  1  7  1       -1 -.762396094203D-04 0.100000000000D+01
0.597432307565D-05 0.000000000000D+00 0.000000000000D+00 0.338934402661D-07 0.000000000000D+00  7 -1 1 24 -11 11 -24 21 2 0.59866432D-01 0.90768821D-01 0.21304919D+06 0.21304919D+06 0.21304919D+06 0.10957234D+01  1  2 15  1  7  1       -1 0.876450312717D-04 0.100000000000D+01
0.525227544093D-05 0.000000000000D+00 0.000000000000D+00 0.338934402661D-07 0.000000000000D+00  7 -1 1 24 -11 11 -24 21 2 0.16248244D+00 0.90768821D-01 0.48239729D+06 0.48239729D+06 0.48239729D+06 0.10696122D+01  1  2 12  1  7  1       -1 0.707104177559D-05 0.100000000000D+01
-.821354068990D-04 0.000000000000D+00 -.292542911414D-04 0.338934402661D-07 0.000000000000D+00  7 -1 1 24 -11 11 -24 21 2 0.18063137D+00 0.90768821D-01 0.21304919D+06 0.21304919D+06 0.21304919D+06 0.10957234D+01  1  2  5  1  7  1       -1 -.866037048316D-04 0.100000000000D+01
0.585519462259D-06 0.000000000000D+00 0.000000000000D+00 0.338934402661D-07 0.000000000000D+00  7 21 1 24 -11 11 -24 1 2 0.16248244D+00 0.90768821D-01 0.48239729D+06 0.48239729D+06 0.48239729D+06 0.10696122D+01  1  2 12  3  7  1       -1 0.484755648076D-05 0.100000000000D+01
-.888505436173D-05 0.000000000000D+00 -.367985555689D-05 0.338934402661D-07 0.000000000000D+00  7 21 1 24 -11 11 -24 1 2 0.18063137D+00 0.90768821D-01 0.21304919D+06 0.21304919D+06 0.21304919D+06 0.10957234D+01  1  2  5  3  7  1       -1 -.592427526703D-04 0.100000000000D+01
  </mgrwgt>
  </event>
  <event>
  8     66 0.29788925E-05 0.31190002E+03 0.75467711E-02 0.99548789E-01
       -1 -1    0    0    0  501 0.00000000E+00 0.00000000E+00 0.39573384E+03 0.39573397E+03 0.32000000E+00 0.0000E+00 0.9000E+01
        1 -1    0    0  501    0 0.00000000E+00 0.00000000E+00 -.35332842E+03 0.35332857E+03 0.32000000E+00 0.0000E+00 0.9000E+01
       25  2    1    2    0    0 -.22584189E+02 0.28439031E+03 -.85972571E+02 0.42290397E+03 0.30011429E+03 0.0000E+00 0.0000E+00
       23  2    1    2    0    0 0.22584189E+02 -.28439031E+03 0.12837799E+03 0.32615857E+03 0.92252948E+02 0.0000E+00 0.0000E+00
       24  1    3    3    0    0 0.11703641E+02 0.72033724E+02 -.14936247E+03 0.18466780E+03 0.80419002E+02 0.0000E+00 0.9000E+01
      -11  1    4    4    0    0 0.46619252E+01 -.19079775E+02 -.14383464E+02 0.24344514E+02 0.51099893E-03 0.0000E+00 0.9000E+01
       11  1    4    4    0    0 0.17922264E+02 -.26531054E+03 0.14276145E+03 0.30181405E+03 0.51099893E-03 0.0000E+00 0.9000E+01
      -24  1    3    3    0    0 -.34287830E+02 0.21235659E+03 0.63389902E+02 0.23823617E+03 0.80419002E+02 0.0000E+00 0.9000E+01
#aMCatNLO 1  0  0  2  2 0.38836470D+02 0.00000000D+00  -5  7  0 0.00000000D+00 0.00000000D+00 0.00000000D+00 0.00000000D+00 0.00000000D+00
  <mgrwgt>
 0.6688569816D-03    4    2    0
 0.373930630696785D+03 0.000000000000000D+00 0.000000000000000D+00 0.373930630696785D+03
 0.373930630696785D+03 0.000000000000000D+00 0.000000000000000D+00 -.373930630696785D+03
 0.193433618653857D+03 0.117036411094394D+02 0.720337235957531D+02 -.160073471633707D+03
 0.251991932759329D+02 0.466192522878996D+01 -.190797745544770D+02 -.157869565739988D+02
 0.294203955154997D+03 0.179222638965673D+02 -.265310539762398D+03 0.125877230572691D+03
 0.235024494308784D+03 -.342878302347967D+02 0.212356590721122D+03 0.499831976350150D+02
 0.000000000000000D+00 0.000000000000000D+00 0.000000000000000D+00 0.000000000000000D+00
 0.454705468432097D+03 0.000000000000000D+00 0.000000000000000D+00 0.454705468432097D+03
 0.379131922793638D+03 0.000000000000000D+00 0.000000000000000D+00 -.379131922793638D+03
 0.190044240788316D+03 0.752423739390469D+01 0.630037065037438D+02 -.160073471633707D+03
 0.260306365096966D+02 0.410358754206216D+01 -.202861186163165D+02 -.157869565739988D+02
 0.306712778935834D+03 0.113730627644875D+02 -.279460739692083D+03 0.125877230572691D+03
 0.226081316086478D+03 -.393132763975138D+02 0.201498614839148D+03 0.499831976350150D+02
 0.849684189054097D+02 0.163123886970594D+02 0.352445369655081D+02 0.755735456384585D+02
0.311331595653D-04 0.000000000000D+00 0.000000000000D+00 0.222424498623D-05 0.000000000000D+00  7 -1 1 24 -11 11 -24 21 0 0.60882150D-01 0.54358240D-01 0.97281621D+05 0.97281621D+05 0.97281621D+05 0.11227056D+01  1  2  2  2  7  2        1 0.759084860724D-03 0.100000000000D+01
-.166042931477D-05 0.000000000000D+00 -.119559530280D-06 0.222424498623D-05 0.000000000000D+00  7 -1 1 24 -11 11 -24 21 2 0.60882150D-01 0.54358240D-01 0.97281621D+05 0.97281621D+05 0.97281621D+05 0.11227056D+01  1  2  3  2  7  2        1 -.510292619590D-04 0.100000000000D+01
0.198469133879D-05 0.000000000000D+00 0.000000000000D+00 0.222424498623D-05 0.000000000000D+00  7 -1 1 24 -11 11 -24 21 2 0.60882150D-01 0.54358240D-01 0.97281621D+05 0.97281621D+05 0.97281621D+05 0.11227056D+01  1  2 15  2  7  2        1 0.609946676644D-04 0.100000000000D+01
-.326016604884D-05 0.000000000000D+00 0.000000000000D+00 0.222424498623D-05 0.000000000000D+00  7 -1 1 24 -11 11 -24 21 2 0.60882150D-01 0.54358240D-01 0.97281621D+05 0.97281621D+05 0.97281621D+05 0.11227056D+01  1  2  4  2  7  2        1 -.100193284867D-03 0.100000000000D+01
  </mgrwgt>
  </event>
  <event>
  8     66 0.29788925E-05 0.20518391E+03 0.75467711E-02 0.89034441E-01
       -1 -1    0    0    0  501 0.00000000E+00 0.00000000E+00 0.98738887E+03 0.98738892E+03 0.32000000E+00 0.0000E+00 0.9000E+01
        1 -1    0    0  501    0 0.00000000E+00 0.00000000E+00 -.28076468E+03 0.28076486E+03 0.32000000E+00 0.0000E+00 0.9000E+01
       25  2    1    2    0    0 -.66201356E+02 -.64452374E+02 -.18664732E+03 0.36556244E+03 0.30043626E+03 0.0000E+00 0.0000E+00
       23  2    1    2    0    0 0.66201356E+02 0.64452374E+02 0.89327151E+03 0.90259135E+03 0.90556128E+02 0.0000E+00 0.0000E+00
       24  1    3    3    0    0 0.16089645E+02 -.12700672E+03 -.17910006E+03 0.23437924E+03 0.80419002E+02 0.0000E+00 0.9000E+01
      -11  1    4    4    0    0 0.31437957E+00 0.62294153E+02 0.37408311E+03 0.37923454E+03 0.51099893E-03 0.0000E+00 0.9000E+01
       11  1    4    4    0    0 0.65886976E+02 0.21582207E+01 0.51918840E+03 0.52335681E+03 0.51099893E-03 0.0000E+00 0.9000E+01
      -24  1    3    3    0    0 -.82291000E+02 0.62554343E+02 -.75472640E+01 0.13118320E+03 0.80419002E+02 0.0000E+00 0.9000E+01
#aMCatNLO 1  0  0  1  1 0.78900603D+03 0.00000000D+00  -5  7  0 0.00000000D+00 0.00000000D+00 0.00000000D+00 0.00000000D+00 0.00000000D+00
  <mgrwgt>
 0.9626660057D-03    3    2    0
 0.526520720144984D+03 0.000000000000000D+00 0.000000000000000D+00 0.526520720144984D+03
 0.526520720144984D+03 0.000000000000000D+00 0.000000000000000D+00 -.526520720144984D+03
 0.402439390430662D+03 0.160896445565593D+02 -.127006717002064D+03 -.372962014406606D+03
 0.205681874375298D+03 0.314379571886757D+00 0.622941531586662D+02 0.196021358770583D+03
 0.281874787811155D+03 0.658869759546098D+02 0.215822069156170D+01 0.274057739329847D+03
 0.163045387672852D+03 -.822910000830558D+02 0.625543431518357D+02 -.971170836938236D+02
 0.000000000000000D+00 -.000000000000000D+00 0.000000000000000D+00 -.000000000000000D+00
 0.809906611325413D+03 0.000000000000000D+00 0.000000000000000D+00 0.809906611325413D+03
 0.168189715735801D+04 0.000000000000000D+00 0.000000000000000D+00 -.168189715735801D+04
 0.586811018439071D+03 0.210529499846848D+03 -.393009695696088D+03 -.372962014406606D+03
 0.219469335999975D+03 0.838790049495092D+02 -.520262326013002D+02 0.196021358770583D+03
 0.380045934193595D+03 0.195989292058069D+03 -.175827941491312D+03 0.274057739329847D+03
 0.129510629714958D+03 -.247883200991453D+02 -.161120605840316D+02 -.971170836938236D+02
 0.117596685033582D+04 -.465609476755281D+03 0.636975930372732D+03 -.871990546032593D+03
0.198842660826D-03 0.000000000000D+00 0.000000000000D+00 0.400616774501D-05 0.000000000000D+00  7 -1 1 24 -11 11 -24 21 0 0.15190600D+00 0.43194584D-01 0.42100438D+05 0.42100438D+05 0.42100438D+05 0.11539230D+01  1  2  2  1  7  1       -1 0.884234332886D-03 0.100000000000D+01
0.881369919909D-06 0.000000000000D+00 -.763608174046D-06 0.400616774501D-05 0.000000000000D+00  7 -1 1 24 -11 11 -24 21 2 0.15190600D+00 0.43194584D-01 0.42100438D+05 0.42100438D+05 0.42100438D+05 0.11539230D+01  1  2  3  1  7  1       -1 0.521878861048D-05 0.100000000000D+01
0.123644850797D-04 0.000000000000D+00 0.000000000000D+00 0.400616774501D-05 0.000000000000D+00  7 -1 1 24 -11 11 -24 21 2 0.15190600D+00 0.43194584D-01 0.42100438D+05 0.42100438D+05 0.42100438D+05 0.11539230D+01  1  2 15  1  7  1       -1 0.732128842281D-04 0.100000000000D+01
  </mgrwgt>
  </event>
  <event>
  8     66 0.29788925E-05 0.30494179E+03 0.75467711E-02 0.10011564E+00
       -1 -1    0    0    0  501 0.00000000E+00 0.00000000E+00 0.53486983E+03 0.53486992E+03 0.32000000E+00 0.0000E+00 0.9000E+01
        1 -1    0    0  501    0 0.00000000E+00 0.00000000E+00 -.28132699E+03 0.28132717E+03 0.32000000E+00 0.0000E+00 0.9000E+01
       25  2    1    2    0    0 -.11074235E+03 0.25191114E+03 -.33490578E+02 0.40808446E+03 0.29947992E+03 0.0000E+00 0.0000E+00
       23  2    1    2    0    0 0.11074235E+03 -.25191114E+03 0.28703342E+03 0.40811263E+03 0.91894777E+02 0.0000E+00 0.0000E+00
       24  1    3    3    0    0 -.10468161E+02 0.14907472E+03 0.99269113E+02 0.19660729E+03 0.80419002E+02 0.0000E+00 0.9000E+01
      -13  1    4    4    0    0 0.41552394E+01 -.18615576E+02 0.68636398E+02 0.71237434E+02 0.10565837E+00 0.0000E+00 0.9000E+01
       13  1    4    4    0    0 0.10658711E+03 -.23329556E+03 0.21839702E+03 0.33687520E+03 0.10565837E+00 0.0000E+00 0.9000E+01
      -24  1    3    3    0    0 -.10027419E+03 0.10283642E+03 -.13275969E+03 0.21147717E+03 0.80419002E+02 0.0000E+00 0.9000E+01
#aMCatNLO 1  0  0  1  1 0.23014176D+02 0.00000000D+00  -5  7  0 0.00000000D+00 0.00000000D+00 0.00000000D+00 0.00000000D+00 0.00000000D+00
  <mgrwgt>
 0.4140049511D-03    4    2    0
 0.387909051700638D+03 0.000000000000000D+00 0.000000000000000D+00 0.387909051700638D+03
 0.387909051700638D+03 0.000000000000000D+00 0.000000000000000D+00 -.387909051700638D+03
 0.174398263853826D+03 -.104681613884840D+02 0.149074723137855D+03 0.401831183381125D+02
 0.525139630184840D+02 0.415510408910500D+01 -.186152926079625D+02 0.489277253000315D+02
 0.283035154368196D+03 0.106587243096706D+03 -.233295847759394D+03 0.119670821988896D+03
 0.265870722160769D+03 -.100274185797327D+03 0.102836417229501D+03 -.208781665627040D+03
 0.000000000000000D+00 0.000000000000000D+00 0.000000000000000D+00 -.000000000000000D+00
 0.390977230102678D+03 0.000000000000000D+00 0.000000000000000D+00 0.390977230102678D+03
 0.433778124972139D+03 0.000000000000000D+00 0.000000000000000D+00 -.433778124972139D+03
 0.170135209485424D+03 -.111580892885282D+02 0.144012456392955D+03 0.401831183381125D+02
 0.530675718605535D+02 0.394367718205723D+01 -.201666132611151D+02 0.489277253000315D+02
 0.289589872531367D+03 0.105440562112439D+03 -.241709487812639D+03 0.119670821988896D+03
 0.263366725270896D+03 -.101333983201603D+03 0.950602754679406D+02 -.208781665627040D+03
 0.485959759265770D+02 0.310783319563561D+01 0.228033692128582D+02 -.428008948694607D+02
0.282957846627D-04 0.000000000000D+00 0.000000000000D+00 0.161693202146D-05 0.000000000000D+00  7 -1 1 24 -13 13 -24 21 0 0.82287687D-01 0.43281097D-01 0.92989497D+05 0.92989497D+05 0.92989497D+05 0.11243216D+01  1  2  2  1  7  1       -1 0.518510758208D-03 0.100000000000D+01
-.146129955235D-05 0.000000000000D+00 -.108663263556D-06 0.161693202146D-05 0.000000000000D+00  7 -1 1 24 -13 13 -24 21 2 0.82287687D-01 0.43281097D-01 0.92989497D+05 0.92989497D+05 0.92989497D+05 0.11243216D+01  1  2  3  1  7  1       -1 -.338498248703D-04 0.100000000000D+01
0.181025659136D-05 0.000000000000D+00 0.000000000000D+00 0.161693202146D-05 0.000000000000D+00  7 -1 1 24 -13 13 -24 21 2 0.82287687D-01 0.43281097D-01 0.92989497D+05 0.92989497D+05 0.92989497D+05 0.11243216D+01  1  2 15  1  7  1       -1 0.419331330727D-04 0.100000000000D+01
-.486048079846D-05 0.000000000000D+00 0.000000000000D+00 0.161693202146D-05 0.000000000000D+00  7 -1 1 24 -13 13 -24 21 2 0.82287687D-01 0.43281097D-01 0.92989497D+05 0.92989497D+05 0.92989497D+05 0.11243216D+01  1  2  4  1  7  1       -1 -.112589115318D-03 0.100000000000D+01
  </mgrwgt>
  </event>
  <event>
  8     66 0.29788925E-05 0.32192238E+03 0.75467711E-02 0.99647386E-01
       -1 -1    0    0    0  501 0.00000000E+00 0.00000000E+00 0.29240726E+03 0.29240744E+03 0.32000000E+00 0.0000E+00 0.9000E+01
        1 -1    0    0  501    0 0.00000000E+00 0.00000000E+00 -.12529489E+04 0.12529489E+04 0.32000000E+00 0.0000E+00 0.9000E+01
       25  2    1    2    0    0 -.41959661E+01 -.26912993E+03 -.11394333E+04 0.12087134E+04 0.30038549E+03 0.0000E+00 0.0000E+00
       23  2    1    2    0    0 0.41959661E+01 0.26912993E+03 0.17889166E+03 0.33664292E+03 0.94221562E+02 0.0000E+00 0.0000E+00
       24  1    3    3    0    0 0.89433517E+02 -.15554701E+03 -.86511352E+03 0.88717634E+03 0.80419002E+02 0.0000E+00 0.9000E+01
      -11  1    4    4    0    0 0.21457032E+02 0.18695079E+02 0.11336791E+00 0.28459147E+02 0.51099893E-03 0.0000E+00 0.9000E+01
       11  1    4    4    0    0 -.17261065E+02 0.25043485E+03 0.17877830E+03 0.30818377E+03 0.51099893E-03 0.0000E+00 0.9000E+01
      -24  1    3    3    0    0 -.93629483E+02 -.11358292E+03 -.27431974E+03 0.32153708E+03 0.80419002E+02 0.0000E+00 0.9000E+01
#aMCatNLO 1  0  0  1  1 0.14289022D+02 0.00000000D+00  -5  7  0 0.00000000D+00 0.00000000D+00 0.00000000D+00 0.00000000D+00 0.00000000D+00
  <mgrwgt>
 0.4671749820D-03    4    2    0
 0.605286305397909D+03 0.000000000000000D+00 0.000000000000000D+00 0.605286305397909D+03
 0.605286305397909D+03 0.000000000000000D+00 0.000000000000000D+00 -.605286305397909D+03
 0.446091413101681D+03 0.894335167317861D+02 -.155547011013689D+03 -.400421161202023D+03
 0.364194737546725D+02 0.214570315557342D+02 0.186950790454798D+02 0.227259297910287D+02
 0.535265486007942D+03 -.172610654787109D+02 0.250434850462010D+03 0.472751078056866D+03
 0.192796237931523D+03 -.936294828088093D+02 -.113582918493800D+03 -.950558466458716D+02
 0.000000000000000D+00 0.000000000000000D+00 0.000000000000000D+00 -.000000000000000D+00
 0.608053879002743D+03 0.000000000000000D+00 0.000000000000000D+00 0.608053879002743D+03
 0.624057409541794D+03 0.000000000000000D+00 0.000000000000000D+00 -.624057409541794D+03
 0.446038356569228D+03 0.847685719333371D+02 -.157987918685617D+03 -.400421161202023D+03
 0.360953005996749D+02 0.210778519442749D+02 0.184966753209690D+02 0.227259297910287D+02
 0.534112844553377D+03 -.228528426509561D+02 0.247508982656675D+03 0.472751078056866D+03
 0.194410436541106D+03 -.956541857426349D+02 -.114642333586170D+03 -.950558466458716D+02
 0.214543502811519D+02 0.126606045159789D+02 0.662459429414381D+01 -.160035305390509D+02
0.938085779965D-04 0.000000000000D+00 0.000000000000D+00 0.151122888460D-05 0.000000000000D+00  7 -1 1 24 -11 11 -24 21 0 0.44985749D-01 0.19276138D+00 0.10363402D+06 0.10363402D+06 0.10363402D+06 0.11204521D+01  1  2  2  1  7  1       -1 0.567115805402D-03 0.100000000000D+01
-.268549949408D-05 0.000000000000D+00 -.360249639873D-06 0.151122888460D-05 0.000000000000D+00  7 -1 1 24 -11 11 -24 21 2 0.44985749D-01 0.19276138D+00 0.10363402D+06 0.10363402D+06 0.10363402D+06 0.11204521D+01  1  2  3  1  7  1       -1 -.203817220596D-04 0.100000000000D+01
0.588130970608D-05 0.000000000000D+00 0.000000000000D+00 0.151122888460D-05 0.000000000000D+00  7 -1 1 24 -11 11 -24 21 2 0.44985749D-01 0.19276138D+00 0.10363402D+06 0.10363402D+06 0.10363402D+06 0.11204521D+01  1  2 15  1  7  1       -1 0.446364708092D-04 0.100000000000D+01
-.163640317174D-04 0.000000000000D+00 0.000000000000D+00 0.151122888460D-05 0.000000000000D+00  7 -1 1 24 -11 11 -24 21 2 0.44985749D-01 0.19276138D+00 0.10363402D+06 0.10363402D+06 0.10363402D+06 0.11204521D+01  1  2  4  1  7  1       -1 -.124195572173D-03 0.100000000000D+01
  </mgrwgt>
  </event>
  <event>
  8     66 0.29788925E-05 0.44581693E+03 0.75467711E-02 0.90105635E-01
       -3 -1    0    0    0  501 0.00000000E+00 0.00000000E+00 0.30108889E+03 0.30108930E+03 0.50000000E+00 0.0000E+00 0.9000E+01
        3 -1    0    0  501    0 0.00000000E+00 0.00000000E+00 -.73129098E+03 0.73129115E+03 0.50000000E+00 0.0000E+00 0.9000E+01
       25  2    1    2    0    0 -.28775903E+03 0.26870671E+03 -.87907253E+02 0.50291783E+03 0.30031668E+03 0.0000E+00 0.0000E+00
       23  2    1    2    0    0 0.28775903E+03 -.26870671E+03 -.34229484E+03 0.52946262E+03 0.90312530E+02 0.0000E+00 0.0000E+00
       24  1    3    3    0    0 -.26035221E+03 0.74964913E+02 -.34360464E+02 0.28469434E+03 0.80419002E+02 0.0000E+00 0.9000E+01
      -13  1    4    4    0    0 0.60242392E+02 -.89329545E+02 -.13740305E+03 0.17460963E+03 0.10565837E+00 0.0000E+00 0.9000E+01
       13  1    4    4    0    0 0.22751664E+03 -.17937716E+03 -.20489179E+03 0.35485299E+03 0.10565837E+00 0.0000E+00 0.9000E+01
      -24  1    3    3    0    0 -.27406822E+02 0.19374179E+03 -.53546789E+02 0.21822349E+03 0.80419002E+02 0.0000E+00 0.9000E+01
#aMCatNLO 1  0  0  1  2 0.50112301D+03 0.00000000D+00  -5  7  0 0.00000000D+00 0.00000000D+00 0.00000000D+00 0.00000000D+00 0.00000000D+00
  <mgrwgt>
 0.7774121236D-04    3    2    0
 0.469237562988716D+03 0.000000000000000D+00 0.000000000000000D+00 0.469237562988716D+03
 0.469237562988716D+03 0.000000000000000D+00 0.000000000000000D+00 -.469237562988716D+03
 0.297430294471540D+03 -.260352211478739D+03 0.749649134344282D+02 0.927068058286715D+02
 0.129094816381968D+03 0.602421632672603D+02 -.893294217708217D+02 -.711098290510208D+02
 0.296436871569886D+03 0.227516870113859D+03 -.179377285961070D+03 -.627270429796805D+02
 0.215513143554038D+03 -.274068219023806D+02 0.193741794297464D+03 0.411300662020298D+02
 0.000000000000000D+00 -.000000000000000D+00 0.000000000000000D+00 -.000000000000000D+00
 0.724378431928685D+03 0.000000000000000D+00 0.000000000000000D+00 0.724378431928685D+03
 0.858191902309427D+03 0.000000000000000D+00 0.000000000000000D+00 -.858191902309427D+03
 0.201505614329830D+03 -.159818404820793D+03 0.906799676871145D+00 0.927068058286715D+02
 0.200536453783740D+03 0.126661688899049D+03 -.138257289405417D+03 -.711098290510208D+02
 0.490674310079427D+03 0.386116966756216D+03 -.296209865861901D+03 -.627270429796805D+02
 0.171172634251646D+03 0.505089835899248D+02 0.136345205244653D+03 0.411300662020298D+02
 0.518681321793469D+03 -.403469234424398D+03 0.297215150345794D+03 -.133813470380742D+03
0.593090454673D-04 0.000000000000D+00 0.000000000000D+00 0.255581865447D-05 0.000000000000D+00  7 -3 3 24 -13 13 -24 21 0 0.46321412D-01 0.11250635D+00 0.19875273D+06 0.19875273D+06 0.19875273D+06 0.10980341D+01  1  2  2  1  7  1       -3 0.769206073987D-04 0.100000000000D+01
-.328444470312D-05 0.000000000000D+00 -.227762351025D-06 0.255581865447D-05 0.000000000000D+00  7 -3 3 24 -13 13 -24 21 2 0.46321412D-01 0.11250635D+00 0.19875273D+06 0.19875273D+06 0.19875273D+06 0.10980341D+01  1  2  3  1  7  1       -3 -.513588613163D-05 0.100000000000D+01
0.380922884972D-05 0.000000000000D+00 0.000000000000D+00 0.255581865447D-05 0.000000000000D+00  7 -3 3 24 -13 13 -24 21 2 0.46321412D-01 0.11250635D+00 0.19875273D+06 0.19875273D+06 0.19875273D+06 0.10980341D+01  1  2 15  1  7  1       -3 0.595649109359D-05 0.100000000000D+01
  </mgrwgt>
  </event>
  <event>
  8     66 -.29788925E-05 0.12291907E+03 0.75467711E-02 0.10026972E+00
       -1 -1    0    0    0  501 0.00000000E+00 0.00000000E+00 0.27036294E+03 0.27036313E+03 0.32000000E+00 0.0000E+00 0.9000E+01
        1 -1    0    0  501    0 0.00000000E+00 0.00000000E+00 -.11685293E+04 0.11685294E+04 0.32000000E+00 0.0000E+00 0.9000E+01
       25  2    1    2    0    0 -.24249998E+03 0.75144180E+01 0.10724087E+03 0.40070170E+03 0.30033071E+03 0.0000E+00 0.0000E+00
       23  2    1    2    0    0 0.24249998E+03 -.75144180E+01 -.10054073E+04 0.10381908E+04 0.90186831E+02 0.0000E+00 0.0000E+00
       24  1    3    3    0    0 0.37006797E+02 0.22150294E+02 0.27068445E+01 0.91294477E+02 0.80419002E+02 0.0000E+00 0.9000E+01
      -11  1    4    4    0    0 0.10204711E+03 -.10335038E+02 -.61014820E+03 0.61870934E+03 0.51099893E-03 0.0000E+00 0.9000E+01
       11  1    4    4    0    0 0.14045288E+03 0.28206199E+01 -.39525907E+03 0.41948147E+03 0.51099893E-03 0.0000E+00 0.9000E+01
      -24  1    3    3    0    0 -.27950678E+03 -.14635876E+02 0.10453403E+03 0.30940722E+03 0.80419002E+02 0.0000E+00 0.9000E+01
#aMCatNLO 1  0  0  2  1 0.86170555D+01 0.00000000D+00  -5  7  0 0.00000000D+00 0.00000000D+00 0.00000000D+00 0.00000000D+00 0.00000000D+00
  <mgrwgt>
 -.9039613488D-05    1    2    0
 0.562074008088465D+03 0.000000000000000D+00 0.000000000000000D+00 0.562074008088465D+03
 0.562074008088465D+03 0.000000000000000D+00 0.000000000000000D+00 -.562074008088465D+03
 0.119018255269494D+03 0.370067966018256D+02 0.221502944697336D+02 0.764067444221976D+02
 0.304445339409210D+03 0.102047108303770D+03 -.103350379044482D+02 -.286647064116033D+03
 0.221127749185630D+03 0.140452875955899D+03 0.282061987070556D+01 -.170770358081152D+03
 0.479556672312596D+03 -.279506780861494D+03 -.146358764359910D+02 0.381010677774987D+03
 0.000000000000000D+00 -.000000000000000D+00 -.000000000000000D+00 -.000000000000000D+00
 0.606220275836856D+03 0.000000000000000D+00 0.000000000000000D+00 0.606220275836856D+03
 0.857833188986023D+03 0.000000000000000D+00 0.000000000000000D+00 -.857833188986023D+03
 0.128598984072346D+03 0.549718586505565D+02 0.347934895256725D+02 0.764067444221976D+02
 0.323136915418848D+03 0.147579294102449D+03 0.217089541961308D+02 -.286647064116033D+03
 0.245468484556336D+03 0.174305245496723D+03 0.266447575246357D+02 -.170770358081152D+03
 0.444779953415013D+03 -.212444548525616D+03 0.325602246411601D+02 0.381010677774987D+03
 0.322069127360336D+03 -.164411849724112D+03 -.115707425887599D+03 -.251612913149167D+03
-.901182440492D-06 0.000000000000D+00 0.000000000000D+00 0.435402309488D-05 0.000000000000D+00  7 -1 1 24 -11 11 -24 21 2 0.41594316D-01 0.17977376D+00 0.97818329D+05 0.97818329D+05 0.97818329D+05 0.11225090D+01  1  2 14  2  7  2        1 -.903961348834D-05 0.100000000000D+01
  </mgrwgt>
  </event>
  <event>
  9     66 0.29788925E-05 0.18136986E+03 0.75467711E-02 0.10612475E+00
       -1 -1    0    0    0  502 0.00000000E+00 0.00000000E+00 0.66149653E+02 0.66150427E+02 0.32000000E+00 0.0000E+00 0.9000E+01
        1 -1    0    0  501    0 0.00000000E+00 0.00000000E+00 -.83655092E+03 0.83655098E+03 0.32000000E+00 0.0000E+00 0.9000E+01
       25  2    1    2    0    0 0.63846959E+02 -.38492992E+02 -.47843644E+03 0.56976209E+03 0.30028199E+03 0.0000E+00 0.0000E+00
       23  2    1    2    0    0 -.34177656E+02 0.64407095E+02 -.16637634E+03 0.20131546E+03 0.86778118E+02 0.0000E+00 0.0000E+00
       24  1    3    3    0    0 -.58711109E+02 -.89782069E+02 -.32445725E+03 0.35106629E+03 0.80419002E+02 0.0000E+00 0.9000E+01
      -13  1    4    4    0    0 0.25728916E+01 0.15654109E+02 0.71210130E+01 0.17389390E+02 0.10565837E+00 0.0000E+00 0.9000E+01
       13  1    4    4    0    0 -.36750547E+02 0.48752986E+02 -.17349736E+03 0.18392607E+03 0.10565837E+00 0.0000E+00 0.9000E+01
      -24  1    3    3    0    0 0.12255807E+03 0.51289077E+02 -.15397919E+03 0.21869581E+03 0.80419002E+02 0.0000E+00 0.9000E+01
       21  1    1    2  501  502 -.29669303E+02 -.25914103E+02 -.12558848E+03 0.13162385E+03 0.75000000E+00 0.0000E+00 0.9000E+01
#aMCatNLO 2  0  0  1  2 0.39392998D+02 0.00000000D+00  -5  7  0 0.00000000D+00 0.00000000D+00 0.00000000D+00 0.00000000D+00 0.00000000D+00
  <mgrwgt>
 0.2521748746D-03    1    2    0
 0.210490655722836D+03 0.000000000000000D+00 0.000000000000000D+00 0.210490655722836D+03
 0.210490655722836D+03 0.000000000000000D+00 0.000000000000000D+00 -.210490655722836D+03
 0.155716379687337D+03 -.692993557646378D+02 -.990302158218375D+02 -.563115493788518D+02
 0.416129480472405D+02 -.387126658355523D+00 0.130686651642768D+02 0.395056650235981D+02
 0.707274997531026D+02 -.417279597862271D+02 0.444057015605377D+02 -.359066882672378D+02
 0.152924483957992D+03 0.111414442209220D+03 0.415558490970229D+02 0.527125726224915D+02
 0.000000000000000D+00 -.000000000000000D+00 -.000000000000000D+00 -.000000000000000D+00
 0.221512623292802D+03 0.000000000000000D+00 0.000000000000000D+00 0.221512623292802D+03
 0.249812033012921D+03 0.000000000000000D+00 0.000000000000000D+00 -.249812033012921D+03
 0.145416706494781D+03 -.587110753461731D+02 -.897820784548228D+02 -.563115493788518D+02
 0.425719121980219D+02 0.257293634424333D+01 0.156540773540894D+02 0.395056650235981D+02
 0.708290888064194D+02 -.367506227763611D+02 0.487530643588345D+02 -.359066882672378D+02
 0.164002671516964D+03 0.122558065239623D+03 0.512890401798421D+02 0.527125726224915D+02
 0.485042772895359D+02 -.296693034613320D+02 -.259141034379432D+02 -.282994097201190D+02
0.136726537231D-05 0.000000000000D+00 0.000000000000D+00 0.435848290255D-07 0.202428445380D-09  7 -1 1 24 -13 13 -24 21 2 0.10176804D-01 0.12869856D+00 0.41144400D+05 0.41144400D+05 0.41144400D+05 0.11548173D+01  1  2  1  1  7  1       -1 0.252174874615D-03 0.100000000000D+01
  </mgrwgt>
  </event>
  <event>
  8     66 0.29788925E-05 0.17660813E+03 0.75467711E-02 0.10068746E+00
       -1 -1    0    0    0  501 0.00000000E+00 0.00000000E+00 0.11528539E+04 0.11528539E+04 0.32000000E+00 0.0000E+00 0.9000E+01
        1 -1    0    0  501    0 0.00000000E+00 0.00000000E+00 -.21292560E+03 0.21292584E+03 0.32000000E+00 0.0000E+00 0.9000E+01
       25  2    1    2    0    0 0.16515724E+03 0.15137270E+03 0.10393319E+04 0.11045571E+04 0.29940754E+03 0.0000E+00 0.0000E+00
       23  2    1    2    0    0 -.16515724E+03 -.15137270E+03 -.99403615E+02 0.26122271E+03 0.90363814E+02 0.0000E+00 0.0000E+00
       24  1    3    3    0    0 0.17451492E+03 0.19803570E+03 0.69509680E+03 0.74786388E+03 0.80419002E+02 0.0000E+00 0.9000E+01
      -13  1    4    4    0    0 -.45908936E+02 -.43053622E+01 0.25475805E+01 0.46180817E+02 0.10565837E+00 0.0000E+00 0.9000E+01
       13  1    4    4    0    0 -.11924831E+03 -.14706733E+03 -.10195120E+03 0.21504189E+03 0.10565837E+00 0.0000E+00 0.9000E+01
      -24  1    3    3    0    0 -.93576781E+01 -.46663008E+02 0.34423511E+03 0.35669318E+03 0.80419002E+02 0.0000E+00 0.9000E+01
#aMCatNLO 1  0  0  1  2 0.72843700D+00 0.00000000D+00  -5  7  0 0.00000000D+00 0.00000000D+00 0.00000000D+00 0.00000000D+00 0.00000000D+00
  <mgrwgt>
 0.8528529883D-03   11    2    0
 0.495451609367901D+03 0.000000000000000D+00 0.000000000000000D+00 0.495451609367901D+03
 0.495451609367901D+03 0.000000000000000D+00 0.000000000000000D+00 -.495451609367901D+03
 0.371455251077255D+03 0.174514920044488D+03 0.198035703359900D+03 0.248672858340254D+03
 0.612348735450587D+02 -.459088355677147D+02 -.430516704533987D+01 -.402933504639113D+02
 0.393103106799488D+03 -.119248406414416D+03 -.147067528609581D+03 -.344501106198082D+03
 0.165109987314000D+03 -.935767806235719D+01 -.466630077049792D+02 0.136121598321739D+03
 0.000000000000000D+00 -.000000000000000D+00 -.000000000000000D+00 0.000000000000000D+00
 0.501270879852649D+03 0.000000000000000D+00 0.000000000000000D+00 0.501270879852649D+03
 0.495474539597744D+03 0.000000000000000D+00 0.000000000000000D+00 -.495474539597744D+03
 0.371636851342579D+03 0.174756305423636D+03 0.198163509660645D+03 0.248672858340254D+03
 0.612035832026494D+02 -.458690627680737D+02 -.428410854374239D+01 -.402933504639113D+02
 0.392975150870477D+03 -.118993057450741D+03 -.146932329010659D+03 -.344501106198082D+03
 0.165087901065916D+03 -.925041687330537D+01 -.466062161303005D+02 0.136121598321739D+03
 0.584193296877244D+01 -.643768331516132D+00 -.340855975943178D+00 0.579634025490491D+01
0.805462918017D-04 0.000000000000D+00 0.000000000000D+00 0.391356454373D-05 0.000000000000D+00  7 -1 1 24 -13 13 -24 21 0 0.17736216D+00 0.32757806D-01 0.91455217D+05 0.91455217D+05 0.91455217D+05 0.11249193D+01  1  2  2  1  7  1       -1 0.309237209541D-03 0.100000000000D+01
-.314885561425D-05 0.000000000000D+00 -.309318968844D-06 0.391356454373D-05 0.000000000000D+00  7 -1 1 24 -13 13 -24 21 2 0.17736216D+00 0.32757806D-01 0.91455217D+05 0.91455217D+05 0.91455217D+05 0.11249193D+01  1  2  3  1  7  1       -1 -.152982474104D-04 0.100000000000D+01
0.479472119108D-05 0.000000000000D+00 0.000000000000D+00 0.391356454373D-05 0.000000000000D+00  7 -1 1 24 -13 13 -24 21 2 0.17736216D+00 0.32757806D-01 0.91455217D+05 0.91455217D+05 0.91455217D+05 0.11249193D+01  1  2 15  1  7  1       -1 0.232944409116D-04 0.100000000000D+01
0.604532044861D-09 0.000000000000D+00 0.000000000000D+00 0.391356454373D-05 0.000000000000D+00  7 -1 1 24 -13 13 -24 21 2 0.17944943D+00 0.32757806D-01 0.91644765D+05 0.91644765D+05 0.91644765D+05 0.11248449D+01  1  2 12  1  7  1       -1 0.282541831711D-08 0.100000000000D+01
-.960613495394D-01 0.000000000000D+00 0.000000000000D+00 0.391356454373D-05 0.000000000000D+00  7 -1 1 24 -13 13 -24 21 2 0.17736216D+00 0.32757806D-01 0.91455217D+05 0.91455217D+05 0.91455217D+05 0.11249193D+01  1  2  4  1  7  1       -1 -.466699802044D+00 0.100000000000D+01
-.101165908198D+00 0.000000000000D+00 -.755682270040D-03 0.391356454373D-05 0.000000000000D+00  7 -1 1 24 -13 13 -24 21 2 0.17944875D+00 0.32757806D-01 0.91455217D+05 0.91455217D+05 0.91455217D+05 0.11249193D+01  1  2  5  1  7  1       -1 -.472934384467D+00 0.100000000000D+01
0.101167878593D+00 0.000000000000D+00 0.755630586337D-03 0.391356454373D-05 0.000000000000D+00  7 -1 1 24 -13 13 -24 21 2 0.17736216D+00 0.32757806D-01 0.91455217D+05 0.91455217D+05 0.91455217D+05 0.11249193D+01  1  2  6  1  7  1       -1 0.491509115156D+00 0.100000000000D+01
0.960674794811D-01 0.000000000000D+00 0.000000000000D+00 0.391356454373D-05 0.497737335351D-04  7 -1 1 24 -13 13 -24 21 2 0.17944535D+00 0.32759322D-01 0.91644765D+05 0.91644765D+05 0.91644765D+05 0.11248449D+01  1  2 11  1  7  1       -1 0.449000100534D+00 0.100000000000D+01
0.761828862870D-10 0.000000000000D+00 0.000000000000D+00 0.391356454373D-05 0.000000000000D+00  7 21 1 24 -13 13 -24 1 2 0.17944943D+00 0.32757806D-01 0.91644765D+05 0.91644765D+05 0.91644765D+05 0.11248449D+01  1  2 12  3  7  1       -1 0.230613462230D-08 0.100000000000D+01
-.217975524411D-03 0.000000000000D+00 -.162850364463D-05 0.391356454373D-05 0.000000000000D+00  7 21 1 24 -13 13 -24 1 2 0.17944875D+00 0.32757806D-01 0.91455217D+05 0.91455217D+05 0.91455217D+05 0.11249193D+01  1  2  5  3  7  1       -1 -.660032844452D-02 0.100000000000D+01
0.206825956428D-03 0.000000000000D+00 0.000000000000D+00 0.391356454373D-05 0.107132321618D-06  7 21 1 24 -13 13 -24 1 2 0.17944535D+00 0.32759322D-01 0.91644765D+05 0.91644765D+05 0.91644765D+05 0.11248449D+01  1  2 11  3  7  1       -1 0.626091371917D-02 0.100000000000D+01
  </mgrwgt>
  </event>
  <event>
  8     66 0.29788925E-05 0.65282480E+03 0.75467711E-02 0.84886851E-01
       -1 -1    0    0    0  501 0.00000000E+00 0.00000000E+00 0.16703064E+04 0.16703064E+04 0.32000000E+00 0.0000E+00 0.9000E+01
        1 -1    0    0  501    0 0.00000000E+00 0.00000000E+00 -.43175660E+03 0.43175672E+03 0.32000000E+00 0.0000E+00 0.9000E+01
       25  2    1    2    0    0 -.58021720E+03 -.21677513E+03 0.12998035E+04 0.14708349E+04 0.30037101E+03 0.0000E+00 0.0000E+00
       23  2    1    2    0    0 0.58021720E+03 0.21677513E+03 -.61253687E+02 0.63122825E+03 0.10513623E+03 0.0000E+00 0.0000E+00
       24  1    3    3    0    0 -.20292849E+02 -.34003553E+02 0.23189117E+03 0.24861370E+03 0.80419002E+02 0.0000E+00 0.9000E+01
      -13  1    4    4    0    0 0.36519904E+03 0.16288315E+03 -.83316031E+02 0.40846399E+03 0.10565837E+00 0.0000E+00 0.9000E+01
       13  1    4    4    0    0 0.21501816E+03 0.53891976E+02 0.22062344E+02 0.22276425E+03 0.10565837E+00 0.0000E+00 0.9000E+01
      -24  1    3    3    0    0 -.55992436E+03 -.18277157E+03 0.10679123E+04 0.12222212E+04 0.80419002E+02 0.0000E+00 0.9000E+01
#aMCatNLO 1  0  0  2  2 0.10691626D+04 0.00000000D+00  -5  7  0 0.00000000D+00 0.00000000D+00 0.00000000D+00 0.00000000D+00 0.00000000D+00
  <mgrwgt>
 0.4765994947D-03    3    2    0
 0.849214911485515D+03 0.000000000000000D+00 0.000000000000000D+00 0.849214911485515D+03
 0.849214911485515D+03 0.000000000000000D+00 0.000000000000000D+00 -.849214911485515D+03
 0.138594443809705D+03 -.202928485592231D+02 -.340035526462288D+02 0.105703181623537D+03
 0.566292861308371D+03 0.365199197485798D+03 0.162883259474600D+03 -.400981539110569D+03
 0.259615488539803D+03 0.215018007138863D+03 0.538918671224236D+02 -.135141130503824D+03
 0.733927029313151D+03 -.559924356065438D+03 -.182771573950795D+03 0.430419487990856D+03
 0.000000000000000D+00 0.000000000000000D+00 0.000000000000000D+00 0.000000000000000D+00
 0.258049152746190D+04 0.000000000000000D+00 0.000000000000000D+00 0.258049152746190D+04
 0.118467830399974D+04 0.000000000000000D+00 0.000000000000000D+00 -.118467830399974D+04
 0.186343343463577D+03 -.979501356824965D+02 -.865403606027620D+02 0.105703181623537D+03
 0.421287285969774D+03 0.129176186133404D+03 0.320866768697110D+01 -.400981539110569D+03
 0.175653557704335D+03 0.110992514801691D+03 -.164835930044076D+02 -.135141130503824D+03
 0.122364695342226D+04 -.102776740417015D+04 -.499277355733511D+03 0.430419487990856D+03
 0.175823869090169D+04 0.885548838917554D+03 0.599092641653710D+03 0.139581322346217D+04
0.151598247737D-02 0.000000000000D+00 0.000000000000D+00 0.131699271697D-06 0.000000000000D+00  7 -1 1 24 -13 13 -24 21 0 0.25697023D+00 0.66424104D-01 0.42618022D+06 0.42618022D+06 0.42618022D+06 0.10734484D+01  1  2  2  2  7  2        1 0.469353325758D-03 0.100000000000D+01
-.771381025845D-04 0.000000000000D+00 -.582177188046D-05 0.131699271697D-06 0.000000000000D+00  7 -1 1 24 -13 13 -24 21 2 0.25697023D+00 0.66424104D-01 0.42618022D+06 0.42618022D+06 0.42618022D+06 0.10734484D+01  1  2  3  2  7  2        1 -.275192758672D-04 0.100000000000D+01
0.974495282149D-04 0.000000000000D+00 0.000000000000D+00 0.131699271697D-06 0.000000000000D+00  7 -1 1 24 -13 13 -24 21 2 0.25697023D+00 0.66424104D-01 0.42618022D+06 0.42618022D+06 0.42618022D+06 0.10734484D+01  1  2 15  2  7  2        1 0.347654448349D-04 0.100000000000D+01
  </mgrwgt>
  </event>
  <event>
  8     66 0.29788925E-05 0.28479257E+03 0.75467711E-02 0.97506328E-01
       -3 -1    0    0    0  501 0.00000000E+00 0.00000000E+00 0.88727337E+03 0.88727351E+03 0.50000000E+00 0.0000E+00 0.9000E+01
        3 -1    0    0  501    0 0.00000000E+00 0.00000000E+00 -.13891118E+03 0.13891208E+03 0.50000000E+00 0.0000E+00 0.9000E+01
       25  2    1    2    0    0 0.21860456E+03 0.13793548E+03 0.58645715E+03 0.70756901E+03 0.29984624E+03 0.0000E+00 0.0000E+00
       23  2    1    2    0    0 -.21860456E+03 -.13793548E+03 0.16190504E+03 0.31861658E+03 0.92136514E+02 0.0000E+00 0.0000E+00
       24  1    3    3    0    0 0.13524525E+03 0.97525030E+02 0.54889720E+03 0.57927347E+03 0.80419002E+02 0.0000E+00 0.9000E+01
      -11  1    4    4    0    0 -.47011268E+02 -.10813990E+02 -.36953739E+01 0.48380342E+02 0.51099893E-03 0.0000E+00 0.9000E+01
       11  1    4    4    0    0 -.17159329E+03 -.12712149E+03 0.16560041E+03 0.27023624E+03 0.51099893E-03 0.0000E+00 0.9000E+01
      -24  1    3    3    0    0 0.83359308E+02 0.40410448E+02 0.37559951E+02 0.12829554E+03 0.80419002E+02 0.0000E+00 0.9000E+01
#aMCatNLO 1  0  0  1  1 0.18169025D+03 0.00000000D+00  -5  7  0 0.00000000D+00 0.00000000D+00 0.00000000D+00 0.00000000D+00 0.00000000D+00
  <mgrwgt>
 0.2141605282D-03    3    2    0
 0.351073676433673D+03 0.000000000000000D+00 0.000000000000000D+00 0.351073676433673D+03
 0.351073676433673D+03 0.000000000000000D+00 0.000000000000000D+00 -.351073676433673D+03
 0.261580684594648D+03 0.135245247126518D+03 0.975250296564601D+02 0.184810254907101D+03
 0.746462803207703D+02 -.470112681846455D+02 -.108139903954865D+02 -.569654758702557D+02
 0.218449087927536D+03 -.171593287084481D+03 -.127121487486312D+03 -.459986441450463D+02
 0.147471300024392D+03 0.833593081426082D+02 0.404104482253381D+02 -.818461348917991D+02
 0.000000000000000D+00 0.000000000000000D+00 -.000000000000000D+00 -.000000000000000D+00
 0.368979622189994D+03 0.000000000000000D+00 0.000000000000000D+00 0.368979622189994D+03
 0.166379921391477D+04 0.000000000000000D+00 0.000000000000000D+00 -.166379921391477D+04
 0.270762275198510D+03 0.963375636952392D+02 0.153000775222680D+03 0.184810254907101D+03
 0.817989700327233D+02 -.584454802148863D+02 0.548925311322098D+01 -.569654758702557D+02
 0.224208765110344D+03 -.203946098927920D+03 -.809918750320396D+02 -.459986441450463D+02
 0.148503903910200D+03 0.617271829752728D+02 0.712541830870993D+02 -.818461348917991D+02
 0.130750492185298D+04 0.104326832472295D+03 -.148752336390960D+03 -.129481959172477D+04
0.736238697610D-04 0.000000000000D+00 0.000000000000D+00 0.176941421914D-05 0.000000000000D+00  7 -3 3 24 -11 11 -24 21 0 0.13650367D+00 0.21371031D-01 0.81106810D+05 0.81106810D+05 0.81106810D+05 0.11292622D+01  1  2  2  1  7  1       -3 0.211179287986D-03 0.100000000000D+01
-.387249600066D-05 0.000000000000D+00 -.282735045492D-06 0.176941421914D-05 0.000000000000D+00  7 -3 3 24 -11 11 -24 21 2 0.13650367D+00 0.21371031D-01 0.81106810D+05 0.81106810D+05 0.81106810D+05 0.11292622D+01  1  2  3  1  7  1       -3 -.141648917728D-04 0.100000000000D+01
0.468752805121D-05 0.000000000000D+00 0.000000000000D+00 0.176941421914D-05 0.000000000000D+00  7 -3 3 24 -11 11 -24 21 2 0.13650367D+00 0.21371031D-01 0.81106810D+05 0.81106810D+05 0.81106810D+05 0.11292622D+01  1  2 15  1  7  1       -3 0.171461319820D-04 0.100000000000D+01
  </mgrwgt>
  </event>
  <event>
  9     66 0.29788925E-05 0.28275885E+03 0.75467711E-02 0.97300659E-01
       -1 -1    0    0    0  502 0.00000000E+00 0.00000000E+00 0.37578229E+03 0.37578242E+03 0.32000000E+00 0.0000E+00 0.9000E+01
        1 -1    0    0  501    0 0.00000000E+00 0.00000000E+00 -.42749228E+04 0.42749228E+04 0.32000000E+00 0.0000E+00 0.9000E+01
       25  2    1    2    0    0 -.35134025E+02 0.36864276E+03 -.41174435E+04 0.41449718E+04 0.30052948E+03 0.0000E+00 0.0000E+00
       23  2    1    2    0    0 -.14231517E+02 -.15515850E+03 -.23308911E+02 0.17955963E+03 0.86149047E+02 0.0000E+00 0.0000E+00
       24  1    3    3    0    0 0.19417302E+02 0.12097369E+03 -.60624909E+03 0.62371215E+03 0.80419002E+02 0.0000E+00 0.9000E+01
      -11  1    4    4    0    0 -.24386566E+02 -.34231587E+02 -.38826567E+02 0.57218952E+02 0.51099893E-03 0.0000E+00 0.9000E+01
       11  1    4    4    0    0 0.10155048E+02 -.12092691E+03 0.15517656E+02 0.12234068E+03 0.51099893E-03 0.0000E+00 0.9000E+01
      -24  1    3    3    0    0 -.54551327E+02 0.24766907E+03 -.35111944E+04 0.35212596E+04 0.80419002E+02 0.0000E+00 0.9000E+01
       21  1    1    2  501  502 0.49365543E+02 -.21348426E+03 0.24161192E+03 0.32617383E+03 0.75000000E+00 0.0000E+00 0.9000E+01
#aMCatNLO 2  0  0  1  2 0.21911752D+03 0.00000000D+00  -5  7  0 0.00000000D+00 0.00000000D+00 0.00000000D+00 0.00000000D+00 0.00000000D+00
  <mgrwgt>
 0.4878753797D-03    2    2    0
 0.613948013655588D+03 0.000000000000000D+00 0.000000000000000D+00 0.613948013655588D+03
 0.613948013655588D+03 0.000000000000000D+00 0.000000000000000D+00 -.613948013655588D+03
 0.131988320092205D+03 0.250387813439420D+02 0.966632678717029D+02 -.313523963927064D+02
 0.755585154693294D+02 -.214937042920861D+02 -.467419396514748D+02 0.553380611636434D+02
 0.504634070956334D+03 0.297067079934621D+02 -.205479244157306D+03 0.459947102709318D+03
 0.515715120793308D+03 -.332517850453181D+02 0.155557915937077D+03 -.483932767480255D+03
 0.000000000000000D+00 0.000000000000000D+00 -.000000000000000D+00 0.000000000000000D+00
 0.255040527188758D+04 0.000000000000000D+00 0.000000000000000D+00 0.255040527188758D+04
 0.629876460179471D+03 0.000000000000000D+00 0.000000000000000D+00 -.629876460179471D+03
 0.149872795812485D+03 0.194173020062872D+02 0.120973693807834D+03 -.313523963927064D+02
 0.694896189819173D+02 -.243865655090934D+02 -.342315871027272D+02 0.553380611636434D+02
 0.475686641471780D+03 0.101550482638059D+02 -.120926914203435D+03 0.459947102709318D+03
 0.552244470060583D+03 -.545513273896601D+02 0.247669069520298D+03 -.483932767480255D+03
 0.193298820574029D+04 0.493655426286603D+02 -.213484262021970D+03 0.192052881170811D+04
-.208206450275D-02 0.000000000000D+00 0.000000000000D+00 0.393288931317D-06 0.000000000000D+00  7 -1 1 24 -11 11 -24 21 2 0.57205396D-01 0.64104881D+00 0.15804897D+06 0.15804897D+06 0.15804897D+06 0.11057650D+01  1  2 13  1  7  1       -1 -.664235167963D-04 0.100000000000D+01
0.226528698741D-01 0.000000000000D+00 0.000000000000D+00 0.393288931317D-06 0.125309672586D-09  7 -1 1 24 -11 11 -24 21 2 0.57812665D-01 0.65768036D+00 0.15804897D+06 0.15804897D+06 0.15804897D+06 0.11057650D+01  1  2  1  1  7  1       -1 0.554298896502D-03 0.100000000000D+01
  </mgrwgt>
  </event>
  <event>
  8     66 0.29788925E-05 0.44542835E+03 0.75467711E-02 0.94876091E-01
       -1 -1    0    0    0  501 0.00000000E+00 0.00000000E+00 0.60896977E+03 0.60896985E+03 0.32000000E+00 0.0000E+00 0.9000E+01
        1 -1    0    0  501    0 0.00000000E+00 0.00000000E+00 -.67317338E+03 0.67317345E+03 0.32000000E+00 0.0000E+00 0.9000E+01
       25  2    1    2    0    0 0.37639734E+03 0.10162386E+03 0.42507474E+03 0.65012241E+03 0.29994707E+03 0.0000E+00 0.0000E+00
       23  2    1    2    0    0 -.37639734E+03 -.10162386E+03 -.48927835E+03 0.63202089E+03 0.89748130E+02 0.0000E+00 0.0000E+00
       24  1    3    3    0    0 0.36028738E+03 0.14764680E+03 0.33509270E+03 0.51996241E+03 0.80419002E+02 0.0000E+00 0.9000E+01
      -11  1    4    4    0    0 0.91419509E-01 -.12279625E+02 -.23226892E+02 0.26273296E+02 0.51099893E-03 0.0000E+00 0.9000E+01
       11  1    4    4    0    0 -.37648876E+03 -.89344233E+02 -.46605146E+03 0.60574759E+03 0.51099893E-03 0.0000E+00 0.9000E+01
      -24  1    3    3    0    0 0.16109964E+02 -.46022945E+02 0.89982038E+02 0.13016000E+03 0.80419002E+02 0.0000E+00 0.9000E+01
#aMCatNLO 1  0  0  2  2 0.86178461D+02 0.00000000D+00  -5  7  0 0.00000000D+00 0.00000000D+00 0.00000000D+00 0.00000000D+00 0.00000000D+00
  <mgrwgt>
 0.1635662918D-02    4    2    0
 0.640267393766683D+03 0.000000000000000D+00 0.000000000000000D+00 0.640267393766683D+03
 0.640267393766683D+03 0.000000000000000D+00 0.000000000000000D+00 -.640267393766683D+03
 0.537416471271127D+03 0.360287380152726D+03 0.147646803569209D+03 0.361583562593241D+03
 0.251417457552962D+02 0.914195210339415D-01 -.122796254388599D+02 -.219387743772627D+02
 0.583141542562430D+03 -.376488763473238D+03 -.893442333014046D+02 -.436265833656805D+03
 0.134835027944512D+03 0.161099637994787D+02 -.460229448289446D+02 0.966210454408268D+02
 0.000000000000000D+00 -.000000000000000D+00 0.000000000000000D+00 0.000000000000000D+00
 0.998032229307484D+03 0.000000000000000D+00 0.000000000000000D+00 0.998032229307484D+03
 0.646926447588162D+03 0.000000000000000D+00 0.000000000000000D+00 -.646926447588162D+03
 0.553222335102432D+03 0.390720446724131D+03 0.127210832384245D+03 0.361583562593241D+03
 0.256644265122145D+02 0.150910942333681D+01 -.132316119869357D+02 -.219387743772627D+02
 0.566777828584053D+03 -.344401538473229D+03 -.110890980947327D+03 -.436265833656805D+03
 0.137766775016234D+03 0.237166148451852D+02 -.511308527428382D+02 0.966210454408268D+02
 0.361527311680712D+03 -.715446325194239D+02 0.480426132928555D+02 0.351105781719322D+03
0.403813260100D-03 0.000000000000D+00 0.000000000000D+00 0.100291837720D-04 0.000000000000D+00  7 -1 1 24 -11 11 -24 21 0 0.93687669D-01 0.10356515D+00 0.19840641D+06 0.19840641D+06 0.19840641D+06 0.10980923D+01  1  2  2  2  7  2        1 0.166044310071D-02 0.100000000000D+01
-.188428450139D-04 0.000000000000D+00 -.155074924526D-05 0.100291837720D-04 0.000000000000D+00  7 -1 1 24 -11 11 -24 21 2 0.93687669D-01 0.10356515D+00 0.19840641D+06 0.19840641D+06 0.19840641D+06 0.10980923D+01  1  2  3  2  7  2        1 -.934259675430D-04 0.100000000000D+01
0.247725675022D-04 0.000000000000D+00 0.000000000000D+00 0.100291837720D-04 0.000000000000D+00  7 -1 1 24 -11 11 -24 21 2 0.93687669D-01 0.10356515D+00 0.19840641D+06 0.19840641D+06 0.19840641D+06 0.10980923D+01  1  2 15  2  7  2        1 0.122826520396D-03 0.100000000000D+01
-.109275742788D-04 0.000000000000D+00 0.000000000000D+00 0.100291837720D-04 0.000000000000D+00  7 -1 1 24 -11 11 -24 21 2 0.93687669D-01 0.10356515D+00 0.19840641D+06 0.19840641D+06 0.19840641D+06 0.10980923D+01  1  2  4  2  7  2        1 -.541807354009D-04 0.100000000000D+01
  </mgrwgt>
  </event>
  <event>
  8     66 0.29788925E-05 0.20613634E+03 0.75467711E-02 0.93558439E-01
       -1 -1    0    0    0  501 0.00000000E+00 0.00000000E+00 0.64626610E+02 0.64627402E+02 0.32000000E+00 0.0000E+00 0.9000E+01
        1 -1    0    0  501    0 0.00000000E+00 0.00000000E+00 -.12200814E+04 0.12200815E+04 0.32000000E+00 0.0000E+00 0.9000E+01
       25  2    1    2    0    0 0.64904061E+02 -.38056532E+02 -.11202141E+04 0.11621627E+04 0.30013602E+03 0.0000E+00 0.0000E+00
       23  2    1    2    0    0 -.64904061E+02 0.38056532E+02 -.35240741E+02 0.12254621E+03 0.90082340E+02 0.0000E+00 0.0000E+00
       24  1    3    3    0    0 -.91123188E+02 -.18526635E+01 -.32459730E+03 0.34660855E+03 0.80419002E+02 0.0000E+00 0.9000E+01
      -13  1    4    4    0    0 0.14267432E+02 -.11299847E+02 0.77987604E+01 0.19800959E+02 0.10565837E+00 0.0000E+00 0.9000E+01
       13  1    4    4    0    0 -.79171493E+02 0.49356379E+02 -.43039501E+02 0.10274525E+03 0.10565837E+00 0.0000E+00 0.9000E+01
      -24  1    3    3    0    0 0.15602725E+03 -.36203869E+02 -.79561680E+03 0.81555412E+03 0.80419002E+02 0.0000E+00 0.9000E+01
#aMCatNLO 1  0  0  1  2 0.49483938D+03 0.00000000D+00  -5  7  0 0.00000000D+00 0.00000000D+00 0.00000000D+00 0.00000000D+00 0.00000000D+00
  <mgrwgt>
 0.8888224256D-03    5    2    0
 0.280802890863764D+03 0.000000000000000D+00 0.000000000000000D+00 0.280802890863764D+03
 0.280802890863764D+03 0.000000000000000D+00 0.000000000000000D+00 -.280802890863764D+03
 0.125058492618961D+03 -.911231873816265D+02 -.185266356005323D+01 -.294201118438109D+02
 0.613411025693383D+02 0.142675594220052D+02 -.112999290274514D+02 0.585788290813003D+02
 0.146486397938444D+03 -.791716206551264D+02 0.493564617418995D+02 0.112933869800611D+03
 0.228719788600784D+03 0.156027248614748D+03 -.362038691543949D+02 -.142092587038100D+03
 0.000000000000000D+00 -.000000000000000D+00 0.000000000000000D+00 0.000000000000000D+00
 0.630167367582082D+03 0.000000000000000D+00 0.000000000000000D+00 0.630167367582082D+03
 0.613463744533646D+03 0.000000000000000D+00 0.000000000000000D+00 -.613463744533646D+03
 0.923764020276309D+02 -.145196573549851D+02 -.314614091641083D+02 -.294201118438109D+02
 0.970711259446298D+02 0.700770739126783D+02 -.328713855421247D+02 0.585788290813003D+02
 0.114490761862007D+03 0.127720930230997D+02 0.138184385301247D+02 0.112933869800611D+03
 0.444571605074102D+03 0.393231573964105D+03 -.127887927617602D+03 -.142092587038100D+03
 0.495121217207359D+03 -.461561083544898D+03 0.178402283793710D+03 0.167036230484361D+02
0.952002162837D-05 0.000000000000D+00 0.000000000000D+00 0.829678102896D-06 0.000000000000D+00  7 -1 1 24 -13 13 -24 21 0 0.99426195D-02 0.18770490D+00 0.42492190D+05 0.42492190D+05 0.42492190D+05 0.11535630D+01  1  2  2  1  7  1       -1 0.709916280114D-03 0.100000000000D+01
-.467444943992D-06 0.000000000000D+00 -.365593897322D-07 0.829678102896D-06 0.000000000000D+00  7 -1 1 24 -13 13 -24 21 2 0.99426195D-02 0.18770490D+00 0.42492190D+05 0.42492190D+05 0.42492190D+05 0.11535630D+01  1  2  3  1  7  1       -1 -.463855096305D-04 0.100000000000D+01
0.598308285340D-06 0.000000000000D+00 0.000000000000D+00 0.829678102896D-06 0.000000000000D+00  7 -1 1 24 -13 13 -24 21 2 0.99426195D-02 0.18770490D+00 0.42492190D+05 0.42492190D+05 0.42492190D+05 0.11535630D+01  1  2 15  1  7  1       -1 0.593713443441D-04 0.100000000000D+01
0.953988538861D-05 0.000000000000D+00 -.429955716245D-05 0.829678102896D-06 0.000000000000D+00  7 -1 1 24 -13 13 -24 21 2 0.53974702D-01 0.18770490D+00 0.42492190D+05 0.42492190D+05 0.42492190D+05 0.11535630D+01  1  2  5  1  7  1       -1 0.606660730930D-04 0.100000000000D+01
0.178391854010D-05 0.000000000000D+00 -.889809584378D-06 0.829678102896D-06 0.000000000000D+00  7 21 1 24 -13 13 -24 1 2 0.53974702D-01 0.18770490D+00 0.42492190D+05 0.42492190D+05 0.42492190D+05 0.11535630D+01  1  2  5  3  7  1       -1 0.105254237721D-03 0.100000000000D+01
  </mgrwgt>
  </event>
  <event>
  8     66 0.29788925E-05 0.19462257E+03 0.75467711E-02 0.10098854E+00
       -1 -1    0    0    0  501 0.00000000E+00 0.00000000E+00 0.30958805E+03 0.30958821E+03 0.32000000E+00 0.0000E+00 0.9000E+01
        1 -1    0    0  501    0 0.00000000E+00 0.00000000E+00 -.59263756E+03 0.59263765E+03 0.32000000E+00 0.0000E+00 0.9000E+01
       25  2    1    2    0    0 0.13938436E+02 -.73183421E+02 -.53812393E+03 0.62115878E+03 0.30118229E+03 0.0000E+00 0.0000E+00
       23  2    1    2    0    0 -.13938436E+02 0.73183421E+02 0.25507442E+03 0.28106708E+03 0.91573220E+02 0.0000E+00 0.0000E+00
       24  1    3    3    0    0 -.41076689E+02 -.14544741E+03 -.20765704E+03 0.26912991E+03 0.80419002E+02 0.0000E+00 0.9000E+01
      -11  1    4    4    0    0 -.37642715E+02 0.55928302E+02 0.85026982E+02 0.10851054E+03 0.51099893E-03 0.0000E+00 0.9000E+01
       11  1    4    4    0    0 0.23704278E+02 0.17255119E+02 0.17004743E+03 0.17255655E+03 0.51099893E-03 0.0000E+00 0.9000E+01
      -24  1    3    3    0    0 0.55015125E+02 0.72263986E+02 -.33046689E+03 0.35202887E+03 0.80419002E+02 0.0000E+00 0.9000E+01
#aMCatNLO 1  0  0  2  2 0.19073287D+03 0.00000000D+00  -5  7  0 0.00000000D+00 0.00000000D+00 0.00000000D+00 0.00000000D+00 0.00000000D+00
  <mgrwgt>
 0.5973034704D-03    4    2    0
 0.428338207194464D+03 0.000000000000000D+00 0.000000000000000D+00 0.428338207194464D+03
 0.428338207194464D+03 0.000000000000000D+00 0.000000000000000D+00 -.428338207194464D+03
 0.214828764897893D+03 -.410766885033194D+02 -.145447407187306D+03 -.129776498940582D+03
 0.142373312964135D+03 -.376427145152325D+02 0.559283022633413D+02 0.125400204522356D+03
 0.237915762490906D+03 0.237042783620147D+02 0.172551186251373D+02 0.236102261976030D+03
 0.261558574035994D+03 0.550151246565372D+02 0.722639862988272D+02 -.231725967557804D+03
 0.000000000000000D+00 0.000000000000000D+00 0.000000000000000D+00 0.000000000000000D+00
 0.603438093816917D+03 0.000000000000000D+00 0.000000000000000D+00 0.603438093816917D+03
 0.494075805335766D+03 0.000000000000000D+00 0.000000000000000D+00 -.494075805335766D+03
 0.242561381750766D+03 -.862371730193917D+02 -.167600770507832D+03 -.129776498940582D+03
 0.147899645767883D+03 -.663028584958184D+02 0.418691399398163D+02 0.125400204522356D+03
 0.237311027885019D+03 -.232173098393163D+02 -.576214972658382D+01 0.236102261976030D+03
 0.249880213578558D+03 0.451813949361138D+01 0.474928158631475D+02 -.231725967557804D+03
 0.219861630170459D+03 0.171239201860915D+03 0.840009644314517D+02 0.109362288481151D+03
0.377274068339D-04 0.000000000000D+00 0.000000000000D+00 0.837723928037D-06 0.000000000000D+00  7 -1 1 24 -11 11 -24 21 0 0.47628950D-01 0.91175029D-01 0.37877945D+05 0.37877945D+05 0.37877945D+05 0.11580554D+01  1  2  2  2  7  2        1 0.724865460896D-03 0.100000000000D+01
-.510139924308D-06 0.000000000000D+00 -.144883176097D-06 0.837723928037D-06 0.000000000000D+00  7 -1 1 24 -11 11 -24 21 2 0.47628950D-01 0.91175029D-01 0.37877945D+05 0.37877945D+05 0.37877945D+05 0.11580554D+01  1  2  3  2  7  2        1 -.131446312807D-04 0.100000000000D+01
0.233008723940D-05 0.000000000000D+00 0.000000000000D+00 0.837723928037D-06 0.000000000000D+00  7 -1 1 24 -11 11 -24 21 2 0.47628950D-01 0.91175029D-01 0.37877945D+05 0.37877945D+05 0.37877945D+05 0.11580554D+01  1  2 15  2  7  2        1 0.600386994909D-04 0.100000000000D+01
-.677059696130D-05 0.000000000000D+00 0.000000000000D+00 0.837723928037D-06 0.000000000000D+00  7 -1 1 24 -11 11 -24 21 2 0.47628950D-01 0.91175029D-01 0.37877945D+05 0.37877945D+05 0.37877945D+05 0.11580554D+01  1  2  4  2  7  2        1 -.174456058752D-03 0.100000000000D+01
  </mgrwgt>
  </event>
  <event>
  8     66 0.29788925E-05 0.20832219E+03 0.75467711E-02 0.94803114E-01
       -1 -1    0    0    0  501 0.00000000E+00 0.00000000E+00 0.37565476E+03 0.37565490E+03 0.32000000E+00 0.0000E+00 0.9000E+01
        1 -1    0    0  501    0 0.00000000E+00 0.00000000E+00 -.46023314E+03 0.46023325E+03 0.32000000E+00 0.0000E+00 0.9000E+01
       25  2    1    2    0    0 0.29721604E+03 -.12942836E+03 0.98370266E+02 0.45287628E+03 0.30055140E+03 0.0000E+00 0.0000E+00
       23  2    1    2    0    0 -.29721604E+03 0.12942836E+03 -.18294865E+03 0.38301187E+03 0.90215371E+02 0.0000E+00 0.0000E+00
       24  1    3    3    0    0 0.13099563E+03 -.10426400E+03 -.73128817E+02 0.19961432E+03 0.80419002E+02 0.0000E+00 0.9000E+01
      -13  1    4    4    0    0 -.56355134E+02 0.30708948E+02 0.11393885E+01 0.64189173E+02 0.10565837E+00 0.0000E+00 0.9000E+01
       13  1    4    4    0    0 -.24086091E+03 0.98719412E+02 -.18408803E+03 0.31882270E+03 0.10565837E+00 0.0000E+00 0.9000E+01
      -24  1    3    3    0    0 0.16622042E+03 -.25164362E+02 0.17149908E+03 0.25326196E+03 0.80419002E+02 0.0000E+00 0.9000E+01
#aMCatNLO 1  0  0  1  2 0.24527573D+03 0.00000000D+00  -5  7  0 0.00000000D+00 0.00000000D+00 0.00000000D+00 0.00000000D+00 0.00000000D+00
  <mgrwgt>
 0.5344487808D-03    7    2    0
 0.415799081693802D+03 0.000000000000000D+00 0.000000000000000D+00 0.415799081693802D+03
 0.415799081693802D+03 0.000000000000000D+00 0.000000000000000D+00 -.415799081693802D+03
 0.193206446119820D+03 0.130995625857453D+03 -.104263998728910D+03 -.532041299445113D+02
 0.646358649788243D+02 -.563548805958917D+02 0.307088545668570D+02 0.767389899433316D+01
 0.301744920620296D+03 -.240861160505326D+03 0.987195057282409D+02 -.152611787450867D+03
 0.272010931668662D+03 0.166220415243764D+03 -.251643615661880D+02 0.198142018401045D+03
 0.000000000000000D+00 -.000000000000000D+00 0.000000000000000D+00 0.000000000000000D+00
 0.765551940276466D+03 0.000000000000000D+00 0.000000000000000D+00 0.765551940276466D+03
 0.478803001078955D+03 0.000000000000000D+00 0.000000000000000D+00 -.478803001078955D+03
 0.250623521950135D+03 0.177424432811111D+03 -.148441318367974D+03 -.532041299445113D+02
 0.491035939658527D+02 -.444566588392130D+02 0.193876171677159D+02 0.767389899433316D+01
 0.243059343395412D+03 -.183869488420830D+03 0.444915494304515D+02 -.152611787450867D+03
 0.324228931387355D+03 0.228592736834135D+03 -.845120417742661D+02 0.198142018401045D+03
 0.377339550656667D+03 -.177691022385203D+03 0.169074193544072D+03 0.286748939197511D+03
0.344535835238D-04 0.000000000000D+00 0.000000000000D+00 0.204438668532D-05 0.000000000000D+00  7 -1 1 24 -13 13 -24 21 0 0.57793060D-01 0.70805118D-01 0.12130629D+06 0.12130629D+06 0.12130629D+06 0.11149028D+01  1  2  2  1  7  1       -1 0.646123119836D-03 0.100000000000D+01
-.184104135633D-05 0.000000000000D+00 -.132310832568D-06 0.204438668532D-05 0.000000000000D+00  7 -1 1 24 -13 13 -24 21 2 0.57793060D-01 0.70805118D-01 0.12130629D+06 0.12130629D+06 0.12130629D+06 0.11149028D+01  1  2  3  1  7  1       -1 -.429159181420D-04 0.100000000000D+01
0.218167540448D-05 0.000000000000D+00 0.000000000000D+00 0.204438668532D-05 0.000000000000D+00  7 -1 1 24 -13 13 -24 21 2 0.57793060D-01 0.70805118D-01 0.12130629D+06 0.12130629D+06 0.12130629D+06 0.11149028D+01  1  2 15  1  7  1       -1 0.508563279957D-04 0.100000000000D+01
0.568662020983D-05 0.000000000000D+00 0.000000000000D+00 0.204438668532D-05 0.000000000000D+00  7 -1 1 24 -13 13 -24 21 2 0.10755890D+00 0.70805118D-01 0.24231156D+06 0.24231156D+06 0.24231156D+06 0.10914811D+01  1  2 12  1  7  1       -1 0.349486296541D-04 0.100000000000D+01
-.236118013094D-04 0.000000000000D+00 -.107191305123D-04 0.204438668532D-05 0.000000000000D+00  7 -1 1 24 -13 13 -24 21 2 0.11677182D+00 0.70805118D-01 0.12130629D+06 0.12130629D+06 0.12130629D+06 0.11149028D+01  1  2  5  1  7  1       -1 -.128326202672D-03 0.100000000000D+01
0.384944592273D-06 0.000000000000D+00 0.000000000000D+00 0.204438668532D-05 0.000000000000D+00  7 21 1 24 -13 13 -24 1 2 0.10755890D+00 0.70805118D-01 0.24231156D+06 0.24231156D+06 0.24231156D+06 0.10914811D+01  1  2 12  3  7  1       -1 0.161485656594D-04 0.100000000000D+01
-.114810066824D-05 0.000000000000D+00 -.815476980274D-06 0.204438668532D-05 0.000000000000D+00  7 21 1 24 -13 13 -24 1 2 0.11677182D+00 0.70805118D-01 0.12130629D+06 0.12130629D+06 0.12130629D+06 0.11149028D+01  1  2  5  3  7  1       -1 -.423857415633D-04 0.100000000000D+01
  </mgrwgt>
  </event>
  <event>
  8     66 0.29788925E-05 0.14712587E+03 0.75467711E-02 0.10184738E+00
       -1 -1    0    0    0  501 0.00000000E+00 0.00000000E+00 0.34348667E+03 0.34348682E+03 0.32000000E+00 0.0000E+00 0.9000E+01
        1 -1    0    0  501    0 0.00000000E+00 0.00000000E+00 -.19273439E+03 0.19273465E+03 0.32000000E+00 0.0000E+00 0.9000E+01
       25  2    1    2    0    0 -.31656440E+02 0.12306221E+03 0.11027476E+02 0.32676357E+03 0.30084280E+03 0.0000E+00 0.0000E+00
       23  2    1    2    0    0 0.31656440E+02 -.12306221E+03 0.13972480E+03 0.20945790E+03 0.90571257E+02 0.0000E+00 0.0000E+00
       24  1    3    3    0    0 0.75208762E+02 0.25896920E+02 0.89054191E+02 0.14396136E+03 0.80419002E+02 0.0000E+00 0.9000E+01
      -13  1    4    4    0    0 -.23737891E+02 -.78001628E+01 0.40532553E+02 0.47615428E+02 0.10565837E+00 0.0000E+00 0.9000E+01
       13  1    4    4    0    0 0.55394330E+02 -.11526205E+03 0.99192250E+02 0.16184247E+03 0.10565837E+00 0.0000E+00 0.9000E+01
      -24  1    3    3    0    0 -.10686520E+03 0.97165288E+02 -.78026716E+02 0.18280221E+03 0.80419002E+02 0.0000E+00 0.9000E+01
#aMCatNLO 1  0  0  1  2 0.11443194D+03 0.00000000D+00  -5  7  0 0.00000000D+00 0.00000000D+00 0.00000000D+00 0.00000000D+00 0.00000000D+00
  <mgrwgt>
 0.4053749320D-03    9    2    0
 0.257297111890395D+03 0.000000000000000D+00 0.000000000000000D+00 0.257297111890395D+03
 0.257297111890395D+03 0.000000000000000D+00 0.000000000000000D+00 -.257297111890395D+03
 0.123922975961854D+03 0.752087571438850D+02 0.258969231116413D+02 0.506229220718603D+02
 0.377422991082845D+02 -.237379974403984D+02 -.780001814804593D+01 0.282868933675829D+02
 0.139585753914780D+03 0.553944389571895D+02 -.115262196147680D+03 0.559487709229573D+02
 0.213343194795872D+03 -.106865198660676D+03 0.971652911840843D+02 -.134858586362401D+03
 0.000000000000000D+00 -.000000000000000D+00 0.000000000000000D+00 0.000000000000000D+00
 0.398481028998199D+03 0.000000000000000D+00 0.000000000000000D+00 0.398481028998199D+03
 0.287849536762391D+03 0.000000000000000D+00 0.000000000000000D+00 -.287849536762391D+03
 0.125698201409222D+03 0.822787149710237D+02 -.595572637305835D+00 0.506229220718603D+02
 0.389790063426076D+02 -.215650392014646D+02 -.159425118255353D+02 0.282868933675829D+02
 0.170936071193188D+03 0.641892705137121D+02 -.148218126482865D+03 0.559487709229573D+02
 0.191550721662745D+03 -.953974900953406D+02 0.541935751080534D+02 -.134858586362401D+03
 0.159166565152827D+03 -.295054561879306D+02 0.110562635837653D+03 0.110631492235808D+03
0.587316494061D-05 0.000000000000D+00 0.000000000000D+00 0.222606671523D-06 0.000000000000D+00  7 -1 1 24 -13 13 -24 21 0 0.52844134D-01 0.29651476D-01 0.46503612D+05 0.46503612D+05 0.46503612D+05 0.11500750D+01  1  2  2  1  7  1       -1 0.411117598116D-03 0.100000000000D+01
-.313915855952D-06 0.000000000000D+00 -.225544998118D-07 0.222606671523D-06 0.000000000000D+00  7 -1 1 24 -13 13 -24 21 2 0.52844134D-01 0.29651476D-01 0.46503612D+05 0.46503612D+05 0.46503612D+05 0.11500750D+01  1  2  3  1  7  1       -1 -.290642710915D-04 0.100000000000D+01
0.374669201084D-06 0.000000000000D+00 0.000000000000D+00 0.222606671523D-06 0.000000000000D+00  7 -1 1 24 -13 13 -24 21 2 0.52844134D-01 0.29651476D-01 0.46503612D+05 0.46503612D+05 0.46503612D+05 0.11500750D+01  1  2 15  1  7  1       -1 0.346891914615D-04 0.100000000000D+01
0.289054072585D-05 0.000000000000D+00 0.000000000000D+00 0.222606671523D-06 0.000000000000D+00  7 -1 1 24 -13 13 -24 21 2 0.83578450D-01 0.29651476D-01 0.76689350D+05 0.76689350D+05 0.76689350D+05 0.11313054D+01  1  2 12  1  7  1       -1 0.107692095195D-03 0.100000000000D+01
-.507609903296D-05 0.000000000000D+00 0.000000000000D+00 0.222606671523D-06 0.000000000000D+00  7 -1 1 24 -13 13 -24 21 2 0.52844134D-01 0.29651476D-01 0.46503612D+05 0.46503612D+05 0.46503612D+05 0.11500750D+01  1  2  4  1  7  1       -1 -.469976637319D-03 0.100000000000D+01
-.545141051171D-05 0.000000000000D+00 -.207287820888D-05 0.222606671523D-06 0.000000000000D+00  7 -1 1 24 -13 13 -24 21 2 0.88792486D-01 0.29651476D-01 0.46503612D+05 0.46503612D+05 0.46503612D+05 0.11500750D+01  1  2  5  1  7  1       -1 -.186815079646D-03 0.100000000000D+01
0.595763441305D-05 0.000000000000D+00 0.182197948574D-05 0.222606671523D-06 0.000000000000D+00  7 -1 1 24 -13 13 -24 21 2 0.52844134D-01 0.29651476D-01 0.46503612D+05 0.46503612D+05 0.46503612D+05 0.11500750D+01  1  2  6  1  7  1       -1 0.551594633918D-03 0.100000000000D+01
0.152345834403D-06 0.000000000000D+00 0.000000000000D+00 0.222606671523D-06 0.000000000000D+00  7 21 1 24 -13 13 -24 1 2 0.83578450D-01 0.29651476D-01 0.76689350D+05 0.76689350D+05 0.76689350D+05 0.11313054D+01  1  2 12  3  7  1       -1 0.439597646218D-04 0.100000000000D+01
-.219233019021D-06 0.000000000000D+00 -.120404823149D-06 0.222606671523D-06 0.000000000000D+00  7 21 1 24 -13 13 -24 1 2 0.88792486D-01 0.29651476D-01 0.46503612D+05 0.46503612D+05 0.46503612D+05 0.11500750D+01  1  2  5  3  7  1       -1 -.578223632827D-04 0.100000000000D+01
  </mgrwgt>
  </event>
  <event>
  9     66 0.29788925E-05 0.18345616E+03 0.75467711E-02 0.10023245E+00
       -1 -1    0    0    0  501 0.00000000E+00 0.00000000E+00 0.74289523E+03 0.74289530E+03 0.32000000E+00 0.0000E+00 0.9000E+01
       21 -1    0    0  501  502 0.00000000E+00 0.00000000E+00 -.17041165E+03 0.17041330E+03 0.75000000E+00 0.0000E+00 0.9000E+01
       25  2    1    2    0    0 0.59040125E+02 -.20127344E+03 0.24246630E+03 0.43908080E+03 0.30000885E+03 0.0000E+00 0.0000E+00
       23  2    1    2    0    0 -.53310606E+02 -.74969570E+01 0.20209329E+03 0.22931443E+03 0.94048842E+02 0.0000E+00 0.0000E+00
       24  1    3    3    0    0 0.83736410E+02 0.62801236E+01 0.16552209E+03 0.20227705E+03 0.80419002E+02 0.0000E+00 0.9000E+01
      -11  1    4    4    0    0 0.11833177E+02 -.56348618E+01 -.35606972E+01 0.13581395E+02 0.51099893E-03 0.0000E+00 0.9000E+01
       11  1    4    4    0    0 -.65143783E+02 -.18620952E+01 0.20565398E+03 0.21573303E+03 0.51099893E-03 0.0000E+00 0.9000E+01
      -24  1    3    3    0    0 -.24696285E+02 -.20755357E+03 0.76944215E+02 0.23680375E+03 0.80419002E+02 0.0000E+00 0.9000E+01
       -1  1    1    2    0  502 -.57295188E+01 0.20877040E+03 0.12792399E+03 0.24491337E+03 0.32000000E+00 0.0000E+00 0.9000E+01
#aMCatNLO 2  0  0  2  2 0.20884901D+03 0.00000000D+00  -5  7  0 0.00000000D+00 0.00000000D+00 0.00000000D+00 0.00000000D+00 0.00000000D+00
  <mgrwgt>
 0.5184676482D-04    1    2    0
 0.226661115754958D+03 0.000000000000000D+00 0.000000000000000D+00 0.226661115754958D+03
 0.226661115754958D+03 0.000000000000000D+00 0.000000000000000D+00 -.226661115754958D+03
 0.137756130856284D+03 0.821650888400177D+02 0.635354578487197D+02 0.414931248038608D+02
 0.207721794435142D+02 0.115797306265570D+02 0.360009980080015D+01 -.168651284867389D+02
 0.116371902600326D+03 -.664798358147704D+02 0.468205803244503D+02 0.832507321465865D+02
 0.178422018609791D+03 -.272649836518043D+02 -.113956137973970D+03 -.107878728463708D+03
 0.000000000000000D+00 -.000000000000000D+00 0.000000000000000D+00 -.000000000000000D+00
 0.333160707403956D+03 0.000000000000000D+00 0.000000000000000D+00 0.333160707403956D+03
 0.379992887930454D+03 0.000000000000000D+00 0.000000000000000D+00 -.379992887930454D+03
 0.123450888226324D+03 0.837364108047304D+02 0.628012333083105D+01 0.414931248038608D+02
 0.213590325853602D+02 0.118331759554515D+02 -.563486121529114D+01 -.168651284867389D+02
 0.105725419129727D+03 -.651437828971881D+02 -.186209480366237D+01 0.832507321465865D+02
 0.248582835753152D+03 -.246962850423413D+02 -.207553568330850D+03 -.107878728463708D+03
 0.214035419639847D+03 -.572951882065251D+01 0.208770401018973D+03 -.468321805264981D+02
0.339877409246D-06 0.000000000000D+00 0.000000000000D+00 0.143004464041D-06 0.277958442280D-11  7 -1 21 24 -11 11 -24 -1 2 0.11429167D+00 0.26217300D-01 0.98391702D+05 0.98391702D+05 0.98391702D+05 0.11223003D+01  1  2  1  4  7  2        1 0.518467648225D-04 0.100000000000D+01
  </mgrwgt>
  </event>
  <event>
  8     66 0.29788925E-05 0.45120510E+03 0.75467711E-02 0.84258433E-01
       -1 -1    0    0    0  501 0.00000000E+00 0.00000000E+00 0.23650003E+03 0.23650025E+03 0.32000000E+00 0.0000E+00 0.9000E+01
        1 -1    0    0  501    0 0.00000000E+00 0.00000000E+00 -.25403818E+04 0.25403819E+04 0.32000000E+00 0.0000E+00 0.9000E+01
       25  2    1    2    0    0 -.14724213E+02 0.40341264E+03 -.23087602E+04 0.23628335E+04 0.29941600E+03 0.0000E+00 0.0000E+00
       23  2    1    2    0    0 0.14724213E+02 -.40341264E+03 0.48784371E+01 0.41404856E+03 0.91944832E+02 0.0000E+00 0.0000E+00
       24  1    3    3    0    0 -.83710257E+02 0.59480778E+02 -.40926357E+03 0.42954540E+03 0.80419002E+02 0.0000E+00 0.9000E+01
      -11  1    4    4    0    0 0.48288560E+02 -.28309388E+03 -.14951562E+02 0.28757169E+03 0.51099893E-03 0.0000E+00 0.9000E+01
       11  1    4    4    0    0 -.33564347E+02 -.12031876E+03 0.19829999E+02 0.12647687E+03 0.51099893E-03 0.0000E+00 0.9000E+01
      -24  1    3    3    0    0 0.68986043E+02 0.34393186E+03 -.18994967E+04 0.19332881E+04 0.80419002E+02 0.0000E+00 0.9000E+01
#aMCatNLO 1  0  0  1  2 0.12933999D+04 0.00000000D+00  -5  7  0 0.00000000D+00 0.00000000D+00 0.00000000D+00 0.00000000D+00 0.00000000D+00
  <mgrwgt>
 0.6554852392D-03    5    2    0
 0.775113352167021D+03 0.000000000000000D+00 0.000000000000000D+00 0.775113352167021D+03
 0.775113352167021D+03 0.000000000000000D+00 0.000000000000000D+00 -.775113352167021D+03
 0.161203555264893D+03 -.837102568140579D+02 0.594807784935769D+02 -.947311995574501D+02
 0.492899550642735D+03 0.482885601154664D+02 -.283093875843009D+03 0.400594607360070D+03
 0.256025345901325D+03 -.335643467661808D+02 -.120318761078333D+03 0.223485588131825D+03
 0.640098252525090D+03 0.689860434647723D+02 0.343931858427764D+03 -.529348995934444D+03
 0.000000000000000D+00 -.000000000000000D+00 0.000000000000000D+00 0.000000000000000D+00
 0.253235012588835D+04 0.000000000000000D+00 0.000000000000000D+00 0.253235012588835D+04
 0.128409014281691D+04 0.000000000000000D+00 0.000000000000000D+00 -.128409014281691D+04
 0.133638749142469D+03 -.342884978267982D+02 -.352476675140546D+02 -.947311995574501D+02
 0.869968729858898D+03 0.276733890665023D+03 -.720963178840455D+03 0.400594607360070D+03
 0.409481384095024D+03 0.779885502320616D+02 -.334136172615971D+03 0.223485588131825D+03
 0.605843058942561D+03 0.277831959695805D+03 -.563705489532778D+02 -.529348995934444D+03
 0.179750834666630D+04 -.598265902766092D+03 0.114671756792376D+04 0.124825998307144D+04
0.528124437655D-03 0.000000000000D+00 0.000000000000D+00 0.686487406849D-05 0.000000000000D+00  7 -1 1 24 -11 11 -24 21 0 0.36384638D-01 0.39082799D+00 0.20358604D+06 0.20358604D+06 0.20358604D+06 0.10972331D+01  1  2  2  1  7  1       -1 0.615405856282D-03 0.100000000000D+01
-.188959327228D-04 0.000000000000D+00 -.202813689895D-05 0.686487406849D-05 0.000000000000D+00  7 -1 1 24 -11 11 -24 21 2 0.36384638D-01 0.39082799D+00 0.20358604D+06 0.20358604D+06 0.20358604D+06 0.10972331D+01  1  2  3  1  7  1       -1 -.265088877134D-04 0.100000000000D+01
0.321575603676D-04 0.000000000000D+00 0.000000000000D+00 0.686487406849D-05 0.000000000000D+00  7 -1 1 24 -11 11 -24 21 2 0.36384638D-01 0.39082799D+00 0.20358604D+06 0.20358604D+06 0.20358604D+06 0.10972331D+01  1  2 15  1  7  1       -1 0.451134733293D-04 0.100000000000D+01
0.514953987718D-03 0.000000000000D+00 -.254980290231D-03 0.686487406849D-05 0.000000000000D+00  7 -1 1 24 -11 11 -24 21 2 0.22449554D+00 0.39082799D+00 0.20358604D+06 0.20358604D+06 0.20358604D+06 0.10972331D+01  1  2  5  1  7  1       -1 0.941012936198D-05 0.100000000000D+01
0.971443489472D-04 0.000000000000D+00 -.568652773594D-04 0.686487406849D-05 0.000000000000D+00  7 21 1 24 -11 11 -24 1 2 0.22449554D+00 0.39082799D+00 0.20358604D+06 0.20358604D+06 0.20358604D+06 0.10972331D+01  1  2  5  3  7  1       -1 0.120646679585D-04 0.100000000000D+01
  </mgrwgt>
  </event>
  <event>
  8     66 0.29788925E-05 0.52691485E+03 0.75467711E-02 0.86997069E-01
       -1 -1    0    0    0  501 0.00000000E+00 0.00000000E+00 0.70644310E+03 0.70644317E+03 0.32000000E+00 0.0000E+00 0.9000E+01
        1 -1    0    0  501    0 0.00000000E+00 0.00000000E+00 -.89097146E+03 0.89097152E+03 0.32000000E+00 0.0000E+00 0.9000E+01
       25  2    1    2    0    0 0.56481849E+03 0.46711221E+03 -.30304166E+03 0.84999792E+03 0.30569343E+03 0.0000E+00 0.0000E+00
       23  2    1    2    0    0 -.56481849E+03 -.46711221E+03 0.11851330E+03 0.74741677E+03 0.85864310E+02 0.0000E+00 0.0000E+00
       24  1    3    3    0    0 0.20764894E+03 0.70409738E+02 -.18371372E+03 0.29714232E+03 0.80419002E+02 0.0000E+00 0.9000E+01
      -11  1    4    4    0    0 -.12462103E+02 -.33206908E+02 0.32301951E+01 0.35615122E+02 0.51099893E-03 0.0000E+00 0.9000E+01
       11  1    4    4    0    0 -.55235639E+03 -.43390530E+03 0.11528310E+03 0.71180165E+03 0.51099893E-03 0.0000E+00 0.9000E+01
      -24  1    3    3    0    0 0.35716955E+03 0.39670247E+03 -.11932794E+03 0.55285560E+03 0.80419002E+02 0.0000E+00 0.9000E+01
#aMCatNLO 1  0  0  1  2 0.50034328D+03 0.00000000D+00  -5  7  0 0.00000000D+00 0.00000000D+00 0.00000000D+00 0.00000000D+00 0.00000000D+00
  <mgrwgt>
 0.1410066494D-02    9    2    0
 0.793360413363352D+03 0.000000000000000D+00 0.000000000000000D+00 0.793360413363352D+03
 0.793360413363352D+03 0.000000000000000D+00 0.000000000000000D+00 -.793360413363352D+03
 0.277779877415191D+03 0.207648936487077D+03 0.704097382484552D+02 -.150395585965805D+03
 0.362308100900732D+02 -.124621027510157D+02 -.332069076104092D+02 0.739384079892342D+01
 0.730005804007697D+03 -.552356387414069D+03 -.433905304524238D+03 0.198839336836381D+03
 0.542704335213744D+03 0.357169553678007D+03 0.396702473886192D+03 -.558375916695001D+02
 0.000000000000000D+00 0.000000000000000D+00 0.000000000000000D+00 0.000000000000000D+00
 0.124015587197334D+04 0.000000000000000D+00 0.000000000000000D+00 0.124015587197334D+04
 0.985158376009704D+03 0.000000000000000D+00 0.000000000000000D+00 -.985158376009704D+03
 0.222616715390745D+03 0.138174143769345D+03 0.371491552071425D+02 -.150395585965805D+03
 0.460554233188565D+02 -.238866789607610D+02 -.386763455298556D+02 0.739384079892342D+01
 0.981621620151140D+03 -.789997814660035D+03 -.547674516576210D+03 0.198839336836381D+03
 0.413444917150584D+03 0.224418307825723D+03 0.333148720592579D+03 -.558375916695001D+02
 0.561575571971723D+03 0.451292042025729D+03 0.216052986306345D+03 0.254997495963640D+03
0.696916468312D-03 0.000000000000D+00 0.000000000000D+00 0.787957017381D-08 0.000000000000D+00  7 -1 1 24 -11 11 -24 21 0 0.10868356D+00 0.13707254D+00 0.57096203D+06 0.57096203D+06 0.57096203D+06 0.10644606D+01  1  2  2  1  7  1       -1 0.125092881230D-02 0.100000000000D+01
-.386057573056D-04 0.000000000000D+00 -.267634274064D-05 0.787957017381D-08 0.000000000000D+00  7 -1 1 24 -11 11 -24 21 2 0.10868356D+00 0.13707254D+00 0.57096203D+06 0.57096203D+06 0.57096203D+06 0.10644606D+01  1  2  3  1  7  1       -1 -.785168959555D-04 0.100000000000D+01
0.446244698775D-04 0.000000000000D+00 0.000000000000D+00 0.787957017381D-08 0.000000000000D+00  7 -1 1 24 -11 11 -24 21 2 0.10868356D+00 0.13707254D+00 0.57096203D+06 0.57096203D+06 0.57096203D+06 0.10644606D+01  1  2 15  1  7  1       -1 0.907578325872D-04 0.100000000000D+01
0.913411907715D-04 0.000000000000D+00 0.000000000000D+00 0.787957017381D-08 0.000000000000D+00  7 -1 1 24 -11 11 -24 21 2 0.17704640D+00 0.13707254D+00 0.10824972D+07 0.10824972D+07 0.10824972D+07 0.10455799D+01  1  2 12  1  7  1       -1 0.444598843881D-04 0.100000000000D+01
-.322127320709D-03 0.000000000000D+00 0.000000000000D+00 0.787957017381D-08 0.000000000000D+00  7 -1 1 24 -11 11 -24 21 2 0.10868356D+00 0.13707254D+00 0.57096203D+06 0.57096203D+06 0.57096203D+06 0.10644606D+01  1  2  4  1  7  1       -1 -.655146773169D-03 0.100000000000D+01
-.363630027684D-03 0.000000000000D+00 -.218754301217D-03 0.787957017381D-08 0.000000000000D+00  7 -1 1 24 -11 11 -24 21 2 0.19504546D+00 0.13707254D+00 0.57096203D+06 0.57096203D+06 0.57096203D+06 0.10644606D+01  1  2  5  1  7  1       -1 -.136462898402D-03 0.100000000000D+01
0.445848327155D-03 0.000000000000D+00 0.186028253141D-03 0.787957017381D-08 0.000000000000D+00  7 -1 1 24 -11 11 -24 21 2 0.10868356D+00 0.13707254D+00 0.57096203D+06 0.57096203D+06 0.57096203D+06 0.10644606D+01  1  2  6  1  7  1       -1 0.906772180068D-03 0.100000000000D+01
0.505217976802D-05 0.000000000000D+00 0.000000000000D+00 0.787957017381D-08 0.000000000000D+00  7 21 1 24 -11 11 -24 1 2 0.17704640D+00 0.13707254D+00 0.10824972D+07 0.10824972D+07 0.10824972D+07 0.10455799D+01  1  2 12  3  7  1       -1 0.148594448541D-04 0.100000000000D+01
-.117615806998D-04 0.000000000000D+00 -.140397590753D-04 0.787957017381D-08 0.000000000000D+00  7 21 1 24 -11 11 -24 1 2 0.19504546D+00 0.13707254D+00 0.57096203D+06 0.57096203D+06 0.57096203D+06 0.10644606D+01  1  2  5  3  7  1       -1 -.275850926096D-04 0.100000000000D+01
  </mgrwgt>
  </event>
  <event>
  9     66 0.29788925E-05 0.15615241E+03 0.75467711E-02 0.10081226E+00
       21 -1    0    0  502  501 0.00000000E+00 0.00000000E+00 0.13933254E+03 0.13933456E+03 0.75000000E+00 0.0000E+00 0.9000E+01
        1 -1    0    0  501    0 0.00000000E+00 0.00000000E+00 -.97519797E+03 0.97519803E+03 0.32000000E+00 0.0000E+00 0.9000E+01
       25  2    1    2    0    0 0.17006358E+03 -.18027449E+03 -.37452100E+03 0.53995623E+03 0.29977699E+03 0.0000E+00 0.0000E+00
       23  2    1    2    0    0 -.55644337E+02 -.20062624E+02 -.18070842E+03 0.21128117E+03 0.92116217E+02 0.0000E+00 0.0000E+00
       24  1    3    3    0    0 0.12316553E+03 -.15091624E+03 -.38787854E+03 0.44143226E+03 0.80419002E+02 0.0000E+00 0.9000E+01
      -13  1    4    4    0    0 -.38616338E+02 -.73588728E+01 -.18540205E+03 0.18952389E+03 0.10565837E+00 0.0000E+00 0.9000E+01
       13  1    4    4    0    0 -.17027999E+02 -.12703751E+02 0.46936223E+01 0.21757282E+02 0.10565837E+00 0.0000E+00 0.9000E+01
      -24  1    3    3    0    0 0.46898044E+02 -.29358251E+02 0.13357544E+02 0.98523974E+02 0.80419002E+02 0.0000E+00 0.9000E+01
        1  1    1    2  502    0 -.11441924E+03 0.20033711E+03 -.28063601E+03 0.36329519E+03 0.32000000E+00 0.0000E+00 0.9000E+01
#aMCatNLO 2  0  0  1  2 0.23070917D+03 0.00000000D+00  -5  7  0 0.00000000D+00 0.00000000D+00 0.00000000D+00 0.00000000D+00 0.00000000D+00
  <mgrwgt>
 0.9543729195D-04    1    2    0
 0.225195027711491D+03 0.000000000000000D+00 0.000000000000000D+00 0.225195027711491D+03
 0.225195027711491D+03 0.000000000000000D+00 0.000000000000000D+00 -.225195027711491D+03
 0.159710927341274D+03 0.765747647695178D+02 -.693402679904078D+02 -.914800360371088D+02
 0.940984216758743D+02 -.591966055424751D+02 0.286751501609412D+02 -.672904942572628D+02
 0.407517579920398D+02 -.263832750387725D+02 0.367647913031817D+01 0.308401050399411D+02
 0.155828948413794D+03 0.900511581172982D+01 0.369886386991484D+02 0.127930425254430D+03
 0.000000000000000D+00 -.000000000000000D+00 0.000000000000000D+00 -.000000000000000D+00
 0.359722811058916D+03 0.000000000000000D+00 0.000000000000000D+00 0.359722811058916D+03
 0.377729414725796D+03 0.000000000000000D+00 0.000000000000000D+00 -.377729414725796D+03
 0.229741752358068D+03 0.123165534637354D+03 -.150916238047234D+03 -.914800360371088D+02
 0.779319427326894D+02 -.386163719576736D+02 -.735886523392459D+01 -.672904942572628D+02
 0.374492909142655D+02 -.170279739638644D+02 -.127037558931460D+02 0.308401050399411D+02
 0.160918438420087D+03 0.468980496018082D+02 -.293582544943616D+02 0.127930425254430D+03
 0.231410801359602D+03 -.114419238317624D+03 0.200337113668666D+03 -.180066036668808D+02
0.188998413754D-06 0.000000000000D+00 0.000000000000D+00 0.467615376827D-06 0.761746437075D-11  7 21 1 24 -13 13 -24 1 2 0.21435929D-01 0.15003057D+00 0.89886815D+05 0.89886815D+05 0.89886815D+05 0.11255417D+01  1  2  1  3  7  1       -1 0.954372919548D-04 0.100000000000D+01
  </mgrwgt>
  </event>
  <event>
  9     66 0.29788925E-05 0.30292921E+03 0.75467711E-02 0.96343108E-01
       -1 -1    0    0    0  502 0.00000000E+00 0.00000000E+00 0.65036904E+03 0.65036912E+03 0.32000000E+00 0.0000E+00 0.9000E+01
        1 -1    0    0  501    0 0.00000000E+00 0.00000000E+00 -.55567709E+03 0.55567718E+03 0.32000000E+00 0.0000E+00 0.9000E+01
       25  2    1    2    0    0 0.10109346E+03 0.35788627E+03 -.22642674E+03 0.52919759E+03 0.30079653E+03 0.0000E+00 0.0000E+00
       23  2    1    2    0    0 0.64007857E+02 -.21505105E+03 0.38014093E+03 0.45069714E+03 0.90977066E+02 0.0000E+00 0.0000E+00
       24  1    3    3    0    0 -.37451879E+01 0.14295868E+03 0.32963994E+02 0.16734710E+03 0.80419002E+02 0.0000E+00 0.9000E+01
      -11  1    4    4    0    0 0.68368905E+02 -.19502765E+03 0.37704934E+03 0.42997244E+03 0.51099893E-03 0.0000E+00 0.9000E+01
       11  1    4    4    0    0 -.43610485E+01 -.20023399E+02 0.30915840E+01 0.20724699E+02 0.51099893E-03 0.0000E+00 0.9000E+01
      -24  1    3    3    0    0 0.10483864E+03 0.21492759E+03 -.25939073E+03 0.36185049E+03 0.80419002E+02 0.0000E+00 0.9000E+01
       21  1    1    2  501  502 -.16510131E+03 -.14283522E+03 -.59022242E+02 0.22615157E+03 0.75000000E+00 0.0000E+00 0.9000E+01
#aMCatNLO 2  0  0  1  1 0.21831249D+03 0.00000000D+00  -5  7  0 0.00000000D+00 0.00000000D+00 0.00000000D+00 0.00000000D+00 0.00000000D+00
  <mgrwgt>
 0.1242505868D-03    1    2    0
 0.471408869795330D+03 0.000000000000000D+00 0.000000000000000D+00 0.471408869795330D+03
 0.471408869795330D+03 0.000000000000000D+00 0.000000000000000D+00 -.471408869795330D+03
 0.147551646625507D+03 -.306857399635808D+02 0.119651420198354D+03 0.679672530947583D+01
 0.402982358918809D+03 0.109922932092084D+01 -.253225123385529D+03 0.313481435145769D+03
 0.248328638744985D+02 -.827788499462562D+01 -.234119986213551D+02 -.161458288079324D+00
 0.367450870171845D+03 0.378643956372856D+02 0.156985701808530D+03 -.320116702167166D+03
 0.000000000000000D+00 -.000000000000000D+00 -.000000000000000D+00 -.000000000000000D+00
 0.555220291304648D+03 0.000000000000000D+00 0.000000000000000D+00 0.555220291304648D+03
 0.650902989093139D+03 0.000000000000000D+00 0.000000000000000D+00 -.650902989093139D+03
 0.164209083133149D+03 -.374518792096411D+01 0.142958683267450D+03 0.679672530947583D+01
 0.375473969876319D+03 0.683689051875530D+02 -.195027651057708D+03 0.313481435145769D+03
 0.204934459827292D+02 -.436104848172126D+01 -.200233992021416D+02 -.161458288079324D+00
 0.407586712649961D+03 0.104838643327681D+03 0.214927588348404D+03 -.320116702167166D+03
 0.238360068755628D+03 -.165101312112549D+03 -.142835221356004D+03 -.956826977884914D+02
0.217396722832D-04 0.000000000000D+00 0.000000000000D+00 0.389408388890D-05 0.547133693724D-09  7 -1 1 24 -11 11 -24 21 2 0.10005669D+00 0.85488710D-01 0.18568851D+06 0.18568851D+06 0.18568851D+06 0.11003105D+01  1  2  1  1  7  1       -1 0.124250586831D-03 0.100000000000D+01
  </mgrwgt>
  </event>
  <event>
  8     66 0.29788925E-05 0.35374678E+03 0.75467711E-02 0.92011429E-01
       -1 -1    0    0    0  501 0.00000000E+00 0.00000000E+00 0.38067301E+03 0.38067314E+03 0.32000000E+00 0.0000E+00 0.9000E+01
        1 -1    0    0  501    0 0.00000000E+00 0.00000000E+00 -.91182566E+03 0.91182571E+03 0.32000000E+00 0.0000E+00 0.9000E+01
       25  2    1    2    0    0 -.38801764E+03 -.33114883E+03 -.68444907E+02 0.59792381E+03 0.30432047E+03 0.0000E+00 0.0000E+00
       23  2    1    2    0    0 0.38801764E+03 0.33114883E+03 -.46270774E+03 0.69457504E+03 0.90104360E+02 0.0000E+00 0.0000E+00
       24  1    3    3    0    0 -.34285077E+02 -.16127407E+03 0.28884555E+02 0.18570494E+03 0.80419002E+02 0.0000E+00 0.9000E+01
      -13  1    4    4    0    0 0.36314141E+03 0.27168502E+03 -.40266007E+03 0.60648131E+03 0.10565837E+00 0.0000E+00 0.9000E+01
       13  1    4    4    0    0 0.24876228E+02 0.59463810E+02 -.60047675E+02 0.88093734E+02 0.10565837E+00 0.0000E+00 0.9000E+01
      -24  1    3    3    0    0 -.35373256E+03 -.16987477E+03 -.97329462E+02 0.41221888E+03 0.80419002E+02 0.0000E+00 0.9000E+01
#aMCatNLO 1  0  0  2  1 0.15574528D+03 0.00000000D+00  -5  7  0 0.00000000D+00 0.00000000D+00 0.00000000D+00 0.00000000D+00 0.00000000D+00
  <mgrwgt>
 0.6887572559D-03    9    2    0
 0.589158331113709D+03 0.000000000000000D+00 0.000000000000000D+00 0.589158331113709D+03
 0.589158331113709D+03 0.000000000000000D+00 0.000000000000000D+00 -.589158331113709D+03
 0.216720628681412D+03 -.342850794694091D+02 -.161274064793911D+03 0.115394212559911D+03
 0.483743568694354D+03 0.363141876751352D+03 0.271685314137576D+03 -.168294110665292D+03
 0.695618589004774D+02 0.248757632589220D+02 0.594635185822226D+02 -.261560427778679D+02
 0.408290605951175D+03 -.353732560540865D+03 -.169874767925888D+03 0.790559408832491D+02
 0.000000000000000D+00 -.000000000000000D+00 -.000000000000000D+00 -.000000000000000D+00
 0.623862860182380D+03 0.000000000000000D+00 0.000000000000000D+00 0.623862860182380D+03
 0.799288357496884D+03 0.000000000000000D+00 0.000000000000000D+00 -.799288357496884D+03
 0.198955982954058D+03 -.175862762362774D+02 -.139610765325116D+03 0.115394212559911D+03
 0.545695789641026D+03 0.404497114943967D+03 0.325335321090914D+03 -.168294110665292D+03
 0.783991328241242D+02 0.308197384979112D+02 0.671746170268011D+02 -.261560427778679D+02
 0.365514089547871D+03 -.322646827090113D+03 -.129547353826256D+03 0.790559408832491D+02
 0.234586222712185D+03 -.950837501154872D+02 -.123351818966344D+03 -.175425497314504D+03
0.828893925663D-04 0.000000000000D+00 0.000000000000D+00 0.615848308235D-07 0.000000000000D+00  7 -1 1 24 -13 13 -24 21 0 0.58565093D-01 0.14028089D+00 0.30359589D+06 0.30359589D+06 0.30359589D+06 0.10841692D+01  1  2  2  2  7  2        1 0.530953702045D-03 0.100000000000D+01
-.457985606973D-05 0.000000000000D+00 -.318317092733D-06 0.615848308235D-07 0.000000000000D+00  7 -1 1 24 -13 13 -24 21 2 0.58565093D-01 0.14028089D+00 0.30359589D+06 0.30359589D+06 0.30359589D+06 0.10841692D+01  1  2  3  2  7  2        1 -.344828919735D-04 0.100000000000D+01
0.527461017619D-05 0.000000000000D+00 0.000000000000D+00 0.615848308235D-07 0.000000000000D+00  7 -1 1 24 -13 13 -24 21 2 0.58565093D-01 0.14028089D+00 0.30359589D+06 0.30359589D+06 0.30359589D+06 0.10841692D+01  1  2 15  2  7  2        1 0.397138709468D-04 0.100000000000D+01
0.115872595151D-03 0.000000000000D+00 0.000000000000D+00 0.615848308235D-07 0.000000000000D+00  7 -1 1 24 -13 13 -24 21 2 0.58565093D-01 0.19333509D+00 0.40175580D+06 0.40175580D+06 0.40175580D+06 0.10752905D+01  1  2 12  2  7  2        1 0.469538372393D-03 0.100000000000D+01
-.122004302684D-03 0.000000000000D+00 0.000000000000D+00 0.615848308235D-07 0.000000000000D+00  7 -1 1 24 -13 13 -24 21 2 0.58565093D-01 0.14028089D+00 0.30359589D+06 0.30359589D+06 0.30359589D+06 0.10841692D+01  1  2  4  2  7  2        1 -.918601179970D-03 0.100000000000D+01
-.165438218635D-03 0.000000000000D+00 -.366196701699D-04 0.615848308235D-07 0.000000000000D+00  7 -1 1 24 -13 13 -24 21 2 0.58565093D-01 0.19561634D+00 0.30359589D+06 0.30359589D+06 0.30359589D+06 0.10841692D+01  1  2  5  2  7  2        1 -.673933545338D-03 0.100000000000D+01
0.170061591371D-03 0.000000000000D+00 0.346845437062D-04 0.615848308235D-07 0.000000000000D+00  7 -1 1 24 -13 13 -24 21 2 0.58565093D-01 0.14028089D+00 0.30359589D+06 0.30359589D+06 0.30359589D+06 0.10841692D+01  1  2  6  2  7  2        1 0.128043663268D-02 0.100000000000D+01
0.470075241545D-05 0.000000000000D+00 0.000000000000D+00 0.615848308235D-07 0.000000000000D+00  7 -1 21 24 -13 13 -24 -1 2 0.58565093D-01 0.19333509D+00 0.40175580D+06 0.40175580D+06 0.40175580D+06 0.10752905D+01  1  2 12  4  7  2        1 0.185866824663D-04 0.100000000000D+01
-.592721272514D-05 0.000000000000D+00 -.152453210354D-05 0.615848308235D-07 0.000000000000D+00  7 -1 21 24 -13 13 -24 -1 2 0.58565093D-01 0.19561634D+00 0.30359589D+06 0.30359589D+06 0.30359589D+06 0.10841692D+01  1  2  5  4  7  2        1 -.234543873644D-04 0.100000000000D+01
  </mgrwgt>
  </event>
  <event>
  8     66 0.29788925E-05 0.33400253E+03 0.75467711E-02 0.88075345E-01
       -1 -1    0    0    0  501 0.00000000E+00 0.00000000E+00 0.70018864E+03 0.70018871E+03 0.32000000E+00 0.0000E+00 0.9000E+01
        1 -1    0    0  501    0 0.00000000E+00 0.00000000E+00 -.21580004E+03 0.21580027E+03 0.32000000E+00 0.0000E+00 0.9000E+01
       25  2    1    2    0    0 -.26911506E+03 0.13793659E+03 0.41079138E+03 0.59192948E+03 0.30030241E+03 0.0000E+00 0.0000E+00
       23  2    1    2    0    0 0.26911506E+03 -.13793659E+03 0.73597226E+02 0.32405951E+03 0.90269560E+02 0.0000E+00 0.0000E+00
       24  1    3    3    0    0 -.48746123E+02 0.62574895E+02 0.30229145E+03 0.32270596E+03 0.80419002E+02 0.0000E+00 0.9000E+01
      -11  1    4    4    0    0 0.30927511E+02 -.41337641E+02 0.39019842E+02 0.64713673E+02 0.51099893E-03 0.0000E+00 0.9000E+01
       11  1    4    4    0    0 0.23818755E+03 -.96598949E+02 0.34577384E+02 0.25934583E+03 0.51099893E-03 0.0000E+00 0.9000E+01
      -24  1    3    3    0    0 -.22036894E+03 0.75361695E+02 0.10849993E+03 0.26922352E+03 0.80419002E+02 0.0000E+00 0.9000E+01
#aMCatNLO 1  0  0  2  1 0.81585253D+03 0.00000000D+00  -5  7  0 0.00000000D+00 0.00000000D+00 0.00000000D+00 0.00000000D+00 0.00000000D+00
  <mgrwgt>
 0.8164999250D-03    3    2    0
 0.388716962215425D+03 0.000000000000000D+00 0.000000000000000D+00 0.388716962215425D+03
 0.388716962215425D+03 0.000000000000000D+00 0.000000000000000D+00 -.388716962215425D+03
 0.191872994727688D+03 -.487461231042759D+02 0.625748947178626D+02 0.155100703366400D+03
 0.519352760141632D+02 0.309275108062845D+02 -.413376406678837D+02 0.565344443745509D+01
 0.284022897240787D+03 0.238187548384508D+03 -.965989491437815D+02 -.120848421487190D+03
 0.249602756448212D+03 -.220368936086516D+03 0.753616950938027D+02 -.399057263166653D+02
 0.000000000000000D+00 0.000000000000000D+00 0.000000000000000D+00 0.000000000000000D+00
 0.101024590525964D+04 0.000000000000000D+00 0.000000000000000D+00 0.101024590525964D+04
 0.935935016347960D+03 0.000000000000000D+00 0.000000000000000D+00 -.935935016347960D+03
 0.222974872222605D+03 -.813729494966960D+02 -.112128464690161D+03 0.155100703366400D+03
 0.111969094526482D+03 0.180368106999989D+02 -.110362086582509D+03 0.565344443745509D+01
 0.465475366179568D+03 0.179241241388150D+03 -.412232401600956D+03 -.120848421487190D+03
 0.326531797249710D+03 -.265680587802033D+03 -.167263734661943D+03 -.399057263166653D+02
 0.819229791429232D+03 0.149775485210580D+03 0.801986687535569D+03 0.743108889116768D+02
0.559283844225D-04 0.000000000000D+00 0.000000000000D+00 0.226354771685D-05 0.000000000000D+00  7 -1 1 24 -11 11 -24 21 0 0.10772135D+00 0.33200030D-01 0.11155769D+06 0.11155769D+06 0.11155769D+06 0.11178449D+01  1  2  2  2  7  2        1 0.806535773633D-03 0.100000000000D+01
-.302019057228D-05 0.000000000000D+00 -.214779722464D-06 0.226354771685D-05 0.000000000000D+00  7 -1 1 24 -11 11 -24 21 2 0.10772135D+00 0.33200030D-01 0.11155769D+06 0.11155769D+06 0.11155769D+06 0.11178449D+01  1  2  3  2  7  2        1 -.544237910789D-04 0.100000000000D+01
0.357314058593D-05 0.000000000000D+00 0.000000000000D+00 0.226354771685D-05 0.000000000000D+00  7 -1 1 24 -11 11 -24 21 2 0.10772135D+00 0.33200030D-01 0.11155769D+06 0.11155769D+06 0.11155769D+06 0.11178449D+01  1  2 15  2  7  2        1 0.643879424461D-04 0.100000000000D+01
  </mgrwgt>
  </event>
  <event>
  8     66 0.29788925E-05 0.17429336E+03 0.75467711E-02 0.92799308E-01
       -3 -1    0    0    0  501 0.00000000E+00 0.00000000E+00 0.15520536E+03 0.15520617E+03 0.50000000E+00 0.0000E+00 0.9000E+01
        3 -1    0    0  501    0 0.00000000E+00 0.00000000E+00 -.38919435E+03 0.38919467E+03 0.50000000E+00 0.0000E+00 0.9000E+01
       25  2    1    2    0    0 -.28619094E+02 -.10460078E+03 -.77662843E+02 0.33345974E+03 0.30561987E+03 0.0000E+00 0.0000E+00
       23  2    1    2    0    0 0.28619094E+02 0.10460078E+03 -.15632614E+03 0.21094110E+03 0.91092849E+02 0.0000E+00 0.0000E+00
       24  1    3    3    0    0 0.48447952E+02 -.74787329E+02 -.15394193E+03 0.19520677E+03 0.80419002E+02 0.0000E+00 0.9000E+01
      -11  1    4    4    0    0 0.17266612E+02 0.99175498E+02 -.16663022E+03 0.19467806E+03 0.51099893E-03 0.0000E+00 0.9000E+01
       11  1    4    4    0    0 0.11352482E+02 0.54252832E+01 0.10304075E+02 0.16263042E+02 0.51099893E-03 0.0000E+00 0.9000E+01
      -24  1    3    3    0    0 -.77067046E+02 -.29813452E+02 0.76279084E+02 0.13825298E+03 0.80419002E+02 0.0000E+00 0.9000E+01
#aMCatNLO 1  0  0  1  2 0.53796602D+03 0.00000000D+00  -5  7  0 0.00000000D+00 0.00000000D+00 0.00000000D+00 0.00000000D+00 0.00000000D+00
  <mgrwgt>
 0.1141565461D-03    5    2    0
 0.245775013925017D+03 0.000000000000000D+00 0.000000000000000D+00 0.245775013925017D+03
 0.245775013925017D+03 0.000000000000000D+00 0.000000000000000D+00 -.245775013925017D+03
 0.142915284347529D+03 0.484479519755769D+02 -.747873291283582D+02 -.775707025685817D+02
 0.136289811974033D+03 0.172666121105972D+02 0.991754978907201D+02 -.918749017537831D+02
 0.229165965277038D+02 0.113524823873215D+02 0.542528319272119D+01 0.191535334165238D+02
 0.189428335000767D+03 -.770670464734956D+02 -.298134519550830D+02 0.150292070905841D+03
 0.000000000000000D+00 0.000000000000000D+00 -.000000000000000D+00 0.000000000000000D+00
 0.951775642977870D+03 0.000000000000000D+00 0.000000000000000D+00 0.951775642977870D+03
 0.487528143273184D+03 0.000000000000000D+00 0.000000000000000D+00 -.487528143273184D+03
 0.132190812291285D+03 -.641196879858370D+02 -.296419738795323D+02 -.775707025685817D+02
 0.224911118279255D+03 -.130529226539469D+03 0.158449154533451D+03 -.918749017537831D+02
 0.246520959801025D+02 -.811162806706832D+01 0.132313825421170D+02 0.191535334165238D+02
 0.346963252613118D+03 -.296547224668616D+03 0.582092748080507D+02 0.150292070905841D+03
 0.710586507087293D+03 0.499307767260991D+03 -.200247838004087D+03 0.464247499704686D+03
0.548044185376D-05 0.000000000000D+00 0.000000000000D+00 0.108448898506D-07 0.000000000000D+00  7 -3 3 24 -11 11 -24 21 0 0.23877835D-01 0.59876141D-01 0.30378176D+05 0.30378176D+05 0.30378176D+05 0.11668315D+01  1  2  2  1  7  1       -3 0.103752823939D-03 0.100000000000D+01
-.260744508596D-06 0.000000000000D+00 -.210463397519D-07 0.108448898506D-07 0.000000000000D+00  7 -3 3 24 -11 11 -24 21 2 0.23877835D-01 0.59876141D-01 0.30378176D+05 0.30378176D+05 0.30378176D+05 0.11668315D+01  1  2  3  1  7  1       -3 -.672071995304D-05 0.100000000000D+01
0.351930776964D-06 0.000000000000D+00 0.000000000000D+00 0.108448898506D-07 0.000000000000D+00  7 -3 3 24 -11 11 -24 21 2 0.23877835D-01 0.59876141D-01 0.30378176D+05 0.30378176D+05 0.30378176D+05 0.11668315D+01  1  2 15  1  7  1       -3 0.907105659702D-05 0.100000000000D+01
0.552983964207D-05 0.000000000000D+00 -.284892168895D-05 0.108448898506D-07 0.000000000000D+00  7 -3 3 24 -11 11 -24 21 2 0.15950788D+00 0.59876141D-01 0.30378176D+05 0.30378176D+05 0.30378176D+05 0.11668315D+01  1  2  5  1  7  1       -3 0.188691955553D-05 0.100000000000D+01
0.104339631693D-05 0.000000000000D+00 -.662314834699D-06 0.108448898506D-07 0.000000000000D+00  7 21 3 24 -11 11 -24 3 2 0.15950788D+00 0.59876141D-01 0.30378176D+05 0.30378176D+05 0.30378176D+05 0.11668315D+01  1  2  5  3  7  1       -3 0.616646593327D-05 0.100000000000D+01
  </mgrwgt>
  </event>
  <event>
  8     66 0.29788925E-05 0.37555062E+03 0.75467711E-02 0.95578678E-01
       -1 -1    0    0    0  501 0.00000000E+00 0.00000000E+00 0.13680013E+04 0.13680013E+04 0.32000000E+00 0.0000E+00 0.9000E+01
        1 -1    0    0  501    0 0.00000000E+00 0.00000000E+00 -.37529672E+03 0.37529686E+03 0.32000000E+00 0.0000E+00 0.9000E+01
       25  2    1    2    0    0 -.31569725E+03 0.54558995E+02 0.12483961E+04 0.13238341E+04 0.30232833E+03 0.0000E+00 0.0000E+00
       23  2    1    2    0    0 0.31569725E+03 -.54558995E+02 -.25569152E+03 0.41946411E+03 0.89053588E+02 0.0000E+00 0.0000E+00
       24  1    3    3    0    0 -.22327162E+02 -.63019245E+02 0.43724258E+03 0.44957560E+03 0.80419002E+02 0.0000E+00 0.9000E+01
      -11  1    4    4    0    0 0.17477581E+03 -.31912317E+02 -.19660503E+03 0.26498777E+03 0.51099893E-03 0.0000E+00 0.9000E+01
       11  1    4    4    0    0 0.14092144E+03 -.22646678E+02 -.59086491E+02 0.15447633E+03 0.51099893E-03 0.0000E+00 0.9000E+01
      -24  1    3    3    0    0 -.29337009E+03 0.11757824E+03 0.81115352E+03 0.87425849E+03 0.80419002E+02 0.0000E+00 0.9000E+01
#aMCatNLO 1  0  0  2  1 0.18272111D+03 0.00000000D+00  -5  7  0 0.00000000D+00 0.00000000D+00 0.00000000D+00 0.00000000D+00 0.00000000D+00
  <mgrwgt>
 0.5948653862D-03    4    2    0
 0.716523935904411D+03 0.000000000000000D+00 0.000000000000000D+00 0.716523935904411D+03
 0.716523935904411D+03 0.000000000000000D+00 0.000000000000000D+00 -.716523935904411D+03
 0.244019491195379D+03 -.223271617402517D+02 -.630192454537214D+02 0.220473056585038D+03
 0.458549526392951D+03 0.174775813777632D+03 -.319123167839666D+02 -.422732406033706D+03
 0.228850512592682D+03 0.140921437649200D+03 -.226466781069357D+02 -.178887767875662D+03
 0.501628341627810D+03 -.293370089686580D+03 0.117578240344624D+03 0.381147117324330D+03
 0.000000000000000D+00 0.000000000000000D+00 -.000000000000000D+00 0.000000000000000D+00
 0.922833000200249D+03 0.000000000000000D+00 0.000000000000000D+00 0.922833000200249D+03
 0.763952932018053D+03 0.000000000000000D+00 0.000000000000000D+00 -.763952932018053D+03
 0.247547410404942D+03 -.531537851983300D+02 -.581275397979553D+02 0.220473056585038D+03
 0.439614799408207D+03 0.118451082830912D+03 -.229744580753648D+02 -.422732406033706D+03
 0.212504561507729D+03 0.113243645193459D+03 -.182546429533293D+02 -.178887767875662D+03
 0.544983084618589D+03 -.359004078140205D+03 0.127993333420442D+03 0.381147117324330D+03
 0.242136076278834D+03 0.180463135314165D+03 -.286366925937924D+02 0.158880068182196D+03
0.721094848482D-03 0.000000000000D+00 0.000000000000D+00 0.217516176171D-06 0.000000000000D+00  7 -1 1 24 -11 11 -24 21 0 0.21046175D+00 0.57737970D-01 0.14103827D+06 0.14103827D+06 0.14103827D+06 0.11096694D+01  1  2  2  2  7  2        1 0.698117940132D-03 0.100000000000D+01
-.197329898645D-04 0.000000000000D+00 -.276919408681D-05 0.217516176171D-06 0.000000000000D+00  7 -1 1 24 -11 11 -24 21 2 0.21046175D+00 0.57737970D-01 0.14103827D+06 0.14103827D+06 0.14103827D+06 0.11096694D+01  1  2  3  2  7  2        1 -.235242895605D-04 0.100000000000D+01
0.447078534217D-04 0.000000000000D+00 0.000000000000D+00 0.217516176171D-06 0.000000000000D+00  7 -1 1 24 -11 11 -24 21 2 0.21046175D+00 0.57737970D-01 0.14103827D+06 0.14103827D+06 0.14103827D+06 0.11096694D+01  1  2 15  2  7  2        1 0.532975741002D-04 0.100000000000D+01
-.111586686401D-03 0.000000000000D+00 0.000000000000D+00 0.217516176171D-06 0.000000000000D+00  7 -1 1 24 -11 11 -24 21 2 0.21046175D+00 0.57737970D-01 0.14103827D+06 0.14103827D+06 0.14103827D+06 0.11096694D+01  1  2  4  2  7  2        1 -.133025838458D-03 0.100000000000D+01
  </mgrwgt>
  </event>
  <event>
  8     66 0.29788925E-05 0.18199466E+03 0.75467711E-02 0.93725438E-01
       -1 -1    0    0    0  501 0.00000000E+00 0.00000000E+00 0.50787223E+03 0.50787233E+03 0.32000000E+00 0.0000E+00 0.9000E+01
        1 -1    0    0  501    0 0.00000000E+00 0.00000000E+00 -.39060682E+03 0.39060695E+03 0.32000000E+00 0.0000E+00 0.9000E+01
       25  2    1    2    0    0 0.36689380E+03 -.11070788E+03 -.32926272E+01 0.48718582E+03 0.30078544E+03 0.0000E+00 0.0000E+00
       23  2    1    2    0    0 -.36689380E+03 0.11070788E+03 0.12055804E+03 0.41129347E+03 0.88095278E+02 0.0000E+00 0.0000E+00
       24  1    3    3    0    0 0.28348693E+03 0.39564588E+02 0.29434443E+01 0.29733160E+03 0.80419002E+02 0.0000E+00 0.9000E+01
      -11  1    4    4    0    0 -.19959816E+02 -.13644163E+02 0.25348458E+01 0.24310139E+02 0.51099893E-03 0.0000E+00 0.9000E+01
       11  1    4    4    0    0 -.34693399E+03 0.12435204E+03 0.11802319E+03 0.38698333E+03 0.51099893E-03 0.0000E+00 0.9000E+01
      -24  1    3    3    0    0 0.83406868E+02 -.15027247E+03 -.62360715E+01 0.18985422E+03 0.80419002E+02 0.0000E+00 0.9000E+01
#aMCatNLO 1  0  0  1  2 0.18451760D+03 0.00000000D+00  -5  7  0 0.00000000D+00 0.00000000D+00 0.00000000D+00 0.00000000D+00 0.00000000D+00
  <mgrwgt>
 0.8031882862D-03    9    2    0
 0.445396970238991D+03 0.000000000000000D+00 0.000000000000000D+00 0.445396970238991D+03
 0.445396970238991D+03 0.000000000000000D+00 0.000000000000000D+00 -.445396970238991D+03
 0.299509351419125D+03 0.283486934175261D+03 0.395645880762158D+02 -.361723258224392D+02
 0.241861845352321D+02 -.199598157825168D+02 -.136441626759243D+02 -.643506933304662D+00
 0.374785288208592D+03 -.346933986124424D+03 0.124352042592273D+03 0.680983922904561D+02
 0.192313116315033D+03 0.834068677316793D+02 -.150272467992565D+03 -.312825595347122D+02
 0.000000000000000D+00 0.000000000000000D+00 0.000000000000000D+00 0.000000000000000D+00
 0.629300357773033D+03 0.000000000000000D+00 0.000000000000000D+00 0.629300357773033D+03
 0.503643739258648D+03 0.000000000000000D+00 0.000000000000000D+00 -.503643739258648D+03
 0.283478212610824D+03 0.268789346571974D+03 -.183447835818018D+02 -.361723258224392D+02
 0.284560695839267D+02 -.212869695492325D+02 -.188732276625414D+02 -.643506933304662D+00
 0.375453306735948D+03 -.365848107373153D+03 0.498292769152331D+02 0.680983922904561D+02
 0.222315983829569D+03 0.729537330539487D+02 -.191458442002929D+03 -.312825595347122D+02
 0.223240524271413D+03 0.453919972964626D+02 0.178847176332039D+03 0.125656618514385D+03
0.486590883571D-04 0.000000000000D+00 0.000000000000D+00 0.200953392727D-06 0.000000000000D+00  7 -1 1 24 -11 11 -24 21 0 0.78134207D-01 0.60093375D-01 0.19350896D+06 0.19350896D+06 0.19350896D+06 0.10989276D+01  1  2  2  1  7  1       -1 0.629669659914D-03 0.100000000000D+01
-.270277515309D-05 0.000000000000D+00 -.186863711524D-06 0.200953392727D-06 0.000000000000D+00  7 -1 1 24 -11 11 -24 21 2 0.78134207D-01 0.60093375D-01 0.19350896D+06 0.19350896D+06 0.19350896D+06 0.10989276D+01  1  2  3  1  7  1       -1 -.422373695652D-04 0.100000000000D+01
0.314123028554D-05 0.000000000000D+00 0.000000000000D+00 0.200953392727D-06 0.000000000000D+00  7 -1 1 24 -11 11 -24 21 2 0.78134207D-01 0.60093375D-01 0.19350896D+06 0.19350896D+06 0.19350896D+06 0.10989276D+01  1  2 15  1  7  1       -1 0.490892867310D-04 0.100000000000D+01
0.290379604860D-04 0.000000000000D+00 0.000000000000D+00 0.200953392727D-06 0.000000000000D+00  7 -1 1 24 -11 11 -24 21 2 0.11384268D+00 0.60093375D-01 0.29346994D+06 0.29346994D+06 0.29346994D+06 0.10852597D+01  1  2 12  1  7  1       -1 0.191723865092D-03 0.100000000000D+01
-.366202140666D-04 0.000000000000D+00 0.000000000000D+00 0.200953392727D-06 0.000000000000D+00  7 -1 1 24 -11 11 -24 21 2 0.78134207D-01 0.60093375D-01 0.19350896D+06 0.19350896D+06 0.19350896D+06 0.10989276D+01  1  2  4  1  7  1       -1 -.572279019701D-03 0.100000000000D+01
-.517920687919D-04 0.000000000000D+00 -.185655995955D-04 0.200953392727D-06 0.000000000000D+00  7 -1 1 24 -11 11 -24 21 2 0.12034348D+00 0.60093375D-01 0.19350896D+06 0.19350896D+06 0.19350896D+06 0.10989276D+01  1  2  5  1  7  1       -1 -.311507876203D-03 0.100000000000D+01
0.561025894436D-04 0.000000000000D+00 0.169589509986D-04 0.200953392727D-06 0.000000000000D+00  7 -1 1 24 -11 11 -24 21 2 0.78134207D-01 0.60093375D-01 0.19350896D+06 0.19350896D+06 0.19350896D+06 0.10989276D+01  1  2  6  1  7  1       -1 0.876738045034D-03 0.100000000000D+01
0.132215841359D-05 0.000000000000D+00 0.000000000000D+00 0.200953392727D-06 0.000000000000D+00  7 21 1 24 -11 11 -24 1 2 0.11384268D+00 0.60093375D-01 0.29346994D+06 0.29346994D+06 0.29346994D+06 0.10852597D+01  1  2 12  3  7  1       -1 0.581973302103D-04 0.100000000000D+01
-.190814528372D-05 0.000000000000D+00 -.935427882967D-06 0.200953392727D-06 0.000000000000D+00  7 21 1 24 -11 11 -24 1 2 0.12034348D+00 0.60093375D-01 0.19350896D+06 0.19350896D+06 0.19350896D+06 0.10989276D+01  1  2  5  3  7  1       -1 -.762056353571D-04 0.100000000000D+01
  </mgrwgt>
  </event>
  <event>
  8     66 0.29788925E-05 0.12997707E+03 0.75467711E-02 0.92820373E-01
       -1 -1    0    0    0  501 0.00000000E+00 0.00000000E+00 0.21437229E+03 0.21437253E+03 0.32000000E+00 0.0000E+00 0.9000E+01
        1 -1    0    0  501    0 0.00000000E+00 0.00000000E+00 -.30506835E+03 0.30506851E+03 0.32000000E+00 0.0000E+00 0.9000E+01
       25  2    1    2    0    0 -.24202763E+02 0.21229968E+02 0.89549943E+02 0.31486863E+03 0.30014426E+03 0.0000E+00 0.0000E+00
       23  2    1    2    0    0 0.24202763E+02 -.21229968E+02 -.18024600E+03 0.20457241E+03 0.91240148E+02 0.0000E+00 0.0000E+00
       24  1    3    3    0    0 -.60369073E+02 -.12652487E+02 -.74349285E+02 0.12569623E+03 0.80419002E+02 0.0000E+00 0.9000E+01
      -13  1    4    4    0    0 0.37777901E+02 -.29774805E+02 -.37668252E+02 0.61095149E+02 0.10565837E+00 0.0000E+00 0.9000E+01
       13  1    4    4    0    0 -.13575138E+02 0.85448371E+01 -.14257775E+03 0.14347726E+03 0.10565837E+00 0.0000E+00 0.9000E+01
      -24  1    3    3    0    0 0.36166309E+02 0.33882456E+02 0.16389923E+03 0.18917240E+03 0.80419002E+02 0.0000E+00 0.9000E+01
#aMCatNLO 1  0  0  2  1 0.55094256D+03 0.00000000D+00  -5  7  0 0.00000000D+00 0.00000000D+00 0.00000000D+00 0.00000000D+00 0.00000000D+00
  <mgrwgt>
 0.5936291569D-03    5    2    0
 0.255730921990119D+03 0.000000000000000D+00 0.000000000000000D+00 0.255730921990119D+03
 0.255730921990119D+03 0.000000000000000D+00 0.000000000000000D+00 -.255730921990119D+03
 0.114473042699168D+03 -.603690727249660D+02 -.126524872356558D+02 -.532198381763262D+02
 0.553685878299824D+02 0.377779670423469D+02 -.297748545172989D+02 -.274219576782459D+02
 0.120432801348929D+03 -.135752030708776D+02 0.854488573919207D+01 -.119359785648430D+03
 0.221187412102159D+03 0.361663087534968D+02 0.338824560137627D+02 0.200001581503002D+03
 0.000000000000000D+00 -.000000000000000D+00 -.000000000000000D+00 -.000000000000000D+00
 0.546664822882510D+03 0.000000000000000D+00 0.000000000000000D+00 0.546664822882510D+03
 0.820193107530980D+03 0.000000000000000D+00 0.000000000000000D+00 -.820193107530980D+03
 0.102883010457436D+03 0.274395100761209D+02 0.230742279975409D+02 -.532198381763262D+02
 0.106987457271314D+03 0.103367372179652D+03 -.308846550036718D+01 -.274219576782459D+02
 0.166937390834812D+03 0.102518040933464D+03 0.557797930424652D+02 -.119359785648430D+03
 0.374944043207787D+03 0.276994468327231D+03 0.131868311185988D+03 0.200001581503002D+03
 0.615106028642142D+03 -.510319391516468D+03 -.207633866725627D+03 -.273528284648470D+03
0.574719554221D-05 0.000000000000D+00 0.000000000000D+00 0.168212179818D-05 0.000000000000D+00  7 -1 1 24 -13 13 -24 21 0 0.32980383D-01 0.46933623D-01 0.16894039D+05 0.16894039D+05 0.16894039D+05 0.11912069D+01  1  2  2  2  7  2        1 0.502017997691D-03 0.100000000000D+01
-.141483516035D-06 0.000000000000D+00 -.220707441534D-07 0.168212179818D-05 0.000000000000D+00  7 -1 1 24 -13 13 -24 21 2 0.32980383D-01 0.46933623D-01 0.16894039D+05 0.16894039D+05 0.16894039D+05 0.11912069D+01  1  2  3  2  7  2        1 -.175365256491D-04 0.100000000000D+01
0.351067690022D-06 0.000000000000D+00 0.000000000000D+00 0.168212179818D-05 0.000000000000D+00  7 -1 1 24 -13 13 -24 21 2 0.32980383D-01 0.46933623D-01 0.16894039D+05 0.16894039D+05 0.16894039D+05 0.11912069D+01  1  2 15  2  7  2        1 0.435139564179D-04 0.100000000000D+01
0.683643837944D-05 0.000000000000D+00 -.260815868300D-05 0.168212179818D-05 0.000000000000D+00  7 -1 1 24 -13 13 -24 21 2 0.32980383D-01 0.25669491D+00 0.16894039D+05 0.16894039D+05 0.16894039D+05 0.11912069D+01  1  2  5  2  7  2        1 0.572867092611D-04 0.100000000000D+01
0.130211410693D-05 0.000000000000D+00 -.542280435075D-06 0.168212179818D-05 0.000000000000D+00  7 -1 21 24 -13 13 -24 -1 2 0.32980383D-01 0.25669491D+00 0.16894039D+05 0.16894039D+05 0.16894039D+05 0.11912069D+01  1  2  5  4  7  2        1 0.834701914992D-05 0.100000000000D+01
  </mgrwgt>
  </event>
  <event>
  8     66 0.29788925E-05 0.95317124E+03 0.75467711E-02 0.82879054E-01
       -1 -1    0    0    0  501 0.00000000E+00 0.00000000E+00 0.42285547E+03 0.42285559E+03 0.32000000E+00 0.0000E+00 0.9000E+01
        1 -1    0    0  501    0 0.00000000E+00 0.00000000E+00 -.21721876E+04 0.21721876E+04 0.32000000E+00 0.0000E+00 0.9000E+01
       25  2    1    2    0    0 0.91561234E+03 -.14943261E+03 -.76141253E+03 0.12367179E+04 0.29840581E+03 0.0000E+00 0.0000E+00
       23  2    1    2    0    0 -.91561234E+03 0.14943261E+03 -.98791962E+03 0.13583254E+04 0.91578022E+02 0.0000E+00 0.0000E+00
       24  1    3    3    0    0 0.76307650E+03 -.36310666E+02 -.59146682E+03 0.96948668E+03 0.80419002E+02 0.0000E+00 0.9000E+01
      -13  1    4    4    0    0 -.36284802E+02 -.11404965E+02 -.33949089E+02 0.50982466E+02 0.10565837E+00 0.0000E+00 0.9000E+01
       13  1    4    4    0    0 -.87932754E+03 0.16083757E+03 -.95397053E+03 0.13073429E+04 0.10565837E+00 0.0000E+00 0.9000E+01
      -24  1    3    3    0    0 0.15253584E+03 -.11312194E+03 -.16994571E+03 0.26723120E+03 0.80419002E+02 0.0000E+00 0.9000E+01
#aMCatNLO 1  0  0  2  1 0.10823805D+04 0.00000000D+00  -5  7  0 0.00000000D+00 0.00000000D+00 0.00000000D+00 0.00000000D+00 0.00000000D+00
  <mgrwgt>
 0.1113170938D-02    5    2    0
 0.958395330558009D+03 0.000000000000000D+00 0.000000000000000D+00 0.958395330558009D+03
 0.958395330558009D+03 0.000000000000000D+00 0.000000000000000D+00 -.958395330558009D+03
 0.772743715866113D+03 0.763076502536565D+03 -.363106660207034D+02 0.840322632439176D+02
 0.380382038702929D+02 -.362836794481839D+02 -.114051943019261D+02 0.566658905078707D+00
 0.899316881213188D+03 -.879328659076955D+03 0.160837800553981D+03 -.984030694333081D+02
 0.206691860166423D+03 0.152535835988574D+03 -.113121940231352D+03 0.138041472843118D+02
 0.000000000000000D+00 -.000000000000000D+00 0.000000000000000D+00 -.000000000000000D+00
 0.138872291149939D+04 0.000000000000000D+00 0.000000000000000D+00 0.138872291149939D+04
 0.211731597891185D+04 0.000000000000000D+00 0.000000000000000D+00 -.211731597891185D+04
 0.124928692955854D+04 0.119462165598434D+04 -.346508721677777D+03 0.840322632439176D+02
 0.308060610095860D+02 -.215908215932293D+02 -.219665362663522D+02 0.566658905078707D+00
 0.576593931598343D+03 -.564337311328998D+03 -.655804614507660D+02 -.984030694333081D+02
 0.344593178284112D+03 0.270192008534682D+03 -.197694123856332D+03 0.138041472843118D+02
 0.130475878996067D+04 -.878885531596794D+03 0.631749843251227D+03 -.728593067412462D+03
0.168468656074D-02 0.000000000000D+00 0.000000000000D+00 0.279788160651D-05 0.000000000000D+00  7 -1 1 24 -13 13 -24 21 0 0.65054699D-01 0.33418272D+00 0.90853542D+06 0.90853542D+06 0.90853542D+06 0.10506483D+01  1  2  2  2  7  2        1 0.110401456846D-02 0.100000000000D+01
-.935902981818D-04 0.000000000000D+00 -.646963998140D-05 0.279788160651D-05 0.000000000000D+00  7 -1 1 24 -13 13 -24 21 2 0.65054699D-01 0.33418272D+00 0.90853542D+06 0.90853542D+06 0.90853542D+06 0.10506483D+01  1  2  3  2  7  2        1 -.677019618536D-04 0.100000000000D+01
0.107164372493D-03 0.000000000000D+00 0.000000000000D+00 0.279788160651D-05 0.000000000000D+00  7 -1 1 24 -13 13 -24 21 2 0.65054699D-01 0.33418272D+00 0.90853542D+06 0.90853542D+06 0.90853542D+06 0.10506483D+01  1  2 15  2  7  2        1 0.775212644851D-04 0.100000000000D+01
-.364403463585D-03 0.000000000000D+00 -.373448557608D-03 0.279788160651D-05 0.000000000000D+00  7 -1 1 24 -13 13 -24 21 2 0.65054699D-01 0.77294323D+00 0.90853542D+06 0.90853542D+06 0.90853542D+06 0.10506483D+01  1  2  5  2  7  2        1 -.662318551232D-06 0.100000000000D+01
-.965776217662D-05 0.000000000000D+00 -.341009115417D-04 0.279788160651D-05 0.000000000000D+00  7 -1 21 24 -13 13 -24 -1 2 0.65054699D-01 0.77294323D+00 0.90853542D+06 0.90853542D+06 0.90853542D+06 0.10506483D+01  1  2  5  4  7  2        1 -.614569070730D-09 0.100000000000D+01
  </mgrwgt>
  </event>
  <event>
  8     66 0.29788925E-05 0.25260441E+03 0.75467711E-02 0.94375554E-01
       -1 -1    0    0    0  501 0.00000000E+00 0.00000000E+00 0.95500737E+03 0.95500742E+03 0.32000000E+00 0.0000E+00 0.9000E+01
        1 -1    0    0  501    0 0.00000000E+00 0.00000000E+00 -.35964688E+03 0.35964702E+03 0.32000000E+00 0.0000E+00 0.9000E+01
       25  2    1    2    0    0 0.47124257E+03 -.52069934E+02 0.16524048E+02 0.56137452E+03 0.30014574E+03 0.0000E+00 0.0000E+00
       23  2    1    2    0    0 -.47124257E+03 0.52069934E+02 0.57883644E+03 0.75327993E+03 0.87167571E+02 0.0000E+00 0.0000E+00
       24  1    3    3    0    0 0.31059588E+03 0.55386225E+02 -.73052972E+02 0.33367857E+03 0.80419002E+02 0.0000E+00 0.9000E+01
      -11  1    4    4    0    0 -.74126707E+02 0.30879452E+02 0.13726257E+03 0.15902617E+03 0.51099893E-03 0.0000E+00 0.9000E+01
       11  1    4    4    0    0 -.39711586E+03 0.21190482E+02 0.44157387E+03 0.59425376E+03 0.51099893E-03 0.0000E+00 0.9000E+01
      -24  1    3    3    0    0 0.16064669E+03 -.10745616E+03 0.89577021E+02 0.22769594E+03 0.80419002E+02 0.0000E+00 0.9000E+01
#aMCatNLO 1  0  0  1  2 0.93769016D+01 0.00000000D+00  -5  7  0 0.00000000D+00 0.00000000D+00 0.00000000D+00 0.00000000D+00 0.00000000D+00
  <mgrwgt>
 0.1317841314D-02   11    2    0
 0.586059338631518D+03 0.000000000000000D+00 0.000000000000000D+00 0.586059338631518D+03
 0.586059338631518D+03 0.000000000000000D+00 0.000000000000000D+00 -.586059338631518D+03
 0.411361818131312D+03 0.310595883369038D+03 0.553862248949517D+02 -.251423731552971D+03
 0.108644075226453D+03 -.741267065443760D+02 0.308794516927074D+02 0.731794091384519D+02
 0.442227154689870D+03 -.397115865004269D+03 0.211904822175858D+02 0.193429081501194D+03
 0.209885629215401D+03 0.160646688179607D+03 -.107456158805245D+03 -.151847590866741D+02
 0.000000000000000D+00 0.000000000000000D+00 -.000000000000000D+00 0.000000000000000D+00
 0.591511718332713D+03 0.000000000000000D+00 0.000000000000000D+00 0.591511718332713D+03
 0.590123561812425D+03 0.000000000000000D+00 0.000000000000000D+00 -.590123561812425D+03
 0.409551799108328D+03 0.307862188417488D+03 0.572052476025792D+02 -.251423731552971D+03
 0.109278103761741D+03 -.748524013653903D+02 0.313623348898556D+02 0.731794091384519D+02
 0.444980101889772D+03 -.400070322023079D+03 0.231564017884135D+02 0.193429081501194D+03
 0.208346179318275D+03 0.159253949455878D+03 -.106529419205854D+03 -.151847590866741D+02
 0.947909606702047D+01 0.780658551510435D+01 -.519456507499398D+01 0.138815652028822D+01
0.120096434325D-03 0.000000000000D+00 0.000000000000D+00 0.671075130037D-06 0.000000000000D+00  7 -1 1 24 -11 11 -24 21 0 0.14692423D+00 0.55330304D-01 0.25649230D+06 0.25649230D+06 0.25649230D+06 0.10896225D+01  1  2  2  1  7  1       -1 0.390990871133D-03 0.100000000000D+01
-.649911829830D-05 0.000000000000D+00 -.461201929924D-06 0.671075130037D-06 0.000000000000D+00  7 -1 1 24 -11 11 -24 21 2 0.14692423D+00 0.55330304D-01 0.25649230D+06 0.25649230D+06 0.25649230D+06 0.10896225D+01  1  2  3  1  7  1       -1 -.251213539814D-04 0.100000000000D+01
0.768415833579D-05 0.000000000000D+00 0.000000000000D+00 0.671075130037D-06 0.000000000000D+00  7 -1 1 24 -11 11 -24 21 2 0.14692423D+00 0.55330304D-01 0.25649230D+06 0.25649230D+06 0.25649230D+06 0.10896225D+01  1  2 15  1  7  1       -1 0.297019461322D-04 0.100000000000D+01
0.503254524739D-04 0.000000000000D+00 0.000000000000D+00 0.671075130037D-06 0.000000000000D+00  7 -1 1 24 -11 11 -24 21 2 0.14879644D+00 0.55330304D-01 0.26130483D+06 0.26130483D+06 0.26130483D+06 0.10890171D+01  1  2 12  1  7  1       -1 0.187297717870D-03 0.100000000000D+01
-.422263683242D-04 0.000000000000D+00 0.000000000000D+00 0.671075130037D-06 0.000000000000D+00  7 -1 1 24 -11 11 -24 21 2 0.14692423D+00 0.55330304D-01 0.25649230D+06 0.25649230D+06 0.25649230D+06 0.10896225D+01  1  2  4  1  7  1       -1 -.163219608773D-03 0.100000000000D+01
-.838804674951D-02 0.000000000000D+00 -.964605853901D-03 0.671075130037D-06 0.000000000000D+00  7 -1 1 24 -11 11 -24 21 2 0.14902325D+00 0.55330304D-01 0.25649230D+06 0.25649230D+06 0.25649230D+06 0.10896225D+01  1  2  5  1  7  1       -1 -.311436546953D-01 0.100000000000D+01
0.840098183041D-02 0.000000000000D+00 0.964508810708D-03 0.671075130037D-06 0.000000000000D+00  7 -1 1 24 -11 11 -24 21 2 0.14692423D+00 0.55330304D-01 0.25649230D+06 0.25649230D+06 0.25649230D+06 0.10896225D+01  1  2  6  1  7  1       -1 0.324727184006D-01 0.100000000000D+01
0.290884072498D-07 0.000000000000D+00 0.000000000000D+00 0.671075130037D-06 0.482782009874D-07  7 -1 1 24 -11 11 -24 21 2 0.14829113D+00 0.55714011D-01 0.26130483D+06 0.26130483D+06 0.26130483D+06 0.10890171D+01  1  2 11  1  7  1       -1 0.108301669277D-06 0.100000000000D+01
0.332899807337D-05 0.000000000000D+00 0.000000000000D+00 0.671075130037D-06 0.000000000000D+00  7 21 1 24 -11 11 -24 1 2 0.14879644D+00 0.55330304D-01 0.26130483D+06 0.26130483D+06 0.26130483D+06 0.10890171D+01  1  2 12  3  7  1       -1 0.779832179482D-04 0.100000000000D+01
-.217714079403D-04 0.000000000000D+00 -.251188409727D-05 0.671075130037D-06 0.000000000000D+00  7 21 1 24 -11 11 -24 1 2 0.14902325D+00 0.55330304D-01 0.25649230D+06 0.25649230D+06 0.25649230D+06 0.10896225D+01  1  2  5  3  7  1       -1 -.508965420508D-03 0.100000000000D+01
0.826398613432D-10 0.000000000000D+00 0.000000000000D+00 0.671075130037D-06 0.833944732988D-10  7 21 1 24 -11 11 -24 1 2 0.14829113D+00 0.55714011D-01 0.26130483D+06 0.26130483D+06 0.26130483D+06 0.10890171D+01  1  2 11  3  7  1       -1 0.193743292997D-08 0.100000000000D+01
  </mgrwgt>
  </event>
  <event>
  8     66 0.29788925E-05 0.10842101E+03 0.75467711E-02 0.10695195E+00
       -1 -1    0    0    0  501 0.00000000E+00 0.00000000E+00 0.24377193E+02 0.24379293E+02 0.32000000E+00 0.0000E+00 0.9000E+01
        1 -1    0    0  501    0 0.00000000E+00 0.00000000E+00 -.17769960E+04 0.17769961E+04 0.32000000E+00 0.0000E+00 0.9000E+01
       25  2    1    2    0    0 -.15145681E+01 0.23146353E+02 -.10410512E+04 0.10834471E+04 0.29921913E+03 0.0000E+00 0.0000E+00
       23  2    1    2    0    0 0.15145681E+01 -.23146353E+02 -.71156767E+03 0.71792823E+03 0.92489703E+02 0.0000E+00 0.0000E+00
       24  1    3    3    0    0 -.41810644E+02 -.10739767E+03 -.53462081E+03 0.55278297E+03 0.80419002E+02 0.0000E+00 0.9000E+01
      -13  1    4    4    0    0 0.53374904E+01 0.22950164E+02 -.56325617E+02 0.61055591E+02 0.10565837E+00 0.0000E+00 0.9000E+01
       13  1    4    4    0    0 -.38229223E+01 -.46096518E+02 -.65524206E+03 0.65687264E+03 0.10565837E+00 0.0000E+00 0.9000E+01
      -24  1    3    3    0    0 0.40296076E+02 0.13054403E+03 -.50643036E+03 0.53066415E+03 0.80419002E+02 0.0000E+00 0.9000E+01
#aMCatNLO 1  0  0  2  1 0.14869165D+02 0.00000000D+00  -5  7  0 0.00000000D+00 0.00000000D+00 0.00000000D+00 0.00000000D+00 0.00000000D+00
  <mgrwgt>
 0.2929382172D-02    9    2    0
 0.208134796128655D+03 0.000000000000000D+00 0.000000000000000D+00 0.208134796128655D+03
 0.208134796128655D+03 0.000000000000000D+00 0.000000000000000D+00 -.208134796128655D+03
 0.141214032142755D+03 -.418106327463176D+02 -.107397623108430D+03 0.138494931191305D+02
 0.270657715827263D+02 0.533750215006714D+01 0.229502409906366D+02 0.133174134364765D+02
 0.838030795501836D+02 -.382293169155226D+01 -.460966310902927D+02 -.698816280398617D+02
 0.164186708981645D+03 0.402960622878027D+02 0.130544013208086D+03 0.427147214842547D+02
 0.000000000000000D+00 0.000000000000000D+00 -.000000000000000D+00 -.000000000000000D+00
 0.210261890545027D+03 0.000000000000000D+00 0.000000000000000D+00 0.210261890545027D+03
 0.235982268774881D+03 0.000000000000000D+00 0.000000000000000D+00 -.235982268774881D+03
 0.138645704388540D+03 -.441953380208484D+02 -.103006694096015D+03 0.138494931191305D+02
 0.277124381588806D+02 0.487073302021929D+01 0.238096973503966D+02 0.133174134364765D+02
 0.824747469025276D+02 -.523979720673490D+01 -.434877737343119D+02 -.698816280398617D+02
 0.167702181704234D+03 0.374680127870548D+02 0.135751266588202D+03 0.427147214842547D+02
 0.297090881657267D+02 0.709638942030915D+01 -.130664961082718D+02 -.257203782298543D+02
0.112784522074D-04 0.000000000000D+00 0.000000000000D+00 0.134246183434D-06 0.000000000000D+00  7 -1 1 24 -13 13 -24 21 0 0.37505012D-02 0.27338417D+00 0.34018836D+05 0.34018836D+05 0.34018836D+05 0.11623039D+01  1  2  2  2  7  2        1 0.154099716500D-02 0.100000000000D+01
-.615454149296D-06 0.000000000000D+00 -.433122261612D-07 0.134246183434D-06 0.000000000000D+00  7 -1 1 24 -13 13 -24 21 2 0.37505012D-02 0.27338417D+00 0.34018836D+05 0.34018836D+05 0.34018836D+05 0.11623039D+01  1  2  3  2  7  2        1 -.113602370649D-03 0.100000000000D+01
0.694417132084D-06 0.000000000000D+00 0.000000000000D+00 0.134246183434D-06 0.000000000000D+00  7 -1 1 24 -13 13 -24 21 2 0.37505012D-02 0.27338417D+00 0.34018836D+05 0.34018836D+05 0.34018836D+05 0.11623039D+01  1  2 15  2  7  2        1 0.128177594568D-03 0.100000000000D+01
0.649697559319D-04 0.000000000000D+00 0.000000000000D+00 0.134246183434D-06 0.000000000000D+00  7 -1 1 24 -13 13 -24 21 2 0.37505012D-02 0.31124213D+00 0.36690950D+05 0.36690950D+05 0.36690950D+05 0.11593092D+01  1  2 12  2  7  2        1 0.827878131684D-02 0.100000000000D+01
-.658515463176D-04 0.000000000000D+00 0.000000000000D+00 0.134246183434D-06 0.000000000000D+00  7 -1 1 24 -13 13 -24 21 2 0.37505012D-02 0.27338417D+00 0.34018836D+05 0.34018836D+05 0.34018836D+05 0.11623039D+01  1  2  4  2  7  2        1 -.121550756967D-01 0.100000000000D+01
-.924342733499D-04 0.000000000000D+00 -.939314115505D-05 0.134246183434D-06 0.000000000000D+00  7 -1 1 24 -13 13 -24 21 2 0.37505012D-02 0.31106133D+00 0.34018836D+05 0.34018836D+05 0.34018836D+05 0.11623039D+01  1  2  5  2  7  2        1 -.118698973336D-01 0.100000000000D+01
0.929489893610D-04 0.000000000000D+00 0.931538979953D-05 0.134246183434D-06 0.000000000000D+00  7 -1 1 24 -13 13 -24 21 2 0.37505012D-02 0.27338417D+00 0.34018836D+05 0.34018836D+05 0.34018836D+05 0.11623039D+01  1  2  6  2  7  2        1 0.171568029119D-01 0.100000000000D+01
0.131538663789D-05 0.000000000000D+00 0.000000000000D+00 0.134246183434D-06 0.000000000000D+00  7 -1 21 24 -13 13 -24 -1 2 0.37505012D-02 0.31124213D+00 0.36690950D+05 0.36690950D+05 0.36690950D+05 0.11593092D+01  1  2 12  4  7  2        1 0.925858652709D-04 0.100000000000D+01
-.181478824960D-05 0.000000000000D+00 -.189466869091D-06 0.134246183434D-06 0.000000000000D+00  7 -1 21 24 -13 13 -24 -1 2 0.37505012D-02 0.31106133D+00 0.34018836D+05 0.34018836D+05 0.34018836D+05 0.11623039D+01  1  2  5  4  7  2        1 -.129387280668D-03 0.100000000000D+01
  </mgrwgt>
  </event>
  <event>
  9     66 0.29788925E-05 0.43237718E+03 0.75467711E-02 0.94002763E-01
       -1 -1    0    0    0  501 0.00000000E+00 0.00000000E+00 0.95988015E+03 0.95988020E+03 0.32000000E+00 0.0000E+00 0.9000E+01
        1 -1    0    0  502    0 0.00000000E+00 0.00000000E+00 -.45971567E+03 0.45971578E+03 0.32000000E+00 0.0000E+00 0.9000E+01
       25  2    1    2    0    0 0.12220581E+03 0.46507772E+03 -.16435167E+03 0.59008134E+03 0.29992159E+03 0.0000E+00 0.0000E+00
       23  2    1    2    0    0 -.54110705E+02 -.29367920E+03 0.42152222E+03 0.52445562E+03 0.90538805E+02 0.0000E+00 0.0000E+00
       24  1    3    3    0    0 0.54686466E+02 0.44655799E+03 -.10856191E+03 0.46974200E+03 0.80419002E+02 0.0000E+00 0.9000E+01
      -13  1    4    4    0    0 -.43326712E+02 -.29476743E+03 0.38779650E+03 0.48903086E+03 0.10565837E+00 0.0000E+00 0.9000E+01
       13  1    4    4    0    0 -.10783993E+02 0.10882258E+01 0.33725721E+02 0.35424768E+02 0.10565837E+00 0.0000E+00 0.9000E+01
      -24  1    3    3    0    0 0.67519341E+02 0.18519738E+02 -.55789755E+02 0.12033933E+03 0.80419002E+02 0.0000E+00 0.9000E+01
       21  1    1    2  502  501 -.68095102E+02 -.17139852E+03 0.24299392E+03 0.30505902E+03 0.75000000E+00 0.0000E+00 0.9000E+01
#aMCatNLO 2  0  0  2  1 0.18442992D+03 0.00000000D+00  -5  7  0 0.00000000D+00 0.00000000D+00 0.00000000D+00 0.00000000D+00 0.00000000D+00
  <mgrwgt>
 0.8889889132D-04    1    2    0
 0.534331718488295D+03 0.000000000000000D+00 0.000000000000000D+00 0.534331718488295D+03
 0.534331718488295D+03 0.000000000000000D+00 0.000000000000000D+00 -.534331718488295D+03
 0.440925061163974D+03 0.246593344564886D+02 0.370978306882160D+03 -.222967949838295D+03
 0.466738899061066D+03 -.710746227341218D+02 -.364610494926136D+03 0.282582350633680D+03
 0.293414462136987D+02 -.126103729574842D+02 -.350856474190859D+01 0.262600253852955D+02
 0.131658030537852D+03 0.590256612351174D+02 -.285924721411588D+01 -.858744261806799D+02
 0.000000000000000D+00 -.000000000000000D+00 -.000000000000000D+00 0.000000000000000D+00
 0.758873043320343D+03 0.000000000000000D+00 0.000000000000000D+00 0.758873043320343D+03
 0.581482326806812D+03 0.000000000000000D+00 0.000000000000000D+00 -.581482326806812D+03
 0.508514078759820D+03 0.546864664282326D+02 0.446557987362312D+03 -.222967949838295D+03
 0.410631302285018D+03 -.433267558976977D+02 -.294767830249529D+03 0.282582350633680D+03
 0.284089352700741D+02 -.107839490685649D+02 0.108862869220743D+01 0.262600253852955D+02
 0.136906811773211D+03 0.675193409497458D+02 0.185197376165513D+02 -.858744261806799D+02
 0.255894242039032D+03 -.680951024117158D+02 -.171398523421542D+03 0.177390716513531D+03
0.328758945484D-04 0.000000000000D+00 0.000000000000D+00 0.104773648712D-04 0.214509568729D-08  7 -1 1 24 -13 13 -24 21 2 0.14767375D+00 0.70725436D-01 0.27923536D+06 0.27923536D+06 0.27923536D+06 0.10868641D+01  1  2  1  2  7  2        1 0.888988913235D-04 0.100000000000D+01
  </mgrwgt>
  </event>
  <event>
  8     66 0.29788925E-05 0.22939922E+03 0.75467711E-02 0.93107523E-01
       -1 -1    0    0    0  501 0.00000000E+00 0.00000000E+00 0.54892552E+02 0.54893484E+02 0.32000000E+00 0.0000E+00 0.9000E+01
        1 -1    0    0  501    0 0.00000000E+00 0.00000000E+00 -.14765926E+04 0.14765927E+04 0.32000000E+00 0.0000E+00 0.9000E+01
       25  2    1    2    0    0 0.70663687E+01 -.17635045E+03 -.10923585E+04 0.11464316E+04 0.29984834E+03 0.0000E+00 0.0000E+00
       23  2    1    2    0    0 -.70663687E+01 0.17635045E+03 -.32934161E+03 0.38505453E+03 0.93014393E+02 0.0000E+00 0.0000E+00
       24  1    3    3    0    0 -.26620618E+01 -.12371603E+02 -.78173674E+03 0.78596418E+03 0.80419002E+02 0.0000E+00 0.9000E+01
      -11  1    4    4    0    0 -.27713026E+02 0.14396751E+02 -.90560102E+02 0.95793582E+02 0.51099893E-03 0.0000E+00 0.9000E+01
       11  1    4    4    0    0 0.20646658E+02 0.16195370E+03 -.23878151E+03 0.28926094E+03 0.51099893E-03 0.0000E+00 0.9000E+01
      -24  1    3    3    0    0 0.97284305E+01 -.16397885E+03 -.31062175E+03 0.36046746E+03 0.80419002E+02 0.0000E+00 0.9000E+01
#aMCatNLO 1  0  0  2  1 0.47783819D+03 0.00000000D+00  -5  7  0 0.00000000D+00 0.00000000D+00 0.00000000D+00 0.00000000D+00 0.00000000D+00
  <mgrwgt>
 0.6224752327D-03    5    2    0
 0.284701034182097D+03 0.000000000000000D+00 0.000000000000000D+00 0.284701034182097D+03
 0.284701034182097D+03 0.000000000000000D+00 0.000000000000000D+00 -.284701034182097D+03
 0.162096475513998D+03 -.266206176366549D+01 -.123716032924922D+02 -.140170996567868D+03
 0.315370120228197D+02 -.277130262987210D+02 0.143967509292725D+02 -.439373000699484D+01
 0.181810796378515D+03 0.206466575508547D+02 0.161953701377733D+03 0.799992488828458D+02
 0.193957784448862D+03 0.972843051153178D+01 -.163978849014513D+03 0.645654776920171D+02
 0.000000000000000D+00 -.000000000000000D+00 0.000000000000000D+00 -.000000000000000D+00
 0.516486901540192D+03 0.000000000000000D+00 0.000000000000000D+00 0.516486901540192D+03
 0.765831105442258D+03 0.000000000000000D+00 0.000000000000000D+00 -.765831105442258D+03
 0.210064004098633D+03 0.132512623399206D+03 -.212642005401319D+02 -.140170996567868D+03
 0.171710343156231D+02 -.100214787288373D+02 0.132328953816389D+02 -.439373000699484D+01
 0.245715487275643D+03 0.175931095199784D+03 0.151738164635966D+03 0.799992488828458D+02
 0.270385231933678D+03 0.178385298947483D+03 -.175074104033912D+03 0.645654776920171D+02
 0.538982249358873D+03 -.476807538817636D+03 0.313672445564396D+02 -.249344203902066D+03
0.954948930927D-05 0.000000000000D+00 0.000000000000D+00 0.393529757756D-06 0.000000000000D+00  7 -1 1 24 -11 11 -24 21 0 0.84450824D-02 0.22716817D+00 0.52624001D+05 0.52624001D+05 0.52624001D+05 0.11453466D+01  1  2  2  2  7  2        1 0.612945113957D-03 0.100000000000D+01
-.500438758611D-06 0.000000000000D+00 -.366725533859D-07 0.393529757756D-06 0.000000000000D+00  7 -1 1 24 -11 11 -24 21 2 0.84450824D-02 0.22716817D+00 0.52624001D+05 0.52624001D+05 0.52624001D+05 0.11453466D+01  1  2  3  2  7  2        1 -.421372534965D-04 0.100000000000D+01
0.608339436768D-06 0.000000000000D+00 0.000000000000D+00 0.393529757756D-06 0.000000000000D+00  7 -1 1 24 -11 11 -24 21 2 0.84450824D-02 0.22716817D+00 0.52624001D+05 0.52624001D+05 0.52624001D+05 0.11453466D+01  1  2 15  2  7  2        1 0.512225574417D-04 0.100000000000D+01
0.111074674663D-05 0.000000000000D+00 -.255307740268D-05 0.393529757756D-06 0.000000000000D+00  7 -1 1 24 -11 11 -24 21 2 0.84450824D-02 0.69266855D+00 0.52624001D+05 0.52624001D+05 0.52624001D+05 0.11453466D+01  1  2  5  2  7  2        1 0.438781205875D-06 0.100000000000D+01
0.264940176200D-06 0.000000000000D+00 -.324852667964D-06 0.393529757756D-06 0.000000000000D+00  7 -1 21 24 -11 11 -24 -1 2 0.84450824D-02 0.69266855D+00 0.52624001D+05 0.52624001D+05 0.52624001D+05 0.11453466D+01  1  2  5  4  7  2        1 0.603361812913D-08 0.100000000000D+01
  </mgrwgt>
  </event>
  <event>
  8     66 0.29788925E-05 0.13330043E+03 0.75467711E-02 0.10304478E+00
       -1 -1    0    0    0  501 0.00000000E+00 0.00000000E+00 0.77468299E+02 0.77468960E+02 0.32000000E+00 0.0000E+00 0.9000E+01
        1 -1    0    0  501    0 0.00000000E+00 0.00000000E+00 -.72780318E+03 0.72780325E+03 0.32000000E+00 0.0000E+00 0.9000E+01
       25  2    1    2    0    0 -.26637944E+02 0.33802185E+02 -.62974654E+03 0.69712397E+03 0.29588674E+03 0.0000E+00 0.0000E+00
       23  2    1    2    0    0 0.26637944E+02 -.33802185E+02 -.20588336E+02 0.10814823E+03 0.97056647E+02 0.0000E+00 0.0000E+00
       24  1    3    3    0    0 -.11198045E+03 -.42828906E+02 -.42657626E+03 0.45034260E+03 0.80419002E+02 0.0000E+00 0.9000E+01
      -13  1    4    4    0    0 0.46549408E+01 -.29203211E+02 0.36397359E+02 0.46896427E+02 0.10565837E+00 0.0000E+00 0.9000E+01
       13  1    4    4    0    0 0.21983003E+02 -.45989739E+01 -.56985695E+02 0.61251805E+02 0.10565837E+00 0.0000E+00 0.9000E+01
      -24  1    3    3    0    0 0.85342505E+02 0.76631092E+02 -.20317028E+03 0.24678137E+03 0.80419002E+02 0.0000E+00 0.9000E+01
#aMCatNLO 1  0  0  2  1 0.14129305D+03 0.00000000D+00  -5  7  0 0.00000000D+00 0.00000000D+00 0.00000000D+00 0.00000000D+00 0.00000000D+00
  <mgrwgt>
 0.1186064975D-02    7    2    0
 0.237448875008506D+03 0.000000000000000D+00 0.000000000000000D+00 0.237448875008506D+03
 0.237448875008506D+03 0.000000000000000D+00 0.000000000000000D+00 -.237448875008506D+03
 0.179472246575224D+03 -.111980447420195D+03 -.428288885817040D+02 -.106626155491119D+03
 0.129364547430306D+03 0.465495135288108D+01 -.292032560848030D+02 0.125939221030605D+03
 0.258255943640966D+02 0.219830084380729D+02 -.459894910205205D+01 -.127498365255093D+02
 0.140235361647386D+03 0.853424876292406D+02 0.766310937685591D+02 -.656322901397628D+01
 0.000000000000000D+00 0.000000000000000D+00 -.000000000000000D+00 -.000000000000000D+00
 0.267884049452850D+03 0.000000000000000D+00 0.000000000000000D+00 0.267884049452850D+03
 0.495442812716285D+03 0.000000000000000D+00 0.000000000000000D+00 -.495442812716285D+03
 0.212593647554511D+03 -.164218111164611D+03 -.198019685100300D+02 -.106626155491119D+03
 0.130196885746455D+03 -.299282222164569D+02 -.139586238305303D+02 0.125939221030605D+03
 0.204077011364435D+02 0.158230251793550D+02 -.188356269359096D+01 -.127498365255093D+02
 0.132272852871589D+03 0.490343244077721D+02 0.926361198842116D+02 -.656322901397628D+01
 0.267855774860137D+03 0.129288983793940D+03 -.569919648500604D+02 -.227558763263435D+03
0.114551452548D-04 0.000000000000D+00 0.000000000000D+00 0.140847600336D-08 0.000000000000D+00  7 -1 1 24 -13 13 -24 21 0 0.11918256D-01 0.11196978D+00 0.28304223D+05 0.28304223D+05 0.28304223D+05 0.11696878D+01  1  2  2  2  7  2        1 0.153984173791D-02 0.100000000000D+01
-.544529335617D-06 0.000000000000D+00 -.439907739873D-07 0.140847600336D-08 0.000000000000D+00  7 -1 1 24 -13 13 -24 21 2 0.11918256D-01 0.11196978D+00 0.28304223D+05 0.28304223D+05 0.28304223D+05 0.11696878D+01  1  2  3  2  7  2        1 -.100146709395D-03 0.100000000000D+01
0.725574733900D-06 0.000000000000D+00 0.000000000000D+00 0.140847600336D-08 0.000000000000D+00  7 -1 1 24 -13 13 -24 21 2 0.11918256D-01 0.11196978D+00 0.28304223D+05 0.28304223D+05 0.28304223D+05 0.11696878D+01  1  2 15  2  7  2        1 0.133443539710D-03 0.100000000000D+01
0.576352100843D-06 0.000000000000D+00 0.000000000000D+00 0.140847600336D-08 0.000000000000D+00  7 -1 1 24 -13 13 -24 21 2 0.11918256D-01 0.23343516D+00 0.64080373D+05 0.64080373D+05 0.64080373D+05 0.11379362D+01  1  2 12  2  7  2        1 0.265422817359D-04 0.100000000000D+01
-.897949286882D-05 0.000000000000D+00 -.341079689194D-05 0.140847600336D-08 0.000000000000D+00  7 -1 1 24 -13 13 -24 21 2 0.11918256D-01 0.24524493D+00 0.28304223D+05 0.28304223D+05 0.28304223D+05 0.11696878D+01  1  2  5  2  7  2        1 -.396108837581D-03 0.100000000000D+01
0.457890779522D-07 0.000000000000D+00 0.000000000000D+00 0.140847600336D-08 0.000000000000D+00  7 -1 21 24 -13 13 -24 -1 2 0.11918256D-01 0.23343516D+00 0.64080373D+05 0.64080373D+05 0.64080373D+05 0.11379362D+01  1  2 12  4  7  2        1 0.172499859194D-05 0.100000000000D+01
-.548240535003D-06 0.000000000000D+00 -.289763055905D-06 0.140847600336D-08 0.000000000000D+00  7 -1 21 24 -13 13 -24 -1 2 0.11918256D-01 0.24524493D+00 0.28304223D+05 0.28304223D+05 0.28304223D+05 0.11696878D+01  1  2  5  4  7  2        1 -.192320363181D-04 0.100000000000D+01
  </mgrwgt>
  </event>
  <event>
  8     66 0.29788925E-05 0.30319316E+03 0.75467711E-02 0.98968430E-01
       -1 -1    0    0    0  501 0.00000000E+00 0.00000000E+00 0.38037376E+03 0.38037389E+03 0.32000000E+00 0.0000E+00 0.9000E+01
        1 -1    0    0  501    0 0.00000000E+00 0.00000000E+00 -.53156008E+03 0.53156017E+03 0.32000000E+00 0.0000E+00 0.9000E+01
       25  2    1    2    0    0 -.98043228E+02 0.25574686E+03 0.20497078E+03 0.45352032E+03 0.29773936E+03 0.0000E+00 0.0000E+00
       23  2    1    2    0    0 0.98043228E+02 -.25574686E+03 -.35615710E+03 0.45841375E+03 0.90974482E+02 0.0000E+00 0.0000E+00
       24  1    3    3    0    0 -.32323669E+02 0.19191003E+03 -.51038489E+01 0.21063605E+03 0.80419002E+02 0.0000E+00 0.9000E+01
      -13  1    4    4    0    0 0.23886977E+02 -.64985493E+02 -.16255389E+03 0.17668469E+03 0.10565837E+00 0.0000E+00 0.9000E+01
       13  1    4    4    0    0 0.74156250E+02 -.19076137E+03 -.19360321E+03 0.28172906E+03 0.10565837E+00 0.0000E+00 0.9000E+01
      -24  1    3    3    0    0 -.65719559E+02 0.63836828E+02 0.21007463E+03 0.24288427E+03 0.80419002E+02 0.0000E+00 0.9000E+01
#aMCatNLO 1  0  0  1  1 0.81659706D+02 0.00000000D+00  -5  7  0 0.00000000D+00 0.00000000D+00 0.00000000D+00 0.00000000D+00 0.00000000D+00
  <mgrwgt>
 0.1151751001D-02    4    2    0
 0.449657213287660D+03 0.000000000000000D+00 0.000000000000000D+00 0.449657213287660D+03
 0.449657213287660D+03 0.000000000000000D+00 0.000000000000000D+00 -.449657213287660D+03
 0.212733780548431D+03 -.323236688572833D+02 0.191910033600503D+03 0.302351594524608D+02
 0.151836485592540D+03 0.238869096961521D+02 -.649853236304132D+02 -.135131941505004D+03
 0.253135372800839D+03 0.741563180439160D+02 -.190761538245110D+03 -.148957688568093D+03
 0.281608787633511D+03 -.657195588827848D+02 0.638368282750200D+02 0.253854470620636D+03
 0.000000000000000D+00 -.000000000000000D+00 0.000000000000000D+00 -.000000000000000D+00
 0.466375007451404D+03 0.000000000000000D+00 0.000000000000000D+00 0.466375007451404D+03
 0.563633195452692D+03 0.000000000000000D+00 0.000000000000000D+00 -.563633195452692D+03
 0.196358523274236D+03 -.253533010396583D+02 0.174735511466172D+03 0.302351594524608D+02
 0.158744478138345D+03 0.291787803427706D+02 -.780241405092811D+02 -.135131941505004D+03
 0.272759084111041D+03 0.831168332226980D+02 -.212839650950135D+03 -.148957688568093D+03
 0.275152169857088D+03 -.562331211670443D+02 0.404628774609792D+02 0.253854470620636D+03
 0.126993947523387D+03 -.307091913587660D+02 0.756654025322645D+02 -.972581880012873D+02
0.900654621131D-04 0.000000000000D+00 0.000000000000D+00 0.321855347923D-06 0.000000000000D+00  7 -1 1 24 -13 13 -24 21 0 0.58519058D-01 0.81778491D-01 0.91926095D+05 0.91926095D+05 0.91926095D+05 0.11247347D+01  1  2  2  1  7  1       -1 0.136169498090D-02 0.100000000000D+01
-.405867516751D-05 0.000000000000D+00 -.345875089295D-06 0.321855347923D-06 0.000000000000D+00  7 -1 1 24 -13 13 -24 21 2 0.58519058D-01 0.81778491D-01 0.91926095D+05 0.91926095D+05 0.91926095D+05 0.11247347D+01  1  2  3  1  7  1       -1 -.776257929725D-04 0.100000000000D+01
0.573091367670D-05 0.000000000000D+00 0.000000000000D+00 0.321855347923D-06 0.000000000000D+00  7 -1 1 24 -13 13 -24 21 2 0.58519058D-01 0.81778491D-01 0.91926095D+05 0.91926095D+05 0.91926095D+05 0.11247347D+01  1  2 15  1  7  1       -1 0.109608850241D-03 0.100000000000D+01
-.126491881270D-04 0.000000000000D+00 0.000000000000D+00 0.321855347923D-06 0.000000000000D+00  7 -1 1 24 -13 13 -24 21 2 0.58519058D-01 0.81778491D-01 0.91926095D+05 0.91926095D+05 0.91926095D+05 0.11247347D+01  1  2  4  1  7  1       -1 -.241927037344D-03 0.100000000000D+01
  </mgrwgt>
  </event>
  <event>
  8     66 0.29788925E-05 0.22887039E+03 0.75467711E-02 0.10076115E+00
       -1 -1    0    0    0  501 0.00000000E+00 0.00000000E+00 0.16365342E+03 0.16365374E+03 0.32000000E+00 0.0000E+00 0.9000E+01
        1 -1    0    0  501    0 0.00000000E+00 0.00000000E+00 -.54334284E+03 0.54334293E+03 0.32000000E+00 0.0000E+00 0.9000E+01
       25  2    1    2    0    0 -.17806252E+02 -.14482684E+03 -.53341436E+02 0.33793853E+03 0.30010875E+03 0.0000E+00 0.0000E+00
       23  2    1    2    0    0 0.17806252E+02 0.14482684E+03 -.32634798E+03 0.36905814E+03 0.91700775E+02 0.0000E+00 0.0000E+00
       24  1    3    3    0    0 -.66427243E+02 -.16476781E+03 0.45348983E+02 0.20021178E+03 0.80419002E+02 0.0000E+00 0.9000E+01
      -11  1    4    4    0    0 -.13436644E+02 -.44499368E+01 -.84895397E+01 0.16505079E+02 0.51099893E-03 0.0000E+00 0.9000E+01
       11  1    4    4    0    0 0.31242896E+02 0.14927678E+03 -.31785844E+03 0.35255306E+03 0.51099893E-03 0.0000E+00 0.9000E+01
      -24  1    3    3    0    0 0.48620991E+02 0.19940970E+02 -.98690420E+02 0.13772675E+03 0.80419002E+02 0.0000E+00 0.9000E+01
#aMCatNLO 1  0  0  2  1 0.13056539D+03 0.00000000D+00  -5  7  0 0.00000000D+00 0.00000000D+00 0.00000000D+00 0.00000000D+00 0.00000000D+00
  <mgrwgt>
 0.7761190785D-03    4    2    0
 0.298194668249095D+03 0.000000000000000D+00 0.000000000000000D+00 0.298194668249095D+03
 0.298194668249095D+03 0.000000000000000D+00 0.000000000000000D+00 -.298194668249095D+03
 0.266214669035041D+03 -.664272428407323D+02 -.164767810451668D+03 0.181223685269358D+03
 0.141612982833032D+02 -.134366438923349D+02 -.444993679086245D+01 0.443883471864257D+00
 0.215574539832960D+03 0.312428956145351D+02 0.149276776840217D+03 -.152357171127610D+03
 0.100438829346886D+03 0.486209911185321D+02 0.199409704023141D+02 -.293103976136124D+02
 0.000000000000000D+00 0.000000000000000D+00 0.000000000000000D+00 0.000000000000000D+00
 0.454078114778292D+03 0.000000000000000D+00 0.000000000000000D+00 0.454078114778292D+03
 0.333894372674911D+03 0.000000000000000D+00 0.000000000000000D+00 -.333894372674911D+03
 0.309594492076021D+03 -.106089003144596D+03 -.212801862958522D+03 0.181223685269358D+03
 0.171208666009958D+02 -.155913607833149D+02 -.705949782612122D+01 0.443883471864257D+00
 0.191124906138874D+03 0.322941991587789D+01 0.115349872126467D+03 -.152357171127610D+03
 0.926739124719993D+02 0.353193769815434D+02 0.383148794397298D+01 -.293103976136124D+02
 0.177458310165314D+03 0.831315670304893D+02 0.100680000714203D+03 0.120183742103381D+03
0.142755334610D-04 0.000000000000D+00 0.000000000000D+00 0.289751794767D-05 0.000000000000D+00  7 -1 1 24 -11 11 -24 21 0 0.25177481D-01 0.83591237D-01 0.52381658D+05 0.52381658D+05 0.52381658D+05 0.11455220D+01  1  2  2  2  7  2        1 0.901889944371D-03 0.100000000000D+01
-.725577961141D-06 0.000000000000D+00 -.548218073244D-07 0.289751794767D-05 0.000000000000D+00  7 -1 1 24 -11 11 -24 21 2 0.25177481D-01 0.83591237D-01 0.52381658D+05 0.52381658D+05 0.52381658D+05 0.11455220D+01  1  2  3  2  7  2        1 -.601522905236D-04 0.100000000000D+01
0.911221893100D-06 0.000000000000D+00 0.000000000000D+00 0.289751794767D-05 0.000000000000D+00  7 -1 1 24 -11 11 -24 21 2 0.25177481D-01 0.83591237D-01 0.52381658D+05 0.52381658D+05 0.52381658D+05 0.11455220D+01  1  2 15  2  7  2        1 0.755426528654D-04 0.100000000000D+01
-.170273609357D-05 0.000000000000D+00 0.000000000000D+00 0.289751794767D-05 0.000000000000D+00  7 -1 1 24 -11 11 -24 21 2 0.25177481D-01 0.83591237D-01 0.52381658D+05 0.52381658D+05 0.52381658D+05 0.11455220D+01  1  2  4  2  7  2        1 -.141161228250D-03 0.100000000000D+01
  </mgrwgt>
  </event>
  <event>
  8     66 0.29788925E-05 0.39427619E+03 0.75467711E-02 0.95304611E-01
       -1 -1    0    0    0  501 0.00000000E+00 0.00000000E+00 0.43588349E+03 0.43588361E+03 0.32000000E+00 0.0000E+00 0.9000E+01
        1 -1    0    0  501    0 0.00000000E+00 0.00000000E+00 -.60125386E+03 0.60125394E+03 0.32000000E+00 0.0000E+00 0.9000E+01
       25  2    1    2    0    0 0.25415541E+03 -.23170555E+03 -.40339704E+03 0.60917383E+03 0.30013522E+03 0.0000E+00 0.0000E+00
       23  2    1    2    0    0 -.25415541E+03 0.23170555E+03 0.23802667E+03 0.42796371E+03 0.90630048E+02 0.0000E+00 0.0000E+00
       24  1    3    3    0    0 -.94913280E+01 0.18128751E+01 -.22190141E+02 0.83982082E+02 0.80419002E+02 0.0000E+00 0.9000E+01
      -11  1    4    4    0    0 -.24632141E+03 0.23211097E+03 0.20874243E+03 0.39764701E+03 0.51099893E-03 0.0000E+00 0.9000E+01
       11  1    4    4    0    0 -.78340020E+01 -.40541519E+00 0.29284240E+02 0.30316706E+02 0.51099893E-03 0.0000E+00 0.9000E+01
      -24  1    3    3    0    0 0.26364674E+03 -.23351843E+03 -.38120690E+03 0.52519175E+03 0.80419002E+02 0.0000E+00 0.9000E+01
#aMCatNLO 1  0  0  1  1 0.13940653D+03 0.00000000D+00  -5  7  0 0.00000000D+00 0.00000000D+00 0.00000000D+00 0.00000000D+00 0.00000000D+00
  <mgrwgt>
 0.1352856535D-02    4    2    0
 0.511934305344530D+03 0.000000000000000D+00 0.000000000000000D+00 0.511934305344530D+03
 0.511934305344530D+03 0.000000000000000D+00 0.000000000000000D+00 -.511934305344530D+03
 0.814864115625666D+02 -.949132795421501D+01 0.181287512258351D+01 -.891333228534070D+01
 0.436515437185596D+03 -.246321412522129D+03 0.232110969185392D+03 0.275673695912853D+03
 0.354394488617571D+02 -.783400198004149D+01 -.405415193106123D+00 0.345603615016249D+02
 0.470427313079141D+03 0.263646742456386D+03 -.233518429114870D+03 -.301320725129138D+03
 0.000000000000000D+00 0.000000000000000D+00 0.000000000000000D+00 -.000000000000000D+00
 0.530777252133363D+03 0.000000000000000D+00 0.000000000000000D+00 0.530777252133363D+03
 0.860760668706488D+03 0.000000000000000D+00 0.000000000000000D+00 -.860760668706488D+03
 0.828707837158234D+02 -.165830686064564D+02 -.677533633622055D+01 -.891333228534070D+01
 0.437528792283719D+03 -.284034972816739D+03 0.186439243926785D+03 0.275673695912853D+03
 0.364881711933963D+02 -.109375596082920D+02 -.416387316457403D+01 0.345603615016249D+02
 0.476427845148486D+03 0.222791511226542D+03 -.282994768169844D+03 -.301320725129138D+03
 0.358222328498426D+03 0.887640898049460D+02 0.107494733743854D+03 -.329983416573124D+03
0.145171204508D-03 0.000000000000D+00 0.000000000000D+00 0.986575816488D-05 0.000000000000D+00  7 -1 1 24 -11 11 -24 21 0 0.67059014D-01 0.92500609D-01 0.15545371D+06 0.15545371D+06 0.15545371D+06 0.11063300D+01  1  2  2  1  7  1       -1 0.140394777828D-02 0.100000000000D+01
-.739633546311D-05 0.000000000000D+00 -.557495649768D-06 0.986575816488D-05 0.000000000000D+00  7 -1 1 24 -11 11 -24 21 2 0.67059014D-01 0.92500609D-01 0.15545371D+06 0.15545371D+06 0.15545371D+06 0.11063300D+01  1  2  3  1  7  1       -1 -.875500653428D-04 0.100000000000D+01
0.916764663879D-05 0.000000000000D+00 0.000000000000D+00 0.986575816488D-05 0.000000000000D+00  7 -1 1 24 -11 11 -24 21 2 0.67059014D-01 0.92500609D-01 0.15545371D+06 0.15545371D+06 0.15545371D+06 0.11063300D+01  1  2 15  1  7  1       -1 0.108516990105D-03 0.100000000000D+01
-.608756126448D-05 0.000000000000D+00 0.000000000000D+00 0.986575816488D-05 0.000000000000D+00  7 -1 1 24 -11 11 -24 21 2 0.67059014D-01 0.92500609D-01 0.15545371D+06 0.15545371D+06 0.15545371D+06 0.11063300D+01  1  2  4  1  7  1       -1 -.720581684189D-04 0.100000000000D+01
  </mgrwgt>
  </event>
  <event>
  8     66 0.29788925E-05 0.23897736E+03 0.75467711E-02 0.98748937E-01
       -1 -1    0    0    0  501 0.00000000E+00 0.00000000E+00 0.17285455E+04 0.17285456E+04 0.32000000E+00 0.0000E+00 0.9000E+01
        1 -1    0    0  501    0 0.00000000E+00 0.00000000E+00 -.63352409E+02 0.63353217E+02 0.32000000E+00 0.0000E+00 0.9000E+01
       25  2    1    2    0    0 -.49940059E+02 0.18988417E+03 0.14192919E+04 0.14643344E+04 0.30221799E+03 0.0000E+00 0.0000E+00
       23  2    1    2    0    0 0.49940059E+02 -.18988417E+03 0.24590125E+03 0.32756441E+03 0.91000050E+02 0.0000E+00 0.0000E+00
       24  1    3    3    0    0 -.66599152E+02 0.14961764E+03 0.38540656E+03 0.42641097E+03 0.80419002E+02 0.0000E+00 0.9000E+01
      -11  1    4    4    0    0 0.60871967E+02 -.17681241E+03 0.18021080E+03 0.25969975E+03 0.51099893E-03 0.0000E+00 0.9000E+01
       11  1    4    4    0    0 -.10931908E+02 -.13071761E+02 0.65690446E+02 0.67864661E+02 0.51099893E-03 0.0000E+00 0.9000E+01
      -24  1    3    3    0    0 0.16659093E+02 0.40266534E+02 0.10338853E+04 0.10379234E+04 0.80419002E+02 0.0000E+00 0.9000E+01
#aMCatNLO 1  0  0  2  1 0.19493939D+03 0.00000000D+00  -5  7  0 0.00000000D+00 0.00000000D+00 0.00000000D+00 0.00000000D+00 0.00000000D+00
  <mgrwgt>
 0.6022335916D-03    4    2    0
 0.330920343889321D+03 0.000000000000000D+00 0.000000000000000D+00 0.330920343889321D+03
 0.330920343889321D+03 0.000000000000000D+00 0.000000000000000D+00 -.330920343889321D+03
 0.184801191957356D+03 -.665991515690471D+02 0.149617640156711D+03 -.293833176940391D+02
 0.249712467569259D+03 0.608719667136601D+02 -.176812412557768D+03 -.165494081143226D+03
 0.184626374194656D+02 -.109319078465332D+02 -.130717611002998D+02 0.710573240801011D+01
 0.208864390832561D+03 0.166590927019202D+02 0.402665335013569D+02 0.187771666429255D+03
 0.000000000000000D+00 0.000000000000000D+00 0.000000000000000D+00 0.000000000000000D+00
 0.484827309733542D+03 0.000000000000000D+00 0.000000000000000D+00 0.484827309733542D+03
 0.412908105246870D+03 0.000000000000000D+00 0.000000000000000D+00 -.412908105246870D+03
 0.186568382743215D+03 -.112388835780297D+03 0.121843816906271D+03 -.293833176940391D+02
 0.271997694287583D+03 -.345463726429347D+01 -.215829841045423D+03 -.165494081143226D+03
 0.239966257547535D+02 -.161671139189676D+02 -.162471856667724D+02 0.710573240801011D+01
 0.207389803634390D+03 -.346648428456207D+02 0.913589918996840D+01 0.187771666429255D+03
 0.207782908560471D+03 0.166675429809178D+03 0.101097310615956D+03 0.719192044866721D+02
0.206345638217D-03 0.000000000000D+00 0.000000000000D+00 0.166583499045D-06 0.000000000000D+00  7 -1 1 24 -11 11 -24 21 0 0.26593015D+00 0.97465889D-02 0.57110177D+05 0.57110177D+05 0.57110177D+05 0.11422507D+01  1  2  2  2  7  2        1 0.761767771887D-03 0.100000000000D+01
-.998681828671D-05 0.000000000000D+00 -.792421582806D-06 0.166583499045D-06 0.000000000000D+00  7 -1 1 24 -11 11 -24 21 2 0.26593015D+00 0.97465889D-02 0.57110177D+05 0.57110177D+05 0.57110177D+05 0.11422507D+01  1  2  3  2  7  2        1 -.481035683238D-04 0.100000000000D+01
0.131783361940D-04 0.000000000000D+00 0.000000000000D+00 0.166583499045D-06 0.000000000000D+00  7 -1 1 24 -11 11 -24 21 2 0.26593015D+00 0.97465889D-02 0.57110177D+05 0.57110177D+05 0.57110177D+05 0.11422507D+01  1  2 15  2  7  2        1 0.634761720205D-04 0.100000000000D+01
-.363125300204D-04 0.000000000000D+00 0.000000000000D+00 0.166583499045D-06 0.000000000000D+00  7 -1 1 24 -11 11 -24 21 2 0.26593015D+00 0.97465889D-02 0.57110177D+05 0.57110177D+05 0.57110177D+05 0.11422507D+01  1  2  4  2  7  2        1 -.174906783993D-03 0.100000000000D+01
  </mgrwgt>
  </event>
  <event>
  9     66 0.29788925E-05 0.58678245E+03 0.75467711E-02 0.84670856E-01
       21 -1    0    0  502  501 0.00000000E+00 0.00000000E+00 0.12792211E+04 0.12792213E+04 0.75000000E+00 0.0000E+00 0.9000E+01
        1 -1    0    0  501    0 0.00000000E+00 0.00000000E+00 -.16009612E+04 0.16009612E+04 0.32000000E+00 0.0000E+00 0.9000E+01
       25  2    1    2    0    0 0.37993434E+03 -.72003262E+03 -.16564563E+03 0.88295350E+03 0.29895038E+03 0.0000E+00 0.0000E+00
       23  2    1    2    0    0 0.64702652E+03 0.39093645E+03 -.44290470E+03 0.88133788E+03 0.95484311E+02 0.0000E+00 0.0000E+00
       24  1    3    3    0    0 0.23528098E+03 -.47989967E+03 -.22479564E+03 0.58537264E+03 0.80419002E+02 0.0000E+00 0.9000E+01
      -11  1    4    4    0    0 0.64674464E+03 0.39497538E+03 -.44154564E+03 0.87706712E+03 0.51099893E-03 0.0000E+00 0.9000E+01
       11  1    4    4    0    0 0.28187525E+00 -.40389210E+01 -.13590675E+01 0.42707612E+01 0.51099893E-03 0.0000E+00 0.9000E+01
      -24  1    3    3    0    0 0.14465336E+03 -.24013295E+03 0.59150010E+02 0.29758086E+03 0.80419002E+02 0.0000E+00 0.9000E+01
        1  1    1    2  502    0 -.10269609E+04 0.32909617E+03 0.28681021E+03 0.11158912E+04 0.32000000E+00 0.0000E+00 0.9000E+01
#aMCatNLO 2  0  0  1  2 0.10784029D+04 0.00000000D+00  -5  7  0 0.00000000D+00 0.00000000D+00 0.00000000D+00 0.00000000D+00 0.00000000D+00
  <mgrwgt>
 0.2330781219D-04    1    2    0
 0.628378403932209D+03 0.000000000000000D+00 0.000000000000000D+00 0.628378403932209D+03
 0.628378403932209D+03 0.000000000000000D+00 0.000000000000000D+00 -.628378403932209D+03
 0.394993642091577D+03 -.947372349453765D+02 -.374143229874815D+03 -.243815748495543D+02
 0.592399942209701D+03 0.165641921175015D+03 0.549147815693225D+03 -.148111856375064D+03
 0.404942134534874D+01 -.257394993301208D+01 -.312375355062625D+01 0.121485511328366D+00
 0.265313802217791D+03 -.683307362966264D+02 -.171880832267783D+03 0.172371945713290D+03
 0.000000000000000D+00 -.000000000000000D+00 0.000000000000000D+00 0.000000000000000D+00
 0.183294638283716D+04 0.000000000000000D+00 0.000000000000000D+00 0.183294638283716D+04
 0.111731780799462D+04 0.000000000000000D+00 0.000000000000000D+00 -.111731780799462D+04
 0.541038365632852D+03 0.235280978319792D+03 -.479899674078900D+03 -.243815748495543D+02
 0.772153679183878D+03 0.646744644501332D+03 0.394975375292151D+03 -.148111856375064D+03
 0.405056723399666D+01 0.281875227200619D+00 -.403892096282596D+01 0.121485511328366D+00
 0.338773863194464D+03 0.144653360774519D+03 -.240132946462958D+03 0.172371945713290D+03
 0.129424771558659D+04 -.102696085882284D+04 0.329096166212533D+03 0.715628574842538D+03
0.403128359424D-04 0.000000000000D+00 0.000000000000D+00 0.208985469497D-06 0.473215236251D-12  7 21 1 24 -11 11 -24 1 2 0.19680326D+00 0.24630174D+00 0.17854288D+07 0.17854288D+07 0.17854288D+07 0.10315064D+01  1  2  1  3  7  1       -1 0.233078121867D-04 0.100000000000D+01
  </mgrwgt>
  </event>
  <event>
  8     66 0.29788925E-05 0.18470901E+03 0.75467711E-02 0.10232760E+00
       -1 -1    0    0    0  501 0.00000000E+00 0.00000000E+00 0.93957801E+02 0.93958346E+02 0.32000000E+00 0.0000E+00 0.9000E+01
        1 -1    0    0  501    0 0.00000000E+00 0.00000000E+00 -.17148580E+04 0.17148580E+04 0.32000000E+00 0.0000E+00 0.9000E+01
       25  2    1    2    0    0 0.11979648E+03 0.14873142E+03 -.28411603E+03 0.45564664E+03 0.30069870E+03 0.0000E+00 0.0000E+00
       23  2    1    2    0    0 -.11979648E+03 -.14873142E+03 -.13367841E+04 0.13531697E+04 0.87201977E+02 0.0000E+00 0.0000E+00
       24  1    3    3    0    0 0.21388577E+02 0.17688880E+03 -.25663456E+03 0.32260755E+03 0.80419002E+02 0.0000E+00 0.9000E+01
      -11  1    4    4    0    0 -.60724520E+01 -.16587376E+01 -.28576671E+03 0.28583603E+03 0.51099893E-03 0.0000E+00 0.9000E+01
       11  1    4    4    0    0 -.11372403E+03 -.14707268E+03 -.10510174E+04 0.10673337E+04 0.51099893E-03 0.0000E+00 0.9000E+01
      -24  1    3    3    0    0 0.98407901E+02 -.28157374E+02 -.27481471E+02 0.13303909E+03 0.80419002E+02 0.0000E+00 0.9000E+01
#aMCatNLO 1  0  0  1  2 0.14712033D+02 0.00000000D+00  -5  7  0 0.00000000D+00 0.00000000D+00 0.00000000D+00 0.00000000D+00 0.00000000D+00
  <mgrwgt>
 0.1346014430D-02    6    2    0
 0.401403541033261D+03 0.000000000000000D+00 0.000000000000000D+00 0.401403541033261D+03
 0.401403541033261D+03 0.000000000000000D+00 0.000000000000000D+00 -.401403541033261D+03
 0.208716153173090D+03 0.213885773815803D+02 0.176888796069833D+03 0.731306995970882D+02
 0.670467212026756D+02 -.607245203653245D+01 -.165873762076483D+01 -.667505561010452D+02
 0.282778098553402D+03 -.113724026264314D+03 -.147072684084777D+03 -.213072580281486D+03
 0.244266109137354D+03 0.984079009192659D+02 -.281573743642910D+02 0.206692436785443D+03
 0.000000000000000D+00 0.000000000000000D+00 0.000000000000000D+00 -.000000000000000D+00
 0.408616405332854D+03 0.000000000000000D+00 0.000000000000000D+00 0.408616405332854D+03
 0.409043706672954D+03 0.000000000000000D+00 0.000000000000000D+00 -.409043706672954D+03
 0.206854335562020D+03 0.180463375912294D+02 0.175064932703320D+03 0.731306995970882D+02
 0.671702235206883D+02 -.715189637955865D+01 -.224779140413453D+01 -.667505561010452D+02
 0.285946048852118D+03 -.118298009563700D+03 -.149568711031400D+03 -.213072580281486D+03
 0.242971267249707D+03 0.944892777473856D+02 -.302957706789403D+02 0.206692436785443D+03
 0.147182368212746D+02 0.129142906046433D+02 0.704734041115474D+01 -.427301340100201D+00
0.414544778964D-04 0.000000000000D+00 0.000000000000D+00 0.196324434069D-06 0.000000000000D+00  7 -1 1 24 -11 11 -24 21 0 0.14455090D-01 0.26382435D+00 0.67045328D+05 0.67045328D+05 0.67045328D+05 0.11362553D+01  1  2  2  1  7  1       -1 0.811489404516D-03 0.100000000000D+01
-.176484135172D-05 0.000000000000D+00 -.159196110337D-06 0.196324434069D-06 0.000000000000D+00  7 -1 1 24 -11 11 -24 21 2 0.14455090D-01 0.26382435D+00 0.67045328D+05 0.67045328D+05 0.67045328D+05 0.11362553D+01  1  2  3  1  7  1       -1 -.446034951188D-04 0.100000000000D+01
0.253263986988D-05 0.000000000000D+00 0.000000000000D+00 0.196324434069D-06 0.000000000000D+00  7 -1 1 24 -11 11 -24 21 2 0.14455090D-01 0.26382435D+00 0.67045328D+05 0.67045328D+05 0.67045328D+05 0.11362553D+01  1  2 15  1  7  1       -1 0.640083540449D-04 0.100000000000D+01
0.439817675608D-04 0.000000000000D+00 0.000000000000D+00 0.196324434069D-06 0.000000000000D+00  7 -1 1 24 -11 11 -24 21 2 0.14849883D-01 0.26382435D+00 0.71322303D+05 0.71322303D+05 0.71322303D+05 0.11339694D+01  1  2 12  1  7  1       -1 0.105956927370D-02 0.100000000000D+01
-.325900509945D-04 0.000000000000D+00 0.000000000000D+00 0.196324434069D-06 0.000000000000D+00  7 -1 1 24 -11 11 -24 21 2 0.14455090D-01 0.26382435D+00 0.67045328D+05 0.67045328D+05 0.67045328D+05 0.11362553D+01  1  2  4  1  7  1       -1 -.823660539821D-03 0.100000000000D+01
0.888217205841D-06 0.000000000000D+00 0.000000000000D+00 0.196324434069D-06 0.000000000000D+00  7 21 1 24 -11 11 -24 1 2 0.14849883D-01 0.26382435D+00 0.71322303D+05 0.71322303D+05 0.71322303D+05 0.11339694D+01  1  2 12  3  7  1       -1 0.279211432505D-03 0.100000000000D+01
  </mgrwgt>
  </event>
  <event>
  8     66 0.29788925E-05 0.20680604E+03 0.75467711E-02 0.10172184E+00
       -1 -1    0    0    0  501 0.00000000E+00 0.00000000E+00 0.62994896E+02 0.62995709E+02 0.32000000E+00 0.0000E+00 0.9000E+01
        1 -1    0    0  501    0 0.00000000E+00 0.00000000E+00 -.13557002E+04 0.13557002E+04 0.32000000E+00 0.0000E+00 0.9000E+01
       25  2    1    2    0    0 -.89637402E+02 0.13147636E+03 -.11070465E+04 0.11576387E+04 0.29875501E+03 0.0000E+00 0.0000E+00
       23  2    1    2    0    0 0.89637402E+02 -.13147636E+03 -.18565875E+03 0.26105717E+03 0.91437289E+02 0.0000E+00 0.0000E+00
       24  1    3    3    0    0 -.96726693E+02 -.39375246E+02 -.64709849E+03 0.66038635E+03 0.80419002E+02 0.0000E+00 0.9000E+01
      -11  1    4    4    0    0 0.10135389E+03 -.82603118E+02 -.15234421E+03 0.20076017E+03 0.51099893E-03 0.0000E+00 0.9000E+01
       11  1    4    4    0    0 -.11716490E+02 -.48873245E+02 -.33314541E+02 0.60297005E+02 0.51099893E-03 0.0000E+00 0.9000E+01
      -24  1    3    3    0    0 0.70892904E+01 0.17085161E+03 -.45994803E+03 0.49725239E+03 0.80419002E+02 0.0000E+00 0.9000E+01
#aMCatNLO 1  0  0  2  1 0.52752949D+02 0.00000000D+00  -5  7  0 0.00000000D+00 0.00000000D+00 0.00000000D+00 0.00000000D+00 0.00000000D+00
  <mgrwgt>
 0.5871486858D-03    9    2    0
 0.292237564208184D+03 0.000000000000000D+00 0.000000000000000D+00 0.292237564208184D+03
 0.292237564208184D+03 0.000000000000000D+00 0.000000000000000D+00 -.292237564208184D+03
 0.171743477091690D+03 -.967266926631292D+02 -.393752455313292D+02 -.110100603699405D+03
 0.150359634264720D+03 0.101353892272138D+03 -.826031178843282D+02 0.742437408358157D+02
 0.726758591712989D+02 -.117164899634066D+02 -.488732446715563D+02 0.524967648955443D+02
 0.189696157888660D+03 0.708929035439739D+01 0.170851608087214D+03 -.166399020319546D+02
 0.000000000000000D+00 0.000000000000000D+00 0.000000000000000D+00 -.000000000000000D+00
 0.300714924584994D+03 0.000000000000000D+00 0.000000000000000D+00 0.300714924584994D+03
 0.388867375150834D+03 0.000000000000000D+00 0.000000000000000D+00 -.388867375150834D+03
 0.181493467830252D+03 -.112549545636328D+03 -.410258424991224D+02 -.110100603699405D+03
 0.142645848717026D+03 0.882290401177700D+02 -.839722667480274D+02 0.742437408358157D+02
 0.744807422706142D+02 -.183082049641280D+02 -.495608744442134D+02 0.524967648955443D+02
 0.188230901260100D+03 -.983952860825567D+01 0.169085639756761D+03 -.166399020319546D+02
 0.102731339657835D+03 0.524682390909417D+02 0.547334393460221D+01 -.881524505658397D+02
0.690678287249D-05 0.000000000000D+00 0.000000000000D+00 0.202955338368D-06 0.000000000000D+00  7 -1 1 24 -11 11 -24 21 0 0.96915879D-02 0.20856932D+00 0.62946660D+05 0.62946660D+05 0.62946660D+05 0.11386017D+01  1  2  2  2  7  2        1 0.431660687264D-03 0.100000000000D+01
-.372853807701D-06 0.000000000000D+00 -.265238648281D-07 0.202955338368D-06 0.000000000000D+00  7 -1 1 24 -11 11 -24 21 2 0.96915879D-02 0.20856932D+00 0.62946660D+05 0.62946660D+05 0.62946660D+05 0.11386017D+01  1  2  3  2  7  2        1 -.302098763746D-04 0.100000000000D+01
0.440580515704D-06 0.000000000000D+00 0.000000000000D+00 0.202955338368D-06 0.000000000000D+00  7 -1 1 24 -11 11 -24 21 2 0.96915879D-02 0.20856932D+00 0.62946660D+05 0.62946660D+05 0.62946660D+05 0.11386017D+01  1  2 15  2  7  2        1 0.356973232876D-04 0.100000000000D+01
0.172908289316D-04 0.000000000000D+00 0.000000000000D+00 0.202955338368D-06 0.000000000000D+00  7 -1 1 24 -11 11 -24 21 2 0.96915879D-02 0.27982928D+00 0.78166854D+05 0.78166854D+05 0.78166854D+05 0.11306079D+01  1  2 12  2  7  2        1 0.683289159099D-03 0.100000000000D+01
-.174204626353D-04 0.000000000000D+00 0.000000000000D+00 0.202955338368D-06 0.000000000000D+00  7 -1 1 24 -11 11 -24 21 2 0.96915879D-02 0.20856932D+00 0.62946660D+05 0.62946660D+05 0.62946660D+05 0.11386017D+01  1  2  4  2  7  2        1 -.141146479326D-02 0.100000000000D+01
-.213262477472D-04 0.000000000000D+00 -.306826142478D-05 0.202955338368D-06 0.000000000000D+00  7 -1 1 24 -11 11 -24 21 2 0.96915879D-02 0.28037297D+00 0.62946660D+05 0.62946660D+05 0.62946660D+05 0.11386017D+01  1  2  5  2  7  2        1 -.854644822159D-03 0.100000000000D+01
0.214193009318D-04 0.000000000000D+00 0.293871256320D-05 0.202955338368D-06 0.000000000000D+00  7 -1 1 24 -11 11 -24 21 2 0.96915879D-02 0.20856932D+00 0.62946660D+05 0.62946660D+05 0.62946660D+05 0.11386017D+01  1  2  6  2  7  2        1 0.173546419486D-02 0.100000000000D+01
0.658539955836D-06 0.000000000000D+00 0.000000000000D+00 0.202955338368D-06 0.000000000000D+00  7 -1 21 24 -11 11 -24 -1 2 0.96915879D-02 0.27982928D+00 0.78166854D+05 0.78166854D+05 0.78166854D+05 0.11306079D+01  1  2 12  4  7  2        1 0.162485100071D-04 0.100000000000D+01
-.748789531625D-06 0.000000000000D+00 -.117415886343D-06 0.202955338368D-06 0.000000000000D+00  7 -1 21 24 -11 11 -24 -1 2 0.96915879D-02 0.28037297D+00 0.62946660D+05 0.62946660D+05 0.62946660D+05 0.11386017D+01  1  2  5  4  7  2        1 -.188916969007D-04 0.100000000000D+01
  </mgrwgt>
  </event>
  <event>
  9     66 0.29788925E-05 0.31335083E+03 0.75467711E-02 0.99535665E-01
       -1 -1    0    0    0  501 0.00000000E+00 0.00000000E+00 0.11610523E+03 0.11610567E+03 0.32000000E+00 0.0000E+00 0.9000E+01
        1 -1    0    0  502    0 0.00000000E+00 0.00000000E+00 -.11780163E+04 0.11780163E+04 0.32000000E+00 0.0000E+00 0.9000E+01
       25  2    1    2    0    0 -.11819686E+03 0.23608183E+03 -.37291276E+03 0.54542830E+03 0.29786402E+03 0.0000E+00 0.0000E+00
       23  2    1    2    0    0 0.95364400E+02 -.20677206E+03 -.65094773E+03 0.69550730E+03 0.90268509E+02 0.0000E+00 0.0000E+00
       24  1    3    3    0    0 -.47057915E+01 -.26051061E+02 -.25271152E+02 0.88355245E+02 0.80419002E+02 0.0000E+00 0.9000E+01
      -13  1    4    4    0    0 0.98821973E+01 0.82548682E+01 -.24281914E+02 0.27484963E+02 0.10565837E+00 0.0000E+00 0.9000E+01
       13  1    4    4    0    0 0.85482203E+02 -.21502693E+03 -.62666582E+03 0.66802234E+03 0.10565837E+00 0.0000E+00 0.9000E+01
      -24  1    3    3    0    0 -.11349106E+03 0.26213289E+03 -.34764161E+03 0.45707306E+03 0.80419002E+02 0.0000E+00 0.9000E+01
       21  1    1    2  502  501 0.22832456E+02 -.29309771E+02 -.38050530E+02 0.53186362E+02 0.75000000E+00 0.0000E+00 0.9000E+01
#aMCatNLO 2  0  0  2  1 0.37153516D+02 0.00000000D+00  -5  7  0 0.00000000D+00 0.00000000D+00 0.00000000D+00 0.00000000D+00 0.00000000D+00
  <mgrwgt>
 0.9052521697D-03    1    2    0
 0.350089445406853D+03 0.000000000000000D+00 0.000000000000000D+00 0.350089445406853D+03
 0.350089445406853D+03 0.000000000000000D+00 0.000000000000000D+00 -.350089445406853D+03
 0.120576529815517D+03 -.794625989285244D+00 -.310717808381390D+02 0.842935145373915D+02
 0.131812137815333D+02 0.103117014375988D+02 0.770369123739670D+01 -.284013230944698D+01
 0.279369669305773D+03 0.943877962187493D+02 -.226459112564297D+03 -.133621204865006D+03
 0.287051477910884D+03 -.103904871667063D+03 0.249827202165039D+03 0.521678226370616D+02
 0.000000000000000D+00 0.000000000000000D+00 -.000000000000000D+00 0.000000000000000D+00
 0.375023018886555D+03 0.000000000000000D+00 0.000000000000000D+00 0.375023018886555D+03
 0.364701487858139D+03 0.000000000000000D+00 0.000000000000000D+00 -.364701487858139D+03
 0.119471397410032D+03 -.470579156723865D+01 -.260510609648717D+02 0.842935145373915D+02
 0.131859783107227D+02 0.988209367013981D+01 0.825517396365854D+01 -.284013230944698D+01
 0.267205094253568D+03 0.854823062788062D+02 -.215027233900124D+03 -.133621204865006D+03
 0.301301464408513D+03 -.113491064733938D+03 0.262132891883504D+03 0.521678226370616D+02
 0.385605723618593D+02 0.228324563522303D+02 -.293097709821677D+02 0.103215310284164D+02
0.228430730933D-04 0.000000000000D+00 0.000000000000D+00 0.159147559363D-06 0.771248012687D-09  7 -1 1 24 -13 13 -24 21 2 0.17862203D-01 0.18123151D+00 0.10983943D+06 0.10983943D+06 0.10983943D+06 0.11183926D+01  1  2  1  2  7  2        1 0.905252169670D-03 0.100000000000D+01
  </mgrwgt>
  </event>
  <event>
  8     66 0.29788925E-05 0.16614750E+03 0.75467711E-02 0.10563744E+00
       -1 -1    0    0    0  501 0.00000000E+00 0.00000000E+00 0.40974179E+03 0.40974192E+03 0.32000000E+00 0.0000E+00 0.9000E+01
        1 -1    0    0  501    0 0.00000000E+00 0.00000000E+00 -.16165919E+03 0.16165950E+03 0.32000000E+00 0.0000E+00 0.9000E+01
       25  2    1    2    0    0 0.77423997E+02 0.37909737E+02 0.35033886E+02 0.32393550E+03 0.31028247E+03 0.0000E+00 0.0000E+00
       23  2    1    2    0    0 -.77423997E+02 -.37909737E+02 0.21304872E+03 0.24746592E+03 0.91749676E+02 0.0000E+00 0.0000E+00
       24  1    3    3    0    0 -.83370188E+01 0.13109640E+03 -.35654910E+02 0.15809573E+03 0.80419002E+02 0.0000E+00 0.9000E+01
      -11  1    4    4    0    0 0.97829611E+01 0.97062697E+01 0.16476547E+01 0.13879221E+02 0.51099893E-03 0.0000E+00 0.9000E+01
       11  1    4    4    0    0 -.87206958E+02 -.47616007E+02 0.21140106E+03 0.23358670E+03 0.51099893E-03 0.0000E+00 0.9000E+01
      -24  1    3    3    0    0 0.85761016E+02 -.93186663E+02 0.70688797E+02 0.16583977E+03 0.80419002E+02 0.0000E+00 0.9000E+01
#aMCatNLO 1  0  0  1  2 0.27763038D+01 0.00000000D+00  -5  7  0 0.00000000D+00 0.00000000D+00 0.00000000D+00 0.00000000D+00 0.00000000D+00
  <mgrwgt>
 0.4262011823D-03   11    2    0
 0.257368706850245D+03 0.000000000000000D+00 0.000000000000000D+00 0.257368706850245D+03
 0.257368706850245D+03 0.000000000000000D+00 0.000000000000000D+00 -.257368706850245D+03
 0.192683660467635D+03 -.833701883558444D+01 0.131096400004082D+03 -.115775667045115D+03
 0.146129885014092D+02 0.978296103931433D+01 0.970626972993882D+01 -.486018869749417D+01
 0.157413944969318D+03 -.872069584564054D+02 -.476160066228513D+02 0.122093457567877D+03
 0.150026819762127D+03 0.857610162526755D+02 -.931866631111691D+02 -.145760182526769D+01
 0.000000000000000D+00 -.000000000000000D+00 -.000000000000000D+00 0.000000000000000D+00
 0.259273123028105D+03 0.000000000000000D+00 0.000000000000000D+00 0.259273123028105D+03
 0.258386283972399D+03 0.000000000000000D+00 0.000000000000000D+00 -.258386283972399D+03
 0.193145029047087D+03 -.758818268133910D+01 0.131818817682009D+03 -.115775667045115D+03
 0.146875237812313D+02 0.983982897975377D+01 0.976113140461610D+01 -.486018869749417D+01
 0.156899408926234D+03 -.865969229417962D+02 -.470274927838507D+02 0.122093457567877D+03
 0.150012939070899D+03 0.863433488402491D+02 -.926248748570743D+02 -.145760182526769D+01
 0.291450617505422D+01 -.199807219686751D+01 -.192758144570039D+01 0.886839055706172D+00
0.440964532915D-05 0.000000000000D+00 0.000000000000D+00 0.358788994982D-08 0.000000000000D+00  7 -1 1 24 -11 11 -24 21 0 0.63037233D-01 0.24870678D-01 0.43510443D+05 0.43510443D+05 0.43510443D+05 0.11526442D+01  1  2  2  1  7  1       -1 0.280232792727D-03 0.100000000000D+01
-.231828188502D-06 0.000000000000D+00 -.169341991502D-07 0.358788994982D-08 0.000000000000D+00  7 -1 1 24 -11 11 -24 21 2 0.63037233D-01 0.24870678D-01 0.43510443D+05 0.43510443D+05 0.43510443D+05 0.11526442D+01  1  2  3  1  7  1       -1 -.195736631253D-04 0.100000000000D+01
0.275623085273D-06 0.000000000000D+00 0.000000000000D+00 0.358788994982D-08 0.000000000000D+00  7 -1 1 24 -11 11 -24 21 2 0.63037233D-01 0.24870678D-01 0.43510443D+05 0.43510443D+05 0.43510443D+05 0.11526442D+01  1  2 15  1  7  1       -1 0.232713435563D-04 0.100000000000D+01
0.138116927103D-07 0.000000000000D+00 0.000000000000D+00 0.358788994982D-08 0.000000000000D+00  7 -1 1 24 -11 11 -24 21 2 0.63627589D-01 0.24870678D-01 0.44054685D+05 0.44054685D+05 0.44054685D+05 0.11521628D+01  1  2 12  1  7  1       -1 0.114503877279D-05 0.100000000000D+01
-.808161648748D-04 0.000000000000D+00 0.000000000000D+00 0.358788994982D-08 0.000000000000D+00  7 -1 1 24 -11 11 -24 21 2 0.63037233D-01 0.24870678D-01 0.43510443D+05 0.43510443D+05 0.43510443D+05 0.11526442D+01  1  2  4  1  7  1       -1 -.682345143856D-02 0.100000000000D+01
-.484789501352D-03 0.000000000000D+00 -.515763317033D-04 0.358788994982D-08 0.000000000000D+00  7 -1 1 24 -11 11 -24 21 2 0.63714076D-01 0.24870678D-01 0.43510443D+05 0.43510443D+05 0.43510443D+05 0.11526442D+01  1  2  5  1  7  1       -1 -.401241493536D-01 0.100000000000D+01
0.485315598023D-03 0.000000000000D+00 0.515733904004D-04 0.358788994982D-08 0.000000000000D+00  7 -1 1 24 -11 11 -24 21 2 0.63037233D-01 0.24870678D-01 0.43510443D+05 0.43510443D+05 0.43510443D+05 0.11526442D+01  1  2  6  1  7  1       -1 0.409760525090D-01 0.100000000000D+01
0.808072048011D-04 0.000000000000D+00 0.000000000000D+00 0.358788994982D-08 0.329572694126D-08  7 -1 1 24 -11 11 -24 21 2 0.63503681D-01 0.24969011D-01 0.44054685D+05 0.44054685D+05 0.44054685D+05 0.11521628D+01  1  2 11  1  7  1       -1 0.668963004561D-02 0.100000000000D+01
0.150403707311D-08 0.000000000000D+00 0.000000000000D+00 0.358788994982D-08 0.000000000000D+00  7 21 1 24 -11 11 -24 1 2 0.63627589D-01 0.24870678D-01 0.44054685D+05 0.44054685D+05 0.44054685D+05 0.11521628D+01  1  2 12  3  7  1       -1 0.108935960269D-05 0.100000000000D+01
-.953243490509D-06 0.000000000000D+00 -.101646324647D-06 0.358788994982D-08 0.000000000000D+00  7 21 1 24 -11 11 -24 1 2 0.63714076D-01 0.24870678D-01 0.43510443D+05 0.43510443D+05 0.43510443D+05 0.11526442D+01  1  2  5  3  7  1       -1 -.689217653889D-03 0.100000000000D+01
0.153600839349D-06 0.000000000000D+00 0.000000000000D+00 0.358788994982D-08 0.450180195058D-11  7 21 1 24 -11 11 -24 1 2 0.63503681D-01 0.24969011D-01 0.44054685D+05 0.44054685D+05 0.44054685D+05 0.11521628D+01  1  2 11  3  7  1       -1 0.111172202267D-03 0.100000000000D+01
  </mgrwgt>
  </event>
  <event>
  8     66 0.29788925E-05 0.13931022E+03 0.75467711E-02 0.10149107E+00
       -1 -1    0    0    0  501 0.00000000E+00 0.00000000E+00 0.36829928E+02 0.36831318E+02 0.32000000E+00 0.0000E+00 0.9000E+01
        1 -1    0    0  501    0 0.00000000E+00 0.00000000E+00 -.11620756E+04 0.11620756E+04 0.32000000E+00 0.0000E+00 0.9000E+01
       25  2    1    2    0    0 -.34447065E+02 -.43406909E+02 -.87686400E+03 0.92848390E+03 0.30020181E+03 0.0000E+00 0.0000E+00
       23  2    1    2    0    0 0.34447065E+02 0.43406909E+02 -.24838163E+03 0.27042302E+03 0.91457170E+02 0.0000E+00 0.0000E+00
       24  1    3    3    0    0 0.13742579E+02 0.45803206E+02 -.71570822E+03 0.72179794E+03 0.80419002E+02 0.0000E+00 0.9000E+01
      -11  1    4    4    0    0 0.86640983E+01 0.14657129E+02 -.22422915E+03 0.22487465E+03 0.51099893E-03 0.0000E+00 0.9000E+01
       11  1    4    4    0    0 0.25782967E+02 0.28749781E+02 -.24152484E+02 0.45548367E+02 0.51099893E-03 0.0000E+00 0.9000E+01
      -24  1    3    3    0    0 -.48189644E+02 -.89210115E+02 -.16115578E+03 0.20668596E+03 0.80419002E+02 0.0000E+00 0.9000E+01
#aMCatNLO 1  0  0  1  1 0.21273228D+03 0.00000000D+00  -5  7  0 0.00000000D+00 0.00000000D+00 0.00000000D+00 0.00000000D+00 0.00000000D+00
  <mgrwgt>
 0.2078334789D-02    5    2    0
 0.206881653891262D+03 0.000000000000000D+00 0.000000000000000D+00 0.206881653891262D+03
 0.206881653891262D+03 0.000000000000000D+00 0.000000000000000D+00 -.206881653891262D+03
 0.145061186855927D+03 0.137425779269887D+02 0.458032050663007D+02 -.110854589148373D+03
 0.417893666320211D+02 0.866409891399353D+01 0.146571293209435D+02 -.381635049960450D+02
 0.662958150535141D+02 0.257829675068101D+02 0.287497814320303D+02 0.538871389829058D+02
 0.160616939241063D+03 -.481896443477924D+02 -.892101158192745D+02 0.951309551615122D+02
 0.000000000000000D+00 -.000000000000000D+00 -.000000000000000D+00 0.000000000000000D+00
 0.430186523907705D+03 0.000000000000000D+00 0.000000000000000D+00 0.430186523907705D+03
 0.289890289035323D+03 0.000000000000000D+00 0.000000000000000D+00 -.289890289035323D+03
 0.178432774341683D+03 0.864092990765715D+02 0.749381885472307D+02 -.110854589148373D+03
 0.539281764341361D+02 0.301652112851849D+02 0.232777818541269D+02 -.381635049960450D+02
 0.923496591613559D+02 0.614196340885802D+02 0.430379407950766D+02 0.538871389829058D+02
 0.140536739958377D+03 0.194587604278031D+02 -.620871752975588D+02 0.951309551615122D+02
 0.254829463047476D+03 -.197452904878140D+03 -.791667358988754D+02 0.140296234872382D+03
0.914856276520D-05 0.000000000000D+00 0.000000000000D+00 0.517610797637D-06 0.000000000000D+00  7 -1 1 24 -11 11 -24 21 0 0.56662531D-02 0.17878097D+00 0.19407337D+05 0.19407337D+05 0.19407337D+05 0.11853038D+01  1  2  2  1  7  1       -1 0.173346122369D-02 0.100000000000D+01
-.411619224280D-06 0.000000000000D+00 -.351328898903D-07 0.517610797637D-06 0.000000000000D+00  7 -1 1 24 -11 11 -24 21 2 0.56662531D-02 0.17878097D+00 0.19407337D+05 0.19407337D+05 0.19407337D+05 0.11853038D+01  1  2  3  1  7  1       -1 -.109576199589D-03 0.100000000000D+01
0.584288471423D-06 0.000000000000D+00 0.000000000000D+00 0.517610797637D-06 0.000000000000D+00  7 -1 1 24 -11 11 -24 21 2 0.56662531D-02 0.17878097D+00 0.19407337D+05 0.19407337D+05 0.19407337D+05 0.11853038D+01  1  2 15  1  7  1       -1 0.155542079636D-03 0.100000000000D+01
0.143560463460D-05 0.000000000000D+00 -.300447317916D-05 0.517610797637D-06 0.000000000000D+00  7 -1 1 24 -11 11 -24 21 2 0.16785071D-01 0.17878097D+00 0.19407337D+05 0.19407337D+05 0.19407337D+05 0.11853038D+01  1  2  5  1  7  1       -1 0.745398931147D-04 0.100000000000D+01
0.330717897352D-06 0.000000000000D+00 -.370343496716D-06 0.517610797637D-06 0.000000000000D+00  7 21 1 24 -11 11 -24 1 2 0.16785071D-01 0.17878097D+00 0.19407337D+05 0.19407337D+05 0.19407337D+05 0.11853038D+01  1  2  5  3  7  1       -1 0.224367792106D-03 0.100000000000D+01
  </mgrwgt>
  </event>
  <event>
  9     66 0.29788925E-05 0.33315331E+03 0.75467711E-02 0.97446435E-01
       21 -1    0    0  502  501 0.00000000E+00 0.00000000E+00 0.25102760E+03 0.25102872E+03 0.75000000E+00 0.0000E+00 0.9000E+01
        1 -1    0    0  501    0 0.00000000E+00 0.00000000E+00 -.11099503E+04 0.11099504E+04 0.32000000E+00 0.0000E+00 0.9000E+01
       25  2    1    2    0    0 0.38646671E+02 0.22176778E+03 -.38495586E+03 0.53786544E+03 0.30072197E+03 0.0000E+00 0.0000E+00
       23  2    1    2    0    0 -.14412278E+03 -.25624810E+03 0.28555962E+02 0.30848427E+03 0.88953003E+02 0.0000E+00 0.0000E+00
       24  1    3    3    0    0 0.11354121E+03 0.22036827E+03 -.30920450E+03 0.40438647E+03 0.80419002E+02 0.0000E+00 0.9000E+01
      -11  1    4    4    0    0 -.12966195E+03 -.15645005E+03 -.16970583E+01 0.20320364E+03 0.51099893E-03 0.0000E+00 0.9000E+01
       11  1    4    4    0    0 -.14460837E+02 -.99798045E+02 0.30253020E+02 0.10528063E+03 0.51099893E-03 0.0000E+00 0.9000E+01
      -24  1    3    3    0    0 -.74894536E+02 0.13995121E+01 -.75751360E+02 0.13347897E+03 0.80419002E+02 0.0000E+00 0.9000E+01
        1  1    1    2  502    0 0.10547611E+03 0.34480318E+02 -.50252283E+03 0.51462938E+03 0.32000000E+00 0.0000E+00 0.9000E+01
#aMCatNLO 2  0  0  1  1 0.11096893D+03 0.00000000D+00  -5  7  0 0.00000000D+00 0.00000000D+00 0.00000000D+00 0.00000000D+00 0.00000000D+00
  <mgrwgt>
 0.8155006845D-04    1    2    0
 0.379793640283878D+03 0.000000000000000D+00 0.000000000000000D+00 0.379793640283878D+03
 0.379793640283878D+03 0.000000000000000D+00 0.000000000000000D+00 -.379793640283878D+03
 0.331266963424210D+03 0.157296663324441D+03 0.234672001697084D+03 -.153158076601946D+03
 0.200511288867955D+03 -.100395706651754D+03 -.146882871842057D+03 0.924710820138557D+02
 0.124962678812206D+03 0.315599947773389D+01 -.940390716666327D+02 0.822335926692796D+02
 0.102846349463386D+03 -.600569561504204D+02 0.624994181160621D+01 -.215465980811896D+02
 0.000000000000000D+00 0.000000000000000D+00 0.000000000000000D+00 -.000000000000000D+00
 0.393309294512603D+03 0.000000000000000D+00 0.000000000000000D+00 0.393309294512603D+03
 0.708421728176974D+03 0.000000000000000D+00 0.000000000000000D+00 -.708421728176974D+03
 0.302288590822947D+03 0.113541206748879D+03 0.220368269333299D+03 -.153158076601946D+03
 0.223248159384627D+03 -.129661945440448D+03 -.156450054536292D+03 0.924710820138557D+02
 0.130119673429088D+03 -.144608372966654D+02 -.997980452447583D+02 0.822335926692796D+02
 0.111993847832389D+03 -.748945356814387D+02 0.139951210185001D+01 -.215465980811896D+02
 0.334080751220526D+03 0.105476111669673D+03 0.344803183459017D+02 -.315112433664371D+03
0.679971542304D-06 0.000000000000D+00 0.000000000000D+00 0.177893461110D-06 0.102195798169D-11  7 21 1 24 -11 11 -24 1 2 0.38619713D-01 0.17076164D+00 0.15426198D+06 0.15426198D+06 0.15426198D+06 0.11065930D+01  1  2  1  3  7  1       -1 0.815500684501D-04 0.100000000000D+01
  </mgrwgt>
  </event>
  <event>
  9     66 0.29788925E-05 0.24571406E+03 0.75467711E-02 0.10107832E+00
       -1 -1    0    0    0  502 0.00000000E+00 0.00000000E+00 0.27092193E+03 0.27092212E+03 0.32000000E+00 0.0000E+00 0.9000E+01
        1 -1    0    0  501    0 0.00000000E+00 0.00000000E+00 -.15205572E+04 0.15205572E+04 0.32000000E+00 0.0000E+00 0.9000E+01
       25  2    1    2    0    0 0.58717035E+02 0.14541568E+03 0.81411267E+02 0.34805866E+03 0.29987269E+03 0.0000E+00 0.0000E+00
       23  2    1    2    0    0 -.13224744E+03 -.12346202E+03 -.13494689E+04 0.13644990E+04 0.89770670E+02 0.0000E+00 0.0000E+00
       24  1    3    3    0    0 0.12292355E+03 -.10022055E+01 -.97415764E+01 0.14721860E+03 0.80419002E+02 0.0000E+00 0.9000E+01
      -13  1    4    4    0    0 -.10947202E+03 -.79450202E+02 -.11858653E+04 0.11935548E+04 0.10565837E+00 0.0000E+00 0.9000E+01
       13  1    4    4    0    0 -.22775428E+02 -.44011821E+02 -.16360365E+03 0.17094422E+03 0.10565837E+00 0.0000E+00 0.9000E+01
      -24  1    3    3    0    0 -.64206513E+02 0.14641788E+03 0.91152843E+02 0.20084006E+03 0.80419002E+02 0.0000E+00 0.9000E+01
       21  1    1    2  501  502 0.73530408E+02 -.21953656E+02 0.18422434E+02 0.78921686E+02 0.75000000E+00 0.0000E+00 0.9000E+01
#aMCatNLO 2  0  0  1  2 0.76737760D+02 0.00000000D+00  -5  7  0 0.00000000D+00 0.00000000D+00 0.00000000D+00 0.00000000D+00 0.00000000D+00
  <mgrwgt>
 0.1582679516D-03    2    2    0
 0.574237477654564D+03 0.000000000000000D+00 0.000000000000000D+00 0.574237477654564D+03
 0.574237477654564D+03 0.000000000000000D+00 0.000000000000000D+00 -.574237477654564D+03
 0.216659566331074D+03 0.136512473196262D+03 -.505939197336694D+01 0.147691905475886D+03
 0.464947934395970D+03 -.795951902145289D+02 -.883704816770561D+02 -.449479527188900D+03
 0.736488632283717D+02 -.180507934488747D+02 -.454223495076033D+02 -.550920509321136D+02
 0.393218591353713D+03 -.388664895328584D+02 0.138852223158026D+03 0.356879672645128D+03
 0.000000000000000D+00 0.000000000000000D+00 -.000000000000000D+00 0.000000000000000D+00
 0.701553340907845D+03 0.000000000000000D+00 0.000000000000000D+00 0.701553340907845D+03
 0.587198509639096D+03 0.000000000000000D+00 0.000000000000000D+00 -.587198509639096D+03
 0.208305828192280D+03 0.122923548377046D+03 -.100220546748236D+01 0.147691905475886D+03
 0.469391453046200D+03 -.109472135149833D+03 -.794502514571375D+02 -.449479527188900D+03
 0.741005044946642D+02 -.227753076703844D+02 -.440117717318500D+02 -.550920509321136D+02
 0.399238011641994D+03 -.642065133074493D+02 0.146417884450940D+03 0.356879672645128D+03
 0.137716053171803D+03 0.735304077506214D+02 -.219536557944706D+02 0.114354831268750D+03
-.314364854963D-03 0.000000000000D+00 0.000000000000D+00 0.543273231008D-05 0.000000000000D+00  7 -1 1 24 -13 13 -24 21 2 0.42007188D-01 0.22876800D+00 0.86264722D+05 0.86264722D+05 0.86264722D+05 0.11270260D+01  1  2 13  1  7  1       -1 -.190786348987D-02 0.100000000000D+01
0.353436310915D-03 0.000000000000D+00 0.000000000000D+00 0.543273231008D-05 0.637093268872D-08  7 -1 1 24 -13 13 -24 21 2 0.41680243D-01 0.23393149D+00 0.86264722D+05 0.86264722D+05 0.86264722D+05 0.11270260D+01  1  2  1  1  7  1       -1 0.206613144142D-02 0.100000000000D+01
  </mgrwgt>
  </event>
  <event>
  7     66 0.29788925E-05 0.31876871E+03 0.75467711E-02 0.93462655E-01
       -3 -1    0    0    0  501 0.00000000E+00 0.00000000E+00 0.25207603E+03 0.25207652E+03 0.50000000E+00 0.0000E+00 0.9000E+01
        3 -1    0    0  501    0 0.00000000E+00 0.00000000E+00 -.65812456E+03 0.65812475E+03 0.50000000E+00 0.0000E+00 0.9000E+01
       25  2    1    2    0    0 0.19721803E+03 0.11415595E+02 0.60716843E+02 0.36444725E+03 0.30018327E+03 0.0000E+00 0.0000E+00
       24  1    3    3    0    0 0.25001528E+03 0.16306335E+01 0.42662162E+02 0.26607814E+03 0.80419002E+02 0.0000E+00 0.9000E+01
      -11  1    1    2    0    0 -.53426404E+02 -.97093237E+02 -.13944274E+03 0.17811725E+03 0.51099893E-03 0.0000E+00 0.9000E+01
       11  1    1    2    0    0 -.14379163E+03 0.85677642E+02 -.32732264E+03 0.36763678E+03 0.51099893E-03 0.0000E+00 0.9000E+01
      -24  1    3    3    0    0 -.52797246E+02 0.97849613E+01 0.18054681E+02 0.98369112E+02 0.80419002E+02 0.0000E+00 0.9000E+01
#aMCatNLO 1  0  0  2  1 0.37734068D+03 0.00000000D+00  -5  7  0 0.00000000D+00 0.00000000D+00 0.00000000D+00 0.00000000D+00 0.00000000D+00
  <mgrwgt>
 0.1578114473D-03    5    2    0
 0.407305459956742D+03 0.000000000000000D+00 0.000000000000000D+00 0.407305459956742D+03
 0.407305459956742D+03 0.000000000000000D+00 0.000000000000000D+00 -.407305459956742D+03
 0.318566286712016D+03 0.250015285414191D+03 0.163063389574254D+01 0.180296869544290D+03
 0.129512163978767D+03 -.534264095420576D+02 -.970932176383571D+02 -.670218357741565D+02
 0.247620770329621D+03 -.143791631976534D+03 0.856776223078298D+02 -.182481115482772D+03
 0.118911698893080D+03 -.527972438955989D+02 0.978496143478473D+01 0.692060817126384D+02
 0.000000000000000D+00 0.000000000000000D+00 -.000000000000000D+00 -.000000000000000D+00
 0.496883356372539D+03 0.000000000000000D+00 0.000000000000000D+00 0.496883356372539D+03
 0.119043981382690D+04 0.000000000000000D+00 0.000000000000000D+00 -.119043981382690D+04
 0.238238491250288D+03 0.130284175732346D+03 0.284505737220847D+02 0.180296869544290D+03
 0.157050730006533D+03 -.115046737973980D+03 -.832901759308584D+02 -.670218357741565D+02
 0.346567516644149D+03 -.271561410137706D+03 0.114298235371665D+03 -.182481115482772D+03
 0.155905447009771D+03 -.111891855042728D+03 0.230222388578253D+02 0.692060817126384D+02
 0.789560985288696D+03 0.368215827422069D+03 -.824808720207167D+02 -.693556457454359D+03
0.663596107756D-04 0.000000000000D+00 0.000000000000D+00 0.112192554320D-08 0.000000000000D+00  7 -3 3 24 -11 11 -24 21 0 0.38780980D-01 0.10124999D+00 0.10161349D+06 0.10161349D+06 0.10161349D+06 0.11211520D+01  1  2  2  2  7  2        3 0.160663997338D-03 0.100000000000D+01
-.341737316463D-05 0.000000000000D+00 -.254838378265D-06 0.112192554320D-08 0.000000000000D+00  7 -3 3 24 -11 11 -24 21 2 0.38780980D-01 0.10124999D+00 0.10161349D+06 0.10161349D+06 0.10161349D+06 0.11211520D+01  1  2  3  2  7  2        3 -.104000678579D-04 0.100000000000D+01
0.409702002579D-05 0.000000000000D+00 0.000000000000D+00 0.112192554320D-08 0.000000000000D+00  7 -3 3 24 -11 11 -24 21 2 0.38780980D-01 0.10124999D+00 0.10161349D+06 0.10161349D+06 0.10161349D+06 0.11211520D+01  1  2 15  2  7  2        3 0.124684323984D-04 0.100000000000D+01
-.363560068522D-04 0.000000000000D+00 -.208214259525D-04 0.112192554320D-08 0.000000000000D+00  7 -3 3 24 -11 11 -24 21 2 0.38780980D-01 0.31733340D+00 0.10161349D+06 0.10161349D+06 0.10161349D+06 0.11211520D+01  1  2  5  2  7  2        3 -.141287538164D-05 0.100000000000D+01
-.381607632368D-05 0.000000000000D+00 -.272870763746D-05 0.112192554320D-08 0.000000000000D+00  7 -3 21 24 -11 11 -24 -3 2 0.38780980D-01 0.31733340D+00 0.10161349D+06 0.10161349D+06 0.10161349D+06 0.11211520D+01  1  2  5  4  7  2        3 -.350803915264D-05 0.100000000000D+01
  </mgrwgt>
  </event>
  <event>
  8     66 0.29788925E-05 0.24719505E+03 0.75467711E-02 0.91254338E-01
       -1 -1    0    0    0  501 0.00000000E+00 0.00000000E+00 0.17260193E+04 0.17260193E+04 0.32000000E+00 0.0000E+00 0.9000E+01
        1 -1    0    0  501    0 0.00000000E+00 0.00000000E+00 -.58392410E+02 0.58393287E+02 0.32000000E+00 0.0000E+00 0.9000E+01
       25  2    1    2    0    0 -.17861541E+02 -.16068631E+03 0.14854467E+04 0.15240885E+04 0.30025741E+03 0.0000E+00 0.0000E+00
       23  2    1    2    0    0 0.17861541E+02 0.16068631E+03 0.18218015E+03 0.26032415E+03 0.91869098E+02 0.0000E+00 0.0000E+00
       24  1    3    3    0    0 -.71626981E+02 -.19085596E+03 0.12283126E+04 0.12477081E+04 0.80419002E+02 0.0000E+00 0.9000E+01
      -11  1    4    4    0    0 0.42188810E+02 0.10370714E+03 0.15837538E+03 0.19395316E+03 0.51099893E-03 0.0000E+00 0.9000E+01
       11  1    4    4    0    0 -.24327269E+02 0.56979165E+02 0.23804772E+02 0.66370991E+02 0.51099893E-03 0.0000E+00 0.9000E+01
      -24  1    3    3    0    0 0.53765439E+02 0.30169654E+02 0.25713415E+03 0.27638039E+03 0.80419002E+02 0.0000E+00 0.9000E+01
#aMCatNLO 1  0  0  1  1 0.59786253D+03 0.00000000D+00  -5  7  0 0.00000000D+00 0.00000000D+00 0.00000000D+00 0.00000000D+00 0.00000000D+00
  <mgrwgt>
 0.8306287607D-03    3    2    0
 0.317470055731817D+03 0.000000000000000D+00 0.000000000000000D+00 0.317470055731817D+03
 0.317470055731817D+03 0.000000000000000D+00 0.000000000000000D+00 -.317470055731817D+03
 0.280434228252226D+03 -.716269806086665D+02 -.190855964060976D+03 0.174984905212685D+03
 0.129116783934198D+03 0.421888100765272D+02 0.103707144751966D+03 -.643123341609665D+02
 0.124005010822517D+03 -.243272687188951D+02 0.569791650130157D+02 -.107418813343802D+03
 0.101384088454692D+03 0.537654392510344D+02 0.301696542959936D+02 -.325375770791614D+01
 0.000000000000000D+00 -.000000000000000D+00 0.000000000000000D+00 -.000000000000000D+00
 0.486468004307849D+03 0.000000000000000D+00 0.000000000000000D+00 0.486468004307849D+03
 0.220874312195583D+04 0.000000000000000D+00 0.000000000000000D+00 -.220874312195583D+04
 0.349087464337918D+03 0.174516965136855D+03 -.233064269313501D+03 0.174984905212685D+03
 0.199996955201951D+03 0.170872786027736D+03 0.816406562929222D+02 -.643123341609665D+02
 0.138681260475832D+03 0.783834655919728D+02 0.393665196425457D+02 -.107418813343802D+03
 0.184351597477256D+03 0.165488529977605D+03 0.110115868372964D+02 -.325375770791614D+01
 0.182309384877072D+04 -.589261746734168D+03 0.101045506540736D+03 -.172227511764798D+04
0.197620284666D-03 0.000000000000D+00 0.000000000000D+00 0.142950957874D-05 0.000000000000D+00  7 -1 1 24 -11 11 -24 21 0 0.26554150D+00 0.89835175D-02 0.61105393D+05 0.61105393D+05 0.61105393D+05 0.11397112D+01  1  2  2  1  7  1       -1 0.816902057733D-03 0.100000000000D+01
-.101432338308D-04 0.000000000000D+00 -.758913927733D-06 0.142950957874D-05 0.000000000000D+00  7 -1 1 24 -11 11 -24 21 2 0.26554150D+00 0.89835175D-02 0.61105393D+05 0.61105393D+05 0.61105393D+05 0.11397112D+01  1  2  3  1  7  1       -1 -.544633732661D-04 0.100000000000D+01
0.126996887466D-04 0.000000000000D+00 0.000000000000D+00 0.142950957874D-05 0.000000000000D+00  7 -1 1 24 -11 11 -24 21 2 0.26554150D+00 0.89835175D-02 0.61105393D+05 0.61105393D+05 0.61105393D+05 0.11397112D+01  1  2 15  1  7  1       -1 0.681900762716D-04 0.100000000000D+01
  </mgrwgt>
  </event>
  <event>
  8     66 0.29788925E-05 0.93855294E+02 0.75467711E-02 0.10091924E+00
       -1 -1    0    0    0  501 0.00000000E+00 0.00000000E+00 0.58825143E+02 0.58826013E+02 0.32000000E+00 0.0000E+00 0.9000E+01
        1 -1    0    0  501    0 0.00000000E+00 0.00000000E+00 -.14776136E+04 0.14776136E+04 0.32000000E+00 0.0000E+00 0.9000E+01
       25  2    1    2    0    0 0.76908932E+02 -.22209530E+02 -.13721733E+04 0.14069106E+04 0.30021616E+03 0.0000E+00 0.0000E+00
       23  2    1    2    0    0 -.76908932E+02 0.22209530E+02 -.46615178E+02 0.12952903E+03 0.90534781E+02 0.0000E+00 0.0000E+00
       24  1    3    3    0    0 0.14444012E+03 0.58599565E+02 -.87331589E+03 0.89075514E+03 0.80419002E+02 0.0000E+00 0.9000E+01
      -13  1    4    4    0    0 0.81272195E+01 -.19965318E+01 -.40001487E+02 0.40867689E+02 0.10565837E+00 0.0000E+00 0.9000E+01
       13  1    4    4    0    0 -.85036152E+02 0.24206061E+02 -.66136901E+01 0.88661337E+02 0.10565837E+00 0.0000E+00 0.9000E+01
      -24  1    3    3    0    0 -.67531191E+02 -.80809094E+02 -.49885738E+03 0.51615547E+03 0.80419002E+02 0.0000E+00 0.9000E+01
#aMCatNLO 1  0  0  2  1 0.18787471D+03 0.00000000D+00  -5  7  0 0.00000000D+00 0.00000000D+00 0.00000000D+00 0.00000000D+00 0.00000000D+00
  <mgrwgt>
 0.7389278822D-03    7    2    0
 0.294824568158961D+03 0.000000000000000D+00 0.000000000000000D+00 0.294824568158961D+03
 0.294824568158961D+03 0.000000000000000D+00 0.000000000000000D+00 -.294824568158961D+03
 0.219691678970600D+03 0.144440123789172D+03 0.585995646907871D+02 -.132288924375284D+03
 0.102381631648677D+02 0.812734606983135D+01 -.199656738301346D+01 -.589745280072149D+01
 0.215110176087200D+03 -.850362786974013D+02 0.242060970530008D+02 0.196100188748060D+03
 0.144609118095255D+03 -.675311911616016D+02 -.808090943607744D+02 -.579138115720548D+02
 0.000000000000000D+00 -.000000000000000D+00 0.000000000000000D+00 -.000000000000000D+00
 0.319325414216950D+03 0.000000000000000D+00 0.000000000000000D+00 0.319325414216950D+03
 0.120100650559637D+04 0.000000000000000D+00 0.000000000000000D+00 -.120100650559637D+04
 0.255393244313362D+03 0.202691941362353D+03 0.131951006409495D+02 -.132288924375284D+03
 0.131787754909633D+02 0.109985784997574D+02 -.423455368240278D+01 -.589745280072149D+01
 0.199654169448322D+03 -.341805773104008D+02 -.154334534632465D+02 0.196100188748060D+03
 0.150630021994557D+03 -.313308916233753D+02 -.109025470560742D+03 -.579138115720548D+02
 0.901475708566111D+03 -.148179050928334D+03 0.115498377065442D+03 -.881681091379417D+03
0.124848302272D-04 0.000000000000D+00 0.000000000000D+00 0.189614395905D-05 0.000000000000D+00  7 -1 1 24 -13 13 -24 21 0 0.90500916D-02 0.22732524D+00 0.40942707D+05 0.40942707D+05 0.40942707D+05 0.11550089D+01  1  2  2  2  7  2        1 0.722968944977D-03 0.100000000000D+01
-.574112714358D-06 0.000000000000D+00 -.479450354036D-07 0.189614395905D-05 0.000000000000D+00  7 -1 1 24 -13 13 -24 21 2 0.90500916D-02 0.22732524D+00 0.40942707D+05 0.40942707D+05 0.40942707D+05 0.11550089D+01  1  2  3  2  7  2        1 -.443511410178D-04 0.100000000000D+01
0.781058031266D-06 0.000000000000D+00 0.000000000000D+00 0.189614395905D-05 0.000000000000D+00  7 -1 1 24 -13 13 -24 21 2 0.90500916D-02 0.22732524D+00 0.40942707D+05 0.40942707D+05 0.40942707D+05 0.11550089D+01  1  2 15  2  7  2        1 0.603380033598D-04 0.100000000000D+01
0.341307465179D-06 0.000000000000D+00 0.000000000000D+00 0.189614395905D-05 0.000000000000D+00  7 -1 1 24 -13 13 -24 21 2 0.90500916D-02 0.89761355D+00 0.88410115D+05 0.88410115D+05 0.88410115D+05 0.11261388D+01  1  2 12  2  7  2        1 0.759324099332D-09 0.100000000000D+01
-.367077518418D-04 0.000000000000D+00 -.380439757703D-05 0.189614395905D-05 0.000000000000D+00  7 -1 1 24 -13 13 -24 21 2 0.90500916D-02 0.92730575D+00 0.40942707D+05 0.40942707D+05 0.40942707D+05 0.11550089D+01  1  2  5  2  7  2        1 -.286331912638D-07 0.100000000000D+01
0.558442285059D-07 0.000000000000D+00 0.000000000000D+00 0.189614395905D-05 0.000000000000D+00  7 -1 21 24 -13 13 -24 -1 2 0.90500916D-02 0.89761355D+00 0.88410115D+05 0.88410115D+05 0.88410115D+05 0.11261388D+01  1  2 12  4  7  2        1 0.193926429899D-11 0.100000000000D+01
-.614215147138D-05 0.000000000000D+00 -.639892723560D-06 0.189614395905D-05 0.000000000000D+00  7 -1 21 24 -13 13 -24 -1 2 0.90500916D-02 0.92730575D+00 0.40942707D+05 0.40942707D+05 0.40942707D+05 0.11550089D+01  1  2  5  4  7  2        1 -.531648551962D-10 0.100000000000D+01
  </mgrwgt>
  </event>
  <event>
  9     66 0.29788925E-05 0.20817255E+03 0.75467711E-02 0.10380402E+00
       -1 -1    0    0    0  501 0.00000000E+00 0.00000000E+00 0.36314974E+03 0.36314988E+03 0.32000000E+00 0.0000E+00 0.9000E+01
        1 -1    0    0  502    0 0.00000000E+00 0.00000000E+00 -.18710404E+03 0.18710431E+03 0.32000000E+00 0.0000E+00 0.9000E+01
       25  2    1    2    0    0 -.12057838E+03 -.47471092E+02 0.97610343E+02 0.34084901E+03 0.29976260E+03 0.0000E+00 0.0000E+00
       23  2    1    2    0    0 0.90942273E+02 -.49440520E+01 0.31163495E+02 0.13284908E+03 0.91557485E+02 0.0000E+00 0.0000E+00
       24  1    3    3    0    0 0.72691107E+02 -.42643096E+02 0.45612547E+02 0.12510056E+03 0.80419002E+02 0.0000E+00 0.9000E+01
      -13  1    4    4    0    0 0.20951048E+02 -.84944131E+01 0.54484991E+02 0.58989210E+02 0.10565837E+00 0.0000E+00 0.9000E+01
       13  1    4    4    0    0 0.69991224E+02 0.35503611E+01 -.23321496E+02 0.73859866E+02 0.10565837E+00 0.0000E+00 0.9000E+01
      -24  1    3    3    0    0 -.19326949E+03 -.48279959E+01 0.51997796E+02 0.21574845E+03 0.80419002E+02 0.0000E+00 0.9000E+01
       21  1    1    2  502  501 0.29636109E+02 0.52415144E+02 0.47271861E+02 0.76556108E+02 0.75000000E+00 0.0000E+00 0.9000E+01
#aMCatNLO 2  0  0  2  1 0.60213340D+02 0.00000000D+00  -5  7  0 0.00000000D+00 0.00000000D+00 0.00000000D+00 0.00000000D+00 0.00000000D+00
  <mgrwgt>
 0.1963326900D-03    1    2    0
 0.225932251355638D+03 0.000000000000000D+00 0.000000000000000D+00 0.225932251355638D+03
 0.225932251355638D+03 0.000000000000000D+00 0.000000000000000D+00 -.225932251355638D+03
 0.117967507306897D+03 0.803661448006680D+02 -.290688181449651D+02 0.120583335235588D+02
 0.467008913019455D+02 0.239745191543345D+02 -.314695432566535D+01 0.399536275973379D+02
 0.890772834990233D+02 0.756204742919666D+02 0.135062610566249D+02 -.450986387343753D+02
 0.198118820603410D+03 -.179961138246969D+03 0.187095114140055D+02 -.691332238652142D+01
 0.000000000000000D+00 0.000000000000000D+00 0.000000000000000D+00 0.000000000000000D+00
 0.274774121078750D+03 0.000000000000000D+00 0.000000000000000D+00 0.274774121078750D+03
 0.247278624334075D+03 0.000000000000000D+00 0.000000000000000D+00 -.247278624334075D+03
 0.117111265251492D+03 0.726910958145817D+02 -.426430964675966D+02 0.120583335235588D+02
 0.459063394604938D+02 0.209510005914623D+02 -.849442279921833D+01 0.399536275973379D+02
 0.833383175472661D+02 0.699913051007454D+02 0.355037550262486D+01 -.450986387343753D+02
 0.209502800489117D+03 -.193269510907014D+03 -.482800018184854D+01 -.691332238652142D+01
 0.661940226644556D+02 0.296361094002248D+02 0.524151439460386D+02 0.274954967446747D+02
0.229054114625D-05 0.000000000000D+00 0.000000000000D+00 0.889000798561D-06 0.172367902668D-08  7 -1 1 24 -13 13 -24 21 2 0.55868758D-01 0.28785029D-01 0.57307493D+05 0.57307493D+05 0.57307493D+05 0.11421207D+01  1  2  1  2  7  2        1 0.196332689956D-03 0.100000000000D+01
  </mgrwgt>
  </event>
  <event>
  7     66 0.29788925E-05 0.21388571E+03 0.75467711E-02 0.10431061E+00
       -1 -1    0    0    0  501 0.00000000E+00 0.00000000E+00 0.67350703E+02 0.67351464E+02 0.32000000E+00 0.0000E+00 0.9000E+01
        1 -1    0    0  501    0 0.00000000E+00 0.00000000E+00 -.25881236E+04 0.25881236E+04 0.32000000E+00 0.0000E+00 0.9000E+01
       23  2    1    2    0    0 -.14902309E+03 0.45867592E+02 -.10672634E+03 0.20950688E+03 0.90503604E+02 0.0000E+00 0.0000E+00
       24  1    1    2    0    0 0.58475666E+02 0.55143170E+02 -.23333858E+03 0.25956556E+03 0.80419002E+02 0.0000E+00 0.9000E+01
      -13  1    3    3    0    0 -.12459729E+03 0.33647696E+02 -.36449032E+02 0.13410889E+03 0.10565837E+00 0.0000E+00 0.9000E+01
       13  1    3    3    0    0 -.24425806E+02 0.12219897E+02 -.70277303E+02 0.75397987E+02 0.10565837E+00 0.0000E+00 0.9000E+01
      -24  1    1    2    0    0 0.90547425E+02 -.10101076E+03 -.21807080E+04 0.21864026E+04 0.80419002E+02 0.0000E+00 0.9000E+01
#aMCatNLO 1  0  0  1  2 0.29298175D+02 0.00000000D+00  -5  7  0 0.00000000D+00 0.00000000D+00 0.00000000D+00 0.00000000D+00 0.00000000D+00
  <mgrwgt>
 0.1412290037D-02    4    2    0
 0.417508058807325D+03 0.000000000000000D+00 0.000000000000000D+00 0.417508058807325D+03
 0.417508058807325D+03 0.000000000000000D+00 0.000000000000000D+00 -.417508058807325D+03
 0.121046138877618D+03 0.584756682796527D+02 0.551423244151811D+02 0.415315790712088D+02
 0.316454441857271D+03 -.124598043472381D+03 0.336479163235367D+02 0.288940407456513D+03
 0.276211247946105D+02 -.244257238988045D+02 0.122198840597771D+02 0.412128384176895D+01
 0.369894412085150D+03 0.905480990915326D+02 -.101010124798495D+03 -.334593270369490D+03
 0.000000000000000D+00 0.000000000000000D+00 0.000000000000000D+00 -.000000000000000D+00
 0.421042990266480D+03 0.000000000000000D+00 0.000000000000000D+00 0.421042990266480D+03
 0.483230141010228D+03 0.000000000000000D+00 0.000000000000000D+00 -.483230141010228D+03
 0.118626039478961D+03 0.571155374658300D+02 0.511650721482411D+02 0.415315790712088D+02
 0.316946700627144D+03 -.128192571703863D+03 0.231369085499080D+02 0.288940407456513D+03
 0.275097453733317D+02 -.247385895631567D+02 0.113050120047169D+02 0.412128384176895D+01
 0.372447465949145D+03 0.863353361850125D+02 -.113328955200511D+03 -.334593270369490D+03
 0.687431798481263D+02 0.948028761617731D+01 0.277219624976446D+02 -.621871507437475D+02
0.169530447293D-03 0.000000000000D+00 0.000000000000D+00 0.957029604215D-09 0.000000000000D+00  7 -1 1 24 -13 13 -24 21 0 0.10361707D-01 0.39817292D+00 0.45747095D+05 0.45747095D+05 0.45747095D+05 0.11507068D+01  1  2  2  1  7  1       -1 0.149198339952D-02 0.100000000000D+01
-.429529361968D-05 0.000000000000D+00 -.651041555996D-06 0.957029604215D-09 0.000000000000D+00  7 -1 1 24 -13 13 -24 21 2 0.10361707D-01 0.39817292D+00 0.45747095D+05 0.45747095D+05 0.45747095D+05 0.11507068D+01  1  2  3  1  7  1       -1 -.500539627300D-04 0.100000000000D+01
0.104290075335D-04 0.000000000000D+00 0.000000000000D+00 0.957029604215D-09 0.000000000000D+00  7 -1 1 24 -13 13 -24 21 2 0.10361707D-01 0.39817292D+00 0.45747095D+05 0.45747095D+05 0.45747095D+05 0.11507068D+01  1  2 15  1  7  1       -1 0.121531425000D-03 0.100000000000D+01
-.129724609751D-04 0.000000000000D+00 0.000000000000D+00 0.957029604215D-09 0.000000000000D+00  7 -1 1 24 -13 13 -24 21 2 0.10361707D-01 0.39817292D+00 0.45747095D+05 0.45747095D+05 0.45747095D+05 0.11507068D+01  1  2  4  1  7  1       -1 -.151170824548D-03 0.100000000000D+01
  </mgrwgt>
  </event>
  <event>
  8     66 0.29788925E-05 0.12261872E+03 0.75467711E-02 0.10222254E+00
       -1 -1    0    0    0  501 0.00000000E+00 0.00000000E+00 0.86505899E+02 0.86506491E+02 0.32000000E+00 0.0000E+00 0.9000E+01
        1 -1    0    0  501    0 0.00000000E+00 0.00000000E+00 -.13327686E+04 0.13327687E+04 0.32000000E+00 0.0000E+00 0.9000E+01
       25  2    1    2    0    0 0.90301989E+02 -.72611781E+02 -.12292257E+04 0.12706759E+04 0.30032425E+03 0.0000E+00 0.0000E+00
       23  2    1    2    0    0 -.90301989E+02 0.72611781E+02 -.17037058E+02 0.14859923E+03 0.91457906E+02 0.0000E+00 0.0000E+00
       24  1    3    3    0    0 -.48462820E+02 -.11815750E+03 -.68769728E+03 0.70406293E+03 0.80419002E+02 0.0000E+00 0.9000E+01
      -13  1    4    4    0    0 -.96865858E+02 0.37047815E+02 -.33330790E+02 0.10893341E+03 0.10565837E+00 0.0000E+00 0.9000E+01
       13  1    4    4    0    0 0.65638698E+01 0.35563966E+02 0.16293731E+02 0.39665816E+02 0.10565837E+00 0.0000E+00 0.9000E+01
      -24  1    3    3    0    0 0.13876481E+03 0.45545714E+02 -.54152838E+03 0.56661299E+03 0.80419002E+02 0.0000E+00 0.9000E+01
#aMCatNLO 1  0  0  2  1 0.83007600D+02 0.00000000D+00  -5  7  0 0.00000000D+00 0.00000000D+00 0.00000000D+00 0.00000000D+00 0.00000000D+00
  <mgrwgt>
 0.6832544118D-03    9    2    0
 0.339547927386577D+03 0.000000000000000D+00 0.000000000000000D+00 0.339547927386577D+03
 0.339547927386577D+03 0.000000000000000D+00 0.000000000000000D+00 -.339547927386577D+03
 0.209407155879462D+03 -.484628196895668D+02 -.118157495315680D+03 -.145169908685017D+03
 0.166497275266579D+03 -.968659958480736D+02 0.370478168244268D+02 0.130252757314767D+03
 0.112801348248807D+03 0.656400715706268D+01 0.355639643600241D+02 0.106846911119553D+03
 0.190390075378306D+03 0.138764808380578D+03 0.455457141312292D+02 -.919297597493030D+02
 0.000000000000000D+00 -.000000000000000D+00 0.000000000000000D+00 -.000000000000000D+00
 0.357760352015622D+03 0.000000000000000D+00 0.000000000000000D+00 0.357760352015622D+03
 0.451895643243554D+03 0.000000000000000D+00 0.000000000000000D+00 -.451895643243554D+03
 0.217621190929719D+03 -.309089153928356D+02 -.137339372901294D+03 -.145169908685017D+03
 0.156402343714269D+03 -.835925233692697D+02 0.225433442056574D+02 0.130252757314767D+03
 0.110975640578647D+03 0.157628340617392D+02 0.255120255642989D+02 0.106846911119553D+03
 0.199150984883331D+03 0.154777718395977D+03 0.280477447614156D+02 -.919297597493030D+02
 0.125505835153211D+03 -.560391136956104D+02 0.612362583699225D+02 -.941352912279320D+02
0.148013304035D-04 0.000000000000D+00 0.000000000000D+00 0.206720040610D-05 0.000000000000D+00  7 -1 1 24 -13 13 -24 21 0 0.13308648D-01 0.20504137D+00 0.52331043D+05 0.52331043D+05 0.52331043D+05 0.11455588D+01  1  2  2  2  7  2        1 0.590636034649D-03 0.100000000000D+01
-.666348891941D-06 0.000000000000D+00 -.568410060291D-07 0.206720040610D-05 0.000000000000D+00  7 -1 1 24 -13 13 -24 21 2 0.13308648D-01 0.20504137D+00 0.52331043D+05 0.52331043D+05 0.52331043D+05 0.11455588D+01  1  2  3  2  7  2        1 -.348943910654D-04 0.100000000000D+01
0.931493214574D-06 0.000000000000D+00 0.000000000000D+00 0.206720040610D-05 0.000000000000D+00  7 -1 1 24 -13 13 -24 21 2 0.13308648D-01 0.20504137D+00 0.52331043D+05 0.52331043D+05 0.52331043D+05 0.11455588D+01  1  2 15  2  7  2        1 0.487790838961D-04 0.100000000000D+01
0.189424983869D-04 0.000000000000D+00 0.000000000000D+00 0.206720040610D-05 0.000000000000D+00  7 -1 1 24 -13 13 -24 21 2 0.13308648D-01 0.27703100D+00 0.72459084D+05 0.72459084D+05 0.72459084D+05 0.11333871D+01  1  2 12  2  7  2        1 0.475312095053D-03 0.100000000000D+01
-.220131707949D-04 0.000000000000D+00 0.000000000000D+00 0.206720040610D-05 0.000000000000D+00  7 -1 1 24 -13 13 -24 21 2 0.13308648D-01 0.20504137D+00 0.52331043D+05 0.52331043D+05 0.52331043D+05 0.11455588D+01  1  2  4  2  7  2        1 -.115275375948D-02 0.100000000000D+01
-.263575009729D-04 0.000000000000D+00 -.642767829541D-05 0.206720040610D-05 0.000000000000D+00  7 -1 1 24 -13 13 -24 21 2 0.13308648D-01 0.27857774D+00 0.52331043D+05 0.52331043D+05 0.52331043D+05 0.11455588D+01  1  2  5  2  7  2        1 -.671942710897D-03 0.100000000000D+01
0.273245753338D-04 0.000000000000D+00 0.613717252902D-05 0.206720040610D-05 0.000000000000D+00  7 -1 1 24 -13 13 -24 21 2 0.13308648D-01 0.20504137D+00 0.52331043D+05 0.52331043D+05 0.52331043D+05 0.11455588D+01  1  2  6  2  7  2        1 0.143089367886D-02 0.100000000000D+01
0.733844594695D-06 0.000000000000D+00 0.000000000000D+00 0.206720040610D-05 0.000000000000D+00  7 -1 21 24 -13 13 -24 -1 2 0.13308648D-01 0.27703100D+00 0.72459084D+05 0.72459084D+05 0.72459084D+05 0.11333871D+01  1  2 12  4  7  2        1 0.117142495906D-04 0.100000000000D+01
-.885751421220D-06 0.000000000000D+00 -.252330446234D-06 0.206720040610D-05 0.000000000000D+00  7 -1 21 24 -13 13 -24 -1 2 0.13308648D-01 0.27857774D+00 0.52331043D+05 0.52331043D+05 0.52331043D+05 0.11455588D+01  1  2  5  4  7  2        1 -.144898687908D-04 0.100000000000D+01
  </mgrwgt>
  </event>
  <event>
  8     66 0.29788925E-05 0.10058296E+03 0.75467711E-02 0.10077992E+00
       -3 -1    0    0    0  501 0.00000000E+00 0.00000000E+00 0.60858182E+03 0.60858202E+03 0.50000000E+00 0.0000E+00 0.9000E+01
        3 -1    0    0  501    0 0.00000000E+00 0.00000000E+00 -.20078967E+03 0.20079029E+03 0.50000000E+00 0.0000E+00 0.9000E+01
       25  2    1    2    0    0 -.16365849E+03 0.88742123E+02 0.20741146E+01 0.35325350E+03 0.30020737E+03 0.0000E+00 0.0000E+00
       23  2    1    2    0    0 0.16365849E+03 -.88742123E+02 0.40571803E+03 0.45611881E+03 0.93690891E+02 0.0000E+00 0.0000E+00
       24  1    3    3    0    0 -.40188509E+02 0.16446674E+03 0.61320608E+01 0.18753465E+03 0.80419002E+02 0.0000E+00 0.9000E+01
      -11  1    4    4    0    0 0.56010884E+02 -.16076516E+02 0.23206502E+03 0.23926940E+03 0.51099893E-03 0.0000E+00 0.9000E+01
       11  1    4    4    0    0 0.10764761E+03 -.72665606E+02 0.17365301E+03 0.21684941E+03 0.51099893E-03 0.0000E+00 0.9000E+01
      -24  1    3    3    0    0 -.12346998E+03 -.75724620E+02 -.40579463E+01 0.16571885E+03 0.80419002E+02 0.0000E+00 0.9000E+01
#aMCatNLO 1  0  0  2  1 0.53351435D+02 0.00000000D+00  -5  7  0 0.00000000D+00 0.00000000D+00 0.00000000D+00 0.00000000D+00 0.00000000D+00
  <mgrwgt>
 0.9266910254D-04    9    2    0
 0.349567268347321D+03 0.000000000000000D+00 0.000000000000000D+00 0.349567268347321D+03
 0.349567268347321D+03 0.000000000000000D+00 0.000000000000000D+00 -.349567268347321D+03
 0.213527920940578D+03 -.401885093552682D+02 0.164466742377589D+03 -.102286516385791D+03
 0.141637598247876D+03 0.560108837852652D+02 -.160765164296630D+02 0.129095064795317D+03
 0.149753111880129D+03 0.107647607240052D+03 -.726656062520265D+02 0.745499620476068D+02
 0.194215905626058D+03 -.123469981670049D+03 -.757246196958993D+02 -.101358510457133D+03
 0.000000000000000D+00 -.000000000000000D+00 -.000000000000000D+00 -.000000000000000D+00
 0.361121240279782D+03 0.000000000000000D+00 0.000000000000000D+00 0.361121240279782D+03
 0.418112459855241D+03 0.000000000000000D+00 0.000000000000000D+00 -.418112459855241D+03
 0.215356097189757D+03 -.247470125125860D+02 0.169811915305714D+03 -.102286516385791D+03
 0.145687178585947D+03 0.663556960112959D+02 -.124955934906203D+02 0.129095064795317D+03
 0.156137351650532D+03 0.118660856573534D+03 -.688532995315209D+02 0.745499620476068D+02
 0.183986596557600D+03 -.109853217005274D+03 -.710110894859513D+02 -.101358510457133D+03
 0.780664761511873D+02 -.504163230669696D+02 -.174519327976215D+02 -.569912195754588D+02
0.194703203032D-04 0.000000000000D+00 0.000000000000D+00 0.614853543562D-06 0.000000000000D+00  7 -3 3 24 -11 11 -24 21 0 0.93628035D-01 0.30890782D-01 0.73238958D+05 0.73238958D+05 0.73238958D+05 0.11329934D+01  1  2  2  2  7  2        3 0.803529386305D-04 0.100000000000D+01
-.995523989986D-06 0.000000000000D+00 -.747711566173D-07 0.614853543562D-06 0.000000000000D+00  7 -3 3 24 -11 11 -24 21 2 0.93628035D-01 0.30890782D-01 0.73238958D+05 0.73238958D+05 0.73238958D+05 0.11329934D+01  1  2  3  2  7  2        3 -.527394013823D-05 0.100000000000D+01
0.124087998434D-05 0.000000000000D+00 0.000000000000D+00 0.614853543562D-06 0.000000000000D+00  7 -3 3 24 -11 11 -24 21 2 0.93628035D-01 0.30890782D-01 0.73238958D+05 0.73238958D+05 0.73238958D+05 0.11329934D+01  1  2 15  2  7  2        3 0.657375093112D-05 0.100000000000D+01
0.488588531517D-04 0.000000000000D+00 0.000000000000D+00 0.614853543562D-06 0.000000000000D+00  7 -3 3 24 -11 11 -24 21 2 0.93628035D-01 0.37389636D-01 0.90338677D+05 0.90338677D+05 0.90338677D+05 0.11253612D+01  1  2 12  2  7  2        3 0.178078333029D-03 0.100000000000D+01
-.501060368437D-04 0.000000000000D+00 0.000000000000D+00 0.614853543562D-06 0.000000000000D+00  7 -3 3 24 -11 11 -24 21 2 0.93628035D-01 0.30890782D-01 0.73238958D+05 0.73238958D+05 0.73238958D+05 0.11329934D+01  1  2  4  2  7  2        3 -.265444370538D-03 0.100000000000D+01
-.743071872476D-04 0.000000000000D+00 -.142821472093D-04 0.614853543562D-06 0.000000000000D+00  7 -3 3 24 -11 11 -24 21 2 0.93628035D-01 0.37937870D-01 0.73238958D+05 0.73238958D+05 0.73238958D+05 0.11329934D+01  1  2  5  2  7  2        3 -.267116579992D-03 0.100000000000D+01
0.759295967607D-04 0.000000000000D+00 0.139858173183D-04 0.614853543562D-06 0.000000000000D+00  7 -3 3 24 -11 11 -24 21 2 0.93628035D-01 0.30890782D-01 0.73238958D+05 0.73238958D+05 0.73238958D+05 0.11329934D+01  1  2  6  2  7  2        3 0.402248616873D-03 0.100000000000D+01
0.134911144221D-05 0.000000000000D+00 0.000000000000D+00 0.614853543562D-06 0.000000000000D+00  7 -3 21 24 -11 11 -24 -3 2 0.93628035D-01 0.37389636D-01 0.90338677D+05 0.90338677D+05 0.90338677D+05 0.11253612D+01  1  2 12  4  7  2        3 0.780403977596D-04 0.100000000000D+01
-.199865742876D-05 0.000000000000D+00 -.417268222909D-06 0.614853543562D-06 0.000000000000D+00  7 -3 21 24 -11 11 -24 -3 2 0.93628035D-01 0.37937870D-01 0.73238958D+05 0.73238958D+05 0.73238958D+05 0.11329934D+01  1  2  5  4  7  2        3 -.114790044010D-03 0.100000000000D+01
  </mgrwgt>
  </event>
  <event>
  8     66 0.29788925E-05 0.21319955E+03 0.75467711E-02 0.86929743E-01
       -1 -1    0    0    0  501 0.00000000E+00 0.00000000E+00 0.14786606E+03 0.14786641E+03 0.32000000E+00 0.0000E+00 0.9000E+01
        1 -1    0    0  501    0 0.00000000E+00 0.00000000E+00 -.38602589E+03 0.38602602E+03 0.32000000E+00 0.0000E+00 0.9000E+01
       25  2    1    2    0    0 0.79862389E+02 0.78455261E+02 -.92196710E+02 0.32884087E+03 0.29513193E+03 0.0000E+00 0.0000E+00
       23  2    1    2    0    0 -.79862389E+02 -.78455261E+02 -.14596312E+03 0.20505156E+03 0.90596251E+02 0.0000E+00 0.0000E+00
       24  1    3    3    0    0 0.63749025E+02 -.66213550E+02 0.25936413E+02 0.12485226E+03 0.80419002E+02 0.0000E+00 0.9000E+01
      -13  1    4    4    0    0 0.14339135E+02 -.27147354E+02 -.60708957E+02 0.68030715E+02 0.10565837E+00 0.0000E+00 0.9000E+01
       13  1    4    4    0    0 -.94201523E+02 -.51307907E+02 -.85254158E+02 0.13702084E+03 0.10565837E+00 0.0000E+00 0.9000E+01
      -24  1    3    3    0    0 0.16113363E+02 0.14466881E+03 -.11813312E+03 0.20398862E+03 0.80419002E+02 0.0000E+00 0.9000E+01
#aMCatNLO 1  0  0  1  1 0.10033847D+04 0.00000000D+00  -5  7  0 0.00000000D+00 0.00000000D+00 0.00000000D+00 0.00000000D+00 0.00000000D+00
  <mgrwgt>
 0.1722075666D-02    3    2    0
 0.238914746864095D+03 0.000000000000000D+00 0.000000000000000D+00 0.238914746864095D+03
 0.238914746864095D+03 0.000000000000000D+00 0.000000000000000D+00 -.238914746864095D+03
 0.152428193948991D+03 0.637490274014247D+02 -.662135480369687D+02 0.912083653943492D+02
 0.457539895871527D+02 0.143392749093924D+02 -.271473214210305D+02 -.339239693708947D+02
 0.110604970224181D+03 -.942016677704207D+02 -.513079437331044D+02 -.269629400741808D+02
 0.169042339967866D+03 0.161133654596037D+02 0.144668813191104D+03 -.303214559492737D+02
 0.000000000000000D+00 0.000000000000000D+00 0.000000000000000D+00 -.000000000000000D+00
 0.955959548196763D+03 0.000000000000000D+00 0.000000000000000D+00 0.955959548196763D+03
 0.118446740643417D+04 0.000000000000000D+00 0.000000000000000D+00 -.118446740643417D+04
 0.451174831033297D+03 -.415252645010282D+02 -.432490692031359D+03 0.912083653943492D+02
 0.152886544807975D+03 -.203055839399905D+02 -.147685961236333D+03 -.339239693708947D+02
 0.415439441542498D+03 -.185948976292615D+03 -.370521129852843D+03 -.269629400741808D+02
 0.918505234358175D+02 -.293889105736089D+02 -.136456566524228D+02 -.303214559492737D+02
 0.102907561381135D+04 0.277168735307242D+03 0.964343439772958D+03 -.228507858237412D+03
0.143971873620D-04 0.000000000000D+00 0.000000000000D+00 0.650872573770D-08 0.000000000000D+00  7 -1 1 24 -13 13 -24 21 0 0.22748662D-01 0.59388635D-01 0.45454047D+05 0.45454047D+05 0.45454047D+05 0.11509546D+01  1  2  2  1  7  1       -1 0.169975563863D-02 0.100000000000D+01
-.787232208203D-06 0.000000000000D+00 -.552889903364D-07 0.650872573770D-08 0.000000000000D+00  7 -1 1 24 -13 13 -24 21 2 0.22748662D-01 0.59388635D-01 0.45454047D+05 0.45454047D+05 0.45454047D+05 0.11509546D+01  1  2  3  1  7  1       -1 -.123119845963D-03 0.100000000000D+01
0.929947170534D-06 0.000000000000D+00 0.000000000000D+00 0.650872573770D-08 0.000000000000D+00  7 -1 1 24 -13 13 -24 21 2 0.22748662D-01 0.59388635D-01 0.45454047D+05 0.45454047D+05 0.45454047D+05 0.11509546D+01  1  2 15  1  7  1       -1 0.145439873010D-03 0.100000000000D+01
  </mgrwgt>
  </event>
  <event>
  8     66 -.29788925E-05 0.17561773E+03 0.75467711E-02 0.10694450E+00
       -1 -1    0    0    0  502 0.00000000E+00 0.00000000E+00 0.92018161E+03 0.92018167E+03 0.32000000E+00 0.0000E+00 0.9000E+01
        1 -1    0    0  501    0 0.00000000E+00 0.00000000E+00 -.35685854E+03 0.35685868E+03 0.32000000E+00 0.0000E+00 0.9000E+01
       23  2    1    2    0    0 0.10355316E+03 0.20669567E+02 -.29913011E+03 0.33064692E+03 0.93263466E+02 0.0000E+00 0.0000E+00
       24  1    1    2    0    0 -.31091060E+02 -.71089974E+02 0.83027888E+02 0.13921668E+03 0.80419002E+02 0.0000E+00 0.9000E+01
      -13  1    3    3    0    0 0.94409988E+02 0.50497030E+02 -.25535545E+03 0.27689278E+03 0.10565837E+00 0.0000E+00 0.9000E+01
       13  1    3    3    0    0 0.91431720E+01 -.29827463E+02 -.43774659E+02 0.53754135E+02 0.10565837E+00 0.0000E+00 0.9000E+01
      -24  1    1    2    0    0 -.44072198E+02 0.50910174E+02 0.77020443E+03 0.77731350E+03 0.80419002E+02 0.0000E+00 0.9000E+01
       21  1    1    2  501  502 -.28389902E+02 -.48976708E+00 0.92208680E+01 0.29863244E+02 0.75000000E+00 0.0000E+00 0.9000E+01
#aMCatNLO 2  0  0  1  2 0.28394126D+02 0.00000000D+00  -5  7  0 0.00000000D+00 0.00000000D+00 0.00000000D+00 0.00000000D+00 0.00000000D+00
  <mgrwgt>
 -.4153414067D-03    3    2    0
 0.558483492936781D+03 0.000000000000000D+00 0.000000000000000D+00 0.558483492936781D+03
 0.558483492936781D+03 0.000000000000000D+00 0.000000000000000D+00 -.558483492936781D+03
 0.115078971283534D+03 -.340046385366525D+02 -.711402370284955D+02 0.236369395401983D+02
 0.433426276827713D+03 0.833665159548232D+02 0.503066148961595D+02 -.422347731093677D+03
 0.815163677968049D+02 0.706904801939656D+01 -.298633455527393D+02 -.755190530348543D+02
 0.486945369965510D+03 -.564309254375672D+02 0.506969676850753D+02 0.474229844588333D+03
 0.000000000000000D+00 -.000000000000000D+00 -.000000000000000D+00 -.000000000000000D+00
 0.570780914761879D+03 0.000000000000000D+00 0.000000000000000D+00 0.570780914761879D+03
 0.575298112303286D+03 0.000000000000000D+00 0.000000000000000D+00 -.575298112303286D+03
 0.114220660125400D+03 -.310910597087511D+02 -.710899735579600D+02 0.236369395401983D+02
 0.435707278848479D+03 0.944100972762456D+02 0.504971327290872D+02 -.422347731093677D+03
 0.817092812778697D+02 0.914306267171970D+01 -.298275657847890D+02 -.755190530348543D+02
 0.485690607173391D+03 -.440721982436577D+02 0.509101736962594D+02 0.474229844588333D+03
 0.287511996400252D+02 -.283899019955565D+02 -.489767082597537D+00 -.451719754140663D+01
-.187081213863D-03 0.000000000000D+00 0.000000000000D+00 0.180205865035D-08 0.000000000000D+00  7 -1 1 24 -13 13 -24 21 2 0.14359722D+00 0.53296236D-01 0.36728542D+05 0.36728542D+05 0.36728542D+05 0.11592688D+01  1  2 13  1  7  1       -1 -.100031378926D-02 0.100000000000D+01
-.123150958264D-03 0.000000000000D+00 0.000000000000D+00 0.180205865035D-08 0.000000000000D+00  7 -1 1 24 -13 13 -24 21 2 0.13851520D+00 0.53296236D-01 0.30841586D+05 0.30841586D+05 0.30841586D+05 0.11662227D+01  1  2  8  1  7  1       -1 -.739245298614D-03 0.100000000000D+01
0.247769590273D-03 0.000000000000D+00 0.000000000000D+00 0.180205865035D-08 0.160239751256D-10  7 -1 1 24 -13 13 -24 21 2 0.14156521D+00 0.54900860D-01 0.36728542D+05 0.36728542D+05 0.36728542D+05 0.11592688D+01  1  2  1  1  7  1       -1 0.132421768119D-02 0.100000000000D+01
  </mgrwgt>
  </event>
  <event>
  8     66 0.29788925E-05 0.20534076E+03 0.75467711E-02 0.96305287E-01
       -1 -1    0    0    0  501 0.00000000E+00 0.00000000E+00 0.32303444E+03 0.32303459E+03 0.32000000E+00 0.0000E+00 0.9000E+01
        1 -1    0    0  501    0 0.00000000E+00 0.00000000E+00 -.27610054E+03 0.27610073E+03 0.32000000E+00 0.0000E+00 0.9000E+01
       25  2    1    2    0    0 0.10194062E+03 0.59329485E+01 -.15810724E+03 0.35416730E+03 0.30001581E+03 0.0000E+00 0.0000E+00
       23  2    1    2    0    0 -.10194062E+03 -.59329485E+01 0.20504114E+03 0.24496803E+03 0.86835341E+02 0.0000E+00 0.0000E+00
       24  1    3    3    0    0 -.40432504E+02 -.52348562E+02 -.14710368E+03 0.18022727E+03 0.80419002E+02 0.0000E+00 0.9000E+01
      -13  1    4    4    0    0 -.11290724E+03 0.10296286E+02 0.18475945E+03 0.21677205E+03 0.10565837E+00 0.0000E+00 0.9000E+01
       13  1    4    4    0    0 0.10966621E+02 -.16229234E+02 0.20281687E+02 0.28195972E+02 0.10565837E+00 0.0000E+00 0.9000E+01
      -24  1    3    3    0    0 0.14237312E+03 0.58281510E+02 -.11003564E+02 0.17394003E+03 0.80419002E+02 0.0000E+00 0.9000E+01
#aMCatNLO 1  0  0  1  2 0.32075918D+03 0.00000000D+00  -5  7  0 0.00000000D+00 0.00000000D+00 0.00000000D+00 0.00000000D+00 0.00000000D+00
  <mgrwgt>
 0.1069368053D-02    5    2    0
 0.298647092870614D+03 0.000000000000000D+00 0.000000000000000D+00 0.298647092870614D+03
 0.298647092870614D+03 0.000000000000000D+00 0.000000000000000D+00 -.298647092870614D+03
 0.192341852555229D+03 -.404325036924115D+02 -.523485616062892D+02 -.161718932203137D+03
 0.202922568180296D+03 -.112907419772150D+03 0.102963248562527D+02 0.168295778116200D+03
 0.266889387998731D+02 0.109668039967082D+02 -.162292734220457D+02 0.181284127422574D+02
 0.175340826205830D+03 0.142373119467853D+03 0.582815101720821D+02 -.247052586553202D+02
 0.000000000000000D+00 0.000000000000000D+00 -.000000000000000D+00 0.000000000000000D+00
 0.610130012521847D+03 0.000000000000000D+00 0.000000000000000D+00 0.610130012521847D+03
 0.433849672337516D+03 0.000000000000000D+00 0.000000000000000D+00 -.433849672337516D+03
 0.227042500770788D+03 -.137190428581977D+03 -.103370437966180D+02 -.161718932203137D+03
 0.288151376008530D+03 -.226205151149621D+03 0.594892944759768D+02 0.168295778116200D+03
 0.214206333762796D+02 -.132757382184460D+00 -.114099325661818D+02 0.181284127422574D+02
 0.141358054307917D+03 0.693061911231575D+02 0.900065865930026D+02 -.247052586553202D+02
 0.366007120395848D+03 0.294222145990625D+03 -.127748904706180D+03 0.176280340184330D+03
0.201938677186D-04 0.000000000000D+00 0.000000000000D+00 0.240903989804D-06 0.000000000000D+00  7 -1 1 24 -13 13 -24 21 0 0.49697632D-01 0.42477033D-01 0.42164829D+05 0.42164829D+05 0.42164829D+05 0.11538636D+01  1  2  2  1  7  1       -1 0.994039364038D-03 0.100000000000D+01
-.930480249253D-06 0.000000000000D+00 -.775497692069D-07 0.240903989804D-06 0.000000000000D+00  7 -1 1 24 -13 13 -24 21 2 0.49697632D-01 0.42477033D-01 0.42164829D+05 0.42164829D+05 0.42164829D+05 0.11538636D+01  1  2  3  1  7  1       -1 -.609817915356D-04 0.100000000000D+01
0.126882549709D-05 0.000000000000D+00 0.000000000000D+00 0.240903989804D-06 0.000000000000D+00  7 -1 1 24 -13 13 -24 21 2 0.49697632D-01 0.42477033D-01 0.42164829D+05 0.42164829D+05 0.42164829D+05 0.11538636D+01  1  2 15  1  7  1       -1 0.831562540103D-04 0.100000000000D+01
0.229312532675D-05 0.000000000000D+00 -.621537746483D-05 0.240903989804D-06 0.000000000000D+00  7 -1 1 24 -13 13 -24 21 2 0.13551207D+00 0.42477033D-01 0.42164829D+05 0.42164829D+05 0.42164829D+05 0.11538636D+01  1  2  5  1  7  1       -1 0.188957336037D-04 0.100000000000D+01
0.615068928643D-06 0.000000000000D+00 -.696707500275D-06 0.240903989804D-06 0.000000000000D+00  7 21 1 24 -13 13 -24 1 2 0.13551207D+00 0.42477033D-01 0.42164829D+05 0.42164829D+05 0.42164829D+05 0.11538636D+01  1  2  5  3  7  1       -1 0.342584927505D-04 0.100000000000D+01
  </mgrwgt>
  </event>
  <event>
  8     66 0.29788925E-05 0.43070684E+03 0.75467711E-02 0.95493235E-01
       -1 -1    0    0    0  501 0.00000000E+00 0.00000000E+00 0.29804143E+03 0.29804160E+03 0.32000000E+00 0.0000E+00 0.9000E+01
        1 -1    0    0  501    0 0.00000000E+00 0.00000000E+00 -.75831096E+03 0.75831103E+03 0.32000000E+00 0.0000E+00 0.9000E+01
       25  2    1    2    0    0 0.39280853E+03 0.52367638E+02 -.80862619E+02 0.50037056E+03 0.29460316E+03 0.0000E+00 0.0000E+00
       23  2    1    2    0    0 -.39280853E+03 -.52367638E+02 -.37940692E+03 0.55598207E+03 0.90141790E+02 0.0000E+00 0.0000E+00
       24  1    3    3    0    0 0.36735608E+03 0.52088397E+02 0.54502527E+01 0.37968488E+03 0.80419002E+02 0.0000E+00 0.9000E+01
      -11  1    4    4    0    0 -.16051911E+03 -.65557555E+01 -.21208076E+03 0.26605941E+03 0.51099893E-03 0.0000E+00 0.9000E+01
       11  1    4    4    0    0 -.23228943E+03 -.45811882E+02 -.16732616E+03 0.28992266E+03 0.51099893E-03 0.0000E+00 0.9000E+01
      -24  1    3    3    0    0 0.25452455E+02 0.27924046E+00 -.86312872E+02 0.12068568E+03 0.80419002E+02 0.0000E+00 0.9000E+01
#aMCatNLO 1  0  0  2  2 0.62958816D+02 0.00000000D+00  -5  7  0 0.00000000D+00 0.00000000D+00 0.00000000D+00 0.00000000D+00 0.00000000D+00
  <mgrwgt>
 0.1847449568D-02    4    2    0
 0.475403206276637D+03 0.000000000000000D+00 0.000000000000000D+00 0.475403206276637D+03
 0.475403206276637D+03 0.000000000000000D+00 0.000000000000000D+00 -.475403206276637D+03
 0.424470957118564D+03 0.367356076128878D+03 0.520883970528014D+02 0.189854390801063D+03
 0.192929120403238D+03 -.160519105115451D+03 -.655575553349539D+01 -.106828294294570D+03
 0.241106316446541D+03 -.232289425992939D+03 -.458118819755177D+02 -.455538129266018D+02
 0.923000185849319D+02 0.254524549795114D+02 0.279240456211676D+00 -.374722835798915D+02
 0.000000000000000D+00 -.000000000000000D+00 -.000000000000000D+00 0.000000000000000D+00
 0.653388548975777D+03 0.000000000000000D+00 0.000000000000000D+00 0.653388548975777D+03
 0.482044659223197D+03 0.000000000000000D+00 0.000000000000000D+00 -.482044659223197D+03
 0.449047187204077D+03 0.393785603768464D+03 0.637524034040030D+02 0.189854390801063D+03
 0.183452245653948D+03 -.149131154239001D+03 -.152997023905344D+01 -.106828294294570D+03
 0.226337649441178D+03 -.218146247288887D+03 -.395701462744543D+02 -.455538129266018D+02
 0.940514981353313D+02 0.310907838383310D+02 0.276757488716582D+01 -.374722835798915D+02
 0.182544627764440D+03 -.575989860789066D+02 -.254198617776610D+02 0.171343889752580D+03
0.142080659739D-03 0.000000000000D+00 0.000000000000D+00 0.327492741129D-07 0.000000000000D+00  7 -1 1 24 -11 11 -24 21 0 0.45852546D-01 0.11666324D+00 0.18550838D+06 0.18550838D+06 0.18550838D+06 0.11003431D+01  1  2  2  2  7  2        1 0.194989772803D-02 0.100000000000D+01
-.779980965815D-05 0.000000000000D+00 -.545627144095D-06 0.327492741129D-07 0.000000000000D+00  7 -1 1 24 -11 11 -24 21 2 0.45852546D-01 0.11666324D+00 0.18550838D+06 0.18550838D+06 0.18550838D+06 0.11003431D+01  1  2  3  2  7  2        1 -.129603616613D-03 0.100000000000D+01
0.914155485265D-05 0.000000000000D+00 0.000000000000D+00 0.327492741129D-07 0.000000000000D+00  7 -1 1 24 -11 11 -24 21 2 0.45852546D-01 0.11666324D+00 0.18550838D+06 0.18550838D+06 0.18550838D+06 0.11003431D+01  1  2 15  2  7  2        1 0.151898395255D-03 0.100000000000D+01
-.750728414570D-05 0.000000000000D+00 0.000000000000D+00 0.327492741129D-07 0.000000000000D+00  7 -1 1 24 -11 11 -24 21 2 0.45852546D-01 0.11666324D+00 0.18550838D+06 0.18550838D+06 0.18550838D+06 0.11003431D+01  1  2  4  2  7  2        1 -.124742938465D-03 0.100000000000D+01
  </mgrwgt>
  </event>
  <event>
  8     66 0.29788925E-05 0.25811358E+03 0.75467711E-02 0.95596102E-01
       -1 -1    0    0    0  501 0.00000000E+00 0.00000000E+00 0.10846855E+03 0.10846902E+03 0.32000000E+00 0.0000E+00 0.9000E+01
        1 -1    0    0  501    0 0.00000000E+00 0.00000000E+00 -.13094595E+04 0.13094596E+04 0.32000000E+00 0.0000E+00 0.9000E+01
       25  2    1    2    0    0 -.40570967E+02 -.17010663E+03 -.20517055E+03 0.40274343E+03 0.29920737E+03 0.0000E+00 0.0000E+00
       23  2    1    2    0    0 0.40570967E+02 0.17010663E+03 -.99582043E+03 0.10151852E+04 0.91434660E+02 0.0000E+00 0.0000E+00
       24  1    3    3    0    0 -.13359535E+03 -.15069305E+03 -.16309339E+03 0.27133518E+03 0.80419002E+02 0.0000E+00 0.9000E+01
      -11  1    4    4    0    0 0.26858759E+02 0.10852921E+03 -.37899255E+03 0.39513964E+03 0.51099893E-03 0.0000E+00 0.9000E+01
       11  1    4    4    0    0 0.13712208E+02 0.61577416E+02 -.61682788E+03 0.62004551E+03 0.51099893E-03 0.0000E+00 0.9000E+01
      -24  1    3    3    0    0 0.93024388E+02 -.19413581E+02 -.42077159E+02 0.13140825E+03 0.80419002E+02 0.0000E+00 0.9000E+01
#aMCatNLO 1  0  0  2  2 0.30315012D+03 0.00000000D+00  -5  7  0 0.00000000D+00 0.00000000D+00 0.00000000D+00 0.00000000D+00 0.00000000D+00
  <mgrwgt>
 0.7787618491D-03    6    2    0
 0.376876022267983D+03 0.000000000000000D+00 0.000000000000000D+00 0.376876022267983D+03
 0.376876022267983D+03 0.000000000000000D+00 0.000000000000000D+00 -.376876022267983D+03
 0.250560154216849D+03 -.133595354887244D+03 -.150693048585276D+03 0.125527133271765D+03
 0.139453232268375D+03 0.268587587022816D+02 0.108529213785080D+03 -.833499899595807D+02
 0.183582304399243D+03 0.137122084389262D+02 0.615774162892773D+02 -.172402609120050D+03
 0.180156353651500D+03 0.930243877460365D+02 -.194135814890816D+02 0.130225465807866D+03
 0.000000000000000D+00 -.000000000000000D+00 -.000000000000000D+00 -.000000000000000D+00
 0.545579463175327D+03 0.000000000000000D+00 0.000000000000000D+00 0.545579463175327D+03
 0.571070261812097D+03 0.000000000000000D+00 0.000000000000000D+00 -.571070261812097D+03
 0.205414248362674D+03 -.470787501931710D+02 -.133245366031443D+03 0.125527133271765D+03
 0.169527354198188D+03 0.854847497803849D+02 0.120352235335123D+03 -.833499899595807D+02
 0.208175681618918D+03 0.880443872198797D+02 0.765678827262206D+02 -.172402609120050D+03
 0.229312491935524D+03 0.170717025858573D+03 -.374541592305367D+01 0.130225465807866D+03
 0.304219948872119D+03 -.297167412665667D+03 -.599293361068465D+02 -.254907986367700D+02
0.197550823450D-04 0.000000000000D+00 0.000000000000D+00 0.142181916332D-05 0.000000000000D+00  7 -1 1 24 -11 11 -24 21 0 0.16687508D-01 0.20145535D+00 0.66622618D+05 0.66622618D+05 0.66622618D+05 0.11364899D+01  1  2  2  2  7  2        1 0.571549108962D-03 0.100000000000D+01
-.906317890345D-06 0.000000000000D+00 -.758647178374D-07 0.142181916332D-05 0.000000000000D+00  7 -1 1 24 -11 11 -24 21 2 0.16687508D-01 0.20145535D+00 0.66622618D+05 0.66622618D+05 0.66622618D+05 0.11364899D+01  1  2  3  2  7  2        1 -.338677534552D-04 0.100000000000D+01
0.122333305780D-05 0.000000000000D+00 0.000000000000D+00 0.142181916332D-05 0.000000000000D+00  7 -1 1 24 -11 11 -24 21 2 0.16687508D-01 0.20145535D+00 0.66622618D+05 0.66622618D+05 0.66622618D+05 0.11364899D+01  1  2 15  2  7  2        1 0.457141394168D-04 0.100000000000D+01
-.239703059466D-05 0.000000000000D+00 -.567915720358D-05 0.142181916332D-05 0.000000000000D+00  7 -1 1 24 -11 11 -24 21 2 0.16687508D-01 0.36975121D+00 0.66622618D+05 0.66622618D+05 0.66622618D+05 0.11364899D+01  1  2  5  2  7  2        1 -.171006538543D-04 0.100000000000D+01
0.567422382562D-05 0.000000000000D+00 0.477191868911D-05 0.142181916332D-05 0.000000000000D+00  7 -1 1 24 -11 11 -24 21 2 0.16687508D-01 0.20145535D+00 0.66622618D+05 0.66622618D+05 0.66622618D+05 0.11364899D+01  1  2  6  2  7  2        1 0.212037316733D-03 0.100000000000D+01
0.151530724286D-06 0.000000000000D+00 -.376736600658D-06 0.142181916332D-05 0.000000000000D+00  7 -1 21 24 -11 11 -24 -1 2 0.16687508D-01 0.36975121D+00 0.66622618D+05 0.66622618D+05 0.66622618D+05 0.11364899D+01  1  2  5  4  7  2        1 0.429691276734D-06 0.100000000000D+01
  </mgrwgt>
  </event>
  <event>
  8     66 0.29788925E-05 0.43524118E+03 0.75467711E-02 0.91173043E-01
       -1 -1    0    0    0  501 0.00000000E+00 0.00000000E+00 0.42210300E+03 0.42210312E+03 0.32000000E+00 0.0000E+00 0.9000E+01
        1 -1    0    0  501    0 0.00000000E+00 0.00000000E+00 -.13562982E+04 0.13562983E+04 0.32000000E+00 0.0000E+00 0.9000E+01
       25  2    1    2    0    0 -.48301983E+03 -.37183635E+03 -.94310295E+03 0.11624352E+04 0.30040290E+03 0.0000E+00 0.0000E+00
       23  2    1    2    0    0 0.48301983E+03 0.37183635E+03 0.89077194E+01 0.61596623E+03 0.88117108E+02 0.0000E+00 0.0000E+00
       24  1    3    3    0    0 -.61081592E+02 0.89652124E+01 -.99473970E+02 0.14203388E+03 0.80419002E+02 0.0000E+00 0.9000E+01
      -11  1    4    4    0    0 0.95259119E+02 0.10942141E+03 -.22010379E+02 0.14673719E+03 0.51099893E-03 0.0000E+00 0.9000E+01
       11  1    4    4    0    0 0.38776071E+03 0.26241494E+03 0.30918098E+02 0.46922905E+03 0.51099893E-03 0.0000E+00 0.9000E+01
      -24  1    3    3    0    0 -.42193823E+03 -.38080157E+03 -.84362898E+03 0.10204013E+04 0.80419002E+02 0.0000E+00 0.9000E+01
#aMCatNLO 1  0  0  2  1 0.81940297D+02 0.00000000D+00  -5  7  0 0.00000000D+00 0.00000000D+00 0.00000000D+00 0.00000000D+00 0.00000000D+00
  <mgrwgt>
 0.1048034090D-02    9    2    0
 0.756635774824636D+03 0.000000000000000D+00 0.000000000000000D+00 0.756635774824636D+03
 0.756635774824636D+03 0.000000000000000D+00 0.000000000000000D+00 -.756635774824636D+03
 0.105509905947275D+03 -.610815922155405D+02 0.896521235150874D+01 -.292196570571767D+02
 0.158858221206549D+03 0.952591185382080D+02 0.109421413015585D+03 0.647193105178456D+02
 0.570526239041846D+03 0.387760708429738D+03 0.262414940434496D+03 0.326006474583039D+03
 0.678377183453602D+03 -.421938234752406D+03 -.380801565801589D+03 -.361506128043708D+03
 0.000000000000000D+00 0.000000000000000D+00 0.000000000000000D+00 -.000000000000000D+00
 0.796196376108538D+03 0.000000000000000D+00 0.000000000000000D+00 0.796196376108538D+03
 0.801397172040030D+03 0.000000000000000D+00 0.000000000000000D+00 -.801397172040030D+03
 0.108608555615819D+03 -.665277019964762D+02 0.699134515761675D+01 -.292196570571767D+02
 0.152222652002198D+03 0.873467667779888D+02 0.106553690513791D+03 0.647193105178456D+02
 0.546780426033471D+03 0.359341978383996D+03 0.252114964637877D+03 0.326006474583039D+03
 0.707876734900441D+03 -.457197646614861D+03 -.393580852145551D+03 -.361506128043708D+03
 0.821051795966399D+02 0.770366034493523D+02 0.279208518362659D+02 -.520079593149204D+01
0.178157865067D-03 0.000000000000D+00 0.000000000000D+00 0.118156982267D-05 0.000000000000D+00  7 -1 1 24 -11 11 -24 21 0 0.64938936D-01 0.20866128D+00 0.41518578D+06 0.41518578D+06 0.41518578D+06 0.10742630D+01  1  2  2  2  7  2        1 0.436218389713D-03 0.100000000000D+01
-.958711133660D-05 0.000000000000D+00 -.684173111901D-06 0.118156982267D-05 0.000000000000D+00  7 -1 1 24 -11 11 -24 21 2 0.64938936D-01 0.20866128D+00 0.41518578D+06 0.41518578D+06 0.41518578D+06 0.10742630D+01  1  2  3  2  7  2        1 -.270899350744D-04 0.100000000000D+01
0.114480631430D-04 0.000000000000D+00 0.000000000000D+00 0.118156982267D-05 0.000000000000D+00  7 -1 1 24 -11 11 -24 21 2 0.64938936D-01 0.20866128D+00 0.41518578D+06 0.41518578D+06 0.41518578D+06 0.10742630D+01  1  2 15  2  7  2        1 0.323483556604D-04 0.100000000000D+01
0.306400365046D-03 0.000000000000D+00 0.000000000000D+00 0.118156982267D-05 0.000000000000D+00  7 -1 1 24 -11 11 -24 21 2 0.64938936D-01 0.22616175D+00 0.47052340D+06 0.47052340D+06 0.47052340D+06 0.10703804D+01  1  2 12  2  7  2        1 0.713809693842D-03 0.100000000000D+01
-.248438437010D-03 0.000000000000D+00 0.000000000000D+00 0.118156982267D-05 0.000000000000D+00  7 -1 1 24 -11 11 -24 21 2 0.64938936D-01 0.20866128D+00 0.41518578D+06 0.41518578D+06 0.41518578D+06 0.10742630D+01  1  2  4  2  7  2        1 -.702003021796D-03 0.100000000000D+01
-.111159395452D-02 0.000000000000D+00 -.228005949462D-03 0.118156982267D-05 0.000000000000D+00  7 -1 1 24 -11 11 -24 21 2 0.64938936D-01 0.22816317D+00 0.41518578D+06 0.41518578D+06 0.41518578D+06 0.10742630D+01  1  2  5  2  7  2        1 -.257280282010D-02 0.100000000000D+01
0.112836611485D-02 0.000000000000D+00 0.227098857762D-03 0.118156982267D-05 0.000000000000D+00  7 -1 1 24 -11 11 -24 21 2 0.64938936D-01 0.20866128D+00 0.41518578D+06 0.41518578D+06 0.41518578D+06 0.10742630D+01  1  2  6  2  7  2        1 0.318838112108D-02 0.100000000000D+01
0.411700238965D-05 0.000000000000D+00 0.000000000000D+00 0.118156982267D-05 0.000000000000D+00  7 -1 21 24 -11 11 -24 -1 2 0.64938936D-01 0.22616175D+00 0.47052340D+06 0.47052340D+06 0.47052340D+06 0.10703804D+01  1  2 12  4  7  2        1 0.750230630508D-05 0.100000000000D+01
-.157601431392D-04 0.000000000000D+00 -.335753820430D-05 0.118156982267D-05 0.000000000000D+00  7 -1 21 24 -11 11 -24 -1 2 0.64938936D-01 0.22816317D+00 0.41518578D+06 0.41518578D+06 0.41518578D+06 0.10742630D+01  1  2  5  4  7  2        1 -.283299993367D-04 0.100000000000D+01
  </mgrwgt>
  </event>
  <event>
  8     66 0.29788925E-05 0.18682464E+03 0.75467711E-02 0.94911767E-01
       -1 -1    0    0    0  501 0.00000000E+00 0.00000000E+00 0.78106332E+03 0.78106338E+03 0.32000000E+00 0.0000E+00 0.9000E+01
        1 -1    0    0  501    0 0.00000000E+00 0.00000000E+00 -.13644600E+03 0.13644638E+03 0.32000000E+00 0.0000E+00 0.9000E+01
       25  2    1    2    0    0 -.99994557E+01 -.12187061E+03 0.82290863E+02 0.33488899E+03 0.30070985E+03 0.0000E+00 0.0000E+00
       23  2    1    2    0    0 0.99994557E+01 0.12187061E+03 0.56232645E+03 0.58262076E+03 0.91013639E+02 0.0000E+00 0.0000E+00
       24  1    3    3    0    0 -.46385110E+02 -.12994750E+03 0.15325722E+03 0.22134345E+03 0.80419002E+02 0.0000E+00 0.9000E+01
      -11  1    4    4    0    0 -.78334308E+01 0.14616293E+02 0.93106064E+01 0.19018045E+02 0.51099893E-03 0.0000E+00 0.9000E+01
       11  1    4    4    0    0 0.17832886E+02 0.10725432E+03 0.55301584E+03 0.56360272E+03 0.51099893E-03 0.0000E+00 0.9000E+01
      -24  1    3    3    0    0 0.36385654E+02 0.80768864E+01 -.70966353E+02 0.11354555E+03 0.80419002E+02 0.0000E+00 0.9000E+01
#aMCatNLO 1  0  0  1  1 0.39471832D+03 0.00000000D+00  -5  7  0 0.00000000D+00 0.00000000D+00 0.00000000D+00 0.00000000D+00 0.00000000D+00
  <mgrwgt>
 0.6776359896D-03    5    2    0
 0.326455462284701D+03 0.000000000000000D+00 0.000000000000000D+00 0.326455462284701D+03
 0.326455462284701D+03 0.000000000000000D+00 0.000000000000000D+00 -.326455462284701D+03
 0.159734680131111D+03 -.463851100715617D+02 -.129947500529040D+03 -.316555715823587D+01
 0.175329642657122D+02 -.783343075535874D+01 0.146162926813910D+02 -.569264321696492D+01
 0.246017336814642D+03 0.178328864753244D+02 0.107254321472705D+03 0.220687626972508D+03
 0.229625943357936D+03 0.363856543515961D+02 0.807688637494402D+01 -.211829426597308D+03
 0.000000000000000D+00 0.000000000000000D+00 -.000000000000000D+00 0.000000000000000D+00
 0.927661361111708D+03 0.000000000000000D+00 0.000000000000000D+00 0.927661361111708D+03
 0.452789758315476D+03 0.000000000000000D+00 0.000000000000000D+00 -.452789758315476D+03
 0.115011877465981D+03 -.612145620457476D+02 -.548021226350265D+02 -.316555715823587D+01
 0.300739334471483D+02 -.104030141905338D+02 0.276371594404961D+02 -.569264321696492D+01
 0.349007377444753D+03 -.142835866144072D+02 0.269998333264367D+03 0.220687626972508D+03
 0.268858465548428D+03 0.947994653705852D+01 0.144416353588487D+03 -.211829426597308D+03
 0.617499465520874D+03 0.764212163136301D+02 -.387249723658324D+03 0.474871602796232D+03
0.314198873245D-04 0.000000000000D+00 0.000000000000D+00 0.131832005680D-05 0.000000000000D+00  7 -1 1 24 -11 11 -24 21 0 0.12016362D+00 0.20991727D-01 0.34903445D+05 0.34903445D+05 0.34903445D+05 0.11612845D+01  1  2  2  1  7  1       -1 0.651397267169D-03 0.100000000000D+01
-.108443942203D-05 0.000000000000D+00 -.120660640373D-06 0.131832005680D-05 0.000000000000D+00  7 -1 1 24 -11 11 -24 21 2 0.12016362D+00 0.20991727D-01 0.34903445D+05 0.34903445D+05 0.34903445D+05 0.11612845D+01  1  2  3  1  7  1       -1 -.303196282956D-04 0.100000000000D+01
0.193616900137D-05 0.000000000000D+00 0.000000000000D+00 0.131832005680D-05 0.000000000000D+00  7 -1 1 24 -11 11 -24 21 2 0.12016362D+00 0.20991727D-01 0.34903445D+05 0.34903445D+05 0.34903445D+05 0.11612845D+01  1  2 15  1  7  1       -1 0.541329679151D-04 0.100000000000D+01
0.275151189497D-05 0.000000000000D+00 -.937708953434D-05 0.131832005680D-05 0.000000000000D+00  7 -1 1 24 -11 11 -24 21 2 0.38595328D+00 0.20991727D-01 0.34903445D+05 0.34903445D+05 0.34903445D+05 0.11612845D+01  1  2  5  1  7  1       -1 0.435437120604D-06 0.100000000000D+01
0.771498964599D-06 0.000000000000D+00 -.126094953283D-05 0.131832005680D-05 0.000000000000D+00  7 21 1 24 -11 11 -24 1 2 0.38595328D+00 0.20991727D-01 0.34903445D+05 0.34903445D+05 0.34903445D+05 0.11612845D+01  1  2  5  3  7  1       -1 0.198994566455D-05 0.100000000000D+01
  </mgrwgt>
  </event>
  <event>
  8     66 0.29788925E-05 0.41224941E+03 0.75467711E-02 0.95346512E-01
       -1 -1    0    0    0  501 0.00000000E+00 0.00000000E+00 0.26465010E+03 0.26465029E+03 0.32000000E+00 0.0000E+00 0.9000E+01
        1 -1    0    0  501    0 0.00000000E+00 0.00000000E+00 -.73110179E+03 0.73110186E+03 0.32000000E+00 0.0000E+00 0.9000E+01
       25  2    1    2    0    0 -.22147087E+02 0.35630328E+03 -.41405118E+03 0.62210405E+03 0.29687127E+03 0.0000E+00 0.0000E+00
       23  2    1    2    0    0 0.22147087E+02 -.35630328E+03 -.52400516E+02 0.37364810E+03 0.97080213E+02 0.0000E+00 0.0000E+00
       24  1    3    3    0    0 -.11968264E+03 0.25345191E+03 -.32405736E+03 0.43593829E+03 0.80419002E+02 0.0000E+00 0.9000E+01
      -11  1    4    4    0    0 0.53126315E+02 -.30800361E+03 -.45771990E+02 0.31588558E+03 0.51099893E-03 0.0000E+00 0.9000E+01
       11  1    4    4    0    0 -.30979227E+02 -.48299678E+02 -.66285258E+01 0.57762520E+02 0.51099893E-03 0.0000E+00 0.9000E+01
      -24  1    3    3    0    0 0.97535548E+02 0.10285138E+03 -.89993814E+02 0.18616576E+03 0.80419002E+02 0.0000E+00 0.9000E+01
#aMCatNLO 1  0  0  2  2 0.10829190D+03 0.00000000D+00  -5  7  0 0.00000000D+00 0.00000000D+00 0.00000000D+00 0.00000000D+00 0.00000000D+00
  <mgrwgt>
 0.1129751449D-02    4    2    0
 0.439870770412221D+03 0.000000000000000D+00 0.000000000000000D+00 0.439870770412221D+03
 0.439870770412221D+03 0.000000000000000D+00 0.000000000000000D+00 -.439870770412221D+03
 0.321605124606727D+03 -.119682635928234D+03 0.253451906880964D+03 -.135649687705540D+03
 0.333272121611085D+03 0.531263145951134D+02 -.308003606813375D+03 0.115679211315805D+03
 0.618650642052364D+02 -.309792271516930D+02 -.482996775568374D+02 0.231239011005359D+02
 0.162999230401393D+03 0.975355484848141D+02 0.102851377489248D+03 -.315342471080089D+01
 0.000000000000000D+00 -.000000000000000D+00 -.000000000000000D+00 0.000000000000000D+00
 0.525890723819105D+03 0.000000000000000D+00 0.000000000000000D+00 0.525890723819105D+03
 0.478641653291095D+03 0.000000000000000D+00 0.000000000000000D+00 -.478641653291095D+03
 0.337294440348611D+03 -.925873876794052D+02 0.283420291093996D+03 -.135649687705540D+03
 0.312050105213210D+03 0.796632359504595D+02 -.278652753567645D+03 0.115679211315805D+03
 0.553643768253408D+02 -.261585215757070D+02 -.429677922184074D+02 0.231239011005359D+02
 0.181672662331889D+03 0.111709135772939D+03 0.118527908873153D+03 -.315342471080089D+01
 0.118150792391148D+03 -.726264624682866D+02 -.803276541810969D+02 0.472490705280104D+02
0.103830252048D-03 0.000000000000D+00 0.000000000000D+00 0.541512886345D-08 0.000000000000D+00  7 -1 1 24 -11 11 -24 21 0 0.40715420D-01 0.11247722D+00 0.16994957D+06 0.16994957D+06 0.16994957D+06 0.11032977D+01  1  2  2  2  7  2        1 0.186383935472D-02 0.100000000000D+01
-.573884979530D-05 0.000000000000D+00 -.398735506999D-06 0.541512886345D-08 0.000000000000D+00  7 -1 1 24 -11 11 -24 21 2 0.40715420D-01 0.11247722D+00 0.16994957D+06 0.16994957D+06 0.16994957D+06 0.11032977D+01  1  2  3  2  7  2        1 -.125399233333D-03 0.100000000000D+01
0.661176301893D-05 0.000000000000D+00 0.000000000000D+00 0.541512886345D-08 0.000000000000D+00  7 -1 1 24 -11 11 -24 21 2 0.40715420D-01 0.11247722D+00 0.16994957D+06 0.16994957D+06 0.16994957D+06 0.11032977D+01  1  2 15  2  7  2        1 0.144473203365D-03 0.100000000000D+01
-.344681762696D-04 0.000000000000D+00 0.000000000000D+00 0.541512886345D-08 0.000000000000D+00  7 -1 1 24 -11 11 -24 21 2 0.40715420D-01 0.11247722D+00 0.16994957D+06 0.16994957D+06 0.16994957D+06 0.11032977D+01  1  2  4  2  7  2        1 -.753161876122D-03 0.100000000000D+01
  </mgrwgt>
  </event>
  <event>
  9     66 -.29788925E-05 0.26337030E+03 0.75467711E-02 0.10212857E+00
       -1 -1    0    0    0  502 0.00000000E+00 0.00000000E+00 0.47439373E+03 0.47439383E+03 0.32000000E+00 0.0000E+00 0.9000E+01
        1 -1    0    0  501    0 0.00000000E+00 0.00000000E+00 -.37926426E+03 0.37926439E+03 0.32000000E+00 0.0000E+00 0.9000E+01
       25  2    1    2    0    0 -.86291360E+02 0.21104839E+03 -.22952790E+03 0.44076223E+03 0.29933370E+03 0.0000E+00 0.0000E+00
       23  2    1    2    0    0 0.95874363E+02 -.20000837E+03 0.29694380E+03 0.38155399E+03 0.90623334E+02 0.0000E+00 0.0000E+00
       24  1    3    3    0    0 -.82300170E+02 0.14252370E+03 0.52755004E+01 0.18325220E+03 0.80419002E+02 0.0000E+00 0.9000E+01
      -11  1    4    4    0    0 0.93401352E+02 -.93597302E+02 0.18109771E+03 0.22423347E+03 0.51099893E-03 0.0000E+00 0.9000E+01
       11  1    4    4    0    0 0.24730111E+01 -.10641107E+03 0.11584608E+03 0.15732053E+03 0.51099893E-03 0.0000E+00 0.9000E+01
      -24  1    3    3    0    0 -.39911904E+01 0.68524695E+02 -.23480340E+03 0.25751003E+03 0.80419002E+02 0.0000E+00 0.9000E+01
       21  1    1    2  501  502 -.95830028E+01 -.11040017E+02 0.27713577E+02 0.31341997E+02 0.75000000E+00 0.0000E+00 0.9000E+01
#aMCatNLO 2  0  0  1  2 0.14619026D+02 0.00000000D+00  -5  7  0 0.00000000D+00 0.00000000D+00 0.00000000D+00 0.00000000D+00 0.00000000D+00
  <mgrwgt>
 -.4361560778D-04    3    2    0
 0.409708847807565D+03 0.000000000000000D+00 0.000000000000000D+00 0.409708847807565D+03
 0.409708847807565D+03 0.000000000000000D+00 0.000000000000000D+00 -.409708847807565D+03
 0.182508657971703D+03 -.844398483859105D+02 0.140058697587347D+03 -.978097719873372D+01
 0.210295930157718D+03 0.909433408855806D+02 -.964290321112495D+02 0.163263984869770D+03
 0.149750774550884D+03 0.730182684657507D+00 -.108418883604705D+03 0.103296209948604D+03
 0.276862332934825D+03 -.723367518432758D+01 0.647892181286076D+02 -.256779217619640D+03
 0.000000000000000D+00 -.000000000000000D+00 -.000000000000000D+00 0.000000000000000D+00
 0.436967519929149D+03 0.000000000000000D+00 0.000000000000000D+00 0.436967519929149D+03
 0.411738818316780D+03 0.000000000000000D+00 0.000000000000000D+00 -.411738818316780D+03
 0.183437197380562D+03 -.823001697055396D+02 0.142523696205024D+03 -.978097719873372D+01
 0.210093779374904D+03 0.934013517792095D+02 -.935973015759050D+02 0.163263984869770D+03
 0.148322416413633D+03 0.247301114566834D+01 -.106411072905532D+03 0.103296209948604D+03
 0.277694699258292D+03 -.399119042468707D+01 0.685246951063793D+02 -.256779217619640D+03
 0.291582458185370D+02 -.958300279465114D+01 -.110400168299667D+02 0.252287016123698D+02
-.117565274529D-03 0.000000000000D+00 0.000000000000D+00 0.115882601096D-05 0.000000000000D+00  7 -1 1 24 -11 11 -24 21 2 0.73145784D-01 0.58060017D-01 0.73493289D+05 0.73493289D+05 0.73493289D+05 0.11328661D+01  1  2 13  1  7  1       -1 -.238904818845D-02 0.100000000000D+01
-.289950708263D-04 0.000000000000D+00 0.000000000000D+00 0.115882601096D-05 0.000000000000D+00  7 -1 1 24 -11 11 -24 21 2 0.68430043D-01 0.58060017D-01 0.69363916D+05 0.69363916D+05 0.69363916D+05 0.11349968D+01  1  2  8  1  7  1       -1 -.673673761399D-03 0.100000000000D+01
0.148896931910D-03 0.000000000000D+00 0.000000000000D+00 0.115882601096D-05 0.371977930856D-07  7 -1 1 24 -11 11 -24 21 2 0.72982818D-01 0.58347685D-01 0.73493289D+05 0.73493289D+05 0.73493289D+05 0.11328661D+01  1  2  1  1  7  1       -1 0.301910634207D-02 0.100000000000D+01
  </mgrwgt>
  </event>
  <event>
  8     66 0.29788925E-05 0.25561853E+03 0.75467711E-02 0.97108933E-01
       -1 -1    0    0    0  501 0.00000000E+00 0.00000000E+00 0.65719530E+02 0.65720309E+02 0.32000000E+00 0.0000E+00 0.9000E+01
        1 -1    0    0  501    0 0.00000000E+00 0.00000000E+00 -.21626400E+04 0.21626400E+04 0.32000000E+00 0.0000E+00 0.9000E+01
       25  2    1    2    0    0 0.31209806E+03 -.14176322E+02 -.12387839E+04 0.13106739E+04 0.29270192E+03 0.0000E+00 0.0000E+00
       23  2    1    2    0    0 -.31209806E+03 0.14176322E+02 -.85813653E+03 0.91768637E+03 0.90243027E+02 0.0000E+00 0.0000E+00
       24  1    3    3    0    0 0.90181329E+02 0.10823664E+03 -.46845471E+03 0.49574679E+03 0.80419002E+02 0.0000E+00 0.9000E+01
      -11  1    4    4    0    0 -.13282208E+03 0.40657090E+02 -.29411794E+03 0.32526922E+03 0.51099893E-03 0.0000E+00 0.9000E+01
       11  1    4    4    0    0 -.17927597E+03 -.26480768E+02 -.56401859E+03 0.59241714E+03 0.51099893E-03 0.0000E+00 0.9000E+01
      -24  1    3    3    0    0 0.22191673E+03 -.12241296E+03 -.77032920E+03 0.81492715E+03 0.80419002E+02 0.0000E+00 0.9000E+01
#aMCatNLO 1  0  0  2  1 0.57170977D+02 0.00000000D+00  -5  7  0 0.00000000D+00 0.00000000D+00 0.00000000D+00 0.00000000D+00 0.00000000D+00
  <mgrwgt>
 0.1704718328D-02    9    2    0
 0.376999438238560D+03 0.000000000000000D+00 0.000000000000000D+00 0.376999438238560D+03
 0.376999438238560D+03 0.000000000000000D+00 0.000000000000000D+00 -.376999438238560D+03
 0.162321455450143D+03 0.901813289929342D+02 0.108236637188895D+03 -.576170254265617D+01
 0.143335897021166D+03 -.132822084945496D+03 0.406570900758346D+02 0.353620439477026D+02
 0.182250591352347D+03 -.179275972035738D+03 -.264807684370843D+02 -.193435467767115D+02
 0.266090932653464D+03 0.221916727988300D+03 -.122412958827645D+03 -.102567946283350D+02
 0.000000000000000D+00 0.000000000000000D+00 -.000000000000000D+00 -.000000000000000D+00
 0.393944373941285D+03 0.000000000000000D+00 0.000000000000000D+00 0.393944373941285D+03
 0.429594096226264D+03 0.000000000000000D+00 0.000000000000000D+00 -.429594096226264D+03
 0.160885754799296D+03 0.795366739288779D+02 0.114270426738986D+03 -.576170254265617D+01
 0.154028937743646D+03 -.142615635317743D+03 0.462084415793600D+02 0.353620439477026D+02
 0.193609273404766D+03 -.191654713864160D+03 -.194640334993957D+02 -.193435467767115D+02
 0.247639261389007D+03 0.204997301260930D+03 -.112822393462512D+03 -.102567946283350D+02
 0.673752428308346D+02 0.497363739920952D+02 -.281924413564387D+02 -.356497222849791D+02
0.485481945376D-04 0.000000000000D+00 0.000000000000D+00 0.659717268364D-08 0.000000000000D+00  7 -1 1 24 -11 11 -24 21 0 0.10110759D-01 0.33271390D+00 0.13996535D+06 0.13996535D+06 0.13996535D+06 0.11099327D+01  1  2  2  2  7  2        1 0.822491357354D-03 0.100000000000D+01
-.269692907131D-05 0.000000000000D+00 -.186437850057D-06 0.659717268364D-08 0.000000000000D+00  7 -1 1 24 -11 11 -24 21 2 0.10110759D-01 0.33271390D+00 0.13996535D+06 0.13996535D+06 0.13996535D+06 0.11099327D+01  1  2  3  2  7  2        1 -.562886865426D-04 0.100000000000D+01
0.312165724354D-05 0.000000000000D+00 0.000000000000D+00 0.659717268364D-08 0.000000000000D+00  7 -1 1 24 -11 11 -24 21 2 0.10110759D-01 0.33271390D+00 0.13996535D+06 0.13996535D+06 0.13996535D+06 0.11099327D+01  1  2 15  2  7  2        1 0.651533582934D-04 0.100000000000D+01
0.732445452989D-04 0.000000000000D+00 0.000000000000D+00 0.659717268364D-08 0.000000000000D+00  7 -1 1 24 -11 11 -24 21 2 0.10110759D-01 0.38585984D+00 0.16318999D+06 0.16318999D+06 0.16318999D+06 0.11046750D+01  1  2 12  2  7  2        1 0.879682893836D-03 0.100000000000D+01
-.728227918782D-04 0.000000000000D+00 0.000000000000D+00 0.659717268364D-08 0.000000000000D+00  7 -1 1 24 -11 11 -24 21 2 0.10110759D-01 0.33271390D+00 0.13996535D+06 0.13996535D+06 0.13996535D+06 0.11099327D+01  1  2  4  2  7  2        1 -.151991364875D-02 0.100000000000D+01
-.169126676866D-03 0.000000000000D+00 -.330948745002D-04 0.659717268364D-08 0.000000000000D+00  7 -1 1 24 -11 11 -24 21 2 0.10110759D-01 0.38518394D+00 0.13996535D+06 0.13996535D+06 0.13996535D+06 0.11099327D+01  1  2  5  2  7  2        1 -.207764311546D-02 0.100000000000D+01
0.172472164778D-03 0.000000000000D+00 0.327431728501D-04 0.659717268364D-08 0.000000000000D+00  7 -1 1 24 -11 11 -24 21 2 0.10110759D-01 0.33271390D+00 0.13996535D+06 0.13996535D+06 0.13996535D+06 0.11099327D+01  1  2  6  2  7  2        1 0.359973561180D-02 0.100000000000D+01
0.165443297865D-05 0.000000000000D+00 0.000000000000D+00 0.659717268364D-08 0.000000000000D+00  7 -1 21 24 -11 11 -24 -1 2 0.10110759D-01 0.38585984D+00 0.16318999D+06 0.16318999D+06 0.16318999D+06 0.11046750D+01  1  2 12  4  7  2        1 0.691384076076D-05 0.100000000000D+01
-.356347591615D-05 0.000000000000D+00 -.740349728728D-06 0.659717268364D-08 0.000000000000D+00  7 -1 21 24 -11 11 -24 -1 2 0.10110759D-01 0.38518394D+00 0.13996535D+06 0.13996535D+06 0.13996535D+06 0.11099327D+01  1  2  5  4  7  2        1 -.154132830752D-04 0.100000000000D+01
  </mgrwgt>
  </event>
  <event>
  8     66 0.29788925E-05 0.50008143E+03 0.75467711E-02 0.91197575E-01
       -1 -1    0    0    0  501 0.00000000E+00 0.00000000E+00 0.29177843E+03 0.29177861E+03 0.32000000E+00 0.0000E+00 0.9000E+01
        1 -1    0    0  501    0 0.00000000E+00 0.00000000E+00 -.12202503E+04 0.12202503E+04 0.32000000E+00 0.0000E+00 0.9000E+01
       25  2    1    2    0    0 0.25175069E+02 -.46050598E+03 -.88158943E+03 0.10395888E+04 0.30140586E+03 0.0000E+00 0.0000E+00
       23  2    1    2    0    0 -.25175069E+02 0.46050598E+03 -.46882415E+02 0.47244008E+03 0.91116033E+02 0.0000E+00 0.0000E+00
       24  1    3    3    0    0 0.53070447E+02 -.33645380E+02 -.89302336E+02 0.13561197E+03 0.80419002E+02 0.0000E+00 0.9000E+01
      -11  1    4    4    0    0 -.21421228E+02 0.45758059E+03 -.34738616E+02 0.45939704E+03 0.51099893E-03 0.0000E+00 0.9000E+01
       11  1    4    4    0    0 -.37538411E+01 0.29253874E+01 -.12143799E+02 0.13043046E+02 0.51099893E-03 0.0000E+00 0.9000E+01
      -24  1    3    3    0    0 -.27895378E+02 -.42686060E+03 -.79228709E+03 0.90397687E+03 0.80419002E+02 0.0000E+00 0.9000E+01
#aMCatNLO 1  0  0  2  2 0.31732071D+03 0.00000000D+00  -5  7  0 0.00000000D+00 0.00000000D+00 0.00000000D+00 0.00000000D+00 0.00000000D+00
  <mgrwgt>
 0.1330253271D-02    4    2    0
 0.596693283225983D+03 0.000000000000000D+00 0.000000000000000D+00 0.596693283225983D+03
 0.596693283225983D+03 0.000000000000000D+00 0.000000000000000D+00 -.596693283225983D+03
 0.102342797904641D+03 0.530704470128357D+02 -.336453799977337D+02 -.763861160457442D+01
 0.555032038654921D+03 -.214212278410440D+02 0.457580590653886D+03 0.313403410938777D+03
 0.707757952628497D+01 -.375384113621704D+01 0.292538736996886D+01 -.523859880221422D+01
 0.528934150366120D+03 -.278953780355747D+02 -.426860598026122D+03 -.300526200531988D+03
 0.000000000000000D+00 0.000000000000000D+00 -.000000000000000D+00 0.000000000000000D+00
 0.900220623777850D+03 0.000000000000000D+00 0.000000000000000D+00 0.900220623777850D+03
 0.706442700327487D+03 0.000000000000000D+00 0.000000000000000D+00 -.706442700327487D+03
 0.896638708306233D+02 0.293043914091369D+02 -.255987897146473D+02 -.763861160457442D+01
 0.618731868258044D+03 -.166706485176405D+03 0.506770534473108D+03 0.313403410938777D+03
 0.851838670094372D+01 -.568426679794642D+01 0.357898107651033D+01 -.523859880221422D+01
 0.517939682990161D+03 -.157474532225823D+03 -.382988346762200D+03 -.300526200531988D+03
 0.371809515325564D+03 0.300560892791038D+03 -.101762379072771D+03 0.193777923450363D+03
0.259374845892D-03 0.000000000000D+00 0.000000000000D+00 0.239993778178D-05 0.000000000000D+00  7 -1 1 24 -11 11 -24 21 0 0.44889006D-01 0.18773083D+00 0.25008143D+06 0.25008143D+06 0.25008143D+06 0.10904485D+01  1  2  2  2  7  2        1 0.160183175904D-02 0.100000000000D+01
-.138631043969D-04 0.000000000000D+00 -.996067703192D-06 0.239993778178D-05 0.000000000000D+00  7 -1 1 24 -11 11 -24 21 2 0.44889006D-01 0.18773083D+00 0.25008143D+06 0.25008143D+06 0.25008143D+06 0.10904485D+01  1  2  3  2  7  2        1 -.101802825127D-03 0.100000000000D+01
0.165158011996D-04 0.000000000000D+00 0.000000000000D+00 0.239993778178D-05 0.000000000000D+00  7 -1 1 24 -11 11 -24 21 2 0.44889006D-01 0.18773083D+00 0.25008143D+06 0.25008143D+06 0.25008143D+06 0.10904485D+01  1  2 15  2  7  2        1 0.121282735325D-03 0.100000000000D+01
-.396351766352D-04 0.000000000000D+00 0.000000000000D+00 0.239993778178D-05 0.000000000000D+00  7 -1 1 24 -11 11 -24 21 2 0.44889006D-01 0.18773083D+00 0.25008143D+06 0.25008143D+06 0.25008143D+06 0.10904485D+01  1  2  4  2  7  2        1 -.291058397914D-03 0.100000000000D+01
  </mgrwgt>
  </event>
  <event>
  8     66 0.29788925E-05 0.33561587E+03 0.75467711E-02 0.94312205E-01
       -1 -1    0    0    0  501 0.00000000E+00 0.00000000E+00 0.74506963E+03 0.74506970E+03 0.32000000E+00 0.0000E+00 0.9000E+01
        1 -1    0    0  501    0 0.00000000E+00 0.00000000E+00 -.36945220E+03 0.36945234E+03 0.32000000E+00 0.0000E+00 0.9000E+01
       25  2    1    2    0    0 0.11707881E+03 0.41746179E+03 -.96685090E+01 0.52702551E+03 0.29946721E+03 0.0000E+00 0.0000E+00
       23  2    1    2    0    0 -.11707881E+03 -.41746179E+03 0.38528594E+03 0.58749653E+03 0.93408359E+02 0.0000E+00 0.0000E+00
       24  1    3    3    0    0 0.65281206E+02 0.57985142E+01 0.77880154E+01 0.10403426E+03 0.80419002E+02 0.0000E+00 0.9000E+01
      -13  1    4    4    0    0 -.46002541E+02 -.22464711E+03 0.26062796E+03 0.34714479E+03 0.10565837E+00 0.0000E+00 0.9000E+01
       13  1    4    4    0    0 -.71076268E+02 -.19281468E+03 0.12465798E+03 0.24035174E+03 0.10565837E+00 0.0000E+00 0.9000E+01
      -24  1    3    3    0    0 0.51797603E+02 0.41166328E+03 -.17456524E+02 0.42299125E+03 0.80419002E+02 0.0000E+00 0.9000E+01
#aMCatNLO 1  0  0  1  2 0.65062999D+02 0.00000000D+00  -5  7  0 0.00000000D+00 0.00000000D+00 0.00000000D+00 0.00000000D+00 0.00000000D+00
  <mgrwgt>
 0.6377169320D-03    9    2    0
 0.524659632464542D+03 0.000000000000000D+00 0.000000000000000D+00 0.524659632464542D+03
 0.524659632464542D+03 0.000000000000000D+00 0.000000000000000D+00 -.524659632464542D+03
 0.107710939217881D+03 0.652812055725279D+02 0.579851416929446D+01 -.289684639781503D+02
 0.275420652264802D+03 -.460025088948785D+02 -.224647151056168D+03 0.152558062362147D+03
 0.210663738930909D+03 -.710762996475164D+02 -.192814643192763D+03 0.463668405136041D+02
 0.455523934515492D+03 0.517976029698670D+02 0.411663280079637D+03 -.169956438897601D+03
 0.000000000000000D+00 0.000000000000000D+00 -.000000000000000D+00 0.000000000000000D+00
 0.721758034925906D+03 0.000000000000000D+00 0.000000000000000D+00 0.721758034925906D+03
 0.531064203408878D+03 0.000000000000000D+00 0.000000000000000D+00 -.531064203408878D+03
 0.104554272264014D+03 0.595344644713145D+02 0.899197025948591D+01 -.289684639781503D+02
 0.271676901316632D+03 -.608143001233619D+02 -.216416259134613D+03 0.152558062362147D+03
 0.209113331624164D+03 -.824410924360490D+02 -.186499243541883D+03 0.463668405136041D+02
 0.465989938993850D+03 0.268490887255242D+02 0.425527134976110D+03 -.169956438897601D+03
 0.201487794136123D+03 0.568718393625721D+02 -.316036025591005D+02 0.190693831517028D+03
0.805491700907D-04 0.000000000000D+00 0.000000000000D+00 0.111611962912D-05 0.000000000000D+00  7 -1 1 24 -13 13 -24 21 0 0.11462611D+00 0.56838816D-01 0.23096669D+06 0.23096669D+06 0.23096669D+06 0.10930558D+01  1  2  2  1  7  1       -1 0.483166817620D-03 0.100000000000D+01
-.443307269271D-05 0.000000000000D+00 -.309330022232D-06 0.111611962912D-05 0.000000000000D+00  7 -1 1 24 -13 13 -24 21 2 0.11462611D+00 0.56838816D-01 0.23096669D+06 0.23096669D+06 0.23096669D+06 0.10930558D+01  1  2  3  1  7  1       -1 -.317706081526D-04 0.100000000000D+01
0.510964548984D-05 0.000000000000D+00 0.000000000000D+00 0.111611962912D-05 0.000000000000D+00  7 -1 1 24 -13 13 -24 21 2 0.11462611D+00 0.56838816D-01 0.23096669D+06 0.23096669D+06 0.23096669D+06 0.10930558D+01  1  2 15  1  7  1       -1 0.366194186085D-04 0.100000000000D+01
0.504666701541D-03 0.000000000000D+00 0.000000000000D+00 0.111611962912D-05 0.000000000000D+00  7 -1 1 24 -13 13 -24 21 2 0.15819225D+00 0.56838816D-01 0.26425855D+06 0.26425855D+06 0.26425855D+06 0.10886515D+01  1  2 12  1  7  1       -1 0.151300201885D-02 0.100000000000D+01
-.488399329753D-03 0.000000000000D+00 0.000000000000D+00 0.111611962912D-05 0.000000000000D+00  7 -1 1 24 -13 13 -24 21 2 0.11462611D+00 0.56838816D-01 0.23096669D+06 0.23096669D+06 0.23096669D+06 0.10930558D+01  1  2  4  1  7  1       -1 -.350022316419D-02 0.100000000000D+01
-.547079834164D-03 0.000000000000D+00 -.360035341009D-04 0.111611962912D-05 0.000000000000D+00  7 -1 1 24 -13 13 -24 21 2 0.15844235D+00 0.56838816D-01 0.23096669D+06 0.23096669D+06 0.23096669D+06 0.10930558D+01  1  2  5  1  7  1       -1 -.165634732093D-02 0.100000000000D+01
0.532402096266D-03 0.000000000000D+00 0.341961026006D-04 0.111611962912D-05 0.000000000000D+00  7 -1 1 24 -13 13 -24 21 2 0.11462611D+00 0.56838816D-01 0.23096669D+06 0.23096669D+06 0.23096669D+06 0.10930558D+01  1  2  6  1  7  1       -1 0.381557884397D-02 0.100000000000D+01
0.205358303138D-04 0.000000000000D+00 0.000000000000D+00 0.111611962912D-05 0.000000000000D+00  7 21 1 24 -13 13 -24 1 2 0.15819225D+00 0.56838816D-01 0.26425855D+06 0.26425855D+06 0.26425855D+06 0.10886515D+01  1  2 12  3  7  1       -1 0.385332210125D-03 0.100000000000D+01
-.214333967472D-04 0.000000000000D+00 -.147022291309D-05 0.111611962912D-05 0.000000000000D+00  7 21 1 24 -13 13 -24 1 2 0.15844235D+00 0.56838816D-01 0.23096669D+06 0.23096669D+06 0.23096669D+06 0.10930558D+01  1  2  5  3  7  1       -1 -.407641283889D-03 0.100000000000D+01
  </mgrwgt>
  </event>
  <event>
  8     66 0.29788925E-05 0.25592827E+03 0.75467711E-02 0.94934781E-01
       -1 -1    0    0    0  501 0.00000000E+00 0.00000000E+00 0.81334652E+03 0.81334658E+03 0.32000000E+00 0.0000E+00 0.9000E+01
        1 -1    0    0  501    0 0.00000000E+00 0.00000000E+00 -.36606789E+03 0.36606803E+03 0.32000000E+00 0.0000E+00 0.9000E+01
       25  2    1    2    0    0 -.18352730E+03 -.31365536E+03 -.13193229E+03 0.48927775E+03 0.29987436E+03 0.0000E+00 0.0000E+00
       23  2    1    2    0    0 0.18352730E+03 0.31365536E+03 0.57921091E+03 0.69013686E+03 0.93496764E+02 0.0000E+00 0.0000E+00
       24  1    3    3    0    0 -.78829752E+02 -.31908812E+03 -.83268608E+02 0.34847129E+03 0.80419002E+02 0.0000E+00 0.9000E+01
      -11  1    4    4    0    0 0.39466440E+02 0.15408256E+03 0.27384723E+03 0.31668808E+03 0.51099893E-03 0.0000E+00 0.9000E+01
       11  1    4    4    0    0 0.14406086E+03 0.15957280E+03 0.30536369E+03 0.37344878E+03 0.51099893E-03 0.0000E+00 0.9000E+01
      -24  1    3    3    0    0 -.10469755E+03 0.54327618E+01 -.48663682E+02 0.14080647E+03 0.80419002E+02 0.0000E+00 0.9000E+01
#aMCatNLO 1  0  0  2  1 0.11750721D+03 0.00000000D+00  -5  7  0 0.00000000D+00 0.00000000D+00 0.00000000D+00 0.00000000D+00 0.00000000D+00
  <mgrwgt>
 0.4424189925D-03    9    2    0
 0.545655718105659D+03 0.000000000000000D+00 0.000000000000000D+00 0.545655718105659D+03
 0.545655718105659D+03 0.000000000000000D+00 0.000000000000000D+00 -.545655718105659D+03
 0.410731875276644D+03 -.788297520773405D+02 -.319088122240340D+03 -.232813440003917D+03
 0.230017321744978D+03 0.394664396302139D+02 0.154082557973904D+03 0.166159362582631D+03
 0.278443244394177D+03 0.144060857512772D+03 0.159572802457857D+03 0.176956577716643D+03
 0.172118994795517D+03 -.104697545065645D+03 0.543276180857899D+01 -.110302500295356D+03
 0.000000000000000D+00 -.000000000000000D+00 -.000000000000000D+00 -.000000000000000D+00
 0.572182227021619D+03 0.000000000000000D+00 0.000000000000000D+00 0.572182227021619D+03
 0.696504293158323D+03 0.000000000000000D+00 0.000000000000000D+00 -.696504293158323D+03
 0.377842431144391D+03 -.721951716407684D+02 -.277278643541178D+03 -.232813440003917D+03
 0.248398746193870D+03 0.434915389252880D+02 0.179447734392861D+03 0.166159362582631D+03
 0.299453514888894D+03 0.148922926315012D+03 0.190212352910899D+03 0.176956577716643D+03
 0.171924820892754D+03 -.101802971465792D+03 0.236736459795084D+02 -.110302500295356D+03
 0.171067007060032D+03 -.184163221337399D+02 -.116055089742090D+03 -.124322066136704D+03
0.741595695937D-04 0.000000000000D+00 0.000000000000D+00 0.115707612231D-05 0.000000000000D+00  7 -1 1 24 -11 11 -24 21 0 0.12513025D+00 0.56318153D-01 0.17831381D+06 0.17831381D+06 0.17831381D+06 0.11016743D+01  1  2  2  2  7  2        1 0.366926767538D-03 0.100000000000D+01
-.379081950305D-05 0.000000000000D+00 -.284792273903D-06 0.115707612231D-05 0.000000000000D+00  7 -1 1 24 -11 11 -24 21 2 0.12513025D+00 0.56318153D-01 0.17831381D+06 0.17831381D+06 0.17831381D+06 0.11016743D+01  1  2  3  2  7  2        1 -.227641637046D-04 0.100000000000D+01
0.466717700023D-05 0.000000000000D+00 0.000000000000D+00 0.115707612231D-05 0.000000000000D+00  7 -1 1 24 -11 11 -24 21 2 0.12513025D+00 0.56318153D-01 0.17831381D+06 0.17831381D+06 0.17831381D+06 0.11016743D+01  1  2 15  2  7  2        1 0.280267581155D-04 0.100000000000D+01
0.127436635553D-03 0.000000000000D+00 0.000000000000D+00 0.115707612231D-05 0.000000000000D+00  7 -1 1 24 -11 11 -24 21 2 0.12513025D+00 0.72982174D-01 0.23677840D+06 0.23677840D+06 0.23677840D+06 0.10922388D+01  1  2 12  2  7  2        1 0.522588170064D-03 0.100000000000D+01
-.135334595137D-03 0.000000000000D+00 0.000000000000D+00 0.115707612231D-05 0.000000000000D+00  7 -1 1 24 -11 11 -24 21 2 0.12513025D+00 0.56318153D-01 0.17831381D+06 0.17831381D+06 0.17831381D+06 0.11016743D+01  1  2  4  2  7  2        1 -.812694689400D-03 0.100000000000D+01
-.182102090757D-03 0.000000000000D+00 -.412972164245D-04 0.115707612231D-05 0.000000000000D+00  7 -1 1 24 -11 11 -24 21 2 0.12513025D+00 0.74334065D-01 0.17831381D+06 0.17831381D+06 0.17831381D+06 0.11016743D+01  1  2  5  2  7  2        1 -.750094619470D-03 0.100000000000D+01
0.187824282612D-03 0.000000000000D+00 0.397560502111D-04 0.115707612231D-05 0.000000000000D+00  7 -1 1 24 -11 11 -24 21 2 0.12513025D+00 0.56318153D-01 0.17831381D+06 0.17831381D+06 0.17831381D+06 0.11016743D+01  1  2  6  2  7  2        1 0.112789931402D-02 0.100000000000D+01
0.442906113278D-05 0.000000000000D+00 0.000000000000D+00 0.115707612231D-05 0.000000000000D+00  7 -1 21 24 -11 11 -24 -1 2 0.12513025D+00 0.72982174D-01 0.23677840D+06 0.23677840D+06 0.23677840D+06 0.10922388D+01  1  2 12  4  7  2        1 0.559916238739D-04 0.100000000000D+01
-.583392643111D-05 0.000000000000D+00 -.150885049772D-05 0.115707612231D-05 0.000000000000D+00  7 -1 21 24 -11 11 -24 -1 2 0.12513025D+00 0.74334065D-01 0.17831381D+06 0.17831381D+06 0.17831381D+06 0.11016743D+01  1  2  5  4  7  2        1 -.734601684983D-04 0.100000000000D+01
  </mgrwgt>
  </event>
  <event>
  8     66 0.29788925E-05 0.73992703E+03 0.75467711E-02 0.83810851E-01
       -1 -1    0    0    0  501 0.00000000E+00 0.00000000E+00 0.73925003E+03 0.73925010E+03 0.32000000E+00 0.0000E+00 0.9000E+01
        1 -1    0    0  501    0 0.00000000E+00 0.00000000E+00 -.76466802E+03 0.76466808E+03 0.32000000E+00 0.0000E+00 0.9000E+01
       25  2    1    2    0    0 -.53991236E+03 0.46103076E+03 -.12545912E+03 0.78124054E+03 0.30090211E+03 0.0000E+00 0.0000E+00
       23  2    1    2    0    0 0.53991236E+03 -.46103076E+03 0.10004113E+03 0.72267764E+03 0.90554012E+02 0.0000E+00 0.0000E+00
       24  1    3    3    0    0 -.45331324E+03 0.23993510E+03 -.10529562E+03 0.52973213E+03 0.80419002E+02 0.0000E+00 0.9000E+01
      -11  1    4    4    0    0 0.50258153E+03 -.43112998E+03 0.11601672E+03 0.67225080E+03 0.51099893E-03 0.0000E+00 0.9000E+01
       11  1    4    4    0    0 0.37330830E+02 -.29900779E+02 -.15975586E+02 0.50426846E+02 0.51099893E-03 0.0000E+00 0.9000E+01
      -24  1    3    3    0    0 -.86599115E+02 0.22109566E+03 -.20163492E+02 0.25150841E+03 0.80419002E+02 0.0000E+00 0.9000E+01
#aMCatNLO 1  0  0  2  2 0.11023582D+04 0.00000000D+00  -5  7  0 0.00000000D+00 0.00000000D+00 0.00000000D+00 0.00000000D+00 0.00000000D+00
  <mgrwgt>
 0.1293942368D-02    3    2    0
 0.751851686191513D+03 0.000000000000000D+00 0.000000000000000D+00 0.751851686191513D+03
 0.751851686191513D+03 0.000000000000000D+00 0.000000000000000D+00 -.751851686191513D+03
 0.528027935003158D+03 -.453313242432859D+03 0.239935102523071D+03 -.963562919667423D+02
 0.674307929413145D+03 0.502581527158468D+03 -.431129982793510D+03 0.127396743149005D+03
 0.501640052788115D+02 0.373308302591645D+02 -.299007790671087D+02 -.151254735117294D+02
 0.251203502687910D+03 -.865991149847728D+02 0.221095659337547D+03 -.159149776705332D+02
 0.000000000000000D+00 -.000000000000000D+00 0.000000000000000D+00 0.000000000000000D+00
 0.174393774106680D+04 0.000000000000000D+00 0.000000000000000D+00 0.174393774106680D+04
 0.130652154761475D+04 0.000000000000000D+00 0.000000000000000D+00 -.130652154761475D+04
 0.285026638888261D+03 -.199362467166963D+03 0.160446379220879D+03 -.963562919667423D+02
 0.128212562244663D+04 0.111365713414147D+04 -.622401774696220D+03 0.127396743149005D+03
 0.948653561749392D+02 0.826295346268451D+02 -.440796535897805D+02 -.151254735117294D+02
 0.202470923598027D+03 0.551022860936382D+02 0.176741931926945D+03 -.159149776705332D+02
 0.118597074757369D+04 -.105202648769499D+04 0.329293117138177D+03 0.437416193452051D+03
0.618651633018D-03 0.000000000000D+00 0.000000000000D+00 0.458561207508D-05 0.000000000000D+00  7 -1 1 24 -11 11 -24 21 0 0.11373078D+00 0.11764124D+00 0.54749201D+06 0.54749201D+06 0.54749201D+06 0.10657364D+01  1  2  2  2  7  2        1 0.128187082276D-02 0.100000000000D+01
-.343588540594D-04 0.000000000000D+00 -.237578516551D-05 0.458561207508D-05 0.000000000000D+00  7 -1 1 24 -11 11 -24 21 2 0.11373078D+00 0.11764124D+00 0.54749201D+06 0.54749201D+06 0.54749201D+06 0.10657364D+01  1  2  3  2  7  2        1 -.808604842065D-04 0.100000000000D+01
0.394882379674D-04 0.000000000000D+00 0.000000000000D+00 0.458561207508D-05 0.000000000000D+00  7 -1 1 24 -11 11 -24 21 2 0.11373078D+00 0.11764124D+00 0.54749201D+06 0.54749201D+06 0.54749201D+06 0.10657364D+01  1  2 15  2  7  2        1 0.929320296009D-04 0.100000000000D+01
  </mgrwgt>
  </event>
  <event>
  8     66 0.29788925E-05 0.46286031E+03 0.75467711E-02 0.89695560E-01
       -1 -1    0    0    0  501 0.00000000E+00 0.00000000E+00 0.29725409E+03 0.29725426E+03 0.32000000E+00 0.0000E+00 0.9000E+01
        1 -1    0    0  501    0 0.00000000E+00 0.00000000E+00 -.10152334E+04 0.10152334E+04 0.32000000E+00 0.0000E+00 0.9000E+01
       25  2    1    2    0    0 0.25596773E+03 0.32822648E+03 -.42821570E+02 0.51419770E+03 0.29885363E+03 0.0000E+00 0.0000E+00
       23  2    1    2    0    0 -.25596773E+03 -.32822648E+03 -.67515770E+03 0.79828996E+03 0.90425920E+02 0.0000E+00 0.0000E+00
       24  1    3    3    0    0 0.24746450E+03 0.33702940E+03 -.62908418E+02 0.43040932E+03 0.80419002E+02 0.0000E+00 0.9000E+01
      -11  1    4    4    0    0 -.24229526E+03 -.32338260E+03 -.61114025E+03 0.73264978E+03 0.51099893E-03 0.0000E+00 0.9000E+01
       11  1    4    4    0    0 -.13672475E+02 -.48438777E+01 -.64017448E+02 0.65640181E+02 0.51099893E-03 0.0000E+00 0.9000E+01
      -24  1    3    3    0    0 0.85032336E+01 -.88029228E+01 0.20086848E+02 0.83788387E+02 0.80419002E+02 0.0000E+00 0.9000E+01
#aMCatNLO 1  0  0  2  1 0.53076957D+03 0.00000000D+00  -5  7  0 0.00000000D+00 0.00000000D+00 0.00000000D+00 0.00000000D+00 0.00000000D+00
  <mgrwgt>
 0.1442247408D-02    3    2    0
 0.549347258977533D+03 0.000000000000000D+00 0.000000000000000D+00 0.549347258977533D+03
 0.549347258977533D+03 0.000000000000000D+00 0.000000000000000D+00 -.549347258977533D+03
 0.473052309036886D+03 0.247464499513851D+03 0.337029399238145D+03 0.206115930146830D+03
 0.475844526330305D+03 -.242295258512251D+03 -.323382598718818D+03 -.251286123347187D+03
 0.365786182362416D+02 -.136724746382868D+02 -.484387769161288D+01 -.335796902643071D+02
 0.113219064351635D+03 0.850323363668711D+01 -.880292282771424D+01 0.787498834646647D+02
 0.000000000000000D+00 -.000000000000000D+00 0.000000000000000D+00 0.000000000000000D+00
 0.129248744448673D+04 0.000000000000000D+00 0.000000000000000D+00 0.129248744448673D+04
 0.713299899396820D+03 0.000000000000000D+00 0.000000000000000D+00 -.713299899396820D+03
 0.619744357414271D+03 0.494892437874396D+03 0.300355707232111D+03 0.206115930146830D+03
 0.435580461023747D+03 -.359329840704312D+02 -.353969550801473D+03 -.251286123347187D+03
 0.344327215644923D+02 0.240571259134182D+01 -.722698159807448D+01 -.335796902643071D+02
 0.130425226432586D+03 0.636684866181312D+02 -.169794994531413D+02 0.787498834646647D+02
 0.785604577448454D+03 -.525033653013438D+03 0.778203246205776D+02 0.579187545089910D+03
0.168283091152D-03 0.000000000000D+00 0.000000000000D+00 0.124788420486D-05 0.000000000000D+00  7 -1 1 24 -11 11 -24 21 0 0.45731415D-01 0.15618976D+00 0.21423967D+06 0.21423967D+06 0.21423967D+06 0.10955386D+01  1  2  2  2  7  2        1 0.142603841940D-02 0.100000000000D+01
-.901548685298D-05 0.000000000000D+00 -.646251379980D-06 0.124788420486D-05 0.000000000000D+00  7 -1 1 24 -11 11 -24 21 2 0.45731415D-01 0.15618976D+00 0.21423967D+06 0.21423967D+06 0.21423967D+06 0.10955386D+01  1  2  3  2  7  2        1 -.916928200063D-04 0.100000000000D+01
0.106091985654D-04 0.000000000000D+00 0.000000000000D+00 0.124788420486D-05 0.000000000000D+00  7 -1 1 24 -11 11 -24 21 2 0.45731415D-01 0.15618976D+00 0.21423967D+06 0.21423967D+06 0.21423967D+06 0.10955386D+01  1  2 15  2  7  2        1 0.107901808336D-03 0.100000000000D+01
  </mgrwgt>
  </event>
  <event>
  9     66 0.29788925E-05 0.46339152E+03 0.75467711E-02 0.85253333E-01
       -1 -1    0    0    0  501 0.00000000E+00 0.00000000E+00 0.19824140E+04 0.19824140E+04 0.32000000E+00 0.0000E+00 0.9000E+01
        1 -1    0    0  502    0 0.00000000E+00 0.00000000E+00 -.84734730E+03 0.84734736E+03 0.32000000E+00 0.0000E+00 0.9000E+01
       25  2    1    2    0    0 0.51700550E+03 -.31863112E+03 0.11797815E+03 0.68751139E+03 0.29988762E+03 0.0000E+00 0.0000E+00
       23  2    1    2    0    0 0.53852207E+03 0.57874341E+03 0.48201320E+03 0.93059697E+03 0.93402586E+02 0.0000E+00 0.0000E+00
       24  1    3    3    0    0 0.27518018E+03 -.17026833E+03 -.66041164E+02 0.33991776E+03 0.80419002E+02 0.0000E+00 0.9000E+01
      -13  1    4    4    0    0 0.16959647E+03 0.15739572E+03 0.96481810E+02 0.25068930E+03 0.10565837E+00 0.0000E+00 0.9000E+01
       13  1    4    4    0    0 0.36892560E+03 0.42134769E+03 0.38553139E+03 0.67990767E+03 0.10565837E+00 0.0000E+00 0.9000E+01
      -24  1    3    3    0    0 0.24182532E+03 -.14836279E+03 0.18401931E+03 0.34759362E+03 0.80419002E+02 0.0000E+00 0.9000E+01
       21  1    1    2  502  501 -.10555276E+04 -.26011228E+03 0.53507531E+03 0.12116530E+04 0.75000000E+00 0.0000E+00 0.9000E+01
#aMCatNLO 2  0  0  2  2 0.10871048D+04 0.00000000D+00  -5  7  0 0.00000000D+00 0.00000000D+00 0.00000000D+00 0.00000000D+00 0.00000000D+00
  <mgrwgt>
 0.1406897084D-05    1    2    0
 0.518769742366162D+03 0.000000000000000D+00 0.000000000000000D+00 0.518769742366162D+03
 0.518769742366162D+03 0.000000000000000D+00 0.000000000000000D+00 -.518769742366162D+03
 0.331049112545949D+03 -.254128500129833D+02 -.244343082705363D+03 -.206825878340569D+03
 0.123175629772844D+03 0.222611998901634D+02 0.121087801587232D+03 0.379724323137680D+01
 0.356458954121294D+03 -.194245749406136D+02 0.325647336980685D+03 0.143664483359707D+03
 0.226855788292237D+03 0.225762250634335D+02 -.202392055862554D+03 0.593641517494843D+02
 0.000000000000000D+00 -.000000000000000D+00 -.000000000000000D+00 0.000000000000000D+00
 0.134308230318827D+04 0.000000000000000D+00 0.000000000000000D+00 0.134308230318827D+04
 0.125069991063785D+04 0.000000000000000D+00 0.000000000000000D+00 -.125069991063785D+04
 0.392376852977019D+03 0.275180175673744D+03 -.170268334585732D+03 -.206825878340569D+03
 0.231410025010817D+03 0.169596213998315D+03 0.157395377367908D+03 0.379724323137680D+01
 0.578169465359679D+03 0.368925854673140D+03 0.421348027940061D+03 0.143664483359707D+03
 0.300802794858337D+03 0.241825322549370D+03 -.148362786106132D+03 0.593641517494843D+02
 0.109102307562027D+04 -.105552756689457D+04 -.260112284616104D+03 0.923823925504229D+02
0.339061558984D-04 0.000000000000D+00 0.000000000000D+00 0.159951547120D-05 0.137407497635D-10  7 -1 1 24 -13 13 -24 21 2 0.30498674D+00 0.13036112D+00 0.15710707D+07 0.15710707D+07 0.15710707D+07 0.10350483D+01  1  2  1  2  7  2        1 0.140689708440D-05 0.100000000000D+01
  </mgrwgt>
  </event>
  <event>
  8     66 0.29788925E-05 0.13528422E+03 0.75467711E-02 0.10540210E+00
       -1 -1    0    0    0  501 0.00000000E+00 0.00000000E+00 0.78503257E+02 0.78503909E+02 0.32000000E+00 0.0000E+00 0.9000E+01
        1 -1    0    0  501    0 0.00000000E+00 0.00000000E+00 -.88725712E+03 0.88725717E+03 0.32000000E+00 0.0000E+00 0.9000E+01
       25  2    1    2    0    0 0.90699415E+02 -.83043432E+02 -.32611530E+03 0.45960713E+03 0.29960795E+03 0.0000E+00 0.0000E+00
       23  2    1    2    0    0 -.90699415E+02 0.83043432E+02 -.48263856E+03 0.50615396E+03 0.90162378E+02 0.0000E+00 0.0000E+00
       24  1    3    3    0    0 -.19759311E+02 -.22629282E+00 0.13857794E+02 0.83962706E+02 0.80419002E+02 0.0000E+00 0.9000E+01
      -11  1    4    4    0    0 0.63730942E+01 0.44552509E+02 -.19558341E+03 0.20069482E+03 0.51099893E-03 0.0000E+00 0.9000E+01
       11  1    4    4    0    0 -.97072509E+02 0.38490922E+02 -.28705515E+03 0.30545913E+03 0.51099893E-03 0.0000E+00 0.9000E+01
      -24  1    3    3    0    0 0.11045873E+03 -.82817139E+02 -.33997310E+03 0.37564442E+03 0.80419002E+02 0.0000E+00 0.9000E+01
#aMCatNLO 1  0  0  1  2 0.33178421D+02 0.00000000D+00  -5  7  0 0.00000000D+00 0.00000000D+00 0.00000000D+00 0.00000000D+00 0.00000000D+00
  <mgrwgt>
 0.3579208667D-03    9    2    0
 0.263918388697005D+03 0.000000000000000D+00 0.000000000000000D+00 0.263918388697005D+03
 0.263918388697005D+03 0.000000000000000D+00 0.000000000000000D+00 -.263918388697005D+03
 0.174856058931881D+03 -.197593108875899D+02 -.226292825753958D+00 0.154003064305953D+03
 0.675292343324680D+02 0.637309415250912D+01 0.445525094276439D+02 -.503453579205901D+02
 0.119058742148758D+03 -.970725089705630D+02 0.384909223473930D+02 -.571870700512909D+02
 0.166392741980904D+03 0.110458725705644D+03 -.828171389492829D+02 -.464706363340721D+02
 0.000000000000000D+00 0.000000000000000D+00 0.000000000000000D+00 0.000000000000000D+00
 0.320314688312529D+03 0.000000000000000D+00 0.000000000000000D+00 0.320314688312529D+03
 0.269364526847331D+03 0.000000000000000D+00 0.000000000000000D+00 -.269364526847331D+03
 0.176100245731383D+03 -.276479973000116D+02 -.791991300191126D+01 0.154003064305953D+03
 0.654204442124811D+02 0.338469272265113D+01 0.416380032179650D+02 -.503453579205901D+02
 0.121972699405024D+03 -.102490338576947D+03 0.332070612593133D+02 -.571870700512909D+02
 0.165385113888521D+03 0.103001126486702D+03 -.900903315718470D+02 -.464706363340721D+02
 0.608007119224521D+02 0.237525166676057D+02 0.231651800964800D+02 0.509501614651982D+02
0.341672606397D-05 0.000000000000D+00 0.000000000000D+00 0.363608867788D-06 0.000000000000D+00  7 -1 1 24 -11 11 -24 21 0 0.12077479D-01 0.13650115D+00 0.38418790D+05 0.38418790D+05 0.38418790D+05 0.11574984D+01  1  2  2  1  7  1       -1 0.331270935596D-03 0.100000000000D+01
-.169393172701D-06 0.000000000000D+00 -.131211277303D-07 0.363608867788D-06 0.000000000000D+00  7 -1 1 24 -11 11 -24 21 2 0.12077479D-01 0.13650115D+00 0.38418790D+05 0.38418790D+05 0.38418790D+05 0.11574984D+01  1  2  3  1  7  1       -1 -.220044166527D-04 0.100000000000D+01
0.218987356394D-06 0.000000000000D+00 0.000000000000D+00 0.363608867788D-06 0.000000000000D+00  7 -1 1 24 -11 11 -24 21 2 0.12077479D-01 0.13650115D+00 0.38418790D+05 0.38418790D+05 0.38418790D+05 0.11574984D+01  1  2 15  1  7  1       -1 0.284467724107D-04 0.100000000000D+01
0.130234856618D-04 0.000000000000D+00 0.000000000000D+00 0.363608867788D-06 0.000000000000D+00  7 -1 1 24 -11 11 -24 21 2 0.14764946D-01 0.13650115D+00 0.45543523D+05 0.45543523D+05 0.45543523D+05 0.11508787D+01  1  2 12  1  7  1       -1 0.122574659873D-02 0.100000000000D+01
-.132122092832D-04 0.000000000000D+00 0.000000000000D+00 0.363608867788D-06 0.000000000000D+00  7 -1 1 24 -11 11 -24 21 2 0.12077479D-01 0.13650115D+00 0.38418790D+05 0.38418790D+05 0.38418790D+05 0.11574984D+01  1  2  4  1  7  1       -1 -.171628497970D-02 0.100000000000D+01
-.169403240066D-04 0.000000000000D+00 -.239894426433D-05 0.363608867788D-06 0.000000000000D+00  7 -1 1 24 -11 11 -24 21 2 0.14924765D-01 0.13650115D+00 0.38418790D+05 0.38418790D+05 0.38418790D+05 0.11574984D+01  1  2  5  1  7  1       -1 -.158772592372D-02 0.100000000000D+01
0.171159896103D-04 0.000000000000D+00 0.234618356602D-05 0.363608867788D-06 0.000000000000D+00  7 -1 1 24 -11 11 -24 21 2 0.12077479D-01 0.13650115D+00 0.38418790D+05 0.38418790D+05 0.38418790D+05 0.11574984D+01  1  2  6  1  7  1       -1 0.222339165625D-02 0.100000000000D+01
0.373994872185D-06 0.000000000000D+00 0.000000000000D+00 0.363608867788D-06 0.000000000000D+00  7 21 1 24 -11 11 -24 1 2 0.14764946D-01 0.13650115D+00 0.45543523D+05 0.45543523D+05 0.45543523D+05 0.11508787D+01  1  2 12  3  7  1       -1 0.464498170721D-03 0.100000000000D+01
-.475785305446D-06 0.000000000000D+00 -.716879866085D-07 0.363608867788D-06 0.000000000000D+00  7 21 1 24 -11 11 -24 1 2 0.14924765D-01 0.13650115D+00 0.38418790D+05 0.38418790D+05 0.38418790D+05 0.11574984D+01  1  2  5  3  7  1       -1 -.589417946935D-03 0.100000000000D+01
  </mgrwgt>
  </event>
  <event>
  8     66 0.29788925E-05 0.44789727E+03 0.75467711E-02 0.88263608E-01
       -3 -1    0    0    0  501 0.00000000E+00 0.00000000E+00 0.58061296E+03 0.58061318E+03 0.50000000E+00 0.0000E+00 0.9000E+01
        3 -1    0    0  501    0 0.00000000E+00 0.00000000E+00 -.10660717E+04 0.10660718E+04 0.50000000E+00 0.0000E+00 0.9000E+01
       25  2    1    2    0    0 0.63676450E+03 -.34286694E+03 -.21452968E+02 0.78268655E+03 0.29851506E+03 0.0000E+00 0.0000E+00
       23  2    1    2    0    0 -.63676450E+03 0.34286694E+03 -.46400578E+03 0.86399846E+03 0.90361527E+02 0.0000E+00 0.0000E+00
       24  1    3    3    0    0 0.32315623E+03 -.25507049E+03 -.11403287E+03 0.43469716E+03 0.80419002E+02 0.0000E+00 0.9000E+01
      -13  1    4    4    0    0 -.36709829E+03 0.18592751E+03 -.31506535E+03 0.51826285E+03 0.10565837E+00 0.0000E+00 0.9000E+01
       13  1    4    4    0    0 -.26966620E+03 0.15693944E+03 -.14894043E+03 0.34573561E+03 0.10565837E+00 0.0000E+00 0.9000E+01
      -24  1    3    3    0    0 0.31360827E+03 -.87796448E+02 0.92579906E+02 0.34798939E+03 0.80419002E+02 0.0000E+00 0.9000E+01
#aMCatNLO 1  0  0  1  2 0.31362412D+03 0.00000000D+00  -5  7  0 0.00000000D+00 0.00000000D+00 0.00000000D+00 0.00000000D+00 0.00000000D+00
  <mgrwgt>
 0.5786133004D-04    9    2    0
 0.786749850416213D+03 0.000000000000000D+00 0.000000000000000D+00 0.786749850416213D+03
 0.786749850416213D+03 0.000000000000000D+00 0.000000000000000D+00 -.786749850416213D+03
 0.419733814426861D+03 0.323156228187882D+03 -.255070494012702D+03 0.147768158427238D+02
 0.445163547661255D+03 -.367098425566072D+03 0.185927545314706D+03 -.169824256237185D+03
 0.315864647806384D+03 -.269666070318919D+03 0.156939396515652D+03 -.492007324529434D+02
 0.392737690937926D+03 0.313608267697109D+03 -.877964478176555D+02 0.204248172847405D+03
 0.000000000000000D+00 -.000000000000000D+00 -.000000000000000D+00 0.000000000000000D+00
 0.109946242798410D+04 0.000000000000000D+00 0.000000000000000D+00 0.109946242798410D+04
 0.884953870590672D+03 0.000000000000000D+00 0.000000000000000D+00 -.884953870590672D+03
 0.391236659830275D+03 0.339352166275927D+03 -.176693692581725D+03 0.147768158427238D+02
 0.475404680133876D+03 -.348713704424592D+03 0.274896497309730D+03 -.169824256237185D+03
 0.341834128594779D+03 -.256531130143774D+03 0.220503148878659D+03 -.492007324529434D+02
 0.395975028533675D+03 0.329359694881332D+03 -.115707624661179D+02 0.204248172847405D+03
 0.379965801482163D+03 -.634670265888926D+02 -.307135191140546D+03 0.214508557393424D+03
0.460866231077D-03 0.000000000000D+00 0.000000000000D+00 0.154316417918D-05 0.000000000000D+00  7 -3 3 24 -13 13 -24 21 0 0.89325096D-01 0.16401106D+00 0.54643795D+06 0.54643795D+06 0.54643795D+06 0.10657950D+01  1  2  2  1  7  1       -3 0.460149430180D-04 0.100000000000D+01
-.254827669893D-04 0.000000000000D+00 -.176984767620D-05 0.154316417918D-05 0.000000000000D+00  7 -3 3 24 -13 13 -24 21 2 0.89325096D-01 0.16401106D+00 0.54643795D+06 0.54643795D+06 0.54643795D+06 0.10657950D+01  1  2  3  1  7  1       -3 -.289013400708D-05 0.100000000000D+01
0.287228827182D-04 0.000000000000D+00 0.000000000000D+00 0.154316417918D-05 0.000000000000D+00  7 -3 3 24 -13 13 -24 21 2 0.89325096D-01 0.16401106D+00 0.54643795D+06 0.54643795D+06 0.54643795D+06 0.10657950D+01  1  2 15  1  7  1       -3 0.325761249398D-05 0.100000000000D+01
0.279725806508D-03 0.000000000000D+00 0.000000000000D+00 0.154316417918D-05 0.000000000000D+00  7 -3 3 24 -13 13 -24 21 2 0.12866600D+00 0.16401106D+00 0.83368478D+06 0.83368478D+06 0.83368478D+06 0.10531634D+01  1  2 12  1  7  1       -3 0.111895286414D-04 0.100000000000D+01
-.357561031743D-03 0.000000000000D+00 0.000000000000D+00 0.154316417918D-05 0.000000000000D+00  7 -3 3 24 -13 13 -24 21 2 0.89325096D-01 0.16401106D+00 0.54643795D+06 0.54643795D+06 0.54643795D+06 0.10657950D+01  1  2  4  1  7  1       -3 -.405528684496D-04 0.100000000000D+01
-.499901098709D-03 0.000000000000D+00 -.178550032411D-03 0.154316417918D-05 0.000000000000D+00  7 -3 3 24 -13 13 -24 21 2 0.13508297D+00 0.16401106D+00 0.54643795D+06 0.54643795D+06 0.54643795D+06 0.10657950D+01  1  2  5  1  7  1       -3 -.180886677269D-04 0.100000000000D+01
0.541061743021D-03 0.000000000000D+00 0.164295494166D-03 0.154316417918D-05 0.000000000000D+00  7 -3 3 24 -13 13 -24 21 2 0.89325096D-01 0.16401106D+00 0.54643795D+06 0.54643795D+06 0.54643795D+06 0.10657950D+01  1  2  6  1  7  1       -3 0.613646447458D-04 0.100000000000D+01
0.124542923878D-04 0.000000000000D+00 0.000000000000D+00 0.154316417918D-05 0.000000000000D+00  7 21 3 24 -13 13 -24 3 2 0.12866600D+00 0.16401106D+00 0.83368478D+06 0.83368478D+06 0.83368478D+06 0.10531634D+01  1  2 12  3  7  1       -3 0.716533463765D-05 0.100000000000D+01
-.180147656794D-04 0.000000000000D+00 -.871096636386D-05 0.154316417918D-05 0.000000000000D+00  7 21 3 24 -13 13 -24 3 2 0.13508297D+00 0.16401106D+00 0.54643795D+06 0.54643795D+06 0.54643795D+06 0.10657950D+01  1  2  5  3  7  1       -3 -.959906331421D-05 0.100000000000D+01
  </mgrwgt>
  </event>
  <event>
  8     66 0.29788925E-05 0.35447232E+03 0.75467711E-02 0.95735865E-01
       -1 -1    0    0    0  501 0.00000000E+00 0.00000000E+00 0.95332786E+02 0.95333323E+02 0.32000000E+00 0.0000E+00 0.9000E+01
        1 -1    0    0  501    0 0.00000000E+00 0.00000000E+00 -.14850202E+04 0.14850202E+04 0.32000000E+00 0.0000E+00 0.9000E+01
       25  2    1    2    0    0 -.20482591E+03 0.20549735E+03 -.57148155E+03 0.70763891E+03 0.29996476E+03 0.0000E+00 0.0000E+00
       23  2    1    2    0    0 0.20482591E+03 -.20549735E+03 -.81820587E+03 0.87271465E+03 0.89371154E+02 0.0000E+00 0.0000E+00
       24  1    3    3    0    0 0.11802137E+02 0.15423296E+03 -.30423048E+03 0.35064298E+03 0.80419002E+02 0.0000E+00 0.9000E+01
      -11  1    4    4    0    0 0.42812211E+02 -.87732252E+02 -.35241457E+03 0.36568547E+03 0.51099893E-03 0.0000E+00 0.9000E+01
       11  1    4    4    0    0 0.16201369E+03 -.11776510E+03 -.46579131E+03 0.50702919E+03 0.51099893E-03 0.0000E+00 0.9000E+01
      -24  1    3    3    0    0 -.21662804E+03 0.51264385E+02 -.26725107E+03 0.35699593E+03 0.80419002E+02 0.0000E+00 0.9000E+01
#aMCatNLO 1  0  0  1  2 0.18086438D+03 0.00000000D+00  -5  7  0 0.00000000D+00 0.00000000D+00 0.00000000D+00 0.00000000D+00 0.00000000D+00
  <mgrwgt>
 0.3512332297D-03    4    2    0
 0.376259969599207D+03 0.000000000000000D+00 0.000000000000000D+00 0.376259969599207D+03
 0.376259969599207D+03 0.000000000000000D+00 0.000000000000000D+00 -.376259969599207D+03
 0.174552995864169D+03 0.118021370385298D+02 0.154232963875083D+03 0.862756202046875D+01
 0.117161334022006D+03 0.428122112737414D+02 -.877322520259087D+02 -.647838306225478D+02
 0.204620575486036D+03 0.162013694024144D+03 -.117765097343973D+03 -.418631664886002D+02
 0.256185033826204D+03 -.216628042336415D+03 0.512643854947991D+02 0.980194350906792D+02
 0.000000000000000D+00 0.000000000000000D+00 -.000000000000000D+00 -.000000000000000D+00
 0.464643285811098D+03 0.000000000000000D+00 0.000000000000000D+00 0.464643285811098D+03
 0.492268379036180D+03 0.000000000000000D+00 0.000000000000000D+00 -.492268379036180D+03
 0.213264477693842D+03 -.425583296061773D+01 0.197286529066358D+03 0.862756202046875D+01
 0.971453808975339D+02 0.339386276076381D+02 -.639409874470675D+02 -.647838306225478D+02
 0.170320223886708D+03 0.146488895585985D+03 -.761410364150927D+02 -.418631664886002D+02
 0.293219646556037D+03 -.239376692091748D+03 0.112256557936689D+03 0.980194350906792D+02
 0.182961935813157D+03 0.632050018587423D+02 -.169461063140887D+03 -.276250932250816D+02
0.194651827659D-04 0.000000000000D+00 0.000000000000D+00 0.694168148152D-06 0.000000000000D+00  7 -1 1 24 -11 11 -24 21 0 0.14666626D-01 0.22846469D+00 0.12565063D+06 0.12565063D+06 0.12565063D+06 0.11136741D+01  1  2  2  1  7  1       -1 0.518683061491D-03 0.100000000000D+01
-.107672073161D-05 0.000000000000D+00 -.747514271215D-07 0.694168148152D-06 0.000000000000D+00  7 -1 1 24 -11 11 -24 21 2 0.14666626D-01 0.22846469D+00 0.12565063D+06 0.12565063D+06 0.12565063D+06 0.11136741D+01  1  2  3  1  7  1       -1 -.355846690164D-04 0.100000000000D+01
0.126567107181D-05 0.000000000000D+00 0.000000000000D+00 0.694168148152D-06 0.000000000000D+00  7 -1 1 24 -11 11 -24 21 2 0.14666626D-01 0.22846469D+00 0.12565063D+06 0.12565063D+06 0.12565063D+06 0.11136741D+01  1  2 15  1  7  1       -1 0.418293108434D-04 0.100000000000D+01
-.525564648645D-05 0.000000000000D+00 0.000000000000D+00 0.694168148152D-06 0.000000000000D+00  7 -1 1 24 -11 11 -24 21 2 0.14666626D-01 0.22846469D+00 0.12565063D+06 0.12565063D+06 0.12565063D+06 0.11136741D+01  1  2  4  1  7  1       -1 -.173694473596D-03 0.100000000000D+01
  </mgrwgt>
  </event>
  <event>
  8     66 0.29788925E-05 0.23140120E+03 0.75467711E-02 0.10094891E+00
       -1 -1    0    0    0  501 0.00000000E+00 0.00000000E+00 0.83682427E+02 0.83683038E+02 0.32000000E+00 0.0000E+00 0.9000E+01
        1 -1    0    0  501    0 0.00000000E+00 0.00000000E+00 -.12295732E+04 0.12295732E+04 0.32000000E+00 0.0000E+00 0.9000E+01
       25  2    1    2    0    0 -.13871647E+03 -.11319020E+03 -.36325285E+03 0.50515678E+03 0.30195440E+03 0.0000E+00 0.0000E+00
       23  2    1    2    0    0 0.13871647E+03 0.11319020E+03 -.78263789E+03 0.80809947E+03 0.91915203E+02 0.0000E+00 0.0000E+00
       24  1    3    3    0    0 -.10380422E+03 -.13944594E+03 -.36655232E+03 0.41357986E+03 0.80419002E+02 0.0000E+00 0.9000E+01
      -11  1    4    4    0    0 0.10195132E+03 0.73775353E+02 -.68599150E+03 0.69743903E+03 0.51099893E-03 0.0000E+00 0.9000E+01
       11  1    4    4    0    0 0.36765146E+02 0.39414850E+02 -.96646399E+02 0.11066044E+03 0.51099893E-03 0.0000E+00 0.9000E+01
      -24  1    3    3    0    0 -.34912249E+02 0.26255735E+02 0.32994692E+01 0.91576914E+02 0.80419002E+02 0.0000E+00 0.9000E+01
#aMCatNLO 1  0  0  1  2 0.12277063D+03 0.00000000D+00  -5  7  0 0.00000000D+00 0.00000000D+00 0.00000000D+00 0.00000000D+00 0.00000000D+00
  <mgrwgt>
 0.4366635747D-03    4    2    0
 0.320771095521493D+03 0.000000000000000D+00 0.000000000000000D+00 0.320771095521493D+03
 0.320771095521493D+03 0.000000000000000D+00 0.000000000000000D+00 -.320771095521493D+03
 0.191892962623253D+03 -.103804217504451D+03 -.139445937875461D+03 -.116278969844220D+02
 0.202394897464757D+03 0.101951320693165D+03 0.737753531128114D+02 -.158514415753802D+03
 0.539002725951572D+02 0.367651455351666D+02 0.394148495062123D+02 -.181928592913010D+00
 0.193354058359818D+03 -.349122487238806D+02 0.262557352564374D+02 0.170324241331137D+03
 0.000000000000000D+00 0.000000000000000D+00 0.000000000000000D+00 -.000000000000000D+00
 0.366221683537517D+03 0.000000000000000D+00 0.000000000000000D+00 0.366221683537517D+03
 0.421675778423789D+03 0.000000000000000D+00 0.000000000000000D+00 -.421675778423789D+03
 0.218413600821076D+03 -.142407075159906D+03 -.144299348665815D+03 -.116278969844220D+02
 0.184948601325404D+03 0.655088962239019D+02 0.691935665071567D+02 -.158514415753802D+03
 0.469567266899239D+02 0.272762200978658D+02 0.382218380064601D+02 -.181928592913010D+00
 0.202864820639993D+03 -.721896952702827D+02 0.215689640614152D+02 0.170324241331137D+03
 0.134713712484908D+03 0.121811654108421D+03 0.153149800907825D+02 -.554540948862716D+02
0.118886117400D-04 0.000000000000D+00 0.000000000000D+00 0.149116171396D-06 0.000000000000D+00  7 -1 1 24 -11 11 -24 21 0 0.12874270D-01 0.18916515D+00 0.53546516D+05 0.53546516D+05 0.53546516D+05 0.11446868D+01  1  2  2  1  7  1       -1 0.586485940844D-03 0.100000000000D+01
-.574832766596D-06 0.000000000000D+00 -.456553994251D-07 0.149116171396D-06 0.000000000000D+00  7 -1 1 24 -11 11 -24 21 2 0.12874270D-01 0.18916515D+00 0.53546516D+05 0.53546516D+05 0.53546516D+05 0.11446868D+01  1  2  3  1  7  1       -1 -.371570567121D-04 0.100000000000D+01
0.765076270397D-06 0.000000000000D+00 0.000000000000D+00 0.149116171396D-06 0.000000000000D+00  7 -1 1 24 -11 11 -24 21 2 0.12874270D-01 0.18916515D+00 0.53546516D+05 0.53546516D+05 0.53546516D+05 0.11446868D+01  1  2 15  1  7  1       -1 0.494543526748D-04 0.100000000000D+01
-.250804832657D-05 0.000000000000D+00 0.000000000000D+00 0.149116171396D-06 0.000000000000D+00  7 -1 1 24 -11 11 -24 21 2 0.12874270D-01 0.18916515D+00 0.53546516D+05 0.53546516D+05 0.53546516D+05 0.11446868D+01  1  2  4  1  7  1       -1 -.162119662139D-03 0.100000000000D+01
  </mgrwgt>
  </event>
  <event>
  8     66 0.29788925E-05 0.25617704E+03 0.75467711E-02 0.89112482E-01
       -3 -1    0    0    0  501 0.00000000E+00 0.00000000E+00 0.36036074E+03 0.36036109E+03 0.50000000E+00 0.0000E+00 0.9000E+01
        3 -1    0    0  501    0 0.00000000E+00 0.00000000E+00 -.44678919E+03 0.44678947E+03 0.50000000E+00 0.0000E+00 0.9000E+01
       25  2    1    2    0    0 0.98668207E+01 0.22023029E+03 0.21058891E+03 0.42763875E+03 0.29988077E+03 0.0000E+00 0.0000E+00
       23  2    1    2    0    0 -.98668207E+01 -.22023029E+03 -.29701736E+03 0.37951182E+03 0.84918610E+02 0.0000E+00 0.0000E+00
       24  1    3    3    0    0 0.56447403E+01 0.74340372E+02 -.48242308E+02 0.11980355E+03 0.80419002E+02 0.0000E+00 0.9000E+01
      -13  1    4    4    0    0 -.34672606E+02 -.35350155E+02 -.68612814E+02 0.84614139E+02 0.10565837E+00 0.0000E+00 0.9000E+01
       13  1    4    4    0    0 0.24805785E+02 -.18488013E+03 -.22840455E+03 0.29489768E+03 0.10565837E+00 0.0000E+00 0.9000E+01
      -24  1    3    3    0    0 0.42220804E+01 0.14588992E+03 0.25883122E+03 0.30783520E+03 0.80419002E+02 0.0000E+00 0.9000E+01
#aMCatNLO 1  0  0  1  2 0.76279184D+03 0.00000000D+00  -5  7  0 0.00000000D+00 0.00000000D+00 0.00000000D+00 0.00000000D+00 0.00000000D+00
  <mgrwgt>
 0.2639064132D-03    5    2    0
 0.401254955204058D+03 0.000000000000000D+00 0.000000000000000D+00 0.401254955204058D+03
 0.401254955204058D+03 0.000000000000000D+00 0.000000000000000D+00 -.401254955204058D+03
 0.115300749085693D+03 0.564474035119665D+01 0.743403718550981D+02 -.356187142407581D+02
 0.777136932543452D+02 -.346726977583528D+02 -.353499235890758D+02 -.598966197012392D+02
 0.272004636793471D+03 0.248058770514347D+02 -.184880365576627D+03 -.197965757961092D+03
 0.337490831274607D+03 0.422208035572150D+01 0.145889917310605D+03 0.293481091903090D+03
 0.000000000000000D+00 -.000000000000000D+00 0.000000000000000D+00 0.000000000000000D+00
 0.120071534956743D+04 0.000000000000000D+00 0.000000000000000D+00 0.120071534956743D+04
 0.778381020848593D+03 0.000000000000000D+00 0.000000000000000D+00 -.778381020848593D+03
 0.136161622816528D+03 0.979585524796889D+02 0.347591824641958D+02 -.356187142407581D+02
 0.901697199296362D+02 0.269586220566941D+02 -.617754484998569D+02 -.598966197012392D+02
 0.466194765183913D+03 0.295804676561698D+03 -.301075922458111D+03 -.197965757961092D+03
 0.414665633713483D+03 0.280344627339173D+03 0.274974625386385D+02 0.293481091903090D+03
 0.871904628772462D+03 -.701066478437255D+03 0.300594725955134D+03 0.422334328718835D+03
0.886517464884D-04 0.000000000000D+00 0.000000000000D+00 0.166657615192D-06 0.000000000000D+00  7 -3 3 24 -13 13 -24 21 0 0.55440163D-01 0.68736847D-01 0.65626677D+05 0.65626677D+05 0.65626677D+05 0.11370491D+01  1  2  2  1  7  1       -3 0.248274470868D-03 0.100000000000D+01
-.371933080805D-05 0.000000000000D+00 -.340446049056D-06 0.166657615192D-06 0.000000000000D+00  7 -3 3 24 -13 13 -24 21 2 0.55440163D-01 0.68736847D-01 0.65626677D+05 0.65626677D+05 0.65626677D+05 0.11370491D+01  1  2  3  1  7  1       -3 -.134669122740D-04 0.100000000000D+01
0.539172073709D-05 0.000000000000D+00 0.000000000000D+00 0.166657615192D-06 0.000000000000D+00  7 -3 3 24 -13 13 -24 21 2 0.55440163D-01 0.68736847D-01 0.65626677D+05 0.65626677D+05 0.65626677D+05 0.11370491D+01  1  2 15  1  7  1       -3 0.195222834212D-04 0.100000000000D+01
0.625809294434D-04 0.000000000000D+00 -.345511988520D-04 0.166657615192D-06 0.000000000000D+00  7 -3 3 24 -13 13 -24 21 2 0.25945117D+00 0.68736847D-01 0.65626677D+05 0.65626677D+05 0.65626677D+05 0.11370491D+01  1  2  5  1  7  1       -3 0.118930222758D-05 0.100000000000D+01
0.111661073698D-04 0.000000000000D+00 -.646905341945D-05 0.166657615192D-06 0.000000000000D+00  7 21 3 24 -13 13 -24 3 2 0.25945117D+00 0.68736847D-01 0.65626677D+05 0.65626677D+05 0.65626677D+05 0.11370491D+01  1  2  5  3  7  1       -3 0.838726891773D-05 0.100000000000D+01
  </mgrwgt>
  </event>
  <event>
  9     66 0.29788925E-05 0.21627986E+03 0.75467711E-02 0.10233144E+00
       21 -1    0    0  502  501 0.00000000E+00 0.00000000E+00 0.13642240E+03 0.13642446E+03 0.75000000E+00 0.0000E+00 0.9000E+01
        1 -1    0    0  501    0 0.00000000E+00 0.00000000E+00 -.97142181E+03 0.97142187E+03 0.32000000E+00 0.0000E+00 0.9000E+01
       25  2    1    2    0    0 0.11344947E+03 0.10263246E+03 -.70593419E+03 0.78088231E+03 0.29669832E+03 0.0000E+00 0.0000E+00
       23  2    1    2    0    0 -.52391709E+02 -.17982787E+02 0.54120061E+02 0.11613099E+03 0.86539898E+02 0.0000E+00 0.0000E+00
       24  1    3    3    0    0 0.19410132E+02 -.75871310E+02 -.30322895E+03 0.32333917E+03 0.80419002E+02 0.0000E+00 0.9000E+01
      -11  1    4    4    0    0 -.69785240E+02 0.65336637E+01 0.49287929E+02 0.85685287E+02 0.51099893E-03 0.0000E+00 0.9000E+01
       11  1    4    4    0    0 0.17393531E+02 -.24516451E+02 0.48321317E+01 0.30445702E+02 0.51099893E-03 0.0000E+00 0.9000E+01
      -24  1    3    3    0    0 0.94039338E+02 0.17850377E+03 -.40270524E+03 0.45754314E+03 0.80419002E+02 0.0000E+00 0.9000E+01
        1  1    1    2  502    0 -.61057760E+02 -.84649675E+02 -.18318529E+03 0.21083304E+03 0.32000000E+00 0.0000E+00 0.9000E+01
#aMCatNLO 2  0  0  1  1 0.10437249D+03 0.00000000D+00  -5  7  0 0.00000000D+00 0.00000000D+00 0.00000000D+00 0.00000000D+00 0.00000000D+00
  <mgrwgt>
 0.4935886025D-03    1    2    0
 0.303676463331372D+03 0.000000000000000D+00 0.000000000000000D+00 0.303676463331372D+03
 0.303676463331372D+03 0.000000000000000D+00 0.000000000000000D+00 -.303676463331372D+03
 0.160743385795136D+03 0.390798253090319D+01 -.973632855333590D+02 -.993797686916264D+02
 0.185551535517563D+03 -.878691922886307D+02 -.185376892588474D+02 0.162372200380519D+03
 0.518202011174650D+02 0.123413077288939D+02 -.315207868693974D+02 0.392360212372419D+02
 0.209237804232581D+03 0.716199020288336D+02 0.147421761661604D+03 -.102228452926134D+03
 0.000000000000000D+00 -.000000000000000D+00 -.000000000000000D+00 -.000000000000000D+00
 0.342871035774273D+03 0.000000000000000D+00 0.000000000000000D+00 0.342871035774273D+03
 0.386514712831484D+03 0.000000000000000D+00 0.000000000000000D+00 -.386514712831484D+03
 0.149922524277755D+03 0.194101316240743D+02 -.758713101018985D+02 -.993797686916264D+02
 0.176854177180961D+03 -.697852403379603D+02 0.653366366722724D+01 0.162372200380519D+03
 0.494272864224013D+02 0.173935313435922D+02 -.245164505577842D+02 0.392360212372419D+02
 0.240051799242725D+03 0.940393378061667D+02 0.178503772292369D+03 -.102228452926134D+03
 0.113129961481914D+03 -.610577604358728D+02 -.846496752999134D+02 -.436436770572111D+02
0.911104485057D-06 0.000000000000D+00 0.000000000000D+00 0.458676527990D-08 0.596839361739D-13  7 21 1 24 -11 11 -24 1 2 0.20988211D-01 0.14944958D+00 0.71281146D+05 0.71281146D+05 0.71281146D+05 0.11339906D+01  1  2  1  3  7  1       -1 0.493588602542D-03 0.100000000000D+01
  </mgrwgt>
  </event>
  <event>
  8     66 0.29788925E-05 0.12263188E+03 0.75467711E-02 0.10296700E+00
       -3 -1    0    0    0  501 0.00000000E+00 0.00000000E+00 0.36042241E+03 0.36042276E+03 0.50000000E+00 0.0000E+00 0.9000E+01
        3 -1    0    0  501    0 0.00000000E+00 0.00000000E+00 -.13433491E+03 0.13433584E+03 0.50000000E+00 0.0000E+00 0.9000E+01
       25  2    1    2    0    0 0.13583862E+01 -.87981276E+02 0.17444859E+03 0.35832117E+03 0.30036511E+03 0.0000E+00 0.0000E+00
       23  2    1    2    0    0 -.13583862E+01 0.87981276E+02 0.51638903E+02 0.13643743E+03 0.90587225E+02 0.0000E+00 0.0000E+00
       24  1    3    3    0    0 0.12161696E+03 -.81938286E+02 0.79587672E+02 0.18521874E+03 0.80419002E+02 0.0000E+00 0.9000E+01
      -11  1    4    4    0    0 -.31553558E+02 0.36540148E+02 -.11447142E+02 0.49616998E+02 0.51099893E-03 0.0000E+00 0.9000E+01
       11  1    4    4    0    0 0.30195172E+02 0.51441128E+02 0.63086044E+02 0.86820430E+02 0.51099893E-03 0.0000E+00 0.9000E+01
      -24  1    3    3    0    0 -.12025857E+03 -.60429907E+01 0.94860922E+02 0.17310243E+03 0.80419002E+02 0.0000E+00 0.9000E+01
#aMCatNLO 1  0  0  2  1 0.82103036D+02 0.00000000D+00  -5  7  0 0.00000000D+00 0.00000000D+00 0.00000000D+00 0.00000000D+00 0.00000000D+00
  <mgrwgt>
 0.1991449558D-03    9    2    0
 0.220040062810383D+03 0.000000000000000D+00 0.000000000000000D+00 0.220040062810383D+03
 0.220040062810383D+03 0.000000000000000D+00 0.000000000000000D+00 -.220040062810383D+03
 0.167344040560432D+03 0.121616959974261D+03 -.819382856824460D+02 -.567841023191131D+01
 0.616626168008617D+02 -.315535579048448D+02 0.365401482447360D+02 -.383597296722518D+02
 0.651976468071463D+02 0.301951717344524D+02 0.514411282118455D+02 0.263210007676150D+02
 0.145875821452327D+03 -.120258573803868D+03 -.604299077413554D+01 0.177171391365480D+02
 0.000000000000000D+00 -.000000000000000D+00 -.000000000000000D+00 -.000000000000000D+00
 0.260253252625723D+03 0.000000000000000D+00 0.000000000000000D+00 0.260253252625723D+03
 0.270113044364804D+03 0.000000000000000D+00 0.000000000000000D+00 -.270113044364804D+03
 0.189304791684632D+03 0.153900660947567D+03 -.751759962855925D+02 -.567841023191131D+01
 0.583624468011679D+02 -.206889400726814D+02 0.388159000251175D+02 -.383597296722518D+02
 0.738037891908469D+02 0.427775227444674D+02 0.540766841195423D+02 0.263210007676150D+02
 0.126202319169880D+03 -.956301759540056D+02 -.884215645493233D+00 0.177171391365480D+02
 0.826929501440008D+02 -.803590676653472D+02 -.168323722135740D+02 -.985979173908132D+01
0.505579471598D-05 0.000000000000D+00 0.000000000000D+00 0.272423162168D-06 0.000000000000D+00  7 -3 3 24 -11 11 -24 21 0 0.55449700D-01 0.20667008D-01 0.44093806D+05 0.44093806D+05 0.44093806D+05 0.11521285D+01  1  2  2  2  7  2        3 0.141153766357D-03 0.100000000000D+01
-.280130387914D-06 0.000000000000D+00 -.194155829307D-07 0.272423162168D-06 0.000000000000D+00  7 -3 3 24 -11 11 -24 21 2 0.55449700D-01 0.20667008D-01 0.44093806D+05 0.44093806D+05 0.44093806D+05 0.11521285D+01  1  2  3  2  7  2        3 -.103816192378D-04 0.100000000000D+01
0.330200103343D-06 0.000000000000D+00 0.000000000000D+00 0.272423162168D-06 0.000000000000D+00  7 -3 3 24 -11 11 -24 21 2 0.55449700D-01 0.20667008D-01 0.44093806D+05 0.44093806D+05 0.44093806D+05 0.11521285D+01  1  2 15  2  7  2        3 0.122372005791D-04 0.100000000000D+01
0.243240106161D-05 0.000000000000D+00 0.000000000000D+00 0.272423162168D-06 0.000000000000D+00  7 -3 3 24 -11 11 -24 21 2 0.55449700D-01 0.26887060D-01 0.64824007D+05 0.64824007D+05 0.64824007D+05 0.11375067D+01  1  2 12  2  7  2        3 0.554736334201D-04 0.100000000000D+01
-.259331150832D-05 0.000000000000D+00 0.000000000000D+00 0.272423162168D-06 0.000000000000D+00  7 -3 3 24 -11 11 -24 21 2 0.55449700D-01 0.20667008D-01 0.44093806D+05 0.44093806D+05 0.44093806D+05 0.11521285D+01  1  2  4  2  7  2        3 -.961080047223D-04 0.100000000000D+01
-.540174795342D-05 0.000000000000D+00 -.238082535688D-05 0.272423162168D-06 0.000000000000D+00  7 -3 3 24 -11 11 -24 21 2 0.55449700D-01 0.29761766D-01 0.44093806D+05 0.44093806D+05 0.44093806D+05 0.11521285D+01  1  2  5  2  7  2        3 -.104153655557D-03 0.100000000000D+01
0.601552532051D-05 0.000000000000D+00 0.223082849959D-05 0.272423162168D-06 0.000000000000D+00  7 -3 3 24 -11 11 -24 21 2 0.55449700D-01 0.20667008D-01 0.44093806D+05 0.44093806D+05 0.44093806D+05 0.11521285D+01  1  2  6  2  7  2        3 0.222935090542D-03 0.100000000000D+01
0.854707085045D-07 0.000000000000D+00 0.000000000000D+00 0.272423162168D-06 0.000000000000D+00  7 -3 21 24 -11 11 -24 -3 2 0.55449700D-01 0.26887060D-01 0.64824007D+05 0.64824007D+05 0.64824007D+05 0.11375067D+01  1  2 12  4  7  2        3 0.323299466761D-04 0.100000000000D+01
-.168938208699D-06 0.000000000000D+00 -.105949122582D-06 0.272423162168D-06 0.000000000000D+00  7 -3 21 24 -11 11 -24 -3 2 0.55449700D-01 0.29761766D-01 0.44093806D+05 0.44093806D+05 0.44093806D+05 0.11521285D+01  1  2  5  4  7  2        3 -.543414022945D-04 0.100000000000D+01
  </mgrwgt>
  </event>
  <event>
  8     66 0.29788925E-05 0.44504210E+03 0.75467711E-02 0.90770456E-01
       -1 -1    0    0    0  501 0.00000000E+00 0.00000000E+00 0.92935764E+03 0.92935770E+03 0.32000000E+00 0.0000E+00 0.9000E+01
        1 -1    0    0  501    0 0.00000000E+00 0.00000000E+00 -.44599631E+03 0.44599642E+03 0.32000000E+00 0.0000E+00 0.9000E+01
       25  2    1    2    0    0 0.45889756E+03 0.25593962E+03 0.57032765E+03 0.83472296E+03 0.30886360E+03 0.0000E+00 0.0000E+00
       23  2    1    2    0    0 -.45889756E+03 -.25593962E+03 -.86966321E+02 0.54063116E+03 0.92880853E+02 0.0000E+00 0.0000E+00
       24  1    3    3    0    0 0.36929390E+03 0.64628127E+02 0.36205002E+03 0.52735397E+03 0.80419002E+02 0.0000E+00 0.9000E+01
      -13  1    4    4    0    0 -.29753320E+03 -.17304930E+03 -.12185635E+02 0.34441337E+03 0.10565837E+00 0.0000E+00 0.9000E+01
       13  1    4    4    0    0 -.16136436E+03 -.82890329E+02 -.74780686E+02 0.19621780E+03 0.10565837E+00 0.0000E+00 0.9000E+01
      -24  1    3    3    0    0 0.89603662E+02 0.19131150E+03 0.20827763E+03 0.30736898E+03 0.80419002E+02 0.0000E+00 0.9000E+01
#aMCatNLO 1  0  0  2  1 0.26900541D+03 0.00000000D+00  -5  7  0 0.00000000D+00 0.00000000D+00 0.00000000D+00 0.00000000D+00 0.00000000D+00
  <mgrwgt>
 0.6354902223D-03    9    2    0
 0.643809128794744D+03 0.000000000000000D+00 0.000000000000000D+00 0.643809128794744D+03
 0.643809128794744D+03 0.000000000000000D+00 0.000000000000000D+00 -.643809128794744D+03
 0.427376262379902D+03 0.369293896993633D+03 0.646281274606999D+02 0.188755070066009D+03
 0.372455599554294D+03 -.297533378972868D+03 -.173049411803279D+03 -.142305878694013D+03
 0.237659588008207D+03 -.161364180506002D+03 -.828902121154417D+02 -.153534666304760D+03
 0.250126807647085D+03 0.896036624852370D+02 0.191311496458021D+03 0.107085474932764D+03
 0.000000000000000D+00 -.000000000000000D+00 -.000000000000000D+00 -.000000000000000D+00
 0.734925292304502D+03 0.000000000000000D+00 0.000000000000000D+00 0.734925292304502D+03
 0.891998778218385D+03 0.000000000000000D+00 0.000000000000000D+00 -.891998778218385D+03
 0.514209605564785D+03 0.466530871553855D+03 0.682991355164751D+02 0.188755070066009D+03
 0.317017489031012D+03 -.226331931014575D+03 -.170361328487032D+03 -.142305878694013D+03
 0.208449639042390D+03 -.115294763962521D+03 -.811509436939294D+02 -.153534666304760D+03
 0.275741332298897D+03 0.143909731306740D+03 0.193361724954155D+03 0.107085474932764D+03
 0.311506004585803D+03 -.268813907883499D+03 -.101485882896693D+02 -.157073485913883D+03
0.216652690555D-03 0.000000000000D+00 0.000000000000D+00 0.197629557752D-07 0.000000000000D+00  7 -1 1 24 -13 13 -24 21 0 0.14297811D+00 0.68614830D-01 0.32210494D+06 0.32210494D+06 0.32210494D+06 0.10822749D+01  1  2  2  2  7  2        1 0.562268306043D-03 0.100000000000D+01
-.118036087201D-04 0.000000000000D+00 -.832003377696D-06 0.197629557752D-07 0.000000000000D+00  7 -1 1 24 -13 13 -24 21 2 0.14297811D+00 0.68614830D-01 0.32210494D+06 0.32210494D+06 0.32210494D+06 0.10822749D+01  1  2  3  2  7  2        1 -.358814081590D-04 0.100000000000D+01
0.138285113115D-04 0.000000000000D+00 0.000000000000D+00 0.197629557752D-07 0.000000000000D+00  7 -1 1 24 -13 13 -24 21 2 0.14297811D+00 0.68614830D-01 0.32210494D+06 0.32210494D+06 0.32210494D+06 0.10822749D+01  1  2 15  2  7  2        1 0.420368440168D-04 0.100000000000D+01
0.108047608529D-03 0.000000000000D+00 0.000000000000D+00 0.197629557752D-07 0.000000000000D+00  7 -1 1 24 -13 13 -24 21 2 0.14297811D+00 0.98445747D-01 0.50814791D+06 0.50814791D+06 0.50814791D+06 0.10680146D+01  1  2 12  2  7  2        1 0.186608140984D-03 0.100000000000D+01
-.156786890854D-03 0.000000000000D+00 0.000000000000D+00 0.197629557752D-07 0.000000000000D+00  7 -1 1 24 -13 13 -24 21 2 0.14297811D+00 0.68614830D-01 0.32210494D+06 0.32210494D+06 0.32210494D+06 0.10822749D+01  1  2  4  2  7  2        1 -.476611395561D-03 0.100000000000D+01
-.211438529880D-03 0.000000000000D+00 -.875510299541D-04 0.197629557752D-07 0.000000000000D+00  7 -1 1 24 -13 13 -24 21 2 0.14297811D+00 0.10499185D+00 0.32210494D+06 0.32210494D+06 0.32210494D+06 0.10822749D+01  1  2  5  2  7  2        1 -.348909117997D-03 0.100000000000D+01
0.234507043360D-03 0.000000000000D+00 0.801863927481D-04 0.197629557752D-07 0.000000000000D+00  7 -1 1 24 -13 13 -24 21 2 0.14297811D+00 0.68614830D-01 0.32210494D+06 0.32210494D+06 0.32210494D+06 0.10822749D+01  1  2  6  2  7  2        1 0.712870371980D-03 0.100000000000D+01
0.477298777501D-05 0.000000000000D+00 0.000000000000D+00 0.197629557752D-07 0.000000000000D+00  7 -1 21 24 -13 13 -24 -1 2 0.14297811D+00 0.98445747D-01 0.50814791D+06 0.50814791D+06 0.50814791D+06 0.10680146D+01  1  2 12  4  7  2        1 0.181448744434D-04 0.100000000000D+01
-.728965069669D-05 0.000000000000D+00 -.436123589128D-05 0.197629557752D-07 0.000000000000D+00  7 -1 21 24 -13 13 -24 -1 2 0.14297811D+00 0.10499185D+00 0.32210494D+06 0.32210494D+06 0.32210494D+06 0.10822749D+01  1  2  5  4  7  2        1 -.250363934900D-04 0.100000000000D+01
  </mgrwgt>
  </event>
  <event>
  8     66 0.29788925E-05 0.26826840E+03 0.75467711E-02 0.95723965E-01
       -1 -1    0    0    0  501 0.00000000E+00 0.00000000E+00 0.23961939E+03 0.23961960E+03 0.32000000E+00 0.0000E+00 0.9000E+01
        1 -1    0    0  501    0 0.00000000E+00 0.00000000E+00 -.32436691E+03 0.32436707E+03 0.32000000E+00 0.0000E+00 0.9000E+01
       25  2    1    2    0    0 -.14588224E+03 -.10763266E+03 -.59074771E+02 0.35406892E+03 0.29834301E+03 0.0000E+00 0.0000E+00
       23  2    1    2    0    0 0.14588224E+03 0.10763266E+03 -.25672754E+02 0.20991775E+03 0.10266428E+03 0.0000E+00 0.0000E+00
       24  1    3    3    0    0 0.34051793E+02 0.46390146E+02 -.13217898E+02 0.99767224E+02 0.80419002E+02 0.0000E+00 0.9000E+01
      -11  1    4    4    0    0 0.71719321E+02 0.82256166E+02 0.30699554E+02 0.11336755E+03 0.51099893E-03 0.0000E+00 0.9000E+01
       11  1    4    4    0    0 0.74162916E+02 0.25376498E+02 -.56372309E+02 0.96550205E+02 0.51099893E-03 0.0000E+00 0.9000E+01
      -24  1    3    3    0    0 -.17993403E+03 -.15402281E+03 -.45856873E+02 0.25430169E+03 0.80419002E+02 0.0000E+00 0.9000E+01
#aMCatNLO 1  0  0  1  1 0.29272151D+03 0.00000000D+00  -5  7  0 0.00000000D+00 0.00000000D+00 0.00000000D+00 0.00000000D+00 0.00000000D+00
  <mgrwgt>
 0.5630282639D-03    5    2    0
 0.278791506724316D+03 0.000000000000000D+00 0.000000000000000D+00 0.278791506724316D+03
 0.278791506724316D+03 0.000000000000000D+00 0.000000000000000D+00 -.278791506724316D+03
 0.989040173566320D+02 0.340517927429129D+02 0.463901460310403D+02 0.179400588708638D+01
 0.119335585673697D+03 0.717193224852391D+02 0.822561652801774D+02 0.482829583159791D+02
 0.890909748073853D+02 0.741629165224578D+02 0.253764991223454D+02 -.423449748766807D+02
 0.250252435610918D+03 -.179934031750610D+03 -.154022810433563D+03 -.773198932638475D+01
 0.000000000000000D+00 -.000000000000000D+00 0.000000000000000D+00 0.000000000000000D+00
 0.552345878760796D+03 0.000000000000000D+00 0.000000000000000D+00 0.552345878760796D+03
 0.405081529779011D+03 0.000000000000000D+00 0.000000000000000D+00 -.405081529779011D+03
 0.128573860655711D+03 0.900868983235483D+02 0.441038998600290D+02 0.179400588708638D+01
 0.170640617257810D+03 0.143149772290372D+03 0.793417852559336D+02 0.482829583159791D+02
 0.138980611032039D+03 0.130344271404631D+03 0.230842859436486D+02 -.423449748766807D+02
 0.191554623812189D+03 -.711027667618423D+02 -.158463152970419D+03 -.773198932638475D+01
 0.327677695782058D+03 -.292478175256708D+03 0.119331819108074D+02 0.147264348981785D+03
0.835170335643D-05 0.000000000000D+00 0.000000000000D+00 0.230028092537D-08 0.000000000000D+00  7 -1 1 24 -11 11 -24 21 0 0.36864549D-01 0.49902630D-01 0.71967932D+05 0.71967932D+05 0.71967932D+05 0.11336374D+01  1  2  2  1  7  1       -1 0.558510322381D-03 0.100000000000D+01
-.463148359800D-06 0.000000000000D+00 -.320727399427D-07 0.230028092537D-08 0.000000000000D+00  7 -1 1 24 -11 11 -24 21 2 0.36864549D-01 0.49902630D-01 0.71967932D+05 0.71967932D+05 0.71967932D+05 0.11336374D+01  1  2  3  1  7  1       -1 -.398038089288D-04 0.100000000000D+01
0.544828886310D-06 0.000000000000D+00 0.000000000000D+00 0.230028092537D-08 0.000000000000D+00  7 -1 1 24 -11 11 -24 21 2 0.36864549D-01 0.49902630D-01 0.71967932D+05 0.71967932D+05 0.71967932D+05 0.11336374D+01  1  2 15  1  7  1       -1 0.468235813226D-04 0.100000000000D+01
-.713910801189D-06 0.000000000000D+00 -.260140014619D-05 0.230028092537D-08 0.000000000000D+00  7 -1 1 24 -11 11 -24 21 2 0.99690051D-01 0.49902630D-01 0.71967932D+05 0.71967932D+05 0.71967932D+05 0.11336374D+01  1  2  5  1  7  1       -1 -.937105601174D-05 0.100000000000D+01
0.719460577662D-07 0.000000000000D+00 -.288752639542D-06 0.230028092537D-08 0.000000000000D+00  7 21 1 24 -11 11 -24 1 2 0.99690051D-01 0.49902630D-01 0.71967932D+05 0.71967932D+05 0.71967932D+05 0.11336374D+01  1  2  5  3  7  1       -1 0.686922511632D-05 0.100000000000D+01
  </mgrwgt>
  </event>
  <event>
  8     66 0.29788925E-05 0.43305096E+03 0.75467711E-02 0.93783374E-01
       -1 -1    0    0    0  501 0.00000000E+00 0.00000000E+00 0.29194370E+03 0.29194388E+03 0.32000000E+00 0.0000E+00 0.9000E+01
        1 -1    0    0  501    0 0.00000000E+00 0.00000000E+00 -.12284219E+04 0.12284219E+04 0.32000000E+00 0.0000E+00 0.9000E+01
       25  2    1    2    0    0 0.44853270E+03 0.13068316E+03 -.88030262E+03 0.10407811E+04 0.30005475E+03 0.0000E+00 0.0000E+00
       23  2    1    2    0    0 -.44853270E+03 -.13068316E+03 -.56175584E+02 0.47958476E+03 0.92661622E+02 0.0000E+00 0.0000E+00
       24  1    3    3    0    0 0.29207392E+02 0.13967269E+02 -.50560569E+02 0.10035808E+03 0.80419002E+02 0.0000E+00 0.9000E+01
      -13  1    4    4    0    0 -.12350017E+03 -.39831286E+01 0.11950812E+02 0.12414101E+03 0.10565837E+00 0.0000E+00 0.9000E+01
       13  1    4    4    0    0 -.32503253E+03 -.12670004E+03 -.68126396E+02 0.35544375E+03 0.10565837E+00 0.0000E+00 0.9000E+01
      -24  1    3    3    0    0 0.41932530E+03 0.11671589E+03 -.82974205E+03 0.94042299E+03 0.80419002E+02 0.0000E+00 0.9000E+01
#aMCatNLO 1  0  0  2  1 0.74323167D+02 0.00000000D+00  -5  7  0 0.00000000D+00 0.00000000D+00 0.00000000D+00 0.00000000D+00 0.00000000D+00
  <mgrwgt>
 0.7408570718D-03    9    2    0
 0.598857414112907D+03 0.000000000000000D+00 0.000000000000000D+00 0.598857414112907D+03
 0.598857414112907D+03 0.000000000000000D+00 0.000000000000000D+00 -.598857414112907D+03
 0.878607458840549D+02 0.292073917940248D+02 0.139672694440159D+02 0.142876996679149D+02
 0.166927097526868D+03 -.123499905311704D+03 -.398296909473969D+01 0.112234420896332D+03
 0.397929452835595D+03 -.325032790447394D+03 -.126700194918411D+03 0.191438228093693D+03
 0.544997531979296D+03 0.419325303965073D+03 0.116715894569135D+03 -.317960348657940D+03
 0.000000000000000D+00 0.000000000000000D+00 0.000000000000000D+00 -.000000000000000D+00
 0.617392866223524D+03 0.000000000000000D+00 0.000000000000000D+00 0.617392866223524D+03
 0.679451304779260D+03 0.000000000000000D+00 0.000000000000000D+00 -.679451304779260D+03
 0.864613929793453D+02 0.268587448226806D+02 0.910087832617486D+01 0.142876996679149D+02
 0.170801810653718D+03 -.128050136180287D+03 -.134110369794277D+02 0.112234420896332D+03
 0.414542397751724D+03 -.335979246036031D+03 -.149381225698399D+03 0.191438228093693D+03
 0.528213041338183D+03 0.404865908393913D+03 0.867560602324434D+02 -.317960348657940D+03
 0.968255282798142D+02 0.323047289997236D+02 0.669353241192081D+02 -.620584385557361D+02
0.712374624853D-04 0.000000000000D+00 0.000000000000D+00 0.337055442567D-05 0.000000000000D+00  7 -1 1 24 -13 13 -24 21 0 0.44914432D-01 0.18898800D+00 0.25087179D+06 0.25087179D+06 0.25087179D+06 0.10903454D+01  1  2  2  2  7  2        1 0.433658540738D-03 0.100000000000D+01
-.380401796994D-05 0.000000000000D+00 -.273570613198D-06 0.337055442567D-05 0.000000000000D+00  7 -1 1 24 -13 13 -24 21 2 0.44914432D-01 0.18898800D+00 0.25087179D+06 0.25087179D+06 0.25087179D+06 0.10903454D+01  1  2  3  2  7  2        1 -.275302533373D-04 0.100000000000D+01
0.448066425064D-05 0.000000000000D+00 0.000000000000D+00 0.337055442567D-05 0.000000000000D+00  7 -1 1 24 -13 13 -24 21 2 0.44914432D-01 0.18898800D+00 0.25087179D+06 0.25087179D+06 0.25087179D+06 0.10903454D+01  1  2 15  2  7  2        1 0.324272448012D-04 0.100000000000D+01
0.170845202194D-03 0.000000000000D+00 0.000000000000D+00 0.337055442567D-05 0.000000000000D+00  7 -1 1 24 -13 13 -24 21 2 0.44914432D-01 0.21707837D+00 0.29043025D+06 0.29043025D+06 0.29043025D+06 0.10855951D+01  1  2 12  2  7  2        1 0.911100025427D-03 0.100000000000D+01
-.172847187991D-03 0.000000000000D+00 0.000000000000D+00 0.337055442567D-05 0.000000000000D+00  7 -1 1 24 -13 13 -24 21 2 0.44914432D-01 0.18898800D+00 0.25087179D+06 0.25087179D+06 0.25087179D+06 0.10903454D+01  1  2  4  2  7  2        1 -.125092123950D-02 0.100000000000D+01
-.331655436006D-03 0.000000000000D+00 -.610631720739D-04 0.337055442567D-05 0.000000000000D+00  7 -1 1 24 -13 13 -24 21 2 0.44914432D-01 0.21761917D+00 0.25087179D+06 0.25087179D+06 0.25087179D+06 0.10903454D+01  1  2  5  2  7  2        1 -.178583482079D-02 0.100000000000D+01
0.337508165184D-03 0.000000000000D+00 0.604606272974D-04 0.337055442567D-05 0.000000000000D+00  7 -1 1 24 -13 13 -24 21 2 0.44914432D-01 0.18898800D+00 0.25087179D+06 0.25087179D+06 0.25087179D+06 0.10903454D+01  1  2  6  2  7  2        1 0.244259763344D-02 0.100000000000D+01
0.365339157038D-05 0.000000000000D+00 0.000000000000D+00 0.337055442567D-05 0.000000000000D+00  7 -1 21 24 -13 13 -24 -1 2 0.44914432D-01 0.21707837D+00 0.29043025D+06 0.29043025D+06 0.29043025D+06 0.10855951D+01  1  2 12  4  7  2        1 0.164605314532D-04 0.100000000000D+01
-.681702731406D-05 0.000000000000D+00 -.132497566301D-05 0.337055442567D-05 0.000000000000D+00  7 -1 21 24 -13 13 -24 -1 2 0.44914432D-01 0.21761917D+00 0.25087179D+06 0.25087179D+06 0.25087179D+06 0.10903454D+01  1  2  5  4  7  2        1 -.311005904064D-04 0.100000000000D+01
  </mgrwgt>
  </event>
  <event>
  8     66 0.29788925E-05 0.34149799E+03 0.75467711E-02 0.89309505E-01
       -3 -1    0    0    0  501 0.00000000E+00 0.00000000E+00 0.28883573E+03 0.28883616E+03 0.50000000E+00 0.0000E+00 0.9000E+01
        3 -1    0    0  501    0 0.00000000E+00 0.00000000E+00 -.45028614E+03 0.45028642E+03 0.50000000E+00 0.0000E+00 0.9000E+01
       25  2    1    2    0    0 0.17884436E+03 -.20541959E+03 -.19156551E+03 0.44846931E+03 0.30040783E+03 0.0000E+00 0.0000E+00
       23  2    1    2    0    0 -.17884436E+03 0.20541959E+03 0.30115091E+02 0.29065327E+03 0.96901457E+02 0.0000E+00 0.0000E+00
       24  1    3    3    0    0 -.76465755E+00 -.19148686E+03 -.86852567E+02 0.22511861E+03 0.80419002E+02 0.0000E+00 0.9000E+01
      -11  1    4    4    0    0 -.70468627E+02 0.42320863E+02 0.45984984E+02 0.94188649E+02 0.51099893E-03 0.0000E+00 0.9000E+01
       11  1    4    4    0    0 -.10837573E+03 0.16309873E+03 -.15869893E+02 0.19646462E+03 0.51099893E-03 0.0000E+00 0.9000E+01
      -24  1    3    3    0    0 0.17960902E+03 -.13932727E+02 -.10471294E+03 0.22335070E+03 0.80419002E+02 0.0000E+00 0.9000E+01
#aMCatNLO 1  0  0  1  1 0.68291922D+03 0.00000000D+00  -5  7  0 0.00000000D+00 0.00000000D+00 0.00000000D+00 0.00000000D+00 0.00000000D+00
  <mgrwgt>
 0.7628595379D-04    5    2    0
 0.360636920691810D+03 0.000000000000000D+00 0.000000000000000D+00 0.360636920691810D+03
 0.360636920691810D+03 0.000000000000000D+00 0.000000000000000D+00 -.360636920691810D+03
 0.211248288434613D+03 -.764657544156492D+00 -.191486864089045D+03 -.386111330106561D+02
 0.106812763209584D+03 -.704686267123011D+02 0.423208629338068D+02 0.682061844284443D+02
 0.197774035962218D+03 -.108375732458694D+03 0.163098728369543D+03 0.277141609843095D+02
 0.205438753777205D+03 0.179609016715152D+03 -.139327272143046D+02 -.573092124020977D+02
 0.000000000000000D+00 0.000000000000000D+00 0.000000000000000D+00 0.000000000000000D+00
 0.940415281796070D+03 0.000000000000000D+00 0.000000000000000D+00 0.940415281796070D+03
 0.759377356027818D+03 0.000000000000000D+00 0.000000000000000D+00 -.759377356027818D+03
 0.469626527252870D+03 -.475485910267121D+02 -.458617674151605D+03 -.386111330106561D+02
 0.119134999784426D+03 -.859938376187593D+02 -.463262827231668D+02 0.682061844284443D+02
 0.137950772877797D+03 -.131443889428718D+03 0.313822394097062D+02 0.277141609843095D+02
 0.266572457342446D+03 0.147176415897415D+03 -.199119099627991D+03 -.573092124020977D+02
 0.706507880566349D+03 0.117809902176775D+03 0.672680817093057D+03 0.181037925768252D+03
0.166632208531D-04 0.000000000000D+00 0.000000000000D+00 0.894113810201D-07 0.000000000000D+00  7 -3 3 24 -11 11 -24 21 0 0.44436320D-01 0.69274846D-01 0.11662088D+06 0.11662088D+06 0.11662088D+06 0.11162831D+01  1  2  2  1  7  1       -3 0.725792883205D-04 0.100000000000D+01
-.922387633391D-06 0.000000000000D+00 -.639911556026D-07 0.894113810201D-07 0.000000000000D+00  7 -3 3 24 -11 11 -24 21 2 0.44436320D-01 0.69274846D-01 0.11662088D+06 0.11662088D+06 0.11662088D+06 0.11162831D+01  1  2  3  1  7  1       -3 -.500628930341D-05 0.100000000000D+01
0.107084690589D-05 0.000000000000D+00 0.000000000000D+00 0.894113810201D-07 0.000000000000D+00  7 -3 3 24 -11 11 -24 21 2 0.44436320D-01 0.69274846D-01 0.11662088D+06 0.11662088D+06 0.11662088D+06 0.11162831D+01  1  2 15  1  7  1       -3 0.581205690153D-05 0.100000000000D+01
0.820240517810D-05 0.000000000000D+00 -.653069010210D-05 0.894113810201D-07 0.000000000000D+00  7 -3 3 24 -11 11 -24 21 2 0.20600985D+00 0.69274846D-01 0.11662088D+06 0.11662088D+06 0.11662088D+06 0.11162831D+01  1  2  5  1  7  1       -3 0.640127810907D-06 0.100000000000D+01
0.143243403455D-05 0.000000000000D+00 -.121437447582D-05 0.894113810201D-07 0.000000000000D+00  7 21 3 24 -11 11 -24 3 2 0.20600985D+00 0.69274846D-01 0.11662088D+06 0.11662088D+06 0.11662088D+06 0.11162831D+01  1  2  5  3  7  1       -3 0.226077005772D-05 0.100000000000D+01
  </mgrwgt>
  </event>
  <event>
  8     66 0.29788925E-05 0.30321939E+03 0.75467711E-02 0.84950315E-01
       -1 -1    0    0    0  501 0.00000000E+00 0.00000000E+00 0.16880548E+03 0.16880579E+03 0.32000000E+00 0.0000E+00 0.9000E+01
        1 -1    0    0  501    0 0.00000000E+00 0.00000000E+00 -.58751771E+03 0.58751780E+03 0.32000000E+00 0.0000E+00 0.9000E+01
       25  2    1    2    0    0 0.18314675E+03 -.13086859E+03 -.17614838E+03 0.41430543E+03 0.29991901E+03 0.0000E+00 0.0000E+00
       23  2    1    2    0    0 -.18314675E+03 0.13086859E+03 -.24256385E+03 0.34201816E+03 0.86428453E+02 0.0000E+00 0.0000E+00
       24  1    3    3    0    0 0.16538619E+03 0.37387217E+02 -.88446782E+02 0.20746191E+03 0.80419002E+02 0.0000E+00 0.9000E+01
      -13  1    4    4    0    0 -.46639828E+02 0.70908342E+01 -.94544007E+02 0.10566046E+03 0.10565837E+00 0.0000E+00 0.9000E+01
       13  1    4    4    0    0 -.13650692E+03 0.12377776E+03 -.14801984E+03 0.23635769E+03 0.10565837E+00 0.0000E+00 0.9000E+01
      -24  1    3    3    0    0 0.17760563E+02 -.16825581E+03 -.87701594E+02 0.20684352E+03 0.80419002E+02 0.0000E+00 0.9000E+01
#aMCatNLO 1  0  0  2  1 0.12250715D+04 0.00000000D+00  -5  7  0 0.00000000D+00 0.00000000D+00 0.00000000D+00 0.00000000D+00 0.00000000D+00
  <mgrwgt>
 0.1399036679D-02    3    2    0
 0.314922781348740D+03 0.000000000000000D+00 0.000000000000000D+00 0.314922781348740D+03
 0.314922781348740D+03 0.000000000000000D+00 0.000000000000000D+00 -.314922781348740D+03
 0.190323775947870D+03 0.165386186849916D+03 0.373872164685476D+02 0.317100769576967D+02
 0.640262594028475D+02 -.466396933853066D+02 0.709066028248443D+01 -.432876822064165D+02
 0.185418932760559D+03 -.136507056557843D+03 0.123777931902425D+03 -.206162001818284D+02
 0.190076594586203D+03 0.177605630932333D+02 -.168255808653457D+03 0.321938054305481D+02
 0.000000000000000D+00 0.000000000000000D+00 -.000000000000000D+00 0.000000000000000D+00
 0.187025931334108D+04 0.000000000000000D+00 0.000000000000000D+00 0.187025931334108D+04
 0.100630983235851D+04 0.000000000000000D+00 0.000000000000000D+00 -.100630983235851D+04
 0.953775355480700D+02 -.896531931671737D+01 0.392906146775420D+02 0.317100769576967D+02
 0.230889203205486D+03 -.226614208827190D+03 0.905544497456113D+01 -.432876822064165D+02
 0.673642606499336D+03 -.660756218997958D+03 0.129501168476600D+03 -.206162001818284D+02
 0.377590442818973D+03 -.328662778313618D+03 -.164473899439794D+03 0.321938054305481D+02
 0.149906935762772D+04 0.122499852545548D+04 -.133733286889091D+02 0.863949480982573D+03
0.257983702422D-04 0.000000000000D+00 0.000000000000D+00 0.107608286364D-06 0.000000000000D+00  7 -1 1 24 -13 13 -24 21 0 0.25970104D-01 0.90387370D-01 0.91942001D+05 0.91942001D+05 0.91942001D+05 0.11247285D+01  1  2  2  2  7  2        1 0.138208366251D-02 0.100000000000D+01
-.143074353129D-05 0.000000000000D+00 -.990725345969D-07 0.107608286364D-06 0.000000000000D+00  7 -1 1 24 -13 13 -24 21 2 0.25970104D-01 0.90387370D-01 0.91942001D+05 0.91942001D+05 0.91942001D+05 0.11247285D+01  1  2  3  2  7  2        1 -.969614836083D-04 0.100000000000D+01
0.168089872346D-05 0.000000000000D+00 0.000000000000D+00 0.107608286364D-06 0.000000000000D+00  7 -1 1 24 -13 13 -24 21 2 0.25970104D-01 0.90387370D-01 0.91942001D+05 0.91942001D+05 0.91942001D+05 0.11247285D+01  1  2 15  2  7  2        1 0.113914500019D-03 0.100000000000D+01
  </mgrwgt>
  </event>
  <event>
  8     66 0.29788925E-05 0.18591093E+03 0.75467711E-02 0.10303244E+00
       -1 -1    0    0    0  501 0.00000000E+00 0.00000000E+00 0.16016023E+03 0.16016054E+03 0.32000000E+00 0.0000E+00 0.9000E+01
        1 -1    0    0  501    0 0.00000000E+00 0.00000000E+00 -.75848413E+03 0.75848420E+03 0.32000000E+00 0.0000E+00 0.9000E+01
       25  2    1    2    0    0 0.13388223E+03 -.82302769E+02 -.50090484E+02 0.34118316E+03 0.29866150E+03 0.0000E+00 0.0000E+00
       23  2    1    2    0    0 -.13388223E+03 0.82302769E+02 -.54823342E+03 0.57746159E+03 0.90574848E+02 0.0000E+00 0.0000E+00
       24  1    3    3    0    0 0.13490080E+03 0.54383402E+02 0.20743998E+02 0.16749123E+03 0.80419002E+02 0.0000E+00 0.9000E+01
      -13  1    4    4    0    0 0.86617338E+00 0.77529480E+01 0.21348975E+00 0.78048191E+01 0.10565837E+00 0.0000E+00 0.9000E+01
       13  1    4    4    0    0 -.13474840E+03 0.74549821E+02 -.54844691E+03 0.56965677E+03 0.10565837E+00 0.0000E+00 0.9000E+01
      -24  1    3    3    0    0 -.10185718E+01 -.13668617E+03 -.70834482E+02 0.17369193E+03 0.80419002E+02 0.0000E+00 0.9000E+01
#aMCatNLO 1  0  0  2  1 0.21149029D+02 0.00000000D+00  -5  7  0 0.00000000D+00 0.00000000D+00 0.00000000D+00 0.00000000D+00 0.00000000D+00
  <mgrwgt>
 0.1468828442D-02    9    2    0
 0.348538617009785D+03 0.000000000000000D+00 0.000000000000000D+00 0.348538617009785D+03
 0.348538617009785D+03 0.000000000000000D+00 0.000000000000000D+00 -.348538617009785D+03
 0.238533918543199D+03 0.134900803353324D+03 0.543834022690703D+02 0.171100652112934D+03
 0.104684760269657D+02 0.866357870372848D+00 0.775285706754871D+01 0.698080379739739D+01
 0.279974076040961D+03 -.134748589452822D+03 0.745499119187603D+02 -.233817474813945D+03
 0.168100763408444D+03 -.101857177087521D+01 -.136686171255379D+03 0.557360189036132D+02
 0.000000000000000D+00 0.000000000000000D+00 0.000000000000000D+00 -.000000000000000D+00
 0.358828622964376D+03 0.000000000000000D+00 0.000000000000000D+00 0.358828622964376D+03
 0.359737931871127D+03 0.000000000000000D+00 0.000000000000000D+00 -.359737931871127D+03
 0.235316767716206D+03 0.131641114541053D+03 0.479786308990796D+02 0.171100652112934D+03
 0.102517404578307D+02 0.723820442820504D+00 0.747279363581785D+01 0.698080379739739D+01
 0.279941478934799D+03 -.138600331200373D+03 0.669818504595056D+02 -.233817474813945D+03
 0.171887999430693D+03 -.335740465359889D+01 -.141281606816611D+03 0.557360189036132D+02
 0.211685682959742D+02 0.959280087009844D+01 0.188483318222082D+02 -.909308906750460D+00
0.137744539051D-04 0.000000000000D+00 0.000000000000D+00 0.704017938501D-06 0.000000000000D+00  7 -1 1 24 -13 13 -24 21 0 0.24640064D-01 0.11668990D+00 0.59192685D+05 0.59192685D+05 0.59192685D+05 0.11409034D+01  1  2  2  2  7  2        1 0.554391094256D-03 0.100000000000D+01
-.645016980663D-06 0.000000000000D+00 -.528975298927D-07 0.704017938501D-06 0.000000000000D+00  7 -1 1 24 -13 13 -24 21 2 0.24640064D-01 0.11668990D+00 0.59192685D+05 0.59192685D+05 0.59192685D+05 0.11409034D+01  1  2  3  2  7  2        1 -.337917552960D-04 0.100000000000D+01
0.845016675977D-06 0.000000000000D+00 0.000000000000D+00 0.704017938501D-06 0.000000000000D+00  7 -1 1 24 -13 13 -24 21 2 0.24640064D-01 0.11668990D+00 0.59192685D+05 0.59192685D+05 0.59192685D+05 0.11409034D+01  1  2 15  2  7  2        1 0.442695271469D-04 0.100000000000D+01
0.287637775928D-04 0.000000000000D+00 0.000000000000D+00 0.704017938501D-06 0.000000000000D+00  7 -1 1 24 -13 13 -24 21 2 0.24640064D-01 0.12210945D+00 0.64197621D+05 0.64197621D+05 0.64197621D+05 0.11378681D+01  1  2 12  2  7  2        1 0.139593077437D-02 0.100000000000D+01
-.227113116690D-04 0.000000000000D+00 0.000000000000D+00 0.704017938501D-06 0.000000000000D+00  7 -1 1 24 -13 13 -24 21 2 0.24640064D-01 0.11668990D+00 0.59192685D+05 0.59192685D+05 0.59192685D+05 0.11409034D+01  1  2  4  2  7  2        1 -.118982152312D-02 0.100000000000D+01
-.173334240175D-03 0.000000000000D+00 -.317614591306D-04 0.704017938501D-06 0.000000000000D+00  7 -1 1 24 -13 13 -24 21 2 0.24640064D-01 0.12319728D+00 0.59192685D+05 0.59192685D+05 0.59192685D+05 0.11409034D+01  1  2  5  2  7  2        1 -.835067398494D-02 0.100000000000D+01
0.174847031726D-03 0.000000000000D+00 0.317147491838D-04 0.704017938501D-06 0.000000000000D+00  7 -1 1 24 -13 13 -24 21 2 0.24640064D-01 0.11668990D+00 0.59192685D+05 0.59192685D+05 0.59192685D+05 0.11409034D+01  1  2  6  2  7  2        1 0.916005049083D-02 0.100000000000D+01
0.340357031965D-06 0.000000000000D+00 0.000000000000D+00 0.704017938501D-06 0.000000000000D+00  7 -1 21 24 -13 13 -24 -1 2 0.24640064D-01 0.12210945D+00 0.64197621D+05 0.64197621D+05 0.64197621D+05 0.11378681D+01  1  2 12  4  7  2        1 0.307895953457D-04 0.100000000000D+01
-.159592367778D-05 0.000000000000D+00 -.298434020045D-06 0.704017938501D-06 0.000000000000D+00  7 -1 21 24 -13 13 -24 -1 2 0.24640064D-01 0.12319728D+00 0.59192685D+05 0.59192685D+05 0.59192685D+05 0.11409034D+01  1  2  5  4  7  2        1 -.142315776193D-03 0.100000000000D+01
  </mgrwgt>
  </event>
  <event>
  8     66 0.29788925E-05 0.19695459E+03 0.75467711E-02 0.94367240E-01
       -1 -1    0    0    0  501 0.00000000E+00 0.00000000E+00 0.34292991E+03 0.34293006E+03 0.32000000E+00 0.0000E+00 0.9000E+01
        1 -1    0    0  501    0 0.00000000E+00 0.00000000E+00 -.55296997E+03 0.55297007E+03 0.32000000E+00 0.0000E+00 0.9000E+01
       25  2    1    2    0    0 -.72545419E+02 -.10346118E+03 0.24970400E+03 0.41008676E+03 0.29975324E+03 0.0000E+00 0.0000E+00
       23  2    1    2    0    0 0.72545419E+02 0.10346118E+03 -.45974407E+03 0.48581337E+03 0.93182455E+02 0.0000E+00 0.0000E+00
       24  1    3    3    0    0 -.99823309E+02 -.63811229E+02 0.27755610E+03 0.31231582E+03 0.80419002E+02 0.0000E+00 0.9000E+01
      -11  1    4    4    0    0 -.22769212E+02 0.20248182E+02 -.87645063E+02 0.92790533E+02 0.51099893E-03 0.0000E+00 0.9000E+01
       11  1    4    4    0    0 0.95314631E+02 0.83212995E+02 -.37209900E+03 0.39302284E+03 0.51099893E-03 0.0000E+00 0.9000E+01
      -24  1    3    3    0    0 0.27277891E+02 -.39649948E+02 -.27852093E+02 0.97770940E+02 0.80419002E+02 0.0000E+00 0.9000E+01
#aMCatNLO 1  0  0  2  1 0.45960866D+03 0.00000000D+00  -5  7  0 0.00000000D+00 0.00000000D+00 0.00000000D+00 0.00000000D+00 0.00000000D+00
  <mgrwgt>
 0.1001534135D-02    3    2    0
 0.435465328114939D+03 0.000000000000000D+00 0.000000000000000D+00 0.435465328114939D+03
 0.435465328114939D+03 0.000000000000000D+00 0.000000000000000D+00 -.435465328114939D+03
 0.388207346960233D+03 -.998233094943517D+02 -.638112292513540D+02 0.360833981468705D+03
 0.743136953528069D+02 -.227692121593814D+02 0.202481820727227D+02 -.677797862004650D+02
 0.314552609703457D+03 0.953146310800365D+02 0.832129953199921D+02 -.287982747370753D+03
 0.938570042133811D+02 0.272778905736967D+02 -.396499481413608D+02 -.507144789748745D+01
 0.000000000000000D+00 -.000000000000000D+00 -.000000000000000D+00 0.000000000000000D+00
 0.834831671678235D+03 0.000000000000000D+00 0.000000000000000D+00 0.834831671678235D+03
 0.646594601973132D+03 0.000000000000000D+00 0.000000000000000D+00 -.646594601973132D+03
 0.376452558693302D+03 0.627057402966180D+02 0.334086956294045D+02 0.360833981468705D+03
 0.792001987471802D+02 0.986028384702673D+01 0.397661522738643D+02 -.677797862004650D+02
 0.421374435640094D+03 0.251736489360858D+03 0.176779784342191D+03 -.287982747370753D+03
 0.107736905446902D+03 0.701268307868351D+02 -.140190178301391D+02 -.507144789748745D+01
 0.496662175123889D+03 -.394429344291338D+03 -.235935614415320D+03 0.188237069705103D+03
0.533185605436D-04 0.000000000000D+00 0.000000000000D+00 0.205547339497D-05 0.000000000000D+00  7 -1 1 24 -11 11 -24 21 0 0.52758466D-01 0.85072322D-01 0.38791110D+05 0.38791110D+05 0.38791110D+05 0.11571200D+01  1  2  2  2  7  2        1 0.940764825757D-03 0.100000000000D+01
-.694796399557D-06 0.000000000000D+00 -.204757311587D-06 0.205547339497D-05 0.000000000000D+00  7 -1 1 24 -11 11 -24 21 2 0.52758466D-01 0.85072322D-01 0.38791110D+05 0.38791110D+05 0.38791110D+05 0.11571200D+01  1  2  3  2  7  2        1 -.164140966043D-04 0.100000000000D+01
0.326711569176D-05 0.000000000000D+00 0.000000000000D+00 0.205547339497D-05 0.000000000000D+00  7 -1 1 24 -11 11 -24 21 2 0.52758466D-01 0.85072322D-01 0.38791110D+05 0.38791110D+05 0.38791110D+05 0.11571200D+01  1  2 15  2  7  2        1 0.771834059819D-04 0.100000000000D+01
  </mgrwgt>
  </event>
  <event>
  8     66 0.29788925E-05 0.32321837E+03 0.75467711E-02 0.97873306E-01
       -1 -1    0    0    0  501 0.00000000E+00 0.00000000E+00 0.13164625E+03 0.13164664E+03 0.32000000E+00 0.0000E+00 0.9000E+01
        1 -1    0    0  501    0 0.00000000E+00 0.00000000E+00 -.10362610E+04 0.10362611E+04 0.32000000E+00 0.0000E+00 0.9000E+01
       25  2    1    2    0    0 -.11786320E+03 -.22254918E+03 -.26040572E+03 0.47036808E+03 0.30002521E+03 0.0000E+00 0.0000E+00
       23  2    1    2    0    0 0.11786320E+03 0.22254918E+03 -.64420905E+03 0.69753964E+03 0.90201822E+02 0.0000E+00 0.0000E+00
       24  1    3    3    0    0 -.19347927E+03 -.12840134E+03 -.17885796E+03 0.30393835E+03 0.80419002E+02 0.0000E+00 0.9000E+01
      -13  1    4    4    0    0 0.72490588E+02 0.90293688E+02 -.19206316E+03 0.22426793E+03 0.10565837E+00 0.0000E+00 0.9000E+01
       13  1    4    4    0    0 0.45372616E+02 0.13225549E+03 -.45214589E+03 0.47327171E+03 0.10565837E+00 0.0000E+00 0.9000E+01
      -24  1    3    3    0    0 0.75616068E+02 -.94147832E+02 -.81547763E+02 0.16642974E+03 0.80419002E+02 0.0000E+00 0.9000E+01
#aMCatNLO 1  0  0  1  1 0.10109433D+03 0.00000000D+00  -5  7  0 0.00000000D+00 0.00000000D+00 0.00000000D+00 0.00000000D+00 0.00000000D+00
  <mgrwgt>
 0.4544887608D-03    4    2    0
 0.369350970153705D+03 0.000000000000000D+00 0.000000000000000D+00 0.369350970153705D+03
 0.369350970153705D+03 0.000000000000000D+00 0.000000000000000D+00 -.369350970153705D+03
 0.261505191245551D+03 -.193479272202339D+03 -.128401344877513D+03 0.894237941249447D+02
 0.119372906208751D+03 0.724906250555433D+02 0.902936300135125D+02 -.290182769089224D+02
 0.194557364504146D+03 0.453725794445913D+02 0.132255546784978D+03 -.135286242692854D+03
 0.163266478348962D+03 0.756160677022048D+02 -.941478319209770D+02 0.748807254768317D+02
 0.000000000000000D+00 0.000000000000000D+00 -.000000000000000D+00 -.000000000000000D+00
 0.405877467326606D+03 0.000000000000000D+00 0.000000000000000D+00 0.405877467326606D+03
 0.450022445688531D+03 0.000000000000000D+00 0.000000000000000D+00 -.450022445688531D+03
 0.254544013621551D+03 -.203383715762777D+03 -.946778122002368D+02 0.894237941249447D+02
 0.129546299651906D+03 0.677131615844179D+02 0.106560363677031D+03 -.290182769089224D+02
 0.211987289566569D+03 0.375698378783522D+02 0.158823017090172D+03 -.135286242692854D+03
 0.149509830451431D+03 0.696130058462072D+02 -.737080715821846D+02 0.748807254768317D+02
 0.110312479723679D+03 0.284877104538001D+02 -.969974969847813D+02 -.441449783619259D+02
0.209924595769D-04 0.000000000000D+00 0.000000000000D+00 0.247787379038D-05 0.000000000000D+00  7 -1 1 24 -13 13 -24 21 0 0.20253304D-01 0.15942481D+00 0.10447012D+06 0.10447012D+06 0.10447012D+06 0.11201668D+01  1  2  2  1  7  1       -1 0.689264122739D-03 0.100000000000D+01
-.114100662786D-05 0.000000000000D+00 -.806165722168D-07 0.247787379038D-05 0.000000000000D+00  7 -1 1 24 -13 13 -24 21 2 0.20253304D-01 0.15942481D+00 0.10447012D+06 0.10447012D+06 0.10447012D+06 0.11201668D+01  1  2  3  1  7  1       -1 -.470084516217D-04 0.100000000000D+01
0.134567287173D-05 0.000000000000D+00 0.000000000000D+00 0.247787379038D-05 0.000000000000D+00  7 -1 1 24 -13 13 -24 21 2 0.20253304D-01 0.15942481D+00 0.10447012D+06 0.10447012D+06 0.10447012D+06 0.11201668D+01  1  2 15  1  7  1       -1 0.554405176489D-04 0.100000000000D+01
-.590322117943D-05 0.000000000000D+00 0.000000000000D+00 0.247787379038D-05 0.000000000000D+00  7 -1 1 24 -13 13 -24 21 2 0.20253304D-01 0.15942481D+00 0.10447012D+06 0.10447012D+06 0.10447012D+06 0.11201668D+01  1  2  4  1  7  1       -1 -.243207427941D-03 0.100000000000D+01
  </mgrwgt>
  </event>
  <event>
  9     66 -.29788925E-05 0.32260592E+03 0.75467711E-02 0.98994542E-01
       -1 -1    0    0    0  501 0.00000000E+00 0.00000000E+00 0.14839878E+04 0.14839879E+04 0.32000000E+00 0.0000E+00 0.9000E+01
        1 -1    0    0  502    0 0.00000000E+00 0.00000000E+00 -.16292746E+03 0.16292777E+03 0.32000000E+00 0.0000E+00 0.9000E+01
       25  2    1    2    0    0 0.56406582E+02 -.27115260E+03 0.30438833E+03 0.50905067E+03 0.29962458E+03 0.0000E+00 0.0000E+00
       23  2    1    2    0    0 -.17584226E+02 0.24584689E+03 0.10489802E+04 0.10813677E+04 0.90811557E+02 0.0000E+00 0.0000E+00
       24  1    3    3    0    0 0.86762307E+02 -.28351202E+03 0.17599197E+03 0.35404400E+03 0.80419002E+02 0.0000E+00 0.9000E+01
      -11  1    4    4    0    0 0.15180418E+02 0.31849083E+02 0.66093201E+02 0.74920761E+02 0.51099893E-03 0.0000E+00 0.9000E+01
       11  1    4    4    0    0 -.32764644E+02 0.21399781E+03 0.98288704E+03 0.10064470E+04 0.51099893E-03 0.0000E+00 0.9000E+01
      -24  1    3    3    0    0 -.30355725E+02 0.12359419E+02 0.12839636E+03 0.15500667E+03 0.80419002E+02 0.0000E+00 0.9000E+01
       21  1    1    2  502  501 -.38822356E+02 0.25305710E+02 -.32308199E+02 0.56497226E+02 0.75000000E+00 0.0000E+00 0.9000E+01
#aMCatNLO 2  0  0  2  1 0.46341712D+02 0.00000000D+00  -5  7  0 0.00000000D+00 0.00000000D+00 0.00000000D+00 0.00000000D+00 0.00000000D+00
  <mgrwgt>
 -.8414355126D-04    2    2    0
 0.417036167543148D+03 0.000000000000000D+00 0.000000000000000D+00 0.417036167543148D+03
 0.417036167543148D+03 0.000000000000000D+00 0.000000000000000D+00 -.417036167543148D+03
 0.376889738708897D+03 0.689532895169819D+02 -.271903511010268D+03 -.238521663072281D+03
 0.358764085812943D+02 0.135191325052764D+02 0.329319642798114D+02 0.445370381480110D+01
 0.332286209832383D+03 -.480211073591962D+02 0.223942484999893D+03 0.240744391221976D+03
 0.890199779637215D+02 -.344513146630621D+02 0.150290617305629D+02 -.667643196449535D+01
 0.000000000000000D+00 -.000000000000000D+00 0.000000000000000D+00 -.000000000000000D+00
 0.421110555672436D+03 0.000000000000000D+00 0.000000000000000D+00 0.421110555672436D+03
 0.574152421278462D+03 0.000000000000000D+00 0.000000000000000D+00 -.574152421278462D+03
 0.388930026678433D+03 0.867623073151553D+02 -.283512024387502D+03 -.238521663072281D+03
 0.355618425917619D+02 0.151804177633917D+02 0.318490829911974D+02 0.445370381480110D+01
 0.323769126603018D+03 -.327646440355374D+02 0.213997811992708D+03 0.240744391221976D+03
 0.870977381125949D+02 -.303557249669795D+02 0.123594194002870D+02 -.667643196449535D+01
 0.159904242965090D+03 -.388223560760301D+02 0.253057100033103D+02 -.153041865606026D+03
-.976121975649D-03 0.000000000000D+00 0.000000000000D+00 0.338798916818D-05 0.000000000000D+00  7 -1 1 24 -11 11 -24 21 2 0.22609644D+00 0.25129831D-01 0.11977139D+06 0.11977139D+06 0.11977139D+06 0.11153484D+01  1  2 13  2  7  2        1 -.264181268143D-02 0.100000000000D+01
0.981416858561D-03 0.000000000000D+00 0.000000000000D+00 0.338798916818D-05 0.108941092051D-07  7 -1 1 24 -11 11 -24 21 2 0.22830537D+00 0.25065737D-01 0.11977139D+06 0.11977139D+06 0.11977139D+06 0.11153484D+01  1  2  1  2  7  2        1 0.255766913016D-02 0.100000000000D+01
  </mgrwgt>
  </event>
  <event>
  8     66 0.29788925E-05 0.76394522E+03 0.75467711E-02 0.86710391E-01
       -1 -1    0    0    0  501 0.00000000E+00 0.00000000E+00 0.48294072E+03 0.48294083E+03 0.32000000E+00 0.0000E+00 0.9000E+01
        1 -1    0    0  501    0 0.00000000E+00 0.00000000E+00 -.22527932E+04 0.22527933E+04 0.32000000E+00 0.0000E+00 0.9000E+01
       25  2    1    2    0    0 -.35658142E+03 0.93884727E+03 -.67283783E+03 0.12456322E+04 0.30050663E+03 0.0000E+00 0.0000E+00
       23  2    1    2    0    0 0.35658142E+03 -.93884727E+03 -.10970147E+04 0.14901019E+04 0.91531663E+02 0.0000E+00 0.0000E+00
       24  1    3    3    0    0 -.33617727E+03 0.54249474E+03 -.42021229E+03 0.76834972E+03 0.80419002E+02 0.0000E+00 0.9000E+01
      -13  1    4    4    0    0 0.22822844E+03 -.71030702E+03 -.79693264E+03 0.10916620E+04 0.10565837E+00 0.0000E+00 0.9000E+01
       13  1    4    4    0    0 0.12835298E+03 -.22854025E+03 -.30008204E+03 0.39843992E+03 0.10565837E+00 0.0000E+00 0.9000E+01
      -24  1    3    3    0    0 -.20404149E+02 0.39635252E+03 -.25262554E+03 0.47728245E+03 0.80419002E+02 0.0000E+00 0.9000E+01
#aMCatNLO 1  0  0  1  2 0.86343332D+02 0.00000000D+00  -5  7  0 0.00000000D+00 0.00000000D+00 0.00000000D+00 0.00000000D+00 0.00000000D+00
  <mgrwgt>
 0.5671920282D-03    9    2    0
 0.104305597582491D+04 0.000000000000000D+00 0.000000000000000D+00 0.104305597582491D+04
 0.104305597582491D+04 0.000000000000000D+00 0.000000000000000D+00 -.104305597582491D+04
 0.651109219830458D+03 -.336177266165257D+03 0.542494741408132D+03 0.100798320680627D+03
 0.755494002875800D+03 0.228228570818892D+03 -.710307661436632D+03 -.118936680413102D+03
 0.267925876440190D+03 0.128352844334080D+03 -.228539604797818D+03 -.554929874529452D+02
 0.411582852503381D+03 -.204041489877152D+02 0.396352524826318D+03 0.736313471854201D+02
 0.000000000000000D+00 0.000000000000000D+00 -.000000000000000D+00 0.000000000000000D+00
 0.108740508617278D+04 0.000000000000000D+00 0.000000000000000D+00 0.108740508617278D+04
 0.108683815167124D+04 0.000000000000000D+00 0.000000000000000D+00 -.108683815167124D+04
 0.677725967048549D+03 -.354285075687607D+03 0.563175864318166D+03 0.100798320680627D+03
 0.727799123908759D+03 0.208015989401094D+03 -.687222656035257D+03 -.118936680413102D+03
 0.257538960435775D+03 0.121192424990286D+03 -.220361613287934D+03 -.554929874529452D+02
 0.424833993472153D+03 -.318018581075213D+02 0.409369970305219D+03 0.736313471854201D+02
 0.863451929787814D+02 0.568785194037481D+02 -.649615653001944D+02 0.566934501539933D+00
0.607671472375D-03 0.000000000000D+00 0.000000000000D+00 0.564151057912D-05 0.000000000000D+00  7 -1 1 24 -13 13 -24 21 0 0.74298583D-01 0.34658358D+00 0.10571869D+07 0.10571869D+07 0.10571869D+07 0.10462600D+01  1  2  2  1  7  1       -1 0.266546518334D-03 0.100000000000D+01
-.337510748834D-04 0.000000000000D+00 -.233361845749D-05 0.564151057912D-05 0.000000000000D+00  7 -1 1 24 -13 13 -24 21 2 0.74298583D-01 0.34658358D+00 0.10571869D+07 0.10571869D+07 0.10571869D+07 0.10462600D+01  1  2  3  1  7  1       -1 -.162058211786D-04 0.100000000000D+01
0.389339803880D-04 0.000000000000D+00 0.000000000000D+00 0.564151057912D-05 0.000000000000D+00  7 -1 1 24 -13 13 -24 21 2 0.74298583D-01 0.34658358D+00 0.10571869D+07 0.10571869D+07 0.10571869D+07 0.10462600D+01  1  2 15  1  7  1       -1 0.186944305069D-04 0.100000000000D+01
0.109384153031D-02 0.000000000000D+00 0.000000000000D+00 0.564151057912D-05 0.000000000000D+00  7 -1 1 24 -13 13 -24 21 2 0.78952375D-01 0.34658358D+00 0.11496561D+07 0.11496561D+07 0.11496561D+07 0.10438558D+01  1  2 12  1  7  1       -1 0.458872720928D-03 0.100000000000D+01
-.845609244742D-03 0.000000000000D+00 0.000000000000D+00 0.564151057912D-05 0.000000000000D+00  7 -1 1 24 -13 13 -24 21 2 0.74298583D-01 0.34658358D+00 0.10571869D+07 0.10571869D+07 0.10571869D+07 0.10462600D+01  1  2  4  1  7  1       -1 -.406025356367D-03 0.100000000000D+01
-.463040630827D-02 0.000000000000D+00 -.897258564469D-03 0.564151057912D-05 0.000000000000D+00  7 -1 1 24 -13 13 -24 21 2 0.81063234D-01 0.34658358D+00 0.10571869D+07 0.10571869D+07 0.10571869D+07 0.10462600D+01  1  2  5  1  7  1       -1 -.185832464377D-02 0.100000000000D+01
0.469415442260D-02 0.000000000000D+00 0.893862880606D-03 0.564151057912D-05 0.000000000000D+00  7 -1 1 24 -13 13 -24 21 2 0.74298583D-01 0.34658358D+00 0.10571869D+07 0.10571869D+07 0.10571869D+07 0.10462600D+01  1  2  6  1  7  1       -1 0.225393198351D-02 0.100000000000D+01
0.121651907897D-04 0.000000000000D+00 0.000000000000D+00 0.564151057912D-05 0.000000000000D+00  7 21 1 24 -13 13 -24 1 2 0.78952375D-01 0.34658358D+00 0.11496561D+07 0.11496561D+07 0.11496561D+07 0.10438558D+01  1  2 12  3  7  1       -1 0.373299630990D-04 0.100000000000D+01
-.644163921755D-04 0.000000000000D+00 -.129251475644D-04 0.564151057912D-05 0.000000000000D+00  7 21 1 24 -13 13 -24 1 2 0.81063234D-01 0.34658358D+00 0.10571869D+07 0.10571869D+07 0.10571869D+07 0.10462600D+01  1  2  5  3  7  1       -1 -.187627766830D-03 0.100000000000D+01
  </mgrwgt>
  </event>
  <event>
  8     66 0.29788925E-05 0.13968103E+03 0.75467711E-02 0.93430931E-01
       -1 -1    0    0    0  501 0.00000000E+00 0.00000000E+00 0.12120827E+03 0.12120869E+03 0.32000000E+00 0.0000E+00 0.9000E+01
        1 -1    0    0  501    0 0.00000000E+00 0.00000000E+00 -.20088608E+04 0.20088608E+04 0.32000000E+00 0.0000E+00 0.9000E+01
       25  2    1    2    0    0 0.63154307E+02 0.37959016E+03 -.55044021E+03 0.73565665E+03 0.30021514E+03 0.0000E+00 0.0000E+00
       23  2    1    2    0    0 -.63154307E+02 -.37959016E+03 -.13372123E+04 0.13944128E+04 0.90406297E+02 0.0000E+00 0.0000E+00
       24  1    3    3    0    0 0.50760091E+02 0.39074692E+03 -.41978136E+03 0.58132895E+03 0.80419002E+02 0.0000E+00 0.9000E+01
      -13  1    4    4    0    0 -.70686679E+02 -.38076072E+03 -.13187941E+04 0.13744792E+04 0.10565837E+00 0.0000E+00 0.9000E+01
       13  1    4    4    0    0 0.75323720E+01 0.11705658E+01 -.18418231E+02 0.19933621E+02 0.10565837E+00 0.0000E+00 0.9000E+01
      -24  1    3    3    0    0 0.12394216E+02 -.11156758E+02 -.13065885E+03 0.15432771E+03 0.80419002E+02 0.0000E+00 0.9000E+01
#aMCatNLO 1  0  0  2  1 0.20990943D+03 0.00000000D+00  -5  7  0 0.00000000D+00 0.00000000D+00 0.00000000D+00 0.00000000D+00 0.00000000D+00
  <mgrwgt>
 0.2003008654D-02    8    2    0
 0.493448092217387D+03 0.000000000000000D+00 0.000000000000000D+00 0.493448092217387D+03
 0.493448092217387D+03 0.000000000000000D+00 0.000000000000000D+00 -.493448092217387D+03
 0.451789894567702D+03 0.507600910662462D+02 0.390746916637226D+03 0.205881405601797D+03
 0.444131752592181D+03 -.706867856192116D+02 -.380761246123066D+03 -.217433358641760D+03
 0.779432551735776D+01 0.753247880643202D+01 0.117108749260652D+01 -.162536992277057D+01
 0.831802117575321D+02 0.123942157465334D+02 -.111567580067671D+02 0.131773229627328D+02
 0.000000000000000D+00 0.000000000000000D+00 0.000000000000000D+00 -.000000000000000D+00
 0.528668876602794D+03 0.000000000000000D+00 0.000000000000000D+00 0.528668876602794D+03
 0.960001536894668D+03 0.000000000000000D+00 0.000000000000000D+00 -.960001536894668D+03
 0.398530450903534D+03 -.159930668954329D+02 0.331234619237950D+03 0.205881405601797D+03
 0.519182941205577D+03 -.146310400018620D+03 -.448181802213152D+03 -.217433358641760D+03
 0.660704419575135D+01 0.640192029111042D+01 0.163163123998700D+00 -.162536992277057D+01
 0.846523315432157D+02 -.781233169552968D+00 -.229030372571544D+02 0.131773229627328D+02
 0.479697645649384D+03 0.156682779792495D+03 0.139687057108357D+03 -.431332660291874D+03
0.101441416738D-03 0.000000000000D+00 0.000000000000D+00 0.486017836772D-05 0.000000000000D+00  7 -1 1 24 -13 13 -24 21 0 0.18647461D-01 0.30905554D+00 0.19323616D+06 0.19323616D+06 0.19323616D+06 0.10989748D+01  1  2  2  2  7  2        1 0.820933582911D-03 0.100000000000D+01
-.554409320634D-05 0.000000000000D+00 -.389561750414D-06 0.486017836772D-05 0.000000000000D+00  7 -1 1 24 -13 13 -24 21 2 0.18647461D-01 0.30905554D+00 0.19323616D+06 0.19323616D+06 0.19323616D+06 0.10989748D+01  1  2  3  2  7  2        1 -.541874474502D-04 0.100000000000D+01
0.632295288331D-05 0.000000000000D+00 0.000000000000D+00 0.486017836772D-05 0.000000000000D+00  7 -1 1 24 -13 13 -24 21 2 0.18647461D-01 0.30905554D+00 0.19323616D+06 0.19323616D+06 0.19323616D+06 0.10989748D+01  1  2 15  2  7  2        1 0.617999489444D-04 0.100000000000D+01
0.919921700616D-04 0.000000000000D+00 0.000000000000D+00 0.486017836772D-05 0.000000000000D+00  7 -1 1 24 -13 13 -24 21 2 0.18647461D-01 0.60249210D+00 0.30948363D+06 0.30948363D+06 0.30948363D+06 0.10835533D+01  1  2 12  2  7  2        1 0.310302783594D-04 0.100000000000D+01
-.129162078319D-03 0.000000000000D+00 -.243000251880D-04 0.486017836772D-05 0.000000000000D+00  7 -1 1 24 -13 13 -24 21 2 0.18647461D-01 0.60766647D+00 0.19323616D+06 0.19323616D+06 0.19323616D+06 0.10989748D+01  1  2  5  2  7  2        1 -.433456415051D-04 0.100000000000D+01
0.121426837339D-03 0.000000000000D+00 0.196379803766D-04 0.486017836772D-05 0.000000000000D+00  7 -1 1 24 -13 13 -24 21 2 0.18647461D-01 0.30905554D+00 0.19323616D+06 0.19323616D+06 0.19323616D+06 0.10989748D+01  1  2  6  2  7  2        1 0.118681452899D-02 0.100000000000D+01
0.665516356180D-05 0.000000000000D+00 0.000000000000D+00 0.486017836772D-05 0.000000000000D+00  7 -1 21 24 -13 13 -24 -1 2 0.18647461D-01 0.60249210D+00 0.30948363D+06 0.30948363D+06 0.30948363D+06 0.10835533D+01  1  2 12  4  7  2        1 0.196166740543D-06 0.100000000000D+01
-.802094316186D-05 0.000000000000D+00 -.177936713625D-05 0.486017836772D-05 0.000000000000D+00  7 -1 21 24 -13 13 -24 -1 2 0.18647461D-01 0.60766647D+00 0.19323616D+06 0.19323616D+06 0.19323616D+06 0.10989748D+01  1  2  5  4  7  2        1 -.232763163445D-06 0.100000000000D+01
  </mgrwgt>
  </event>
  <event>
  8     66 0.29788925E-05 0.50730552E+03 0.75467711E-02 0.90332404E-01
       -1 -1    0    0    0  501 0.00000000E+00 0.00000000E+00 0.64235738E+03 0.64235746E+03 0.32000000E+00 0.0000E+00 0.9000E+01
        1 -1    0    0  501    0 0.00000000E+00 0.00000000E+00 -.41607293E+03 0.41607306E+03 0.32000000E+00 0.0000E+00 0.9000E+01
       25  2    1    2    0    0 -.37993566E+03 -.27212352E+03 0.91579528E+02 0.56374079E+03 0.30168619E+03 0.0000E+00 0.0000E+00
       23  2    1    2    0    0 0.37993566E+03 0.27212352E+03 0.13470492E+03 0.49468973E+03 0.90389132E+02 0.0000E+00 0.0000E+00
       24  1    3    3    0    0 -.38159406E+03 -.19644873E+03 0.11344752E+03 0.45115816E+03 0.80419002E+02 0.0000E+00 0.9000E+01
      -13  1    4    4    0    0 0.32716590E+03 0.22876201E+03 0.79919778E+02 0.40713237E+03 0.10565837E+00 0.0000E+00 0.9000E+01
       13  1    4    4    0    0 0.52769756E+02 0.43361515E+02 0.54785142E+02 0.87557359E+02 0.10565837E+00 0.0000E+00 0.9000E+01
      -24  1    3    3    0    0 0.16583970E+01 -.75674789E+02 -.21867996E+02 0.11258263E+03 0.80419002E+02 0.0000E+00 0.9000E+01
#aMCatNLO 1  0  0  2  1 0.39912942D+03 0.00000000D+00  -5  7  0 0.00000000D+00 0.00000000D+00 0.00000000D+00 0.00000000D+00 0.00000000D+00
  <mgrwgt>
 0.1140597545D-02    3    2    0
 0.516979330626877D+03 0.000000000000000D+00 0.000000000000000D+00 0.516979330626877D+03
 0.516979330626877D+03 0.000000000000000D+00 0.000000000000000D+00 -.516979330626877D+03
 0.437007949911900D+03 -.381594056511085D+03 -.196448732068638D+03 0.173955176947955D+02
 0.399278221729604D+03 0.327166277959915D+03 0.228762258731825D+03 -.729067166479654D+01
 0.776393720691814D+02 0.527693815206551D+02 0.433612620468735D+02 0.369197159106986D+02
 0.120033117543068D+03 0.165839703051482D+01 -.756747887100599D+02 -.470245619406976D+02
 0.000000000000000D+00 0.000000000000000D+00 -.000000000000000D+00 0.000000000000000D+00
 0.149369245205574D+04 0.000000000000000D+00 0.000000000000000D+00 0.149369245205574D+04
 0.596549620486177D+03 0.000000000000000D+00 0.000000000000000D+00 -.596549620486177D+03
 0.535665519324535D+03 -.522785095827588D+03 -.828460752451359D+02 0.173955176947955D+02
 0.384955075486475D+03 0.213328779762840D+03 0.320356189224388D+03 -.729067166479654D+01
 0.778454338314778D+02 0.301995654031534D+02 0.615209914983899D+02 0.369197159106986D+02
 0.109854685889588D+03 -.317115867507071D+02 -.488252178445461D+02 -.470245619406976D+02
 0.981921358009839D+03 0.310968337412302D+03 -.250205887633095D+03 0.897142831569561D+03
0.157560771684D-03 0.000000000000D+00 0.000000000000D+00 0.541672493621D-06 0.000000000000D+00  7 -1 1 24 -13 13 -24 21 0 0.98824228D-01 0.64011236D-01 0.25735889D+06 0.25735889D+06 0.25735889D+06 0.10895125D+01  1  2  2  2  7  2        1 0.112877897024D-02 0.100000000000D+01
-.874957871217D-05 0.000000000000D+00 -.605074849970D-06 0.541672493621D-06 0.000000000000D+00  7 -1 1 24 -13 13 -24 21 2 0.98824228D-01 0.64011236D-01 0.25735889D+06 0.25735889D+06 0.25735889D+06 0.10895125D+01  1  2  3  2  7  2        1 -.744067646139D-04 0.100000000000D+01
0.101393388103D-04 0.000000000000D+00 0.000000000000D+00 0.541672493621D-06 0.000000000000D+00  7 -1 1 24 -13 13 -24 21 2 0.98824228D-01 0.64011236D-01 0.25735889D+06 0.25735889D+06 0.25735889D+06 0.10895125D+01  1  2 15  2  7  2        1 0.862253396436D-04 0.100000000000D+01
  </mgrwgt>
  </event>
  <event>
  8     66 0.29788925E-05 0.19895251E+03 0.75467711E-02 0.96005388E-01
       -1 -1    0    0    0  501 0.00000000E+00 0.00000000E+00 0.36244856E+02 0.36246268E+02 0.32000000E+00 0.0000E+00 0.9000E+01
        1 -1    0    0  501    0 0.00000000E+00 0.00000000E+00 -.18415837E+04 0.18415837E+04 0.32000000E+00 0.0000E+00 0.9000E+01
       25  2    1    2    0    0 -.43093683E+02 0.13471920E+03 -.95842231E+03 0.10145313E+04 0.30115465E+03 0.0000E+00 0.0000E+00
       23  2    1    2    0    0 0.43093683E+02 -.13471920E+03 -.84691655E+03 0.86329870E+03 0.89502399E+02 0.0000E+00 0.0000E+00
       24  1    3    3    0    0 -.56755030E+02 0.13865895E+03 -.89532457E+03 0.91132911E+03 0.80419002E+02 0.0000E+00 0.9000E+01
      -13  1    4    4    0    0 0.49657420E+02 -.11132237E+03 -.46834062E+03 0.48394368E+03 0.10565837E+00 0.0000E+00 0.9000E+01
       13  1    4    4    0    0 -.65637369E+01 -.23396829E+02 -.37857592E+03 0.37935502E+03 0.10565837E+00 0.0000E+00 0.9000E+01
      -24  1    3    3    0    0 0.13661347E+02 -.39397546E+01 -.63097741E+02 0.10320220E+03 0.80419002E+02 0.0000E+00 0.9000E+01
#aMCatNLO 1  0  0  1  2 0.35354226D+03 0.00000000D+00  -5  7  0 0.00000000D+00 0.00000000D+00 0.00000000D+00 0.00000000D+00 0.00000000D+00
  <mgrwgt>
 0.8567134451D-03    5    2    0
 0.258358836334144D+03 0.000000000000000D+00 0.000000000000000D+00 0.258358836334144D+03
 0.258358836334144D+03 0.000000000000000D+00 0.000000000000000D+00 -.258358836334144D+03
 0.183769417145882D+03 -.567550295601753D+02 0.138658951803687D+03 -.696889118016148D+02
 0.122408199176021D+03 0.496575007372241D+02 -.111322497428700D+03 -.111893436932661D+02
 0.559423072037668D+02 -.656381382284781D+01 -.233967102551205D+02 -.503890070612385D+02
 0.154597749142617D+03 0.136613426457990D+02 -.393974411986564D+01 0.131267262556119D+03
 0.000000000000000D+00 0.000000000000000D+00 -.000000000000000D+00 0.000000000000000D+00
 0.815447774561955D+03 0.000000000000000D+00 0.000000000000000D+00 0.815447774561955D+03
 0.375242439972757D+03 0.000000000000000D+00 0.000000000000000D+00 -.375242439972757D+03
 0.311511252988135D+03 -.177800281414109D+03 0.232599570689280D+03 -.696889118016148D+02
 0.747782669497162D+02 0.146566347469066D+01 -.739218480984880D+02 -.111893436932661D+02
 0.615167402990639D+02 -.352704863115119D+02 -.111807859937157D+01 -.503890070612385D+02
 0.178284214613543D+03 -.676941060326108D+02 0.591984713946706D+02 0.131267262556119D+03
 0.564599739684255D+03 0.279299210283541D+03 -.216758115386091D+03 0.440205334589199D+03
0.112254495838D-04 0.000000000000D+00 0.000000000000D+00 0.786285242395D-07 0.000000000000D+00  7 -1 1 24 -13 13 -24 21 0 0.55762424D-02 0.28332068D+00 0.39582100D+05 0.39582100D+05 0.39582100D+05 0.11563292D+01  1  2  2  1  7  1       -1 0.780250905537D-03 0.100000000000D+01
-.571871103031D-06 0.000000000000D+00 -.431086821305D-07 0.786285242395D-07 0.000000000000D+00  7 -1 1 24 -13 13 -24 21 2 0.55762424D-02 0.28332068D+00 0.39582100D+05 0.39582100D+05 0.39582100D+05 0.11563292D+01  1  2  3  1  7  1       -1 -.531485772687D-04 0.100000000000D+01
0.721350449167D-06 0.000000000000D+00 0.000000000000D+00 0.786285242395D-07 0.000000000000D+00  7 -1 1 24 -13 13 -24 21 2 0.55762424D-02 0.28332068D+00 0.39582100D+05 0.39582100D+05 0.39582100D+05 0.11563292D+01  1  2 15  1  7  1       -1 0.670408941493D-04 0.100000000000D+01
0.284623792607D-05 0.000000000000D+00 -.474845220422D-05 0.786285242395D-07 0.000000000000D+00  7 -1 1 24 -13 13 -24 21 2 0.27343039D-01 0.28332068D+00 0.39582100D+05 0.39582100D+05 0.39582100D+05 0.11563292D+01  1  2  5  1  7  1       -1 0.227926468936D-04 0.100000000000D+01
0.433602042535D-06 0.000000000000D+00 -.919042615411D-06 0.786285242395D-07 0.000000000000D+00  7 21 1 24 -13 13 -24 1 2 0.27343039D-01 0.28332068D+00 0.39582100D+05 0.39582100D+05 0.39582100D+05 0.11563292D+01  1  2  5  3  7  1       -1 0.397775758330D-04 0.100000000000D+01
  </mgrwgt>
  </event>
  <event>
  8     66 0.29788925E-05 0.26415631E+03 0.75467711E-02 0.93005408E-01
       -1 -1    0    0    0  501 0.00000000E+00 0.00000000E+00 0.12313469E+03 0.12313511E+03 0.32000000E+00 0.0000E+00 0.9000E+01
        1 -1    0    0  501    0 0.00000000E+00 0.00000000E+00 -.23905440E+04 0.23905440E+04 0.32000000E+00 0.0000E+00 0.9000E+01
       25  2    1    2    0    0 -.18407399E+03 -.28781982E+03 -.20440621E+04 0.20943063E+04 0.30200276E+03 0.0000E+00 0.0000E+00
       23  2    1    2    0    0 0.18407399E+03 0.28781982E+03 -.22334724E+03 0.41937282E+03 0.96260523E+02 0.0000E+00 0.0000E+00
       24  1    3    3    0    0 -.17181242E+03 -.11298858E+03 -.15188285E+04 0.15347941E+04 0.80419002E+02 0.0000E+00 0.9000E+01
      -13  1    4    4    0    0 0.14475952E+03 0.23313547E+03 -.12842866E+03 0.30298746E+03 0.10565837E+00 0.0000E+00 0.9000E+01
       13  1    4    4    0    0 0.39314474E+02 0.54684352E+02 -.94918571E+02 0.11638536E+03 0.10565837E+00 0.0000E+00 0.9000E+01
      -24  1    3    3    0    0 -.12261572E+02 -.17483124E+03 -.52523361E+03 0.55951217E+03 0.80419002E+02 0.0000E+00 0.9000E+01
#aMCatNLO 1  0  0  1  2 0.35991924D+03 0.00000000D+00  -5  7  0 0.00000000D+00 0.00000000D+00 0.00000000D+00 0.00000000D+00 0.00000000D+00
  <mgrwgt>
 0.4323281952D-03    8    2    0
 0.542549026558570D+03 0.000000000000000D+00 0.000000000000000D+00 0.542549026558570D+03
 0.542549026558570D+03 0.000000000000000D+00 0.000000000000000D+00 -.542549026558570D+03
 0.381692873601878D+03 -.171812422386566D+03 -.112988584248374D+03 -.311345957332510D+03
 0.433521533552720D+03 0.144759648225900D+03 0.233135685062050D+03 0.335608874510291D+03
 0.712707301129649D+02 0.393143463778314D+02 0.546841369456528D+02 0.233140366781061D+02
 0.198612915849577D+03 -.122615722171653D+02 -.174831237759328D+03 -.475769538558874D+02
 0.000000000000000D+00 0.000000000000000D+00 0.000000000000000D+00 0.000000000000000D+00
 0.817163799097462D+03 0.000000000000000D+00 0.000000000000000D+00 0.817163799097462D+03
 0.703506756448102D+03 0.000000000000000D+00 0.000000000000000D+00 -.703506756448102D+03
 0.449869034282909D+03 -.197613847847476D+03 -.244800723127780D+03 -.311345957332510D+03
 0.371634449504180D+03 0.119777536991283D+03 0.105509189365250D+03 0.335608874510291D+03
 0.547835152524698D+02 0.354031773055245D+02 0.347030873822938D+02 0.233140366781061D+02
 0.266945105823106D+03 -.267067511990538D+02 -.248627545679728D+03 -.475769538558874D+02
 0.377438450682900D+03 0.691398847497223D+02 0.353215992059964D+03 0.113657042649359D+03
0.156312348734D-03 0.000000000000D+00 0.000000000000D+00 0.625187279766D-07 0.000000000000D+00  7 -1 1 24 -13 13 -24 21 0 0.18943832D-01 0.36777604D+00 0.14265857D+06 0.14265857D+06 0.14265857D+06 0.11092758D+01  1  2  2  1  7  1       -1 0.694330825566D-03 0.100000000000D+01
-.729906258452D-05 0.000000000000D+00 -.600280577126D-06 0.625187279766D-07 0.000000000000D+00  7 -1 1 24 -13 13 -24 21 2 0.18943832D-01 0.36777604D+00 0.14265857D+06 0.14265857D+06 0.14265857D+06 0.11092758D+01  1  2  3  1  7  1       -1 -.398950799323D-04 0.100000000000D+01
0.995632641822D-05 0.000000000000D+00 0.000000000000D+00 0.625187279766D-07 0.000000000000D+00  7 -1 1 24 -13 13 -24 21 2 0.18943832D-01 0.36777604D+00 0.14265857D+06 0.14265857D+06 0.14265857D+06 0.11092758D+01  1  2 15  1  7  1       -1 0.544191029584D-04 0.100000000000D+01
0.180453894530D-06 0.000000000000D+00 0.000000000000D+00 0.625187279766D-07 0.000000000000D+00  7 -1 1 24 -13 13 -24 21 2 0.30192208D-01 0.36777604D+00 0.33437923D+06 0.33437923D+06 0.33437923D+06 0.10810830D+01  1  2 12  1  7  1       -1 0.416125383691D-06 0.100000000000D+01
-.546299926022D-04 0.000000000000D+00 0.000000000000D+00 0.625187279766D-07 0.000000000000D+00  7 -1 1 24 -13 13 -24 21 2 0.18943832D-01 0.36777604D+00 0.14265857D+06 0.14265857D+06 0.14265857D+06 0.11092758D+01  1  2  4  1  7  1       -1 -.298595593109D-03 0.100000000000D+01
-.946832140354D-05 0.000000000000D+00 -.499152347318D-04 0.625187279766D-07 0.000000000000D+00  7 -1 1 24 -13 13 -24 21 2 0.40046933D-01 0.36777604D+00 0.14265857D+06 0.14265857D+06 0.14265857D+06 0.11092758D+01  1  2  5  1  7  1       -1 -.149009028310D-04 0.100000000000D+01
0.963238867127D-08 0.000000000000D+00 0.000000000000D+00 0.625187279766D-07 0.000000000000D+00  7 21 1 24 -13 13 -24 1 2 0.30192208D-01 0.36777604D+00 0.33437923D+06 0.33437923D+06 0.33437923D+06 0.10810830D+01  1  2 12  3  7  1       -1 0.234061257277D-06 0.100000000000D+01
0.233454994942D-05 0.000000000000D+00 -.404178501834D-05 0.625187279766D-07 0.000000000000D+00  7 21 1 24 -13 13 -24 1 2 0.40046933D-01 0.36777604D+00 0.14265857D+06 0.14265857D+06 0.14265857D+06 0.11092758D+01  1  2  5  3  7  1       -1 0.363196559200D-04 0.100000000000D+01
  </mgrwgt>
  </event>
  <event>
  8     66 0.29788925E-05 0.22898190E+03 0.75467711E-02 0.97446178E-01
       -1 -1    0    0    0  501 0.00000000E+00 0.00000000E+00 0.36183802E+03 0.36183816E+03 0.32000000E+00 0.0000E+00 0.9000E+01
        1 -1    0    0  501    0 0.00000000E+00 0.00000000E+00 -.45019693E+03 0.45019705E+03 0.32000000E+00 0.0000E+00 0.9000E+01
       25  2    1    2    0    0 0.32422277E+02 -.11087965E+03 0.27307709E+03 0.42179342E+03 0.29998849E+03 0.0000E+00 0.0000E+00
       23  2    1    2    0    0 -.32422277E+02 0.11087965E+03 -.36143600E+03 0.39024179E+03 0.91143669E+02 0.0000E+00 0.0000E+00
       24  1    3    3    0    0 0.76380674E+02 0.53274100E+02 0.57688844E+02 0.13589465E+03 0.80419002E+02 0.0000E+00 0.9000E+01
      -11  1    4    4    0    0 -.18228952E+02 -.12896135E+02 -.63207624E+02 0.67035876E+02 0.51099893E-03 0.0000E+00 0.9000E+01
       11  1    4    4    0    0 -.14193325E+02 0.12377579E+03 -.29822838E+03 0.32320591E+03 0.51099893E-03 0.0000E+00 0.9000E+01
      -24  1    3    3    0    0 -.43958397E+02 -.16415375E+03 0.21538825E+03 0.28589877E+03 0.80419002E+02 0.0000E+00 0.9000E+01
#aMCatNLO 1  0  0  2  2 0.26906714D+03 0.00000000D+00  -5  7  0 0.00000000D+00 0.00000000D+00 0.00000000D+00 0.00000000D+00 0.00000000D+00
  <mgrwgt>
 0.9279942111D-03    6    2    0
 0.403606828054933D+03 0.000000000000000D+00 0.000000000000000D+00 0.403606828054933D+03
 0.403606828054933D+03 0.000000000000000D+00 0.000000000000000D+00 -.403606828054933D+03
 0.143021073818969D+03 0.763806744675121D+02 0.532740996427386D+02 0.729086721666501D+02
 0.605174788209351D+02 -.182289521274164D+02 -.128961353544347D+02 -.562473131811538D+02
 0.292491888285436D+03 -.141933250797568D+02 0.123775785941192D+03 -.264631081036602D+03
 0.311183215184526D+03 -.439583972603389D+02 -.164153750229495D+03 0.247969722051106D+03
 0.000000000000000D+00 0.000000000000000D+00 0.000000000000000D+00 -.000000000000000D+00
 0.502539678287525D+03 0.000000000000000D+00 0.000000000000000D+00 0.502539678287525D+03
 0.660184864185924D+03 0.000000000000000D+00 0.000000000000000D+00 -.660184864185924D+03
 0.120932505479188D+03 0.494173782077201D+02 0.199925781497632D+02 0.729086721666501D+02
 0.709559508638883D+02 -.316591812014405D+02 -.294734281778368D+02 -.562473131811538D+02
 0.279233624310159D+03 -.725960351941110D+02 0.516877506657195D+02 -.264631081036602D+03
 0.379754533438959D+03 -.114538835164402D+03 -.251273082319117D+03 0.247969722051106D+03
 0.311847928381255D+03 0.169376673352233D+03 0.209066181681471D+03 -.157645185898400D+03
0.309654393170D-04 0.000000000000D+00 0.000000000000D+00 0.767503872768D-05 0.000000000000D+00  7 -1 1 24 -11 11 -24 21 0 0.55667408D-01 0.69261086D-01 0.52432708D+05 0.52432708D+05 0.52432708D+05 0.11454850D+01  1  2  2  2  7  2        1 0.652413723238D-03 0.100000000000D+01
-.104834242082D-05 0.000000000000D+00 -.118915440365D-06 0.767503872768D-05 0.000000000000D+00  7 -1 1 24 -11 11 -24 21 2 0.55667408D-01 0.69261086D-01 0.52432708D+05 0.52432708D+05 0.52432708D+05 0.11454850D+01  1  2  3  2  7  2        1 -.289819637652D-04 0.100000000000D+01
0.190227540974D-05 0.000000000000D+00 0.000000000000D+00 0.767503872768D-05 0.000000000000D+00  7 -1 1 24 -11 11 -24 21 2 0.55667408D-01 0.69261086D-01 0.52432708D+05 0.52432708D+05 0.52432708D+05 0.11454850D+01  1  2 15  2  7  2        1 0.525893791012D-04 0.100000000000D+01
-.477084561694D-05 0.000000000000D+00 -.101086226990D-04 0.767503872768D-05 0.000000000000D+00  7 -1 1 24 -11 11 -24 21 2 0.55667408D-01 0.13292978D+00 0.52432708D+05 0.52432708D+05 0.52432708D+05 0.11454850D+01  1  2  5  2  7  2        1 -.512632660278D-04 0.100000000000D+01
0.108059999228D-04 0.000000000000D+00 0.828476664035D-05 0.767503872768D-05 0.000000000000D+00  7 -1 1 24 -11 11 -24 21 2 0.55667408D-01 0.69261086D-01 0.52432708D+05 0.52432708D+05 0.52432708D+05 0.11454850D+01  1  2  6  2  7  2        1 0.298737408682D-03 0.100000000000D+01
0.246104143167D-06 0.000000000000D+00 -.715247201883D-06 0.767503872768D-05 0.000000000000D+00  7 -1 21 24 -11 11 -24 -1 2 0.55667408D-01 0.13292978D+00 0.52432708D+05 0.52432708D+05 0.52432708D+05 0.11454850D+01  1  2  5  4  7  2        1 0.449892983620D-05 0.100000000000D+01
  </mgrwgt>
  </event>
  <event>
  8     66 0.29788925E-05 0.11924284E+03 0.75467711E-02 0.99784564E-01
       -1 -1    0    0    0  501 0.00000000E+00 0.00000000E+00 0.29561935E+03 0.29561953E+03 0.32000000E+00 0.0000E+00 0.9000E+01
        1 -1    0    0  501    0 0.00000000E+00 0.00000000E+00 -.39937838E+03 0.39937851E+03 0.32000000E+00 0.0000E+00 0.9000E+01
       25  2    1    2    0    0 0.82158422E+02 0.23292923E+03 -.16890809E+03 0.42373830E+03 0.30003028E+03 0.0000E+00 0.0000E+00
       23  2    1    2    0    0 -.82158422E+02 -.23292923E+03 0.65149070E+02 0.27125973E+03 0.91276545E+02 0.0000E+00 0.0000E+00
       24  1    3    3    0    0 -.80352095E+02 0.72787296E+02 -.12277471E+02 0.13554483E+03 0.80419002E+02 0.0000E+00 0.9000E+01
      -11  1    4    4    0    0 -.40034336E+02 -.15536293E+03 -.18443027E+01 0.16044872E+03 0.51099893E-03 0.0000E+00 0.9000E+01
       11  1    4    4    0    0 -.42124086E+02 -.77566298E+02 0.66993372E+02 0.11081102E+03 0.51099893E-03 0.0000E+00 0.9000E+01
      -24  1    3    3    0    0 0.16251052E+03 0.16014194E+03 -.15663062E+03 0.28819347E+03 0.80419002E+02 0.0000E+00 0.9000E+01
#aMCatNLO 1  0  0  2  1 0.24078373D+02 0.00000000D+00  -5  7  0 0.00000000D+00 0.00000000D+00 0.00000000D+00 0.00000000D+00 0.00000000D+00
  <mgrwgt>
 0.6727634864D-03    6    2    0
 0.343604544817878D+03 0.000000000000000D+00 0.000000000000000D+00 0.343604544817878D+03
 0.343604544817878D+03 0.000000000000000D+00 0.000000000000000D+00 -.343604544817878D+03
 0.135227394005106D+03 -.803520946582433D+02 0.727872960887060D+02 0.804876059833662D+01
 0.161988805293823D+03 -.400343358705998D+02 -.155362933331962D+03 0.223603206240099D+02
 0.122182035235161D+03 -.421240858864706D+02 -.775662984390189D+02 0.844836106526252D+02
 0.267810855101666D+03 0.162510516415314D+03 0.160141935682274D+03 -.114892691874972D+03
 0.000000000000000D+00 0.000000000000000D+00 -.000000000000000D+00 0.000000000000000D+00
 0.358924550411458D+03 0.000000000000000D+00 0.000000000000000D+00 0.358924550411458D+03
 0.353408385635147D+03 0.000000000000000D+00 0.000000000000000D+00 -.353408385635147D+03
 0.139034767295249D+03 -.844771850960735D+02 0.752480778063332D+02 0.804876059833662D+01
 0.160504062092612D+03 -.448848491066102D+02 -.152469407851206D+03 0.223603206240099D+02
 0.122132215648638D+03 -.457987392741929D+02 -.753742204685101D+02 0.844836106526252D+02
 0.265959743185854D+03 0.154482241641458D+03 0.164931123237150D+03 -.114892691874972D+03
 0.247021478242515D+02 0.206785318354185D+02 -.123355727237670D+02 0.551616477631080D+01
0.104716065739D-04 0.000000000000D+00 0.000000000000D+00 0.279339964431D-05 0.000000000000D+00  7 -1 1 24 -11 11 -24 21 0 0.45479924D-01 0.61442851D-01 0.97845751D+05 0.97845751D+05 0.97845751D+05 0.11224990D+01  1  2  2  2  7  2        1 0.368312464833D-03 0.100000000000D+01
-.575516896388D-06 0.000000000000D+00 -.402137264810D-07 0.279339964431D-05 0.000000000000D+00  7 -1 1 24 -11 11 -24 21 2 0.45479924D-01 0.61442851D-01 0.97845751D+05 0.97845751D+05 0.97845751D+05 0.11224990D+01  1  2  3  2  7  2        1 -.255054572010D-04 0.100000000000D+01
0.667152252342D-06 0.000000000000D+00 0.000000000000D+00 0.279339964431D-05 0.000000000000D+00  7 -1 1 24 -11 11 -24 21 2 0.45479924D-01 0.61442851D-01 0.97845751D+05 0.97845751D+05 0.97845751D+05 0.11224990D+01  1  2 15  2  7  2        1 0.295665050417D-04 0.100000000000D+01
0.198824098170D-04 0.000000000000D+00 0.000000000000D+00 0.279339964431D-05 0.000000000000D+00  7 -1 1 24 -11 11 -24 21 2 0.45479924D-01 0.64517354D-01 0.10558579D+06 0.10558579D+06 0.10558579D+06 0.11197901D+01  1  2 12  2  7  2        1 0.820389134138D-03 0.100000000000D+01
-.124060420023D-04 0.000000000000D+00 0.000000000000D+00 0.279339964431D-05 0.000000000000D+00  7 -1 1 24 -11 11 -24 21 2 0.45479924D-01 0.61442851D-01 0.97845751D+05 0.97845751D+05 0.97845751D+05 0.11224990D+01  1  2  4  2  7  2        1 -.549804489336D-03 0.100000000000D+01
0.202841927865D-06 0.000000000000D+00 0.000000000000D+00 0.279339964431D-05 0.000000000000D+00  7 -1 21 24 -11 11 -24 -1 2 0.45479924D-01 0.64517354D-01 0.10558579D+06 0.10558579D+06 0.10558579D+06 0.11197901D+01  1  2 12  4  7  2        1 0.298053289521D-04 0.100000000000D+01
  </mgrwgt>
  </event>
  <event>
  8     66 0.29788925E-05 0.87621001E+02 0.75467711E-02 0.10377380E+00
       -3 -1    0    0    0  501 0.00000000E+00 0.00000000E+00 0.35486133E+03 0.35486168E+03 0.50000000E+00 0.0000E+00 0.9000E+01
        3 -1    0    0  501    0 0.00000000E+00 0.00000000E+00 -.13955074E+03 0.13955164E+03 0.50000000E+00 0.0000E+00 0.9000E+01
       25  2    1    2    0    0 -.55085163E+02 -.40528201E+02 0.22629539E+03 0.38104960E+03 0.29885161E+03 0.0000E+00 0.0000E+00
       23  2    1    2    0    0 0.55085163E+02 0.40528201E+02 -.10984809E+02 0.11336372E+03 0.89742724E+02 0.0000E+00 0.0000E+00
       24  1    3    3    0    0 0.69679300E+02 -.78496421E+02 0.36585492E+02 0.13719551E+03 0.80419002E+02 0.0000E+00 0.9000E+01
      -11  1    4    4    0    0 0.79204102E+02 0.33337695E+02 -.78464836E-01 0.85934265E+02 0.51099893E-03 0.0000E+00 0.9000E+01
       11  1    4    4    0    0 -.24118939E+02 0.71905060E+01 -.10906344E+02 0.27429454E+02 0.51099893E-03 0.0000E+00 0.9000E+01
      -24  1    3    3    0    0 -.12476446E+03 0.37968220E+02 0.18970990E+03 0.24385409E+03 0.80419002E+02 0.0000E+00 0.9000E+01
#aMCatNLO 1  0  0  2  1 0.77004348D+02 0.00000000D+00  -5  7  0 0.00000000D+00 0.00000000D+00 0.00000000D+00 0.00000000D+00 0.00000000D+00
  <mgrwgt>
 0.1596319087D-03    9    2    0
 0.222534201347569D+03 0.000000000000000D+00 0.000000000000000D+00 0.222534201347569D+03
 0.222534201347569D+03 0.000000000000000D+00 0.000000000000000D+00 -.222534201347569D+03
 0.134707478611162D+03 0.696792999788911D+02 -.784964209940946D+02 -.257292806929304D+02
 0.954997910979647D+02 0.792041024237565D+02 0.333376951353067D+02 -.416595528308615D+02
 0.357467269964272D+02 -.241189394055019D+02 0.719050599098412D+01 -.253850719223809D+02
 0.179114405989585D+03 -.124764462997146D+03 0.379682198678038D+02 0.927739054461727D+02
 0.000000000000000D+00 -.000000000000000D+00 -.000000000000000D+00 -.000000000000000D+00
 0.242527261280274D+03 0.000000000000000D+00 0.000000000000000D+00 0.242527261280274D+03
 0.314677827143031D+03 0.000000000000000D+00 0.000000000000000D+00 -.314677827143031D+03
 0.134304905454640D+03 0.847730233847289D+02 -.610092640182277D+02 -.257292806929304D+02
 0.110239047341584D+03 0.907476792446857D+02 0.467117536431294D+02 -.416595528308615D+02
 0.344929683936229D+02 -.201779366966140D+02 0.117564392043875D+02 -.253850719223809D+02
 0.172643887139125D+03 -.105028039335343D+03 0.608342767999639D+02 0.927739054461727D+02
 0.105524280094334D+03 -.503147265974581D+02 -.582932056292530D+02 -.721505658627570D+02
0.506447622516D-05 0.000000000000D+00 0.000000000000D+00 0.431296674270D-07 0.000000000000D+00  7 -3 3 24 -11 11 -24 21 0 0.54594146D-01 0.21469441D-01 0.39312011D+05 0.39312011D+05 0.39312011D+05 0.11565972D+01  1  2  2  2  7  2        3 0.136230675001D-03 0.100000000000D+01
-.276801079501D-06 0.000000000000D+00 -.194489222118D-07 0.431296674270D-07 0.000000000000D+00  7 -3 3 24 -11 11 -24 21 2 0.54594146D-01 0.21469441D-01 0.39312011D+05 0.39312011D+05 0.39312011D+05 0.11565972D+01  1  2  3  2  7  2        3 -.996030022191D-05 0.100000000000D+01
0.324516709705D-06 0.000000000000D+00 0.000000000000D+00 0.431296674270D-07 0.000000000000D+00  7 -3 3 24 -11 11 -24 21 2 0.54594146D-01 0.21469441D-01 0.39312011D+05 0.39312011D+05 0.39312011D+05 0.11565972D+01  1  2 15  2  7  2        3 0.116772805277D-04 0.100000000000D+01
0.469931085526D-05 0.000000000000D+00 0.000000000000D+00 0.431296674270D-07 0.000000000000D+00  7 -3 3 24 -11 11 -24 21 2 0.54594146D-01 0.31012694D-01 0.57561008D+05 0.57561008D+05 0.57561008D+05 0.11419545D+01  1  2 12  2  7  2        3 0.856907241129D-04 0.100000000000D+01
-.561479016866D-05 0.000000000000D+00 0.000000000000D+00 0.431296674270D-07 0.000000000000D+00  7 -3 3 24 -11 11 -24 21 2 0.54594146D-01 0.21469441D-01 0.39312011D+05 0.39312011D+05 0.39312011D+05 0.11565972D+01  1  2  4  2  7  2        3 -.202040381720D-03 0.100000000000D+01
-.703639451480D-05 0.000000000000D+00 -.216127233659D-05 0.431296674270D-07 0.000000000000D+00  7 -3 3 24 -11 11 -24 21 2 0.54594146D-01 0.32739007D-01 0.39312011D+05 0.39312011D+05 0.39312011D+05 0.11565972D+01  1  2  5  2  7  2        3 -.118169729961D-03 0.100000000000D+01
0.745397340851D-05 0.000000000000D+00 0.198219352983D-05 0.431296674270D-07 0.000000000000D+00  7 -3 3 24 -11 11 -24 21 2 0.54594146D-01 0.21469441D-01 0.39312011D+05 0.39312011D+05 0.39312011D+05 0.11565972D+01  1  2  6  2  7  2        3 0.268220821713D-03 0.100000000000D+01
0.210401617050D-06 0.000000000000D+00 0.000000000000D+00 0.431296674270D-07 0.000000000000D+00  7 -3 21 24 -11 11 -24 -3 2 0.54594146D-01 0.31012694D-01 0.57561008D+05 0.57561008D+05 0.57561008D+05 0.11419545D+01  1  2 12  4  7  2        3 0.631053147219D-04 0.100000000000D+01
-.269188902905D-06 0.000000000000D+00 -.107012815323D-06 0.431296674270D-07 0.000000000000D+00  7 -3 21 24 -11 11 -24 -3 2 0.54594146D-01 0.32739007D-01 0.39312011D+05 0.39312011D+05 0.39312011D+05 0.11565972D+01  1  2  5  4  7  2        3 -.751224954748D-04 0.100000000000D+01
  </mgrwgt>
  </event>
  <event>
  8     66 0.29788925E-05 0.34737170E+03 0.75467711E-02 0.92736494E-01
       -1 -1    0    0    0  501 0.00000000E+00 0.00000000E+00 0.12169166E+03 0.12169209E+03 0.32000000E+00 0.0000E+00 0.9000E+01
        1 -1    0    0  501    0 0.00000000E+00 0.00000000E+00 -.11853161E+04 0.11853161E+04 0.32000000E+00 0.0000E+00 0.9000E+01
       25  2    1    2    0    0 0.19371807E+03 0.20162011E+03 -.36228376E+03 0.54645709E+03 0.29864438E+03 0.0000E+00 0.0000E+00
       23  2    1    2    0    0 -.19371807E+03 -.20162011E+03 -.70134068E+03 0.76055114E+03 0.91552905E+02 0.0000E+00 0.0000E+00
       24  1    3    3    0    0 0.24592300E+03 0.14442493E+03 -.24445667E+03 0.38413925E+03 0.80419002E+02 0.0000E+00 0.9000E+01
      -13  1    4    4    0    0 -.40559003E+02 -.10555155E+02 -.17631894E+03 0.18123141E+03 0.10565837E+00 0.0000E+00 0.9000E+01
       13  1    4    4    0    0 -.15315907E+03 -.19106496E+03 -.52502174E+03 0.57931974E+03 0.10565837E+00 0.0000E+00 0.9000E+01
      -24  1    3    3    0    0 -.52204927E+02 0.57195184E+02 -.11782709E+03 0.16231784E+03 0.80419002E+02 0.0000E+00 0.9000E+01
#aMCatNLO 1  0  0  1  1 0.38831249D+03 0.00000000D+00  -5  7  0 0.00000000D+00 0.00000000D+00 0.00000000D+00 0.00000000D+00 0.00000000D+00
  <mgrwgt>
 0.7936113392D-03    5    2    0
 0.379793882336508D+03 0.000000000000000D+00 0.000000000000000D+00 0.379793882336508D+03
 0.379793882336508D+03 0.000000000000000D+00 0.000000000000000D+00 -.379793882336508D+03
 0.318676888959480D+03 0.245922997353331D+03 0.144424926381325D+03 0.117264929177588D+03
 0.649478744466247D+02 -.405588533799167D+02 -.105549147108199D+02 -.496165253024460D+02
 0.261654963419287D+03 -.153159216825885D+03 -.191065196110481D+03 -.921936278627402D+02
 0.114308037847623D+03 -.522049271475289D+02 0.571951844399760D+02 0.245452239875985D+02
 0.000000000000000D+00 0.000000000000000D+00 -.000000000000000D+00 0.000000000000000D+00
 0.781873654871981D+03 0.000000000000000D+00 0.000000000000000D+00 0.781873654871981D+03
 0.532633615791948D+03 0.000000000000000D+00 0.000000000000000D+00 -.532633615791948D+03
 0.289938855538002D+03 0.121359576898289D+03 0.221626066779969D+03 0.117264929177588D+03
 0.877239638922400D+02 -.718057058686742D+02 0.881106478129716D+01 -.496165253024460D+02
 0.308959508262866D+03 -.269945039401939D+03 -.118684406852055D+03 -.921936278627402D+02
 0.166466274340977D+03 -.109670099579111D+03 0.928105908627958D+02 0.245452239875985D+02
 0.461418668629844D+03 0.330061267951435D+03 -.204563315572007D+03 0.249240039080033D+03
0.269269378672D-04 0.000000000000D+00 0.000000000000D+00 0.459934047986D-06 0.000000000000D+00  7 -1 1 24 -13 13 -24 21 0 0.18721830D-01 0.18235636D+00 0.12066710D+06 0.12066710D+06 0.12066710D+06 0.11150876D+01  1  2  2  1  7  1       -1 0.780667480369D-03 0.100000000000D+01
-.148145827978D-05 0.000000000000D+00 -.103406531436D-06 0.459934047986D-06 0.000000000000D+00  7 -1 1 24 -13 13 -24 21 2 0.18721830D-01 0.18235636D+00 0.12066710D+06 0.12066710D+06 0.12066710D+06 0.11150876D+01  1  2  3  1  7  1       -1 -.534055652359D-04 0.100000000000D+01
0.172376557933D-05 0.000000000000D+00 0.000000000000D+00 0.459934047986D-06 0.000000000000D+00  7 -1 1 24 -13 13 -24 21 2 0.18721830D-01 0.18235636D+00 0.12066710D+06 0.12066710D+06 0.12066710D+06 0.11150876D+01  1  2 15  1  7  1       -1 0.621405788842D-04 0.100000000000D+01
-.169672380671D-05 0.000000000000D+00 -.865082314413D-05 0.459934047986D-06 0.000000000000D+00  7 -1 1 24 -13 13 -24 21 2 0.53667379D-01 0.18235636D+00 0.12066710D+06 0.12066710D+06 0.12066710D+06 0.11150876D+01  1  2  5  1  7  1       -1 -.102922948200D-04 0.100000000000D+01
0.265544876191D-06 0.000000000000D+00 -.102764584833D-05 0.459934047986D-06 0.000000000000D+00  7 21 1 24 -13 13 -24 1 2 0.53667379D-01 0.18235636D+00 0.12066710D+06 0.12066710D+06 0.12066710D+06 0.11150876D+01  1  2  5  3  7  1       -1 0.145011399929D-04 0.100000000000D+01
  </mgrwgt>
  </event>
  <event>
  8     66 0.29788925E-05 0.47898231E+03 0.75467711E-02 0.87486021E-01
       -1 -1    0    0    0  501 0.00000000E+00 0.00000000E+00 0.81374355E+03 0.81374361E+03 0.32000000E+00 0.0000E+00 0.9000E+01
        1 -1    0    0  501    0 0.00000000E+00 0.00000000E+00 -.91438776E+03 0.91438781E+03 0.32000000E+00 0.0000E+00 0.9000E+01
       25  2    1    2    0    0 0.32686623E+03 0.28370067E+03 0.66312285E+03 0.84668044E+03 0.29968023E+03 0.0000E+00 0.0000E+00
       23  2    1    2    0    0 -.32686623E+03 -.28370067E+03 -.76376706E+03 0.88145099E+03 0.79297720E+02 0.0000E+00 0.0000E+00
       24  1    3    3    0    0 0.20438948E+03 0.30124467E+03 0.41391991E+03 0.55706402E+03 0.80419002E+02 0.0000E+00 0.9000E+01
      -13  1    4    4    0    0 -.19318918E+03 -.12507096E+03 -.35525031E+03 0.42328194E+03 0.10565837E+00 0.0000E+00 0.9000E+01
       13  1    4    4    0    0 -.13367706E+03 -.15862971E+03 -.40851675E+03 0.45816906E+03 0.10565837E+00 0.0000E+00 0.9000E+01
      -24  1    3    3    0    0 0.12247675E+03 -.17544004E+02 0.24920294E+03 0.28961642E+03 0.80419002E+02 0.0000E+00 0.9000E+01
#aMCatNLO 1  0  0  1  2 0.77579007D+03 0.00000000D+00  -5  7  0 0.00000000D+00 0.00000000D+00 0.00000000D+00 0.00000000D+00 0.00000000D+00
  <mgrwgt>
 0.1821413485D-02    5    2    0
 0.862599121308114D+03 0.000000000000000D+00 0.000000000000000D+00 0.862599121308114D+03
 0.862599121308114D+03 0.000000000000000D+00 0.000000000000000D+00 -.862599121308114D+03
 0.582158300038684D+03 0.204389480645117D+03 0.301244670272324D+03 0.447121526191368D+03
 0.403277036209542D+03 -.193189280887286D+03 -.125070895642031D+03 -.331160898578782D+03
 0.435116139287485D+03 -.133676953260911D+03 -.158629770828209D+03 -.382482839670378D+03
 0.304646767080517D+03 0.122476753503079D+03 -.175440038020846D+02 0.266522212057792D+03
 0.000000000000000D+00 0.000000000000000D+00 -.000000000000000D+00 0.000000000000000D+00
 0.245232957943064D+04 0.000000000000000D+00 0.000000000000000D+00 0.245232957943064D+04
 0.104567483514720D+04 0.000000000000000D+00 0.000000000000000D+00 -.104567483514720D+04
 0.707470680685723D+03 0.625300045210704D+02 0.538720602377937D+03 0.447121526191368D+03
 0.438443349759794D+03 -.285778711476437D+03 0.299258795685292D+02 -.331160898578782D+03
 0.446674016851514D+03 -.230674067524700D+03 0.374556531927485D+01 -.382482839670378D+03
 0.299014238275582D+03 0.560739079899236D+02 0.936158429952679D+02 0.266522212057792D+03
 0.160640212900522D+04 0.397848866490143D+03 -.666007890261009D+03 0.140665474428344D+04
0.138342072213D-02 0.000000000000D+00 0.000000000000D+00 0.152805723448D-06 0.000000000000D+00  7 -1 1 24 -13 13 -24 21 0 0.12519132D+00 0.14067505D+00 0.22942405D+06 0.22942405D+06 0.22942405D+06 0.10932764D+01  1  2  2  1  7  1       -1 0.177147035230D-02 0.100000000000D+01
-.445166407396D-04 0.000000000000D+00 -.531269983601D-05 0.152805723448D-06 0.000000000000D+00  7 -1 1 24 -13 13 -24 21 2 0.12519132D+00 0.14067505D+00 0.22942405D+06 0.22942405D+06 0.22942405D+06 0.10932764D+01  1  2  3  1  7  1       -1 -.681336948437D-04 0.100000000000D+01
0.840529386449D-04 0.000000000000D+00 0.000000000000D+00 0.152805723448D-06 0.000000000000D+00  7 -1 1 24 -13 13 -24 21 2 0.12519132D+00 0.14067505D+00 0.22942405D+06 0.22942405D+06 0.22942405D+06 0.10932764D+01  1  2 15  1  7  1       -1 0.128644865767D-03 0.100000000000D+01
-.461761563229D-03 0.000000000000D+00 -.401633400826D-03 0.152805723448D-06 0.000000000000D+00  7 -1 1 24 -13 13 -24 21 2 0.37692192D+00 0.14067505D+00 0.22942405D+06 0.22942405D+06 0.22942405D+06 0.10932764D+01  1  2  5  1  7  1       -1 -.480891679277D-05 0.100000000000D+01
-.380036091427D-04 0.000000000000D+00 -.504021310150D-04 0.152805723448D-06 0.000000000000D+00  7 21 1 24 -13 13 -24 1 2 0.37692192D+00 0.14067505D+00 0.22942405D+06 0.22942405D+06 0.22942405D+06 0.10932764D+01  1  2  5  3  7  1       -1 -.575912109299D-05 0.100000000000D+01
  </mgrwgt>
  </event>
  <event>
  8     66 0.29788925E-05 0.20555226E+03 0.75467711E-02 0.97293409E-01
       -1 -1    0    0    0  501 0.00000000E+00 0.00000000E+00 0.26692570E+03 0.26692589E+03 0.32000000E+00 0.0000E+00 0.9000E+01
        1 -1    0    0  501    0 0.00000000E+00 0.00000000E+00 -.29589868E+03 0.29589885E+03 0.32000000E+00 0.0000E+00 0.9000E+01
       25  2    1    2    0    0 0.15942118E+03 0.31280296E+01 0.80634762E+02 0.34941099E+03 0.30026851E+03 0.0000E+00 0.0000E+00
       23  2    1    2    0    0 -.15942118E+03 -.31280296E+01 -.10960774E+03 0.21341375E+03 0.90037073E+02 0.0000E+00 0.0000E+00
       24  1    3    3    0    0 0.23617251E+02 -.25391305E+02 0.15077165E+03 0.17436112E+03 0.80419002E+02 0.0000E+00 0.9000E+01
      -11  1    4    4    0    0 -.68517949E+02 -.18447388E+02 -.97278116E+02 0.12040784E+03 0.51099893E-03 0.0000E+00 0.9000E+01
       11  1    4    4    0    0 -.90903233E+02 0.15319358E+02 -.12329627E+02 0.93005915E+02 0.51099893E-03 0.0000E+00 0.9000E+01
      -24  1    3    3    0    0 0.13580393E+03 0.28519334E+02 -.70136887E+02 0.17504988E+03 0.80419002E+02 0.0000E+00 0.9000E+01
#aMCatNLO 1  0  0  1  2 0.29648439D+03 0.00000000D+00  -5  7  0 0.00000000D+00 0.00000000D+00 0.00000000D+00 0.00000000D+00 0.00000000D+00
  <mgrwgt>
 0.7654185020D-03    3    2    0
 0.281039258678774D+03 0.000000000000000D+00 0.000000000000000D+00 0.281039258678774D+03
 0.281039258678774D+03 0.000000000000000D+00 0.000000000000000D+00 -.281039258678774D+03
 0.182364299031218D+03 0.236172509737265D+02 -.253913047343570D+02 0.159959459573693D+03
 0.115553381855963D+03 -.685179494357659D+02 -.184473880144140D+02 -.912007047062323D+02
 0.924938467427668D+02 -.909032329630013D+02 0.153193583760842D+02 -.755189917132498D+01
 0.171666989727601D+03 0.135803931425041D+03 0.285193343726868D+02 -.612068556961360D+02
 0.000000000000000D+00 -.000000000000000D+00 -.000000000000000D+00 -.000000000000000D+00
 0.338349420765324D+03 0.000000000000000D+00 0.000000000000000D+00 0.338349420765324D+03
 0.138404503377446D+04 0.000000000000000D+00 0.000000000000000D+00 -.138404503377446D+04
 0.193329420316617D+03 0.275844972395387D+02 0.675360319423822D+02 0.159959459573693D+03
 0.119380190649398D+03 -.660371005680933D+02 0.396631154743652D+02 -.912007047062323D+02
 0.110600701426938D+03 -.887585974624884D+02 0.655545219762051D+02 -.755189917132498D+01
 0.212170020195154D+03 0.139857169118074D+03 0.123460903031333D+03 -.612068556961360D+02
 0.108691412195167D+04 -.126459683270311D+02 -.296214572424286D+03 -.104569561300913D+04
0.119486989182D-04 0.000000000000D+00 0.000000000000D+00 0.635851283832D-06 0.000000000000D+00  7 -1 1 24 -11 11 -24 21 0 0.41065520D-01 0.45522902D-01 0.42251733D+05 0.42251733D+05 0.42251733D+05 0.11537836D+01  1  2  2  1  7  1       -1 0.750431475958D-03 0.100000000000D+01
-.584849437633D-06 0.000000000000D+00 -.458861500104D-07 0.635851283832D-06 0.000000000000D+00  7 -1 1 24 -11 11 -24 21 2 0.41065520D-01 0.45522902D-01 0.42251733D+05 0.42251733D+05 0.42251733D+05 0.11537836D+01  1  2  3  1  7  1       -1 -.488971100567D-04 0.100000000000D+01
0.764106529604D-06 0.000000000000D+00 0.000000000000D+00 0.635851283832D-06 0.000000000000D+00  7 -1 1 24 -11 11 -24 21 2 0.41065520D-01 0.45522902D-01 0.42251733D+05 0.42251733D+05 0.42251733D+05 0.11537836D+01  1  2 15  1  7  1       -1 0.638841361023D-04 0.100000000000D+01
  </mgrwgt>
  </event>
  <event>
  9     66 0.29788925E-05 0.17534825E+03 0.75467711E-02 0.10639863E+00
       -1 -1    0    0    0  501 0.00000000E+00 0.00000000E+00 0.10269508E+04 0.10269508E+04 0.32000000E+00 0.0000E+00 0.9000E+01
       21 -1    0    0  501  502 0.00000000E+00 0.00000000E+00 -.52686942E+02 0.52692280E+02 0.75000000E+00 0.0000E+00 0.9000E+01
       25  2    1    2    0    0 0.16683919E+02 -.42300013E+02 0.65811019E+03 0.72603948E+03 0.30324358E+03 0.0000E+00 0.0000E+00
       23  2    1    2    0    0 -.14242285E+02 -.51029353E+00 0.11798350E+03 0.15084714E+03 0.92906669E+02 0.0000E+00 0.0000E+00
       24  1    3    3    0    0 -.10316722E+03 0.28717616E+02 0.40084175E+03 0.42262217E+03 0.80419002E+02 0.0000E+00 0.9000E+01
      -11  1    4    4    0    0 -.30109055E+02 0.18700994E+02 0.12068738E+03 0.12578444E+03 0.51099893E-03 0.0000E+00 0.9000E+01
       11  1    4    4    0    0 0.15866770E+02 -.19211287E+02 -.27038733E+01 0.25062699E+02 0.51099893E-03 0.0000E+00 0.9000E+01
      -24  1    3    3    0    0 0.11985114E+03 -.71017630E+02 0.25726844E+03 0.30341731E+03 0.80419002E+02 0.0000E+00 0.9000E+01
       -1  1    1    2    0  502 -.24416341E+01 0.42810307E+02 0.19817015E+03 0.20275649E+03 0.32000000E+00 0.0000E+00 0.9000E+01
#aMCatNLO 2  0  0  2  2 0.42879878D+02 0.00000000D+00  -5  7  0 0.00000000D+00 0.00000000D+00 0.00000000D+00 0.00000000D+00 0.00000000D+00
  <mgrwgt>
 0.2066400794D-03    1    2    0
 0.202959383792810D+03 0.000000000000000D+00 0.000000000000000D+00 0.202959383792810D+03
 0.202959383792810D+03 0.000000000000000D+00 0.000000000000000D+00 -.202959383792810D+03
 0.150232725205669D+03 -.104054986571904D+03 0.442834243883648D+02 0.575690356208296D+02
 0.431319944862836D+02 -.303606401742012D+02 0.231121361949229D+02 0.201104360242342D+02
 0.571898295038671D+02 0.155183254350350D+02 -.131021637104010D+02 -.534620564557667D+02
 0.155364218389800D+03 0.118897301311070D+03 -.542933968728867D+02 -.242174151892971D+02
 0.000000000000000D+00 -.000000000000000D+00 0.000000000000000D+00 0.000000000000000D+00
 0.253589404061680D+03 0.000000000000000D+00 0.000000000000000D+00 0.253589404061680D+03
 0.213374806828653D+03 0.000000000000000D+00 0.000000000000000D+00 -.213374806828653D+03
 0.145772370366349D+03 -.103167209137984D+03 0.287176096536710D+02 0.575690356208296D+02
 0.407518358278344D+02 -.301090560875160D+02 0.187009953685029D+02 0.201104360242342D+02
 0.589832038846361D+02 0.158667511851831D+02 -.192112744721544D+02 -.534620564557667D+02
 0.162669916373263D+03 0.119851148161284D+03 -.710176374183541D+02 -.242174151892971D+02
 0.587868844382506D+02 -.244163412096779D+01 0.428103068683346D+02 0.402145972330270D+02
0.356847471768D-06 0.000000000000D+00 0.000000000000D+00 0.663132295537D-08 0.272030631258D-12  7 -1 21 24 -11 11 -24 -1 2 0.15799253D+00 0.81060817D-02 0.39605092D+05 0.39605092D+05 0.39605092D+05 0.11563064D+01  1  2  1  4  7  2        1 0.206640079354D-03 0.100000000000D+01
  </mgrwgt>
  </event>
  <event>
  8     66 0.29788925E-05 0.37692545E+03 0.75467711E-02 0.90110182E-01
       -1 -1    0    0    0  501 0.00000000E+00 0.00000000E+00 0.27788002E+03 0.27788021E+03 0.32000000E+00 0.0000E+00 0.9000E+01
        1 -1    0    0  501    0 0.00000000E+00 0.00000000E+00 -.15354668E+04 0.15354669E+04 0.32000000E+00 0.0000E+00 0.9000E+01
       25  2    1    2    0    0 0.27275956E+03 0.16013423E+03 -.13912825E+04 0.14578530E+04 0.29937911E+03 0.0000E+00 0.0000E+00
       23  2    1    2    0    0 -.27275956E+03 -.16013423E+03 0.13369564E+03 0.35549405E+03 0.91982295E+02 0.0000E+00 0.0000E+00
       24  1    3    3    0    0 0.92217227E+02 -.54899576E+02 -.30885234E+03 0.33671199E+03 0.80419002E+02 0.0000E+00 0.9000E+01
      -13  1    4    4    0    0 -.26472872E+03 -.12706152E+03 0.13042097E+03 0.32130292E+03 0.10565837E+00 0.0000E+00 0.9000E+01
       13  1    4    4    0    0 -.80308427E+01 -.33072710E+02 0.32746672E+01 0.34191127E+02 0.10565837E+00 0.0000E+00 0.9000E+01
      -24  1    3    3    0    0 0.18054233E+03 0.21503381E+03 -.10824301E+04 0.11211410E+04 0.80419002E+02 0.0000E+00 0.9000E+01
#aMCatNLO 1  0  0  2  2 0.58953131D+03 0.00000000D+00  -5  7  0 0.00000000D+00 0.00000000D+00 0.00000000D+00 0.00000000D+00 0.00000000D+00
  <mgrwgt>
 0.1343823620D-02    3    2    0
 0.653204225749990D+03 0.000000000000000D+00 0.000000000000000D+00 0.653204225749990D+03
 0.653204225749990D+03 0.000000000000000D+00 0.000000000000000D+00 -.653204225749990D+03
 0.170059428930244D+03 0.922172273810881D+02 -.548995761290768D+02 -.104570612165668D+03
 0.571528991655319D+03 -.264729055679000D+03 -.127061647167963D+03 0.490325660353213D+03
 0.506102522118334D+02 -.803050405301081D+01 -.330725858151900D+02 0.374581459911839D+02
 0.514209778702583D+03 0.180542332350923D+03 0.215033809112230D+03 -.423213194178729D+03
 0.000000000000000D+00 -.000000000000000D+00 0.000000000000000D+00 0.000000000000000D+00
 0.109382323294514D+04 0.000000000000000D+00 0.000000000000000D+00 0.109382323294514D+04
 0.946985361201673D+03 0.000000000000000D+00 0.000000000000000D+00 -.946985361201673D+03
 0.233963905759233D+03 0.156154427126041D+03 -.113809820331903D+03 -.104570612165668D+03
 0.578023620020979D+03 -.828109122465914D+02 -.294676780412421D+03 0.490325660353213D+03
 0.629724420222365D+02 0.994409985048702D+01 -.496339665079331D+02 0.374581459911839D+02
 0.558305605533106D+03 0.350269237862746D+03 0.586513980686395D+02 -.423213194178729D+03
 0.607543020811263D+03 -.433556852592683D+03 0.399469169183618D+03 0.146837871743472D+03
0.309344109166D-03 0.000000000000D+00 0.000000000000D+00 0.789358156339D-05 0.000000000000D+00  7 -1 1 24 -13 13 -24 21 0 0.42750790D-01 0.23622568D+00 0.14207280D+06 0.14207280D+06 0.14207280D+06 0.11094175D+01  1  2  2  2  7  2        1 0.130126037994D-02 0.100000000000D+01
-.108685450561D-04 0.000000000000D+00 -.118796283137D-05 0.789358156339D-05 0.000000000000D+00  7 -1 1 24 -13 13 -24 21 2 0.42750790D-01 0.23622568D+00 0.14207280D+06 0.14207280D+06 0.14207280D+06 0.11094175D+01  1  2  3  2  7  2        1 -.562708948827D-04 0.100000000000D+01
0.190895000762D-04 0.000000000000D+00 0.000000000000D+00 0.789358156339D-05 0.000000000000D+00  7 -1 1 24 -13 13 -24 21 2 0.42750790D-01 0.23622568D+00 0.14207280D+06 0.14207280D+06 0.14207280D+06 0.11094175D+01  1  2 15  2  7  2        1 0.988341352596D-04 0.100000000000D+01
  </mgrwgt>
  </event>
  <event>
  8     66 0.29788925E-05 0.21193568E+03 0.75467711E-02 0.10035232E+00
       -1 -1    0    0    0  501 0.00000000E+00 0.00000000E+00 0.10421411E+03 0.10421460E+03 0.32000000E+00 0.0000E+00 0.9000E+01
        1 -1    0    0  501    0 0.00000000E+00 0.00000000E+00 -.73228267E+03 0.73228274E+03 0.32000000E+00 0.0000E+00 0.9000E+01
       25  2    1    2    0    0 0.40709541E+02 -.16106659E+03 -.29636827E+03 0.45319270E+03 0.29991626E+03 0.0000E+00 0.0000E+00
       23  2    1    2    0    0 -.40709541E+02 0.16106659E+03 -.33170030E+03 0.38330464E+03 0.96424306E+02 0.0000E+00 0.0000E+00
       24  1    3    3    0    0 0.67721470E+02 -.12234012E+03 -.21254353E+02 0.16270300E+03 0.80419002E+02 0.0000E+00 0.9000E+01
      -13  1    4    4    0    0 0.54796416E+01 0.10942233E+02 0.38356152E+01 0.12825055E+02 0.10565837E+00 0.0000E+00 0.9000E+01
       13  1    4    4    0    0 -.46189182E+02 0.15012435E+03 -.33553591E+03 0.37047958E+03 0.10565837E+00 0.0000E+00 0.9000E+01
      -24  1    3    3    0    0 -.27011929E+02 -.38726462E+02 -.27511392E+03 0.29048970E+03 0.80419002E+02 0.0000E+00 0.9000E+01
#aMCatNLO 1  0  0  1  2 0.17277244D+03 0.00000000D+00  -5  7  0 0.00000000D+00 0.00000000D+00 0.00000000D+00 0.00000000D+00 0.00000000D+00
  <mgrwgt>
 0.1111600211D-02    3    2    0
 0.276250646183673D+03 0.000000000000000D+00 0.000000000000000D+00 0.276250646183673D+03
 0.276250646183673D+03 0.000000000000000D+00 0.000000000000000D+00 -.276250646183673D+03
 0.222174059017252D+03 0.677214783281691D+02 -.122340157342680D+03 0.152776908661769D+03
 0.237773713930704D+02 0.547968409405026D+01 0.109420854585520D+02 0.203864469295451D+02
 0.179485075598333D+03 -.461892380312542D+02 0.150124552514604D+03 -.868565793991539D+02
 0.127064786358692D+03 -.270119243909652D+02 -.387264806304755D+02 -.863067761921599D+02
 0.000000000000000D+00 0.000000000000000D+00 -.000000000000000D+00 -.000000000000000D+00
 0.299680551934854D+03 0.000000000000000D+00 0.000000000000000D+00 0.299680551934854D+03
 0.101835326851887D+04 0.000000000000000D+00 0.000000000000000D+00 -.101835326851887D+04
 0.200910870261579D+03 0.621513962119406D+01 -.102559982713226D+03 0.152776908661769D+03
 0.243291173699078D+02 -.151383845212630D+01 0.131911723030386D+02 0.203864469295451D+02
 0.216178849129242D+03 -.103709224408237D+03 0.168622733338550D+03 -.868565793991539D+02
 0.137466292241450D+03 -.654683594774982D+02 -.263590561075846D+02 -.863067761921599D+02
 0.739148691451545D+03 0.164476282716668D+03 -.528948668207781D+02 -.718672716584016D+03
0.129490339483D-04 0.000000000000D+00 0.000000000000D+00 0.126453640602D-06 0.000000000000D+00  7 -1 1 24 -13 13 -24 21 0 0.16032983D-01 0.11265892D+00 0.44916731D+05 0.44916731D+05 0.44916731D+05 0.11514136D+01  1  2  2  1  7  1       -1 0.109153988483D-02 0.100000000000D+01
-.657954820795D-06 0.000000000000D+00 -.497276999204D-07 0.126453640602D-06 0.000000000000D+00  7 -1 1 24 -13 13 -24 21 2 0.16032983D-01 0.11265892D+00 0.44916731D+05 0.44916731D+05 0.44916731D+05 0.11514136D+01  1  2  3  1  7  1       -1 -.735294008934D-04 0.100000000000D+01
0.837458365332D-06 0.000000000000D+00 0.000000000000D+00 0.126453640602D-06 0.000000000000D+00  7 -1 1 24 -13 13 -24 21 2 0.16032983D-01 0.11265892D+00 0.44916731D+05 0.44916731D+05 0.44916731D+05 0.11514136D+01  1  2 15  1  7  1       -1 0.935897267256D-04 0.100000000000D+01
  </mgrwgt>
  </event>
  <event>
  8     66 0.29788925E-05 0.18458237E+03 0.75467711E-02 0.10130601E+00
       -1 -1    0    0    0  501 0.00000000E+00 0.00000000E+00 0.11333014E+03 0.11333059E+03 0.32000000E+00 0.0000E+00 0.9000E+01
        1 -1    0    0  501    0 0.00000000E+00 0.00000000E+00 -.57448309E+03 0.57448318E+03 0.32000000E+00 0.0000E+00 0.9000E+01
       25  2    1    2    0    0 -.13313121E+03 -.41673806E+02 -.22691468E+03 0.40096833E+03 0.29970770E+03 0.0000E+00 0.0000E+00
       23  2    1    2    0    0 0.13313121E+03 0.41673806E+02 -.23423827E+03 0.28684544E+03 0.89174600E+02 0.0000E+00 0.0000E+00
       24  1    3    3    0    0 -.10700859E+03 -.10398342E+03 -.22289133E+02 0.17096027E+03 0.80419002E+02 0.0000E+00 0.9000E+01
      -11  1    4    4    0    0 0.14725054E+02 0.44636053E+02 -.61643810E+02 0.77518797E+02 0.51099893E-03 0.0000E+00 0.9000E+01
       11  1    4    4    0    0 0.11840616E+03 -.29622471E+01 -.17259446E+03 0.20932664E+03 0.51099893E-03 0.0000E+00 0.9000E+01
      -24  1    3    3    0    0 -.26122615E+02 0.62309616E+02 -.20462555E+03 0.23000806E+03 0.80419002E+02 0.0000E+00 0.9000E+01
#aMCatNLO 1  0  0  1  2 0.12070615D+03 0.00000000D+00  -5  7  0 0.00000000D+00 0.00000000D+00 0.00000000D+00 0.00000000D+00 0.00000000D+00
  <mgrwgt>
 0.2835273650D-03    9    2    0
 0.255159621267087D+03 0.000000000000000D+00 0.000000000000000D+00 0.255159621267087D+03
 0.255159621267087D+03 0.000000000000000D+00 0.000000000000000D+00 -.255159621267087D+03
 0.210280381928422D+03 -.107008594750818D+03 -.103983421927975D+03 0.124447706620879D+03
 0.487758801264925D+02 0.147250543942692D+02 0.446360532849134D+02 -.130338790214634D+02
 0.126166703562854D+03 0.118406155513634D+03 -.296224706841966D+01 -.434654404867120D+02
 0.125096276916405D+03 -.261226151570848D+02 0.623096157114810D+02 -.679483871127037D+02
 0.000000000000000D+00 0.000000000000000D+00 -.000000000000000D+00 0.000000000000000D+00
 0.425504034061187D+03 0.000000000000000D+00 0.000000000000000D+00 0.425504034061187D+03
 0.284505169867352D+03 0.000000000000000D+00 0.000000000000000D+00 -.284505169867352D+03
 0.210926588482234D+03 -.135735920011778D+03 -.641197170123445D+02 0.124447706620879D+03
 0.566508784893453D+02 0.753469668719449D+01 0.546138112303142D+02 -.130338790214634D+02
 0.112705549700588D+03 0.102114495124854D+03 0.196450070502426D+02 -.434654404867120D+02
 0.144117311619131D+03 -.444836273573114D+02 0.877884225844904D+02 -.679483871127037D+02
 0.185608875637240D+03 0.705703555570411D+02 -.979275238527028D+02 0.140998864193835D+03
0.311240551049D-05 0.000000000000D+00 0.000000000000D+00 0.148110703367D-06 0.000000000000D+00  7 -1 1 24 -11 11 -24 21 0 0.17435447D-01 0.88382055D-01 0.48395647D+05 0.48395647D+05 0.48395647D+05 0.11485433D+01  1  2  2  1  7  1       -1 0.327186245590D-03 0.100000000000D+01
-.168287320320D-06 0.000000000000D+00 -.119524566755D-07 0.148110703367D-06 0.000000000000D+00  7 -1 1 24 -11 11 -24 21 2 0.17435447D-01 0.88382055D-01 0.48395647D+05 0.48395647D+05 0.48395647D+05 0.11485433D+01  1  2  3  1  7  1       -1 -.233369990742D-04 0.100000000000D+01
0.199207845386D-06 0.000000000000D+00 0.000000000000D+00 0.148110703367D-06 0.000000000000D+00  7 -1 1 24 -11 11 -24 21 2 0.17435447D-01 0.88382055D-01 0.48395647D+05 0.48395647D+05 0.48395647D+05 0.11485433D+01  1  2 15  1  7  1       -1 0.276248578592D-04 0.100000000000D+01
0.156907260359D-05 0.000000000000D+00 0.000000000000D+00 0.148110703367D-06 0.000000000000D+00  7 -1 1 24 -11 11 -24 21 2 0.29512977D-01 0.88382055D-01 0.83295751D+05 0.83295751D+05 0.83295751D+05 0.11282946D+01  1  2 12  1  7  1       -1 0.895494589442D-04 0.100000000000D+01
-.289722015291D-05 0.000000000000D+00 0.000000000000D+00 0.148110703367D-06 0.000000000000D+00  7 -1 1 24 -11 11 -24 21 2 0.17435447D-01 0.88382055D-01 0.48395647D+05 0.48395647D+05 0.48395647D+05 0.11485433D+01  1  2  4  1  7  1       -1 -.401767785579D-03 0.100000000000D+01
-.293517845302D-05 0.000000000000D+00 -.106070058703D-05 0.148110703367D-06 0.000000000000D+00  7 -1 1 24 -11 11 -24 21 2 0.31983510D-01 0.88382055D-01 0.48395647D+05 0.48395647D+05 0.48395647D+05 0.11485433D+01  1  2  5  1  7  1       -1 -.152825173265D-03 0.100000000000D+01
0.315011433797D-05 0.000000000000D+00 0.891519443257D-06 0.148110703367D-06 0.000000000000D+00  7 -1 1 24 -11 11 -24 21 2 0.17435447D-01 0.88382055D-01 0.48395647D+05 0.48395647D+05 0.48395647D+05 0.11485433D+01  1  2  6  1  7  1       -1 0.436837518412D-03 0.100000000000D+01
0.921884462212D-07 0.000000000000D+00 0.000000000000D+00 0.148110703367D-06 0.000000000000D+00  7 21 1 24 -11 11 -24 1 2 0.29512977D-01 0.88382055D-01 0.83295751D+05 0.83295751D+05 0.83295751D+05 0.11282946D+01  1  2 12  3  7  1       -1 0.578425870256D-04 0.100000000000D+01
-.136597950751D-06 0.000000000000D+00 -.703071233232D-07 0.148110703367D-06 0.000000000000D+00  7 21 1 24 -11 11 -24 1 2 0.31983510D-01 0.88382055D-01 0.48395647D+05 0.48395647D+05 0.48395647D+05 0.11485433D+01  1  2  5  3  7  1       -1 -.775833449195D-04 0.100000000000D+01
  </mgrwgt>
  </event>
  <event>
  8     66 0.29788925E-05 0.15743489E+03 0.75467711E-02 0.10164652E+00
       -1 -1    0    0    0  501 0.00000000E+00 0.00000000E+00 0.12614046E+03 0.12614087E+03 0.32000000E+00 0.0000E+00 0.9000E+01
        1 -1    0    0  501    0 0.00000000E+00 0.00000000E+00 -.85784039E+03 0.85784045E+03 0.32000000E+00 0.0000E+00 0.9000E+01
       25  2    1    2    0    0 0.17617036E+03 0.77561278E+02 -.18841595E+03 0.40070436E+03 0.29666761E+03 0.0000E+00 0.0000E+00
       23  2    1    2    0    0 -.17617036E+03 -.77561278E+02 -.54328397E+03 0.58327695E+03 0.89458263E+02 0.0000E+00 0.0000E+00
       24  1    3    3    0    0 0.13288600E+03 -.68387997E+02 -.14481394E+03 0.22310065E+03 0.80419002E+02 0.0000E+00 0.9000E+01
      -11  1    4    4    0    0 -.12517917E+03 -.54798115E+02 -.25176785E+03 0.28646066E+03 0.51099893E-03 0.0000E+00 0.9000E+01
       11  1    4    4    0    0 -.50991187E+02 -.22763164E+02 -.29151612E+03 0.29681629E+03 0.51099893E-03 0.0000E+00 0.9000E+01
      -24  1    3    3    0    0 0.43284356E+02 0.14594928E+03 -.43602009E+02 0.17760371E+03 0.80419002E+02 0.0000E+00 0.9000E+01
#aMCatNLO 1  0  0  1  2 0.25393798D+02 0.00000000D+00  -5  7  0 0.00000000D+00 0.00000000D+00 0.00000000D+00 0.00000000D+00 0.00000000D+00
  <mgrwgt>
 0.1739999205D-02    9    2    0
 0.328950776505487D+03 0.000000000000000D+00 0.000000000000000D+00 0.328950776505487D+03
 0.328950776505487D+03 0.000000000000000D+00 0.000000000000000D+00 -.328950776505487D+03
 0.172619330365468D+03 0.132886004141243D+03 -.683879973802366D+02 0.315374218849031D+02
 0.148431660160562D+03 -.125179172513881D+03 -.547981145093402D+02 -.579594612896102D+02
 0.119712991321334D+03 -.509911873914027D+02 -.227631636187697D+02 -.105891158656339D+03
 0.217137571163609D+03 0.432843557640410D+02 0.145949275508347D+03 0.132313198061046D+03
 0.000000000000000D+00 0.000000000000000D+00 -.000000000000000D+00 0.000000000000000D+00
 0.341926416993638D+03 0.000000000000000D+00 0.000000000000000D+00 0.341926416993638D+03
 0.341858918157578D+03 0.000000000000000D+00 0.000000000000000D+00 -.341858918157578D+03
 0.166989127042740D+03 0.126895748662602D+03 -.657344094697541D+02 0.315374218849031D+02
 0.152103162397229D+03 -.130480219434469D+03 -.524498350291865D+02 -.579594612896102D+02
 0.121245780785663D+03 -.552413895676272D+02 -.208803916481669D+02 -.105891158656339D+03
 0.218053377484270D+03 0.356081483330242D+02 0.149349713321046D+03 0.132313198061046D+03
 0.253938874413139D+02 0.232177120064700D+02 -.102850771739385D+02 0.674988360598134D-01
0.218748604488D-04 0.000000000000D+00 0.000000000000D+00 0.236877541440D-07 0.000000000000D+00  7 -1 1 24 -11 11 -24 21 0 0.19406261D-01 0.13197548D+00 0.71388264D+05 0.71388264D+05 0.71388264D+05 0.11339353D+01  1  2  2  1  7  1       -1 0.106322317935D-02 0.100000000000D+01
-.115136580768D-05 0.000000000000D+00 -.840052239064D-07 0.236877541440D-07 0.000000000000D+00  7 -1 1 24 -11 11 -24 21 2 0.19406261D-01 0.13197548D+00 0.71388264D+05 0.71388264D+05 0.71388264D+05 0.11339353D+01  1  2  3  1  7  1       -1 -.719563333017D-04 0.100000000000D+01
0.141912447765D-05 0.000000000000D+00 0.000000000000D+00 0.236877541440D-07 0.000000000000D+00  7 -1 1 24 -11 11 -24 21 2 0.19406261D-01 0.13197548D+00 0.71388264D+05 0.71388264D+05 0.71388264D+05 0.11339353D+01  1  2 15  1  7  1       -1 0.886903130435D-04 0.100000000000D+01
0.446968575512D-04 0.000000000000D+00 0.000000000000D+00 0.236877541440D-07 0.000000000000D+00  7 -1 1 24 -11 11 -24 21 2 0.20537801D-01 0.13197548D+00 0.79068688D+05 0.79068688D+05 0.79068688D+05 0.11301893D+01  1  2 12  1  7  1       -1 0.253143494758D-02 0.100000000000D+01
-.343976176435D-04 0.000000000000D+00 0.000000000000D+00 0.236877541440D-07 0.000000000000D+00  7 -1 1 24 -11 11 -24 21 2 0.19406261D-01 0.13197548D+00 0.71388264D+05 0.71388264D+05 0.71388264D+05 0.11339353D+01  1  2  4  1  7  1       -1 -.214973071411D-02 0.100000000000D+01
-.193134247283D-03 0.000000000000D+00 -.384903661856D-04 0.236877541440D-07 0.000000000000D+00  7 -1 1 24 -11 11 -24 21 2 0.20959747D-01 0.13197548D+00 0.71388264D+05 0.71388264D+05 0.71388264D+05 0.11339353D+01  1  2  5  1  7  1       -1 -.106721816029D-01 0.100000000000D+01
0.195631804477D-03 0.000000000000D+00 0.383765189164D-04 0.236877541440D-07 0.000000000000D+00  7 -1 1 24 -11 11 -24 21 2 0.19406261D-01 0.13197548D+00 0.71388264D+05 0.71388264D+05 0.71388264D+05 0.11339353D+01  1  2  6  1  7  1       -1 0.122263030859D-01 0.100000000000D+01
0.489512004223D-06 0.000000000000D+00 0.000000000000D+00 0.236877541440D-07 0.000000000000D+00  7 21 1 24 -11 11 -24 1 2 0.20537801D-01 0.13197548D+00 0.79068688D+05 0.79068688D+05 0.79068688D+05 0.11301893D+01  1  2 12  3  7  1       -1 0.335399708630D-03 0.100000000000D+01
-.241600553109D-05 0.000000000000D+00 -.496956341591D-06 0.236877541440D-07 0.000000000000D+00  7 21 1 24 -11 11 -24 1 2 0.20959747D-01 0.13197548D+00 0.71388264D+05 0.71388264D+05 0.71388264D+05 0.11339353D+01  1  2  5  3  7  1       -1 -.161118337887D-02 0.100000000000D+01
  </mgrwgt>
  </event>
  <event>
  8     66 0.29788925E-05 0.17001647E+03 0.75467711E-02 0.10511046E+00
       -1 -1    0    0    0  501 0.00000000E+00 0.00000000E+00 0.82031867E+03 0.82031874E+03 0.32000000E+00 0.0000E+00 0.9000E+01
        1 -1    0    0  501    0 0.00000000E+00 0.00000000E+00 -.63806832E+02 0.63807634E+02 0.32000000E+00 0.0000E+00 0.9000E+01
       25  2    1    2    0    0 -.49087674E+02 -.14776096E+02 0.70296398E+03 0.76570210E+03 0.29918791E+03 0.0000E+00 0.0000E+00
       23  2    1    2    0    0 0.49087674E+02 0.14776096E+02 0.53547860E+02 0.11842427E+03 0.92352600E+02 0.0000E+00 0.0000E+00
       24  1    3    3    0    0 0.87174243E+02 0.14538791E+02 0.45241917E+03 0.46793273E+03 0.80419002E+02 0.0000E+00 0.9000E+01
      -11  1    4    4    0    0 0.25772840E+02 0.50498302E+02 0.10195906E+02 0.57604464E+02 0.51099893E-03 0.0000E+00 0.9000E+01
       11  1    4    4    0    0 0.23314834E+02 -.35722206E+02 0.43351953E+02 0.60819810E+02 0.51099893E-03 0.0000E+00 0.9000E+01
      -24  1    3    3    0    0 -.13626192E+03 -.29314887E+02 0.25054481E+03 0.29776936E+03 0.80419002E+02 0.0000E+00 0.9000E+01
#aMCatNLO 1  0  0  1  2 0.51954103D+02 0.00000000D+00  -5  7  0 0.00000000D+00 0.00000000D+00 0.00000000D+00 0.00000000D+00 0.00000000D+00
  <mgrwgt>
 0.7790063908D-03    9    2    0
 0.228784435779709D+03 0.000000000000000D+00 0.000000000000000D+00 0.228784435779709D+03
 0.228784435779709D+03 0.000000000000000D+00 0.000000000000000D+00 -.228784435779709D+03
 0.156154006701402D+03 0.871742426430717D+02 0.145387910891437D+02 0.100529263539550D+03
 0.944476441665606D+02 0.257728404479062D+02 0.504983016699323D+02 -.755383327345298D+02
 0.458425677128958D+02 0.233148336257289D+02 -.357222058298995D+02 -.167893882605148D+02
 0.161124652978559D+03 -.136261916716707D+03 -.293148869291766D+02 -.820154254450499D+01
 0.000000000000000D+00 0.000000000000000D+00 -.000000000000000D+00 0.000000000000000D+00
 0.263768114247372D+03 0.000000000000000D+00 0.000000000000000D+00 0.263768114247372D+03
 0.250389782997214D+03 0.000000000000000D+00 0.000000000000000D+00 -.250389782997214D+03
 0.153266725039642D+03 0.778225818731862D+02 0.293425624783155D+02 0.100529263539550D+03
 0.983391917714384D+02 0.199462202326177D+02 0.597218990352711D+02 -.755383327345298D+02
 0.412941726977410D+02 0.206812892205796D+02 -.315532790182460D+02 -.167893882605148D+02
 0.167608869227279D+03 -.146197270324271D+03 -.135871240113213D+02 -.820154254450499D+01
 0.536489385084862D+02 0.277471789978878D+02 -.439240584840193D+02 0.133783312501580D+02
0.888979477599D-05 0.000000000000D+00 0.000000000000D+00 0.108881488874D-06 0.000000000000D+00  7 -1 1 24 -11 11 -24 21 0 0.12620294D+00 0.98165022D-02 0.36054133D+05 0.36054133D+05 0.36054133D+05 0.11600005D+01  1  2  2  1  7  1       -1 0.439467076969D-03 0.100000000000D+01
-.473015554463D-06 0.000000000000D+00 -.341391526765D-07 0.108881488874D-06 0.000000000000D+00  7 -1 1 24 -11 11 -24 21 2 0.12620294D+00 0.98165022D-02 0.36054133D+05 0.36054133D+05 0.36054133D+05 0.11600005D+01  1  2  3  1  7  1       -1 -.314649014461D-04 0.100000000000D+01
0.550879086897D-06 0.000000000000D+00 0.000000000000D+00 0.108881488874D-06 0.000000000000D+00  7 -1 1 24 -11 11 -24 21 2 0.12620294D+00 0.98165022D-02 0.36054133D+05 0.36054133D+05 0.36054133D+05 0.11600005D+01  1  2 15  1  7  1       -1 0.366443682759D-04 0.100000000000D+01
0.807745989344D-05 0.000000000000D+00 0.000000000000D+00 0.108881488874D-06 0.000000000000D+00  7 -1 1 24 -11 11 -24 21 2 0.15071366D+00 0.98165022D-02 0.47468544D+05 0.47468544D+05 0.47468544D+05 0.11492854D+01  1  2 12  1  7  1       -1 0.329738467108D-03 0.100000000000D+01
-.776442875614D-05 0.000000000000D+00 0.000000000000D+00 0.108881488874D-06 0.000000000000D+00  7 -1 1 24 -11 11 -24 21 2 0.12620294D+00 0.98165022D-02 0.36054133D+05 0.36054133D+05 0.36054133D+05 0.11600005D+01  1  2  4  1  7  1       -1 -.516488270401D-03 0.100000000000D+01
-.190340920766D-04 0.000000000000D+00 -.565955831783D-05 0.108881488874D-06 0.000000000000D+00  7 -1 1 24 -11 11 -24 21 2 0.15501411D+00 0.98165022D-02 0.36054133D+05 0.36054133D+05 0.36054133D+05 0.11600005D+01  1  2  5  1  7  1       -1 -.733831835797D-03 0.100000000000D+01
0.198933679967D-04 0.000000000000D+00 0.554198292897D-05 0.108881488874D-06 0.000000000000D+00  7 -1 1 24 -11 11 -24 21 2 0.12620294D+00 0.98165022D-02 0.36054133D+05 0.36054133D+05 0.36054133D+05 0.11600005D+01  1  2  6  1  7  1       -1 0.132330291793D-02 0.100000000000D+01
0.210703397015D-06 0.000000000000D+00 0.000000000000D+00 0.108881488874D-06 0.000000000000D+00  7 21 1 24 -11 11 -24 1 2 0.15071366D+00 0.98165022D-02 0.47468544D+05 0.47468544D+05 0.47468544D+05 0.11492854D+01  1  2 12  3  7  1       -1 0.569088055268D-04 0.100000000000D+01
-.488020639176D-06 0.000000000000D+00 -.165431660400D-06 0.108881488874D-06 0.000000000000D+00  7 21 1 24 -11 11 -24 1 2 0.15501411D+00 0.98165022D-02 0.36054133D+05 0.36054133D+05 0.36054133D+05 0.11600005D+01  1  2  5  3  7  1       -1 -.125270237336D-03 0.100000000000D+01
  </mgrwgt>
  </event>
  <event>
  8     66 0.29788925E-05 0.30809580E+03 0.75467711E-02 0.93918887E-01
       -1 -1    0    0    0  501 0.00000000E+00 0.00000000E+00 0.56288159E+03 0.56288168E+03 0.32000000E+00 0.0000E+00 0.9000E+01
        1 -1    0    0  501    0 0.00000000E+00 0.00000000E+00 -.55082318E+03 0.55082327E+03 0.32000000E+00 0.0000E+00 0.9000E+01
       25  2    1    2    0    0 -.44587996E+03 -.68754927E+01 0.25827286E+03 0.59610616E+03 0.29963556E+03 0.0000E+00 0.0000E+00
       23  2    1    2    0    0 0.44587996E+03 0.68754927E+01 -.24621446E+03 0.51759879E+03 0.91819037E+02 0.0000E+00 0.0000E+00
       24  1    3    3    0    0 -.75352896E+01 0.38123464E+02 0.41781642E+02 0.98605784E+02 0.80419002E+02 0.0000E+00 0.9000E+01
      -11  1    4    4    0    0 -.16709625E+00 -.70354463E+01 -.11218635E+02 0.13243232E+02 0.51099893E-03 0.0000E+00 0.9000E+01
       11  1    4    4    0    0 0.44604706E+03 0.13910939E+02 -.23499582E+03 0.50435556E+03 0.51099893E-03 0.0000E+00 0.9000E+01
      -24  1    3    3    0    0 -.43834467E+03 -.44998957E+02 0.21649122E+03 0.49750038E+03 0.80419002E+02 0.0000E+00 0.9000E+01
#aMCatNLO 1  0  0  1  2 0.71195364D+02 0.00000000D+00  -5  7  0 0.00000000D+00 0.00000000D+00 0.00000000D+00 0.00000000D+00 0.00000000D+00
  <mgrwgt>
 0.1161761079D-02    9    2    0
 0.556819834773470D+03 0.000000000000000D+00 0.000000000000000D+00 0.556819834773470D+03
 0.556819834773470D+03 0.000000000000000D+00 0.000000000000000D+00 -.556819834773470D+03
 0.981591556976160D+02 -.753528963433190D+01 0.381234639334529D+02 0.407163947414274D+02
 0.133654826663018D+02 -.167096263328304D+00 -.703544626072985D+01 -.113626890151222D+02
 0.506929641974716D+03 0.446047059114263D+03 0.139109390074941D+02 -.240470723257657D+03
 0.495185389208306D+03 -.438344673216602D+03 -.449989566802171D+02 0.211117017531352D+03
 0.000000000000000D+00 -.000000000000000D+00 0.000000000000000D+00 0.000000000000000D+00
 0.656970385486292D+03 0.000000000000000D+00 0.000000000000000D+00 0.656970385486292D+03
 0.570754722338577D+03 0.000000000000000D+00 0.000000000000000D+00 -.570754722338577D+03
 0.972373572829079D+02 -.152772796990546D+01 0.364380150873176D+02 0.407163947414274D+02
 0.135039787905983D+02 0.659018512877278D+00 -.726721653194919D+01 -.113626890151222D+02
 0.535180156063424D+03 0.478087236174337D+03 0.492192108768740D+01 -.240470723257657D+03
 0.469991628779330D+03 -.408669832226856D+03 -.533243687690486D+02 0.211117017531352D+03
 0.111811986908609D+03 -.685486944904528D+02 0.192316491259928D+02 0.862156631477148D+02
0.122521307793D-03 0.000000000000D+00 0.000000000000D+00 0.776666432849D-05 0.000000000000D+00  7 -1 1 24 -11 11 -24 21 0 0.86597181D-01 0.84742042D-01 0.24529443D+06 0.24529443D+06 0.24529443D+06 0.10910805D+01  1  2  2  1  7  1       -1 0.791926947813D-03 0.100000000000D+01
-.669318855432D-05 0.000000000000D+00 -.470514082528D-06 0.776666432849D-05 0.000000000000D+00  7 -1 1 24 -11 11 -24 21 2 0.86597181D-01 0.84742042D-01 0.24529443D+06 0.24529443D+06 0.24529443D+06 0.10910805D+01  1  2  3  1  7  1       -1 -.515015288793D-04 0.100000000000D+01
0.784996299191D-05 0.000000000000D+00 0.000000000000D+00 0.776666432849D-05 0.000000000000D+00  7 -1 1 24 -11 11 -24 21 2 0.86597181D-01 0.84742042D-01 0.24529443D+06 0.24529443D+06 0.24529443D+06 0.10910805D+01  1  2 15  1  7  1       -1 0.604024662459D-04 0.100000000000D+01
0.371987320979D-03 0.000000000000D+00 0.000000000000D+00 0.776666432849D-05 0.000000000000D+00  7 -1 1 24 -11 11 -24 21 2 0.10312551D+00 0.84742042D-01 0.28345721D+06 0.28345721D+06 0.28345721D+06 0.10863791D+01  1  2 12  1  7  1       -1 0.192697533456D-02 0.100000000000D+01
-.377855076449D-03 0.000000000000D+00 0.000000000000D+00 0.776666432849D-05 0.000000000000D+00  7 -1 1 24 -11 11 -24 21 2 0.86597181D-01 0.84742042D-01 0.24529443D+06 0.24529443D+06 0.24529443D+06 0.10910805D+01  1  2  4  1  7  1       -1 -.290745045863D-02 0.100000000000D+01
-.580812960411D-03 0.000000000000D+00 -.915504939986D-04 0.776666432849D-05 0.000000000000D+00  7 -1 1 24 -11 11 -24 21 2 0.10367524D+00 0.84742042D-01 0.24529443D+06 0.24529443D+06 0.24529443D+06 0.10910805D+01  1  2  5  1  7  1       -1 -.301619067518D-02 0.100000000000D+01
0.589184809125D-03 0.000000000000D+00 0.900872008070D-04 0.776666432849D-05 0.000000000000D+00  7 -1 1 24 -11 11 -24 21 2 0.86597181D-01 0.84742042D-01 0.24529443D+06 0.24529443D+06 0.24529443D+06 0.10910805D+01  1  2  6  1  7  1       -1 0.453355201578D-02 0.100000000000D+01
0.958246305638D-05 0.000000000000D+00 0.000000000000D+00 0.776666432849D-05 0.000000000000D+00  7 21 1 24 -11 11 -24 1 2 0.10312551D+00 0.84742042D-01 0.28345721D+06 0.28345721D+06 0.28345721D+06 0.10863791D+01  1  2 12  3  7  1       -1 0.342151248933D-03 0.100000000000D+01
-.144399340125D-04 0.000000000000D+00 -.241450046847D-05 0.776666432849D-05 0.000000000000D+00  7 21 1 24 -11 11 -24 1 2 0.10367524D+00 0.84742042D-01 0.24529443D+06 0.24529443D+06 0.24529443D+06 0.10910805D+01  1  2  5  3  7  1       -1 -.518104271813D-03 0.100000000000D+01
  </mgrwgt>
  </event>
  <event>
  8     66 0.29788925E-05 0.21135313E+03 0.75467711E-02 0.10091623E+00
       -1 -1    0    0    0  501 0.00000000E+00 0.00000000E+00 0.52947559E+02 0.52948526E+02 0.32000000E+00 0.0000E+00 0.9000E+01
        1 -1    0    0  501    0 0.00000000E+00 0.00000000E+00 -.18283501E+04 0.18283501E+04 0.32000000E+00 0.0000E+00 0.9000E+01
       25  2    1    2    0    0 -.16014921E+03 0.29333125E+02 -.59540637E+03 0.68632890E+03 0.30005069E+03 0.0000E+00 0.0000E+00
       23  2    1    2    0    0 0.16014921E+03 -.29333125E+02 -.11799962E+04 0.11949698E+04 0.95150059E+02 0.0000E+00 0.0000E+00
       24  1    3    3    0    0 0.10136072E+02 0.10746956E+03 -.28137018E+03 0.31191159E+03 0.80419002E+02 0.0000E+00 0.9000E+01
      -11  1    4    4    0    0 0.26747168E+02 -.35582050E+02 -.15354695E+03 0.15986919E+03 0.51099893E-03 0.0000E+00 0.9000E+01
       11  1    4    4    0    0 0.13340204E+03 0.62489247E+01 -.10264492E+04 0.10351006E+04 0.51099893E-03 0.0000E+00 0.9000E+01
      -24  1    3    3    0    0 -.17028528E+03 -.78136439E+02 -.31403619E+03 0.37441731E+03 0.80419002E+02 0.0000E+00 0.9000E+01
#aMCatNLO 1  0  0  1  2 0.78268787D+02 0.00000000D+00  -5  7  0 0.00000000D+00 0.00000000D+00 0.00000000D+00 0.00000000D+00 0.00000000D+00
  <mgrwgt>
 0.6831855931D-03    9    2    0
 0.311139214701301D+03 0.000000000000000D+00 0.000000000000000D+00 0.311139214701301D+03
 0.311139214701301D+03 0.000000000000000D+00 0.000000000000000D+00 -.311139214701301D+03
 0.140216215309601D+03 0.101360718155191D+02 0.107469563662204D+03 0.392546050264651D+02
 0.452434994631093D+02 0.267471682939967D+02 -.355820497530660D+02 -.809203109802039D+01
 0.200830881331954D+03 0.133402040006757D+03 0.624892468616616D+01 -.149992965031269D+03
 0.235987833297939D+03 -.170285280116273D+03 -.781364385953045D+02 0.118830391102824D+03
 0.000000000000000D+00 0.000000000000000D+00 0.000000000000000D+00 0.000000000000000D+00
 0.410125082233617D+03 0.000000000000000D+00 0.000000000000000D+00 0.410125082233617D+03
 0.329455492850080D+03 0.000000000000000D+00 0.000000000000000D+00 -.329455492850080D+03
 0.134618749074947D+03 -.556820630496335D+01 0.100414454691018D+03 0.392546050264651D+02
 0.443652272750321D+02 0.216268577473768D+02 -.378823368847363D+02 -.809203109802039D+01
 0.186785690084615D+03 0.111253335400467D+03 -.370132730053225D+01 -.149992965031269D+03
 0.261411684282065D+03 -.198707065454112D+03 -.909048569317444D+02 0.118830391102824D+03
 0.112399224367037D+03 0.713950786112315D+02 0.320740664259950D+02 0.806695893835369D+02
0.147846484536D-04 0.000000000000D+00 0.000000000000D+00 0.295590565927D-06 0.000000000000D+00  7 -1 1 24 -11 11 -24 21 0 0.81458548D-02 0.28128471D+00 0.66707994D+05 0.66707994D+05 0.66707994D+05 0.11364423D+01  1  2  2  1  7  1       -1 0.589077431771D-03 0.100000000000D+01
-.786745037909D-06 0.000000000000D+00 -.567769429491D-07 0.295590565927D-06 0.000000000000D+00  7 -1 1 24 -11 11 -24 21 2 0.81458548D-02 0.28128471D+00 0.66707994D+05 0.66707994D+05 0.66707994D+05 0.11364423D+01  1  2  3  1  7  1       -1 -.404846332821D-04 0.100000000000D+01
0.945241997501D-06 0.000000000000D+00 0.000000000000D+00 0.295590565927D-06 0.000000000000D+00  7 -1 1 24 -11 11 -24 21 2 0.81458548D-02 0.28128471D+00 0.66707994D+05 0.66707994D+05 0.66707994D+05 0.11364423D+01  1  2 15  1  7  1       -1 0.486406317013D-04 0.100000000000D+01
0.204379836137D-04 0.000000000000D+00 0.000000000000D+00 0.295590565927D-06 0.000000000000D+00  7 -1 1 24 -11 11 -24 21 2 0.10920492D-01 0.28128471D+00 0.88451233D+05 0.88451233D+05 0.88451233D+05 0.11261220D+01  1  2 12  1  7  1       -1 0.655776337167D-03 0.100000000000D+01
-.220508451737D-04 0.000000000000D+00 0.000000000000D+00 0.295590565927D-06 0.000000000000D+00  7 -1 1 24 -11 11 -24 21 2 0.81458548D-02 0.28128471D+00 0.66707994D+05 0.66707994D+05 0.66707994D+05 0.11364423D+01  1  2  4  1  7  1       -1 -.113470099893D-02 0.100000000000D+01
-.286531019744D-04 0.000000000000D+00 -.718332235753D-05 0.295590565927D-06 0.000000000000D+00  7 -1 1 24 -11 11 -24 21 2 0.11412514D-01 0.28128471D+00 0.66707994D+05 0.66707994D+05 0.66707994D+05 0.11364423D+01  1  2  5  1  7  1       -1 -.881543169565D-03 0.100000000000D+01
0.297573564128D-04 0.000000000000D+00 0.679342649770D-05 0.295590565927D-06 0.000000000000D+00  7 -1 1 24 -11 11 -24 21 2 0.81458548D-02 0.28128471D+00 0.66707994D+05 0.66707994D+05 0.66707994D+05 0.11364423D+01  1  2  6  1  7  1       -1 0.153126566266D-02 0.100000000000D+01
0.776914080437D-06 0.000000000000D+00 0.000000000000D+00 0.295590565927D-06 0.000000000000D+00  7 21 1 24 -11 11 -24 1 2 0.10920492D-01 0.28128471D+00 0.88451233D+05 0.88451233D+05 0.88451233D+05 0.11261220D+01  1  2 12  3  7  1       -1 0.344384018936D-03 0.100000000000D+01
-.101265212946D-05 0.000000000000D+00 -.302087055416D-06 0.295590565927D-06 0.000000000000D+00  7 21 1 24 -11 11 -24 1 2 0.11412514D-01 0.28128471D+00 0.66707994D+05 0.66707994D+05 0.66707994D+05 0.11364423D+01  1  2  5  3  7  1       -1 -.429229687401D-03 0.100000000000D+01
  </mgrwgt>
  </event>
  <event>
  8     66 0.29788925E-05 0.30501826E+03 0.75467711E-02 0.91301670E-01
       -1 -1    0    0    0  501 0.00000000E+00 0.00000000E+00 0.11739141E+04 0.11739141E+04 0.32000000E+00 0.0000E+00 0.9000E+01
        1 -1    0    0  501    0 0.00000000E+00 0.00000000E+00 -.47354160E+03 0.47354171E+03 0.32000000E+00 0.0000E+00 0.9000E+01
       25  2    1    2    0    0 -.55681720E+03 -.12069698E+03 0.83565794E+03 0.10548948E+04 0.29977612E+03 0.0000E+00 0.0000E+00
       23  2    1    2    0    0 0.55681720E+03 0.12069698E+03 -.13528548E+03 0.59256100E+03 0.90626819E+02 0.0000E+00 0.0000E+00
       24  1    3    3    0    0 -.11682877E+03 0.63525370E+02 0.26079218E+03 0.30358559E+03 0.80419002E+02 0.0000E+00 0.9000E+01
      -11  1    4    4    0    0 0.21656419E+02 0.22939139E+02 -.16992571E+02 0.35832276E+02 0.51099893E-03 0.0000E+00 0.9000E+01
       11  1    4    4    0    0 0.53516078E+03 0.97757836E+02 -.11829291E+03 0.55672872E+03 0.51099893E-03 0.0000E+00 0.9000E+01
      -24  1    3    3    0    0 -.43998844E+03 -.18422234E+03 0.57486576E+03 0.75130923E+03 0.80419002E+02 0.0000E+00 0.9000E+01
#aMCatNLO 1  0  0  1  2 0.13130629D+03 0.00000000D+00  -5  7  0 0.00000000D+00 0.00000000D+00 0.00000000D+00 0.00000000D+00 0.00000000D+00
  <mgrwgt>
 0.1252446581D-02    9    2    0
 0.745585188442606D+03 0.000000000000000D+00 0.000000000000000D+00 0.745585188442606D+03
 0.745585188442606D+03 0.000000000000000D+00 0.000000000000000D+00 -.745585188442606D+03
 0.212914763464975D+03 -.116828766416889D+03 0.635253696252018D+02 0.145537099388661D+03
 0.475688238912614D+02 0.216564188769083D+02 0.229391386644843D+02 -.356032083548280D+02
 0.670637700790275D+03 0.535160783901644D+03 0.977578364270328D+02 -.392175045753997D+03
 0.560049088738701D+03 -.439988436361663D+03 -.184222344716719D+03 0.282241154720164D+03
 0.000000000000000D+00 -.000000000000000D+00 -.000000000000000D+00 0.000000000000000D+00
 0.930065873545098D+03 0.000000000000000D+00 0.000000000000000D+00 0.930065873545098D+03
 0.772206068505978D+03 0.000000000000000D+00 0.000000000000000D+00 -.772206068505978D+03
 0.212809732229032D+03 -.106616679571063D+03 0.791997633569583D+02 0.145537099388661D+03
 0.504862889699942D+02 0.240085206195720D+02 0.265493477596730D+02 -.356032083548280D+02
 0.706169204801943D+03 0.568187005864562D+03 0.148449337031604D+03 -.392175045753997D+03
 0.527475131662055D+03 -.413901396743312D+03 -.144181701070892D+03 0.282241154720164D+03
 0.205331584388052D+03 -.716774501697603D+02 -.110016747077343D+03 0.157859805039120D+03
0.704248467116D-03 0.000000000000D+00 0.000000000000D+00 0.188134191211D-04 0.000000000000D+00  7 -1 1 24 -11 11 -24 21 0 0.18060218D+00 0.72852566D-01 0.36887482D+06 0.36887482D+06 0.36887482D+06 0.10779730D+01  1  2  2  1  7  1       -1 0.817913869840D-03 0.100000000000D+01
-.371245468415D-04 0.000000000000D+00 -.270449954660D-05 0.188134191211D-04 0.000000000000D+00  7 -1 1 24 -11 11 -24 21 2 0.18060218D+00 0.72852566D-01 0.36887482D+06 0.36887482D+06 0.36887482D+06 0.10779730D+01  1  2  3  1  7  1       -1 -.501024074911D-04 0.100000000000D+01
0.442819214113D-04 0.000000000000D+00 0.000000000000D+00 0.188134191211D-04 0.000000000000D+00  7 -1 1 24 -11 11 -24 21 2 0.18060218D+00 0.72852566D-01 0.36887482D+06 0.36887482D+06 0.36887482D+06 0.10779730D+01  1  2 15  1  7  1       -1 0.597618303736D-04 0.100000000000D+01
0.141750004931D-02 0.000000000000D+00 0.000000000000D+00 0.188134191211D-04 0.000000000000D+00  7 -1 1 24 -11 11 -24 21 2 0.22795084D+00 0.72852566D-01 0.45916659D+06 0.45916659D+06 0.45916659D+06 0.10711352D+01  1  2 12  1  7  1       -1 0.766841120110D-03 0.100000000000D+01
-.145650479734D-02 0.000000000000D+00 0.000000000000D+00 0.188134191211D-04 0.000000000000D+00  7 -1 1 24 -11 11 -24 21 2 0.18060218D+00 0.72852566D-01 0.36887482D+06 0.36887482D+06 0.36887482D+06 0.10779730D+01  1  2  4  1  7  1       -1 -.196566431317D-02 0.100000000000D+01
-.202910968522D-02 0.000000000000D+00 -.373898617242D-03 0.188134191211D-04 0.000000000000D+00  7 -1 1 24 -11 11 -24 21 2 0.22872322D+00 0.72852566D-01 0.36887482D+06 0.36887482D+06 0.36887482D+06 0.10779730D+01  1  2  5  1  7  1       -1 -.111178339395D-02 0.100000000000D+01
0.206961559388D-02 0.000000000000D+00 0.363704364213D-03 0.188134191211D-04 0.000000000000D+00  7 -1 1 24 -11 11 -24 21 2 0.18060218D+00 0.72852566D-01 0.36887482D+06 0.36887482D+06 0.36887482D+06 0.10779730D+01  1  2  6  1  7  1       -1 0.279310409571D-02 0.100000000000D+01
0.455066839916D-04 0.000000000000D+00 0.000000000000D+00 0.188134191211D-04 0.000000000000D+00  7 21 1 24 -11 11 -24 1 2 0.22795084D+00 0.72852566D-01 0.45916659D+06 0.45916659D+06 0.45916659D+06 0.10711352D+01  1  2 12  3  7  1       -1 0.165024163413D-03 0.100000000000D+01
-.601392054175D-04 0.000000000000D+00 -.121331763865D-04 0.188134191211D-04 0.000000000000D+00  7 21 1 24 -11 11 -24 1 2 0.22872322D+00 0.72852566D-01 0.36887482D+06 0.36887482D+06 0.36887482D+06 0.10779730D+01  1  2  5  3  7  1       -1 -.222648384199D-03 0.100000000000D+01
  </mgrwgt>
  </event>
  <event>
  8     66 0.29788925E-05 0.53593177E+03 0.75467711E-02 0.91018274E-01
       -1 -1    0    0    0  501 0.00000000E+00 0.00000000E+00 0.12241846E+04 0.12241846E+04 0.32000000E+00 0.0000E+00 0.9000E+01
        1 -1    0    0  501    0 0.00000000E+00 0.00000000E+00 -.24650396E+03 0.24650417E+03 0.32000000E+00 0.0000E+00 0.9000E+01
       25  2    1    2    0    0 0.41064819E+03 -.28432357E+03 0.43188327E+03 0.72514905E+03 0.29974349E+03 0.0000E+00 0.0000E+00
       23  2    1    2    0    0 -.41064819E+03 0.28432357E+03 0.54579735E+03 0.74553974E+03 0.91994173E+02 0.0000E+00 0.0000E+00
       24  1    3    3    0    0 0.13485608E+02 -.78881233E+02 0.27066862E+02 0.11663594E+03 0.80419002E+02 0.0000E+00 0.9000E+01
      -11  1    4    4    0    0 -.34082170E+02 0.50185402E+02 0.98627318E+02 0.11579083E+03 0.51099893E-03 0.0000E+00 0.9000E+01
       11  1    4    4    0    0 -.37656603E+03 0.23413816E+03 0.44717003E+03 0.62974891E+03 0.51099893E-03 0.0000E+00 0.9000E+01
      -24  1    3    3    0    0 0.39716259E+03 -.20544233E+03 0.40481640E+03 0.60851311E+03 0.80419002E+02 0.0000E+00 0.9000E+01
#aMCatNLO 1  0  0  1  2 0.28549287D+03 0.00000000D+00  -5  7  0 0.00000000D+00 0.00000000D+00 0.00000000D+00 0.00000000D+00 0.00000000D+00
  <mgrwgt>
 0.6432760489D-03    4    2    0
 0.549332806751453D+03 0.000000000000000D+00 0.000000000000000D+00 0.549332806751453D+03
 0.549332806751453D+03 0.000000000000000D+00 0.000000000000000D+00 -.549332806751453D+03
 0.132044195413524D+03 0.134856079319436D+02 -.788812329297329D+02 -.675599219820863D+02
 0.672327054768840D+02 -.340821699343538D+02 0.501854023140982D+02 0.289839226620443D+02
 0.445062794645314D+03 -.376566025057002D+03 0.234138162763055D+03 0.381869177625959D+02
 0.454325917967184D+03 0.397162587059412D+03 -.205442332147420D+03 0.389081557446033D+00
 0.000000000000000D+00 0.000000000000000D+00 -.000000000000000D+00 -.000000000000000D+00
 0.649978660444074D+03 0.000000000000000D+00 0.000000000000000D+00 0.649978660444074D+03
 0.814858152639828D+03 0.000000000000000D+00 0.000000000000000D+00 -.814858152639828D+03
 0.115765568578623D+03 0.116822549243181D+02 -.472613243108897D+02 -.675599219820863D+02
 0.829895560732326D+02 -.351753624010852D+02 0.693533887009509D+02 0.289839226620443D+02
 0.526158360462871D+03 -.383633763482310D+03 0.358063562951004D+03 0.381869177625959D+02
 0.410239503466776D+03 0.390871000207001D+03 -.951259379087341D+02 0.389081557446033D+00
 0.329683824502400D+03 0.162558707520758D+02 -.285029689432331D+03 -.164879492195754D+03
0.317603274532D-03 0.000000000000D+00 0.000000000000D+00 0.451590706287D-05 0.000000000000D+00  7 -1 1 24 -11 11 -24 21 0 0.18833611D+00 0.37923706D-01 0.28722286D+06 0.28722286D+06 0.28722286D+06 0.10859531D+01  1  2  2  1  7  1       -1 0.778844828125D-03 0.100000000000D+01
-.176315404639D-04 0.000000000000D+00 -.121968020107D-05 0.451590706287D-05 0.000000000000D+00  7 -1 1 24 -11 11 -24 21 2 0.18833611D+00 0.37923706D-01 0.28722286D+06 0.28722286D+06 0.28722286D+06 0.10859531D+01  1  2  3  1  7  1       -1 -.509892209044D-04 0.100000000000D+01
0.200566142484D-04 0.000000000000D+00 0.000000000000D+00 0.451590706287D-05 0.000000000000D+00  7 -1 1 24 -11 11 -24 21 2 0.18833611D+00 0.37923706D-01 0.28722286D+06 0.28722286D+06 0.28722286D+06 0.10859531D+01  1  2 15  1  7  1       -1 0.580023700484D-04 0.100000000000D+01
-.493033428332D-04 0.000000000000D+00 0.000000000000D+00 0.451590706287D-05 0.000000000000D+00  7 -1 1 24 -11 11 -24 21 2 0.18833611D+00 0.37923706D-01 0.28722286D+06 0.28722286D+06 0.28722286D+06 0.10859531D+01  1  2  4  1  7  1       -1 -.142581928346D-03 0.100000000000D+01
  </mgrwgt>
  </event>
  <event>
  7     66 0.29788925E-05 0.16407474E+03 0.75467711E-02 0.98445207E-01
       -1 -1    0    0    0  501 0.00000000E+00 0.00000000E+00 0.91099146E+02 0.91099708E+02 0.32000000E+00 0.0000E+00 0.9000E+01
        1 -1    0    0  501    0 0.00000000E+00 0.00000000E+00 -.14898249E+04 0.14898250E+04 0.32000000E+00 0.0000E+00 0.9000E+01
       23  2    1    2    0    0 0.10697419E+03 0.12182700E+03 -.10853005E+03 0.22783205E+03 0.11765787E+03 0.0000E+00 0.0000E+00
       24  1    1    2    0    0 0.11310213E+03 -.54540359E+02 -.32477819E+03 0.35737212E+03 0.80419002E+02 0.0000E+00 0.9000E+01
      -13  1    3    3    0    0 -.70569461E+01 -.18326253E+02 -.10847795E+02 0.22435192E+02 0.10565837E+00 0.0000E+00 0.9000E+01
       13  1    3    3    0    0 0.11403113E+03 0.14015325E+03 -.97682256E+02 0.20539685E+03 0.10565837E+00 0.0000E+00 0.9000E+01
      -24  1    1    2    0    0 -.22007632E+03 -.67286642E+02 -.96541755E+03 0.99572052E+03 0.80419002E+02 0.0000E+00 0.9000E+01
#aMCatNLO 1  0  0  2  1 0.11916991D+03 0.00000000D+00  -5  7  0 0.00000000D+00 0.00000000D+00 0.00000000D+00 0.00000000D+00 0.00000000D+00
  <mgrwgt>
 0.1231970286D-02    9    2    0
 0.368405009170468D+03 0.000000000000000D+00 0.000000000000000D+00 0.368405009170468D+03
 0.368405009170468D+03 0.000000000000000D+00 0.000000000000000D+00 -.368405009170468D+03
 0.150242237858418D+03 0.113096310769716D+03 -.545409119236462D+02 -.184398345749579D+02
 0.275445868092241D+02 -.705676732562322D+01 -.183260394678004D+02 0.193148278487673D+02
 0.255276310701632D+03 0.114033336192746D+03 0.140155753754742D+03 0.180329580855800D+03
 0.303746882971662D+03 -.220072879636839D+03 -.672888023632954D+02 -.181204574129610D+03
 0.000000000000000D+00 -.000000000000000D+00 -.000000000000000D+00 -.000000000000000D+00
 0.409586835118222D+03 0.000000000000000D+00 0.000000000000000D+00 0.409586835118222D+03
 0.470745117169549D+03 0.000000000000000D+00 0.000000000000000D+00 -.470745117169549D+03
 0.158908624377001D+03 0.130676117411346D+03 -.369926990927196D+02 -.184398345749579D+02
 0.250007671538559D+02 -.406878548430615D+01 -.153434275224443D+02 0.193148278487673D+02
 0.287661485814638D+03 0.144907393642148D+03 0.170974325433078D+03 0.180329580855800D+03
 0.274814057603069D+03 -.187173118684666D+03 -.344481677053364D+02 -.181204574129610D+03
 0.133947017339207D+03 -.843416068845219D+02 -.841900311125781D+02 -.611582820513276D+02
0.311185825622D-04 0.000000000000D+00 0.000000000000D+00 0.969861515063D-12 0.000000000000D+00  7 -1 1 24 -13 13 -24 21 0 0.14015299D-01 0.22920388D+00 0.87973415D+05 0.87973415D+05 0.87973415D+05 0.11263175D+01  1  2  2  2  7  2        1 0.891303011603D-03 0.100000000000D+01
-.163002332742D-05 0.000000000000D+00 -.119503550750D-06 0.969861515063D-12 0.000000000000D+00  7 -1 1 24 -13 13 -24 21 2 0.14015299D-01 0.22920388D+00 0.87973415D+05 0.87973415D+05 0.87973415D+05 0.11263175D+01  1  2  3  2  7  2        1 -.592271748593D-04 0.100000000000D+01
0.194233149806D-05 0.000000000000D+00 0.000000000000D+00 0.969861515063D-12 0.000000000000D+00  7 -1 1 24 -13 13 -24 21 2 0.14015299D-01 0.22920388D+00 0.87973415D+05 0.87973415D+05 0.87973415D+05 0.11263175D+01  1  2 15  2  7  2        1 0.705749453613D-04 0.100000000000D+01
0.198911661500D-04 0.000000000000D+00 0.000000000000D+00 0.969861515063D-12 0.000000000000D+00  7 -1 1 24 -13 13 -24 21 2 0.14015299D-01 0.30292491D+00 0.13090288D+06 0.13090288D+06 0.13090288D+06 0.11122495D+01  1  2 12  2  7  2        1 0.337761007276D-03 0.100000000000D+01
-.241214077415D-04 0.000000000000D+00 0.000000000000D+00 0.969861515063D-12 0.000000000000D+00  7 -1 1 24 -13 13 -24 21 2 0.14015299D-01 0.22920388D+00 0.87973415D+05 0.87973415D+05 0.87973415D+05 0.11263175D+01  1  2  4  2  7  2        1 -.876455453198D-03 0.100000000000D+01
-.398296061223D-04 0.000000000000D+00 -.135416105287D-04 0.969861515063D-12 0.000000000000D+00  7 -1 1 24 -13 13 -24 21 2 0.14015299D-01 0.30743591D+00 0.87973415D+05 0.87973415D+05 0.87973415D+05 0.11263175D+01  1  2  5  2  7  2        1 -.672654342540D-03 0.100000000000D+01
0.425231011339D-04 0.000000000000D+00 0.129780108070D-04 0.969861515063D-12 0.000000000000D+00  7 -1 1 24 -13 13 -24 21 2 0.14015299D-01 0.22920388D+00 0.87973415D+05 0.87973415D+05 0.87973415D+05 0.11263175D+01  1  2  6  2  7  2        1 0.154508411263D-02 0.100000000000D+01
0.729264739356D-06 0.000000000000D+00 0.000000000000D+00 0.969861515063D-12 0.000000000000D+00  7 -1 21 24 -13 13 -24 -1 2 0.14015299D-01 0.30292491D+00 0.13090288D+06 0.13090288D+06 0.13090288D+06 0.11122495D+01  1  2 12  4  7  2        1 0.666954217616D-05 0.100000000000D+01
-.122232163188D-05 0.000000000000D+00 -.515424949633D-06 0.969861515063D-12 0.000000000000D+00  7 -1 21 24 -13 13 -24 -1 2 0.14015299D-01 0.30743591D+00 0.87973415D+05 0.87973415D+05 0.87973415D+05 0.11263175D+01  1  2  5  4  7  2        1 -.110853623929D-04 0.100000000000D+01
  </mgrwgt>
  </event>
  <event>
  8     66 0.29788925E-05 0.31060433E+03 0.75467711E-02 0.87258397E-01
       -1 -1    0    0    0  501 0.00000000E+00 0.00000000E+00 0.68356467E+02 0.68357216E+02 0.32000000E+00 0.0000E+00 0.9000E+01
        1 -1    0    0  501    0 0.00000000E+00 0.00000000E+00 -.17703592E+04 0.17703592E+04 0.32000000E+00 0.0000E+00 0.9000E+01
       25  2    1    2    0    0 0.11258286E+03 0.25039185E+03 -.97555784E+03 0.10568252E+04 0.29965876E+03 0.0000E+00 0.0000E+00
       23  2    1    2    0    0 -.11258286E+03 -.25039185E+03 -.72644492E+03 0.78189129E+03 0.90888914E+02 0.0000E+00 0.0000E+00
       24  1    3    3    0    0 0.17317436E+02 0.18353467E+03 -.82931867E+03 0.85335898E+03 0.80419002E+02 0.0000E+00 0.9000E+01
      -13  1    4    4    0    0 -.38752943E+02 -.14395099E+03 -.28234390E+03 0.31928321E+03 0.10565837E+00 0.0000E+00 0.9000E+01
       13  1    4    4    0    0 -.73829918E+02 -.10644086E+03 -.44410102E+03 0.46260808E+03 0.10565837E+00 0.0000E+00 0.9000E+01
      -24  1    3    3    0    0 0.95265425E+02 0.66857179E+02 -.14623916E+03 0.20346620E+03 0.80419002E+02 0.0000E+00 0.9000E+01
#aMCatNLO 1  0  0  1  1 0.92054620D+03 0.00000000D+00  -5  7  0 0.00000000D+00 0.00000000D+00 0.00000000D+00 0.00000000D+00 0.00000000D+00
  <mgrwgt>
 0.6438734031D-03    5    2    0
 0.347873852280386D+03 0.000000000000000D+00 0.000000000000000D+00 0.347873852280386D+03
 0.347873852280386D+03 0.000000000000000D+00 0.000000000000000D+00 -.347873852280386D+03
 0.226493799671121D+03 0.173174358553137D+02 0.183534673952924D+03 -.104150637095903D+03
 0.153103222500416D+03 -.387528957103734D+02 -.143951043646064D+03 0.348841919396385D+02
 0.136175696830004D+03 -.738299649851893D+02 -.106440809158101D+03 -.419917947126776D+02
 0.179974985559232D+03 0.952654248402489D+02 0.668571788512422D+02 0.111258239868942D+03
 0.000000000000000D+00 -.000000000000000D+00 -.000000000000000D+00 0.000000000000000D+00
 0.182910380678892D+04 0.000000000000000D+00 0.000000000000000D+00 0.182910380678892D+04
 0.746135844328189D+03 0.000000000000000D+00 0.000000000000000D+00 -.746135844328189D+03
 0.619221260088406D+03 0.786361706669187D+02 0.599947289723409D+03 -.104150637095903D+03
 0.580208701716482D+02 -.234453023294774D+02 -.399979040310003D+02 0.348841919396385D+02
 0.722858309813463D+02 -.587154213871116D+02 -.379866144925133D+01 -.419917947126776D+02
 0.404365525679895D+03 0.137633147201180D+03 0.354574369148096D+03 0.111258239868942D+03
 0.142134616419581D+04 -.134108594151510D+03 -.910725093391253D+03 0.108296796246073D+04
0.207553850841D-04 0.000000000000D+00 0.000000000000D+00 0.196806941481D-05 0.000000000000D+00  7 -1 1 24 -13 13 -24 21 0 0.10516439D-01 0.27236302D+00 0.96475050D+05 0.96475050D+05 0.96475050D+05 0.11230032D+01  1  2  2  1  7  1       -1 0.605811596707D-03 0.100000000000D+01
-.113507359489D-05 0.000000000000D+00 -.797061437415D-07 0.196806941481D-05 0.000000000000D+00  7 -1 1 24 -13 13 -24 21 2 0.10516439D-01 0.27236302D+00 0.96475050D+05 0.96475050D+05 0.96475050D+05 0.11230032D+01  1  2  3  1  7  1       -1 -.417823450038D-04 0.100000000000D+01
0.129155037948D-05 0.000000000000D+00 0.000000000000D+00 0.196806941481D-05 0.000000000000D+00  7 -1 1 24 -13 13 -24 21 2 0.10516439D-01 0.27236302D+00 0.96475050D+05 0.96475050D+05 0.96475050D+05 0.11230032D+01  1  2 15  1  7  1       -1 0.475422948678D-04 0.100000000000D+01
0.442994525884D-04 0.000000000000D+00 -.200027949143D-04 0.196806941481D-05 0.000000000000D+00  7 -1 1 24 -13 13 -24 21 2 0.14229399D+00 0.27236302D+00 0.96475050D+05 0.96475050D+05 0.96475050D+05 0.11230032D+01  1  2  5  1  7  1       -1 0.138341322596D-04 0.100000000000D+01
0.906565624932D-05 0.000000000000D+00 -.596318094035D-05 0.196806941481D-05 0.000000000000D+00  7 21 1 24 -13 13 -24 1 2 0.14229399D+00 0.27236302D+00 0.96475050D+05 0.96475050D+05 0.96475050D+05 0.11230032D+01  1  2  5  3  7  1       -1 0.184677242488D-04 0.100000000000D+01
  </mgrwgt>
  </event>
  <event>
  8     66 0.29788925E-05 0.23802400E+03 0.75467711E-02 0.10211220E+00
       -1 -1    0    0    0  501 0.00000000E+00 0.00000000E+00 0.12976907E+03 0.12976947E+03 0.32000000E+00 0.0000E+00 0.9000E+01
        1 -1    0    0  501    0 0.00000000E+00 0.00000000E+00 -.67124114E+03 0.67124122E+03 0.32000000E+00 0.0000E+00 0.9000E+01
       25  2    1    2    0    0 -.52256905E+02 0.12500398E+03 -.12413565E+03 0.35207505E+03 0.30031717E+03 0.0000E+00 0.0000E+00
       23  2    1    2    0    0 0.52256905E+02 -.12500398E+03 -.41733642E+03 0.44893563E+03 0.94956503E+02 0.0000E+00 0.0000E+00
       24  1    3    3    0    0 0.22270802E+02 0.18530374E+03 -.62711858E+02 0.21268158E+03 0.80419002E+02 0.0000E+00 0.9000E+01
      -11  1    4    4    0    0 -.11242450E+02 -.40239809E+02 -.22972787E+03 0.23349631E+03 0.51099893E-03 0.0000E+00 0.9000E+01
       11  1    4    4    0    0 0.63499355E+02 -.84764167E+02 -.18760855E+03 0.21543932E+03 0.51099893E-03 0.0000E+00 0.9000E+01
      -24  1    3    3    0    0 -.74527707E+02 -.60299760E+02 -.61423792E+02 0.13939347E+03 0.80419002E+02 0.0000E+00 0.9000E+01
#aMCatNLO 1  0  0  2  1 0.60108519D+02 0.00000000D+00  -5  7  0 0.00000000D+00 0.00000000D+00 0.00000000D+00 0.00000000D+00 0.00000000D+00
  <mgrwgt>
 0.7329766889D-03    4    2    0
 0.295138151016862D+03 0.000000000000000D+00 0.000000000000000D+00 0.295138151016862D+03
 0.295138151016862D+03 0.000000000000000D+00 0.000000000000000D+00 -.295138151016862D+03
 0.231084157107850D+03 0.222708019856968D+02 0.185303736024225D+03 0.109996402242315D+03
 0.106122872743562D+03 -.112424499153038D+02 -.402398093094281D+02 -.975521869872174D+02
 0.120256236561790D+03 0.634993545501201D+02 -.847641667433363D+02 -.569599020367073D+02
 0.132813035620521D+03 -.745277066205132D+02 -.602997599714601D+02 0.445156867816093D+02
 0.000000000000000D+00 0.000000000000000D+00 0.000000000000000D+00 0.000000000000000D+00
 0.541469131914624D+03 0.000000000000000D+00 0.000000000000000D+00 0.541469131914624D+03
 0.300354145146124D+03 0.000000000000000D+00 0.000000000000000D+00 -.300354145146124D+03
 0.221933623249693D+03 0.161535204171465D+01 0.175172769875612D+03 0.109996402242315D+03
 0.109503976253899D+03 -.210740057154546D+02 -.450619341854125D+02 -.975521869872174D+02
 0.118873637674076D+03 0.525961729057014D+02 -.901118964926931D+02 -.569599020367073D+02
 0.143017631790779D+03 -.871042693753628D+02 -.664682400520602D+02 0.445156867816093D+02
 0.248494408092300D+03 0.539667501434014D+02 0.264693008545541D+02 0.241114986768499D+03
0.110195857273D-04 0.000000000000D+00 0.000000000000D+00 0.125917470618D-06 0.000000000000D+00  7 -1 1 24 -11 11 -24 21 0 0.19964509D-01 0.10326790D+00 0.56655425D+05 0.56655425D+05 0.56655425D+05 0.11425521D+01  1  2  2  2  7  2        1 0.747325361995D-03 0.100000000000D+01
-.577768796886D-06 0.000000000000D+00 -.423181107165D-07 0.125917470618D-06 0.000000000000D+00  7 -1 1 24 -11 11 -24 21 2 0.19964509D-01 0.10326790D+00 0.56655425D+05 0.56655425D+05 0.56655425D+05 0.11425521D+01  1  2  3  2  7  2        1 -.511505774707D-04 0.100000000000D+01
0.695536565966D-06 0.000000000000D+00 0.000000000000D+00 0.125917470618D-06 0.000000000000D+00  7 -1 1 24 -11 11 -24 21 2 0.19964509D-01 0.10326790D+00 0.56655425D+05 0.56655425D+05 0.56655425D+05 0.11425521D+01  1  2 15  2  7  2        1 0.615767019488D-04 0.100000000000D+01
-.279842490465D-06 0.000000000000D+00 0.000000000000D+00 0.125917470618D-06 0.000000000000D+00  7 -1 1 24 -11 11 -24 21 2 0.19964509D-01 0.10326790D+00 0.56655425D+05 0.56655425D+05 0.56655425D+05 0.11425521D+01  1  2  4  2  7  2        1 -.247747975752D-04 0.100000000000D+01
  </mgrwgt>
  </event>
  <event>
  8     66 0.29788925E-05 0.31486755E+03 0.75467711E-02 0.96708010E-01
       -1 -1    0    0    0  501 0.00000000E+00 0.00000000E+00 0.16741982E+03 0.16742012E+03 0.32000000E+00 0.0000E+00 0.9000E+01
        1 -1    0    0  501    0 0.00000000E+00 0.00000000E+00 -.86995335E+03 0.86995341E+03 0.32000000E+00 0.0000E+00 0.9000E+01
       25  2    1    2    0    0 -.13278404E+03 0.23935053E+03 -.18874998E+03 0.44790978E+03 0.30012720E+03 0.0000E+00 0.0000E+00
       23  2    1    2    0    0 0.13278404E+03 -.23935053E+03 -.51378355E+03 0.58946375E+03 0.92594294E+02 0.0000E+00 0.0000E+00
       24  1    3    3    0    0 -.15147261E+03 0.20263502E+03 -.22748264E+03 0.34960044E+03 0.80419002E+02 0.0000E+00 0.9000E+01
      -13  1    4    4    0    0 0.13043796E+03 -.23150574E+03 -.43137366E+03 0.50664802E+03 0.10565837E+00 0.0000E+00 0.9000E+01
       13  1    4    4    0    0 0.23460830E+01 -.78447885E+01 -.82409893E+02 0.82815738E+02 0.10565837E+00 0.0000E+00 0.9000E+01
      -24  1    3    3    0    0 0.18688566E+02 0.36715508E+02 0.38732657E+02 0.98309337E+02 0.80419002E+02 0.0000E+00 0.9000E+01
#aMCatNLO 1  0  0  2  2 0.18503895D+03 0.00000000D+00  -5  7  0 0.00000000D+00 0.00000000D+00 0.00000000D+00 0.00000000D+00 0.00000000D+00
  <mgrwgt>
 0.7434624207D-03    4    2    0
 0.381638075544277D+03 0.000000000000000D+00 0.000000000000000D+00 0.381638075544277D+03
 0.381638075544277D+03 0.000000000000000D+00 0.000000000000000D+00 -.381638075544277D+03
 0.265764970680855D+03 -.151472607673069D+03 0.202635019856806D+03 0.126056153748014D+02
 0.291544595134815D+03 0.130438125609084D+03 -.231506030590613D+03 -.119954591992513D+03
 0.367034761912936D+02 0.234591653415762D+01 -.784449778403883D+01 -.357785647372255D+02
 0.169263109081591D+03 0.186885655298276D+02 0.367155085178455D+02 0.143127541354938D+03
 0.000000000000000D+00 0.000000000000000D+00 -.000000000000000D+00 0.000000000000000D+00
 0.540993401073960D+03 0.000000000000000D+00 0.000000000000000D+00 0.540993401073960D+03
 0.450412127601056D+03 0.000000000000000D+00 0.000000000000000D+00 -.450412127601056D+03
 0.324295984439615D+03 -.154862116572503D+03 0.273055842056155D+03 0.126056153748014D+02
 0.242410728139933D+03 0.127370906359217D+03 -.167781134787179D+03 -.119954591992513D+03
 0.358397652799695D+02 0.192920371758012D+01 0.813175063284628D+00 -.357785647372255D+02
 0.182838711632626D+03 0.166659740594698D+02 0.787370988254443D+02 0.143127541354938D+03
 0.206020339182872D+03 0.889603243623610D+01 -.184824981157705D+03 0.905812734729048D+02
0.320330326830D-04 0.000000000000D+00 0.000000000000D+00 0.168819480835D-05 0.000000000000D+00  7 -1 1 24 -13 13 -24 21 0 0.25756923D-01 0.13383900D+00 0.99141572D+05 0.99141572D+05 0.99141572D+05 0.11220294D+01  1  2  2  2  7  2        1 0.958498045542D-03 0.100000000000D+01
-.169958180763D-05 0.000000000000D+00 -.123015279994D-06 0.168819480835D-05 0.000000000000D+00  7 -1 1 24 -13 13 -24 21 2 0.25756923D-01 0.13383900D+00 0.99141572D+05 0.99141572D+05 0.99141572D+05 0.11220294D+01  1  2  3  2  7  2        1 -.640241385843D-04 0.100000000000D+01
0.205572584578D-05 0.000000000000D+00 0.000000000000D+00 0.168819480835D-05 0.000000000000D+00  7 -1 1 24 -13 13 -24 21 2 0.25756923D-01 0.13383900D+00 0.99141572D+05 0.99141572D+05 0.99141572D+05 0.11220294D+01  1  2 15  2  7  2        1 0.774402713957D-04 0.100000000000D+01
-.606446974199D-05 0.000000000000D+00 0.000000000000D+00 0.168819480835D-05 0.000000000000D+00  7 -1 1 24 -13 13 -24 21 2 0.25756923D-01 0.13383900D+00 0.99141572D+05 0.99141572D+05 0.99141572D+05 0.11220294D+01  1  2  4  2  7  2        1 -.228451757638D-03 0.100000000000D+01
  </mgrwgt>
  </event>
  <event>
  8     66 0.29788925E-05 0.22484716E+03 0.75467711E-02 0.10335999E+00
       -1 -1    0    0    0  501 0.00000000E+00 0.00000000E+00 0.88916926E+02 0.88917502E+02 0.32000000E+00 0.0000E+00 0.9000E+01
        1 -1    0    0  501    0 0.00000000E+00 0.00000000E+00 -.79285273E+03 0.79285279E+03 0.32000000E+00 0.0000E+00 0.9000E+01
       25  2    1    2    0    0 0.10332390E+02 -.14927341E+03 -.33795230E+03 0.47616601E+03 0.30022160E+03 0.0000E+00 0.0000E+00
       23  2    1    2    0    0 -.10332390E+02 0.14927341E+03 -.36598351E+03 0.40560428E+03 0.90452206E+02 0.0000E+00 0.0000E+00
       24  1    3    3    0    0 -.46307720E+02 -.15138446E+03 -.70247427E+02 0.19095438E+03 0.80419002E+02 0.0000E+00 0.9000E+01
      -11  1    4    4    0    0 -.19776667E+01 -.12046945E+02 -.39507854E+02 0.41351065E+02 0.51099893E-03 0.0000E+00 0.9000E+01
       11  1    4    4    0    0 -.83547237E+01 0.16132035E+03 -.32647565E+03 0.36425322E+03 0.51099893E-03 0.0000E+00 0.9000E+01
      -24  1    3    3    0    0 0.56640111E+02 0.21110554E+01 -.26770487E+03 0.28521163E+03 0.80419002E+02 0.0000E+00 0.9000E+01
#aMCatNLO 1  0  0  2  1 0.41061541D+02 0.00000000D+00  -5  7  0 0.00000000D+00 0.00000000D+00 0.00000000D+00 0.00000000D+00 0.00000000D+00
  <mgrwgt>
 0.4949059539D-03    4    2    0
 0.265515178520038D+03 0.000000000000000D+00 0.000000000000000D+00 0.265515178520038D+03
 0.265515178520038D+03 0.000000000000000D+00 0.000000000000000D+00 -.265515178520038D+03
 0.223957488098226D+03 -.463077204357239D+02 -.151384460580299D+03 0.136484726778330D+03
 0.162912493097260D+02 -.197766667972569D+01 -.120469452334480D+02 -.107872493768270D+02
 0.172061291712557D+03 -.835472374861106D+01 0.161320350377883D+03 -.592539555712118D+02
 0.118720327919566D+03 0.566401108640607D+02 0.211105543586464D+01 -.664435218302907D+02
 0.000000000000000D+00 -.000000000000000D+00 0.000000000000000D+00 0.000000000000000D+00
 0.309604287675996D+03 0.000000000000000D+00 0.000000000000000D+00 0.309604287675996D+03
 0.276043240241550D+03 0.000000000000000D+00 0.000000000000000D+00 -.276043240241550D+03
 0.233600545750289D+03 -.386086266861935D+02 -.167282074120669D+03 0.136484726778330D+03
 0.171116050969245D+02 -.141561402508066D+01 -.132075098639840D+02 -.107872493768270D+02
 0.161066612323151D+03 -.274935180883081D+01 0.149745996337306D+03 -.592539555712118D+02
 0.120836755047086D+03 0.606710147138113D+02 -.621222957746986D+01 -.664435218302907D+02
 0.530320097000957D+02 -.178974221937063D+02 0.369558172248174D+02 0.335610474344464D+02
0.793274009628D-05 0.000000000000D+00 0.000000000000D+00 0.101926356908D-05 0.000000000000D+00  7 -1 1 24 -11 11 -24 21 0 0.13679576D-01 0.12197739D+00 0.50556244D+05 0.50556244D+05 0.50556244D+05 0.11468730D+01  1  2  2  2  7  2        1 0.757963382973D-03 0.100000000000D+01
-.425897564458D-06 0.000000000000D+00 -.304638107081D-07 0.101926356908D-05 0.000000000000D+00  7 -1 1 24 -11 11 -24 21 2 0.13679576D-01 0.12197739D+00 0.50556244D+05 0.50556244D+05 0.50556244D+05 0.11468730D+01  1  2  3  2  7  2        1 -.535255099663D-04 0.100000000000D+01
0.504075658178D-06 0.000000000000D+00 0.000000000000D+00 0.101926356908D-05 0.000000000000D+00  7 -1 1 24 -11 11 -24 21 2 0.13679576D-01 0.12197739D+00 0.50556244D+05 0.50556244D+05 0.50556244D+05 0.11468730D+01  1  2 15  2  7  2        1 0.633506949024D-04 0.100000000000D+01
-.217130188535D-05 0.000000000000D+00 0.000000000000D+00 0.101926356908D-05 0.000000000000D+00  7 -1 1 24 -11 11 -24 21 2 0.13679576D-01 0.12197739D+00 0.50556244D+05 0.50556244D+05 0.50556244D+05 0.11468730D+01  1  2  4  2  7  2        1 -.272882614045D-03 0.100000000000D+01
  </mgrwgt>
  </event>
  <event>
  7     66 0.29788925E-05 0.23640036E+03 0.75467711E-02 0.10290329E+00
       -1 -1    0    0    0  501 0.00000000E+00 0.00000000E+00 0.15244497E+03 0.15244531E+03 0.32000000E+00 0.0000E+00 0.9000E+01
        1 -1    0    0  501    0 0.00000000E+00 0.00000000E+00 -.17884212E+04 0.17884212E+04 0.32000000E+00 0.0000E+00 0.9000E+01
       25  2    1    2    0    0 -.18960718E+02 0.17178951E+03 -.80908501E+02 0.35514774E+03 0.29952059E+03 0.0000E+00 0.0000E+00
       24  1    3    3    0    0 -.12368052E+03 0.46614831E+02 -.77812439E+02 0.17318143E+03 0.80419002E+02 0.0000E+00 0.9000E+01
      -13  1    1    2    0    0 0.25732038E+02 -.13416489E+03 -.15376536E+04 0.15437101E+04 0.10565837E+00 0.0000E+00 0.9000E+01
       13  1    1    2    0    0 -.67713197E+01 -.37624623E+02 -.17414085E+02 0.42008625E+02 0.10565837E+00 0.0000E+00 0.9000E+01
      -24  1    3    3    0    0 0.10471981E+03 0.12517468E+03 -.30960624E+01 0.18196631E+03 0.80419002E+02 0.0000E+00 0.9000E+01
#aMCatNLO 1  0  0  2  1 0.11257728D+00 0.00000000D+00  -5  7  0 0.00000000D+00 0.00000000D+00 0.00000000D+00 0.00000000D+00 0.00000000D+00
  <mgrwgt>
 0.2754943421D-02    9    2    0
 0.522145733379987D+03 0.000000000000000D+00 0.000000000000000D+00 0.522145733379987D+03
 0.522145733379987D+03 0.000000000000000D+00 0.000000000000000D+00 -.522145733379987D+03
 0.199966265518459D+03 -.123680543562668D+03 0.466150095539809D+02 0.126686445286596D+03
 0.460188313922430D+03 0.257319532765046D+02 -.134165659059270D+03 -.439443655979395D+03
 0.507932069406151D+02 -.677118243115860D+01 -.376243273172851D+02 0.334441467781421D+02
 0.333343680378470D+03 0.104719772717322D+03 0.125174976822574D+03 0.279313063914657D+03
 0.000000000000000D+00 0.000000000000000D+00 0.000000000000000D+00 -.000000000000000D+00
 0.522179580641494D+03 0.000000000000000D+00 0.000000000000000D+00 0.522179580641494D+03
 0.522239353878519D+03 0.000000000000000D+00 0.000000000000000D+00 -.522239353878519D+03
 0.199965582861860D+03 -.123687169400300D+03 0.465944962554688D+02 0.126686445286596D+03
 0.460201227218531D+03 0.257167047993397D+02 -.134212867666140D+03 -.439443655979395D+03
 0.507972912506661D+02 -.677286552328710D+01 -.376295380956311D+02 0.334441467781421D+02
 0.333327371496975D+03 0.104708727700124D+03 0.125140781940741D+03 0.279313063914657D+03
 0.127461691980437D+00 0.346024241234148D-01 0.107127565560749D+00 -.597732370239928D-01
0.574590303364D-04 0.000000000000D+00 0.000000000000D+00 0.962404367789D-09 0.000000000000D+00  7 -1 1 24 -13 13 -24 21 0 0.23453100D-01 0.27514175D+00 0.65407024D+05 0.65407024D+05 0.65407024D+05 0.11371737D+01  1  2  2  2  7  2        1 0.467924528602D-03 0.100000000000D+01
-.121490405221D-05 0.000000000000D+00 -.220657805802D-06 0.962404367789D-09 0.000000000000D+00  7 -1 1 24 -13 13 -24 21 2 0.23453100D-01 0.27514175D+00 0.65407024D+05 0.65407024D+05 0.65407024D+05 0.11371737D+01  1  2  3  2  7  2        1 -.127941998977D-04 0.100000000000D+01
0.348751924964D-05 0.000000000000D+00 0.000000000000D+00 0.962404367789D-09 0.000000000000D+00  7 -1 1 24 -13 13 -24 21 2 0.23453100D-01 0.27514175D+00 0.65407024D+05 0.65407024D+05 0.65407024D+05 0.11371737D+01  1  2 15  2  7  2        1 0.367271953251D-04 0.100000000000D+01
-.576895466246D-01 0.000000000000D+00 0.000000000000D+00 0.962404367789D-09 0.000000000000D+00  7 -1 1 24 -13 13 -24 21 2 0.23453100D-01 0.27514175D+00 0.65407024D+05 0.65407024D+05 0.65407024D+05 0.11371737D+01  1  2  4  2  7  2        1 -.607530767699D+00 0.100000000000D+01
-.457636548521D+00 0.000000000000D+00 -.273947311912D-01 0.962404367789D-09 0.000000000000D+00  7 -1 1 24 -13 13 -24 21 2 0.23453100D-01 0.27519935D+00 0.65407024D+05 0.65407024D+05 0.65407024D+05 0.11371737D+01  1  2  5  2  7  2        1 -.481669130535D+01 0.100000000000D+01
0.457642274123D+00 0.000000000000D+00 0.273947305909D-01 0.962404367789D-09 0.000000000000D+00  7 -1 1 24 -13 13 -24 21 2 0.23453100D-01 0.27514175D+00 0.65407024D+05 0.65407024D+05 0.65407024D+05 0.11371737D+01  1  2  6  2  7  2        1 0.481944786182D+01 0.100000000000D+01
0.576895472702D-01 0.000000000000D+00 0.000000000000D+00 0.962404367789D-09 0.523713739556D-06  7 -1 1 24 -13 13 -24 21 2 0.23454621D-01 0.27519108D+00 0.65440463D+05 0.65440463D+05 0.65440463D+05 0.11371547D+01  1  2 11  2  7  2        1 0.607143332504D+00 0.100000000000D+01
-.179573949822D-04 0.000000000000D+00 -.107498044191D-05 0.962404367789D-09 0.000000000000D+00  7 -1 21 24 -13 13 -24 -1 2 0.23453100D-01 0.27519935D+00 0.65407024D+05 0.65407024D+05 0.65407024D+05 0.11371737D+01  1  2  5  4  7  2        1 -.122080979233D-03 0.100000000000D+01
0.236035730874D-05 0.000000000000D+00 0.000000000000D+00 0.962404367789D-09 0.176011120651D-10  7 -1 21 24 -13 13 -24 -1 2 0.23454621D-01 0.27519108D+00 0.65440463D+05 0.65440463D+05 0.65440463D+05 0.11371547D+01  1  2 11  4  7  2        1 0.160456054716D-04 0.100000000000D+01
  </mgrwgt>
  </event>
  <event>
  8     66 0.29788925E-05 0.96439041E+02 0.75467711E-02 0.10450903E+00
       -1 -1    0    0    0  501 0.00000000E+00 0.00000000E+00 0.47788104E+03 0.47788114E+03 0.32000000E+00 0.0000E+00 0.9000E+01
        1 -1    0    0  501    0 0.00000000E+00 0.00000000E+00 -.11890486E+03 0.11890529E+03 0.32000000E+00 0.0000E+00 0.9000E+01
       25  2    1    2    0    0 0.83047125E+02 0.67865120E+02 0.16717680E+03 0.35944481E+03 0.29958302E+03 0.0000E+00 0.0000E+00
       23  2    1    2    0    0 -.83047125E+02 -.67865120E+02 0.19179938E+03 0.23734162E+03 0.89674652E+02 0.0000E+00 0.0000E+00
       24  1    3    3    0    0 0.13841797E+03 0.12299816E+03 0.78951610E+02 0.21676866E+03 0.80419002E+02 0.0000E+00 0.9000E+01
      -11  1    4    4    0    0 -.82473056E+02 -.56393872E+02 0.19977021E+03 0.22336116E+03 0.51099893E-03 0.0000E+00 0.9000E+01
       11  1    4    4    0    0 -.57406939E+00 -.11471248E+02 -.79708272E+01 0.13980457E+02 0.51099893E-03 0.0000E+00 0.9000E+01
      -24  1    3    3    0    0 -.55370845E+02 -.55133037E+02 0.88225190E+02 0.14267615E+03 0.80419002E+02 0.0000E+00 0.9000E+01
#aMCatNLO 1  0  0  2  1 0.29359019D+02 0.00000000D+00  -5  7  0 0.00000000D+00 0.00000000D+00 0.00000000D+00 0.00000000D+00 0.00000000D+00
  <mgrwgt>
 0.5406588327D-03    9    2    0
 0.238374780831246D+03 0.000000000000000D+00 0.000000000000000D+00 0.238374780831246D+03
 0.238374780831246D+03 0.000000000000000D+00 0.000000000000000D+00 -.238374780831246D+03
 0.211899197896592D+03 0.138417970386107D+03 0.122998156937111D+03 -.643892303037794D+02
 0.129179280305267D+03 -.824730559224852D+02 -.563938718719236D+02 0.818853632970292D+02
 0.235022432709328D+02 -.574069386358850D+00 -.114712484077286D+02 -.205045444493150D+02
 0.112168840189700D+03 -.553708450772626D+02 -.551330366574591D+02 0.300841145606516D+01
 0.000000000000000D+00 0.000000000000000D+00 -.000000000000000D+00 -.000000000000000D+00
 0.243520060995485D+03 0.000000000000000D+00 0.000000000000000D+00 0.243520060995485D+03
 0.284736260450731D+03 0.000000000000000D+00 0.000000000000000D+00 -.284736260450731D+03
 0.215835365518128D+03 0.133157372356932D+03 0.135058617873344D+03 -.643892303037794D+02
 0.128271352718148D+03 -.856393754312028D+02 -.491347594032014D+02 0.818853632970292D+02
 0.229133964697180D+02 -.114492347164309D+01 -.101625068240385D+02 -.205045444493150D+02
 0.110632579741801D+03 -.581110227735238D+02 -.488508980335208D+02 0.300841145606516D+01
 0.506036269984211D+02 0.117379493194381D+02 -.269104536125831D+02 -.412161994552464D+02
0.643914583010D-05 0.000000000000D+00 0.000000000000D+00 0.365885315563D-06 0.000000000000D+00  7 -1 1 24 -11 11 -24 21 0 0.73520201D-01 0.18293096D-01 0.45242106D+05 0.45242106D+05 0.45242106D+05 0.11511349D+01  1  2  2  2  7  2        1 0.453806747703D-03 0.100000000000D+01
-.352082459245D-06 0.000000000000D+00 -.247280154536D-07 0.365885315563D-06 0.000000000000D+00  7 -1 1 24 -11 11 -24 21 2 0.73520201D-01 0.18293096D-01 0.45242106D+05 0.45242106D+05 0.45242106D+05 0.11511349D+01  1  2  3  2  7  2        1 -.328805851983D-04 0.100000000000D+01
0.416323228130D-06 0.000000000000D+00 0.000000000000D+00 0.365885315563D-06 0.000000000000D+00  7 -1 1 24 -11 11 -24 21 2 0.73520201D-01 0.18293096D-01 0.45242106D+05 0.45242106D+05 0.45242106D+05 0.11511349D+01  1  2 15  2  7  2        1 0.388799584107D-04 0.100000000000D+01
0.243448570482D-04 0.000000000000D+00 0.000000000000D+00 0.365885315563D-06 0.000000000000D+00  7 -1 1 24 -11 11 -24 21 2 0.73520201D-01 0.22022649D-01 0.51737646D+05 0.51737646D+05 0.51737646D+05 0.11459926D+01  1  2 12  2  7  2        1 0.177192386161D-02 0.100000000000D+01
-.246578930431D-04 0.000000000000D+00 0.000000000000D+00 0.365885315563D-06 0.000000000000D+00  7 -1 1 24 -11 11 -24 21 2 0.73520201D-01 0.18293096D-01 0.45242106D+05 0.45242106D+05 0.45242106D+05 0.11511349D+01  1  2  4  2  7  2        1 -.230277292074D-02 0.100000000000D+01
-.349562016863D-04 0.000000000000D+00 -.499196915381D-05 0.365885315563D-06 0.000000000000D+00  7 -1 1 24 -11 11 -24 21 2 0.73520201D-01 0.22246132D-01 0.45242106D+05 0.45242106D+05 0.45242106D+05 0.11511349D+01  1  2  5  2  7  2        1 -.253579481657D-02 0.100000000000D+01
0.353482224345D-04 0.000000000000D+00 0.489793136071D-05 0.365885315563D-06 0.000000000000D+00  7 -1 1 24 -11 11 -24 21 2 0.73520201D-01 0.18293096D-01 0.45242106D+05 0.45242106D+05 0.45242106D+05 0.11511349D+01  1  2  6  2  7  2        1 0.330113076879D-02 0.100000000000D+01
0.657456153433D-06 0.000000000000D+00 0.000000000000D+00 0.365885315563D-06 0.000000000000D+00  7 -1 21 24 -11 11 -24 -1 2 0.73520201D-01 0.22022649D-01 0.51737646D+05 0.51737646D+05 0.51737646D+05 0.11459926D+01  1  2 12  4  7  2        1 0.380536873102D-03 0.100000000000D+01
-.928199426549D-06 0.000000000000D+00 -.140457130411D-06 0.365885315563D-06 0.000000000000D+00  7 -1 21 24 -11 11 -24 -1 2 0.73520201D-01 0.22246132D-01 0.45242106D+05 0.45242106D+05 0.45242106D+05 0.11511349D+01  1  2  5  4  7  2        1 -.534171054380D-03 0.100000000000D+01
  </mgrwgt>
  </event>
  <event>
  8     66 0.29788925E-05 0.33471779E+03 0.75467711E-02 0.94991412E-01
       -1 -1    0    0    0  501 0.00000000E+00 0.00000000E+00 0.87695349E+03 0.87695354E+03 0.32000000E+00 0.0000E+00 0.9000E+01
        1 -1    0    0  501    0 0.00000000E+00 0.00000000E+00 -.61350408E+03 0.61350416E+03 0.32000000E+00 0.0000E+00 0.9000E+01
       25  2    1    2    0    0 -.34905794E+03 -.23850558E+02 0.75424461E+03 0.87920227E+03 0.28583459E+03 0.0000E+00 0.0000E+00
       23  2    1    2    0    0 0.34905794E+03 0.23850558E+02 -.49079521E+03 0.61125543E+03 0.10170042E+03 0.0000E+00 0.0000E+00
       24  1    3    3    0    0 -.85858633E+02 0.60120589E+02 0.40881587E+03 0.42963219E+03 0.80419002E+02 0.0000E+00 0.9000E+01
      -11  1    4    4    0    0 0.94196570E+02 -.26525517E+02 -.19060543E+03 0.21425925E+03 0.51099893E-03 0.0000E+00 0.9000E+01
       11  1    4    4    0    0 0.25486137E+03 0.50376075E+02 -.30018977E+03 0.39699618E+03 0.51099893E-03 0.0000E+00 0.9000E+01
      -24  1    3    3    0    0 -.26319930E+03 -.83971146E+02 0.34542874E+03 0.44957008E+03 0.80419002E+02 0.0000E+00 0.9000E+01
#aMCatNLO 1  0  0  1  2 0.17474480D+03 0.00000000D+00  -5  7  0 0.00000000D+00 0.00000000D+00 0.00000000D+00 0.00000000D+00 0.00000000D+00
  <mgrwgt>
 0.2336758726D-02    9    2    0
 0.733494816115045D+03 0.000000000000000D+00 0.000000000000000D+00 0.733494816115045D+03
 0.733494816115045D+03 0.000000000000000D+00 0.000000000000000D+00 -.733494816115045D+03
 0.363087989254895D+03 -.858586332798774D+02 0.601205885322776D+02 0.338200357647114D+03
 0.251916737149782D+03 0.941965702613578D+02 -.265255168509180D+02 -.232132388009474D+03
 0.457256694339269D+03 0.254861365744082D+03 0.503760745069422D+02 -.376286619329478D+03
 0.394728211486145D+03 -.263199302725563D+03 -.839711461883018D+02 0.270218649691838D+03
 0.000000000000000D+00 -.000000000000000D+00 0.000000000000000D+00 0.000000000000000D+00
 0.923221274473785D+03 0.000000000000000D+00 0.000000000000000D+00 0.923221274473785D+03
 0.780047460453211D+03 0.000000000000000D+00 0.000000000000000D+00 -.780047460453211D+03
 0.353170888758014D+03 -.514038105991527D+02 0.352225361807700D+02 0.338200357647114D+03
 0.264642787379567D+03 0.119045081558104D+03 -.444817704893823D+02 -.232132388009474D+03
 0.481580951733361D+03 0.300023088152553D+03 0.177409064426641D+02 -.376286619329478D+03
 0.377965967151338D+03 -.226029723780528D+03 -.110830960009799D+03 0.270218649691838D+03
 0.225908139904716D+03 -.141634635330975D+03 0.102349287875747D+03 0.143173814020574D+03
0.110727193575D-02 0.000000000000D+00 0.000000000000D+00 0.352474446830D-09 0.000000000000D+00  7 -1 1 24 -11 11 -24 21 0 0.13491593D+00 0.94385254D-01 0.15112664D+06 0.15112664D+06 0.15112664D+06 0.11072955D+01  1  2  2  1  7  1       -1 0.222634889935D-02 0.100000000000D+01
-.313675721755D-04 0.000000000000D+00 -.425221578469D-05 0.352474446830D-09 0.000000000000D+00  7 -1 1 24 -11 11 -24 21 2 0.13491593D+00 0.94385254D-01 0.15112664D+06 0.15112664D+06 0.15112664D+06 0.11072955D+01  1  2  3  1  7  1       -1 -.773298090393D-04 0.100000000000D+01
0.680449756158D-04 0.000000000000D+00 0.000000000000D+00 0.352474446830D-09 0.000000000000D+00  7 -1 1 24 -11 11 -24 21 2 0.13491593D+00 0.94385254D-01 0.15112664D+06 0.15112664D+06 0.15112664D+06 0.11072955D+01  1  2 15  1  7  1       -1 0.167749832248D-03 0.100000000000D+01
0.103856571463D-02 0.000000000000D+00 0.000000000000D+00 0.352474446830D-09 0.000000000000D+00  7 -1 1 24 -11 11 -24 21 2 0.17328108D+00 0.94385254D-01 0.23444228D+06 0.23444228D+06 0.23444228D+06 0.10925645D+01  1  2 12  1  7  1       -1 0.117308361515D-02 0.100000000000D+01
-.145275029785D-02 0.000000000000D+00 0.000000000000D+00 0.352474446830D-09 0.000000000000D+00  7 -1 1 24 -11 11 -24 21 2 0.13491593D+00 0.94385254D-01 0.15112664D+06 0.15112664D+06 0.15112664D+06 0.11072955D+01  1  2  4  1  7  1       -1 -.358143443445D-02 0.100000000000D+01
-.172488513912D-02 0.000000000000D+00 -.566469698880D-03 0.352474446830D-09 0.000000000000D+00  7 -1 1 24 -11 11 -24 21 2 0.17569278D+00 0.94385254D-01 0.15112664D+06 0.15112664D+06 0.15112664D+06 0.11072955D+01  1  2  5  1  7  1       -1 -.196578877153D-02 0.100000000000D+01
0.182950877398D-02 0.000000000000D+00 0.547274808337D-03 0.352474446830D-09 0.000000000000D+00  7 -1 1 24 -11 11 -24 21 2 0.13491593D+00 0.94385254D-01 0.15112664D+06 0.15112664D+06 0.15112664D+06 0.11072955D+01  1  2  6  1  7  1       -1 0.451024909854D-02 0.100000000000D+01
0.351757112682D-04 0.000000000000D+00 0.000000000000D+00 0.352474446830D-09 0.000000000000D+00  7 21 1 24 -11 11 -24 1 2 0.17328108D+00 0.94385254D-01 0.23444228D+06 0.23444228D+06 0.23444228D+06 0.10925645D+01  1  2 12  3  7  1       -1 0.249593579889D-03 0.100000000000D+01
-.503960610928D-04 0.000000000000D+00 -.199590197050D-04 0.352474446830D-09 0.000000000000D+00  7 21 1 24 -11 11 -24 1 2 0.17569278D+00 0.94385254D-01 0.15112664D+06 0.15112664D+06 0.15112664D+06 0.11072955D+01  1  2  5  3  7  1       -1 -.365713283999D-03 0.100000000000D+01
  </mgrwgt>
  </event>
  <event>
  8     66 0.29788925E-05 0.23128570E+03 0.75467711E-02 0.95868548E-01
       -1 -1    0    0    0  501 0.00000000E+00 0.00000000E+00 0.13903685E+03 0.13903721E+03 0.32000000E+00 0.0000E+00 0.9000E+01
        1 -1    0    0  501    0 0.00000000E+00 0.00000000E+00 -.58248985E+03 0.58248993E+03 0.32000000E+00 0.0000E+00 0.9000E+01
       25  2    1    2    0    0 -.88637111E+02 -.80071183E+02 -.46948664E+03 0.56946957E+03 0.29934922E+03 0.0000E+00 0.0000E+00
       23  2    1    2    0    0 0.88637111E+02 0.80071183E+02 0.26033643E+02 0.15205758E+03 0.90420263E+02 0.0000E+00 0.0000E+00
       24  1    3    3    0    0 -.80924642E+02 -.16210885E+03 -.35790326E+03 0.40913327E+03 0.80419002E+02 0.0000E+00 0.9000E+01
      -13  1    4    4    0    0 0.60369145E+01 0.64949396E+02 0.18194532E+02 0.67719425E+02 0.10565837E+00 0.0000E+00 0.9000E+01
       13  1    4    4    0    0 0.82600196E+02 0.15121788E+02 0.78391112E+01 0.84338151E+02 0.10565837E+00 0.0000E+00 0.9000E+01
      -24  1    3    3    0    0 -.77124688E+01 0.82037669E+02 -.11158338E+03 0.16033630E+03 0.80419002E+02 0.0000E+00 0.9000E+01
#aMCatNLO 1  0  0  2  2 0.32815668D+03 0.00000000D+00  -5  7  0 0.00000000D+00 0.00000000D+00 0.00000000D+00 0.00000000D+00 0.00000000D+00
  <mgrwgt>
 0.3571036940D-03    5    2    0
 0.284583407906750D+03 0.000000000000000D+00 0.000000000000000D+00 0.284583407906750D+03
 0.284583407906750D+03 0.000000000000000D+00 0.000000000000000D+00 -.284583407906750D+03
 0.239802264709019D+03 -.809246419288390D+02 -.162108852257951D+03 -.134943812579544D+03
 0.100023071558239D+03 0.603681046147636D+01 0.649494635274669D+02 0.758270331141282D+02
 0.113022318462273D+03 0.826003004607997D+02 0.151217199369905D+02 0.756476597160829D+02
 0.116319161083968D+03 -.771246899343707D+01 0.820376687934933D+02 -.165308802506675D+02
 0.000000000000000D+00 -.000000000000000D+00 0.000000000000000D+00 -.000000000000000D+00
 0.347124760680199D+03 0.000000000000000D+00 0.000000000000000D+00 0.347124760680199D+03
 0.177364036230185D+04 0.000000000000000D+00 0.000000000000000D+00 -.177364036230185D+04
 0.266605049900351D+03 0.456666267083883D+02 -.210513095387370D+03 -.134943812579544D+03
 0.105333871376879D+03 0.573717639261045D+02 0.453207040143596D+02 0.758270331141282D+02
 0.171831101023682D+03 0.153807715338278D+03 -.121056003944318D+02 0.756476597160829D+02
 0.113221357652564D+03 0.496678741260521D+02 0.600973556178301D+02 -.165308802506675D+02
 0.146377374302857D+04 -.306513980098823D+03 0.117200636149612D+03 -.142651560162165D+04
0.481342829686D-05 0.000000000000D+00 0.000000000000D+00 0.344440271100D-06 0.000000000000D+00  7 -1 1 24 -13 13 -24 21 0 0.21390319D-01 0.89613858D-01 0.53493074D+05 0.53493074D+05 0.53493074D+05 0.11447247D+01  1  2  2  2  7  2        1 0.358718651542D-03 0.100000000000D+01
-.253430774522D-06 0.000000000000D+00 -.184848320647D-07 0.344440271100D-06 0.000000000000D+00  7 -1 1 24 -13 13 -24 21 2 0.21390319D-01 0.89613858D-01 0.53493074D+05 0.53493074D+05 0.53493074D+05 0.11447247D+01  1  2  3  2  7  2        1 -.247491833695D-04 0.100000000000D+01
0.297241694763D-06 0.000000000000D+00 0.000000000000D+00 0.344440271100D-06 0.000000000000D+00  7 -1 1 24 -13 13 -24 21 2 0.21390319D-01 0.89613858D-01 0.53493074D+05 0.53493074D+05 0.53493074D+05 0.11447247D+01  1  2 15  2  7  2        1 0.290276081215D-04 0.100000000000D+01
-.111790576324D-04 0.000000000000D+00 -.234157393021D-05 0.344440271100D-06 0.000000000000D+00  7 -1 1 24 -13 13 -24 21 2 0.21390319D-01 0.57273233D+00 0.53493074D+05 0.53493074D+05 0.53493074D+05 0.11447247D+01  1  2  5  2  7  2        1 -.573662790052D-05 0.100000000000D+01
-.271930863942D-05 0.000000000000D+00 -.532147427343D-06 0.344440271100D-06 0.000000000000D+00  7 -1 21 24 -13 13 -24 -1 2 0.21390319D-01 0.57273233D+00 0.53493074D+05 0.53493074D+05 0.53493074D+05 0.11447247D+01  1  2  5  4  7  2        1 -.156754358199D-06 0.100000000000D+01
  </mgrwgt>
  </event>
  <event>
  8     66 0.29788925E-05 0.67322948E+02 0.75467711E-02 0.10408429E+00
       -3 -1    0    0    0  501 0.00000000E+00 0.00000000E+00 0.31688598E+03 0.31688637E+03 0.50000000E+00 0.0000E+00 0.9000E+01
        3 -1    0    0  501    0 0.00000000E+00 0.00000000E+00 -.30040327E+03 0.30040369E+03 0.50000000E+00 0.0000E+00 0.9000E+01
       25  2    1    2    0    0 0.70945653E+02 -.13855267E+03 -.15353856E+03 0.37071321E+03 0.29937279E+03 0.0000E+00 0.0000E+00
       23  2    1    2    0    0 -.70945653E+02 0.13855267E+03 0.17002126E+03 0.24657685E+03 0.87537340E+02 0.0000E+00 0.0000E+00
       24  1    3    3    0    0 0.47089236E+02 -.10903873E+03 0.47328367E+02 0.15104314E+03 0.80419002E+02 0.0000E+00 0.9000E+01
      -13  1    4    4    0    0 -.56085562E+02 0.94013749E+02 0.16679788E+03 0.19951371E+03 0.10565837E+00 0.0000E+00 0.9000E+01
       13  1    4    4    0    0 -.14860090E+02 0.44538921E+02 0.32233755E+01 0.47063139E+02 0.10565837E+00 0.0000E+00 0.9000E+01
      -24  1    3    3    0    0 0.23856417E+02 -.29513939E+02 -.20086692E+03 0.21967007E+03 0.80419002E+02 0.0000E+00 0.9000E+01
#aMCatNLO 1  0  0  1  2 0.75066910D+02 0.00000000D+00  -5  7  0 0.00000000D+00 0.00000000D+00 0.00000000D+00 0.00000000D+00 0.00000000D+00
  <mgrwgt>
 0.9548010702D-04    9    2    0
 0.308534980731053D+03 0.000000000000000D+00 0.000000000000000D+00 0.308534980731053D+03
 0.308534980731053D+03 0.000000000000000D+00 0.000000000000000D+00 -.308534980731053D+03
 0.149832818883529D+03 0.470892359435292D+02 -.109038731097120D+03 0.433106988999092D+02
 0.195129710451120D+03 -.560856226086122D+02 0.940138217737837D+02 0.161528350925865D+03
 0.469936091581783D+02 -.148600302653683D+02 0.445388483304779D+02 0.196717859347802D+01
 0.225113822969278D+03 0.238564169304513D+02 -.295139390071417D+02 -.206806228419252D+03
 0.000000000000000D+00 -.000000000000000D+00 0.000000000000000D+00 0.000000000000000D+00
 0.387148691084247D+03 0.000000000000000D+00 0.000000000000000D+00 0.387148691084247D+03
 0.329263556639070D+03 0.000000000000000D+00 0.000000000000000D+00 -.329263556639070D+03
 0.160106607715164D+03 0.651415488529947D+02 -.114226406113128D+03 0.433106988999092D+02
 0.186852046621613D+03 -.338372294949705D+02 0.876203234070757D+02 0.161528350925865D+03
 0.441061905826326D+02 -.955395446546647D+01 0.430140466611160D+02 0.196717859347802D+01
 0.230554313649936D+03 0.503966473083499D+02 -.371407783346573D+02 -.206806228419252D+03
 0.947930891539716D+02 -.721470122009076D+02 0.207328143795939D+02 0.578851344451768D+02
0.106351807188D-04 0.000000000000D+00 0.000000000000D+00 0.152781152709D-06 0.000000000000D+00  7 -3 3 24 -13 13 -24 21 0 0.48751751D-01 0.46215951D-01 0.37788449D+05 0.37788449D+05 0.37788449D+05 0.11581484D+01  1  2  2  1  7  1       -3 0.872924510958D-04 0.100000000000D+01
-.437538902779D-06 0.000000000000D+00 -.408418942677D-07 0.152781152709D-06 0.000000000000D+00  7 -3 3 24 -13 13 -24 21 2 0.48751751D-01 0.46215951D-01 0.37788449D+05 0.37788449D+05 0.37788449D+05 0.11581484D+01  1  2  3  1  7  1       -3 -.481700272939D-05 0.100000000000D+01
0.670893377961D-06 0.000000000000D+00 0.000000000000D+00 0.152781152709D-06 0.000000000000D+00  7 -3 3 24 -13 13 -24 21 2 0.48751751D-01 0.46215951D-01 0.37788449D+05 0.37788449D+05 0.37788449D+05 0.11581484D+01  1  2 15  1  7  1       -3 0.738607518610D-05 0.100000000000D+01
0.114918722584D-04 0.000000000000D+00 0.000000000000D+00 0.152781152709D-06 0.000000000000D+00  7 -3 3 24 -13 13 -24 21 2 0.62503272D-01 0.46215951D-01 0.55015477D+05 0.55015477D+05 0.55015477D+05 0.11436616D+01  1  2 12  1  7  1       -3 0.733319683674D-04 0.100000000000D+01
-.139166618667D-04 0.000000000000D+00 0.000000000000D+00 0.152781152709D-06 0.000000000000D+00  7 -3 3 24 -13 13 -24 21 2 0.48751751D-01 0.46215951D-01 0.37788449D+05 0.37788449D+05 0.37788449D+05 0.11581484D+01  1  2  4  1  7  1       -3 -.153212886374D-03 0.100000000000D+01
-.181168378183D-04 0.000000000000D+00 -.573886197992D-05 0.152781152709D-06 0.000000000000D+00  7 -3 3 24 -13 13 -24 21 2 0.64389564D-01 0.46215951D-01 0.37788449D+05 0.37788449D+05 0.37788449D+05 0.11581484D+01  1  2  5  1  7  1       -3 -.110811376655D-03 0.100000000000D+01
0.191814686445D-04 0.000000000000D+00 0.552370909975D-05 0.152781152709D-06 0.000000000000D+00  7 -3 3 24 -13 13 -24 21 2 0.48751751D-01 0.46215951D-01 0.37788449D+05 0.37788449D+05 0.37788449D+05 0.11581484D+01  1  2  6  1  7  1       -3 0.211174792065D-03 0.100000000000D+01
0.387172970916D-06 0.000000000000D+00 0.000000000000D+00 0.152781152709D-06 0.000000000000D+00  7 21 3 24 -13 13 -24 3 2 0.62503272D-01 0.46215951D-01 0.55015477D+05 0.55015477D+05 0.55015477D+05 0.11436616D+01  1  2 12  3  7  1       -3 0.392193557188D-04 0.100000000000D+01
-.548764101019D-06 0.000000000000D+00 -.210038738735D-06 0.152781152709D-06 0.000000000000D+00  7 21 3 24 -13 13 -24 3 2 0.64389564D-01 0.46215951D-01 0.37788449D+05 0.37788449D+05 0.37788449D+05 0.11581484D+01  1  2  5  3  7  1       -3 -.540832696548D-04 0.100000000000D+01
  </mgrwgt>
  </event>
  <event>
  8     66 0.29788925E-05 0.43318977E+03 0.75467711E-02 0.95594969E-01
       -1 -1    0    0    0  501 0.00000000E+00 0.00000000E+00 0.45648274E+03 0.45648285E+03 0.32000000E+00 0.0000E+00 0.9000E+01
        1 -1    0    0  501    0 0.00000000E+00 0.00000000E+00 -.10036947E+04 0.10036948E+04 0.32000000E+00 0.0000E+00 0.9000E+01
       25  2    1    2    0    0 0.40463068E+03 -.46441715E+02 -.81885043E+03 0.96240243E+03 0.29969914E+03 0.0000E+00 0.0000E+00
       23  2    1    2    0    0 -.40463068E+03 0.46441715E+02 0.27163846E+03 0.49777518E+03 0.90054697E+02 0.0000E+00 0.0000E+00
       24  1    3    3    0    0 0.14562275E+03 0.38399982E+02 -.53160611E+03 0.55834830E+03 0.80419002E+02 0.0000E+00 0.9000E+01
      -11  1    4    4    0    0 -.22830638E+02 0.17168371E+02 0.48234038E+00 0.28569628E+02 0.51099893E-03 0.0000E+00 0.9000E+01
       11  1    4    4    0    0 -.38180005E+03 0.29273344E+02 0.27115612E+03 0.46920555E+03 0.51099893E-03 0.0000E+00 0.9000E+01
      -24  1    3    3    0    0 0.25900793E+03 -.84841697E+02 -.28724432E+03 0.40405413E+03 0.80419002E+02 0.0000E+00 0.9000E+01
#aMCatNLO 1  0  0  2  1 0.53098543D+02 0.00000000D+00  -5  7  0 0.00000000D+00 0.00000000D+00 0.00000000D+00 0.00000000D+00 0.00000000D+00
  <mgrwgt>
 0.5413331639D-03    4    2    0
 0.676882134161616D+03 0.000000000000000D+00 0.000000000000000D+00 0.676882134161616D+03
 0.676882134161616D+03 0.000000000000000D+00 0.000000000000000D+00 -.676882134161616D+03
 0.387354328841695D+03 0.145622749990522D+03 0.383999821534961D+02 -.347700469044606D+03
 0.310103277815271D+02 -.228306380520132D+02 0.171683712337259D+02 0.120685303345803D+02
 0.615693094562868D+03 -.381800046611430D+03 0.292733437854783D+02 0.482130462057240D+03
 0.319706517137142D+03 0.259007934672922D+03 -.848416971727002D+02 -.146498523347215D+03
 0.000000000000000D+00 -.000000000000000D+00 0.000000000000000D+00 0.000000000000000D+00
 0.755188118107469D+03 0.000000000000000D+00 0.000000000000000D+00 0.755188118107469D+03
 0.686464236857233D+03 0.000000000000000D+00 0.000000000000000D+00 -.686464236857233D+03
 0.391991421742912D+03 0.159118293932882D+03 0.312379757300152D+02 -.347700469044606D+03
 0.299275066266389D+02 -.217754077881787D+02 0.166083666899956D+02 0.120685303345803D+02
 0.602400309212262D+03 -.360706927101615D+03 0.180793483403333D+02 0.482130462057240D+03
 0.330485969601979D+03 0.270266995582920D+03 -.908168151008232D+02 -.146498523347215D+03
 0.868471477809095D+02 -.469029546260086D+02 0.248911243404791D+02 0.687238812502358D+02
0.191745536222D-03 0.000000000000D+00 0.000000000000D+00 0.764818323579D-05 0.000000000000D+00  7 -1 1 24 -11 11 -24 21 0 0.70228126D-01 0.15441458D+00 0.18765338D+06 0.18765338D+06 0.18765338D+06 0.10999571D+01  1  2  2  2  7  2        1 0.749782866264D-03 0.100000000000D+01
-.807247230885D-05 0.000000000000D+00 -.736353346851D-06 0.764818323579D-05 0.000000000000D+00  7 -1 1 24 -11 11 -24 21 2 0.70228126D-01 0.15441458D+00 0.18765338D+06 0.18765338D+06 0.18765338D+06 0.10999571D+01  1  2  3  2  7  2        1 -.381916422891D-04 0.100000000000D+01
0.119612752858D-04 0.000000000000D+00 0.000000000000D+00 0.764818323579D-05 0.000000000000D+00  7 -1 1 24 -11 11 -24 21 2 0.70228126D-01 0.15441458D+00 0.18765338D+06 0.18765338D+06 0.18765338D+06 0.10999571D+01  1  2 15  2  7  2        1 0.565899429019D-04 0.100000000000D+01
-.479482973891D-04 0.000000000000D+00 0.000000000000D+00 0.764818323579D-05 0.000000000000D+00  7 -1 1 24 -11 11 -24 21 2 0.70228126D-01 0.15441458D+00 0.18765338D+06 0.18765338D+06 0.18765338D+06 0.10999571D+01  1  2  4  2  7  2        1 -.226848002965D-03 0.100000000000D+01
  </mgrwgt>
  </event>
  <event>
  9     66 0.29788925E-05 0.31970294E+03 0.75467711E-02 0.99432896E-01
       21 -1    0    0  502  501 0.00000000E+00 0.00000000E+00 0.19509527E+03 0.19509672E+03 0.75000000E+00 0.0000E+00 0.9000E+01
        1 -1    0    0  501    0 0.00000000E+00 0.00000000E+00 -.68321486E+03 0.68321494E+03 0.32000000E+00 0.0000E+00 0.9000E+01
       25  2    1    2    0    0 0.18350200E+03 0.21443487E+03 -.19105659E+03 0.45367218E+03 0.29943367E+03 0.0000E+00 0.0000E+00
       23  2    1    2    0    0 -.17214728E+03 -.18866719E+03 -.28696976E+03 0.39472496E+03 0.90698138E+02 0.0000E+00 0.0000E+00
       24  1    3    3    0    0 0.13555112E+03 0.23661862E+03 -.59140183E+02 0.29039155E+03 0.80419002E+02 0.0000E+00 0.9000E+01
      -13  1    4    4    0    0 -.10008890E+03 -.75217688E+02 -.82150552E+02 0.14974716E+03 0.10565837E+00 0.0000E+00 0.9000E+01
       13  1    4    4    0    0 -.72058383E+02 -.11344950E+03 -.20481921E+03 0.24497780E+03 0.10565837E+00 0.0000E+00 0.9000E+01
      -24  1    3    3    0    0 0.47950881E+02 -.22183754E+02 -.13191641E+03 0.16328062E+03 0.80419002E+02 0.0000E+00 0.9000E+01
        1  1    1    2  502    0 -.11354715E+02 -.25767677E+02 -.10093232E+02 0.29914519E+02 0.32000000E+00 0.0000E+00 0.9000E+01
#aMCatNLO 2  0  0  1  2 0.28158528D+02 0.00000000D+00  -5  7  0 0.00000000D+00 0.00000000D+00 0.00000000D+00 0.00000000D+00 0.00000000D+00
  <mgrwgt>
 0.8915380054D-05    2    2    0
 0.350169814474992D+03 0.000000000000000D+00 0.000000000000000D+00 0.350169814474992D+03
 0.350169814474992D+03 0.000000000000000D+00 0.000000000000000D+00 -.350169814474992D+03
 0.300512109422322D+03 0.130594515444007D+03 0.225370425223227D+03 0.126465631401303D+03
 0.129722159439584D+03 -.102154896994998D+03 -.799059979194472D+02 0.269205611150783D+01
 0.162308453856162D+03 -.746444965363052D+02 -.119318403619004D+03 -.808415232899025D+02
 0.107796906231915D+03 0.462048780872961D+02 -.261460236847761D+02 -.483161642229081D+02
 0.000000000000000D+00 -.000000000000000D+00 -.000000000000000D+00 0.000000000000000D+00
 0.369207182379313D+03 0.000000000000000D+00 0.000000000000000D+00 0.369207182379313D+03
 0.361022275829384D+03 0.000000000000000D+00 0.000000000000000D+00 -.361022275829384D+03
 0.311164344442034D+03 0.135551115671665D+03 0.236618622285117D+03 0.126465631401303D+03
 0.125230727701513D+03 -.100088936256339D+03 -.752176364532774D+02 0.269205611150783D+01
 0.156839276178435D+03 -.720583454733498D+02 -.113449554921943D+03 -.808415232899025D+02
 0.107671136461803D+03 0.479508811297895D+02 -.221837541067220D+02 -.483161642229081D+02
 0.293239734249113D+02 -.113547150717658D+02 -.257676768031746D+02 0.818490654992818D+01
-.240188578048D-06 0.000000000000D+00 0.000000000000D+00 0.126014740934D-05 0.000000000000D+00  7 21 1 24 -13 13 -24 1 2 0.30436810D-01 0.10195020D+00 0.11165192D+06 0.11165192D+06 0.11165192D+06 0.11178151D+01  1  2 13  3  7  1       -1 -.111969453635D-03 0.100000000000D+01
0.264035214283D-06 0.000000000000D+00 0.000000000000D+00 0.126014740934D-05 0.101196240322D-09  7 21 1 24 -13 13 -24 1 2 0.30014702D-01 0.10510984D+00 0.11165192D+06 0.11165192D+06 0.11165192D+06 0.11178151D+01  1  2  1  3  7  1       -1 0.120884833689D-03 0.100000000000D+01
  </mgrwgt>
  </event>
  <event>
  8     66 0.29788925E-05 0.20552263E+03 0.75467711E-02 0.99794347E-01
       -3 -1    0    0    0  501 0.00000000E+00 0.00000000E+00 0.18345148E+03 0.18345216E+03 0.50000000E+00 0.0000E+00 0.9000E+01
        3 -1    0    0  501    0 0.00000000E+00 0.00000000E+00 -.69218988E+03 0.69219006E+03 0.50000000E+00 0.0000E+00 0.9000E+01
       25  2    1    2    0    0 0.12213428E+03 0.22323311E+03 -.14751252E+03 0.42022418E+03 0.30013099E+03 0.0000E+00 0.0000E+00
       23  2    1    2    0    0 -.12213428E+03 -.22323311E+03 -.36122588E+03 0.45541805E+03 0.11032523E+03 0.0000E+00 0.0000E+00
       24  1    3    3    0    0 0.23490246E+02 0.23863473E+03 -.46826048E+02 0.25721240E+03 0.80419002E+02 0.0000E+00 0.9000E+01
      -13  1    4    4    0    0 -.11628227E+03 -.18000891E+03 -.21798537E+03 0.30568351E+03 0.10565837E+00 0.0000E+00 0.9000E+01
       13  1    4    4    0    0 -.58520165E+01 -.43224195E+02 -.14324051E+03 0.14973454E+03 0.10565837E+00 0.0000E+00 0.9000E+01
      -24  1    3    3    0    0 0.98644037E+02 -.15401623E+02 -.10068647E+03 0.16301177E+03 0.80419002E+02 0.0000E+00 0.9000E+01
#aMCatNLO 1  0  0  2  1 0.10180523D+02 0.00000000D+00  -5  7  0 0.00000000D+00 0.00000000D+00 0.00000000D+00 0.00000000D+00 0.00000000D+00
  <mgrwgt>
 0.7766560773D-04    9    2    0
 0.356347632874382D+03 0.000000000000000D+00 0.000000000000000D+00 0.356347632874382D+03
 0.356347632874382D+03 0.000000000000000D+00 0.000000000000000D+00 -.356347632874382D+03
 0.282594660580098D+03 0.234902756540106D+02 0.238634785131205D+03 0.126072092506996D+03
 0.219970509687828D+03 -.116282290436059D+03 -.180009027095953D+03 -.496206028503836D+02
 0.817204870410781D+02 -.585203597401792D+01 -.432241603489697D+02 -.691061765641566D+02
 0.128409608439759D+03 0.986440507560664D+02 -.154015976862824D+02 -.734531309245639D+01
 0.000000000000000D+00 0.000000000000000D+00 0.000000000000000D+00 -.000000000000000D+00
 0.359918551624029D+03 0.000000000000000D+00 0.000000000000000D+00 0.359918551624029D+03
 0.363714666819258D+03 0.000000000000000D+00 0.000000000000000D+00 -.363714666819258D+03
 0.282211845119410D+03 0.194574888205138D+02 0.238544635636684D+03 0.126072092506996D+03
 0.221711040662882D+03 -.119435950181261D+03 -.180079524457618D+03 -.496206028503836D+02
 0.818261956534528D+02 -.701977908953983D+01 -.432502642458381D+02 -.691061765641566D+02
 0.127018892638100D+03 0.968202603328827D+02 -.154423669586366D+02 -.734531309245639D+01
 0.108652443694420D+02 0.101779801174046D+02 0.227520025408189D+00 -.379611519522881D+01
0.103727688538D-04 0.000000000000D+00 0.000000000000D+00 0.158155200297D-07 0.000000000000D+00  7 -3 3 24 -13 13 -24 21 0 0.28223371D-01 0.10649082D+00 0.10209073D+06 0.10209073D+06 0.10209073D+06 0.11209854D+01  1  2  2  2  7  2        3 0.408211845173D-04 0.100000000000D+01
-.567925463451D-06 0.000000000000D+00 -.398341636112D-07 0.158155200297D-07 0.000000000000D+00  7 -3 3 24 -13 13 -24 21 2 0.28223371D-01 0.10649082D+00 0.10209073D+06 0.10209073D+06 0.10209073D+06 0.11209854D+01  1  2  3  2  7  2        3 -.280854977606D-05 0.100000000000D+01
0.667132407663D-06 0.000000000000D+00 0.000000000000D+00 0.158155200297D-07 0.000000000000D+00  7 -3 3 24 -13 13 -24 21 2 0.28223371D-01 0.10649082D+00 0.10209073D+06 0.10209073D+06 0.10209073D+06 0.11209854D+01  1  2 15  2  7  2        3 0.329915577787D-05 0.100000000000D+01
0.130904987541D-04 0.000000000000D+00 0.000000000000D+00 0.158155200297D-07 0.000000000000D+00  7 -3 3 24 -13 13 -24 21 2 0.28223371D-01 0.10921770D+00 0.10542243D+06 0.10542243D+06 0.10542243D+06 0.11198450D+01  1  2 12  2  7  2        3 0.607124503937D-04 0.100000000000D+01
-.122160749776D-04 0.000000000000D+00 0.000000000000D+00 0.158155200297D-07 0.000000000000D+00  7 -3 3 24 -13 13 -24 21 2 0.28223371D-01 0.10649082D+00 0.10209073D+06 0.10209073D+06 0.10209073D+06 0.11209854D+01  1  2  4  2  7  2        3 -.604118970723D-04 0.100000000000D+01
-.362524601799D-03 0.000000000000D+00 -.465903054300D-04 0.158155200297D-07 0.000000000000D+00  7 -3 3 24 -13 13 -24 21 2 0.28223371D-01 0.10949082D+00 0.10209073D+06 0.10209073D+06 0.10209073D+06 0.11209854D+01  1  2  5  2  7  2        3 -.167459036361D-02 0.100000000000D+01
0.363696580944D-03 0.000000000000D+00 0.465723311024D-04 0.158155200297D-07 0.000000000000D+00  7 -3 3 24 -13 13 -24 21 2 0.28223371D-01 0.10649082D+00 0.10209073D+06 0.10209073D+06 0.10209073D+06 0.11209854D+01  1  2  6  2  7  2        3 0.179858100526D-02 0.100000000000D+01
0.385956078547D-06 0.000000000000D+00 0.000000000000D+00 0.158155200297D-07 0.000000000000D+00  7 -3 21 24 -13 13 -24 -3 2 0.28223371D-01 0.10921770D+00 0.10542243D+06 0.10542243D+06 0.10542243D+06 0.11198450D+01  1  2 12  4  7  2        3 0.241122082053D-04 0.100000000000D+01
-.179913078062D-05 0.000000000000D+00 -.232891034767D-06 0.158155200297D-07 0.000000000000D+00  7 -3 21 24 -13 13 -24 -3 2 0.28223371D-01 0.10949082D+00 0.10209073D+06 0.10209073D+06 0.10209073D+06 0.11209854D+01  1  2  5  4  7  2        3 -.112049585960D-03 0.100000000000D+01
  </mgrwgt>
  </event>
  <event>
  8     66 0.29788925E-05 0.62401987E+03 0.75467711E-02 0.90287013E-01
       -1 -1    0    0    0  501 0.00000000E+00 0.00000000E+00 0.22659587E+03 0.22659609E+03 0.32000000E+00 0.0000E+00 0.9000E+01
        1 -1    0    0  501    0 0.00000000E+00 0.00000000E+00 -.18460126E+04 0.18460127E+04 0.32000000E+00 0.0000E+00 0.9000E+01
       25  2    1    2    0    0 0.48997484E+03 0.31854470E+03 -.11149018E+04 0.12941315E+04 0.30037335E+03 0.0000E+00 0.0000E+00
       23  2    1    2    0    0 -.48997484E+03 -.31854470E+03 -.50451498E+03 0.77847730E+03 0.99726966E+02 0.0000E+00 0.0000E+00
       24  1    3    3    0    0 0.13401383E+02 0.82506553E+01 -.11905152E+03 0.14452733E+03 0.80419002E+02 0.0000E+00 0.9000E+01
      -11  1    4    4    0    0 -.11259673E+03 -.12287190E+03 -.16399584E+03 0.23381651E+03 0.51099893E-03 0.0000E+00 0.9000E+01
       11  1    4    4    0    0 -.37737811E+03 -.19567280E+03 -.34051914E+03 0.54466078E+03 0.51099893E-03 0.0000E+00 0.9000E+01
      -24  1    3    3    0    0 0.47657346E+03 0.31029404E+03 -.99585029E+03 0.11496041E+04 0.80419002E+02 0.0000E+00 0.9000E+01
#aMCatNLO 1  0  0  1  1 0.22574177D+03 0.00000000D+00  -5  7  0 0.00000000D+00 0.00000000D+00 0.00000000D+00 0.00000000D+00 0.00000000D+00
  <mgrwgt>
 0.4450749493D-03    4    2    0
 0.646760463716363D+03 0.000000000000000D+00 0.000000000000000D+00 0.646760463716363D+03
 0.646760463716363D+03 0.000000000000000D+00 0.000000000000000D+00 -.646760463716363D+03
 0.825302405414308D+02 0.134013828984132D+02 0.825065529593209D+01 -.981602124354433D+01
 0.169330500134407D+03 -.112596729966446D+03 -.122871900156924D+03 0.299548131100593D+02
 0.446398890887836D+03 -.377378113623532D+03 -.195672800127438D+03 0.136271363221046D+03
 0.595261295869051D+03 0.476573460691565D+03 0.310294044988430D+03 -.156410155087561D+03
 0.000000000000000D+00 -.000000000000000D+00 0.000000000000000D+00 -.000000000000000D+00
 0.695088039499016D+03 0.000000000000000D+00 0.000000000000000D+00 0.695088039499016D+03
 0.986989905527561D+03 0.000000000000000D+00 0.000000000000000D+00 -.986989905527561D+03
 0.824551518218108D+02 0.141080841028751D+02 -.602028217609540D+01 -.981602124354433D+01
 0.192334889295482D+03 -.111047566354679D+03 -.154155300974537D+03 0.299548131100593D+02
 0.483994858151095D+03 -.373392849391036D+03 -.276150173467661D+03 0.136271363221046D+03
 0.554286209154744D+03 0.481497451808294D+03 0.210860268880534D+03 -.156410155087561D+03
 0.369006836603445D+03 -.111651201654548D+02 0.225465487737759D+03 -.291901866028545D+03
0.134334428294D-03 0.000000000000D+00 0.000000000000D+00 0.710839932909D-07 0.000000000000D+00  7 -1 1 24 -11 11 -24 21 0 0.34860922D-01 0.28400197D+00 0.38940080D+06 0.38940080D+06 0.38940080D+06 0.10762694D+01  1  2  2  1  7  1       -1 0.478288727159D-03 0.100000000000D+01
-.745139829254D-05 0.000000000000D+00 -.515879575717D-06 0.710839932909D-07 0.000000000000D+00  7 -1 1 24 -11 11 -24 21 2 0.34860922D-01 0.28400197D+00 0.38940080D+06 0.38940080D+06 0.38940080D+06 0.10762694D+01  1  2  3  1  7  1       -1 -.307314174414D-04 0.100000000000D+01
0.864557033228D-05 0.000000000000D+00 0.000000000000D+00 0.710839932909D-07 0.000000000000D+00  7 -1 1 24 -11 11 -24 21 2 0.34860922D-01 0.28400197D+00 0.38940080D+06 0.38940080D+06 0.38940080D+06 0.10762694D+01  1  2 15  1  7  1       -1 0.356564795585D-04 0.100000000000D+01
-.924746435072D-05 0.000000000000D+00 0.000000000000D+00 0.710839932909D-07 0.000000000000D+00  7 -1 1 24 -11 11 -24 21 2 0.34860922D-01 0.28400197D+00 0.38940080D+06 0.38940080D+06 0.38940080D+06 0.10762694D+01  1  2  4  1  7  1       -1 -.381388399975D-04 0.100000000000D+01
  </mgrwgt>
  </event>
  <event>
  8     66 0.29788925E-05 0.22228839E+03 0.75467711E-02 0.99156830E-01
       -1 -1    0    0    0  501 0.00000000E+00 0.00000000E+00 0.85375369E+02 0.85375968E+02 0.32000000E+00 0.0000E+00 0.9000E+01
        1 -1    0    0  501    0 0.00000000E+00 0.00000000E+00 -.69685181E+03 0.69685188E+03 0.32000000E+00 0.0000E+00 0.9000E+01
       25  2    1    2    0    0 0.11163779E+03 -.69960441E+02 -.43459227E+03 0.54052312E+03 0.29315070E+03 0.0000E+00 0.0000E+00
       23  2    1    2    0    0 -.11163779E+03 0.69960441E+02 -.17688417E+03 0.24170474E+03 0.98872200E+02 0.0000E+00 0.0000E+00
       24  1    3    3    0    0 0.67429637E+02 0.60160260E+02 -.63298740E+02 0.13652824E+03 0.80419002E+02 0.0000E+00 0.9000E+01
      -13  1    4    4    0    0 -.11372527E+03 0.89507621E+02 -.15041221E+03 0.20873163E+03 0.10565837E+00 0.0000E+00 0.9000E+01
       13  1    4    4    0    0 0.20874801E+01 -.19547180E+02 -.26471958E+02 0.32973103E+02 0.10565837E+00 0.0000E+00 0.9000E+01
      -24  1    3    3    0    0 0.44208152E+02 -.13012070E+03 -.37129354E+03 0.40399488E+03 0.80419002E+02 0.0000E+00 0.9000E+01
#aMCatNLO 1  0  0  2  1 0.20325078D+03 0.00000000D+00  -5  7  0 0.00000000D+00 0.00000000D+00 0.00000000D+00 0.00000000D+00 0.00000000D+00
  <mgrwgt>
 0.1429359331D-02    5    2    0
 0.243914418242181D+03 0.000000000000000D+00 0.000000000000000D+00 0.243914418242181D+03
 0.243914418242181D+03 0.000000000000000D+00 0.000000000000000D+00 -.243914418242181D+03
 0.139578693021699D+03 0.674298122891047D+02 0.601601499427831D+02 0.696345630042518D+02
 0.146162553732118D+03 -.113725604970749D+03 0.895076916017572D+02 0.204536557039613D+02
 0.196898358293678D+02 0.208741107690485D+01 -.195469960941268D+02 -.111682302969795D+01
 0.182397753901176D+03 0.442083816047391D+02 -.130120845450413D+03 -.889713956785152D+02
 0.000000000000000D+00 0.000000000000000D+00 -.000000000000000D+00 -.000000000000000D+00
 0.340416583492717D+03 0.000000000000000D+00 0.000000000000000D+00 0.340416583492717D+03
 0.399811765303933D+03 0.000000000000000D+00 0.000000000000000D+00 -.399811765303933D+03
 0.151151004887086D+03 0.286550026305837D+02 0.103485886880548D+03 0.696345630042518D+02
 0.217729684261891D+03 -.162258150376061D+03 0.143736411579203D+03 0.204536557039613D+02
 0.146818151158514D+02 -.249675845457572D+01 -.144247911123831D+02 -.111682302969795D+01
 0.144914414862491D+03 0.554543919705651D+00 -.813434380428183D+02 -.889713956785152D+02
 0.211751429669330D+03 0.135545362280348D+03 -.151454069304549D+03 -.593951818112155D+02
0.125284092527D-04 0.000000000000D+00 0.000000000000D+00 0.160616202919D-09 0.000000000000D+00  7 -1 1 24 -13 13 -24 21 0 0.13134724D-01 0.10720802D+00 0.49412127D+05 0.49412127D+05 0.49412127D+05 0.11477475D+01  1  2  2  2  7  2        1 0.155018565563D-02 0.100000000000D+01
-.688728289035D-06 0.000000000000D+00 -.481123903362D-07 0.160616202919D-09 0.000000000000D+00  7 -1 1 24 -13 13 -24 21 2 0.13134724D-01 0.10720802D+00 0.49412127D+05 0.49412127D+05 0.49412127D+05 0.11477475D+01  1  2  3  2  7  2        1 -.112260865522D-03 0.100000000000D+01
0.812962927899D-06 0.000000000000D+00 0.000000000000D+00 0.160616202919D-09 0.000000000000D+00  7 -1 1 24 -13 13 -24 21 2 0.13134724D-01 0.10720802D+00 0.49412127D+05 0.49412127D+05 0.49412127D+05 0.11477475D+01  1  2 15  2  7  2        1 0.132510778745D-03 0.100000000000D+01
-.302865275429D-05 0.000000000000D+00 -.381756327168D-05 0.160616202919D-09 0.000000000000D+00  7 -1 1 24 -13 13 -24 21 2 0.13134724D-01 0.21937619D+00 0.49412127D+05 0.49412127D+05 0.49412127D+05 0.11477475D+01  1  2  5  2  7  2        1 -.141009183381D-03 0.100000000000D+01
-.159685934160D-08 0.000000000000D+00 -.295583693341D-06 0.160616202919D-09 0.000000000000D+00  7 -1 21 24 -13 13 -24 -1 2 0.13134724D-01 0.21937619D+00 0.49412127D+05 0.49412127D+05 0.49412127D+05 0.11477475D+01  1  2  5  4  7  2        1 -.670541434529D-07 0.100000000000D+01
  </mgrwgt>
  </event>
  <event>
  8     66 0.29788925E-05 0.56227710E+03 0.75467711E-02 0.92619882E-01
       -1 -1    0    0    0  501 0.00000000E+00 0.00000000E+00 0.12857384E+04 0.12857385E+04 0.32000000E+00 0.0000E+00 0.9000E+01
        1 -1    0    0  501    0 0.00000000E+00 0.00000000E+00 -.25007720E+03 0.25007741E+03 0.32000000E+00 0.0000E+00 0.9000E+01
       25  2    1    2    0    0 -.42145340E+03 -.30617726E+03 0.60715539E+03 0.85466369E+03 0.30074053E+03 0.0000E+00 0.0000E+00
       23  2    1    2    0    0 0.42145340E+03 0.30617726E+03 0.42850583E+03 0.68115219E+03 0.94781696E+02 0.0000E+00 0.0000E+00
       24  1    3    3    0    0 -.37477465E+03 -.32231834E+03 0.46099652E+03 0.68068359E+03 0.80419002E+02 0.0000E+00 0.9000E+01
      -13  1    4    4    0    0 0.75188558E+02 0.10421830E+03 0.97999514E+02 0.16161277E+03 0.10565837E+00 0.0000E+00 0.9000E+01
       13  1    4    4    0    0 0.34626484E+03 0.20195896E+03 0.33050632E+03 0.51953941E+03 0.10565837E+00 0.0000E+00 0.9000E+01
      -24  1    3    3    0    0 -.46678756E+02 0.16141086E+02 0.14615888E+03 0.17398010E+03 0.80419002E+02 0.0000E+00 0.9000E+01
#aMCatNLO 1  0  0  2  2 0.71537354D+02 0.00000000D+00  -5  7  0 0.00000000D+00 0.00000000D+00 0.00000000D+00 0.00000000D+00 0.00000000D+00
  <mgrwgt>
 0.2831351422D-03    4    2    0
 0.567039731606575D+03 0.000000000000000D+00 0.000000000000000D+00 0.567039731606575D+03
 0.567039731606575D+03 0.000000000000000D+00 0.000000000000000D+00 -.567039731606575D+03
 0.500818918342850D+03 -.374774645146754D+03 -.322318342906825D+03 0.268778657156936D+01
 0.129367286179331D+03 0.751882210105311D+02 0.104218175345036D+03 -.148727294881540D+02
 0.401757281986169D+03 0.346265180481742D+03 0.201959081679080D+03 -.268675965096215D+02
 0.102135976704799D+03 -.466787563455187D+02 0.161410858827101D+02 0.390525394262062D+02
 0.000000000000000D+00 -.000000000000000D+00 0.000000000000000D+00 0.000000000000000D+00
 0.722780531972646D+03 0.000000000000000D+00 0.000000000000000D+00 0.722780531972646D+03
 0.576441550427972D+03 0.000000000000000D+00 0.000000000000000D+00 -.576441550427972D+03
 0.503863546818483D+03 -.355755165363859D+03 -.347623785116050D+03 0.268778657156936D+01
 0.127218782215099D+03 0.800456099962310D+02 0.977554130787461D+02 -.148727294881540D+02
 0.405495201101419D+03 0.361547145494748D+03 0.181626407657795D+03 -.268675965096215D+02
 0.997559692556061D+02 -.428567728654878D+02 0.110559319677481D+02 0.390525394262062D+02
 0.162888583010011D+03 -.429808172616319D+02 0.571860324117606D+02 0.146338981544674D+03
0.152511590244D-03 0.000000000000D+00 0.000000000000D+00 0.128497188002D-06 0.000000000000D+00  7 -1 1 24 -13 13 -24 21 0 0.19780593D+00 0.38473435D-01 0.31615554D+06 0.31615554D+06 0.31615554D+06 0.10828705D+01  1  2  2  2  7  2        1 0.306075984430D-03 0.100000000000D+01
-.847213323358D-05 0.000000000000D+00 -.585684663760D-06 0.128497188002D-06 0.000000000000D+00  7 -1 1 24 -13 13 -24 21 2 0.19780593D+00 0.38473435D-01 0.31615554D+06 0.31615554D+06 0.31615554D+06 0.10828705D+01  1  2  3  2  7  2        1 -.199375719268D-04 0.100000000000D+01
0.981669256796D-05 0.000000000000D+00 0.000000000000D+00 0.128497188002D-06 0.000000000000D+00  7 -1 1 24 -13 13 -24 21 2 0.19780593D+00 0.38473435D-01 0.31615554D+06 0.31615554D+06 0.31615554D+06 0.10828705D+01  1  2 15  2  7  2        1 0.231017394039D-04 0.100000000000D+01
-.110928813896D-04 0.000000000000D+00 0.000000000000D+00 0.128497188002D-06 0.000000000000D+00  7 -1 1 24 -13 13 -24 21 2 0.19780593D+00 0.38473435D-01 0.31615554D+06 0.31615554D+06 0.31615554D+06 0.10828705D+01  1  2  4  2  7  2        1 -.261050097399D-04 0.100000000000D+01
  </mgrwgt>
  </event>
  <event>
  8     66 0.29788925E-05 0.17800651E+03 0.75467711E-02 0.98594470E-01
       -3 -1    0    0    0  501 0.00000000E+00 0.00000000E+00 0.26789112E+03 0.26789159E+03 0.50000000E+00 0.0000E+00 0.9000E+01
        3 -1    0    0  501    0 0.00000000E+00 0.00000000E+00 -.18298491E+03 0.18298559E+03 0.50000000E+00 0.0000E+00 0.9000E+01
       25  2    1    2    0    0 0.60093221E+02 0.60588042E+02 0.10389152E+03 0.32835600E+03 0.29956987E+03 0.0000E+00 0.0000E+00
       23  2    1    2    0    0 -.60093221E+02 -.60588042E+02 -.18985312E+02 0.12252118E+03 0.85842249E+02 0.0000E+00 0.0000E+00
       24  1    3    3    0    0 0.13159777E+03 0.39755945E+02 -.22733678E+02 0.16088053E+03 0.80419002E+02 0.0000E+00 0.9000E+01
      -11  1    4    4    0    0 -.40835299E+02 -.51825316E+02 -.51519958E+02 0.83711953E+02 0.51099893E-03 0.0000E+00 0.9000E+01
       11  1    4    4    0    0 -.19257922E+02 -.87627261E+01 0.32534647E+02 0.38809228E+02 0.51099893E-03 0.0000E+00 0.9000E+01
      -24  1    3    3    0    0 -.71504549E+02 0.20832097E+02 0.12662520E+03 0.16747547E+03 0.80419002E+02 0.0000E+00 0.9000E+01
#aMCatNLO 1  0  0  2  1 0.28000195D+03 0.00000000D+00  -5  7  0 0.00000000D+00 0.00000000D+00 0.00000000D+00 0.00000000D+00 0.00000000D+00
  <mgrwgt>
 0.2660297629D-03    3    2    0
 0.221405266969823D+03 0.000000000000000D+00 0.000000000000000D+00 0.221405266969823D+03
 0.221405266969823D+03 0.000000000000000D+00 0.000000000000000D+00 -.221405266969823D+03
 0.168170321185559D+03 0.131597770316640D+03 0.397559448406519D+02 -.539956727043909D+02
 0.951155648862054D+02 -.408352993777566D+02 -.518253158447820D+02 -.685097485467545D+02
 0.332778931892164D+02 -.192579221782146D+02 -.876272624453844D+01 0.256858956872055D+02
 0.146246754678665D+03 -.715045487606684D+02 0.208320972486685D+02 0.968195255639399D+02
 0.000000000000000D+00 -.000000000000000D+00 0.000000000000000D+00 0.000000000000000D+00
 0.786564780368757D+03 0.000000000000000D+00 0.000000000000000D+00 0.786564780368757D+03
 0.299316915507609D+03 0.000000000000000D+00 0.000000000000000D+00 -.299316915507609D+03
 0.259784807084150D+03 0.240223600120241D+03 -.199504213451655D+02 -.539956727043909D+02
 0.105692531358511D+03 0.101348716634384D+02 -.798411542714400D+02 -.685097485467545D+02
 0.313701103108173D+02 -.284862465739714D+01 -.177821236420207D+02 0.256858956872055D+02
 0.127063097356807D+03 -.213159933279744D+01 -.172988586153238D+02 0.968195255639399D+02
 0.561971149766080D+03 -.245378247793484D+03 0.134872557873950D+03 0.487247864861148D+03
0.897018844638D-05 0.000000000000D+00 0.000000000000D+00 0.216110427852D-07 0.000000000000D+00  7 -3 3 24 -11 11 -24 21 0 0.41214107D-01 0.28151613D-01 0.31686318D+05 0.31686318D+05 0.31686318D+05 0.11651387D+01  1  2  2  2  7  2        3 0.261661754532D-03 0.100000000000D+01
-.469502206504D-06 0.000000000000D+00 -.344478855390D-07 0.216110427852D-07 0.000000000000D+00  7 -3 3 24 -11 11 -24 21 2 0.41214107D-01 0.28151613D-01 0.31686318D+05 0.31686318D+05 0.31686318D+05 0.11651387D+01  1  2  3  2  7  2        3 -.185922339776D-04 0.100000000000D+01
0.579805764741D-06 0.000000000000D+00 0.000000000000D+00 0.216110427852D-07 0.000000000000D+00  7 -3 3 24 -11 11 -24 21 2 0.41214107D-01 0.28151613D-01 0.31686318D+05 0.31686318D+05 0.31686318D+05 0.11651387D+01  1  2 15  2  7  2        3 0.229602423381D-04 0.100000000000D+01
  </mgrwgt>
  </event>
  <event>
  8     66 0.29788925E-05 0.18908585E+03 0.75467711E-02 0.98932806E-01
       -1 -1    0    0    0  501 0.00000000E+00 0.00000000E+00 0.55427275E+03 0.55427284E+03 0.32000000E+00 0.0000E+00 0.9000E+01
        1 -1    0    0  501    0 0.00000000E+00 0.00000000E+00 -.21430383E+03 0.21430406E+03 0.32000000E+00 0.0000E+00 0.9000E+01
       25  2    1    2    0    0 0.21808350E+02 -.26749575E+03 0.23480545E+03 0.46577075E+03 0.29963179E+03 0.0000E+00 0.0000E+00
       23  2    1    2    0    0 -.21808350E+02 0.26749575E+03 0.10516348E+03 0.30280616E+03 0.92750372E+02 0.0000E+00 0.0000E+00
       24  1    3    3    0    0 -.15029350E+01 -.30110639E+03 0.17367232E+03 0.35678650E+03 0.80419002E+02 0.0000E+00 0.9000E+01
      -13  1    4    4    0    0 -.40937663E+02 0.17830003E+03 0.31669876E+02 0.18566041E+03 0.10565837E+00 0.0000E+00 0.9000E+01
       13  1    4    4    0    0 0.19129313E+02 0.89195717E+02 0.73493601E+02 0.11714575E+03 0.10565837E+00 0.0000E+00 0.9000E+01
      -24  1    3    3    0    0 0.23311285E+02 0.33610638E+02 0.61133130E+02 0.10898425E+03 0.80419002E+02 0.0000E+00 0.9000E+01
#aMCatNLO 1  0  0  1  2 0.19150215D+02 0.00000000D+00  -5  7  0 0.00000000D+00 0.00000000D+00 0.00000000D+00 0.00000000D+00 0.00000000D+00
  <mgrwgt>
 0.4308293504D-03    9    2    0
 0.344648949362260D+03 0.000000000000000D+00 0.000000000000000D+00 0.344648949362260D+03
 0.344648949362260D+03 0.000000000000000D+00 0.000000000000000D+00 -.344648949362260D+03
 0.312164993912191D+03 -.150293490139657D+01 -.301106390469152D+03 0.176762630425193D+02
 0.191394192315039D+03 -.409377393839808D+02 0.178300150836619D+03 -.562573955822166D+02
 0.943712315688562D+02 0.191293891554779D+02 0.891956015234337D+02 0.241689984739497D+02
 0.913674809284348D+02 0.233112851298995D+02 0.336106381090990D+02 0.144121340657476D+02
 0.000000000000000D+00 0.000000000000000D+00 -.000000000000000D+00 0.000000000000000D+00
 0.373491589901140D+03 0.000000000000000D+00 0.000000000000000D+00 0.373491589901140D+03
 0.347975376510426D+03 0.000000000000000D+00 0.000000000000000D+00 -.347975376510426D+03
 0.309298141478360D+03 -.954951651387402D+01 -.297984027804848D+03 0.176762630425193D+02
 0.194320335199056D+03 -.459318947055348D+02 0.180238062469999D+03 -.562573955822166D+02
 0.948086303204436D+02 0.166799257658710D+02 0.901460812928093D+02 0.241689984739497D+02
 0.911367580064209D+02 0.209482563843738D+02 0.345275781322097D+02 0.144121340657476D+02
 0.319031014072850D+02 0.178532290691640D+02 -.692769409017044D+01 0.255162133907147D+02
0.114779113179D-04 0.000000000000D+00 0.000000000000D+00 0.560334722587D-06 0.000000000000D+00  7 -1 1 24 -13 13 -24 21 0 0.85272756D-01 0.32969845D-01 0.11426126D+06 0.11426126D+06 0.11426126D+06 0.11170015D+01  1  2  2  1  7  1       -1 0.277483234926D-03 0.100000000000D+01
-.637369798706D-06 0.000000000000D+00 -.440782016641D-07 0.560334722587D-06 0.000000000000D+00  7 -1 1 24 -13 13 -24 21 2 0.85272756D-01 0.32969845D-01 0.11426126D+06 0.11426126D+06 0.11426126D+06 0.11170015D+01  1  2  3  1  7  1       -1 -.192252890825D-04 0.100000000000D+01
0.734562403724D-06 0.000000000000D+00 0.000000000000D+00 0.560334722587D-06 0.000000000000D+00  7 -1 1 24 -13 13 -24 21 2 0.85272756D-01 0.32969845D-01 0.11426126D+06 0.11426126D+06 0.11426126D+06 0.11170015D+01  1  2 15  1  7  1       -1 0.221569559609D-04 0.100000000000D+01
0.814373231660D-04 0.000000000000D+00 0.000000000000D+00 0.560334722587D-06 0.000000000000D+00  7 -1 1 24 -13 13 -24 21 2 0.92799491D-01 0.32969845D-01 0.12096753D+06 0.12096753D+06 0.12096753D+06 0.11150006D+01  1  2 12  1  7  1       -1 0.204610992769D-02 0.100000000000D+01
-.829885990299D-04 0.000000000000D+00 0.000000000000D+00 0.560334722587D-06 0.000000000000D+00  7 -1 1 24 -13 13 -24 21 2 0.85272756D-01 0.32969845D-01 0.11426126D+06 0.11426126D+06 0.11426126D+06 0.11170015D+01  1  2  4  1  7  1       -1 -.250322467450D-02 0.100000000000D+01
-.150271860410D-03 0.000000000000D+00 -.169622623681D-04 0.560334722587D-06 0.000000000000D+00  7 -1 1 24 -13 13 -24 21 2 0.92928267D-01 0.32969845D-01 0.11426126D+06 0.11426126D+06 0.11426126D+06 0.11170015D+01  1  2  5  1  7  1       -1 -.378248280923D-02 0.100000000000D+01
0.151233396476D-03 0.000000000000D+00 0.168997679891D-04 0.560334722587D-06 0.000000000000D+00  7 -1 1 24 -13 13 -24 21 2 0.85272756D-01 0.32969845D-01 0.11426126D+06 0.11426126D+06 0.11426126D+06 0.11170015D+01  1  2  6  1  7  1       -1 0.456172503322D-02 0.100000000000D+01
0.117285389988D-05 0.000000000000D+00 0.000000000000D+00 0.560334722587D-06 0.000000000000D+00  7 21 1 24 -13 13 -24 1 2 0.92799491D-01 0.32969845D-01 0.12096753D+06 0.12096753D+06 0.12096753D+06 0.11150006D+01  1  2 12  3  7  1       -1 0.216393967202D-03 0.100000000000D+01
-.209707830674D-05 0.000000000000D+00 -.241466638844D-06 0.560334722587D-06 0.000000000000D+00  7 21 1 24 -13 13 -24 1 2 0.92928267D-01 0.32969845D-01 0.11426126D+06 0.11426126D+06 0.11426126D+06 0.11170015D+01  1  2  5  3  7  1       -1 -.388106995823D-03 0.100000000000D+01
  </mgrwgt>
  </event>
  <event>
  8     66 0.29788925E-05 0.49534983E+03 0.75467711E-02 0.88162877E-01
       -1 -1    0    0    0  501 0.00000000E+00 0.00000000E+00 0.43425674E+03 0.43425686E+03 0.32000000E+00 0.0000E+00 0.9000E+01
        1 -1    0    0  501    0 0.00000000E+00 0.00000000E+00 -.70141980E+03 0.70141987E+03 0.32000000E+00 0.0000E+00 0.9000E+01
       25  2    1    2    0    0 -.37742869E+02 0.46878411E+03 -.33435782E+03 0.65111808E+03 0.30162317E+03 0.0000E+00 0.0000E+00
       23  2    1    2    0    0 0.37742869E+02 -.46878411E+03 0.67194761E+02 0.48455865E+03 0.95388046E+02 0.0000E+00 0.0000E+00
       24  1    3    3    0    0 -.89700003E+02 0.20983895E+03 -.36001297E+02 0.24462580E+03 0.80419002E+02 0.0000E+00 0.9000E+01
      -13  1    4    4    0    0 0.39085372E+02 -.19535814E+03 0.69840681E+02 0.21111656E+03 0.10565837E+00 0.0000E+00 0.9000E+01
       13  1    4    4    0    0 -.13425034E+01 -.27342597E+03 -.26459205E+01 0.27344208E+03 0.10565837E+00 0.0000E+00 0.9000E+01
      -24  1    3    3    0    0 0.51957134E+02 0.25894516E+03 -.29835652E+03 0.40649228E+03 0.80419002E+02 0.0000E+00 0.9000E+01
#aMCatNLO 1  0  0  1  1 0.65431806D+03 0.00000000D+00  -5  7  0 0.00000000D+00 0.00000000D+00 0.00000000D+00 0.00000000D+00 0.00000000D+00
  <mgrwgt>
 0.7500411439D-03    3    2    0
 0.551902510919896D+03 0.000000000000000D+00 0.000000000000000D+00 0.551902510919896D+03
 0.551902510919896D+03 0.000000000000000D+00 0.000000000000000D+00 -.551902510919896D+03
 0.242975534831030D+03 -.897000029035431D+02 0.209838948063052D+03 0.221679933000436D+02
 0.234116484530817D+03 0.390854213427992D+02 -.195358047664262D+03 0.122955648021277D+03
 0.280697203388366D+03 -.134255264462634D+01 -.273426062746164D+03 0.634610569843955D+02
 0.346015799089579D+03 0.519571342053702D+02 0.258945162347374D+03 -.208584698305716D+03
 0.000000000000000D+00 -.000000000000000D+00 0.000000000000000D+00 -.000000000000000D+00
 0.813562604847944D+03 0.000000000000000D+00 0.000000000000000D+00 0.813562604847944D+03
 0.126394427385497D+04 0.000000000000000D+00 0.000000000000000D+00 -.126394427385497D+04
 0.190798216758325D+03 0.223801520622069D+02 0.170130692206045D+03 0.221679933000436D+02
 0.332670842153977D+03 0.185534142997108D+03 -.247242552206195D+03 0.122955648021277D+03
 0.379685550172690D+03 0.169289720711326D+03 -.333878423558401D+03 0.634610569843955D+02
 0.380012432183210D+03 0.239551142308465D+03 0.192483522699610D+03 -.208584698305716D+03
 0.794339837434710D+03 -.616755158079106D+03 0.218506760858941D+03 -.450381669007023D+03
0.971780137860D-04 0.000000000000D+00 0.000000000000D+00 0.706205422161D-07 0.000000000000D+00  7 -1 1 24 -13 13 -24 21 0 0.66808744D-01 0.10791075D+00 0.24537146D+06 0.24537146D+06 0.24537146D+06 0.10910702D+01  1  2  2  1  7  1       -1 0.742102099034D-03 0.100000000000D+01
-.532206253184D-05 0.000000000000D+00 -.373189160497D-06 0.706205422161D-07 0.000000000000D+00  7 -1 1 24 -13 13 -24 21 2 0.66808744D-01 0.10791075D+00 0.24537146D+06 0.24537146D+06 0.24537146D+06 0.10910702D+01  1  2  3  1  7  1       -1 -.483816859812D-04 0.100000000000D+01
0.619537011372D-05 0.000000000000D+00 0.000000000000D+00 0.706205422161D-07 0.000000000000D+00  7 -1 1 24 -13 13 -24 21 2 0.66808744D-01 0.10791075D+00 0.24537146D+06 0.24537146D+06 0.24537146D+06 0.10910702D+01  1  2 15  1  7  1       -1 0.563207308419D-04 0.100000000000D+01
  </mgrwgt>
  </event>
  <event>
  8     66 0.29788925E-05 0.26005919E+03 0.75467711E-02 0.82354642E-01
       -1 -1    0    0    0  501 0.00000000E+00 0.00000000E+00 0.66816706E+02 0.66817472E+02 0.32000000E+00 0.0000E+00 0.9000E+01
        1 -1    0    0  501    0 0.00000000E+00 0.00000000E+00 -.14965166E+04 0.14965166E+04 0.32000000E+00 0.0000E+00 0.9000E+01
       25  2    1    2    0    0 0.39976510E+02 -.16242467E+03 -.44789313E+03 0.56382468E+03 0.29884798E+03 0.0000E+00 0.0000E+00
       23  2    1    2    0    0 -.39976510E+02 0.16242467E+03 -.98180673E+03 0.99950939E+03 0.84229937E+02 0.0000E+00 0.0000E+00
       24  1    3    3    0    0 -.82551961E+02 0.10051517E+02 -.16541898E+03 0.20185766E+03 0.80419002E+02 0.0000E+00 0.9000E+01
      -11  1    4    4    0    0 -.24199105E+02 0.16036991E+03 -.75897042E+03 0.77610580E+03 0.51099893E-03 0.0000E+00 0.9000E+01
       11  1    4    4    0    0 -.15777405E+02 0.20547620E+01 -.22283630E+03 0.22340360E+03 0.51099893E-03 0.0000E+00 0.9000E+01
      -24  1    3    3    0    0 0.12252847E+03 -.17247619E+03 -.28247415E+03 0.36196701E+03 0.80419002E+02 0.0000E+00 0.9000E+01
#aMCatNLO 1  0  0  1  1 0.17129246D+04 0.00000000D+00  -5  7  0 0.00000000D+00 0.00000000D+00 0.00000000D+00 0.00000000D+00 0.00000000D+00
  <mgrwgt>
 0.2245949488D-02    5    2    0
 0.316216591966818D+03 0.000000000000000D+00 0.000000000000000D+00 0.316216591966818D+03
 0.316216591966818D+03 0.000000000000000D+00 0.000000000000000D+00 -.316216591966818D+03
 0.125027376386284D+03 -.825519610994104D+02 0.100515171849845D+02 0.474211937069122D+02
 0.202729285523706D+03 -.241991051326940D+02 0.160369906890974D+03 -.121634943513406D+03
 0.484880024954477D+02 -.157774050715170D+02 0.205476196777177D+01 -.458032512870387D+02
 0.256188519528197D+03 0.122528471303621D+03 -.172476186043731D+03 0.120017001093532D+03
 0.000000000000000D+00 0.000000000000000D+00 -.000000000000000D+00 0.000000000000000D+00
 0.403908542389738D+04 0.000000000000000D+00 0.000000000000000D+00 0.403908542389738D+04
 0.114761883833652D+04 0.000000000000000D+00 0.000000000000000D+00 -.114761883833652D+04
 0.468434936950826D+03 -.234458237783994D+03 0.394644953501738D+03 0.474211937069122D+02
 0.101337893525042D+04 -.335481671374394D+03 0.948469216736954D+03 -.121634943513406D+03
 0.160867898538808D+03 -.693654336848772D+02 0.137727918598727D+03 -.458032512870387D+02
 0.183265195093200D+03 0.100431861168162D+02 0.112311930084547D+03 0.120017001093532D+03
 0.336075729640065D+04 0.629262156726449D+03 -.159315401892197D+04 0.289146658556086D+04
0.481537873570D-04 0.000000000000D+00 0.000000000000D+00 0.107467899482D-07 0.000000000000D+00  7 -1 1 24 -11 11 -24 21 0 0.10279555D-01 0.23023338D+00 0.67630780D+05 0.67630780D+05 0.67630780D+05 0.11359330D+01  1  2  2  1  7  1       -1 0.221561814182D-02 0.100000000000D+01
-.255086961841D-05 0.000000000000D+00 -.184923222634D-06 0.107467899482D-07 0.000000000000D+00  7 -1 1 24 -11 11 -24 21 2 0.10279555D-01 0.23023338D+00 0.67630780D+05 0.67630780D+05 0.67630780D+05 0.11359330D+01  1  2  3  1  7  1       -1 -.151446128434D-03 0.100000000000D+01
0.305624441497D-05 0.000000000000D+00 0.000000000000D+00 0.107467899482D-07 0.000000000000D+00  7 -1 1 24 -11 11 -24 21 2 0.10279555D-01 0.23023338D+00 0.67630780D+05 0.67630780D+05 0.67630780D+05 0.11359330D+01  1  2 15  1  7  1       -1 0.181450428064D-03 0.100000000000D+01
0.691339009529D-03 0.000000000000D+00 -.187455655615D-03 0.107467899482D-07 0.000000000000D+00  7 -1 1 24 -11 11 -24 21 2 0.59918944D+00 0.23023338D+00 0.67630780D+05 0.67630780D+05 0.67630780D+05 0.11359330D+01  1  2  5  1  7  1       -1 0.535258485895D-07 0.100000000000D+01
0.184017449703D-03 0.000000000000D+00 -.667403370502D-04 0.107467899482D-07 0.000000000000D+00  7 21 1 24 -11 11 -24 1 2 0.59918944D+00 0.23023338D+00 0.67630780D+05 0.67630780D+05 0.67630780D+05 0.11359330D+01  1  2  5  3  7  1       -1 0.273520589666D-06 0.100000000000D+01
  </mgrwgt>
  </event>
  <event>
  8     66 0.29788925E-05 0.24948514E+03 0.75467711E-02 0.98381450E-01
       -1 -1    0    0    0  501 0.00000000E+00 0.00000000E+00 0.11142090E+03 0.11142136E+03 0.32000000E+00 0.0000E+00 0.9000E+01
        1 -1    0    0  501    0 0.00000000E+00 0.00000000E+00 -.34119997E+04 0.34119998E+04 0.32000000E+00 0.0000E+00 0.9000E+01
       25  2    1    2    0    0 0.10255394E+03 0.10678671E+03 -.33301078E+04 0.33469578E+04 0.30097788E+03 0.0000E+00 0.0000E+00
       23  2    1    2    0    0 -.10255394E+03 -.10678671E+03 0.29528975E+02 0.17646332E+03 0.91359892E+02 0.0000E+00 0.0000E+00
       24  1    3    3    0    0 -.78929441E+02 0.61984937E+02 -.15259781E+04 0.15313877E+04 0.80419002E+02 0.0000E+00 0.9000E+01
      -11  1    4    4    0    0 -.10716060E+03 -.66066698E+02 0.43460197E+02 0.13318030E+03 0.51099893E-03 0.0000E+00 0.9000E+01
       11  1    4    4    0    0 0.46066618E+01 -.40720015E+02 -.13931222E+02 0.43283021E+02 0.51099893E-03 0.0000E+00 0.9000E+01
      -24  1    3    3    0    0 0.18148338E+03 0.44801776E+02 -.18041297E+04 0.18155701E+04 0.80419002E+02 0.0000E+00 0.9000E+01
#aMCatNLO 1  0  0  1  1 0.18393566D+03 0.00000000D+00  -5  7  0 0.00000000D+00 0.00000000D+00 0.00000000D+00 0.00000000D+00 0.00000000D+00
  <mgrwgt>
 0.9141739678D-03    4    2    0
 0.616578388132154D+03 0.000000000000000D+00 0.000000000000000D+00 0.616578388132154D+03
 0.616578388132154D+03 0.000000000000000D+00 0.000000000000000D+00 -.616578388132154D+03
 0.291214239208696D+03 -.789294413700332D+02 0.619849369282863D+02 -.261278640616756D+03
 0.496850109858274D+03 -.107160601054396D+03 -.660666980913629D+02 0.480636898969632D+03
 0.863825377313941D+02 0.460666176118536D+01 -.407200145444286D+02 0.760434212002281D+02
 0.358709889465945D+03 0.181483380663244D+03 0.448017757075052D+02 -.295401679553104D+03
 0.000000000000000D+00 0.000000000000000D+00 -.000000000000000D+00 -.000000000000000D+00
 0.641857551821643D+03 0.000000000000000D+00 0.000000000000000D+00 0.641857551821643D+03
 0.108163326419642D+04 0.000000000000000D+00 0.000000000000000D+00 -.108163326419642D+04
 0.309355499352795D+03 -.111601612358918D+03 0.922613738343212D+02 -.261278640616756D+03
 0.507372640213139D+03 -.161792287092806D+03 -.154409592638162D+02 0.480636898969632D+03
 0.827058504699695D+02 -.459207799680229D+01 -.321957856527367D+02 0.760434212002281D+02
 0.347365096622359D+03 0.143071517402023D+03 0.803970336677816D+02 -.295401679553104D+03
 0.476691729359802D+03 0.134914460046503D+03 -.125021662585550D+03 -.439775712374779D+03
0.877905584165D-03 0.000000000000D+00 0.000000000000D+00 0.520243606877D-05 0.000000000000D+00  7 -1 1 24 -11 11 -24 21 0 0.17141713D-01 0.52492307D+00 0.62242834D+05 0.62242834D+05 0.62242834D+05 0.11390215D+01  1  2  2  1  7  1       -1 0.868754775180D-03 0.100000000000D+01
-.227067316533D-06 0.000000000000D+00 -.337138860104D-05 0.520243606877D-05 0.000000000000D+00  7 -1 1 24 -11 11 -24 21 2 0.17141713D-01 0.52492307D+00 0.62242834D+05 0.62242834D+05 0.62242834D+05 0.11390215D+01  1  2  3  1  7  1       -1 -.291519694776D-06 0.100000000000D+01
0.543819605978D-04 0.000000000000D+00 0.000000000000D+00 0.520243606877D-05 0.000000000000D+00  7 -1 1 24 -11 11 -24 21 2 0.17141713D-01 0.52492307D+00 0.62242834D+05 0.62242834D+05 0.62242834D+05 0.11390215D+01  1  2 15  1  7  1       -1 0.698181173621D-04 0.100000000000D+01
-.187774749930D-04 0.000000000000D+00 0.000000000000D+00 0.520243606877D-05 0.000000000000D+00  7 -1 1 24 -11 11 -24 21 2 0.17141713D-01 0.52492307D+00 0.62242834D+05 0.62242834D+05 0.62242834D+05 0.11390215D+01  1  2  4  1  7  1       -1 -.241074050735D-04 0.100000000000D+01
  </mgrwgt>
  </event>
  <event>
  8     66 0.29788925E-05 0.26780581E+03 0.75467711E-02 0.97727086E-01
       -1 -1    0    0    0  501 0.00000000E+00 0.00000000E+00 0.74904944E+02 0.74905627E+02 0.32000000E+00 0.0000E+00 0.9000E+01
        1 -1    0    0  501    0 0.00000000E+00 0.00000000E+00 -.19818374E+04 0.19818374E+04 0.32000000E+00 0.0000E+00 0.9000E+01
       25  2    1    2    0    0 -.31069675E+03 0.15443303E+02 -.12813829E+04 0.13522405E+04 0.29973543E+03 0.0000E+00 0.0000E+00
       23  2    1    2    0    0 0.31069675E+03 -.15443303E+02 -.62554951E+03 0.70450249E+03 0.90777744E+02 0.0000E+00 0.0000E+00
       24  1    3    3    0    0 -.36628498E+02 -.54280182E+02 -.61776542E+03 0.62640986E+03 0.80419002E+02 0.0000E+00 0.9000E+01
      -13  1    4    4    0    0 0.73327820E+00 0.12578180E+02 -.19621468E+02 0.23318694E+02 0.10565837E+00 0.0000E+00 0.9000E+01
       13  1    4    4    0    0 0.30996347E+03 -.28021483E+02 -.60592804E+03 0.68118379E+03 0.10565837E+00 0.0000E+00 0.9000E+01
      -24  1    3    3    0    0 -.27406825E+03 0.69723486E+02 -.66361750E+03 0.72583067E+03 0.80419002E+02 0.0000E+00 0.9000E+01
#aMCatNLO 1  0  0  1  2 0.43507720D+02 0.00000000D+00  -5  7  0 0.00000000D+00 0.00000000D+00 0.00000000D+00 0.00000000D+00 0.00000000D+00
  <mgrwgt>
 0.6203534932D-03    9    2    0
 0.385292287214961D+03 0.000000000000000D+00 0.000000000000000D+00 0.385292287214961D+03
 0.385292287214961D+03 0.000000000000000D+00 0.000000000000000D+00 -.385292287214961D+03
 0.143173385374961D+03 -.366284976986302D+02 -.542801824356467D+02 -.987087497461637D+02
 0.136823765840482D+02 0.732859352289921D+00 0.125782345907328D+02 0.533463782631619D+01
 0.318662622740784D+03 0.309963890105727D+03 -.280215377173028D+02 0.684327946712511D+02
 0.295066189730130D+03 -.274068251759387D+03 0.697234855622167D+02 0.249413172485964D+02
 0.000000000000000D+00 0.000000000000000D+00 0.000000000000000D+00 0.000000000000000D+00
 0.432323882528252D+03 0.000000000000000D+00 0.000000000000000D+00 0.432323882528252D+03
 0.396100901732163D+03 0.000000000000000D+00 0.000000000000000D+00 -.396100901732163D+03
 0.147098252028537D+03 -.413019754292434D+02 -.610033551919233D+02 -.987087497461637D+02
 0.130974206759127D+02 0.301694987613153D+00 0.119579700517400D+02 0.533463782631619D+01
 0.310480212109127D+03 0.299834464253628D+03 -.425935296794036D+02 0.684327946712511D+02
 0.301135949817944D+03 -.283667320573157D+03 0.559144547602456D+02 0.249413172485964D+02
 0.566129496288945D+02 0.248331367611584D+02 0.357244600593414D+02 0.362229807960896D+02
0.324659021872D-04 0.000000000000D+00 0.000000000000D+00 0.273555372720D-05 0.000000000000D+00  7 -1 1 24 -13 13 -24 21 0 0.11523892D-01 0.30489811D+00 0.13015678D+06 0.13015678D+06 0.13015678D+06 0.11124480D+01  1  2  2  1  7  1       -1 0.593123788889D-03 0.100000000000D+01
-.179417943980D-05 0.000000000000D+00 -.124677612867D-06 0.273555372720D-05 0.000000000000D+00  7 -1 1 24 -13 13 -24 21 2 0.11523892D-01 0.30489811D+00 0.13015678D+06 0.13015678D+06 0.13015678D+06 0.11124480D+01  1  2  3  1  7  1       -1 -.405642265206D-04 0.100000000000D+01
0.207052225352D-05 0.000000000000D+00 0.000000000000D+00 0.273555372720D-05 0.000000000000D+00  7 -1 1 24 -13 13 -24 21 2 0.11523892D-01 0.30489811D+00 0.13015678D+06 0.13015678D+06 0.13015678D+06 0.11124480D+01  1  2 15  1  7  1       -1 0.468120032168D-04 0.100000000000D+01
0.896797999161D-04 0.000000000000D+00 0.000000000000D+00 0.273555372720D-05 0.000000000000D+00  7 -1 1 24 -13 13 -24 21 2 0.13078887D-01 0.30489811D+00 0.14725536D+06 0.14725536D+06 0.14725536D+06 0.11081854D+01  1  2 12  1  7  1       -1 0.164556216049D-02 0.100000000000D+01
-.905237747711D-04 0.000000000000D+00 0.000000000000D+00 0.273555372720D-05 0.000000000000D+00  7 -1 1 24 -13 13 -24 21 2 0.11523892D-01 0.30489811D+00 0.13015678D+06 0.13015678D+06 0.13015678D+06 0.11124480D+01  1  2  4  1  7  1       -1 -.204663303115D-02 0.100000000000D+01
-.178964646568D-03 0.000000000000D+00 -.318851018643D-04 0.273555372720D-05 0.000000000000D+00  7 -1 1 24 -13 13 -24 21 2 0.13320343D-01 0.30489811D+00 0.13015678D+06 0.13015678D+06 0.13015678D+06 0.11124480D+01  1  2  5  1  7  1       -1 -.322931629819D-02 0.100000000000D+01
0.182002318295D-03 0.000000000000D+00 0.315534118440D-04 0.273555372720D-05 0.000000000000D+00  7 -1 1 24 -13 13 -24 21 2 0.11523892D-01 0.30489811D+00 0.13015678D+06 0.13015678D+06 0.13015678D+06 0.11124480D+01  1  2  6  1  7  1       -1 0.411485222871D-02 0.100000000000D+01
0.177929982996D-05 0.000000000000D+00 0.000000000000D+00 0.273555372720D-05 0.000000000000D+00  7 21 1 24 -13 13 -24 1 2 0.13078887D-01 0.30489811D+00 0.14725536D+06 0.14725536D+06 0.14725536D+06 0.11081854D+01  1  2 12  3  7  1       -1 0.430773131665D-03 0.100000000000D+01
-.376074891196D-05 0.000000000000D+00 -.707064596612D-06 0.273555372720D-05 0.000000000000D+00  7 21 1 24 -13 13 -24 1 2 0.13320343D-01 0.30489811D+00 0.13015678D+06 0.13015678D+06 0.13015678D+06 0.11124480D+01  1  2  5  3  7  1       -1 -.894256263881D-03 0.100000000000D+01
  </mgrwgt>
  </event>
  <event>
  8     66 0.29788925E-05 0.21396696E+03 0.75467711E-02 0.91635060E-01
       -1 -1    0    0    0  501 0.00000000E+00 0.00000000E+00 0.24940138E+03 0.24940159E+03 0.32000000E+00 0.0000E+00 0.9000E+01
        1 -1    0    0  501    0 0.00000000E+00 0.00000000E+00 -.22621697E+03 0.22621720E+03 0.32000000E+00 0.0000E+00 0.9000E+01
       25  2    1    2    0    0 0.37144147E+02 -.10196994E+03 -.44338596E+02 0.32202295E+03 0.29992551E+03 0.0000E+00 0.0000E+00
       23  2    1    2    0    0 -.37144147E+02 0.10196994E+03 0.67523005E+02 0.15359584E+03 0.85174925E+02 0.0000E+00 0.0000E+00
       24  1    3    3    0    0 -.10813584E+03 -.59808786E+02 -.26158569E+02 0.14973956E+03 0.80419002E+02 0.0000E+00 0.9000E+01
      -11  1    4    4    0    0 -.36227541E+02 0.87861379E+02 0.87458949E+02 0.12915543E+03 0.51099893E-03 0.0000E+00 0.9000E+01
       11  1    4    4    0    0 -.91660620E+00 0.14108566E+02 -.19935944E+02 0.24440411E+02 0.51099893E-03 0.0000E+00 0.9000E+01
      -24  1    3    3    0    0 0.14527998E+03 -.42161159E+02 -.18180027E+02 0.17228339E+03 0.80419002E+02 0.0000E+00 0.9000E+01
#aMCatNLO 1  0  0  1  2 0.58617467D+03 0.00000000D+00  -5  7  0 0.00000000D+00 0.00000000D+00 0.00000000D+00 0.00000000D+00 0.00000000D+00
  <mgrwgt>
 0.2634391327D-02    3    2    0
 0.237526691079318D+03 0.000000000000000D+00 0.000000000000000D+00 0.237526691079318D+03
 0.237526691079318D+03 0.000000000000000D+00 0.000000000000000D+00 -.237526691079318D+03
 0.151194419736783D+03 -.108135835984456D+03 -.598087861801020D+02 -.334975622512691D+02
 0.125040818709465D+03 -.362275409073726D+02 0.878613787364303D+02 0.812597671044617D+02
 0.254424492349941D+02 -.916606199562690D+00 0.141085660243075D+02 -.211524566159095D+02
 0.173375694477394D+03 0.145279983091392D+03 -.421611585806358D+02 -.266097482372831D+02
 0.000000000000000D+00 -.000000000000000D+00 -.000000000000000D+00 -.000000000000000D+00
 0.538016588568517D+03 0.000000000000000D+00 0.000000000000000D+00 0.538016588568517D+03
 0.911575051933759D+03 0.000000000000000D+00 0.000000000000000D+00 -.911575051933759D+03
 0.885301940304103D+02 -.146176213597698D+02 0.588368674355741D+01 -.334975622512691D+02
 0.224334610170632D+03 0.100066208112204D+03 0.183601801637629D+03 0.812597671044617D+02
 0.494902412016331D+02 0.283151498414045D+02 0.346426015588711D+02 -.211524566159095D+02
 0.392149069219805D+03 0.365895068859640D+03 0.112811331073329D+03 -.266097482372831D+02
 0.695087525879795D+03 -.479658805453479D+03 -.336939421013387D+03 -.373558463365242D+03
0.260653440050D-04 0.000000000000D+00 0.000000000000D+00 0.549054300209D-07 0.000000000000D+00  7 -1 1 24 -11 11 -24 21 0 0.38369477D-01 0.34802645D-01 0.45781860D+05 0.45781860D+05 0.45781860D+05 0.11506775D+01  1  2  2  1  7  1       -1 0.259905730218D-02 0.100000000000D+01
-.142886326379D-05 0.000000000000D+00 -.100097784142D-06 0.549054300209D-07 0.000000000000D+00  7 -1 1 24 -11 11 -24 21 2 0.38369477D-01 0.34802645D-01 0.45781860D+05 0.45781860D+05 0.45781860D+05 0.11506775D+01  1  2  3  1  7  1       -1 -.188647165818D-03 0.100000000000D+01
0.169649246070D-05 0.000000000000D+00 0.000000000000D+00 0.549054300209D-07 0.000000000000D+00  7 -1 1 24 -11 11 -24 21 2 0.38369477D-01 0.34802645D-01 0.45781860D+05 0.45781860D+05 0.45781860D+05 0.11506775D+01  1  2 15  1  7  1       -1 0.223981190261D-03 0.100000000000D+01
  </mgrwgt>
  </event>
  <event>
  8     66 0.29788925E-05 0.30512413E+03 0.75467711E-02 0.94003672E-01
       -1 -1    0    0    0  501 0.00000000E+00 0.00000000E+00 0.87754063E+03 0.87754069E+03 0.32000000E+00 0.0000E+00 0.9000E+01
        1 -1    0    0  501    0 0.00000000E+00 0.00000000E+00 -.15191137E+03 0.15191171E+03 0.32000000E+00 0.0000E+00 0.9000E+01
       25  2    1    2    0    0 -.16324456E+03 0.20531288E+03 0.22507160E+03 0.45637955E+03 0.29803171E+03 0.0000E+00 0.0000E+00
       23  2    1    2    0    0 0.16324456E+03 -.20531288E+03 0.50055766E+03 0.57307285E+03 0.95143852E+02 0.0000E+00 0.0000E+00
       24  1    3    3    0    0 -.14279568E+03 0.49188024E+02 0.22103939E+03 0.27952762E+03 0.80419002E+02 0.0000E+00 0.9000E+01
      -13  1    4    4    0    0 0.10932320E+03 -.14068997E+03 0.42145904E+03 0.45757291E+03 0.10565837E+00 0.0000E+00 0.9000E+01
       13  1    4    4    0    0 0.53921368E+02 -.64622912E+02 0.79098621E+02 0.11549995E+03 0.10565837E+00 0.0000E+00 0.9000E+01
      -24  1    3    3    0    0 -.20448887E+02 0.15612486E+03 0.40322153E+01 0.17685193E+03 0.80419002E+02 0.0000E+00 0.9000E+01
#aMCatNLO 1  0  0  2  1 0.34588276D+03 0.00000000D+00  -5  7  0 0.00000000D+00 0.00000000D+00 0.00000000D+00 0.00000000D+00 0.00000000D+00
  <mgrwgt>
 0.4727920224D-03    5    2    0
 0.365114510115270D+03 0.000000000000000D+00 0.000000000000000D+00 0.365114510115270D+03
 0.365114510115270D+03 0.000000000000000D+00 0.000000000000000D+00 -.365114510115270D+03
 0.174421633263601D+03 -.142795676571903D+03 0.491880248467496D+02 0.338470554113602D+02
 0.226266879141567D+03 0.109323266459952D+03 -.140690070217183D+03 0.139468376879043D+03
 0.842274029761185D+02 0.539212981361011D+02 -.646228168091728D+02 -.326198820771178D+01
 0.245313104849254D+03 -.204488880241497D+02 0.156124862179607D+03 -.170053444082692D+03
 0.000000000000000D+00 -.000000000000000D+00 -.000000000000000D+00 -.000000000000000D+00
 0.435086316214195D+03 0.000000000000000D+00 0.000000000000000D+00 0.435086316214195D+03
 0.136617099102212D+04 0.000000000000000D+00 0.000000000000000D+00 -.136617099102212D+04
 0.150733229224242D+03 -.827426296327712D+02 0.908918286725042D+02 0.338470554113602D+02
 0.254887034587303D+03 0.198187871912953D+03 -.789780961915974D+02 0.139468376879043D+03
 0.967167774316775D+02 0.873399875453619D+02 -.414152272150888D+02 -.326198820771178D+01
 0.305666242214105D+03 0.813118186696499D+02 0.226792526277146D+03 -.170053444082692D+03
 0.993254023778983D+03 -.284097048495193D+03 -.197291031542964D+03 -.931084674807922D+03
0.504700752029D-04 0.000000000000D+00 0.000000000000D+00 0.312429089602D-07 0.000000000000D+00  7 -1 1 24 -13 13 -24 21 0 0.13500628D+00 0.23371011D-01 0.93100734D+05 0.93100734D+05 0.93100734D+05 0.11242787D+01  1  2  2  2  7  2        1 0.664949341019D-03 0.100000000000D+01
-.269405955255D-05 0.000000000000D+00 -.193818377855D-06 0.312429089602D-07 0.000000000000D+00  7 -1 1 24 -13 13 -24 21 2 0.13500628D+00 0.23371011D-01 0.93100734D+05 0.93100734D+05 0.93100734D+05 0.11242787D+01  1  2  3  2  7  2        1 -.448652193252D-04 0.100000000000D+01
0.319861937323D-05 0.000000000000D+00 0.000000000000D+00 0.312429089602D-07 0.000000000000D+00  7 -1 1 24 -13 13 -24 21 2 0.13500628D+00 0.23371011D-01 0.93100734D+05 0.93100734D+05 0.93100734D+05 0.11242787D+01  1  2 15  2  7  2        1 0.532678498445D-04 0.100000000000D+01
-.580452854681D-04 0.000000000000D+00 -.197461680614D-04 0.312429089602D-07 0.000000000000D+00  7 -1 1 24 -13 13 -24 21 2 0.13500628D+00 0.97992493D-01 0.93100734D+05 0.93100734D+05 0.93100734D+05 0.11242787D+01  1  2  5  2  7  2        1 -.143092225178D-03 0.100000000000D+01
-.991281155582D-05 0.000000000000D+00 -.339734181745D-05 0.312429089602D-07 0.000000000000D+00  7 -1 21 24 -13 13 -24 -1 2 0.13500628D+00 0.97992493D-01 0.93100734D+05 0.93100734D+05 0.93100734D+05 0.11242787D+01  1  2  5  4  7  2        1 -.574677239667D-04 0.100000000000D+01
  </mgrwgt>
  </event>
  <event>
  8     66 0.29788925E-05 0.23645264E+03 0.75467711E-02 0.10397337E+00
       -1 -1    0    0    0  501 0.00000000E+00 0.00000000E+00 0.15511548E+03 0.15511581E+03 0.32000000E+00 0.0000E+00 0.9000E+01
        1 -1    0    0  501    0 0.00000000E+00 0.00000000E+00 -.50497858E+03 0.50497868E+03 0.32000000E+00 0.0000E+00 0.9000E+01
       25  2    1    2    0    0 -.84543189E+02 0.14613534E+03 -.32227938E+03 0.46687923E+03 0.29259037E+03 0.0000E+00 0.0000E+00
       23  2    1    2    0    0 0.84543189E+02 -.14613534E+03 -.27583720E+02 0.19321527E+03 0.89823094E+02 0.0000E+00 0.0000E+00
       24  1    3    3    0    0 0.10737172E+02 -.14000637E+02 -.22931982E+03 0.24365160E+03 0.80419002E+02 0.0000E+00 0.9000E+01
      -13  1    4    4    0    0 0.50186178E+02 -.14478785E+03 -.36844933E+02 0.15760626E+03 0.10565837E+00 0.0000E+00 0.9000E+01
       13  1    4    4    0    0 0.34357011E+02 -.13474941E+01 0.92612126E+01 0.35609004E+02 0.10565837E+00 0.0000E+00 0.9000E+01
      -24  1    3    3    0    0 -.95280361E+02 0.16013598E+03 -.92959554E+02 0.22322763E+03 0.80419002E+02 0.0000E+00 0.9000E+01
#aMCatNLO 1  0  0  1  1 0.39618185D+03 0.00000000D+00  -5  7  0 0.00000000D+00 0.00000000D+00 0.00000000D+00 0.00000000D+00 0.00000000D+00
  <mgrwgt>
 0.8898894876D-05    1    2    0
 0.279875219811760D+03 0.000000000000000D+00 0.000000000000000D+00 0.279875219811760D+03
 0.279875219811760D+03 0.000000000000000D+00 0.000000000000000D+00 -.279875219811760D+03
 0.143997268447644D+03 0.107371698207320D+02 -.140006326944019D+02 -.118138447739969D+03
 0.162830483657533D+03 0.501862013881690D+02 -.144788050269788D+03 0.550593506812915D+02
 0.477808919541486D+02 0.343569895325209D+02 -.134729680424758D+01 0.331782413264708D+02
 0.205141795564194D+03 -.952803607414218D+02 0.160135979768438D+03 0.299008557322067D+02
 0.000000000000000D+00 -.000000000000000D+00 -.000000000000000D+00 -.000000000000000D+00
 0.581125117743890D+03 0.000000000000000D+00 0.000000000000000D+00 0.581125117743890D+03
 0.717634438544178D+03 0.000000000000000D+00 0.000000000000000D+00 -.717634438544178D+03
 0.202815863295733D+03 0.142743675429273D+03 0.182923137015562D+02 -.118138447739969D+03
 0.235185805681262D+03 0.201682020669226D+03 -.107727404291001D+03 0.550593506812915D+02
 0.957182886684467D+02 0.889766785173494D+02 0.120143983669096D+02 0.331782413264708D+02
 0.229108748965227D+03 0.700072010466119D+02 0.200570520082443D+03 0.299008557322067D+02
 0.535930849677399D+03 -.503409575662460D+03 -.123149827859908D+03 -.136509320800287D+03
0.893644368497D-07 0.000000000000D+00 0.000000000000D+00 0.279076594525D-08 0.000000000000D+00  7 -1 1 24 -13 13 -24 21 2 0.23863954D-01 0.77689046D-01 0.55909850D+05 0.55909850D+05 0.55909850D+05 0.11430520D+01  1  2 14  1  7  1       -1 0.889889487606D-05 0.100000000000D+01
  </mgrwgt>
  </event>
  <event>
  8     66 0.29788925E-05 0.26278814E+03 0.75467711E-02 0.94548067E-01
       -1 -1    0    0    0  501 0.00000000E+00 0.00000000E+00 0.68371985E+02 0.68372734E+02 0.32000000E+00 0.0000E+00 0.9000E+01
        1 -1    0    0  501    0 0.00000000E+00 0.00000000E+00 -.19144634E+04 0.19144634E+04 0.32000000E+00 0.0000E+00 0.9000E+01
       25  2    1    2    0    0 -.78770451E+02 -.22062608E+03 -.59863875E+03 0.71015735E+03 0.30178545E+03 0.0000E+00 0.0000E+00
       23  2    1    2    0    0 0.78770451E+02 0.22062608E+03 -.12474526E+04 0.12726788E+04 0.93233848E+02 0.0000E+00 0.0000E+00
       24  1    3    3    0    0 -.25457727E+02 -.58525322E+02 -.47179149E+03 0.48283303E+03 0.80419002E+02 0.0000E+00 0.9000E+01
      -11  1    4    4    0    0 0.20183187E+02 0.56909181E+02 -.15273959E+03 0.16424189E+03 0.51099893E-03 0.0000E+00 0.9000E+01
       11  1    4    4    0    0 0.58587264E+02 0.16371690E+03 -.10947130E+04 0.11084369E+04 0.51099893E-03 0.0000E+00 0.9000E+01
      -24  1    3    3    0    0 -.53312724E+02 -.16210076E+03 -.12684726E+03 0.22732432E+03 0.80419002E+02 0.0000E+00 0.9000E+01
#aMCatNLO 1  0  0  1  2 0.37642428D+03 0.00000000D+00  -5  7  0 0.00000000D+00 0.00000000D+00 0.00000000D+00 0.00000000D+00 0.00000000D+00
  <mgrwgt>
 0.1074198962D-02    3    2    0
 0.361796117364733D+03 0.000000000000000D+00 0.000000000000000D+00 0.361796117364733D+03
 0.361796117364733D+03 0.000000000000000D+00 0.000000000000000D+00 -.361796117364733D+03
 0.119416114004891D+03 -.254577267547743D+02 -.585253221343936D+02 -.609892051694664D+02
 0.603841625696933D+02 0.201831865098942D+02 0.569091805218841D+02 0.480878235711785D+00
 0.244486311951847D+03 0.585872643957035D+02 0.163716903987609D+03 -.171865832937078D+03
 0.299305646203035D+03 -.533127241508233D+02 -.162100762375100D+03 0.232374159870832D+03
 0.000000000000000D+00 -.000000000000000D+00 -.000000000000000D+00 -.000000000000000D+00
 0.461934058841801D+03 0.000000000000000D+00 0.000000000000000D+00 0.461934058841801D+03
 0.106248341330041D+04 0.000000000000000D+00 0.000000000000000D+00 -.106248341330041D+04
 0.113121844825068D+03 0.289773872609727D+02 -.420709365545935D+02 -.609892051694664D+02
 0.866828122313815D+02 0.546102864187805D+02 0.673156394140479D+02 0.480878235711785D+00
 0.329407176898698D+03 0.192930739567076D+03 0.204325606303556D+03 -.171865832937078D+03
 0.286435739572726D+03 0.838042406616214D+02 -.120653702892444D+03 0.232374159870832D+03
 0.708769898614342D+03 -.360322653908451D+03 -.108916606270567D+03 -.600549354458613D+03
0.444662485198D-04 0.000000000000D+00 0.000000000000D+00 0.124371379396D-06 0.000000000000D+00  7 -1 1 24 -11 11 -24 21 0 0.10518827D-01 0.29453289D+00 0.69057606D+05 0.69057606D+05 0.69057606D+05 0.11351604D+01  1  2  2  1  7  1       -1 0.105434364695D-02 0.100000000000D+01
-.216329398335D-05 0.000000000000D+00 -.170762102548D-06 0.124371379396D-06 0.000000000000D+00  7 -1 1 24 -11 11 -24 21 2 0.10518827D-01 0.29453289D+00 0.69057606D+05 0.69057606D+05 0.69057606D+05 0.11351604D+01  1  2  3  1  7  1       -1 -.660969898032D-04 0.100000000000D+01
0.281314027275D-05 0.000000000000D+00 0.000000000000D+00 0.124371379396D-06 0.000000000000D+00  7 -1 1 24 -11 11 -24 21 2 0.10518827D-01 0.29453289D+00 0.69057606D+05 0.69057606D+05 0.69057606D+05 0.11351604D+01  1  2 15  1  7  1       -1 0.859523048433D-04 0.100000000000D+01
  </mgrwgt>
  </event>
  <event>
  8     66 0.29788925E-05 0.13686716E+03 0.75467711E-02 0.10712305E+00
       -1 -1    0    0    0  501 0.00000000E+00 0.00000000E+00 0.13416450E+03 0.13416488E+03 0.32000000E+00 0.0000E+00 0.9000E+01
        1 -1    0    0  501    0 0.00000000E+00 0.00000000E+00 -.17392761E+04 0.17392761E+04 0.32000000E+00 0.0000E+00 0.9000E+01
       25  2    1    2    0    0 -.69900942E+02 0.58422122E+02 -.54982085E+02 0.31793623E+03 0.29960162E+03 0.0000E+00 0.0000E+00
       23  2    1    2    0    0 0.69900942E+02 -.58422122E+02 -.15501295E+04 0.15555048E+04 0.91620523E+02 0.0000E+00 0.0000E+00
       24  1    3    3    0    0 -.69775397E+02 0.11773392E+03 0.56253339E+02 0.16840884E+03 0.80419002E+02 0.0000E+00 0.9000E+01
      -11  1    4    4    0    0 0.23514934E+02 0.12971187E+02 -.12587861E+03 0.12871142E+03 0.51099893E-03 0.0000E+00 0.9000E+01
       11  1    4    4    0    0 0.46386008E+02 -.71393309E+02 -.14242509E+04 0.14267933E+04 0.51099893E-03 0.0000E+00 0.9000E+01
      -24  1    3    3    0    0 -.12554530E+00 -.59311800E+02 -.11123542E+03 0.14952739E+03 0.80419002E+02 0.0000E+00 0.9000E+01
#aMCatNLO 1  0  0  1  2 0.74694223D+01 0.00000000D+00  -5  7  0 0.00000000D+00 0.00000000D+00 0.00000000D+00 0.00000000D+00 0.00000000D+00
  <mgrwgt>
 0.7203412668D-03   11    2    0
 0.483062612928180D+03 0.000000000000000D+00 0.000000000000000D+00 0.483062612928180D+03
 0.483062612928180D+03 0.000000000000000D+00 0.000000000000000D+00 -.483062612928180D+03
 0.420025160821974D+03 -.697753971953831D+02 0.117733922314307D+03 0.388875349246863D+03
 0.404544100172179D+02 0.235149340520967D+02 0.129711869347133D+02 -.302548421888371D+02
 0.400498335941974D+03 0.463860084452763D+02 -.713933093760496D+02 -.391344158879548D+03
 0.105147319075195D+03 -.125545301989995D+00 -.593117998729705D+02 0.327236518215215D+02
 0.000000000000000D+00 -.000000000000000D+00 -.000000000000000D+00 0.000000000000000D+00
 0.492297262226756D+03 0.000000000000000D+00 0.000000000000000D+00 0.492297262226756D+03
 0.484589820547062D+03 0.000000000000000D+00 0.000000000000000D+00 -.484589820547062D+03
 0.419688848784943D+03 -.665934580539682D+02 0.118375622205776D+03 0.388875349246863D+03
 0.406536577585860D+02 0.238222779008211D+02 0.130331687972207D+02 -.302548421888371D+02
 0.400752735230257D+03 0.494221994773361D+02 -.707810024244823D+02 -.391344158879548D+03
 0.105058857894124D+03 0.670991679188830D+00 -.591511627043581D+02 0.327236518215215D+02
 0.107329831059076D+02 -.732201100337793D+01 -.147662587415621D+01 0.770744167969396D+01
0.413689275388D-04 0.000000000000D+00 0.000000000000D+00 0.863436451836D-05 0.000000000000D+00  7 -1 1 24 -11 11 -24 21 0 0.20640724D-01 0.26758097D+00 0.34346441D+05 0.34346441D+05 0.34346441D+05 0.11619230D+01  1  2  2  1  7  1       -1 0.455686244350D-03 0.100000000000D+01
0.266398650501D-06 0.000000000000D+00 -.158867574438D-06 0.863436451836D-05 0.000000000000D+00  7 -1 1 24 -11 11 -24 21 2 0.20640724D-01 0.26758097D+00 0.34346441D+05 0.34346441D+05 0.34346441D+05 0.11619230D+01  1  2  3  1  7  1       -1 0.396167050512D-05 0.100000000000D+01
0.249077290826D-05 0.000000000000D+00 0.000000000000D+00 0.863436451836D-05 0.000000000000D+00  7 -1 1 24 -11 11 -24 21 2 0.20640724D-01 0.26758097D+00 0.34346441D+05 0.34346441D+05 0.34346441D+05 0.11619230D+01  1  2 15  1  7  1       -1 0.370408091296D-04 0.100000000000D+01
0.664730085316D-04 0.000000000000D+00 0.000000000000D+00 0.863436451836D-05 0.000000000000D+00  7 -1 1 24 -11 11 -24 21 2 0.21067567D-01 0.26758097D+00 0.35839817D+05 0.35839817D+05 0.35839817D+05 0.11602362D+01  1  2 12  1  7  1       -1 0.952670615246D-03 0.100000000000D+01
-.837109667689D-04 0.000000000000D+00 0.000000000000D+00 0.863436451836D-05 0.000000000000D+00  7 -1 1 24 -11 11 -24 21 2 0.20640724D-01 0.26758097D+00 0.34346441D+05 0.34346441D+05 0.34346441D+05 0.11619230D+01  1  2  4  1  7  1       -1 -.124488343833D-02 0.100000000000D+01
-.211483894554D-02 0.000000000000D+00 -.247890411491D-03 0.863436451836D-05 0.000000000000D+00  7 -1 1 24 -11 11 -24 21 2 0.21098082D-01 0.26758097D+00 0.34346441D+05 0.34346441D+05 0.34346441D+05 0.11619230D+01  1  2  5  1  7  1       -1 -.303744034284D-01 0.100000000000D+01
0.211982215094D-02 0.000000000000D+00 0.247830890463D-03 0.863436451836D-05 0.000000000000D+00  7 -1 1 24 -11 11 -24 21 2 0.20640724D-01 0.26758097D+00 0.34346441D+05 0.34346441D+05 0.34346441D+05 0.11619230D+01  1  2  6  1  7  1       -1 0.315243221979D-01 0.100000000000D+01
0.161894283560D-04 0.000000000000D+00 0.000000000000D+00 0.863436451836D-05 0.111126880791D-05  7 -1 1 24 -11 11 -24 21 2 0.21035310D-01 0.26842693D+00 0.35839817D+05 0.35839817D+05 0.35839817D+05 0.11602362D+01  1  2 11  1  7  1       -1 0.230701734413D-03 0.100000000000D+01
0.341283577989D-05 0.000000000000D+00 0.000000000000D+00 0.863436451836D-05 0.000000000000D+00  7 21 1 24 -11 11 -24 1 2 0.21067567D-01 0.26758097D+00 0.35839817D+05 0.35839817D+05 0.35839817D+05 0.11602362D+01  1  2 12  3  7  1       -1 0.599893669903D-03 0.100000000000D+01
-.836824615949D-05 0.000000000000D+00 -.985973629504D-06 0.863436451836D-05 0.000000000000D+00  7 21 1 24 -11 11 -24 1 2 0.21098082D-01 0.26758097D+00 0.34346441D+05 0.34346441D+05 0.34346441D+05 0.11619230D+01  1  2  5  3  7  1       -1 -.147509727460D-02 0.100000000000D+01
0.597603964810D-07 0.000000000000D+00 0.000000000000D+00 0.863436451836D-05 0.384069222122D-08  7 21 1 24 -11 11 -24 1 2 0.21035310D-01 0.26842693D+00 0.35839817D+05 0.35839817D+05 0.35839817D+05 0.11602362D+01  1  2 11  3  7  1       -1 0.104484667170D-04 0.100000000000D+01
  </mgrwgt>
  </event>
  <event>
  8     66 0.29788925E-05 0.23336190E+03 0.75467711E-02 0.10026967E+00
       -1 -1    0    0    0  501 0.00000000E+00 0.00000000E+00 0.97457662E+02 0.97458187E+02 0.32000000E+00 0.0000E+00 0.9000E+01
        1 -1    0    0  501    0 0.00000000E+00 0.00000000E+00 -.83283303E+03 0.83283309E+03 0.32000000E+00 0.0000E+00 0.9000E+01
       25  2    1    2    0    0 0.18392088E+03 0.20301956E+02 -.37070429E+03 0.51167623E+03 0.30025295E+03 0.0000E+00 0.0000E+00
       23  2    1    2    0    0 -.18392088E+03 -.20301956E+02 -.36467108E+03 0.41861505E+03 0.89523756E+02 0.0000E+00 0.0000E+00
       24  1    3    3    0    0 0.25251534E+02 0.54697917E+02 -.15922353E+01 0.10049504E+03 0.80419002E+02 0.0000E+00 0.9000E+01
      -11  1    4    4    0    0 -.13784979E+03 -.16492115E+02 -.33762770E+03 0.36505756E+03 0.51099893E-03 0.0000E+00 0.9000E+01
       11  1    4    4    0    0 -.46071097E+02 -.38098404E+01 -.27043375E+02 0.53557493E+02 0.51099893E-03 0.0000E+00 0.9000E+01
      -24  1    3    3    0    0 0.15866935E+03 -.34395961E+02 -.36911205E+03 0.41118119E+03 0.80419002E+02 0.0000E+00 0.9000E+01
#aMCatNLO 1  0  0  1  1 0.14405490D+03 0.00000000D+00  -5  7  0 0.00000000D+00 0.00000000D+00 0.00000000D+00 0.00000000D+00 0.00000000D+00
  <mgrwgt>
 0.5730204719D-03    7    2    0
 0.284896880797443D+03 0.000000000000000D+00 0.000000000000000D+00 0.284896880797443D+03
 0.284896880797443D+03 0.000000000000000D+00 0.000000000000000D+00 -.284896880797443D+03
 0.162021376559920D+03 0.252515344814615D+02 0.546979172455109D+02 0.127099206776973D+03
 0.160280387499891D+03 -.137849787661495D+03 -.164921154306252D+02 -.800952482199729D+02
 0.525401261175914D+02 -.460710969550474D+02 -.380984038573648D+01 0.249680594769845D+02
 0.194951871417484D+03 0.158669350135081D+03 -.343959614291491D+02 -.719720180339848D+02
 0.000000000000000D+00 -.000000000000000D+00 0.000000000000000D+00 0.000000000000000D+00
 0.372087873960175D+03 0.000000000000000D+00 0.000000000000000D+00 0.372087873960175D+03
 0.360180010914120D+03 0.000000000000000D+00 0.000000000000000D+00 -.360180010914120D+03
 0.153967012916742D+03 0.290256183708674D+02 0.155541064348492D+02 0.127099206776973D+03
 0.166129014969984D+03 -.133951237878535D+03 -.569268539292863D+02 -.800952482199729D+02
 0.540341593248097D+02 -.447982011553655D+02 -.170119826338994D+02 0.249680594769845D+02
 0.213591469403352D+03 0.163548886510672D+03 -.850052362431136D+02 -.719720180339848D+02
 0.144546228259408D+03 -.138250658476396D+02 0.143389966371450D+03 0.119078630460556D+02
0.745505236569D-05 0.000000000000D+00 0.000000000000D+00 0.510167419812D-06 0.000000000000D+00  7 -1 1 24 -11 11 -24 21 0 0.14993532D-01 0.12812820D+00 0.54457776D+05 0.54457776D+05 0.54457776D+05 0.11440472D+01  1  2  2  1  7  1       -1 0.571726803709D-03 0.100000000000D+01
-.394119970463D-06 0.000000000000D+00 -.286293640446D-07 0.510167419812D-06 0.000000000000D+00  7 -1 1 24 -11 11 -24 21 2 0.14993532D-01 0.12812820D+00 0.54457776D+05 0.54457776D+05 0.54457776D+05 0.11440472D+01  1  2  3  1  7  1       -1 -.395598085709D-04 0.100000000000D+01
0.480648957523D-06 0.000000000000D+00 0.000000000000D+00 0.510167419812D-06 0.000000000000D+00  7 -1 1 24 -11 11 -24 21 2 0.14993532D-01 0.12812820D+00 0.54457776D+05 0.54457776D+05 0.54457776D+05 0.11440472D+01  1  2 15  1  7  1       -1 0.482451592775D-04 0.100000000000D+01
-.272739224581D-05 0.000000000000D+00 0.000000000000D+00 0.510167419812D-06 0.000000000000D+00  7 -1 1 24 -11 11 -24 21 2 0.14993532D-01 0.12812820D+00 0.54457776D+05 0.54457776D+05 0.54457776D+05 0.11440472D+01  1  2  4  1  7  1       -1 -.273762111104D-03 0.100000000000D+01
-.341726226903D-05 0.000000000000D+00 -.278726361132D-05 0.510167419812D-06 0.000000000000D+00  7 -1 1 24 -11 11 -24 21 2 0.24747579D-01 0.12812820D+00 0.54457776D+05 0.54457776D+05 0.54457776D+05 0.11440472D+01  1  2  5  1  7  1       -1 -.154744073738D-03 0.100000000000D+01
0.454768422583D-05 0.000000000000D+00 0.247053061975D-05 0.510167419812D-06 0.000000000000D+00  7 -1 1 24 -11 11 -24 21 2 0.14993532D-01 0.12812820D+00 0.54457776D+05 0.54457776D+05 0.54457776D+05 0.11440472D+01  1  2  6  1  7  1       -1 0.456473994970D-03 0.100000000000D+01
-.669807734748D-07 0.000000000000D+00 -.157429320099D-06 0.510167419812D-06 0.000000000000D+00  7 21 1 24 -11 11 -24 1 2 0.24747579D-01 0.12812820D+00 0.54457776D+05 0.54457776D+05 0.54457776D+05 0.11440472D+01  1  2  5  3  7  1       -1 -.353594926451D-04 0.100000000000D+01
  </mgrwgt>
  </event>
  <event>
  8     66 0.29788925E-05 0.35404609E+03 0.75467711E-02 0.85800401E-01
       -3 -1    0    0    0  501 0.00000000E+00 0.00000000E+00 0.41158792E+03 0.41158822E+03 0.50000000E+00 0.0000E+00 0.9000E+01
        3 -1    0    0  501    0 0.00000000E+00 0.00000000E+00 -.55854161E+03 0.55854184E+03 0.50000000E+00 0.0000E+00 0.9000E+01
       25  2    1    2    0    0 -.27401590E+03 0.74538885E+02 0.24305485E+03 0.47918551E+03 0.29983719E+03 0.0000E+00 0.0000E+00
       23  2    1    2    0    0 0.27401590E+03 -.74538885E+02 -.39000854E+03 0.49094455E+03 0.90989730E+02 0.0000E+00 0.0000E+00
       24  1    3    3    0    0 0.28025779E+02 0.51434401E+02 0.55026885E+02 0.11369308E+03 0.80419002E+02 0.0000E+00 0.9000E+01
      -11  1    4    4    0    0 0.93813186E+01 -.24000157E+02 -.17225037E+02 0.30995461E+02 0.51099893E-03 0.0000E+00 0.9000E+01
       11  1    4    4    0    0 0.26463458E+03 -.50538728E+02 -.37278350E+03 0.45994909E+03 0.51099893E-03 0.0000E+00 0.9000E+01
      -24  1    3    3    0    0 -.30204168E+03 0.23104484E+02 0.18802796E+03 0.36549244E+03 0.80419002E+02 0.0000E+00 0.9000E+01
#aMCatNLO 1  0  0  2  1 0.10812658D+04 0.00000000D+00  -5  7  0 0.00000000D+00 0.00000000D+00 0.00000000D+00 0.00000000D+00 0.00000000D+00
  <mgrwgt>
 0.1346028141D-03    3    2    0
 0.479467660191926D+03 0.000000000000000D+00 0.000000000000000D+00 0.479467660191926D+03
 0.479467660191926D+03 0.000000000000000D+00 0.000000000000000D+00 -.479467660191926D+03
 0.123453036050625D+03 0.280257794890623D+02 0.514344008729457D+02 0.730923679095016D+02
 0.287176255457418D+02 0.938131856484624D+01 -.240001571499263D+02 -.126761719674813D+02
 0.408190745456666D+03 0.264634577837731D+03 -.505387281959273D+02 -.306649738042367D+03
 0.398573913330819D+03 -.302041675891640D+03 0.231044844729080D+02 0.246233542100347D+03
 0.000000000000000D+00 -.000000000000000D+00 0.000000000000000D+00 0.000000000000000D+00
 0.168551818070039D+04 0.000000000000000D+00 0.000000000000000D+00 0.168551818070039D+04
 0.102616009367442D+04 0.000000000000000D+00 0.000000000000000D+00 -.102616009367442D+04
 0.153169695902594D+03 0.931210408324826D+02 -.545867868277634D+02 0.730923679095016D+02
 0.718775485414857D+02 0.330535204148459D+02 -.625552670585766D+02 -.126761719674813D+02
 0.819884361010040D+03 0.553626987970961D+03 -.521223044173597D+03 -.306649738042367D+03
 0.400299379271855D+03 -.114049657321582D+03 -.283079662817038D+03 0.246233542100347D+03
 0.126644728964883D+04 -.565751891896708D+03 0.921444760876975D+03 0.659358087025971D+03
0.103583244067D-03 0.000000000000D+00 0.000000000000D+00 0.108179999765D-04 0.000000000000D+00  7 -3 3 24 -11 11 -24 21 0 0.63321259D-01 0.85929520D-01 0.12534864D+06 0.12534864D+06 0.12534864D+06 0.11137580D+01  1  2  2  2  7  2        3 0.132397195067D-03 0.100000000000D+01
-.511119923003D-05 0.000000000000D+00 -.397786931311D-06 0.108179999765D-04 0.000000000000D+00  7 -3 3 24 -11 11 -24 21 2 0.63321259D-01 0.85929520D-01 0.12534864D+06 0.12534864D+06 0.12534864D+06 0.11137580D+01  1  2  3  2  7  2        3 -.810389464960D-05 0.100000000000D+01
0.650230297629D-05 0.000000000000D+00 0.000000000000D+00 0.108179999765D-04 0.000000000000D+00  7 -3 3 24 -11 11 -24 21 2 0.63321259D-01 0.85929520D-01 0.12534864D+06 0.12534864D+06 0.12534864D+06 0.11137580D+01  1  2 15  2  7  2        3 0.103095136636D-04 0.100000000000D+01
  </mgrwgt>
  </event>
  <event>
  8     66 0.29788925E-05 0.39632673E+03 0.75467711E-02 0.94658971E-01
       -1 -1    0    0    0  501 0.00000000E+00 0.00000000E+00 0.14530648E+03 0.14530683E+03 0.32000000E+00 0.0000E+00 0.9000E+01
        1 -1    0    0  501    0 0.00000000E+00 0.00000000E+00 -.13198475E+04 0.13198476E+04 0.32000000E+00 0.0000E+00 0.9000E+01
       25  2    1    2    0    0 -.27657731E+03 -.22385496E+03 -.86964650E+03 0.98758773E+03 0.30403690E+03 0.0000E+00 0.0000E+00
       23  2    1    2    0    0 0.27657731E+03 0.22385496E+03 -.30489455E+03 0.47756666E+03 0.92212680E+02 0.0000E+00 0.0000E+00
       24  1    3    3    0    0 -.48166239E+02 -.14623904E+03 -.16952921E+03 0.24272044E+03 0.80419002E+02 0.0000E+00 0.9000E+01
      -11  1    4    4    0    0 0.84560062E+02 0.11868590E+03 -.15172310E+03 0.21037263E+03 0.51099893E-03 0.0000E+00 0.9000E+01
       11  1    4    4    0    0 0.19201725E+03 0.10516906E+03 -.15317145E+03 0.26719403E+03 0.51099893E-03 0.0000E+00 0.9000E+01
      -24  1    3    3    0    0 -.22841107E+03 -.77615926E+02 -.70011728E+03 0.74486729E+03 0.80419002E+02 0.0000E+00 0.9000E+01
#aMCatNLO 1  0  0  2  1 0.19062455D+03 0.00000000D+00  -5  7  0 0.00000000D+00 0.00000000D+00 0.00000000D+00 0.00000000D+00 0.00000000D+00
  <mgrwgt>
 0.4423679485D-03    3    2    0
 0.437929994243018D+03 0.000000000000000D+00 0.000000000000000D+00 0.437929994243018D+03
 0.437929994243018D+03 0.000000000000000D+00 0.000000000000000D+00 -.437929994243018D+03
 0.178685979761651D+03 -.481662390333606D+02 -.146239036509227D+03 0.419001315898233D+02
 0.148452245394863D+03 0.845600621721469D+02 0.118685898484361D+03 0.283076411800614D+02
 0.241561836707822D+03 0.192017247876454D+03 0.105169063838336D+03 0.102083130256556D+03
 0.307159926621700D+03 -.228411071015240D+03 -.776159258134704D+02 -.172290903026441D+03
 0.000000000000000D+00 -.000000000000000D+00 0.000000000000000D+00 0.000000000000000D+00
 0.138357847165068D+04 0.000000000000000D+00 0.000000000000000D+00 0.138357847165068D+04
 0.457893854927619D+03 0.000000000000000D+00 0.000000000000000D+00 -.457893854927619D+03
 0.172484152992184D+03 -.103937389100600D+02 -.146355444870649D+03 0.419001315898233D+02
 0.170251724085320D+03 0.118840442545284D+03 0.118580252236559D+03 0.283076411800614D+02
 0.288937255265759D+03 0.249078698005613D+03 0.104993210244102D+03 0.102083130256556D+03
 0.264690878046432D+03 -.166901755230182D+03 -.778054869661434D+02 -.172290903026441D+03
 0.945108316188602D+03 -.190623646410655D+03 0.587469356131650D+00 0.925684616723058D+03
0.250216874654D-04 0.000000000000D+00 0.000000000000D+00 0.223262657700D-07 0.000000000000D+00  7 -1 1 24 -11 11 -24 21 0 0.22354873D-01 0.20305350D+00 0.15707488D+06 0.15707488D+06 0.15707488D+06 0.11059759D+01  1  2  2  2  7  2        1 0.436760739708D-03 0.100000000000D+01
-.137325298288D-05 0.000000000000D+00 -.960898682286D-07 0.223262657700D-07 0.000000000000D+00  7 -1 1 24 -11 11 -24 21 2 0.22354873D-01 0.20305350D+00 0.15707488D+06 0.15707488D+06 0.15707488D+06 0.11059759D+01  1  2  3  2  7  2        1 -.293203288366D-04 0.100000000000D+01
0.163587337098D-05 0.000000000000D+00 0.000000000000D+00 0.223262657700D-07 0.000000000000D+00  7 -1 1 24 -11 11 -24 21 2 0.22354873D-01 0.20305350D+00 0.15707488D+06 0.15707488D+06 0.15707488D+06 0.11059759D+01  1  2 15  2  7  2        1 0.349275375843D-04 0.100000000000D+01
  </mgrwgt>
  </event>
  <event>
  8     66 0.29788925E-05 0.24570041E+03 0.75467711E-02 0.92710377E-01
       -1 -1    0    0    0  501 0.00000000E+00 0.00000000E+00 0.63604124E+03 0.63604132E+03 0.32000000E+00 0.0000E+00 0.9000E+01
        1 -1    0    0  501    0 0.00000000E+00 0.00000000E+00 -.58806180E+03 0.58806188E+03 0.32000000E+00 0.0000E+00 0.9000E+01
       25  2    1    2    0    0 0.48595547E+03 0.27123932E+03 -.10368288E+03 0.64037134E+03 0.29933563E+03 0.0000E+00 0.0000E+00
       23  2    1    2    0    0 -.48595547E+03 -.27123932E+03 0.15166233E+03 0.58373186E+03 0.89542929E+02 0.0000E+00 0.0000E+00
       24  1    3    3    0    0 0.26117128E+03 0.15819292E+03 0.71059790E+02 0.32365437E+03 0.80419002E+02 0.0000E+00 0.9000E+01
      -13  1    4    4    0    0 -.32659310E+03 -.20423115E+03 0.14217852E+03 0.41059488E+03 0.10565837E+00 0.0000E+00 0.9000E+01
       13  1    4    4    0    0 -.15936237E+03 -.67008176E+02 0.94838118E+01 0.17313698E+03 0.10565837E+00 0.0000E+00 0.9000E+01
      -24  1    3    3    0    0 0.22478419E+03 0.11304640E+03 -.17474267E+03 0.31671697E+03 0.80419002E+02 0.0000E+00 0.9000E+01
#aMCatNLO 1  0  0  1  2 0.47714427D+02 0.00000000D+00  -5  7  0 0.00000000D+00 0.00000000D+00 0.00000000D+00 0.00000000D+00 0.00000000D+00
  <mgrwgt>
 0.8138631862D-03    9    2    0
 0.611581274133454D+03 0.000000000000000D+00 0.000000000000000D+00 0.611581274133454D+03
 0.611581274133454D+03 0.000000000000000D+00 0.000000000000000D+00 -.611581274133454D+03
 0.321115897138898D+03 0.261171284214844D+03 0.158192922476426D+03 0.584188584353148D+02
 0.405333911298615D+03 -.326593335050968D+03 -.204231339052632D+03 0.126182143339257D+03
 0.172897796840054D+03 -.159362137106743D+03 -.670079850533711D+02 0.269950884483458D+01
 0.323814942989341D+03 0.224784187942867D+03 0.113046401629577D+03 -.187300510619406D+03
 0.000000000000000D+00 -.000000000000000D+00 -.000000000000000D+00 0.000000000000000D+00
 0.639122855756760D+03 0.000000000000000D+00 0.000000000000000D+00 0.639122855756760D+03
 0.633067159240639D+03 0.000000000000000D+00 0.000000000000000D+00 -.633067159240639D+03
 0.333194017144519D+03 0.272763922334862D+03 0.163517940172165D+03 0.584188584353148D+02
 0.390739570210152D+03 -.312489022115131D+03 -.197752596665264D+03 0.126182143339257D+03
 0.166289112985972D+03 -.153352643723219D+03 -.642475556948084D+02 0.269950884483458D+01
 0.333870141752584D+03 0.236436625141066D+03 0.118398887719154D+03 -.187300510619406D+03
 0.480971729041714D+02 -.433588816375776D+02 -.199166755312460D+02 0.605569651612083D+01
0.791948091339D-04 0.000000000000D+00 0.000000000000D+00 0.165539369529D-05 0.000000000000D+00  7 -1 1 24 -13 13 -24 21 0 0.97852511D-01 0.90471058D-01 0.32374728D+06 0.32374728D+06 0.32374728D+06 0.10821126D+01  1  2  2  1  7  1       -1 0.354053929111D-03 0.100000000000D+01
-.437183480657D-05 0.000000000000D+00 -.304128919546D-06 0.165539369529D-05 0.000000000000D+00  7 -1 1 24 -13 13 -24 21 2 0.97852511D-01 0.90471058D-01 0.32374728D+06 0.32374728D+06 0.32374728D+06 0.10821126D+01  1  2  3  1  7  1       -1 -.228866020761D-04 0.100000000000D+01
0.500104706614D-05 0.000000000000D+00 0.000000000000D+00 0.165539369529D-05 0.000000000000D+00  7 -1 1 24 -13 13 -24 21 2 0.97852511D-01 0.90471058D-01 0.32374728D+06 0.32374728D+06 0.32374728D+06 0.10821126D+01  1  2 15  1  7  1       -1 0.261805349998D-04 0.100000000000D+01
0.177672292899D-03 0.000000000000D+00 0.000000000000D+00 0.165539369529D-05 0.000000000000D+00  7 -1 1 24 -13 13 -24 21 2 0.10390958D+00 0.90471058D-01 0.35295626D+06 0.35295626D+06 0.35295626D+06 0.10793669D+01  1  2 12  1  7  1       -1 0.805263845674D-03 0.100000000000D+01
-.148936192374D-03 0.000000000000D+00 0.000000000000D+00 0.165539369529D-05 0.000000000000D+00  7 -1 1 24 -13 13 -24 21 2 0.97852511D-01 0.90471058D-01 0.32374728D+06 0.32374728D+06 0.32374728D+06 0.10821126D+01  1  2  4  1  7  1       -1 -.779682563595D-03 0.100000000000D+01
-.767035175356D-03 0.000000000000D+00 -.137627445993D-03 0.165539369529D-05 0.000000000000D+00  7 -1 1 24 -13 13 -24 21 2 0.10510621D+00 0.90471058D-01 0.32374728D+06 0.32374728D+06 0.32374728D+06 0.10821126D+01  1  2  5  1  7  1       -1 -.341593554062D-02 0.100000000000D+01
0.775245037563D-03 0.000000000000D+00 0.137276302549D-03 0.165539369529D-05 0.000000000000D+00  7 -1 1 24 -13 13 -24 21 2 0.97852511D-01 0.90471058D-01 0.32374728D+06 0.32374728D+06 0.32374728D+06 0.10821126D+01  1  2  6  1  7  1       -1 0.405841608186D-02 0.100000000000D+01
0.202391794395D-05 0.000000000000D+00 0.000000000000D+00 0.165539369529D-05 0.000000000000D+00  7 21 1 24 -13 13 -24 1 2 0.10390958D+00 0.90471058D-01 0.35295626D+06 0.35295626D+06 0.35295626D+06 0.10793669D+01  1  2 12  3  7  1       -1 0.626656489703D-04 0.100000000000D+01
-.902654548478D-05 0.000000000000D+00 -.166284465480D-05 0.165539369529D-05 0.000000000000D+00  7 21 1 24 -13 13 -24 1 2 0.10510621D+00 0.90471058D-01 0.32374728D+06 0.32374728D+06 0.32374728D+06 0.10821126D+01  1  2  5  3  7  1       -1 -.274212148108D-03 0.100000000000D+01
  </mgrwgt>
  </event>
  <event>
  8     66 0.29788925E-05 0.35530220E+03 0.75467711E-02 0.92560388E-01
       -1 -1    0    0    0  501 0.00000000E+00 0.00000000E+00 0.26348639E+03 0.26348659E+03 0.32000000E+00 0.0000E+00 0.9000E+01
        1 -1    0    0  501    0 0.00000000E+00 0.00000000E+00 -.69553776E+03 0.69553784E+03 0.32000000E+00 0.0000E+00 0.9000E+01
       25  2    1    2    0    0 0.16666727E+01 -.33054568E+03 -.52448055E+02 0.44734987E+03 0.29682973E+03 0.0000E+00 0.0000E+00
       23  2    1    2    0    0 -.16666727E+01 0.33054568E+03 -.37960332E+03 0.51167455E+03 0.91918158E+02 0.0000E+00 0.0000E+00
       24  1    3    3    0    0 0.12714650E+02 -.15564577E+03 -.15024714E+03 0.23114647E+03 0.80419002E+02 0.0000E+00 0.9000E+01
      -13  1    4    4    0    0 -.25152805E+02 0.24260289E+02 -.27971487E+02 0.44762043E+02 0.10565837E+00 0.0000E+00 0.9000E+01
       13  1    4    4    0    0 0.23486133E+02 0.30628539E+03 -.35163183E+03 0.46691251E+03 0.10565837E+00 0.0000E+00 0.9000E+01
      -24  1    3    3    0    0 -.11047977E+02 -.17489990E+03 0.97799090E+02 0.21620340E+03 0.80419002E+02 0.0000E+00 0.9000E+01
#aMCatNLO 1  0  0  2  2 0.41839434D+03 0.00000000D+00  -5  7  0 0.00000000D+00 0.00000000D+00 0.00000000D+00 0.00000000D+00 0.00000000D+00
  <mgrwgt>
 0.2319632941D-02    3    2    0
 0.428094457121336D+03 0.000000000000000D+00 0.000000000000000D+00 0.428094457121336D+03
 0.428094457121336D+03 0.000000000000000D+00 0.000000000000000D+00 -.428094457121336D+03
 0.183091162267726D+03 0.127146495805023D+02 -.155645774199509D+03 -.516516060355994D+02
 0.360229176678002D+02 -.251528692823385D+02 0.242599164369660D+02 -.874300970136288D+01
 0.345552051847374D+03 0.234861966012001D+02 0.306285759546828D+03 -.158251864456512D+03
 0.291522782459772D+03 -.110479768993639D+02 -.174899901784285D+03 0.218646480193474D+03
 0.000000000000000D+00 -.000000000000000D+00 -.000000000000000D+00 0.000000000000000D+00
 0.103588990689792D+04 0.000000000000000D+00 0.000000000000000D+00 0.103588990689792D+04
 0.554705639487721D+03 0.000000000000000D+00 0.000000000000000D+00 -.554705639487721D+03
 0.140983551006582D+03 0.501338808531545D+02 -.907075040148265D+02 -.516516060355994D+02
 0.442290403668294D+02 -.158865906904659D+02 0.403408481488193D+02 -.874300970136288D+01
 0.520017689209418D+03 0.123429058529458D+03 0.479729102720767D+03 -.158251864456512D+03
 0.247719498743348D+03 0.512155407582224D+02 -.668462353998529D+02 0.218646480193474D+03
 0.637645767059467D+03 -.208891889450369D+03 -.362516211454907D+03 0.481184267410201D+03
0.116535378808D-03 0.000000000000D+00 0.000000000000D+00 0.121458996487D-06 0.000000000000D+00  7 -1 1 24 -13 13 -24 21 0 0.40536389D-01 0.10700583D+00 0.12623965D+06 0.12623965D+06 0.12623965D+06 0.11135112D+01  1  2  2  2  7  2        1 0.228978721374D-02 0.100000000000D+01
-.620075973476D-05 0.000000000000D+00 -.447526539092D-06 0.121458996487D-06 0.000000000000D+00  7 -1 1 24 -13 13 -24 21 2 0.40536389D-01 0.10700583D+00 0.12623965D+06 0.12623965D+06 0.12623965D+06 0.11135112D+01  1  2  3  2  7  2        1 -.151067618923D-03 0.100000000000D+01
0.742581499511D-05 0.000000000000D+00 0.000000000000D+00 0.121458996487D-06 0.000000000000D+00  7 -1 1 24 -13 13 -24 21 2 0.40536389D-01 0.10700583D+00 0.12623965D+06 0.12623965D+06 0.12623965D+06 0.11135112D+01  1  2 15  2  7  2        1 0.180913345761D-03 0.100000000000D+01
  </mgrwgt>
  </event>
  <event>
  8     66 0.29788925E-05 0.24362288E+03 0.75467711E-02 0.91400378E-01
       -1 -1    0    0    0  501 0.00000000E+00 0.00000000E+00 0.30558531E+03 0.30558548E+03 0.32000000E+00 0.0000E+00 0.9000E+01
        1 -1    0    0  501    0 0.00000000E+00 0.00000000E+00 -.13838698E+04 0.13838699E+04 0.32000000E+00 0.0000E+00 0.9000E+01
       25  2    1    2    0    0 0.19074134E+03 -.51095062E+03 -.20438740E+03 0.65533394E+03 0.30039236E+03 0.0000E+00 0.0000E+00
       23  2    1    2    0    0 -.19074134E+03 0.51095062E+03 -.87389711E+03 0.10341214E+04 0.90874257E+02 0.0000E+00 0.0000E+00
       24  1    3    3    0    0 0.80404001E+02 -.10732524E+03 0.43597560E+02 0.16233137E+03 0.80419002E+02 0.0000E+00 0.9000E+01
      -13  1    4    4    0    0 -.52479030E+02 0.14541524E+03 -.32957980E+03 0.36403639E+03 0.10565837E+00 0.0000E+00 0.9000E+01
       13  1    4    4    0    0 -.13826231E+03 0.36553537E+03 -.54431731E+03 0.67008501E+03 0.10565837E+00 0.0000E+00 0.9000E+01
      -24  1    3    3    0    0 0.11033734E+03 -.40362538E+03 -.24798496E+03 0.49300257E+03 0.80419002E+02 0.0000E+00 0.9000E+01
#aMCatNLO 1  0  0  2  1 0.19955848D+03 0.00000000D+00  -5  7  0 0.00000000D+00 0.00000000D+00 0.00000000D+00 0.00000000D+00 0.00000000D+00
  <mgrwgt>
 0.6906501978D-03    7    2    0
 0.650300287702330D+03 0.000000000000000D+00 0.000000000000000D+00 0.650300287702330D+03
 0.650300287702330D+03 0.000000000000000D+00 0.000000000000000D+00 -.650300287702330D+03
 0.247010631052514D+03 0.804040006940622D+02 -.107325236094346D+03 0.191215915311129D+03
 0.199632428496909D+03 -.524789138771074D+02 0.145414945864110D+03 -.126307417142426D+03
 0.419152635228012D+03 -.138262426327106D+03 0.365535669446132D+03 -.151512730314308D+03
 0.434804880627224D+03 0.110337339510151D+03 -.403625379215896D+03 0.866042321456047D+02
 0.000000000000000D+00 -.000000000000000D+00 0.000000000000000D+00 -.000000000000000D+00
 0.670916631808395D+03 0.000000000000000D+00 0.000000000000000D+00 0.670916631808395D+03
 0.142339375107047D+04 0.000000000000000D+00 0.000000000000000D+00 -.142339375107047D+04
 0.268858505605009D+03 0.898952447534238D+02 -.145509445687342D+03 0.191215915311129D+03
 0.178373357276400D+03 -.455241555601602D+02 0.117435268217848D+03 -.126307417142426D+03
 0.364510518393997D+03 -.123844160680224D+03 0.307529566770375D+03 -.151512730314308D+03
 0.504078823313203D+03 0.127611438199586D+03 -.473120779477668D+03 0.866042321456047D+02
 0.778489178290252D+03 -.481383667126256D+02 0.193665390176787D+03 -.752477119262072D+03
0.161930285839D-03 0.000000000000D+00 0.000000000000D+00 0.924268703331D-05 0.000000000000D+00  7 -1 1 24 -13 13 -24 21 0 0.47013141D-01 0.21290306D+00 0.31801999D+06 0.31801999D+06 0.31801999D+06 0.10826826D+01  1  2  2  2  7  2        1 0.701706647009D-03 0.100000000000D+01
-.877401928704D-05 0.000000000000D+00 -.621854934846D-06 0.924268703331D-05 0.000000000000D+00  7 -1 1 24 -13 13 -24 21 2 0.47013141D-01 0.21290306D+00 0.31801999D+06 0.31801999D+06 0.31801999D+06 0.10826826D+01  1  2  3  2  7  2        1 -.445685374384D-04 0.100000000000D+01
0.102950300570D-04 0.000000000000D+00 0.000000000000D+00 0.924268703331D-05 0.000000000000D+00  7 -1 1 24 -13 13 -24 21 2 0.47013141D-01 0.21290306D+00 0.31801999D+06 0.31801999D+06 0.31801999D+06 0.10826826D+01  1  2 15  2  7  2        1 0.522946687846D-04 0.100000000000D+01
0.532736496647D-03 0.000000000000D+00 0.000000000000D+00 0.924268703331D-05 0.000000000000D+00  7 -1 1 24 -13 13 -24 21 2 0.47013141D-01 0.46523100D+00 0.45065900D+06 0.45065900D+06 0.45065900D+06 0.10717141D+01  1  2 12  2  7  2        1 0.192349882412D-03 0.100000000000D+01
-.579309819031D-03 0.000000000000D+00 -.426964300391D-04 0.924268703331D-05 0.000000000000D+00  7 -1 1 24 -13 13 -24 21 2 0.47013141D-01 0.46866482D+00 0.31801999D+06 0.31801999D+06 0.31801999D+06 0.10826826D+01  1  2  5  2  7  2        1 -.210981805902D-03 0.100000000000D+01
0.451169221403D-04 0.000000000000D+00 0.000000000000D+00 0.924268703331D-05 0.000000000000D+00  7 -1 21 24 -13 13 -24 -1 2 0.47013141D-01 0.46523100D+00 0.45065900D+06 0.45065900D+06 0.45065900D+06 0.10717141D+01  1  2 12  4  7  2        1 0.345104023531D-05 0.100000000000D+01
-.468579520718D-04 0.000000000000D+00 -.365177206710D-05 0.924268703331D-05 0.000000000000D+00  7 -1 21 24 -13 13 -24 -1 2 0.47013141D-01 0.46866482D+00 0.31801999D+06 0.31801999D+06 0.31801999D+06 0.10826826D+01  1  2  5  4  7  2        1 -.360169733118D-05 0.100000000000D+01
  </mgrwgt>
  </event>
  <event>
  8     66 0.29788925E-05 0.25661613E+03 0.75467711E-02 0.95330731E-01
       -1 -1    0    0    0  501 0.00000000E+00 0.00000000E+00 0.64115979E+02 0.64116777E+02 0.32000000E+00 0.0000E+00 0.9000E+01
        1 -1    0    0  501    0 0.00000000E+00 0.00000000E+00 -.10862633E+04 0.10862633E+04 0.32000000E+00 0.0000E+00 0.9000E+01
       25  2    1    2    0    0 -.12426327E+03 0.10483862E+03 -.69826919E+03 0.77715383E+03 0.29992620E+03 0.0000E+00 0.0000E+00
       23  2    1    2    0    0 0.12426327E+03 -.10483862E+03 -.32387810E+03 0.37322626E+03 0.89265447E+02 0.0000E+00 0.0000E+00
       24  1    3    3    0    0 -.15464685E+02 0.16687963E+03 -.46096001E+03 0.49703049E+03 0.80419002E+02 0.0000E+00 0.9000E+01
      -11  1    4    4    0    0 0.12275843E+02 0.11642538E+02 -.72101496E+02 0.74059913E+02 0.51099893E-03 0.0000E+00 0.9000E+01
       11  1    4    4    0    0 0.11198743E+03 -.11648116E+03 -.25177661E+03 0.29916635E+03 0.51099893E-03 0.0000E+00 0.9000E+01
      -24  1    3    3    0    0 -.10879859E+03 -.62041016E+02 -.23730918E+03 0.28012334E+03 0.80419002E+02 0.0000E+00 0.9000E+01
#aMCatNLO 1  0  0  2  2 0.33380324D+03 0.00000000D+00  -5  7  0 0.00000000D+00 0.00000000D+00 0.00000000D+00 0.00000000D+00 0.00000000D+00
  <mgrwgt>
 0.1129345837D-02    3    2    0
 0.263907785629492D+03 0.000000000000000D+00 0.000000000000000D+00 0.263907785629492D+03
 0.263907785629492D+03 0.000000000000000D+00 0.000000000000000D+00 -.263907785629492D+03
 0.190606285092009D+03 -.154646854888999D+02 0.166879634403874D+03 -.421375258666689D+02
 0.217854524362461D+02 0.122758428550799D+02 0.116425380405841D+02 -.137244645805539D+02
 0.164455618710562D+03 0.111987432070953D+03 -.116481156061245D+03 0.306040171589173D+02
 0.150968215020167D+03 -.108798589437133D+03 -.620410163832130D+02 0.252579732883055D+02
 0.000000000000000D+00 0.000000000000000D+00 0.000000000000000D+00 0.000000000000000D+00
 0.915259569072354D+03 0.000000000000000D+00 0.000000000000000D+00 0.915259569072354D+03
 0.358451079789847D+03 0.000000000000000D+00 0.000000000000000D+00 -.358451079789847D+03
 0.160551096960889D+03 -.897357307661516D+02 0.973723077608552D+02 -.421375258666689D+02
 0.150769236795264D+02 0.447931814722336D+01 0.434607967613809D+01 -.137244645805539D+02
 0.193208943115737D+03 0.363400949420189D+02 -.187276499682266D+03 0.306040171589173D+02
 0.255673949288535D+03 -.194804865086101D+03 -.142530879863205D+03 0.252579732883055D+02
 0.649199735817514D+03 0.243721182763010D+03 0.228088992108478D+03 0.556808489282507D+03
0.119400300499D-04 0.000000000000D+00 0.000000000000D+00 0.316693696551D-06 0.000000000000D+00  7 -1 1 24 -11 11 -24 21 0 0.98640618D-02 0.16711749D+00 0.65851840D+05 0.65851840D+05 0.65851840D+05 0.11369219D+01  1  2  2  2  7  2        1 0.111544745299D-02 0.100000000000D+01
-.662701859868D-06 0.000000000000D+00 -.458528592737D-07 0.316693696551D-06 0.000000000000D+00  7 -1 1 24 -11 11 -24 21 2 0.98640618D-02 0.16711749D+00 0.65851840D+05 0.65851840D+05 0.65851840D+05 0.11369219D+01  1  2  3  2  7  2        1 -.800245290874D-04 0.100000000000D+01
0.777797634146D-06 0.000000000000D+00 0.000000000000D+00 0.316693696551D-06 0.000000000000D+00  7 -1 1 24 -11 11 -24 21 2 0.98640618D-02 0.16711749D+00 0.65851840D+05 0.65851840D+05 0.65851840D+05 0.11369219D+01  1  2 15  2  7  2        1 0.939229134051D-04 0.100000000000D+01
  </mgrwgt>
  </event>
  <event>
  8     66 0.29788925E-05 0.29854770E+03 0.75467711E-02 0.96265055E-01
       -1 -1    0    0    0  501 0.00000000E+00 0.00000000E+00 0.37157444E+03 0.37157458E+03 0.32000000E+00 0.0000E+00 0.9000E+01
        1 -1    0    0  501    0 0.00000000E+00 0.00000000E+00 -.53634372E+03 0.53634381E+03 0.32000000E+00 0.0000E+00 0.9000E+01
       25  2    1    2    0    0 -.34724857E+03 -.15253745E+03 -.45861641E+01 0.48389599E+03 0.30047471E+03 0.0000E+00 0.0000E+00
       23  2    1    2    0    0 0.34724857E+03 0.15253745E+03 -.16018311E+03 0.42402240E+03 0.10142547E+03 0.0000E+00 0.0000E+00
       24  1    3    3    0    0 -.21858646E+03 -.18758566E+03 -.81853736E+02 0.31005753E+03 0.80419002E+02 0.0000E+00 0.9000E+01
      -13  1    4    4    0    0 0.18875830E+01 0.22511457E+02 -.16653746E+02 0.28065763E+02 0.10565837E+00 0.0000E+00 0.9000E+01
       13  1    4    4    0    0 0.34536099E+03 0.13002599E+03 -.14352936E+03 0.39595664E+03 0.10565837E+00 0.0000E+00 0.9000E+01
      -24  1    3    3    0    0 -.12866211E+03 0.35048218E+02 0.77267572E+02 0.17383846E+03 0.80419002E+02 0.0000E+00 0.9000E+01
#aMCatNLO 1  0  0  1  2 0.20985923D+02 0.00000000D+00  -5  7  0 0.00000000D+00 0.00000000D+00 0.00000000D+00 0.00000000D+00 0.00000000D+00
  <mgrwgt>
 0.1141597886D-02    9    2    0
 0.446421014506824D+03 0.000000000000000D+00 0.000000000000000D+00 0.446421014506824D+03
 0.446421014506824D+03 0.000000000000000D+00 0.000000000000000D+00 -.446421014506824D+03
 0.300187431516685D+03 -.218586462461518D+03 -.187585666247202D+03 -.260164243001695D+02
 0.254659302848154D+02 0.188721854179411D+01 0.225113352195427D+02 -.117555007583668D+02
 0.376155481894869D+03 0.345361356290359D+03 0.130026113906172D+03 -.728813408445823D+02
 0.191033185317278D+03 -.128662112370635D+03 0.350482171214867D+02 0.110653265903119D+03
 0.000000000000000D+00 0.000000000000000D+00 0.000000000000000D+00 0.000000000000000D+00
 0.457193709328112D+03 0.000000000000000D+00 0.000000000000000D+00 0.457193709328112D+03
 0.456883139864389D+03 0.000000000000000D+00 0.000000000000000D+00 -.456883139864389D+03
 0.306301163948901D+03 -.221294749301406D+03 -.194177667820846D+03 -.260164243001695D+02
 0.249666820119840D+02 0.166201071232172D+01 0.219631767510916D+02 -.117555007583668D+02
 0.370347581482018D+03 0.342027832069796D+03 0.121912277297699D+03 -.728813408445823D+02
 0.191473200713384D+03 -.130370202216355D+03 0.308907066299541D+02 0.110653265903119D+03
 0.209882210362140D+02 0.797510873564198D+01 0.194115071421017D+02 0.310569463722783D+00
0.351222320757D-04 0.000000000000D+00 0.000000000000D+00 0.521441396287D-07 0.000000000000D+00  7 -1 1 24 -13 13 -24 21 0 0.57165317D-01 0.82514436D-01 0.17909751D+06 0.17909751D+06 0.17909751D+06 0.11015264D+01  1  2  2  1  7  1       -1 0.538555765369D-03 0.100000000000D+01
-.194446504983D-05 0.000000000000D+00 -.134878619067D-06 0.521441396287D-07 0.000000000000D+00  7 -1 1 24 -13 13 -24 21 2 0.57165317D-01 0.82514436D-01 0.17909751D+06 0.17909751D+06 0.17909751D+06 0.11015264D+01  1  2  3  1  7  1       -1 -.361774999684D-04 0.100000000000D+01
0.226687941420D-05 0.000000000000D+00 0.000000000000D+00 0.521441396287D-07 0.000000000000D+00  7 -1 1 24 -13 13 -24 21 2 0.57165317D-01 0.82514436D-01 0.17909751D+06 0.17909751D+06 0.17909751D+06 0.11015264D+01  1  2 15  1  7  1       -1 0.421761398811D-04 0.100000000000D+01
0.560087037498D-04 0.000000000000D+00 0.000000000000D+00 0.521441396287D-07 0.000000000000D+00  7 -1 1 24 -13 13 -24 21 2 0.59198876D-01 0.82514436D-01 0.18817108D+06 0.18817108D+06 0.18817108D+06 0.10998647D+01  1  2 12  1  7  1       -1 0.972105701421D-03 0.100000000000D+01
-.431350607389D-04 0.000000000000D+00 0.000000000000D+00 0.521441396287D-07 0.000000000000D+00  7 -1 1 24 -13 13 -24 21 2 0.57165317D-01 0.82514436D-01 0.17909751D+06 0.17909751D+06 0.17909751D+06 0.11015264D+01  1  2  4  1  7  1       -1 -.802543948351D-03 0.100000000000D+01
-.648968710849D-03 0.000000000000D+00 -.100846703951D-03 0.521441396287D-07 0.000000000000D+00  7 -1 1 24 -13 13 -24 21 2 0.59770426D-01 0.82514436D-01 0.17909751D+06 0.17909751D+06 0.17909751D+06 0.11015264D+01  1  2  5  1  7  1       -1 -.111103593476D-01 0.100000000000D+01
0.652914435719D-03 0.000000000000D+00 0.100746650138D-03 0.521441396287D-07 0.000000000000D+00  7 -1 1 24 -13 13 -24 21 2 0.57165317D-01 0.82514436D-01 0.17909751D+06 0.17909751D+06 0.17909751D+06 0.11015264D+01  1  2  6  1  7  1       -1 0.121477174299D-01 0.100000000000D+01
0.831976585174D-06 0.000000000000D+00 0.000000000000D+00 0.521441396287D-07 0.000000000000D+00  7 21 1 24 -13 13 -24 1 2 0.59198876D-01 0.82514436D-01 0.18817108D+06 0.18817108D+06 0.18817108D+06 0.10998647D+01  1  2 12  3  7  1       -1 0.123862294363D-03 0.100000000000D+01
-.500687444072D-05 0.000000000000D+00 -.789075904835D-06 0.521441396287D-07 0.000000000000D+00  7 21 1 24 -13 13 -24 1 2 0.59770426D-01 0.82514436D-01 0.17909751D+06 0.17909751D+06 0.17909751D+06 0.11015264D+01  1  2  5  3  7  1       -1 -.733738648533D-03 0.100000000000D+01
  </mgrwgt>
  </event>
  <event>
  8     66 0.29788925E-05 0.88056365E+02 0.75467711E-02 0.10043874E+00
       -1 -1    0    0    0  501 0.00000000E+00 0.00000000E+00 0.91912597E+02 0.91913154E+02 0.32000000E+00 0.0000E+00 0.9000E+01
        1 -1    0    0  501    0 0.00000000E+00 0.00000000E+00 -.64252713E+03 0.64252721E+03 0.32000000E+00 0.0000E+00 0.9000E+01
       25  2    1    2    0    0 0.98816136E+01 -.12529409E+03 -.32221380E+03 0.45824269E+03 0.30061333E+03 0.0000E+00 0.0000E+00
       23  2    1    2    0    0 -.98816136E+01 0.12529409E+03 -.22840073E+03 0.27619767E+03 0.91225019E+02 0.0000E+00 0.0000E+00
       24  1    3    3    0    0 0.14722811E+02 -.13290457E+03 -.34114314E+03 0.37513497E+03 0.80419002E+02 0.0000E+00 0.9000E+01
      -13  1    4    4    0    0 -.10983099E+02 -.12808070E+02 -.19686306E+02 0.25927532E+02 0.10565837E+00 0.0000E+00 0.9000E+01
       13  1    4    4    0    0 0.11014854E+01 0.13810216E+03 -.20871443E+03 0.25027014E+03 0.10565837E+00 0.0000E+00 0.9000E+01
      -24  1    3    3    0    0 -.48411977E+01 0.76104761E+01 0.18929347E+02 0.83107717E+02 0.80419002E+02 0.0000E+00 0.9000E+01
#aMCatNLO 1  0  0  2  1 0.18222409D+03 0.00000000D+00  -5  7  0 0.00000000D+00 0.00000000D+00 0.00000000D+00 0.00000000D+00 0.00000000D+00
  <mgrwgt>
 0.9796701829D-03    8    2    0
 0.243015577900712D+03 0.000000000000000D+00 0.000000000000000D+00 0.243015577900712D+03
 0.243015577900712D+03 0.000000000000000D+00 0.000000000000000D+00 -.243015577900712D+03
 0.180391507706908D+03 0.147228116357754D+02 -.132904573076906D+03 -.905179174041452D+02
 0.168766466178188D+02 -.109831135611273D+02 -.128082668619037D+02 -.375123393532619D+00
 0.141734493503389D+03 0.110149938694712D+01 0.138102367081486D+03 -.318620393925643D+02
 0.147028507973309D+03 -.484119746159522D+01 0.761047285732387D+01 0.122755080190242D+03
 0.000000000000000D+00 -.000000000000000D+00 0.000000000000000D+00 -.000000000000000D+00
 0.314128287128193D+03 0.000000000000000D+00 0.000000000000000D+00 0.314128287128193D+03
 0.411590874247162D+03 0.000000000000000D+00 0.000000000000000D+00 -.411590874247162D+03
 0.236950719366941D+03 0.572997264782387D+02 -.195452488928834D+03 -.905179174041452D+02
 0.196763511524469D+02 -.725400643431372D+01 -.182865378835076D+02 -.375123393532619D+00
 0.108798796700964D+03 0.266607020514437D+02 0.100554440853940D+03 -.318620393925643D+02
 0.153642437577669D+03 0.258330080557431D+02 -.374516842440577D+02 0.122755080190242D+03
 0.206650856577334D+03 -.102539430151112D+03 0.150636270202459D+03 -.974625871189693D+02
0.525500548728D-05 0.000000000000D+00 0.000000000000D+00 0.460576434803D-06 0.000000000000D+00  7 -1 1 24 -13 13 -24 21 0 0.14140449D-01 0.98850376D-01 0.38404176D+05 0.38404176D+05 0.38404176D+05 0.11575133D+01  1  2  2  2  7  2        1 0.652856563024D-03 0.100000000000D+01
-.275511455361D-06 0.000000000000D+00 -.201806047459D-07 0.460576434803D-06 0.000000000000D+00  7 -1 1 24 -13 13 -24 21 2 0.14140449D-01 0.98850376D-01 0.38404176D+05 0.38404176D+05 0.38404176D+05 0.11575133D+01  1  2  3  2  7  2        1 -.458602325619D-04 0.100000000000D+01
0.336017019113D-06 0.000000000000D+00 0.000000000000D+00 0.460576434803D-06 0.000000000000D+00  7 -1 1 24 -13 13 -24 21 2 0.14140449D-01 0.98850376D-01 0.38404176D+05 0.38404176D+05 0.38404176D+05 0.11575133D+01  1  2 15  2  7  2        1 0.559316803036D-04 0.100000000000D+01
0.174370011832D-07 0.000000000000D+00 0.000000000000D+00 0.460576434803D-06 0.000000000000D+00  7 -1 1 24 -13 13 -24 21 2 0.14140449D-01 0.17373416D+00 0.95265551D+05 0.95265551D+05 0.95265551D+05 0.11234547D+01  1  2 12  2  7  2        1 0.109416934958D-05 0.100000000000D+01
-.152529904046D-05 0.000000000000D+00 -.163055513991D-05 0.460576434803D-06 0.000000000000D+00  7 -1 1 24 -13 13 -24 21 2 0.14140449D-01 0.19753445D+00 0.38404176D+05 0.38404176D+05 0.38404176D+05 0.11575133D+01  1  2  5  2  7  2        1 -.804935137600D-04 0.100000000000D+01
0.238487860983D-05 0.000000000000D+00 0.130510260732D-05 0.460576434803D-06 0.000000000000D+00  7 -1 1 24 -13 13 -24 21 2 0.14140449D-01 0.98850376D-01 0.38404176D+05 0.38404176D+05 0.38404176D+05 0.11575133D+01  1  2  6  2  7  2        1 0.396974737530D-03 0.100000000000D+01
0.108483187678D-08 0.000000000000D+00 0.000000000000D+00 0.460576434803D-06 0.000000000000D+00  7 -1 21 24 -13 13 -24 -1 2 0.14140449D-01 0.17373416D+00 0.95265551D+05 0.95265551D+05 0.95265551D+05 0.11234547D+01  1  2 12  4  7  2        1 0.811164375506D-07 0.100000000000D+01
-.164954570107D-07 0.000000000000D+00 -.122147618436D-06 0.460576434803D-06 0.000000000000D+00  7 -1 21 24 -13 13 -24 -1 2 0.14140449D-01 0.19753445D+00 0.38404176D+05 0.38404176D+05 0.38404176D+05 0.11575133D+01  1  2  5  4  7  2        1 -.914337462281D-06 0.100000000000D+01
  </mgrwgt>
  </event>
  <event>
  8     66 0.29788925E-05 0.28427404E+03 0.75467711E-02 0.95458118E-01
       -1 -1    0    0    0  501 0.00000000E+00 0.00000000E+00 0.86970983E+02 0.86971571E+02 0.32000000E+00 0.0000E+00 0.9000E+01
        1 -1    0    0  501    0 0.00000000E+00 0.00000000E+00 -.10625111E+04 0.10625111E+04 0.32000000E+00 0.0000E+00 0.9000E+01
       25  2    1    2    0    0 -.60174645E+01 0.21819619E+03 -.54906006E+03 0.66288428E+03 0.30050429E+03 0.0000E+00 0.0000E+00
       23  2    1    2    0    0 0.60174645E+01 -.21819619E+03 -.42648005E+03 0.48659843E+03 0.85129420E+02 0.0000E+00 0.0000E+00
       24  1    3    3    0    0 0.71069664E+02 0.18367203E+02 -.63302839E+02 0.12594728E+03 0.80419002E+02 0.0000E+00 0.9000E+01
      -11  1    4    4    0    0 -.17848277E+02 -.83864276E+01 -.17695604E+02 0.26495803E+02 0.51099893E-03 0.0000E+00 0.9000E+01
       11  1    4    4    0    0 0.23865742E+02 -.20980976E+03 -.40878445E+03 0.46010263E+03 0.51099893E-03 0.0000E+00 0.9000E+01
      -24  1    3    3    0    0 -.77087129E+02 0.19982898E+03 -.48575722E+03 0.53693700E+03 0.80419002E+02 0.0000E+00 0.9000E+01
#aMCatNLO 1  0  0  1  2 0.29322163D+03 0.00000000D+00  -5  7  0 0.00000000D+00 0.00000000D+00 0.00000000D+00 0.00000000D+00 0.00000000D+00
  <mgrwgt>
 0.3553195637D-02    3    2    0
 0.303986841805612D+03 0.000000000000000D+00 0.000000000000000D+00 0.303986841805612D+03
 0.303986841805612D+03 0.000000000000000D+00 0.000000000000000D+00 -.303986841805612D+03
 0.136551567577874D+03 0.710696641447356D+02 0.183672030397658D+02 0.824066947793365D+02
 0.217010972981870D+02 -.178482774549320D+02 -.838642762582012D+01 0.905783900905874D+01
 0.213980311237089D+03 0.238657419730516D+02 -.209809759262430D+03 -.346101845623265D+02
 0.235740707498073D+03 -.770871286628552D+02 0.199828983848485D+03 -.568543492260687D+02
 0.000000000000000D+00 0.000000000000000D+00 -.000000000000000D+00 -.000000000000000D+00
 0.362058276439288D+03 0.000000000000000D+00 0.000000000000000D+00 0.362058276439288D+03
 0.121256305075021D+04 0.000000000000000D+00 0.000000000000000D+00 -.121256305075021D+04
 0.133654293434248D+03 0.274364259424604D+02 0.620695850323393D+02 0.824066947793365D+02
 0.273128891441174D+02 -.257631277756073D+02 -.459034968766296D+00 0.905783900905874D+01
 0.157825788623764D+03 -.361740516106993D+02 -.149674823097745D+03 -.346101845623265D+02
 0.356196601266148D+03 -.172674032282848D+03 0.295567360086406D+03 -.568543492260687D+02
 0.899631754721219D+03 0.207174785726694D+03 -.207503087052234D+03 -.850504774310922D+03
0.578075505637D-04 0.000000000000D+00 0.000000000000D+00 0.396549794340D-07 0.000000000000D+00  7 -1 1 24 -11 11 -24 21 0 0.13380200D-01 0.16346329D+00 0.80811729D+05 0.80811729D+05 0.80811729D+05 0.11293949D+01  1  2  2  1  7  1       -1 0.350758268021D-02 0.100000000000D+01
-.319397821913D-05 0.000000000000D+00 -.221996215242D-06 0.396549794340D-07 0.000000000000D+00  7 -1 1 24 -11 11 -24 21 2 0.13380200D-01 0.16346329D+00 0.80811729D+05 0.80811729D+05 0.80811729D+05 0.11293949D+01  1  2  3  1  7  1       -1 -.247199112992D-03 0.100000000000D+01
0.378332819406D-05 0.000000000000D+00 0.000000000000D+00 0.396549794340D-07 0.000000000000D+00  7 -1 1 24 -11 11 -24 21 2 0.13380200D-01 0.16346329D+00 0.80811729D+05 0.80811729D+05 0.80811729D+05 0.11293949D+01  1  2 15  1  7  1       -1 0.292812069953D-03 0.100000000000D+01
  </mgrwgt>
  </event>
  <event>
  8     66 0.29788925E-05 0.11575587E+03 0.75467711E-02 0.10076339E+00
       -1 -1    0    0    0  501 0.00000000E+00 0.00000000E+00 0.26535852E+02 0.26537781E+02 0.32000000E+00 0.0000E+00 0.9000E+01
        1 -1    0    0  501    0 0.00000000E+00 0.00000000E+00 -.17638957E+04 0.17638957E+04 0.32000000E+00 0.0000E+00 0.9000E+01
       25  2    1    2    0    0 0.18255500E+02 0.67641335E+02 -.10693010E+04 0.11127270E+04 0.29974678E+03 0.0000E+00 0.0000E+00
       23  2    1    2    0    0 -.18255500E+02 -.67641335E+02 -.66805876E+03 0.67770643E+03 0.89860332E+02 0.0000E+00 0.0000E+00
       24  1    3    3    0    0 -.83397329E+02 -.42263732E+02 -.62466369E+03 0.63672073E+03 0.80419002E+02 0.0000E+00 0.9000E+01
      -13  1    4    4    0    0 0.14096370E+02 -.76701298E+02 -.39823740E+03 0.40580147E+03 0.10565837E+00 0.0000E+00 0.9000E+01
       13  1    4    4    0    0 -.32351870E+02 0.90599622E+01 -.26982136E+03 0.27190496E+03 0.10565837E+00 0.0000E+00 0.9000E+01
      -24  1    3    3    0    0 0.10165283E+03 0.10990507E+03 -.44463735E+03 0.47600631E+03 0.80419002E+02 0.0000E+00 0.9000E+01
#aMCatNLO 1  0  0  2  1 0.16776925D+03 0.00000000D+00  -5  7  0 0.00000000D+00 0.00000000D+00 0.00000000D+00 0.00000000D+00 0.00000000D+00
  <mgrwgt>
 0.1161616770D-02    8    2    0
 0.216352090801190D+03 0.000000000000000D+00 0.000000000000000D+00 0.216352090801190D+03
 0.216352090801190D+03 0.000000000000000D+00 0.000000000000000D+00 -.216352090801190D+03
 0.126507908142882D+03 -.833973213424416D+02 -.422637214782633D+02 -.282081461289213D+02
 0.801446183868738D+02 0.140964308722186D+02 -.767014242083966D+02 -.184754436332658D+02
 0.417165397076554D+02 -.323519347443120D+02 0.906007461455135D+01 -.247292751907314D+02
 0.184335115364969D+03 0.101652825214535D+03 0.109905071072109D+03 0.714128649529186D+02
 0.000000000000000D+00 0.000000000000000D+00 0.000000000000000D+00 -.000000000000000D+00
 0.285938676542810D+03 0.000000000000000D+00 0.000000000000000D+00 0.285938676542810D+03
 0.362609856332843D+03 0.000000000000000D+00 0.000000000000000D+00 -.362609856332843D+03
 0.156173171115996D+03 -.903387991212354D+02 -.946892036472908D+02 -.282081461289213D+02
 0.114721990803872D+03 0.931131316617043D+01 -.112841005860809D+03 -.184754436332658D+02
 0.429064808067042D+02 -.344299260199038D+02 -.663394588620517D+01 -.247292751907314D+02
 0.150288250277910D+03 0.934358597813868D+02 0.478464736773210D+02 0.714128649529186D+02
 0.184458639871171D+03 0.220215521935820D+02 0.166317681716984D+03 -.766711797900332D+02
0.585151390219D-05 0.000000000000D+00 0.000000000000D+00 0.173256591497D-06 0.000000000000D+00  7 -1 1 24 -13 13 -24 21 0 0.40825894D-02 0.27136871D+00 0.40975007D+05 0.40975007D+05 0.40975007D+05 0.11549781D+01  1  2  2  2  7  2        1 0.720302471273D-03 0.100000000000D+01
-.323333647228D-06 0.000000000000D+00 -.224713541234D-07 0.173256591497D-06 0.000000000000D+00  7 -1 1 24 -13 13 -24 21 2 0.40825894D-02 0.27136871D+00 0.40975007D+05 0.40975007D+05 0.40975007D+05 0.11549781D+01  1  2  3  2  7  2        1 -.530939540697D-04 0.100000000000D+01
0.371335959546D-06 0.000000000000D+00 0.000000000000D+00 0.173256591497D-06 0.000000000000D+00  7 -1 1 24 -13 13 -24 21 2 0.40825894D-02 0.27136871D+00 0.40975007D+05 0.40975007D+05 0.40975007D+05 0.11549781D+01  1  2 15  2  7  2        1 0.609763151766D-04 0.100000000000D+01
0.117808479249D-06 0.000000000000D+00 0.000000000000D+00 0.173256591497D-06 0.000000000000D+00  7 -1 1 24 -13 13 -24 21 2 0.40825894D-02 0.47466834D+00 0.90570620D+05 0.90570620D+05 0.90570620D+05 0.11252689D+01  1  2 12  2  7  2        1 0.227726515999D-05 0.100000000000D+01
-.220728719276D-05 0.000000000000D+00 -.153530684283D-05 0.173256591497D-06 0.000000000000D+00  7 -1 1 24 -13 13 -24 21 2 0.40825894D-02 0.49787205D+00 0.40975007D+05 0.40975007D+05 0.40975007D+05 0.11549781D+01  1  2  5  2  7  2        1 -.356883367981D-04 0.100000000000D+01
0.284401992735D-05 0.000000000000D+00 0.129032172971D-05 0.173256591497D-06 0.000000000000D+00  7 -1 1 24 -13 13 -24 21 2 0.40825894D-02 0.27136871D+00 0.40975007D+05 0.40975007D+05 0.40975007D+05 0.11549781D+01  1  2  6  2  7  2        1 0.467010670527D-03 0.100000000000D+01
0.727687841933D-08 0.000000000000D+00 0.000000000000D+00 0.173256591497D-06 0.000000000000D+00  7 -1 21 24 -13 13 -24 -1 2 0.40825894D-02 0.47466834D+00 0.90570620D+05 0.90570620D+05 0.90570620D+05 0.11252689D+01  1  2 12  4  7  2        1 0.306242545568D-07 0.100000000000D+01
-.624329528349D-07 0.000000000000D+00 -.101788002813D-06 0.173256591497D-06 0.000000000000D+00  7 -1 21 24 -13 13 -24 -1 2 0.40825894D-02 0.49787205D+00 0.40975007D+05 0.40975007D+05 0.40975007D+05 0.11549781D+01  1  2  5  4  7  2        1 -.198285766624D-06 0.100000000000D+01
  </mgrwgt>
  </event>
  <event>
  8     66 0.29788925E-05 0.40278336E+03 0.75467711E-02 0.97057535E-01
       -1 -1    0    0    0  501 0.00000000E+00 0.00000000E+00 0.19650089E+03 0.19650115E+03 0.32000000E+00 0.0000E+00 0.9000E+01
        1 -1    0    0  501    0 0.00000000E+00 0.00000000E+00 -.93235488E+03 0.93235493E+03 0.32000000E+00 0.0000E+00 0.9000E+01
       25  2    1    2    0    0 0.86974303E+02 -.33445014E+03 -.57983348E+03 0.73861702E+03 0.29987799E+03 0.0000E+00 0.0000E+00
       23  2    1    2    0    0 -.86974303E+02 0.33445014E+03 -.15602051E+03 0.39023906E+03 0.92318479E+02 0.0000E+00 0.0000E+00
       24  1    3    3    0    0 -.96760629E+01 0.10085916E+02 -.55356650E+02 0.98625182E+02 0.80419002E+02 0.0000E+00 0.9000E+01
      -13  1    4    4    0    0 -.21476028E+02 0.24694970E+03 -.98573829E+02 0.26676241E+03 0.10565837E+00 0.0000E+00 0.9000E+01
       13  1    4    4    0    0 -.65498275E+02 0.87500443E+02 -.57446678E+02 0.12347665E+03 0.10565837E+00 0.0000E+00 0.9000E+01
      -24  1    3    3    0    0 0.96650366E+02 -.34453606E+03 -.52447683E+03 0.63999184E+03 0.80419002E+02 0.0000E+00 0.9000E+01
#aMCatNLO 1  0  0  2  1 0.58336820D+01 0.00000000D+00  -5  7  0 0.00000000D+00 0.00000000D+00 0.00000000D+00 0.00000000D+00 0.00000000D+00
  <mgrwgt>
 0.2654435052D-03    8    2    0
 0.428028901717303D+03 0.000000000000000D+00 0.000000000000000D+00 0.428028901717303D+03
 0.428028901717303D+03 0.000000000000000D+00 0.000000000000000D+00 -.428028901717303D+03
 0.824701611341883D+02 -.967606286596726D+01 0.100859158325491D+02 0.117796278532483D+02
 0.267038741282037D+03 -.214759703370055D+02 0.246949907487141D+03 0.993187557094396D+02
 0.113444243836851D+03 -.654983324961312D+02 0.875002343788687D+02 0.303854222215877D+02
 0.393104657181530D+03 0.966503656991040D+02 -.344536057698559D+03 -.141483805784276D+03
 0.000000000000000D+00 0.000000000000000D+00 0.000000000000000D+00 0.000000000000000D+00
 0.449660981640697D+03 0.000000000000000D+00 0.000000000000000D+00 0.449660981640697D+03
 0.428432323894332D+03 0.000000000000000D+00 0.000000000000000D+00 -.428432323894332D+03
 0.824707730311186D+02 -.100762479702811D+02 0.969133863096979D+01 0.117796278532483D+02
 0.265967616962570D+03 -.227691678452739D+02 0.245674831907362D+03 0.993187557094396D+02
 0.113346063182572D+03 -.660485785774403D+02 0.869576990455878D+02 0.303854222215877D+02
 0.394293227099957D+03 0.947399551266632D+02 -.346419697167933D+03 -.141483805784276D+03
 0.220156252588128D+02 0.415403926633208D+01 0.409582758401379D+01 0.212286577463644D+02
0.146581413348D-04 0.000000000000D+00 0.000000000000D+00 0.127939867839D-05 0.000000000000D+00  7 -1 1 24 -13 13 -24 21 0 0.30230930D-01 0.14343924D+00 0.16223444D+06 0.16223444D+06 0.16223444D+06 0.11048747D+01  1  2  2  2  7  2        1 0.296706517335D-03 0.100000000000D+01
-.810682047256D-06 0.000000000000D+00 -.562911223030D-07 0.127939867839D-05 0.000000000000D+00  7 -1 1 24 -13 13 -24 21 2 0.30230930D-01 0.14343924D+00 0.16223444D+06 0.16223444D+06 0.16223444D+06 0.11048747D+01  1  2  3  2  7  2        1 -.200320228081D-04 0.100000000000D+01
0.950515508696D-06 0.000000000000D+00 0.000000000000D+00 0.127939867839D-05 0.000000000000D+00  7 -1 1 24 -13 13 -24 21 2 0.30230930D-01 0.14343924D+00 0.16223444D+06 0.16223444D+06 0.16223444D+06 0.11048747D+01  1  2 15  2  7  2        1 0.234873196145D-04 0.100000000000D+01
-.179043146733D-05 0.000000000000D+00 0.000000000000D+00 0.127939867839D-05 0.000000000000D+00  7 -1 1 24 -13 13 -24 21 2 0.30230930D-01 0.14343924D+00 0.16223444D+06 0.16223444D+06 0.16223444D+06 0.11048747D+01  1  2  4  2  7  2        1 -.442417148762D-04 0.100000000000D+01
0.572401084239D-05 0.000000000000D+00 0.000000000000D+00 0.127939867839D-05 0.000000000000D+00  7 -1 1 24 -13 13 -24 21 2 0.30230930D-01 0.14987267D+00 0.16223444D+06 0.16223444D+06 0.16223444D+06 0.11048747D+01  1  2  5  2  7  2        1 0.131234366800D-03 0.100000000000D+01
-.571850596039D-05 0.000000000000D+00 0.000000000000D+00 0.127939867839D-05 0.000000000000D+00  7 -1 1 24 -13 13 -24 21 2 0.30230930D-01 0.14343924D+00 0.16223444D+06 0.16223444D+06 0.16223444D+06 0.11048747D+01  1  2  6  2  7  2        1 -.141304771969D-03 0.100000000000D+01
0.783467633052D-06 0.000000000000D+00 0.000000000000D+00 0.127939867839D-05 0.244996453440D-06  7 -1 1 24 -13 13 -24 21 2 0.31758766D-01 0.14357443D+00 0.16460000D+06 0.16460000D+06 0.16460000D+06 0.11043826D+01  1  2 11  2  7  2        1 0.177667418396D-04 0.100000000000D+01
0.544515958812D-07 0.000000000000D+00 0.000000000000D+00 0.127939867839D-05 0.448281784526D-10  7 -1 21 24 -13 13 -24 -1 2 0.31758766D-01 0.14357443D+00 0.16460000D+06 0.16460000D+06 0.16460000D+06 0.11043826D+01  1  2 11  4  7  2        1 0.182706931130D-05 0.100000000000D+01
  </mgrwgt>
  </event>
  <event>
  8     66 0.29788925E-05 0.34880395E+03 0.75467711E-02 0.97819153E-01
       -1 -1    0    0    0  501 0.00000000E+00 0.00000000E+00 0.23994790E+03 0.23994811E+03 0.32000000E+00 0.0000E+00 0.9000E+01
        1 -1    0    0  501    0 0.00000000E+00 0.00000000E+00 -.73631475E+03 0.73631482E+03 0.32000000E+00 0.0000E+00 0.9000E+01
       25  2    1    2    0    0 0.44038558E+02 -.32579364E+03 -.44849225E+03 0.63191962E+03 0.30016032E+03 0.0000E+00 0.0000E+00
       23  2    1    2    0    0 -.44038558E+02 0.32579364E+03 -.47874607E+02 0.34434331E+03 0.90550821E+02 0.0000E+00 0.0000E+00
       24  1    3    3    0    0 0.38644004E+01 -.13920540E+03 -.38187805E+03 0.41435630E+03 0.80419002E+02 0.0000E+00 0.9000E+01
      -11  1    4    4    0    0 -.46526586E+00 -.38629630E+00 0.10168265E+02 0.10186231E+02 0.51099893E-03 0.0000E+00 0.9000E+01
       11  1    4    4    0    0 -.43573293E+02 0.32617993E+03 -.58042872E+02 0.33415708E+03 0.51099893E-03 0.0000E+00 0.9000E+01
      -24  1    3    3    0    0 0.40174158E+02 -.18658823E+03 -.66614195E+02 0.21756332E+03 0.80419002E+02 0.0000E+00 0.9000E+01
#aMCatNLO 1  0  0  1  1 0.57044130D+02 0.00000000D+00  -5  7  0 0.00000000D+00 0.00000000D+00 0.00000000D+00 0.00000000D+00 0.00000000D+00
  <mgrwgt>
 0.9308322018D-03    4    2    0
 0.420330007701260D+03 0.000000000000000D+00 0.000000000000000D+00 0.420330007701260D+03
 0.420330007701260D+03 0.000000000000000D+00 0.000000000000000D+00 -.420330007701260D+03
 0.255714656206286D+03 0.386440041572310D+01 -.139205403161727D+03 -.198820752398578D+03
 0.178331664087204D+02 -.465265863653281D+00 -.386296307493332D+00 0.178229101720243D+02
 0.353787037418342D+03 -.435732926333759D+02 0.326179933513955D+03 0.129897217010856D+03
 0.213325155369170D+03 0.401741580813061D+02 -.186588234044736D+03 0.511006252156985D+02
 0.000000000000000D+00 0.000000000000000D+00 0.000000000000000D+00 -.000000000000000D+00
 0.426400607695547D+03 0.000000000000000D+00 0.000000000000000D+00 0.426400607695547D+03
 0.580682701975685D+03 0.000000000000000D+00 0.000000000000000D+00 -.580682701975685D+03
 0.265280553216220D+03 -.117698282603062D+01 -.156126484260114D+03 -.198820752398578D+03
 0.179083115421085D+02 -.811116429489664D+00 -.154712165875248D+01 0.178229101720243D+02
 0.334232890681619D+03 -.502308819408869D+02 0.303834159905805D+03 0.129897217010856D+03
 0.225171440774126D+03 0.359310684110321D+02 -.200829893719365D+03 0.511006252156985D+02
 0.164490113457159D+03 0.162879127853751D+02 0.546693397324270D+02 -.154282094280138D+03
0.460058209416D-04 0.000000000000D+00 0.000000000000D+00 0.372936204044D-05 0.000000000000D+00  7 -1 1 24 -11 11 -24 21 0 0.36915083D-01 0.11327921D+00 0.12166419D+06 0.12166419D+06 0.12166419D+06 0.11147997D+01  1  2  2  1  7  1       -1 0.975402518602D-03 0.100000000000D+01
-.244775552774D-05 0.000000000000D+00 -.176674466027D-06 0.372936204044D-05 0.000000000000D+00  7 -1 1 24 -11 11 -24 21 2 0.36915083D-01 0.11327921D+00 0.12166419D+06 0.12166419D+06 0.12166419D+06 0.11147997D+01  1  2  3  1  7  1       -1 -.644960088957D-04 0.100000000000D+01
0.293116857484D-05 0.000000000000D+00 0.000000000000D+00 0.372936204044D-05 0.000000000000D+00  7 -1 1 24 -11 11 -24 21 2 0.36915083D-01 0.11327921D+00 0.12166419D+06 0.12166419D+06 0.12166419D+06 0.11147997D+01  1  2 15  1  7  1       -1 0.772334787259D-04 0.100000000000D+01
-.217494778296D-05 0.000000000000D+00 0.000000000000D+00 0.372936204044D-05 0.000000000000D+00  7 -1 1 24 -11 11 -24 21 2 0.36915083D-01 0.11327921D+00 0.12166419D+06 0.12166419D+06 0.12166419D+06 0.11147997D+01  1  2  4  1  7  1       -1 -.573077866509D-04 0.100000000000D+01
  </mgrwgt>
  </event>
  <event>
  7     66 0.29788925E-05 0.34435050E+03 0.75467711E-02 0.88691744E-01
       -1 -1    0    0    0  501 0.00000000E+00 0.00000000E+00 0.27858410E+03 0.27858429E+03 0.32000000E+00 0.0000E+00 0.9000E+01
        1 -1    0    0  501    0 0.00000000E+00 0.00000000E+00 -.86807217E+03 0.86807223E+03 0.32000000E+00 0.0000E+00 0.9000E+01
       25  2    1    2    0    0 -.85746856E+02 0.90333678E+02 -.26828472E+03 0.42066239E+03 0.29911111E+03 0.0000E+00 0.0000E+00
       24  1    3    3    0    0 -.19796779E+02 0.74309386E+02 -.29226906E+03 0.31273346E+03 0.80419002E+02 0.0000E+00 0.9000E+01
      -11  1    1    2    0    0 -.13858445E+03 -.18294071E+03 -.40810346E+03 0.46821083E+03 0.51099893E-03 0.0000E+00 0.9000E+01
       11  1    1    2    0    0 0.22433130E+03 0.92607033E+02 0.86900114E+02 0.25778329E+03 0.51099893E-03 0.0000E+00 0.9000E+01
      -24  1    3    3    0    0 -.65950077E+02 0.16024292E+02 0.23984336E+02 0.10792893E+03 0.80419002E+02 0.0000E+00 0.9000E+01
#aMCatNLO 1  0  0  1  2 0.74018906D+03 0.00000000D+00  -5  7  0 0.00000000D+00 0.00000000D+00 0.00000000D+00 0.00000000D+00 0.00000000D+00
  <mgrwgt>
 0.2399906043D-01    3    2    0
 0.491763404915804D+03 0.000000000000000D+00 0.000000000000000D+00 0.491763404915804D+03
 0.491763404915804D+03 0.000000000000000D+00 0.000000000000000D+00 -.491763404915804D+03
 0.189429734425745D+03 -.197972341437960D+02 0.743098651939411D+02 -.153305322103806D+03
 0.301267219778455D+03 -.138583850461461D+03 -.182940912232725D+03 -.195164230164683D+03
 0.352624286190577D+03 0.224331498481315D+03 0.926063997588091D+02 0.255818921747890D+03
 0.140205569436831D+03 -.659504138760574D+02 0.160246472799752D+02 0.926506305205989D+02
 0.000000000000000D+00 0.000000000000000D+00 -.000000000000000D+00 -.000000000000000D+00
 0.791158326119712D+03 0.000000000000000D+00 0.000000000000000D+00 0.791158326119712D+03
 0.139507969953639D+04 0.000000000000000D+00 0.000000000000000D+00 -.139507969953639D+04
 0.290978561631556D+03 -.114828202625905D+03 0.203748053907641D+03 -.153305322103806D+03
 0.327795362381533D+03 -.263020557548196D+03 -.134502479569364D+02 -.195164230164683D+03
 0.397593171029634D+03 0.759287916235669D+02 0.294740271302941D+03 0.255818921747890D+03
 0.214569473174158D+03 -.136129501475707D+03 0.111613002629515D+03 0.926506305205989D+02
 0.955301457439218D+03 0.438049470026241D+03 -.596651079883160D+03 -.603921373416675D+03
0.186130365598D-02 0.000000000000D+00 0.000000000000D+00 0.775046484950D-10 0.000000000000D+00  7 -1 1 24 -11 11 -24 21 0 0.42859112D-01 0.13354958D+00 0.11857727D+06 0.11857727D+06 0.11857727D+06 0.11156995D+01  1  2  2  1  7  1       -1 0.235099178101D-01 0.100000000000D+01
-.874414642762D-04 0.000000000000D+00 -.714789613146D-05 0.775046484950D-10 0.000000000000D+00  7 -1 1 24 -11 11 -24 21 2 0.42859112D-01 0.13354958D+00 0.11857727D+06 0.11857727D+06 0.11857727D+06 0.11156995D+01  1  2  3  1  7  1       -1 -.137481977084D-02 0.100000000000D+01
0.118551976053D-03 0.000000000000D+00 0.000000000000D+00 0.775046484950D-10 0.000000000000D+00  7 -1 1 24 -11 11 -24 21 2 0.42859112D-01 0.13354958D+00 0.11857727D+06 0.11857727D+06 0.11857727D+06 0.11156995D+01  1  2 15  1  7  1       -1 0.186396238786D-02 0.100000000000D+01
  </mgrwgt>
  </event>
  <event>
  9     66 0.29788925E-05 0.23014858E+03 0.75467711E-02 0.99788337E-01
       21 -1    0    0  502  501 0.00000000E+00 0.00000000E+00 0.43671655E+03 0.43671720E+03 0.75000000E+00 0.0000E+00 0.9000E+01
        1 -1    0    0  501    0 0.00000000E+00 0.00000000E+00 -.67331819E+03 0.67331827E+03 0.32000000E+00 0.0000E+00 0.9000E+01
       25  2    1    2    0    0 0.21434092E+03 -.17161474E+03 -.28097813E+03 0.49522347E+03 0.30150277E+03 0.0000E+00 0.0000E+00
       23  2    1    2    0    0 -.73467645E+02 0.79836557E+02 -.24304513E+03 0.28182579E+03 0.92647015E+02 0.0000E+00 0.0000E+00
       24  1    3    3    0    0 0.74203246E+02 0.31168791E+02 -.18805360E+03 0.21979306E+03 0.80419002E+02 0.0000E+00 0.9000E+01
      -11  1    4    4    0    0 -.22371372E+02 0.24329062E+02 -.66897503E+01 0.33721422E+02 0.51099893E-03 0.0000E+00 0.9000E+01
       11  1    4    4    0    0 -.51096272E+02 0.55507495E+02 -.23635538E+03 0.24810437E+03 0.51099893E-03 0.0000E+00 0.9000E+01
      -24  1    3    3    0    0 0.14013768E+03 -.20278353E+03 -.92924533E+02 0.27543041E+03 0.80419002E+02 0.0000E+00 0.9000E+01
        1  1    1    2  502    0 -.14087328E+03 0.91778179E+02 0.28742163E+03 0.33298620E+03 0.32000000E+00 0.0000E+00 0.9000E+01
#aMCatNLO 2  0  0  1  2 0.16813243D+03 0.00000000D+00  -5  7  0 0.00000000D+00 0.00000000D+00 0.00000000D+00 0.00000000D+00 0.00000000D+00
  <mgrwgt>
 0.2227203081D-03    2    2    0
 0.274288467188779D+03 0.000000000000000D+00 0.000000000000000D+00 0.274288467188779D+03
 0.274288467188779D+03 0.000000000000000D+00 0.000000000000000D+00 -.274288467188779D+03
 0.117855721157368D+03 0.436057723678047D+02 0.511028791162759D+02 -.539424454153425D+02
 0.511906806402407D+02 -.337620523345565D+02 0.317500282663790D+02 0.217381073613579D+02
 0.148066875784497D+03 -.847612387601077D+02 0.774400384224745D+02 -.935006553857213D+02
 0.231463656795451D+03 0.749175187268595D+02 -.160292945805129D+03 0.125704993439706D+03
 0.000000000000000D+00 -.000000000000000D+00 0.000000000000000D+00 0.000000000000000D+00
 0.990303111949512D+03 0.000000000000000D+00 0.000000000000000D+00 0.990303111949512D+03
 0.296928813709966D+03 0.000000000000000D+00 0.000000000000000D+00 -.296928813709966D+03
 0.125915124431788D+03 0.742032457522348D+02 0.311687906205616D+02 -.539424454153425D+02
 0.395591563689375D+02 -.223713722234102D+02 0.243290617535850D+02 0.217381073613579D+02
 0.120142763440558D+03 -.510962724767021D+02 0.555074948863754D+02 -.935006553857213D+02
 0.288146990220546D+03 0.140137676223190D+03 -.202783525824650D+03 0.125704993439706D+03
 0.713467891197649D+03 -.140873277275313D+03 0.917781785641283D+02 0.693374298239547D+03
-.471078187610D-06 0.000000000000D+00 0.000000000000D+00 0.114001385083D-06 0.000000000000D+00  7 21 1 24 -11 11 -24 1 2 0.65445602D-01 0.95689079D-01 0.10552276D+06 0.10552276D+06 0.10552276D+06 0.11198112D+01  1  2 13  3  7  1       -1 -.485075238943D-04 0.100000000000D+01
0.314216188639D-05 0.000000000000D+00 0.000000000000D+00 0.114001385083D-06 0.743684800710D-11  7 21 1 24 -11 11 -24 1 2 0.67187209D-01 0.10358746D+00 0.10552276D+06 0.10552276D+06 0.10552276D+06 0.11198112D+01  1  2  1  3  7  1       -1 0.271227832011D-03 0.100000000000D+01
  </mgrwgt>
  </event>
  <event>
  8     66 0.29788925E-05 0.16600109E+03 0.75467711E-02 0.97822631E-01
       -1 -1    0    0    0  501 0.00000000E+00 0.00000000E+00 0.15014597E+03 0.15014631E+03 0.32000000E+00 0.0000E+00 0.9000E+01
        1 -1    0    0  501    0 0.00000000E+00 0.00000000E+00 -.70455191E+03 0.70455199E+03 0.32000000E+00 0.0000E+00 0.9000E+01
       25  2    1    2    0    0 -.52603524E+02 0.21123221E+03 -.18143684E+03 0.41322396E+03 0.30074663E+03 0.0000E+00 0.0000E+00
       23  2    1    2    0    0 0.52603524E+02 -.21123221E+03 -.37296911E+03 0.44147434E+03 0.91692219E+02 0.0000E+00 0.0000E+00
       24  1    3    3    0    0 0.14439677E+02 0.17989835E+03 0.44016952E+01 0.19763227E+03 0.80419002E+02 0.0000E+00 0.9000E+01
      -13  1    4    4    0    0 -.56443100E+01 -.10712413E+03 -.11504718E+03 0.15730004E+03 0.10565837E+00 0.0000E+00 0.9000E+01
       13  1    4    4    0    0 0.58247834E+02 -.10410808E+03 -.25792193E+03 0.28417430E+03 0.10565837E+00 0.0000E+00 0.9000E+01
      -24  1    3    3    0    0 -.67043202E+02 0.31333858E+02 -.18583853E+03 0.21559169E+03 0.80419002E+02 0.0000E+00 0.9000E+01
#aMCatNLO 1  0  0  2  1 0.19445977D+03 0.00000000D+00  -5  7  0 0.00000000D+00 0.00000000D+00 0.00000000D+00 0.00000000D+00 0.00000000D+00
  <mgrwgt>
 0.3207571918D-03    7    2    0
 0.325247303731191D+03 0.000000000000000D+00 0.000000000000000D+00 0.325247303731191D+03
 0.325247303731191D+03 0.000000000000000D+00 0.000000000000000D+00 -.325247303731191D+03
 0.263424609499323D+03 0.144396770986515D+02 0.179898353433725D+03 0.174222234782537D+03
 0.108626877931814D+03 -.564439407916237D+01 -.107124136914033D+03 -.170985003762279D+02
 0.153559892914442D+03 0.582479185759290D+02 -.104108074809863D+03 -.966919306501363D+02
 0.124883227116805D+03 -.670432015954181D+02 0.313338582901706D+02 -.604318037561725D+02
 0.000000000000000D+00 0.000000000000000D+00 -.000000000000000D+00 -.000000000000000D+00
 0.367002768712063D+03 0.000000000000000D+00 0.000000000000000D+00 0.367002768712063D+03
 0.682821575901340D+03 0.000000000000000D+00 0.000000000000000D+00 -.682821575901340D+03
 0.321506584387131D+03 -.227316614096136D+02 0.256961382948579D+03 0.174222234782537D+03
 0.852661320210980D+02 -.179659504992584D+02 -.815792815448974D+02 -.170985003762279D+02
 0.124677993443346D+03 0.405663950604689D+02 -.674510206594850D+02 -.966919306501363D+02
 0.147488046532044D+03 -.843519122925843D+02 0.672180028179013D+02 -.604318037561725D+02
 0.370885588229784D+03 0.844831291409875D+02 -.175149083562098D+03 -.315818807189277D+03
0.809462136344D-05 0.000000000000D+00 0.000000000000D+00 0.685385238323D-06 0.000000000000D+00  7 -1 1 24 -13 13 -24 21 0 0.23099412D-01 0.10839263D+00 0.71139242D+05 0.71139242D+05 0.71139242D+05 0.11340641D+01  1  2  2  2  7  2        1 0.403547412038D-03 0.100000000000D+01
-.428181343106D-06 0.000000000000D+00 -.310854773984D-07 0.685385238323D-06 0.000000000000D+00  7 -1 1 24 -13 13 -24 21 2 0.23099412D-01 0.10839263D+00 0.71139242D+05 0.71139242D+05 0.71139242D+05 0.11340641D+01  1  2  3  2  7  2        1 -.274537047315D-04 0.100000000000D+01
0.521902902916D-06 0.000000000000D+00 0.000000000000D+00 0.685385238323D-06 0.000000000000D+00  7 -1 1 24 -13 13 -24 21 2 0.23099412D-01 0.10839263D+00 0.71139242D+05 0.71139242D+05 0.71139242D+05 0.11340641D+01  1  2 15  2  7  2        1 0.334628503223D-04 0.100000000000D+01
0.143561479835D-05 0.000000000000D+00 0.000000000000D+00 0.685385238323D-06 0.000000000000D+00  7 -1 1 24 -13 13 -24 21 2 0.23099412D-01 0.22726528D+00 0.14495238D+06 0.14495238D+06 0.14495238D+06 0.11087269D+01  1  2 12  2  7  2        1 0.229172178871D-04 0.100000000000D+01
-.708339952395D-05 0.000000000000D+00 -.241692640873D-05 0.685385238323D-06 0.000000000000D+00  7 -1 1 24 -13 13 -24 21 2 0.23099412D-01 0.23905793D+00 0.71139242D+05 0.71139242D+05 0.71139242D+05 0.11340641D+01  1  2  5  2  7  2        1 -.107766001642D-03 0.100000000000D+01
0.114947086243D-06 0.000000000000D+00 0.000000000000D+00 0.685385238323D-06 0.000000000000D+00  7 -1 21 24 -13 13 -24 -1 2 0.23099412D-01 0.22726528D+00 0.14495238D+06 0.14495238D+06 0.14495238D+06 0.11087269D+01  1  2 12  4  7  2        1 0.149973633695D-05 0.100000000000D+01
-.455054487101D-06 0.000000000000D+00 -.207241736170D-06 0.685385238323D-06 0.000000000000D+00  7 -1 21 24 -13 13 -24 -1 2 0.23099412D-01 0.23905793D+00 0.71139242D+05 0.71139242D+05 0.71139242D+05 0.11340641D+01  1  2  5  4  7  2        1 -.545031838326D-05 0.100000000000D+01
  </mgrwgt>
  </event>
  <event>
  8     66 0.29788925E-05 0.29402685E+03 0.75467711E-02 0.95730356E-01
       -3 -1    0    0    0  501 0.00000000E+00 0.00000000E+00 0.11393447E+04 0.11393448E+04 0.50000000E+00 0.0000E+00 0.9000E+01
        3 -1    0    0  501    0 0.00000000E+00 0.00000000E+00 -.10086675E+03 0.10086799E+03 0.50000000E+00 0.0000E+00 0.9000E+01
       25  2    1    2    0    0 -.72942908E+02 -.24351347E+03 0.73979155E+03 0.83777429E+03 0.29992458E+03 0.0000E+00 0.0000E+00
       23  2    1    2    0    0 0.72942908E+02 0.24351347E+03 0.29868642E+03 0.40243853E+03 0.90131664E+02 0.0000E+00 0.0000E+00
       24  1    3    3    0    0 -.10284515E+03 -.19649658E+03 0.68747869E+03 0.72683024E+03 0.80419002E+02 0.0000E+00 0.9000E+01
      -13  1    4    4    0    0 0.58573746E+02 0.20471695E+03 0.29063595E+03 0.36029041E+03 0.10565837E+00 0.0000E+00 0.9000E+01
       13  1    4    4    0    0 0.14369162E+02 0.38796523E+02 0.80504693E+01 0.42148123E+02 0.10565837E+00 0.0000E+00 0.9000E+01
      -24  1    3    3    0    0 0.29902242E+02 -.47016891E+02 0.52312854E+02 0.11094405E+03 0.80419002E+02 0.0000E+00 0.9000E+01
#aMCatNLO 1  0  0  1  2 0.27315117D+03 0.00000000D+00  -5  7  0 0.00000000D+00 0.00000000D+00 0.00000000D+00 0.00000000D+00 0.00000000D+00
  <mgrwgt>
 0.1926126921D-03    3    2    0
 0.339002715393880D+03 0.000000000000000D+00 0.000000000000000D+00 0.339002715393880D+03
 0.339002715393880D+03 0.000000000000000D+00 0.000000000000000D+00 -.339002715393880D+03
 0.276535707192674D+03 -.102845149873247D+03 -.196496578571913D+03 0.144280113512789D+03
 0.213888985796126D+03 0.585738069993284D+02 0.204717174518354D+03 -.202110325249076D+02
 0.647668384517171D+02 0.143691009846636D+02 0.387962954039939D+02 -.498309117200299D+02
 0.122813899347243D+03 0.299022418892550D+02 -.470168913504346D+02 -.742381692678511D+02
 0.000000000000000D+00 -.000000000000000D+00 -.000000000000000D+00 -.000000000000000D+00
 0.402727555335788D+03 0.000000000000000D+00 0.000000000000000D+00 0.402727555335788D+03
 0.866263626090073D+03 0.000000000000000D+00 0.000000000000000D+00 -.866263626090073D+03
 0.215311498757248D+03 -.301602281645692D+02 -.134779208428155D+03 0.144280113512789D+03
 0.301965101975252D+03 0.134806453091826D+03 0.269446946874524D+03 -.202110325249076D+02
 0.843547489040622D+02 0.364062108246900D+02 0.575081882274707D+02 -.498309117200299D+02
 0.129328928487468D+03 0.671637765261652D+02 -.153778131035344D+02 -.742381692678511D+02
 0.538030903301831D+03 -.208216212278112D+03 -.176798113570306D+03 -.463536070754285D+03
0.887068795356D-04 0.000000000000D+00 0.000000000000D+00 0.174063230284D-05 0.000000000000D+00  7 -3 3 24 -13 13 -24 21 0 0.17528391D+00 0.15518066D-01 0.86451786D+05 0.86451786D+05 0.86451786D+05 0.11269477D+01  1  2  2  1  7  1       -3 0.190314410881D-03 0.100000000000D+01
-.480676458863D-05 0.000000000000D+00 -.340657774474D-06 0.174063230284D-05 0.000000000000D+00  7 -3 3 24 -13 13 -24 21 2 0.17528391D+00 0.15518066D-01 0.86451786D+05 0.86451786D+05 0.86451786D+05 0.11269477D+01  1  2  3  1  7  1       -3 -.130970879173D-04 0.100000000000D+01
0.565025718296D-05 0.000000000000D+00 0.000000000000D+00 0.174063230284D-05 0.000000000000D+00  7 -3 3 24 -13 13 -24 21 2 0.17528391D+00 0.15518066D-01 0.86451786D+05 0.86451786D+05 0.86451786D+05 0.11269477D+01  1  2 15  1  7  1       -3 0.153953691129D-04 0.100000000000D+01
  </mgrwgt>
  </event>
  <event>
  8     66 0.29788925E-05 0.11509417E+04 0.75467711E-02 0.81984073E-01
       -1 -1    0    0    0  501 0.00000000E+00 0.00000000E+00 0.94905810E+03 0.94905815E+03 0.32000000E+00 0.0000E+00 0.9000E+01
        1 -1    0    0  501    0 0.00000000E+00 0.00000000E+00 -.14097073E+04 0.14097073E+04 0.32000000E+00 0.0000E+00 0.9000E+01
       25  2    1    2    0    0 0.89587571E+03 -.69143600E+03 -.32898677E+03 0.12160214E+04 0.29966450E+03 0.0000E+00 0.0000E+00
       23  2    1    2    0    0 -.89587571E+03 0.69143600E+03 -.13166243E+03 0.11427440E+04 0.88611024E+02 0.0000E+00 0.0000E+00
       24  1    3    3    0    0 0.33549965E+03 -.41659915E+03 -.13507550E+03 0.55751903E+03 0.80419002E+02 0.0000E+00 0.9000E+01
      -11  1    4    4    0    0 -.81487902E+02 0.63310369E+02 0.13501180E+02 0.10407095E+03 0.51099893E-03 0.0000E+00 0.9000E+01
       11  1    4    4    0    0 -.81438781E+03 0.62812563E+03 -.14516361E+03 0.10386731E+04 0.51099893E-03 0.0000E+00 0.9000E+01
      -24  1    3    3    0    0 0.56037606E+03 -.27483686E+03 -.19391127E+03 0.65850241E+03 0.80419002E+02 0.0000E+00 0.9000E+01
#aMCatNLO 1  0  0  1  2 0.10879667D+04 0.00000000D+00  -5  7  0 0.00000000D+00 0.00000000D+00 0.00000000D+00 0.00000000D+00 0.00000000D+00
  <mgrwgt>
 0.1068302842D-02    5    2    0
 0.115667378124168D+04 0.000000000000000D+00 0.000000000000000D+00 0.115667378124168D+04
 0.115667378124168D+04 0.000000000000000D+00 0.000000000000000D+00 -.115667378124168D+04
 0.541567664213912D+03 0.335499653368012D+03 -.416599146976597D+03 -.267105278131575D+02
 0.108802619853093D+03 -.814879020797103D+02 0.633103688381976D+02 0.344895505786270D+02
 0.103015940400758D+04 -.814387812637640D+03 0.628125634196708D+03 0.588139095581651D+02
 0.632817874408777D+03 0.560376061349338D+03 -.274836856058309D+03 -.665929323236345D+02
 0.000000000000000D+00 0.000000000000000D+00 0.000000000000000D+00 0.000000000000000D+00
 0.187393087019760D+04 0.000000000000000D+00 0.000000000000000D+00 0.187393087019760D+04
 0.177494287477823D+04 0.000000000000000D+00 0.000000000000000D+00 -.177494287477823D+04
 0.787455316921048D+03 0.322775227057147D+03 -.713247054459398D+03 -.267105278131575D+02
 0.921294703918467D+02 -.834116803830971D+02 0.184608177293037D+02 0.344895505786270D+02
 0.859676916836736D+03 -.832481617895729D+03 0.206299978793287D+03 0.588139095581651D+02
 0.817151484176249D+03 0.546493661632990D+03 -.598480903034160D+03 -.665929323236345D+02
 0.109246055664995D+04 0.466244095886887D+02 0.108696716097097D+04 0.989879954193728D+02
0.325104495331D-02 0.000000000000D+00 0.000000000000D+00 0.626920548557D-05 0.000000000000D+00  7 -1 1 24 -11 11 -24 21 0 0.14600895D+00 0.21687805D+00 0.13246668D+07 0.13246668D+07 0.13246668D+07 0.10398312D+01  1  2  2  1  7  1       -1 0.106586759014D-02 0.100000000000D+01
-.180608188645D-03 0.000000000000D+00 -.124848686405D-04 0.626920548557D-05 0.000000000000D+00  7 -1 1 24 -11 11 -24 21 2 0.14600895D+00 0.21687805D+00 0.13246668D+07 0.13246668D+07 0.13246668D+07 0.10398312D+01  1  2  3  1  7  1       -1 -.640240847046D-04 0.100000000000D+01
0.205948395605D-03 0.000000000000D+00 0.000000000000D+00 0.626920548557D-05 0.000000000000D+00  7 -1 1 24 -11 11 -24 21 2 0.14600895D+00 0.21687805D+00 0.13246668D+07 0.13246668D+07 0.13246668D+07 0.10398312D+01  1  2 15  1  7  1       -1 0.730069750654D-04 0.100000000000D+01
-.567834697545D-03 0.000000000000D+00 -.900914948640D-03 0.626920548557D-05 0.000000000000D+00  7 -1 1 24 -11 11 -24 21 2 0.31249984D+00 0.21687805D+00 0.13246668D+07 0.13246668D+07 0.13246668D+07 0.10398312D+01  1  2  5  1  7  1       -1 -.775460780189D-05 0.100000000000D+01
0.950897372918D-05 0.000000000000D+00 -.741877424457D-04 0.626920548557D-05 0.000000000000D+00  7 21 1 24 -11 11 -24 1 2 0.31249984D+00 0.21687805D+00 0.13246668D+07 0.13246668D+07 0.13246668D+07 0.10398312D+01  1  2  5  3  7  1       -1 0.120696955541D-05 0.100000000000D+01
  </mgrwgt>
  </event>
  <event>
  8     66 0.29788925E-05 0.42367446E+03 0.75467711E-02 0.85691623E-01
       -1 -1    0    0    0  501 0.00000000E+00 0.00000000E+00 0.42902234E+03 0.42902245E+03 0.32000000E+00 0.0000E+00 0.9000E+01
        1 -1    0    0  501    0 0.00000000E+00 0.00000000E+00 -.27082060E+04 0.27082060E+04 0.32000000E+00 0.0000E+00 0.9000E+01
       25  2    1    2    0    0 0.14673553E+02 -.88645678E+03 -.19918561E+04 0.22007791E+04 0.29986164E+03 0.0000E+00 0.0000E+00
       23  2    1    2    0    0 -.14673553E+02 0.88645678E+03 -.28732759E+03 0.93644940E+03 0.91429786E+02 0.0000E+00 0.0000E+00
       24  1    3    3    0    0 0.49551283E+01 -.27884123E+03 -.93502658E+03 0.97903979E+03 0.80419002E+02 0.0000E+00 0.9000E+01
      -13  1    4    4    0    0 0.13414384E+02 0.29533979E+02 -.21049366E+02 0.38668961E+02 0.10565837E+00 0.0000E+00 0.9000E+01
       13  1    4    4    0    0 -.28087937E+02 0.85692280E+03 -.26627823E+03 0.89778044E+03 0.10565837E+00 0.0000E+00 0.9000E+01
      -24  1    3    3    0    0 0.97184248E+01 -.60761555E+03 -.10568295E+04 0.12217393E+04 0.80419002E+02 0.0000E+00 0.9000E+01
#aMCatNLO 1  0  0  1  2 0.53418838D+03 0.00000000D+00  -5  7  0 0.00000000D+00 0.00000000D+00 0.00000000D+00 0.00000000D+00 0.00000000D+00
  <mgrwgt>
 0.7320667564D-03    9    2    0
 0.107790588146300D+04 0.000000000000000D+00 0.000000000000000D+00 0.107790588146300D+04
 0.107790588146300D+04 0.000000000000000D+00 0.000000000000000D+00 -.107790588146300D+04
 0.436204220396206D+03 0.495512831369049D+01 -.278841226245257D+03 -.325622362847712D+03
 0.340174146293850D+02 0.134144390598734D+02 0.295328737832559D+02 0.102492286967712D+02
 0.102497271543297D+04 -.280879921432251D+02 0.856923901618825D+03 0.561659646862548D+03
 0.660617412467434D+03 0.971842476966123D+01 -.607615549156824D+03 -.246286512711607D+03
 0.000000000000000D+00 -.000000000000000D+00 0.000000000000000D+00 0.000000000000000D+00
 0.180087824107432D+04 0.000000000000000D+00 0.000000000000000D+00 0.180087824107432D+04
 0.121383890519258D+04 0.000000000000000D+00 0.000000000000000D+00 -.121383890519258D+04
 0.511961927841160D+03 0.559469519784938D+02 -.382724202242627D+03 -.325622362847712D+03
 0.299416324674214D+02 0.168541193916297D+02 0.225253929037457D+02 0.102492286967712D+02
 0.862291816792419D+03 0.734079961020574D+02 0.650151431976958D+03 0.561659646862548D+03
 0.816813758677418D+03 0.891738133594700D+02 -.769485857620298D+03 -.246286512711607D+03
 0.793708010488487D+03 -.235382880831651D+03 0.479533234982222D+03 0.587039335881736D+03
0.288399471033D-02 0.000000000000D+00 0.000000000000D+00 0.389514004689D-04 0.000000000000D+00  7 -1 1 24 -13 13 -24 21 0 0.66003447D-01 0.41664709D+00 0.80376656D+06 0.80376656D+06 0.80376656D+06 0.10542381D+01  1  2  2  1  7  1       -1 0.782714111012D-03 0.100000000000D+01
-.153609101683D-03 0.000000000000D+00 -.110752990609D-04 0.389514004689D-04 0.000000000000D+00  7 -1 1 24 -13 13 -24 21 2 0.66003447D-01 0.41664709D+00 0.80376656D+06 0.80376656D+06 0.80376656D+06 0.10542381D+01  1  2  3  1  7  1       -1 -.463343519066D-04 0.100000000000D+01
0.181701297796D-03 0.000000000000D+00 0.000000000000D+00 0.389514004689D-04 0.000000000000D+00  7 -1 1 24 -13 13 -24 21 2 0.66003447D-01 0.41664709D+00 0.80376656D+06 0.80376656D+06 0.80376656D+06 0.10542381D+01  1  2 15  1  7  1       -1 0.548080275305D-04 0.100000000000D+01
0.101843976227D-02 0.000000000000D+00 0.000000000000D+00 0.389514004689D-04 0.000000000000D+00  7 -1 1 24 -13 13 -24 21 2 0.11208386D+00 0.41664709D+00 0.14285819D+07 0.14285819D+07 0.14285819D+07 0.10377055D+01  1  2 12  1  7  1       -1 0.908204280133D-04 0.100000000000D+01
-.237038224257D-02 0.000000000000D+00 0.000000000000D+00 0.389514004689D-04 0.000000000000D+00  7 -1 1 24 -13 13 -24 21 2 0.66003447D-01 0.41664709D+00 0.80376656D+06 0.80376656D+06 0.80376656D+06 0.10542381D+01  1  2  4  1  7  1       -1 -.714997508462D-03 0.100000000000D+01
-.229918856579D-02 0.000000000000D+00 -.930030260443D-03 0.389514004689D-04 0.000000000000D+00  7 -1 1 24 -13 13 -24 21 2 0.12193458D+00 0.41664709D+00 0.80376656D+06 0.80376656D+06 0.80376656D+06 0.10542381D+01  1  2  5  1  7  1       -1 -.181020507052D-03 0.100000000000D+01
0.252971053942D-02 0.000000000000D+00 0.778691785098D-03 0.389514004689D-04 0.000000000000D+00  7 -1 1 24 -13 13 -24 21 2 0.66003447D-01 0.41664709D+00 0.80376656D+06 0.80376656D+06 0.80376656D+06 0.10542381D+01  1  2  6  1  7  1       -1 0.763056987321D-03 0.100000000000D+01
0.601346054964D-04 0.000000000000D+00 0.000000000000D+00 0.389514004689D-04 0.000000000000D+00  7 21 1 24 -13 13 -24 1 2 0.11208386D+00 0.41664709D+00 0.14285819D+07 0.14285819D+07 0.14285819D+07 0.10377055D+01  1  2 12  3  7  1       -1 0.344052817347D-04 0.100000000000D+01
-.102671855902D-03 0.000000000000D+00 -.622841027491D-04 0.389514004689D-04 0.000000000000D+00  7 21 1 24 -13 13 -24 1 2 0.12193458D+00 0.41664709D+00 0.80376656D+06 0.80376656D+06 0.80376656D+06 0.10542381D+01  1  2  5  3  7  1       -1 -.513857117912D-04 0.100000000000D+01
  </mgrwgt>
  </event>
  <event>
  8     66 0.29788925E-05 0.23466129E+03 0.75467711E-02 0.94461777E-01
       -1 -1    0    0    0  501 0.00000000E+00 0.00000000E+00 0.36561183E+02 0.36562583E+02 0.32000000E+00 0.0000E+00 0.9000E+01
        1 -1    0    0  501    0 0.00000000E+00 0.00000000E+00 -.16768906E+04 0.16768907E+04 0.32000000E+00 0.0000E+00 0.9000E+01
       25  2    1    2    0    0 -.79022586E+02 0.97472724E+02 -.87357802E+03 0.93130502E+03 0.29739702E+03 0.0000E+00 0.0000E+00
       23  2    1    2    0    0 0.79022586E+02 -.97472724E+02 -.76675144E+03 0.78214824E+03 0.90014376E+02 0.0000E+00 0.0000E+00
       24  1    3    3    0    0 -.91418605E+01 0.17117164E+03 -.44583241E+03 0.48437285E+03 0.80419002E+02 0.0000E+00 0.9000E+01
      -11  1    4    4    0    0 0.85856950E+02 -.43903042E+02 -.57094095E+03 0.57902717E+03 0.51099893E-03 0.0000E+00 0.9000E+01
       11  1    4    4    0    0 -.68343638E+01 -.53569683E+02 -.19581049E+03 0.20312107E+03 0.51099893E-03 0.0000E+00 0.9000E+01
      -24  1    3    3    0    0 -.69880726E+02 -.73698911E+02 -.42774560E+03 0.44693217E+03 0.80419002E+02 0.0000E+00 0.9000E+01
#aMCatNLO 1  0  0  1  2 0.40460267D+03 0.00000000D+00  -5  7  0 0.00000000D+00 0.00000000D+00 0.00000000D+00 0.00000000D+00 0.00000000D+00
  <mgrwgt>
 0.8070824314D-03    3    2    0
 0.247609230144219D+03 0.000000000000000D+00 0.000000000000000D+00 0.247609230144219D+03
 0.247609230144219D+03 0.000000000000000D+00 0.000000000000000D+00 -.247609230144219D+03
 0.199181180096240D+03 -.914186046083944D+01 0.171171635371040D+03 0.618273740496737D+02
 0.112283226063373D+03 0.858569502330303D+02 -.439030419222606D+02 -.575206907282394D+02
 0.542078669750000D+02 -.683436378790517D+01 -.535696825105437D+02 -.469823683028187D+01
 0.129546187153824D+03 -.698807259842857D+02 -.736989109382359D+02 0.391553508847544D+00
 0.000000000000000D+00 0.000000000000000D+00 -.000000000000000D+00 -.000000000000000D+00
 0.384938001533772D+03 0.000000000000000D+00 0.000000000000000D+00 0.384938001533772D+03
 0.947497431899419D+03 0.000000000000000D+00 0.000000000000000D+00 -.947497431899419D+03
 0.384357603084612D+03 -.106317293997724D+03 0.355158499700769D+03 0.618273740496737D+02
 0.805162673269909D+02 0.537504735156229D+02 0.168856755643363D+02 -.575206907282394D+02
 0.339066833497272D+02 -.215078865690966D+02 -.257876048092126D+02 -.469823683028187D+01
 0.140707241378753D+03 -.114885436621219D+03 0.115106455183689D+02 0.391553508847544D+00
 0.692947638293108D+03 0.188960143672416D+03 -.357767215974261D+03 -.562559430365647D+03
0.912559782189D-05 0.000000000000D+00 0.000000000000D+00 0.111790939062D-07 0.000000000000D+00  7 -1 1 24 -11 11 -24 21 0 0.56249074D-02 0.25798329D+00 0.55065920D+05 0.55065920D+05 0.55065920D+05 0.11436269D+01  1  2  2  1  7  1       -1 0.796731490066D-03 0.100000000000D+01
-.505199544870D-06 0.000000000000D+00 -.350446984611D-07 0.111790939062D-07 0.000000000000D+00  7 -1 1 24 -11 11 -24 21 2 0.56249074D-02 0.25798329D+00 0.55065920D+05 0.55065920D+05 0.55065920D+05 0.11436269D+01  1  2  3  1  7  1       -1 -.576875813759D-04 0.100000000000D+01
0.595848012094D-06 0.000000000000D+00 0.000000000000D+00 0.111790939062D-07 0.000000000000D+00  7 -1 1 24 -11 11 -24 21 2 0.56249074D-02 0.25798329D+00 0.55065920D+05 0.55065920D+05 0.55065920D+05 0.11436269D+01  1  2 15  1  7  1       -1 0.680385226677D-04 0.100000000000D+01
  </mgrwgt>
  </event>
  <event>
  7     66 0.29788925E-05 0.25663429E+03 0.75467711E-02 0.98183511E-01
       -3 -1    0    0    0  501 0.00000000E+00 0.00000000E+00 0.68003897E+02 0.68005735E+02 0.50000000E+00 0.0000E+00 0.9000E+01
        3 -1    0    0  501    0 0.00000000E+00 0.00000000E+00 -.26947770E+04 0.26947770E+04 0.50000000E+00 0.0000E+00 0.9000E+01
       25  2    1    2    0    0 0.10778551E+03 -.29015018E+03 -.94266913E+03 0.10365454E+04 0.29999404E+03 0.0000E+00 0.0000E+00
       24  1    3    3    0    0 0.49025706E+02 -.63642140E+01 -.82699275E+02 0.12550063E+03 0.80419002E+02 0.0000E+00 0.9000E+01
      -13  1    1    2    0    0 -.66508881E+02 0.22573207E+03 -.15778641E+04 0.15953161E+04 0.10565837E+00 0.0000E+00 0.9000E+01
       13  1    1    2    0    0 -.41276630E+02 0.64418116E+02 -.10623984E+03 0.13092123E+03 0.10565837E+00 0.0000E+00 0.9000E+01
      -24  1    3    3    0    0 0.58759805E+02 -.28378597E+03 -.85996985E+03 0.91104476E+03 0.80419002E+02 0.0000E+00 0.9000E+01
#aMCatNLO 1  0  0  2  1 0.34445093D+02 0.00000000D+00  -5  7  0 0.00000000D+00 0.00000000D+00 0.00000000D+00 0.00000000D+00 0.00000000D+00
  <mgrwgt>
 0.2790645307D-04    9    2    0
 0.428086370211126D+03 0.000000000000000D+00 0.000000000000000D+00 0.428086370211126D+03
 0.428086370211126D+03 0.000000000000000D+00 0.000000000000000D+00 -.428086370211126D+03
 0.151253557894924D+03 0.490260421395821D+02 -.636511781888997D+01 0.118179335286598D+03
 0.306971703605007D+03 -.665103070763859D+02 0.225733952683784D+03 -.197109584933154D+03
 0.965191596408138D+02 -.412762086809581D+02 0.644189364771812D+02 0.588423605733471D+02
 0.301428319281507D+03 0.587604736177619D+02 -.283787771342075D+03 0.200878890732087D+02
 0.000000000000000D+00 0.000000000000000D+00 0.000000000000000D+00 -.000000000000000D+00
 0.444589375472746D+03 0.000000000000000D+00 0.000000000000000D+00 0.444589375472746D+03
 0.446791379512862D+03 0.000000000000000D+00 0.000000000000000D+00 -.446791379512862D+03
 0.150850493355107D+03 0.466803406775177D+02 -.119685377785846D+02 0.118179335286598D+03
 0.299876088942277D+03 -.712222060010732D+02 0.214478151845676D+03 -.197109584933154D+03
 0.948478322411341D+02 -.427620869099688D+02 0.608694653016008D+02 0.588423605733471D+02
 0.311290934211205D+03 0.540029854516621D+02 -.295152475921521D+03 0.200878890732087D+02
 0.345154062358855D+02 0.133009667818621D+02 0.317733965528289D+02 -.220200404011508D+01
0.200067016356D-03 0.000000000000D+00 0.000000000000D+00 0.130443064754D-08 0.000000000000D+00  7 -3 3 24 -13 13 -24 21 0 0.10462283D-01 0.41458122D+00 0.12496031D+06 0.12496031D+06 0.12496031D+06 0.11138662D+01  1  2  2  2  7  2        3 0.157827155341D-04 0.100000000000D+01
-.106195074246D-04 0.000000000000D+00 -.768310021662D-06 0.130443064754D-08 0.000000000000D+00  7 -3 3 24 -13 13 -24 21 2 0.10462283D-01 0.41458122D+00 0.12496031D+06 0.12496031D+06 0.12496031D+06 0.11138662D+01  1  2  3  2  7  2        3 -.103938557085D-05 0.100000000000D+01
0.128203626566D-04 0.000000000000D+00 0.000000000000D+00 0.130443064754D-08 0.000000000000D+00  7 -3 3 24 -13 13 -24 21 2 0.10462283D-01 0.41458122D+00 0.12496031D+06 0.12496031D+06 0.12496031D+06 0.11138662D+01  1  2 15  2  7  2        3 0.125479454230D-05 0.100000000000D+01
0.362843603607D-03 0.000000000000D+00 0.000000000000D+00 0.130443064754D-08 0.000000000000D+00  7 -3 3 24 -13 13 -24 21 2 0.10462283D-01 0.44036307D+00 0.13661259D+06 0.13661259D+06 0.13661259D+06 0.11107702D+01  1  2 12  2  7  2        3 0.291868238299D-04 0.100000000000D+01
-.292177834728D-03 0.000000000000D+00 0.000000000000D+00 0.130443064754D-08 0.000000000000D+00  7 -3 3 24 -13 13 -24 21 2 0.10462283D-01 0.41458122D+00 0.12496031D+06 0.12496031D+06 0.12496031D+06 0.11138662D+01  1  2  4  2  7  2        3 -.285969408369D-04 0.100000000000D+01
-.165251541521D-02 0.000000000000D+00 -.289714204101D-03 0.130443064754D-08 0.000000000000D+00  7 -3 3 24 -13 13 -24 21 2 0.10462283D-01 0.43905997D+00 0.12496031D+06 0.12496031D+06 0.12496031D+06 0.11138662D+01  1  2  5  2  7  2        3 -.134927312710D-03 0.100000000000D+01
0.166686798002D-02 0.000000000000D+00 0.289238134355D-03 0.130443064754D-08 0.000000000000D+00  7 -3 3 24 -13 13 -24 21 2 0.10462283D-01 0.41458122D+00 0.12496031D+06 0.12496031D+06 0.12496031D+06 0.11138662D+01  1  2  6  2  7  2        3 0.163144904719D-03 0.100000000000D+01
0.407682384252D-05 0.000000000000D+00 0.000000000000D+00 0.130443064754D-08 0.000000000000D+00  7 -3 21 24 -13 13 -24 -3 2 0.10462283D-01 0.44036307D+00 0.13661259D+06 0.13661259D+06 0.13661259D+06 0.11107702D+01  1  2 12  4  7  2        3 0.550477949879D-05 0.100000000000D+01
-.160091844218D-04 0.000000000000D+00 -.286496576952D-05 0.130443064754D-08 0.000000000000D+00  7 -3 21 24 -13 13 -24 -3 2 0.10462283D-01 0.43905997D+00 0.12496031D+06 0.12496031D+06 0.12496031D+06 0.11138662D+01  1  2  5  4  7  2        3 -.224039259313D-04 0.100000000000D+01
  </mgrwgt>
  </event>
  <event>
  8     66 0.29788925E-05 0.42633772E+03 0.75467711E-02 0.90195015E-01
       -1 -1    0    0    0  501 0.00000000E+00 0.00000000E+00 0.12037278E+04 0.12037278E+04 0.32000000E+00 0.0000E+00 0.9000E+01
        1 -1    0    0  501    0 0.00000000E+00 0.00000000E+00 -.47736053E+03 0.47736063E+03 0.32000000E+00 0.0000E+00 0.9000E+01
       25  2    1    2    0    0 0.30427311E+03 0.46520789E+03 0.89324507E+03 0.10941684E+04 0.30052835E+03 0.0000E+00 0.0000E+00
       23  2    1    2    0    0 -.30427311E+03 -.46520789E+03 -.16687785E+03 0.58692000E+03 0.87329082E+02 0.0000E+00 0.0000E+00
       24  1    3    3    0    0 0.30862560E+03 0.31839263E+03 0.74408124E+03 0.86991248E+03 0.80419002E+02 0.0000E+00 0.9000E+01
      -13  1    4    4    0    0 -.16932421E+03 -.21557920E+03 -.12026243E+03 0.29934619E+03 0.10565837E+00 0.0000E+00 0.9000E+01
       13  1    4    4    0    0 -.13494890E+03 -.24962869E+03 -.46615415E+02 0.28757381E+03 0.10565837E+00 0.0000E+00 0.9000E+01
      -24  1    3    3    0    0 -.43524865E+01 0.14681525E+03 0.14916384E+03 0.22425595E+03 0.80419002E+02 0.0000E+00 0.9000E+01
#aMCatNLO 1  0  0  2  1 0.30041909D+03 0.00000000D+00  -5  7  0 0.00000000D+00 0.00000000D+00 0.00000000D+00 0.00000000D+00 0.00000000D+00
  <mgrwgt>
 0.4772633717D-03    9    2    0
 0.758031819024669D+03 0.000000000000000D+00 0.000000000000000D+00 0.758031819024669D+03
 0.758031819024669D+03 0.000000000000000D+00 0.000000000000000D+00 -.758031819024669D+03
 0.608103485962800D+03 0.308625595180551D+03 0.318392631953847D+03 0.408287897938074D+03
 0.389549750154123D+03 -.169324259175824D+03 -.215579146536953D+03 -.276774158255601D+03
 0.341210483403709D+03 -.134948849571953D+03 -.249628739239476D+03 -.189470035967457D+03
 0.177199918528706D+03 -.435248643277454D+01 0.146815253822582D+03 0.579562962849842D+02
 0.000000000000000D+00 -.000000000000000D+00 -.000000000000000D+00 -.000000000000000D+00
 0.862814768005054D+03 0.000000000000000D+00 0.000000000000000D+00 0.862814768005054D+03
 0.102334842377875D+04 0.000000000000000D+00 0.000000000000000D+00 -.102334842377875D+04
 0.692130901366772D+03 0.433802051282319D+03 0.343066671906455D+03 0.408287897938074D+03
 0.355943326594500D+03 -.975539827509305D+02 -.201432215691764D+03 -.276774158255601D+03
 0.312042432436395D+03 -.720587385736165D+02 -.237232213888612D+03 -.189470035967457D+03
 0.185425504621868D+03 0.305582695084056D+02 0.153696654796005D+03 0.579562962849842D+02
 0.340621026764267D+03 -.294747599466177D+03 -.580988971220840D+02 -.160533655773693D+03
0.423103988299D-03 0.000000000000D+00 0.000000000000D+00 0.723749385151D-06 0.000000000000D+00  7 -1 1 24 -13 13 -24 21 0 0.18518890D+00 0.73440092D-01 0.34574791D+06 0.34574791D+06 0.34574791D+06 0.10800208D+01  1  2  2  2  7  2        1 0.447580666207D-03 0.100000000000D+01
-.216620408358D-04 0.000000000000D+00 -.162483072091D-05 0.723749385151D-06 0.000000000000D+00  7 -1 1 24 -13 13 -24 21 2 0.18518890D+00 0.73440092D-01 0.34574791D+06 0.34574791D+06 0.34574791D+06 0.10800208D+01  1  2  3  2  7  2        1 -.267293157223D-04 0.100000000000D+01
0.268307441531D-04 0.000000000000D+00 0.000000000000D+00 0.723749385151D-06 0.000000000000D+00  7 -1 1 24 -13 13 -24 21 2 0.18518890D+00 0.73440092D-01 0.34574791D+06 0.34574791D+06 0.34574791D+06 0.10800208D+01  1  2 15  2  7  2        1 0.331071036642D-04 0.100000000000D+01
0.186798963631D-03 0.000000000000D+00 0.000000000000D+00 0.723749385151D-06 0.000000000000D+00  7 -1 1 24 -13 13 -24 21 2 0.18518890D+00 0.10282319D+00 0.56789814D+06 0.56789814D+06 0.56789814D+06 0.10646239D+01  1  2 12  2  7  2        1 0.133487446317D-03 0.100000000000D+01
-.306724462933D-03 0.000000000000D+00 0.000000000000D+00 0.723749385151D-06 0.000000000000D+00  7 -1 1 24 -13 13 -24 21 2 0.18518890D+00 0.73440092D-01 0.34574791D+06 0.34574791D+06 0.34574791D+06 0.10800208D+01  1  2  4  2  7  2        1 -.378474727826D-03 0.100000000000D+01
-.395081491360D-03 0.000000000000D+00 -.177506730086D-03 0.723749385151D-06 0.000000000000D+00  7 -1 1 24 -13 13 -24 21 2 0.18518890D+00 0.10936940D+00 0.34574791D+06 0.34574791D+06 0.34574791D+06 0.10800208D+01  1  2  5  2  7  2        1 -.273048092746D-03 0.100000000000D+01
0.443351296073D-03 0.000000000000D+00 0.164303352102D-03 0.723749385151D-06 0.000000000000D+00  7 -1 1 24 -13 13 -24 21 2 0.18518890D+00 0.73440092D-01 0.34574791D+06 0.34574791D+06 0.34574791D+06 0.10800208D+01  1  2  6  2  7  2        1 0.547061879276D-03 0.100000000000D+01
0.784454610258D-05 0.000000000000D+00 0.000000000000D+00 0.723749385151D-06 0.000000000000D+00  7 -1 21 24 -13 13 -24 -1 2 0.18518890D+00 0.10282319D+00 0.56789814D+06 0.56789814D+06 0.56789814D+06 0.10646239D+01  1  2 12  4  7  2        1 0.117104014981D-04 0.100000000000D+01
-.127228325932D-04 0.000000000000D+00 -.842231813718D-05 0.723749385151D-06 0.000000000000D+00  7 -1 21 24 -13 13 -24 -1 2 0.18518890D+00 0.10936940D+00 0.34574791D+06 0.34574791D+06 0.34574791D+06 0.10800208D+01  1  2  5  4  7  2        1 -.174319889755D-04 0.100000000000D+01
  </mgrwgt>
  </event>
  <event>
  9     66 0.29788925E-05 0.16674118E+03 0.75467711E-02 0.10420896E+00
       21 -1    0    0  502  501 0.00000000E+00 0.00000000E+00 0.45779082E+02 0.45785225E+02 0.75000000E+00 0.0000E+00 0.9000E+01
        1 -1    0    0  501    0 0.00000000E+00 0.00000000E+00 -.25046666E+04 0.25046667E+04 0.32000000E+00 0.0000E+00 0.9000E+01
       25  2    1    2    0    0 -.82219927E+02 0.67862424E+02 -.18134053E+04 0.18410777E+04 0.29960450E+03 0.0000E+00 0.0000E+00
       23  2    1    2    0    0 -.71865361E+01 -.14497640E+03 -.44374124E+03 0.47562299E+03 0.90780759E+02 0.0000E+00 0.0000E+00
       24  1    3    3    0    0 -.72805030E+02 0.38519927E+02 -.24920211E+03 0.27450549E+03 0.80419002E+02 0.0000E+00 0.9000E+01
      -13  1    4    4    0    0 0.10241968E+00 -.10129280E+03 -.40269567E+03 0.41523976E+03 0.10565837E+00 0.0000E+00 0.9000E+01
       13  1    4    4    0    0 -.72889558E+01 -.43683600E+02 -.41045565E+02 0.60383238E+02 0.10565837E+00 0.0000E+00 0.9000E+01
      -24  1    3    3    0    0 -.94148972E+01 0.29342497E+02 -.15642032E+04 0.15665722E+04 0.80419002E+02 0.0000E+00 0.9000E+01
        1  1    1    2  502    0 0.89406463E+02 0.77113975E+02 -.20174102E+03 0.23375120E+03 0.32000000E+00 0.0000E+00 0.9000E+01
#aMCatNLO 2  0  0  1  2 0.11806812D+03 0.00000000D+00  -5  7  0 0.00000000D+00 0.00000000D+00 0.00000000D+00 0.00000000D+00 0.00000000D+00
  <mgrwgt>
 0.1702443830D-03    2    2    0
 0.254190628036521D+03 0.000000000000000D+00 0.000000000000000D+00 0.254190628036521D+03
 0.254190628036521D+03 0.000000000000000D+00 0.000000000000000D+00 -.254190628036521D+03
 0.137539619587018D+03 -.486552995138216D+02 0.593493139098524D+02 0.809953811610333D+02
 0.889906153551197D+02 0.166442594252872D+02 -.870253804289925D+02 0.829948255349223D+01
 0.850222800568981D+02 0.794429480309163D+01 -.305446857008719D+02 0.789474411338970D+02
 0.196828741074007D+03 0.240667452854427D+02 0.582207522200121D+02 -.168242304848423D+03
 0.000000000000000D+00 0.000000000000000D+00 0.000000000000000D+00 0.000000000000000D+00
 0.401218455818704D+03 0.000000000000000D+00 0.000000000000000D+00 0.401218455818704D+03
 0.285802109957868D+03 0.000000000000000D+00 0.000000000000000D+00 -.285802109957868D+03
 0.140754484734663D+03 -.728050298787607D+02 0.385199282642330D+02 0.809953811610333D+02
 0.101632369120415D+03 0.102429738795031D+00 -.101292875122198D+03 0.829948255349223D+01
 0.905211461183305D+02 -.728896505989536D+01 -.436835257430262D+02 0.789474411338970D+02
 0.189003469753770D+03 -.941489774221113D+01 0.293424979234563D+02 -.168242304848423D+03
 0.165109096049393D+03 0.894064629420722D+02 0.771139746775345D+02 0.115416345860836D+03
-.993184022345D-07 0.000000000000D+00 0.000000000000D+00 0.671890842141D-06 0.000000000000D+00  7 21 1 24 -13 13 -24 1 2 0.71893170D-02 0.34271332D+00 0.54029529D+05 0.54029529D+05 0.54029529D+05 0.11443463D+01  1  2 13  3  7  1       -1 -.517341931366D-04 0.100000000000D+01
0.630761291538D-06 0.000000000000D+00 0.000000000000D+00 0.671890842141D-06 0.204179153864D-10  7 21 1 24 -13 13 -24 1 2 0.70434062D-02 0.38533361D+00 0.54029529D+05 0.54029529D+05 0.54029529D+05 0.11443463D+01  1  2  1  3  7  1       -1 0.221978576141D-03 0.100000000000D+01
  </mgrwgt>
  </event>
  <event>
  8     66 0.29788925E-05 0.30147375E+03 0.75467711E-02 0.94031963E-01
       -1 -1    0    0    0  501 0.00000000E+00 0.00000000E+00 0.37683290E+03 0.37683303E+03 0.32000000E+00 0.0000E+00 0.9000E+01
        1 -1    0    0  501    0 0.00000000E+00 0.00000000E+00 -.34313333E+03 0.34313348E+03 0.32000000E+00 0.0000E+00 0.9000E+01
       25  2    1    2    0    0 -.46199353E+02 -.24793833E+03 0.16437091E+03 0.42151485E+03 0.29504097E+03 0.0000E+00 0.0000E+00
       23  2    1    2    0    0 0.46199353E+02 0.24793833E+03 -.13067134E+03 0.29845167E+03 0.91600242E+02 0.0000E+00 0.0000E+00
       24  1    3    3    0    0 0.34288921E+02 -.19752732E+03 0.83176838E+00 0.21601084E+03 0.80419002E+02 0.0000E+00 0.9000E+01
      -13  1    4    4    0    0 0.63901917E+02 0.22254065E+03 -.13366869E+03 0.26734833E+03 0.10565837E+00 0.0000E+00 0.9000E+01
       13  1    4    4    0    0 -.17702564E+02 0.25397670E+02 0.29973495E+01 0.31103339E+02 0.10565837E+00 0.0000E+00 0.9000E+01
      -24  1    3    3    0    0 -.80488274E+02 -.50411003E+02 0.16353914E+03 0.20550401E+03 0.80419002E+02 0.0000E+00 0.9000E+01
#aMCatNLO 1  0  0  1  2 0.36307721D+03 0.00000000D+00  -5  7  0 0.00000000D+00 0.00000000D+00 0.00000000D+00 0.00000000D+00 0.00000000D+00
  <mgrwgt>
 0.1182009978D-02    5    2    0
 0.359588695812102D+03 0.000000000000000D+00 0.000000000000000D+00 0.359588695812102D+03
 0.359588695812102D+03 0.000000000000000D+00 0.000000000000000D+00 -.359588695812102D+03
 0.216208879201447D+03 0.342889212569820D+02 -.197527322164348D+03 -.928926093882733D+01
 0.273905514673869D+03 0.639020249839659D+02 0.222540917074036D+03 -.146343098229991D+03
 0.309966927524045D+02 -.177026720834350D+02 0.253974081937089D+02 0.154337932326226D+01
 0.198066304996484D+03 -.804882741575129D+02 -.504110031033970D+02 0.154088979845556D+03
 0.000000000000000D+00 -.000000000000000D+00 0.000000000000000D+00 0.000000000000000D+00
 0.810671636231520D+03 0.000000000000000D+00 0.000000000000000D+00 0.810671636231520D+03
 0.483619105746688D+03 0.000000000000000D+00 0.000000000000000D+00 -.483619105746688D+03
 0.330511979491176D+03 0.116378964572929D+03 -.298564229051219D+03 -.928926093882733D+01
 0.239977940240899D+03 0.141061537745521D+03 0.127572536118009D+03 -.146343098229991D+03
 0.191358487613787D+02 -.101752795594949D+02 0.161326493164953D+02 0.154337932326226D+01
 0.216005153547274D+03 -.183155155599399D+02 -.126933599115996D+03 0.154088979845556D+03
 0.488659819937480D+03 -.228949707199014D+03 0.281792642732710D+03 0.327052530484831D+03
0.427528242162D-04 0.000000000000D+00 0.000000000000D+00 0.306821317263D-07 0.000000000000D+00  7 -1 1 24 -13 13 -24 21 0 0.57974314D-01 0.52789765D-01 0.90886423D+05 0.90886423D+05 0.90886423D+05 0.11251437D+01  1  2  2  1  7  1       -1 0.118810132388D-02 0.100000000000D+01
-.228542029999D-05 0.000000000000D+00 -.164182102067D-06 0.306821317263D-07 0.000000000000D+00  7 -1 1 24 -13 13 -24 21 2 0.57974314D-01 0.52789765D-01 0.90886423D+05 0.90886423D+05 0.90886423D+05 0.11251437D+01  1  2  3  1  7  1       -1 -.804027152050D-04 0.100000000000D+01
0.274731845045D-05 0.000000000000D+00 0.000000000000D+00 0.306821317263D-07 0.000000000000D+00  7 -1 1 24 -13 13 -24 21 2 0.57974314D-01 0.52789765D-01 0.90886423D+05 0.90886423D+05 0.90886423D+05 0.11251437D+01  1  2 15  1  7  1       -1 0.966526213800D-04 0.100000000000D+01
-.634676523416D-05 0.000000000000D+00 -.130740493487D-04 0.306821317263D-07 0.000000000000D+00  7 -1 1 24 -13 13 -24 21 2 0.15998382D+00 0.52789765D-01 0.90886423D+05 0.90886423D+05 0.90886423D+05 0.11251437D+01  1  2  5  1  7  1       -1 -.228357100953D-04 0.100000000000D+01
0.212960367143D-07 0.000000000000D+00 -.148630456145D-05 0.306821317263D-07 0.000000000000D+00  7 21 1 24 -13 13 -24 1 2 0.15998382D+00 0.52789765D-01 0.90886423D+05 0.90886423D+05 0.90886423D+05 0.11251437D+01  1  2  5  3  7  1       -1 0.494457548856D-06 0.100000000000D+01
  </mgrwgt>
  </event>
  <event>
  8     66 0.29788925E-05 0.36032831E+03 0.75467711E-02 0.96560123E-01
       -1 -1    0    0    0  501 0.00000000E+00 0.00000000E+00 0.50215644E+02 0.50216664E+02 0.32000000E+00 0.0000E+00 0.9000E+01
        1 -1    0    0  501    0 0.00000000E+00 0.00000000E+00 -.27047998E+04 0.27047998E+04 0.32000000E+00 0.0000E+00 0.9000E+01
       25  2    1    2    0    0 -.92894864E+02 -.27610795E+03 -.12637244E+04 0.13311311E+04 0.30007604E+03 0.0000E+00 0.0000E+00
       23  2    1    2    0    0 0.92894864E+02 0.27610795E+03 -.13908597E+04 0.14238854E+04 0.89964525E+02 0.0000E+00 0.0000E+00
       24  1    3    3    0    0 -.17672293E+03 -.19067752E+03 -.76403995E+03 0.81105683E+03 0.80419002E+02 0.0000E+00 0.9000E+01
      -13  1    4    4    0    0 0.10999179E+03 0.24990436E+03 -.12194485E+04 0.12496420E+04 0.10565837E+00 0.0000E+00 0.9000E+01
       13  1    4    4    0    0 -.17096926E+02 0.26203596E+02 -.17141125E+03 0.17424339E+03 0.10565837E+00 0.0000E+00 0.9000E+01
      -24  1    3    3    0    0 0.83828066E+02 -.85430430E+02 -.49968443E+03 0.52007427E+03 0.80419002E+02 0.0000E+00 0.9000E+01
#aMCatNLO 1  0  0  2  2 0.11598281D+03 0.00000000D+00  -5  7  0 0.00000000D+00 0.00000000D+00 0.00000000D+00 0.00000000D+00 0.00000000D+00
  <mgrwgt>
 0.6810410294D-03    4    2    0
 0.368544018230622D+03 0.000000000000000D+00 0.000000000000000D+00 0.368544018230622D+03
 0.368544018230622D+03 0.000000000000000D+00 0.000000000000000D+00 -.368544018230622D+03
 0.279839806397375D+03 -.176722930030670D+03 -.190677523413097D+03 0.652241470359916D+02
 0.279011160500923D+03 0.109991964966357D+03 0.249904666504547D+03 -.574164870587074D+02
 0.339411160901192D+02 -.170971013427518D+02 0.262032873761712D+02 -.131558434849464D+02
 0.144295953472828D+03 0.838280664070645D+02 -.854304304676214D+02 0.534818350766218D+01
 0.000000000000000D+00 0.000000000000000D+00 -.000000000000000D+00 0.000000000000000D+00
 0.473934616424180D+03 0.000000000000000D+00 0.000000000000000D+00 0.473934616424180D+03
 0.406423291213215D+03 0.000000000000000D+00 0.000000000000000D+00 -.406423291213215D+03
 0.257072208555957D+03 -.182079125651038D+03 -.149036596522626D+03 0.652241470359916D+02
 0.319237992363880D+03 0.104023874472533D+03 0.296302676872958D+03 -.574164870587074D+02
 0.387914201207028D+02 -.178226758895320D+02 0.318441561564622D+02 -.131558434849464D+02
 0.131055725082468D+03 0.810811778784720D+02 -.640751640616608D+02 0.534818350766218D+01
 0.134200561514387D+03 0.147967491895652D+02 -.115035072445134D+03 0.675113252109652D+02
0.824589633111D-04 0.000000000000D+00 0.000000000000D+00 0.128658464521D-05 0.000000000000D+00  7 -1 1 24 -13 13 -24 21 0 0.77255636D-02 0.41612312D+00 0.12983649D+06 0.12983649D+06 0.12983649D+06 0.11125336D+01  1  2  2  2  7  2        1 0.902475089347D-03 0.100000000000D+01
-.457822257730D-05 0.000000000000D+00 -.316664131058D-06 0.128658464521D-05 0.000000000000D+00  7 -1 1 24 -13 13 -24 21 2 0.77255636D-02 0.41612312D+00 0.12983649D+06 0.12983649D+06 0.12983649D+06 0.11125336D+01  1  2  3  2  7  2        1 -.620183985964D-04 0.100000000000D+01
0.530530641803D-05 0.000000000000D+00 0.000000000000D+00 0.128658464521D-05 0.000000000000D+00  7 -1 1 24 -13 13 -24 21 2 0.77255636D-02 0.41612312D+00 0.12983649D+06 0.12983649D+06 0.12983649D+06 0.11125336D+01  1  2 15  2  7  2        1 0.718677614629D-04 0.100000000000D+01
-.170734332405D-04 0.000000000000D+00 0.000000000000D+00 0.128658464521D-05 0.000000000000D+00  7 -1 1 24 -13 13 -24 21 2 0.77255636D-02 0.41612312D+00 0.12983649D+06 0.12983649D+06 0.12983649D+06 0.11125336D+01  1  2  4  2  7  2        1 -.231283422821D-03 0.100000000000D+01
  </mgrwgt>
  </event>
  <event>
  8     66 0.29788925E-05 0.14308592E+03 0.75467711E-02 0.10246066E+00
       -1 -1    0    0    0  501 0.00000000E+00 0.00000000E+00 0.90273866E+02 0.90274433E+02 0.32000000E+00 0.0000E+00 0.9000E+01
        1 -1    0    0  501    0 0.00000000E+00 0.00000000E+00 -.51851780E+03 0.51851790E+03 0.32000000E+00 0.0000E+00 0.9000E+01
       25  2    1    2    0    0 -.67227455E+02 -.28436834E+02 -.35335430E+03 0.46829675E+03 0.29852035E+03 0.0000E+00 0.0000E+00
       23  2    1    2    0    0 0.67227455E+02 0.28436834E+02 -.74889634E+02 0.14049558E+03 0.93820928E+02 0.0000E+00 0.0000E+00
       24  1    3    3    0    0 -.84573072E+02 -.51371704E+02 -.36070127E+03 0.38257585E+03 0.80419002E+02 0.0000E+00 0.9000E+01
      -13  1    4    4    0    0 0.30275877E+02 0.94789453E+01 -.90675732E+02 0.96065492E+02 0.10565837E+00 0.0000E+00 0.9000E+01
       13  1    4    4    0    0 0.36951578E+02 0.18957888E+02 0.15786098E+02 0.44430088E+02 0.10565837E+00 0.0000E+00 0.9000E+01
      -24  1    3    3    0    0 0.17345618E+02 0.22934871E+02 0.73469741E+01 0.85720900E+02 0.80419002E+02 0.0000E+00 0.9000E+01
#aMCatNLO 1  0  0  2  2 0.19300971D+03 0.00000000D+00  -5  7  0 0.00000000D+00 0.00000000D+00 0.00000000D+00 0.00000000D+00 0.00000000D+00
  <mgrwgt>
 0.1076004769D-02    3    2    0
 0.216353434482253D+03 0.000000000000000D+00 0.000000000000000D+00 0.216353434482253D+03
 0.216353434482253D+03 0.000000000000000D+00 0.000000000000000D+00 -.216353434482253D+03
 0.181280035173456D+03 -.845730978045393D+02 -.513717125130015D+02 -.128854854310361D+03
 0.454177725938879D+02 0.302758869931507D+02 0.947894252633263D+01 -.325006828043744D+02
 0.781337848873547D+02 0.369516249693799D+02 0.189579153636379D+02 0.661820458886763D+02
 0.127875276309807D+03 0.173455858420087D+02 0.229348546230309D+02 0.951734912260593D+02
 0.000000000000000D+00 0.000000000000000D+00 -.000000000000000D+00 0.000000000000000D+00
 0.408480917590273D+03 0.000000000000000D+00 0.000000000000000D+00 0.408480917590273D+03
 0.291179756451798D+03 0.000000000000000D+00 0.000000000000000D+00 -.291179756451798D+03
 0.224294721441809D+03 -.164086576846208D+03 -.176897691289892D+02 -.128854854310361D+03
 0.389453535629419D+02 0.137363821197641D+02 0.164850837926840D+02 -.325006828043744D+02
 0.736757482879728D+02 0.718916086732379D+01 0.315653077571818D+02 0.661820458886763D+02
 0.136885803298176D+03 -.345611815568049D+02 0.449225832678526D+02 0.951734912260593D+02
 0.225859047451172D+03 0.177722215415925D+03 -.752832056887293D+02 0.117301161138475D+03
0.609250582197D-05 0.000000000000D+00 0.000000000000D+00 0.157269080935D-07 0.000000000000D+00  7 -1 1 24 -13 13 -24 21 0 0.13888338D-01 0.79772020D-01 0.20473581D+05 0.20473581D+05 0.20473581D+05 0.11830513D+01  1  2  2  2  7  2        1 0.104534077627D-02 0.100000000000D+01
-.268118538932D-06 0.000000000000D+00 -.233968265500D-07 0.157269080935D-07 0.000000000000D+00  7 -1 1 24 -13 13 -24 21 2 0.13888338D-01 0.79772020D-01 0.20473581D+05 0.20473581D+05 0.20473581D+05 0.11830513D+01  1  2  3  2  7  2        1 -.643866649701D-04 0.100000000000D+01
0.395809342651D-06 0.000000000000D+00 0.000000000000D+00 0.157269080935D-07 0.000000000000D+00  7 -1 1 24 -13 13 -24 21 2 0.13888338D-01 0.79772020D-01 0.20473581D+05 0.20473581D+05 0.20473581D+05 0.11830513D+01  1  2 15  2  7  2        1 0.950506579620D-04 0.100000000000D+01
  </mgrwgt>
  </event>
  <event>
  7     66 0.29788925E-05 0.83118293E+02 0.75467711E-02 0.96871930E-01
       -1 -1    0    0    0  501 0.00000000E+00 0.00000000E+00 0.36030685E+03 0.36030699E+03 0.32000000E+00 0.0000E+00 0.9000E+01
        1 -1    0    0  501    0 0.00000000E+00 0.00000000E+00 -.27262575E+03 0.27262593E+03 0.32000000E+00 0.0000E+00 0.9000E+01
       25  2    1    2    0    0 0.17292545E+03 -.50547023E+01 -.16087982E+02 0.34650018E+03 0.29979124E+03 0.0000E+00 0.0000E+00
       24  1    3    3    0    0 0.21887099E+03 0.46532484E+02 -.29663472E+02 0.23961828E+03 0.80419002E+02 0.0000E+00 0.9000E+01
      -13  1    1    2    0    0 -.15025629E+03 0.43442238E+02 -.17349778E+02 0.15736965E+03 0.10565837E+00 0.0000E+00 0.9000E+01
       13  1    1    2    0    0 -.22669158E+02 -.38387535E+02 0.12111886E+03 0.12906310E+03 0.10565837E+00 0.0000E+00 0.9000E+01
      -24  1    3    3    0    0 -.45945537E+02 -.51587186E+02 0.13575490E+02 0.10688190E+03 0.80419002E+02 0.0000E+00 0.9000E+01
#aMCatNLO 1  0  0  1  2 0.24294810D+03 0.00000000D+00  -5  7  0 0.00000000D+00 0.00000000D+00 0.00000000D+00 0.00000000D+00 0.00000000D+00
  <mgrwgt>
 0.1348069128D-02    7    2    0
 0.313415105593280D+03 0.000000000000000D+00 0.000000000000000D+00 0.313415105593280D+03
 0.313415105593280D+03 0.000000000000000D+00 0.000000000000000D+00 -.313415105593280D+03
 0.246105285556569D+03 0.218875877413721D+03 0.465323403297400D+02 -.634719403699076D+02
 0.161327689902389D+03 -.150257541871587D+03 0.434399747182414D+02 -.395254757900300D+02
 0.113374569372775D+03 -.226749056260708D+02 -.383850678749921D+02 0.104241202024646D+03
 0.106022666354828D+03 -.459434299160633D+02 -.515872471729893D+02 -.124378586470860D+01
 0.000000000000000D+00 -.000000000000000D+00 -.000000000000000D+00 0.000000000000000D+00
 0.128850537974950D+04 0.000000000000000D+00 0.000000000000000D+00 0.128850537974950D+04
 0.351626244690786D+03 0.000000000000000D+00 0.000000000000000D+00 -.351626244690786D+03
 0.349951655845770D+03 0.324022685277307D+03 0.835437471399748D+02 -.634719403699076D+02
 0.123678130093213D+03 -.999813851598180D+02 0.611370529912071D+02 -.395254757900300D+02
 0.108362777918693D+03 0.164404416375383D+02 -.246165659155674D+02 0.104241202024646D+03
 0.902721838541141D+02 -.113162400187827D+02 -.393985651005273D+02 -.124378586470860D+01
 0.967866876728494D+03 -.229165501736245D+03 -.806656691150872D+02 0.936879135058712D+03
0.384108500953D-04 0.000000000000D+00 0.000000000000D+00 0.577259963821D-09 0.000000000000D+00  7 -1 1 24 -13 13 -24 21 0 0.55431848D-01 0.41942448D-01 0.74198471D+05 0.74198471D+05 0.74198471D+05 0.11325154D+01  1  2  2  1  7  1       -1 0.157094763048D-02 0.100000000000D+01
-.208287985922D-05 0.000000000000D+00 -.147507778175D-06 0.577259963821D-09 0.000000000000D+00  7 -1 1 24 -13 13 -24 21 2 0.55431848D-01 0.41942448D-01 0.74198471D+05 0.74198471D+05 0.74198471D+05 0.11325154D+01  1  2  3  1  7  1       -1 -.109259757061D-03 0.100000000000D+01
0.249766121820D-05 0.000000000000D+00 0.000000000000D+00 0.577259963821D-09 0.000000000000D+00  7 -1 1 24 -13 13 -24 21 2 0.55431848D-01 0.41942448D-01 0.74198471D+05 0.74198471D+05 0.74198471D+05 0.11325154D+01  1  2 15  1  7  1       -1 0.131017570078D-03 0.100000000000D+01
0.213697072305D-05 0.000000000000D+00 0.000000000000D+00 0.577259963821D-09 0.000000000000D+00  7 -1 1 24 -13 13 -24 21 2 0.21797946D+00 0.41942448D-01 0.16980710D+06 0.16980710D+06 0.16980710D+06 0.11033261D+01  1  2 12  1  7  1       -1 0.330872566668D-05 0.100000000000D+01
-.910390101891D-04 0.000000000000D+00 -.141256023359D-04 0.577259963821D-09 0.000000000000D+00  7 -1 1 24 -13 13 -24 21 2 0.23604770D+00 0.41942448D-01 0.74198471D+05 0.74198471D+05 0.74198471D+05 0.11325154D+01  1  2  5  1  7  1       -1 -.111457368219D-03 0.100000000000D+01
0.348409053402D-06 0.000000000000D+00 0.000000000000D+00 0.577259963821D-09 0.000000000000D+00  7 21 1 24 -13 13 -24 1 2 0.21797946D+00 0.41942448D-01 0.16980710D+06 0.16980710D+06 0.16980710D+06 0.11033261D+01  1  2 12  3  7  1       -1 0.363004637408D-05 0.100000000000D+01
-.158451572203D-04 0.000000000000D+00 -.246085840357D-05 0.577259963821D-09 0.000000000000D+00  7 21 1 24 -13 13 -24 1 2 0.23604770D+00 0.41942448D-01 0.74198471D+05 0.74198471D+05 0.74198471D+05 0.11325154D+01  1  2  5  3  7  1       -1 -.140117719036D-03 0.100000000000D+01
  </mgrwgt>
  </event>
  <event>
  8     66 0.29788925E-05 0.18437200E+03 0.75467711E-02 0.97789686E-01
       -1 -1    0    0    0  501 0.00000000E+00 0.00000000E+00 0.17257188E+03 0.17257217E+03 0.32000000E+00 0.0000E+00 0.9000E+01
        1 -1    0    0  501    0 0.00000000E+00 0.00000000E+00 -.33869853E+03 0.33869868E+03 0.32000000E+00 0.0000E+00 0.9000E+01
       25  2    1    2    0    0 -.19069718E+02 0.11075812E+03 -.18671348E+03 0.36623561E+03 0.29433923E+03 0.0000E+00 0.0000E+00
       23  2    1    2    0    0 0.19069718E+02 -.11075812E+03 0.20586830E+02 0.14503524E+03 0.89333020E+02 0.0000E+00 0.0000E+00
       24  1    3    3    0    0 0.63071388E+02 0.91593185E+01 0.24200365E+02 0.10542659E+03 0.80419002E+02 0.0000E+00 0.9000E+01
      -11  1    4    4    0    0 0.22002464E+01 -.36473912E+02 0.51230905E+02 0.62926886E+02 0.51099893E-03 0.0000E+00 0.9000E+01
       11  1    4    4    0    0 0.16869471E+02 -.74284209E+02 -.30644075E+02 0.82108356E+02 0.51099893E-03 0.0000E+00 0.9000E+01
      -24  1    3    3    0    0 -.82141105E+02 0.10159880E+03 -.21091385E+03 0.26080902E+03 0.80419002E+02 0.0000E+00 0.9000E+01
#aMCatNLO 1  0  0  1  2 0.29301198D+03 0.00000000D+00  -5  7  0 0.00000000D+00 0.00000000D+00 0.00000000D+00 0.00000000D+00 0.00000000D+00
  <mgrwgt>
 0.1795365100D-02    3    2    0
 0.241764256138182D+03 0.000000000000000D+00 0.000000000000000D+00 0.241764256138182D+03
 0.241764256138182D+03 0.000000000000000D+00 0.000000000000000D+00 -.241764256138182D+03
 0.119789978549209D+03 0.630713876020452D+02 0.915931857616945D+01 0.618104356530691D+02
 0.841387852044231D+02 0.220024637477788D+01 -.364739121846278D+02 0.757901564948534D+02
 0.762908716107186D+02 0.168694714017430D+02 -.742842088858722D+02 -.419217556276404D+01
 0.203308876912014D+03 -.821411053785661D+02 0.101598802494331D+03 -.133408416585159D+03
 0.000000000000000D+00 0.000000000000000D+00 -.000000000000000D+00 -.000000000000000D+00
 0.349024888312048D+03 0.000000000000000D+00 0.000000000000000D+00 0.349024888312048D+03
 0.606263750851751D+03 0.000000000000000D+00 0.000000000000000D+00 -.606263750851751D+03
 0.110688366562202D+03 0.859603173787625D+01 0.434773138611055D+02 0.618104356530691D+02
 0.854726189958117D+02 -.378887329085593D+02 -.112189435809555D+02 0.757901564948534D+02
 0.565620182834619D+02 -.145313461070358D+02 -.545025463319575D+02 -.419217556276404D+01
 0.312658143601271D+03 -.204093938053798D+03 0.178425776276176D+03 -.133408416585159D+03
 0.389907491721053D+03 0.247917985331517D+03 -.156181600224368D+03 -.257238862539703D+03
0.161528409583D-04 0.000000000000D+00 0.000000000000D+00 0.343369085676D-08 0.000000000000D+00  7 -1 1 24 -11 11 -24 21 0 0.26549554D-01 0.52107500D-01 0.33993034D+05 0.33993034D+05 0.33993034D+05 0.11623340D+01  1  2  2  1  7  1       -1 0.176183179850D-02 0.100000000000D+01
-.817245280689D-06 0.000000000000D+00 -.620311624207D-07 0.343369085676D-08 0.000000000000D+00  7 -1 1 24 -11 11 -24 21 2 0.26549554D-01 0.52107500D-01 0.33993034D+05 0.33993034D+05 0.33993034D+05 0.11623340D+01  1  2  3  1  7  1       -1 -.120428658461D-03 0.100000000000D+01
0.104480683509D-05 0.000000000000D+00 0.000000000000D+00 0.343369085676D-08 0.000000000000D+00  7 -1 1 24 -11 11 -24 21 2 0.26549554D-01 0.52107500D-01 0.33993034D+05 0.33993034D+05 0.33993034D+05 0.11623340D+01  1  2 15  1  7  1       -1 0.153961960349D-03 0.100000000000D+01
  </mgrwgt>
  </event>
  <event>
  8     66 0.29788925E-05 0.35338309E+03 0.75467711E-02 0.89727282E-01
       -1 -1    0    0    0  501 0.00000000E+00 0.00000000E+00 0.13755297E+03 0.13755334E+03 0.32000000E+00 0.0000E+00 0.9000E+01
        1 -1    0    0  501    0 0.00000000E+00 0.00000000E+00 -.24834886E+04 0.24834886E+04 0.32000000E+00 0.0000E+00 0.9000E+01
       25  2    1    2    0    0 -.53862434E+02 0.28827630E+03 -.22641115E+04 0.23026214E+04 0.29976629E+03 0.0000E+00 0.0000E+00
       23  2    1    2    0    0 0.53862434E+02 -.28827630E+03 -.81824103E+02 0.31842057E+03 0.93231379E+02 0.0000E+00 0.0000E+00
       24  1    3    3    0    0 -.12927014E+03 0.96137611E+02 -.13549867E+04 0.13668977E+04 0.80419002E+02 0.0000E+00 0.9000E+01
      -11  1    4    4    0    0 0.31747667E+02 -.27965974E+03 -.63743251E+02 0.28858393E+03 0.51099893E-03 0.0000E+00 0.9000E+01
       11  1    4    4    0    0 0.22114767E+02 -.86165656E+01 -.18080852E+02 0.29836644E+02 0.51099893E-03 0.0000E+00 0.9000E+01
      -24  1    3    3    0    0 0.75407709E+02 0.19213869E+03 -.90912482E+03 0.93572366E+03 0.80419002E+02 0.0000E+00 0.9000E+01
#aMCatNLO 1  0  0  2  1 0.63665526D+03 0.00000000D+00  -5  7  0 0.00000000D+00 0.00000000D+00 0.00000000D+00 0.00000000D+00 0.00000000D+00
  <mgrwgt>
 0.1011051819D-02    5    2    0
 0.584475607893393D+03 0.000000000000000D+00 0.000000000000000D+00 0.584475607893393D+03
 0.584475607893393D+03 0.000000000000000D+00 0.000000000000000D+00 -.584475607893393D+03
 0.345595857411637D+03 -.129270143410875D+03 0.961376105595875D+02 -.294984864974694D+03
 0.519143153966264D+03 0.317476672511291D+02 -.279659736606343D+03 0.436224863637347D+03
 0.306142636716885D+02 0.221147669217664D+02 -.861656561688032D+01 0.193371409759978D+02
 0.273597940737196D+03 0.754077092379793D+02 0.192138691663635D+03 -.160577139638651D+03
 0.000000000000000D+00 0.000000000000000D+00 0.000000000000000D+00 -.000000000000000D+00
 0.806021635087414D+03 0.000000000000000D+00 0.000000000000000D+00 0.806021635087414D+03
 0.138686522905588D+04 0.000000000000000D+00 0.000000000000000D+00 -.138686522905588D+04
 0.346016467400322D+03 -.141101322978614D+03 -.795897345602673D+02 -.294984864974694D+03
 0.741954442336826D+03 0.101744945660377D+02 -.600083946217739D+03 0.436224863637347D+03
 0.387335848197089D+02 0.209284565876335D+02 -.262367161954295D+02 0.193371409759978D+02
 0.204376592804232D+03 0.672311595550736D+02 0.706932043568947D+02 -.160577139638651D+03
 0.861805776782208D+03 0.427672122698690D+02 0.635217192616541D+03 -.580843593968471D+03
0.303955269594D-03 0.000000000000D+00 0.000000000000D+00 0.487570343161D-05 0.000000000000D+00  7 -1 1 24 -11 11 -24 21 0 0.21162025D-01 0.38207520D+00 0.12487961D+06 0.12487961D+06 0.12487961D+06 0.11138888D+01  1  2  2  2  7  2        1 0.983122663755D-03 0.100000000000D+01
-.116884200593D-04 0.000000000000D+00 -.116726826850D-05 0.487570343161D-05 0.000000000000D+00  7 -1 1 24 -11 11 -24 21 2 0.21162025D-01 0.38207520D+00 0.12487961D+06 0.12487961D+06 0.12487961D+06 0.11138888D+01  1  2  3  2  7  2        1 -.469069817347D-04 0.100000000000D+01
0.186486669603D-04 0.000000000000D+00 0.000000000000D+00 0.487570343161D-05 0.000000000000D+00  7 -1 1 24 -11 11 -24 21 2 0.21162025D-01 0.38207520D+00 0.12487961D+06 0.12487961D+06 0.12487961D+06 0.11138888D+01  1  2 15  2  7  2        1 0.748392576621D-04 0.100000000000D+01
-.126445713839D-04 0.000000000000D+00 -.624322624911D-04 0.487570343161D-05 0.000000000000D+00  7 -1 1 24 -11 11 -24 21 2 0.21162025D-01 0.91781723D+00 0.12487961D+06 0.12487961D+06 0.12487961D+06 0.11138888D+01  1  2  5  2  7  2        1 -.312897552269D-08 0.100000000000D+01
0.270933263398D-05 0.000000000000D+00 -.598699946341D-05 0.487570343161D-05 0.000000000000D+00  7 -1 21 24 -11 11 -24 -1 2 0.21162025D-01 0.91781723D+00 0.12487961D+06 0.12487961D+06 0.12487961D+06 0.11138888D+01  1  2  5  4  7  2        1 0.818551199265D-11 0.100000000000D+01
  </mgrwgt>
  </event>
  <event>
  8     66 0.29788925E-05 0.36123462E+03 0.75467711E-02 0.94562749E-01
       -1 -1    0    0    0  501 0.00000000E+00 0.00000000E+00 0.26164640E+03 0.26164659E+03 0.32000000E+00 0.0000E+00 0.9000E+01
        1 -1    0    0  501    0 0.00000000E+00 0.00000000E+00 -.58452035E+03 0.58452044E+03 0.32000000E+00 0.0000E+00 0.9000E+01
       25  2    1    2    0    0 -.28590459E+03 0.14234247E+03 -.11345093E+03 0.45300456E+03 0.30056481E+03 0.0000E+00 0.0000E+00
       23  2    1    2    0    0 0.28590459E+03 -.14234247E+03 -.20942303E+03 0.39316247E+03 0.93359021E+02 0.0000E+00 0.0000E+00
       24  1    3    3    0    0 -.22250216E+03 0.17470727E+03 0.36292421E+01 0.29412621E+03 0.80419002E+02 0.0000E+00 0.9000E+01
      -11  1    4    4    0    0 0.14052737E+03 -.87762872E+02 -.15968114E+03 0.23010504E+03 0.51099893E-03 0.0000E+00 0.9000E+01
       11  1    4    4    0    0 0.14537723E+03 -.54579600E+02 -.49741894E+02 0.16305743E+03 0.51099893E-03 0.0000E+00 0.9000E+01
      -24  1    3    3    0    0 -.63402437E+02 -.32364801E+02 -.11708017E+03 0.15887835E+03 0.80419002E+02 0.0000E+00 0.9000E+01
#aMCatNLO 1  0  0  2  2 0.24169554D+03 0.00000000D+00  -5  7  0 0.00000000D+00 0.00000000D+00 0.00000000D+00 0.00000000D+00 0.00000000D+00
  <mgrwgt>
 0.7800847181D-03    3    2    0
 0.391072583062169D+03 0.000000000000000D+00 0.000000000000000D+00 0.391072583062169D+03
 0.391072583062169D+03 0.000000000000000D+00 0.000000000000000D+00 -.391072583062169D+03
 0.319699850287078D+03 -.222502157687025D+03 0.174707272155243D+03 0.125343277441997D+03
 0.183022823023621D+03 0.140527367006668D+03 -.877628716199451D+02 -.777630454311688D+02
 0.155870635447340D+03 0.145377227530483D+03 -.545795996382833D+02 0.134975558392090D+02
 0.123551857366299D+03 -.634024368501256D+02 -.323648008970146D+02 -.610777878500368D+02
 0.000000000000000D+00 0.000000000000000D+00 0.000000000000000D+00 0.000000000000000D+00
 0.884353589408563D+03 0.000000000000000D+00 0.000000000000000D+00 0.884353589408563D+03
 0.440062286747828D+03 0.000000000000000D+00 0.000000000000000D+00 -.440062286747828D+03
 0.367226896521805D+03 -.312360951551459D+03 0.122914914964098D+03 0.125343277441997D+03
 0.167481779463514D+03 0.946768873598341D+02 -.114189939212648D+03 -.777630454311688D+02
 0.132643718108901D+03 0.107635864359551D+03 -.763327756844540D+02 0.134975558392090D+02
 0.151285373439889D+03 -.993546576422445D+02 -.530867601065888D+02 -.610777878500368D+02
 0.505778108622283D+03 0.209402857474318D+03 0.120694560039592D+03 0.444291302660735D+03
0.300748744336D-04 0.000000000000D+00 0.000000000000D+00 0.448463229291D-06 0.000000000000D+00  7 -1 1 24 -11 11 -24 21 0 0.40253314D-01 0.89926230D-01 0.13049045D+06 0.13049045D+06 0.13049045D+06 0.11123591D+01  1  2  2  2  7  2        1 0.771392050837D-03 0.100000000000D+01
-.165803029546D-05 0.000000000000D+00 -.115495436721D-06 0.448463229291D-06 0.000000000000D+00  7 -1 1 24 -11 11 -24 21 2 0.40253314D-01 0.89926230D-01 0.13049045D+06 0.13049045D+06 0.13049045D+06 0.11123591D+01  1  2  3  2  7  2        1 -.526203596051D-04 0.100000000000D+01
0.193193008978D-05 0.000000000000D+00 0.000000000000D+00 0.448463229291D-06 0.000000000000D+00  7 -1 1 24 -11 11 -24 21 2 0.40253314D-01 0.89926230D-01 0.13049045D+06 0.13049045D+06 0.13049045D+06 0.11123591D+01  1  2 15  2  7  2        1 0.613130268696D-04 0.100000000000D+01
  </mgrwgt>
  </event>
  <event>
  8     66 0.29788925E-05 0.21102241E+03 0.75467711E-02 0.10024898E+00
       -1 -1    0    0    0  501 0.00000000E+00 0.00000000E+00 0.33757217E+02 0.33758734E+02 0.32000000E+00 0.0000E+00 0.9000E+01
        1 -1    0    0  501    0 0.00000000E+00 0.00000000E+00 -.17167103E+04 0.17167103E+04 0.32000000E+00 0.0000E+00 0.9000E+01
       25  2    1    2    0    0 0.38290922E+02 0.83377418E+02 -.14418633E+04 0.14755164E+04 0.29960083E+03 0.0000E+00 0.0000E+00
       23  2    1    2    0    0 -.38290922E+02 -.83377418E+02 -.24108977E+03 0.27495273E+03 0.95166891E+02 0.0000E+00 0.0000E+00
       24  1    3    3    0    0 0.11595181E+03 -.14039349E+02 -.98591750E+03 0.99606348E+03 0.80419002E+02 0.0000E+00 0.9000E+01
      -13  1    4    4    0    0 -.63875445E+02 -.25692580E+02 -.11752049E+03 0.13620300E+03 0.10565837E+00 0.0000E+00 0.9000E+01
       13  1    4    4    0    0 0.25584523E+02 -.57684838E+02 -.12356928E+03 0.13874973E+03 0.10565837E+00 0.0000E+00 0.9000E+01
      -24  1    3    3    0    0 -.77660888E+02 0.97416767E+02 -.45594583E+03 0.47945287E+03 0.80419002E+02 0.0000E+00 0.9000E+01
#aMCatNLO 1  0  0  2  2 0.17839624D+03 0.00000000D+00  -5  7  0 0.00000000D+00 0.00000000D+00 0.00000000D+00 0.00000000D+00 0.00000000D+00
  <mgrwgt>
 0.5817215602D-03    3    2    0
 0.240733705434109D+03 0.000000000000000D+00 0.000000000000000D+00 0.240733705434109D+03
 0.240733705434109D+03 0.000000000000000D+00 0.000000000000000D+00 -.240733705434109D+03
 0.175142521890024D+03 0.115951812216200D+03 -.140393386967783D+02 -.102789888765204D+03
 0.844037979732503D+02 -.638755395555841D+02 -.256925585421443D+02 0.488242664496944D+02
 0.725195366255231D+02 0.255846103010980D+02 -.576848763605690D+02 0.357346603088291D+02
 0.149401554379421D+03 -.776608829617141D+02 0.974167735994916D+02 0.182309620066805D+02
 0.000000000000000D+00 0.000000000000000D+00 -.000000000000000D+00 0.000000000000000D+00
 0.449186024928494D+03 0.000000000000000D+00 0.000000000000000D+00 0.449186024928494D+03
 0.298067890513978D+03 0.000000000000000D+00 0.000000000000000D+00 -.298067890513978D+03
 0.159938274439735D+03 0.846242564267481D+02 0.372291507859974D+02 -.102789888765204D+03
 0.942286673232031D+02 -.805763430145647D+02 0.163880979840582D+01 0.488242664496944D+02
 0.541563784741770D+02 0.137413568501891D+02 -.383030350490227D+02 0.357346603088291D+02
 0.205131728619302D+03 -.110807101199270D+03 0.151661559005893D+03 0.182309620066805D+02
 0.233798866586054D+03 0.930178309368972D+02 -.152226484541274D+03 0.151118134414516D+03
0.619522254448D-05 0.000000000000D+00 0.000000000000D+00 0.379723831573D-07 0.000000000000D+00  7 -1 1 24 -13 13 -24 21 0 0.51935370D-02 0.26410940D+00 0.44530459D+05 0.44530459D+05 0.44530459D+05 0.11517473D+01  1  2  2  2  7  2        1 0.574815284241D-03 0.100000000000D+01
-.336917710556D-06 0.000000000000D+00 -.237912858104D-07 0.379723831573D-07 0.000000000000D+00  7 -1 1 24 -13 13 -24 21 2 0.51935370D-02 0.26410940D+00 0.44530459D+05 0.44530459D+05 0.44530459D+05 0.11517473D+01  1  2  3  2  7  2        1 -.414676743985D-04 0.100000000000D+01
0.393030013246D-06 0.000000000000D+00 0.000000000000D+00 0.379723831573D-07 0.000000000000D+00  7 -1 1 24 -13 13 -24 21 2 0.51935370D-02 0.26410940D+00 0.44530459D+05 0.44530459D+05 0.44530459D+05 0.11517473D+01  1  2 15  2  7  2        1 0.483739503964D-04 0.100000000000D+01
  </mgrwgt>
  </event>
  <event>
  8     66 0.29788925E-05 0.11442097E+03 0.75467711E-02 0.10185246E+00
       -1 -1    0    0    0  501 0.00000000E+00 0.00000000E+00 0.29188586E+03 0.29188603E+03 0.32000000E+00 0.0000E+00 0.9000E+01
        1 -1    0    0  501    0 0.00000000E+00 0.00000000E+00 -.28775157E+03 0.28775175E+03 0.32000000E+00 0.0000E+00 0.9000E+01
       25  2    1    2    0    0 -.10948132E+03 0.72116832E+02 -.14998394E+03 0.35765458E+03 0.29704313E+03 0.0000E+00 0.0000E+00
       23  2    1    2    0    0 0.10948132E+03 -.72116832E+02 0.15411823E+03 0.22198320E+03 0.91307816E+02 0.0000E+00 0.0000E+00
       24  1    3    3    0    0 -.27073182E+02 -.90273180E+02 -.39815715E+02 0.13013344E+03 0.80419002E+02 0.0000E+00 0.9000E+01
      -13  1    4    4    0    0 0.11257728E+03 -.49890829E+02 0.15681237E+03 0.19938122E+03 0.10565837E+00 0.0000E+00 0.9000E+01
       13  1    4    4    0    0 -.30959597E+01 -.22226003E+02 -.26941435E+01 0.22601986E+02 0.10565837E+00 0.0000E+00 0.9000E+01
      -24  1    3    3    0    0 -.82408136E+02 0.16239001E+03 -.11016823E+03 0.22752114E+03 0.80419002E+02 0.0000E+00 0.9000E+01
#aMCatNLO 1  0  0  2  1 0.80339041D+02 0.00000000D+00  -5  7  0 0.00000000D+00 0.00000000D+00 0.00000000D+00 0.00000000D+00 0.00000000D+00
  <mgrwgt>
 0.9852212622D-03    9    2    0
 0.289811519112375D+03 0.000000000000000D+00 0.000000000000000D+00 0.289811519112375D+03
 0.289811519112375D+03 0.000000000000000D+00 0.000000000000000D+00 -.289811519112375D+03
 0.130420740871901D+03 -.270731825845956D+02 -.902731794392052D+02 -.407449328614393D+02
 0.198268025168398D+03 0.112577432949069D+03 -.498908668543391D+02 0.155394442626811D+03
 0.226215415148216D+02 -.309611402511956D+01 -.222259658397805D+02 -.285563669593363D+01
 0.228312730669630D+03 -.824081363393539D+02 0.162390012133325D+03 -.111793873069438D+03
 0.000000000000000D+00 0.000000000000000D+00 0.000000000000000D+00 -.000000000000000D+00
 0.318911882395996D+03 0.000000000000000D+00 0.000000000000000D+00 0.318911882395996D+03
 0.353866071019030D+03 0.000000000000000D+00 0.000000000000000D+00 -.353866071019030D+03
 0.144501787451285D+03 -.358090460938174D+02 -.107103283265330D+03 -.407449328614393D+02
 0.199112421716856D+03 0.999503799156332D+02 -.742175534316154D+02 0.155394442626811D+03
 0.257697573376228D+02 -.463378277997679D+01 -.251883661528252D+02 -.285563669593363D+01
 0.215780307786523D+03 -.965195159815051D+02 0.135203691713305D+03 -.111793873069438D+03
 0.876136791227392D+02 0.370119649396661D+02 0.713055111364652D+02 -.349541886230345D+02
0.132721857373D-04 0.000000000000D+00 0.000000000000D+00 0.994679813658D-07 0.000000000000D+00  7 -1 1 24 -13 13 -24 21 0 0.44905544D-01 0.44269500D-01 0.54882550D+05 0.54882550D+05 0.54882550D+05 0.11437531D+01  1  2  2  2  7  2        1 0.739150409869D-03 0.100000000000D+01
-.696763592863D-06 0.000000000000D+00 -.509686878779D-07 0.994679813658D-07 0.000000000000D+00  7 -1 1 24 -13 13 -24 21 2 0.44905544D-01 0.44269500D-01 0.54882550D+05 0.54882550D+05 0.54882550D+05 0.11437531D+01  1  2  3  2  7  2        1 -.507621935405D-04 0.100000000000D+01
0.830837650150D-06 0.000000000000D+00 0.000000000000D+00 0.994679813658D-07 0.000000000000D+00  7 -1 1 24 -13 13 -24 21 2 0.44905544D-01 0.44269500D-01 0.54882550D+05 0.54882550D+05 0.54882550D+05 0.11437531D+01  1  2 15  2  7  2        1 0.605300593052D-04 0.100000000000D+01
0.112593096629D-04 0.000000000000D+00 0.000000000000D+00 0.994679813658D-07 0.000000000000D+00  7 -1 1 24 -13 13 -24 21 2 0.44905544D-01 0.55894250D-01 0.76630190D+05 0.76630190D+05 0.76630190D+05 0.11313336D+01  1  2 12  2  7  2        1 0.589665906963D-03 0.100000000000D+01
-.122450810557D-04 0.000000000000D+00 0.000000000000D+00 0.994679813658D-07 0.000000000000D+00  7 -1 1 24 -13 13 -24 21 2 0.44905544D-01 0.44269500D-01 0.54882550D+05 0.54882550D+05 0.54882550D+05 0.11437531D+01  1  2  4  2  7  2        1 -.892106276558D-03 0.100000000000D+01
-.216058836628D-04 0.000000000000D+00 -.740002733774D-05 0.994679813658D-07 0.000000000000D+00  7 -1 1 24 -13 13 -24 21 2 0.44905544D-01 0.58668184D-01 0.54882550D+05 0.54882550D+05 0.54882550D+05 0.11437531D+01  1  2  5  2  7  2        1 -.108890298327D-02 0.100000000000D+01
0.230536337866D-04 0.000000000000D+00 0.711600997013D-05 0.994679813658D-07 0.000000000000D+00  7 -1 1 24 -13 13 -24 21 2 0.44905544D-01 0.44269500D-01 0.54882550D+05 0.54882550D+05 0.54882550D+05 0.11437531D+01  1  2  6  2  7  2        1 0.167955535001D-02 0.100000000000D+01
0.361847784557D-06 0.000000000000D+00 0.000000000000D+00 0.994679813658D-07 0.000000000000D+00  7 -1 21 24 -13 13 -24 -1 2 0.44905544D-01 0.55894250D-01 0.76630190D+05 0.76630190D+05 0.76630190D+05 0.11313336D+01  1  2 12  4  7  2        1 0.775352304587D-04 0.100000000000D+01
-.647509492758D-06 0.000000000000D+00 -.273232161819D-06 0.994679813658D-07 0.000000000000D+00  7 -1 21 24 -13 13 -24 -1 2 0.44905544D-01 0.58668184D-01 0.54882550D+05 0.54882550D+05 0.54882550D+05 0.11437531D+01  1  2  5  4  7  2        1 -.129444241040D-03 0.100000000000D+01
  </mgrwgt>
  </event>
  <event>
  8     66 0.29788925E-05 0.24338867E+03 0.75467711E-02 0.92125435E-01
       -1 -1    0    0    0  501 0.00000000E+00 0.00000000E+00 0.62198447E+03 0.62198456E+03 0.32000000E+00 0.0000E+00 0.9000E+01
        1 -1    0    0  501    0 0.00000000E+00 0.00000000E+00 -.13376932E+03 0.13376970E+03 0.32000000E+00 0.0000E+00 0.9000E+01
       25  2    1    2    0    0 -.21168884E+02 -.13296482E+03 0.49432677E+03 0.59367431E+03 0.29993744E+03 0.0000E+00 0.0000E+00
       23  2    1    2    0    0 0.21168884E+02 0.13296482E+03 -.61116163E+01 0.16207995E+03 0.90026616E+02 0.0000E+00 0.0000E+00
       24  1    3    3    0    0 -.11683307E+03 -.14248581E+03 0.33841453E+03 0.39362900E+03 0.80419002E+02 0.0000E+00 0.9000E+01
      -11  1    4    4    0    0 -.33142825E+02 0.68525353E+02 0.83409348E+01 0.76575074E+02 0.51099893E-03 0.0000E+00 0.9000E+01
       11  1    4    4    0    0 0.54311709E+02 0.64439471E+02 -.14452551E+02 0.85504874E+02 0.51099893E-03 0.0000E+00 0.9000E+01
      -24  1    3    3    0    0 0.95664191E+02 0.95209887E+01 0.15591224E+03 0.20004531E+03 0.80419002E+02 0.0000E+00 0.9000E+01
#aMCatNLO 1  0  0  2  1 0.53910936D+03 0.00000000D+00  -5  7  0 0.00000000D+00 0.00000000D+00 0.00000000D+00 0.00000000D+00 0.00000000D+00
  <mgrwgt>
 0.4559003650D-03    5    2    0
 0.288448636722921D+03 0.000000000000000D+00 0.000000000000000D+00 0.288448636722921D+03
 0.288448636722921D+03 0.000000000000000D+00 0.000000000000000D+00 -.288448636722921D+03
 0.229274245563620D+03 -.116833074947759D+03 -.142485812702007D+03 0.110214742667650D+03
 0.932571015962127D+02 -.331428247611918D+02 0.685253525705912D+02 -.538768616388468D+02
 0.124245043753758D+03 0.543117087591863D+02 0.644394714606466D+02 -.912941603110681D+02
 0.130120882532252D+03 0.956641909497647D+02 0.952098867076892D+01 0.349562792822646D+02
 0.000000000000000D+00 -.000000000000000D+00 0.000000000000000D+00 -.000000000000000D+00
 0.620931970455602D+03 0.000000000000000D+00 0.000000000000000D+00 0.620931970455602D+03
 0.716101168853169D+03 0.000000000000000D+00 0.000000000000000D+00 -.716101168853169D+03
 0.282657466184430D+03 0.599329184650110D+02 -.240184893401732D+03 0.110214742667650D+03
 0.695553296135660D+02 0.230750271168903D+02 0.374535816866042D+02 -.538768616388468D+02
 0.185342846730306D+03 0.161209972246549D+03 0.535648909805708D+01 -.912941603110681D+02
 0.252032454176262D+03 0.227618732247123D+03 -.634106715994384D+02 0.349562792822646D+02
 0.547445042604208D+03 -.471836650075573D+03 0.260785494216509D+03 -.951691983975678D+02
0.109913471711D-04 0.000000000000D+00 0.000000000000D+00 0.688122501885D-06 0.000000000000D+00  7 -1 1 24 -11 11 -24 21 0 0.95689955D-01 0.20579931D-01 0.59238045D+05 0.59238045D+05 0.59238045D+05 0.11408746D+01  1  2  2  2  7  2        1 0.387984884557D-03 0.100000000000D+01
-.589209934292D-06 0.000000000000D+00 -.422096672250D-07 0.688122501885D-06 0.000000000000D+00  7 -1 1 24 -11 11 -24 21 2 0.95689955D-01 0.20579931D-01 0.59238045D+05 0.59238045D+05 0.59238045D+05 0.11408746D+01  1  2  3  2  7  2        1 -.270713424624D-04 0.100000000000D+01
0.706647786503D-06 0.000000000000D+00 0.000000000000D+00 0.688122501885D-06 0.000000000000D+00  7 -1 1 24 -11 11 -24 21 2 0.95689955D-01 0.20579931D-01 0.59238045D+05 0.59238045D+05 0.59238045D+05 0.11408746D+01  1  2 15  2  7  2        1 0.324670429254D-04 0.100000000000D+01
0.832233367697D-05 0.000000000000D+00 -.485205874963D-05 0.688122501885D-06 0.000000000000D+00  7 -1 1 24 -11 11 -24 21 2 0.95689955D-01 0.10400830D+00 0.59238045D+05 0.59238045D+05 0.59238045D+05 0.11408746D+01  1  2  5  2  7  2        1 0.445584472821D-04 0.100000000000D+01
0.149658144190D-05 0.000000000000D+00 -.958670887341D-06 0.688122501885D-06 0.000000000000D+00  7 -1 21 24 -11 11 -24 -1 2 0.95689955D-01 0.10400830D+00 0.59238045D+05 0.59238045D+05 0.59238045D+05 0.11408746D+01  1  2  5  4  7  2        1 0.179613327196D-04 0.100000000000D+01
  </mgrwgt>
  </event>
  <event>
  9     66 0.29788925E-05 0.16860528E+03 0.75467711E-02 0.10200537E+00
       -1 -1    0    0    0  501 0.00000000E+00 0.00000000E+00 0.16593650E+03 0.16593681E+03 0.32000000E+00 0.0000E+00 0.9000E+01
        1 -1    0    0  502    0 0.00000000E+00 0.00000000E+00 -.14484946E+04 0.14484946E+04 0.32000000E+00 0.0000E+00 0.9000E+01
       25  2    1    2    0    0 -.20238224E+02 0.65396481E+02 -.12431769E+04 0.12807130E+04 0.30008430E+03 0.0000E+00 0.0000E+00
       23  2    1    2    0    0 -.11337058E+03 0.29326537E+02 0.36788625E+02 0.15309129E+03 0.91491027E+02 0.0000E+00 0.0000E+00
       24  1    3    3    0    0 0.53651364E+02 0.83977957E+02 -.24536729E+03 0.27677263E+03 0.80419002E+02 0.0000E+00 0.9000E+01
      -11  1    4    4    0    0 -.10354106E+03 0.54941462E+02 0.15233631E+02 0.11820059E+03 0.51099893E-03 0.0000E+00 0.9000E+01
       11  1    4    4    0    0 -.98295196E+01 -.25614925E+02 0.21554995E+02 0.34890710E+02 0.51099893E-03 0.0000E+00 0.9000E+01
      -24  1    3    3    0    0 -.73889588E+02 -.18581476E+02 -.99780966E+03 0.10039404E+04 0.80419002E+02 0.0000E+00 0.9000E+01
       21  1    1    2  502  501 0.13360880E+03 -.94723018E+02 -.76169757E+02 0.18062712E+03 0.75000000E+00 0.0000E+00 0.9000E+01
#aMCatNLO 2  0  0  2  1 0.16377961D+03 0.00000000D+00  -5  7  0 0.00000000D+00 0.00000000D+00 0.00000000D+00 0.00000000D+00 0.00000000D+00
  <mgrwgt>
 0.6346074143D-04    1    2    0
 0.378681336776702D+03 0.000000000000000D+00 0.000000000000000D+00 0.378681336776702D+03
 0.378681336776702D+03 0.000000000000000D+00 0.000000000000000D+00 -.378681336776702D+03
 0.132094181937428D+03 0.765165370704254D+02 0.677675113741114D+02 -.231179779448288D+02
 0.222899767290917D+03 -.629645464305167D+02 0.261744228339653D+02 0.212213740696622D+03
 0.101857615393529D+03 0.760829283570310D+01 -.379776001427696D+02 0.942061016133151D+02
 0.300511108931530D+03 -.211602834756117D+02 -.559643340653071D+02 -.283301864365108D+03
 0.000000000000000D+00 0.000000000000000D+00 -.000000000000000D+00 0.000000000000000D+00
 0.565391219344640D+03 0.000000000000000D+00 0.000000000000000D+00 0.565391219344640D+03
 0.425117490940390D+03 0.000000000000000D+00 0.000000000000000D+00 -.425117490940390D+03
 0.130124644009383D+03 0.536513637748769D+02 0.839779571377897D+02 -.231179779448288D+02
 0.242433468260339D+03 -.103541057413813D+03 0.549414617744518D+02 0.212213740696622D+03
 0.981199949632406D+02 -.982951964601672D+01 -.256149248278555D+02 0.942061016133151D+02
 0.304190901803980D+03 -.738895877797912D+02 -.185814760160397D+02 -.283301864365108D+03
 0.215639701248086D+03 0.133608801064744D+03 -.947230180683463D+02 0.140273728404250D+03
0.420292583332D-05 0.000000000000D+00 0.000000000000D+00 0.483253906894D-05 0.130860155944D-08  7 -1 1 24 -11 11 -24 21 2 0.25528681D-01 0.22284502D+00 0.74874744D+05 0.74874744D+05 0.74874744D+05 0.11321825D+01  1  2  1  2  7  2        1 0.634607414339D-04 0.100000000000D+01
  </mgrwgt>
  </event>
  <event>
  8     66 0.29788925E-05 0.39378615E+03 0.75467711E-02 0.91628558E-01
       -1 -1    0    0    0  501 0.00000000E+00 0.00000000E+00 0.14617231E+03 0.14617266E+03 0.32000000E+00 0.0000E+00 0.9000E+01
        1 -1    0    0  501    0 0.00000000E+00 0.00000000E+00 -.16022933E+04 0.16022933E+04 0.32000000E+00 0.0000E+00 0.9000E+01
       25  2    1    2    0    0 -.31848467E+03 0.10194331E+03 -.12861678E+04 0.13623632E+04 0.29996810E+03 0.0000E+00 0.0000E+00
       23  2    1    2    0    0 0.31848467E+03 -.10194331E+03 -.16995317E+03 0.38610281E+03 0.91467894E+02 0.0000E+00 0.0000E+00
       24  1    3    3    0    0 -.43762326E+02 -.65249797E+02 -.42424776E+03 0.43889184E+03 0.80419002E+02 0.0000E+00 0.9000E+01
      -11  1    4    4    0    0 0.20021557E+02 0.12933991E+02 0.22182912E+00 0.23836947E+02 0.51099893E-03 0.0000E+00 0.9000E+01
       11  1    4    4    0    0 0.29846312E+03 -.11487730E+03 -.17017500E+03 0.36226587E+03 0.51099893E-03 0.0000E+00 0.9000E+01
      -24  1    3    3    0    0 -.27472235E+03 0.16719311E+03 -.86192006E+03 0.92347134E+03 0.80419002E+02 0.0000E+00 0.9000E+01
#aMCatNLO 1  0  0  2  1 0.43199682D+03 0.00000000D+00  -5  7  0 0.00000000D+00 0.00000000D+00 0.00000000D+00 0.00000000D+00 0.00000000D+00
  <mgrwgt>
 0.1011840721D-02    3    2    0
 0.483953770858509D+03 0.000000000000000D+00 0.000000000000000D+00 0.483953770858509D+03
 0.483953770858509D+03 0.000000000000000D+00 0.000000000000000D+00 -.483953770858509D+03
 0.154592663786904D+03 -.437623256622891D+02 -.652497965649408D+02 -.106108428709607D+03
 0.433937131551046D+02 0.200215570426996D+02 0.129339905233733D+02 0.362610463736876D+02
 0.398399787911264D+03 0.298463117499789D+03 -.114877302993035D+03 0.237582330481655D+03
 0.371521376863746D+03 -.274722348880199D+03 0.167193109034603D+03 -.167734948145735D+03
 0.000000000000000D+00 0.000000000000000D+00 0.000000000000000D+00 0.000000000000000D+00
 0.108617842374136D+04 0.000000000000000D+00 0.000000000000000D+00 0.108617842374136D+04
 0.613849211889910D+03 0.000000000000000D+00 0.000000000000000D+00 -.613849211889910D+03
 0.203293878482522D+03 -.100416716476066D+03 -.116269813292356D+03 -.106108428709607D+03
 0.370162991954273D+02 0.729243837799677D+01 0.147080403650248D+01 0.362610463736876D+02
 0.371603350491805D+03 0.176569574215668D+03 -.224648329174599D+03 0.237582330481655D+03
 0.448023384419405D+03 -.404458462735425D+03 0.503594690648332D+02 -.167734948145735D+03
 0.640090723042110D+03 0.321013166617827D+03 0.289087869365620D+03 0.472329211851451D+03
0.892624630924D-04 0.000000000000D+00 0.000000000000D+00 0.674200011181D-05 0.000000000000D+00  7 -1 1 24 -11 11 -24 21 0 0.22488078D-01 0.24650669D+00 0.15506753D+06 0.15506753D+06 0.15506753D+06 0.11064150D+01  1  2  2  2  7  2        1 0.997807763477D-03 0.100000000000D+01
-.470270910523D-05 0.000000000000D+00 -.342791361621D-06 0.674200011181D-05 0.000000000000D+00  7 -1 1 24 -11 11 -24 21 2 0.22488078D-01 0.24650669D+00 0.15506753D+06 0.15506753D+06 0.15506753D+06 0.11064150D+01  1  2  3  2  7  2        1 -.643520272702D-04 0.100000000000D+01
0.572820777889D-05 0.000000000000D+00 0.000000000000D+00 0.674200011181D-05 0.000000000000D+00  7 -1 1 24 -11 11 -24 21 2 0.22488078D-01 0.24650669D+00 0.15506753D+06 0.15506753D+06 0.15506753D+06 0.11064150D+01  1  2 15  2  7  2        1 0.783849851112D-04 0.100000000000D+01
  </mgrwgt>
  </event>
  <event>
  8     66 0.29788925E-05 0.39887921E+03 0.75467711E-02 0.92784563E-01
       -1 -1    0    0    0  501 0.00000000E+00 0.00000000E+00 0.27465142E+03 0.27465160E+03 0.32000000E+00 0.0000E+00 0.9000E+01
        1 -1    0    0  501    0 0.00000000E+00 0.00000000E+00 -.13563891E+04 0.13563892E+04 0.32000000E+00 0.0000E+00 0.9000E+01
       25  2    1    2    0    0 0.51672057E+03 0.21974646E+03 -.44153437E+03 0.77465604E+03 0.29975111E+03 0.0000E+00 0.0000E+00
       23  2    1    2    0    0 -.51672057E+03 -.21974646E+03 -.64020334E+03 0.85638473E+03 0.90806622E+02 0.0000E+00 0.0000E+00
       24  1    3    3    0    0 0.23753470E+03 0.19210356E+03 -.34375323E+03 0.46686188E+03 0.80419002E+02 0.0000E+00 0.9000E+01
      -13  1    4    4    0    0 -.22561789E+03 -.99247415E+02 -.21429680E+03 0.32661386E+03 0.10565837E+00 0.0000E+00 0.9000E+01
       13  1    4    4    0    0 -.29110267E+03 -.12049904E+03 -.42590654E+03 0.52977087E+03 0.10565837E+00 0.0000E+00 0.9000E+01
      -24  1    3    3    0    0 0.27918587E+03 0.27642899E+02 -.97781137E+02 0.30779416E+03 0.80419002E+02 0.0000E+00 0.9000E+01
#aMCatNLO 1  0  0  1  2 0.10848923D+02 0.00000000D+00  -5  7  0 0.00000000D+00 0.00000000D+00 0.00000000D+00 0.00000000D+00 0.00000000D+00
  <mgrwgt>
 0.6033164916D-03    9    2    0
 0.610355944243493D+03 0.000000000000000D+00 0.000000000000000D+00 0.610355944243493D+03
 0.610355944243493D+03 0.000000000000000D+00 0.000000000000000D+00 -.610355944243493D+03
 0.319174346313724D+03 0.237534698951213D+03 0.192103559557735D+03 -.455909704856845D+02
 0.246501613480767D+03 -.225617803713613D+03 -.992473866296258D+02 0.309973277182262D+01
 0.330429210578244D+03 -.291102762567701D+03 -.120499071908673D+03 -.996123410926711D+02
 0.324606718114252D+03 0.279185867330101D+03 0.276428989805633D+02 0.142103578806533D+03
 0.000000000000000D+00 0.000000000000000D+00 -.000000000000000D+00 0.000000000000000D+00
 0.616757675313922D+03 0.000000000000000D+00 0.000000000000000D+00 0.616757675313922D+03
 0.614993799431601D+03 0.000000000000000D+00 0.000000000000000D+00 -.614993799431601D+03
 0.320229300132849D+03 0.236733099334800D+03 0.194829391516570D+03 -.455909704856845D+02
 0.246230842165582D+03 -.226235526414500D+03 -.971468263931931D+02 0.309973277182262D+01
 0.330144750656119D+03 -.291930902721235D+03 -.117682989102900D+03 -.996123410926711D+02
 0.324155203798904D+03 0.278372535547214D+03 0.304086260611852D+02 0.142103578806533D+03
 0.109913779920696D+02 0.306079425372108D+01 -.104082020816616D+02 0.176387588232109D+01
0.677747131343D-04 0.000000000000D+00 0.000000000000D+00 0.104042408539D-04 0.000000000000D+00  7 -1 1 24 -13 13 -24 21 0 0.42254081D-01 0.20867527D+00 0.34180972D+06 0.34180972D+06 0.34180972D+06 0.10803844D+01  1  2  2  1  7  1       -1 0.370064346173D-03 0.100000000000D+01
-.375678230742D-05 0.000000000000D+00 -.260272743928D-06 0.104042408539D-04 0.000000000000D+00  7 -1 1 24 -13 13 -24 21 2 0.42254081D-01 0.20867527D+00 0.34180972D+06 0.34180972D+06 0.34180972D+06 0.10803844D+01  1  2  3  1  7  1       -1 -.239432004952D-04 0.100000000000D+01
0.430136265214D-05 0.000000000000D+00 0.000000000000D+00 0.104042408539D-04 0.000000000000D+00  7 -1 1 24 -13 13 -24 21 2 0.42254081D-01 0.20867527D+00 0.34180972D+06 0.34180972D+06 0.34180972D+06 0.10803844D+01  1  2 15  1  7  1       -1 0.274139888754D-04 0.100000000000D+01
0.329045826236D-04 0.000000000000D+00 0.000000000000D+00 0.104042408539D-04 0.000000000000D+00  7 -1 1 24 -13 13 -24 21 2 0.42856350D-01 0.20867527D+00 0.34817862D+06 0.34817862D+06 0.34817862D+06 0.10797987D+01  1  2 12  1  7  1       -1 0.204133422161D-03 0.100000000000D+01
-.278441814414D-04 0.000000000000D+00 0.000000000000D+00 0.104042408539D-04 0.000000000000D+00  7 -1 1 24 -13 13 -24 21 2 0.42254081D-01 0.20867527D+00 0.34180972D+06 0.34180972D+06 0.34180972D+06 0.10803844D+01  1  2  4  1  7  1       -1 -.177460061383D-03 0.100000000000D+01
-.412693938567D-02 0.000000000000D+00 -.487523802646D-03 0.104042408539D-04 0.000000000000D+00  7 -1 1 24 -13 13 -24 21 2 0.43013620D-01 0.20867527D+00 0.34180972D+06 0.34180972D+06 0.34180972D+06 0.10803844D+01  1  2  5  1  7  1       -1 -.254835492077D-01 0.100000000000D+01
0.413504614013D-02 0.000000000000D+00 0.487446441727D-03 0.104042408539D-04 0.000000000000D+00  7 -1 1 24 -13 13 -24 21 2 0.42254081D-01 0.20867527D+00 0.34180972D+06 0.34180972D+06 0.34180972D+06 0.10803844D+01  1  2  6  1  7  1       -1 0.263539994305D-01 0.100000000000D+01
0.189809646289D-05 0.000000000000D+00 0.000000000000D+00 0.104042408539D-04 0.000000000000D+00  7 21 1 24 -13 13 -24 1 2 0.42856350D-01 0.20867527D+00 0.34817862D+06 0.34817862D+06 0.34817862D+06 0.10797987D+01  1  2 12  3  7  1       -1 0.111131398568D-03 0.100000000000D+01
-.133680335716D-04 0.000000000000D+00 -.158589653127D-05 0.104042408539D-04 0.000000000000D+00  7 21 1 24 -13 13 -24 1 2 0.43013620D-01 0.20867527D+00 0.34180972D+06 0.34180972D+06 0.34180972D+06 0.10803844D+01  1  2  5  3  7  1       -1 -.778473625108D-03 0.100000000000D+01
  </mgrwgt>
  </event>
  <event>
  8     66 0.29788925E-05 0.10186202E+03 0.75467711E-02 0.10447429E+00
       -1 -1    0    0    0  501 0.00000000E+00 0.00000000E+00 0.95921733E+02 0.95922267E+02 0.32000000E+00 0.0000E+00 0.9000E+01
        1 -1    0    0  501    0 0.00000000E+00 0.00000000E+00 -.10002752E+04 0.10002752E+04 0.32000000E+00 0.0000E+00 0.9000E+01
       25  2    1    2    0    0 0.13834983E+02 -.12909144E+03 -.87601591E+03 0.93390090E+03 0.29649790E+03 0.0000E+00 0.0000E+00
       23  2    1    2    0    0 -.13834983E+02 0.12909144E+03 -.28337525E+02 0.16229659E+03 0.93172746E+02 0.0000E+00 0.0000E+00
       24  1    3    3    0    0 -.36463417E+02 -.10317799E+03 -.79494132E+03 0.80645780E+03 0.80419002E+02 0.0000E+00 0.9000E+01
      -13  1    4    4    0    0 -.36943193E+02 0.12862827E+03 -.34834565E+02 0.13828770E+03 0.10565837E+00 0.0000E+00 0.9000E+01
       13  1    4    4    0    0 0.23108210E+02 0.46317402E+00 0.64970403E+01 0.24008886E+02 0.10565837E+00 0.0000E+00 0.9000E+01
      -24  1    3    3    0    0 0.50298400E+02 -.25913451E+02 -.81074596E+02 0.12744309E+03 0.80419002E+02 0.0000E+00 0.9000E+01
#aMCatNLO 1  0  0  2  1 0.62620370D+02 0.00000000D+00  -5  7  0 0.00000000D+00 0.00000000D+00 0.00000000D+00 0.00000000D+00 0.00000000D+00
  <mgrwgt>
 0.1491428772D-02    9    2    0
 0.309755466104455D+03 0.000000000000000D+00 0.000000000000000D+00 0.309755466104455D+03
 0.309755466104455D+03 0.000000000000000D+00 0.000000000000000D+00 -.309755466104455D+03
 0.266547530325275D+03 -.364634163578086D+02 -.103177992319818D+03 -.229357997760055D+03
 0.193843212196402D+03 -.369432695037962D+02 0.128628433483290D+03 0.140232349522584D+03
 0.519667796623063D+02 0.231082865413430D+02 0.463010557457039D+00 0.465439459308895D+02
 0.107153410024928D+03 0.502983993202618D+02 -.259134517209290D+02 0.425817023065821D+02
 0.000000000000000D+00 0.000000000000000D+00 -.000000000000000D+00 -.000000000000000D+00
 0.318758175303721D+03 0.000000000000000D+00 0.000000000000000D+00 0.318758175303721D+03
 0.443376824900021D+03 0.000000000000000D+00 0.000000000000000D+00 -.443376824900021D+03
 0.262763228933921D+03 -.546042485575663D+02 -.836097089360539D+02 -.229357997760055D+03
 0.206904553210515D+03 -.506779194036952D+02 0.143443824445430D+03 0.140232349522584D+03
 0.506779092934916D+02 0.195903907760093D+02 0.425771966961728D+01 0.465439459308895D+02
 0.102322041693984D+03 0.431191403440799D+02 -.181692770003650D+02 0.425817023065821D+02
 0.139467267071830D+03 0.425726368411722D+02 -.459225581786286D+02 -.124618649596300D+03
0.267071926591D-04 0.000000000000D+00 0.000000000000D+00 0.179895770467D-07 0.000000000000D+00  7 -1 1 24 -13 13 -24 21 0 0.14757235D-01 0.15388853D+00 0.38234702D+05 0.38234702D+05 0.38234702D+05 0.11576870D+01  1  2  2  2  7  2        1 0.155830847737D-02 0.100000000000D+01
-.110194988400D-05 0.000000000000D+00 -.102562651976D-06 0.179895770467D-07 0.000000000000D+00  7 -1 1 24 -13 13 -24 21 2 0.14757235D-01 0.15388853D+00 0.38234702D+05 0.38234702D+05 0.38234702D+05 0.11576870D+01  1  2  3  2  7  2        1 -.861726279344D-04 0.100000000000D+01
0.165935103671D-05 0.000000000000D+00 0.000000000000D+00 0.179895770467D-07 0.000000000000D+00  7 -1 1 24 -13 13 -24 21 2 0.14757235D-01 0.15388853D+00 0.38234702D+05 0.38234702D+05 0.38234702D+05 0.11576870D+01  1  2 15  2  7  2        1 0.129761472436D-03 0.100000000000D+01
0.687375890377D-04 0.000000000000D+00 0.000000000000D+00 0.179895770467D-07 0.000000000000D+00  7 -1 1 24 -13 13 -24 21 2 0.14757235D-01 0.22176448D+00 0.51997234D+05 0.51997234D+05 0.51997234D+05 0.11458022D+01  1  2 12  2  7  2        1 0.259757651117D-02 0.100000000000D+01
-.732632214197D-04 0.000000000000D+00 0.000000000000D+00 0.179895770467D-07 0.000000000000D+00  7 -1 1 24 -13 13 -24 21 2 0.14757235D-01 0.15388853D+00 0.38234702D+05 0.38234702D+05 0.38234702D+05 0.11576870D+01  1  2  4  2  7  2        1 -.572919368869D-02 0.100000000000D+01
-.774845056778D-04 0.000000000000D+00 -.107682303542D-04 0.179895770467D-07 0.000000000000D+00  7 -1 1 24 -13 13 -24 21 2 0.14757235D-01 0.22266208D+00 0.38234702D+05 0.38234702D+05 0.38234702D+05 0.11576870D+01  1  2  5  2  7  2        1 -.298284588565D-02 0.100000000000D+01
0.768535410528D-04 0.000000000000D+00 0.100730142449D-04 0.179895770467D-07 0.000000000000D+00  7 -1 1 24 -13 13 -24 21 2 0.14757235D-01 0.15388853D+00 0.38234702D+05 0.38234702D+05 0.38234702D+05 0.11576870D+01  1  2  6  2  7  2        1 0.600995716297D-02 0.100000000000D+01
0.306315008778D-05 0.000000000000D+00 0.000000000000D+00 0.179895770467D-07 0.000000000000D+00  7 -1 21 24 -13 13 -24 -1 2 0.14757235D-01 0.22176448D+00 0.51997234D+05 0.51997234D+05 0.51997234D+05 0.11458022D+01  1  2 12  4  7  2        1 0.102626159547D-03 0.100000000000D+01
-.315141417458D-05 0.000000000000D+00 -.483701305356D-06 0.179895770467D-07 0.000000000000D+00  7 -1 21 24 -13 13 -24 -1 2 0.14757235D-01 0.22266208D+00 0.38234702D+05 0.38234702D+05 0.38234702D+05 0.11576870D+01  1  2  5  4  7  2        1 -.108588808730D-03 0.100000000000D+01
  </mgrwgt>
  </event>
  <event>
  8     66 0.29788925E-05 0.20369491E+03 0.75467711E-02 0.90336577E-01
       -1 -1    0    0    0  501 0.00000000E+00 0.00000000E+00 0.17033060E+03 0.17033090E+03 0.32000000E+00 0.0000E+00 0.9000E+01
        1 -1    0    0  501    0 0.00000000E+00 0.00000000E+00 -.14930138E+04 0.14930139E+04 0.32000000E+00 0.0000E+00 0.9000E+01
       25  2    1    2    0    0 0.48053305E+02 0.31057229E+02 -.14594658E+04 0.14905886E+04 0.29755724E+03 0.0000E+00 0.0000E+00
       23  2    1    2    0    0 -.48053305E+02 -.31057229E+02 0.13678257E+03 0.17275616E+03 0.88665379E+02 0.0000E+00 0.0000E+00
       24  1    3    3    0    0 -.80155096E+02 0.85453369E+02 -.66758545E+03 0.68254279E+03 0.80419002E+02 0.0000E+00 0.9000E+01
      -13  1    4    4    0    0 -.46077492E+02 0.22214574E+02 0.79229590E+02 0.94307803E+02 0.10565837E+00 0.0000E+00 0.9000E+01
       13  1    4    4    0    0 -.19758122E+01 -.53271803E+02 0.57552978E+02 0.78448361E+02 0.10565837E+00 0.0000E+00 0.9000E+01
      -24  1    3    3    0    0 0.12820840E+03 -.54396140E+02 -.79188036E+03 0.80804582E+03 0.80419002E+02 0.0000E+00 0.9000E+01
#aMCatNLO 1  0  0  1  1 0.70208744D+03 0.00000000D+00  -5  7  0 0.00000000D+00 0.00000000D+00 0.00000000D+00 0.00000000D+00 0.00000000D+00
  <mgrwgt>
 0.1771094559D-02    3    2    0
 0.504287840673461D+03 0.000000000000000D+00 0.000000000000000D+00 0.504287840673461D+03
 0.504287840673461D+03 0.000000000000000D+00 0.000000000000000D+00 -.504287840673461D+03
 0.250154662126277D+03 -.801550956062846D+02 0.854533689659183D+02 -.205871371030222D+03
 0.259437268303762D+03 -.460775550248847D+02 0.222146808983015D+02 0.254344378865415D+03
 0.204854188553307D+03 -.197574964633633D+01 -.532719098831598D+02 0.197796457497523D+03
 0.294129562363575D+03 0.128208400277506D+03 -.543961399810600D+02 -.246269465332716D+03
 0.000000000000000D+00 -.000000000000000D+00 0.000000000000000D+00 -.000000000000000D+00
 0.726415117984594D+03 0.000000000000000D+00 0.000000000000000D+00 0.726415117984594D+03
 0.171497984804883D+04 0.000000000000000D+00 0.000000000000000D+00 -.171497984804883D+04
 0.239859767779895D+03 0.714519332099314D+02 0.598087959731244D+02 -.205871371030222D+03
 0.281901754295769D+03 0.121408942901930D+03 -.611592985852782D+01 0.254344378865415D+03
 0.254429972540676D+03 0.140123549468467D+03 -.773082350906930D+02 0.197796457497523D+03
 0.452690792586800D+03 0.359269381675907D+03 -.934804769641490D+02 -.246269465332716D+03
 0.121251267883029D+04 -.692253807256235D+03 0.117095845940245D+03 -.988564730064240D+03
0.151896735630D-03 0.000000000000D+00 0.000000000000D+00 0.708991376480D-07 0.000000000000D+00  7 -1 1 24 -13 13 -24 21 0 0.26204734D-01 0.22969446D+00 0.41491617D+05 0.41491617D+05 0.41491617D+05 0.11544899D+01  1  2  2  1  7  1       -1 0.163525787145D-02 0.100000000000D+01
-.699240626194D-08 0.000000000000D+00 -.583323460148D-06 0.708991376480D-07 0.000000000000D+00  7 -1 1 24 -13 13 -24 21 2 0.26204734D-01 0.22969446D+00 0.41491617D+05 0.41491617D+05 0.41491617D+05 0.11544899D+01  1  2  3  1  7  1       -1 -.100333210773D-06 0.100000000000D+01
0.947370139219D-05 0.000000000000D+00 0.000000000000D+00 0.708991376480D-07 0.000000000000D+00  7 -1 1 24 -13 13 -24 21 2 0.26204734D-01 0.22969446D+00 0.41491617D+05 0.41491617D+05 0.41491617D+05 0.11544899D+01  1  2 15  1  7  1       -1 0.135937021246D-03 0.100000000000D+01
  </mgrwgt>
  </event>
  <event>
  9     66 0.29788925E-05 0.24735122E+03 0.75467711E-02 0.95380380E-01
       21 -1    0    0  502  501 0.00000000E+00 0.00000000E+00 0.24262904E+04 0.24262905E+04 0.75000000E+00 0.0000E+00 0.9000E+01
        1 -1    0    0  501    0 0.00000000E+00 0.00000000E+00 -.23661427E+03 0.23661449E+03 0.32000000E+00 0.0000E+00 0.9000E+01
       25  2    1    2    0    0 -.13900377E+03 -.23312955E+02 0.50174986E+01 0.33118977E+03 0.29965972E+03 0.0000E+00 0.0000E+00
       23  2    1    2    0    0 -.69572578E+01 0.31726940E+03 0.17815518E+04 0.18118977E+04 0.91314315E+02 0.0000E+00 0.0000E+00
       24  1    3    3    0    0 -.15307477E+03 -.76745708E+02 0.82704423E+02 0.20646798E+03 0.80419002E+02 0.0000E+00 0.9000E+01
      -11  1    4    4    0    0 0.21295232E+02 0.11848860E+03 0.47549046E+03 0.49049385E+03 0.51099893E-03 0.0000E+00 0.9000E+01
       11  1    4    4    0    0 -.28252490E+02 0.19878080E+03 0.13060613E+04 0.13214039E+04 0.51099893E-03 0.0000E+00 0.9000E+01
      -24  1    3    3    0    0 0.14070993E+02 0.53432752E+02 -.77686924E+02 0.12472179E+03 0.80419002E+02 0.0000E+00 0.9000E+01
        1  1    1    2  502    0 0.14596103E+03 -.29395644E+03 0.40310683E+03 0.51981750E+03 0.32000000E+00 0.0000E+00 0.9000E+01
#aMCatNLO 2  0  0  1  1 0.32819965D+03 0.00000000D+00  -5  7  0 0.00000000D+00 0.00000000D+00 0.00000000D+00 0.00000000D+00 0.00000000D+00
  <mgrwgt>
 0.4186298940D-04    1    2    0
 0.568612163923217D+03 0.000000000000000D+00 0.000000000000000D+00 0.568612163923217D+03
 0.568612163923217D+03 0.000000000000000D+00 0.000000000000000D+00 -.568612163923217D+03
 0.259349622715930D+03 -.121104384265674D+03 -.141132068130026D+03 -.161896504920577D+03
 0.149444886277592D+03 0.414096664648178D+02 0.779793800842718D+02 0.120574582062172D+03
 0.383353041334779D+03 0.223448645474071D+02 0.968808695362438D+02 0.370235544548175D+03
 0.345076777518134D+03 0.573498532534492D+02 -.337281814904892D+02 -.328913621689771D+03
 0.000000000000000D+00 0.000000000000000D+00 -.000000000000000D+00 -.000000000000000D+00
 0.730813074078206D+03 0.000000000000000D+00 0.000000000000000D+00 0.730813074078206D+03
 0.785556902520297D+03 0.000000000000000D+00 0.000000000000000D+00 -.785556902520297D+03
 0.248996951298111D+03 -.153074765558930D+03 -.767457076647504D+02 -.161896504920577D+03
 0.170385636611688D+03 0.212952321621501D+02 0.118488600343083D+03 0.120574582062172D+03
 0.421172608914928D+03 -.282524899219814D+02 0.198780796020468D+03 0.370235544548175D+03
 0.343080804421780D+03 0.140709931034910D+02 0.534327523933145D+02 -.328913621689771D+03
 0.332733975351996D+03 0.145961030215270D+03 -.293956441092116D+03 -.547438284420916D+02
0.380216347097D-04 0.000000000000D+00 0.000000000000D+00 0.784856160124D-05 0.218035544392D-10  7 21 1 24 -11 11 -24 1 2 0.37327543D+00 0.36402217D-01 0.21907869D+06 0.21907869D+06 0.21907869D+06 0.10947992D+01  1  2  1  3  7  1       -1 0.418629894010D-04 0.100000000000D+01
  </mgrwgt>
  </event>
  <event>
  8     66 0.29788925E-05 0.29115396E+03 0.75467711E-02 0.96188065E-01
       -3 -1    0    0    0  501 0.00000000E+00 0.00000000E+00 0.30029220E+03 0.30029261E+03 0.50000000E+00 0.0000E+00 0.9000E+01
        3 -1    0    0  501    0 0.00000000E+00 0.00000000E+00 -.67821805E+03 0.67821823E+03 0.50000000E+00 0.0000E+00 0.9000E+01
       25  2    1    2    0    0 0.37013629E+03 0.72908948E+02 -.78399360E+02 0.48846914E+03 0.30023167E+03 0.0000E+00 0.0000E+00
       23  2    1    2    0    0 -.37013629E+03 -.72908948E+02 -.29952649E+03 0.49004170E+03 0.90045356E+02 0.0000E+00 0.0000E+00
       24  1    3    3    0    0 0.64155075E+02 -.73370350E+02 0.15979683E+02 0.12736423E+03 0.80419002E+02 0.0000E+00 0.9000E+01
      -11  1    4    4    0    0 -.22400358E+03 -.45222925E+02 -.12407994E+03 0.26003567E+03 0.51099893E-03 0.0000E+00 0.9000E+01
       11  1    4    4    0    0 -.14613271E+03 -.27686023E+02 -.17544655E+03 0.23000604E+03 0.51099893E-03 0.0000E+00 0.9000E+01
      -24  1    3    3    0    0 0.30598121E+03 0.14627930E+03 -.94379043E+02 0.36110491E+03 0.80419002E+02 0.0000E+00 0.9000E+01
#aMCatNLO 1  0  0  1  2 0.20707673D+02 0.00000000D+00  -5  7  0 0.00000000D+00 0.00000000D+00 0.00000000D+00 0.00000000D+00 0.00000000D+00
  <mgrwgt>
 0.3147061635D-04    9    2    0
 0.451291348850956D+03 0.000000000000000D+00 0.000000000000000D+00 0.451291348850956D+03
 0.451291348850956D+03 0.000000000000000D+00 0.000000000000000D+00 -.451291348850956D+03
 0.144769470698886D+03 0.641550747400158D+02 -.733703498241780D+02 0.706533923024639D+02
 0.229956439023928D+03 -.224003579261331D+03 -.452229250458513D+02 -.256368363292963D+02
 0.175892596472050D+03 -.146132707808259D+03 -.276860231561175D+02 -.938984628420738D+02
 0.351964191507047D+03 0.305981212329574D+03 0.146279298026147D+03 0.488819068689062D+02
 0.000000000000000D+00 0.000000000000000D+00 -.000000000000000D+00 0.000000000000000D+00
 0.484467026771757D+03 0.000000000000000D+00 0.000000000000000D+00 0.484467026771757D+03
 0.454653055231612D+03 0.000000000000000D+00 0.000000000000000D+00 -.454653055231612D+03
 0.142739841418181D+03 0.612028088098790D+02 -.719010481401522D+02 0.706533923024639D+02
 0.234155602335125D+03 -.228769275917837D+03 -.428511041162117D+02 -.256368363292963D+02
 0.178657367610646D+03 -.149773375207117D+03 -.258741136375628D+02 -.938984628420738D+02
 0.347267399921762D+03 0.298801209743049D+03 0.149852685431394D+03 0.488819068689062D+02
 0.362998707176550D+02 0.185386325720255D+02 -.922641953746745D+01 0.298139715401444D+02
0.220332119641D-04 0.000000000000D+00 0.000000000000D+00 0.306431752879D-05 0.000000000000D+00  7 -3 3 24 -11 11 -24 21 0 0.46198846D-01 0.10434128D+00 0.18154681D+06 0.18154681D+06 0.18154681D+06 0.11010689D+01  1  2  2  1  7  1       -3 0.346737029027D-04 0.100000000000D+01
-.121915031931D-05 0.000000000000D+00 -.846133354202D-07 0.306431752879D-05 0.000000000000D+00  7 -3 3 24 -11 11 -24 21 2 0.46198846D-01 0.10434128D+00 0.18154681D+06 0.18154681D+06 0.18154681D+06 0.11010689D+01  1  2  3  1  7  1       -3 -.232599454649D-05 0.100000000000D+01
0.141007363279D-05 0.000000000000D+00 0.000000000000D+00 0.306431752879D-05 0.000000000000D+00  7 -3 3 24 -11 11 -24 21 2 0.46198846D-01 0.10434128D+00 0.18154681D+06 0.18154681D+06 0.18154681D+06 0.11010689D+01  1  2 15  1  7  1       -3 0.269025363655D-05 0.100000000000D+01
0.190632276465D-03 0.000000000000D+00 0.000000000000D+00 0.306431752879D-05 0.000000000000D+00  7 -3 3 24 -11 11 -24 21 2 0.49759561D-01 0.10434128D+00 0.19065649D+06 0.19065649D+06 0.19065649D+06 0.10994248D+01  1  2 12  1  7  1       -3 0.310694383005D-03 0.100000000000D+01
-.194234622206D-03 0.000000000000D+00 0.000000000000D+00 0.306431752879D-05 0.000000000000D+00  7 -3 3 24 -11 11 -24 21 2 0.46198846D-01 0.10434128D+00 0.18154681D+06 0.18154681D+06 0.18154681D+06 0.11010689D+01  1  2  4  1  7  1       -3 -.370576675277D-03 0.100000000000D+01
-.367690517418D-03 0.000000000000D+00 -.381970113785D-04 0.306431752879D-05 0.000000000000D+00  7 -3 3 24 -11 11 -24 21 2 0.49845886D-01 0.10434128D+00 0.18154681D+06 0.18154681D+06 0.18154681D+06 0.11010689D+01  1  2  5  1  7  1       -3 -.599316601445D-03 0.100000000000D+01
0.369635273450D-03 0.000000000000D+00 0.380870176947D-04 0.306431752879D-05 0.000000000000D+00  7 -3 3 24 -11 11 -24 21 2 0.46198846D-01 0.10434128D+00 0.18154681D+06 0.18154681D+06 0.18154681D+06 0.11010689D+01  1  2  6  1  7  1       -3 0.705220362592D-03 0.100000000000D+01
0.263676194261D-05 0.000000000000D+00 0.000000000000D+00 0.306431752879D-05 0.000000000000D+00  7 21 3 24 -11 11 -24 3 2 0.49759561D-01 0.10434128D+00 0.19065649D+06 0.19065649D+06 0.19065649D+06 0.10994248D+01  1  2 12  3  7  1       -3 0.657948525055D-04 0.100000000000D+01
-.461569556400D-05 0.000000000000D+00 -.487292134307D-06 0.306431752879D-05 0.000000000000D+00  7 21 3 24 -11 11 -24 3 2 0.49845886D-01 0.10434128D+00 0.18154681D+06 0.18154681D+06 0.18154681D+06 0.11010689D+01  1  2  5  3  7  1       -3 -.115383667018D-03 0.100000000000D+01
  </mgrwgt>
  </event>
  <event>
  9     66 -.29788925E-05 0.29250230E+03 0.75467711E-02 0.10003824E+00
       -1 -1    0    0    0  501 0.00000000E+00 0.00000000E+00 0.13615780E+04 0.13615781E+04 0.32000000E+00 0.0000E+00 0.9000E+01
        1 -1    0    0  502    0 0.00000000E+00 0.00000000E+00 -.28302873E+03 0.28302891E+03 0.32000000E+00 0.0000E+00 0.9000E+01
       25  2    1    2    0    0 -.23224072E+03 0.26624329E+02 -.11881593E+03 0.39471409E+03 0.29502098E+03 0.0000E+00 0.0000E+00
       23  2    1    2    0    0 0.25456130E+03 -.71555279E+02 0.11380257E+04 0.11721836E+04 0.94816301E+02 0.0000E+00 0.0000E+00
       24  1    3    3    0    0 -.20634857E+03 0.61575282E+02 -.17366623E+03 0.28809447E+03 0.80419002E+02 0.0000E+00 0.9000E+01
      -13  1    4    4    0    0 0.23944085E+03 -.60993149E+02 0.89566809E+03 0.92912508E+03 0.10565837E+00 0.0000E+00 0.9000E+01
       13  1    4    4    0    0 0.15120445E+02 -.10562130E+02 0.24235765E+03 0.24305849E+03 0.10565837E+00 0.0000E+00 0.9000E+01
      -24  1    3    3    0    0 -.25892153E+02 -.34950953E+02 0.54850296E+02 0.10661962E+03 0.80419002E+02 0.0000E+00 0.9000E+01
       21  1    1    2  502  501 -.22320580E+02 0.44930950E+02 0.59339491E+02 0.77709306E+02 0.75000000E+00 0.0000E+00 0.9000E+01
#aMCatNLO 2  0  0  2  1 0.50169697D+02 0.00000000D+00  -5  7  0 0.00000000D+00 0.00000000D+00 0.00000000D+00 0.00000000D+00 0.00000000D+00
  <mgrwgt>
 -.1386660919D-02    3    2    0
 0.594529782905114D+03 0.000000000000000D+00 0.000000000000000D+00 0.594529782905114D+03
 0.594529782905114D+03 0.000000000000000D+00 0.000000000000000D+00 -.594529782905114D+03
 0.534699306746584D+03 -.216318702288434D+03 0.816449964161012D+02 -.475369799504942D+03
 0.449839350343399D+03 0.230940689670215D+03 -.438819647936735D+02 0.383531240106805D+03
 0.111871535212617D+03 0.130156223046031D+02 -.632565332442400D+01 0.110931600893843D+03
 0.926493735076281D+02 -.276376096863841D+02 -.314373782980037D+02 -.190930414957057D+02
 0.000000000000000D+00 -.000000000000000D+00 0.000000000000000D+00 0.000000000000000D+00
 0.626590670081492D+03 0.000000000000000D+00 0.000000000000000D+00 0.626590670081492D+03
 0.615014701934370D+03 0.000000000000000D+00 0.000000000000000D+00 -.615014701934370D+03
 0.528029268652031D+03 -.206348566699699D+03 0.615752818786853D+02 -.475369799504942D+03
 0.456232878805036D+03 0.239441132009793D+03 -.609932116447036D+02 0.383531240106805D+03
 0.112454420983472D+03 0.151201673889479D+02 -.105620670319407D+02 0.110931600893843D+03
 0.934009255852342D+02 -.258921529900824D+02 -.349509531456491D+02 -.190930414957057D+02
 0.514878779900884D+02 -.223205797089603D+02 0.449309499436081D+02 0.115759681471212D+02
-.136167694120D-02 0.000000000000D+00 0.000000000000D+00 0.199330850318D-07 0.000000000000D+00  7 -1 1 24 -13 13 -24 21 2 0.19875451D+00 0.44629560D-01 0.10144093D+06 0.10144093D+06 0.10144093D+06 0.11212125D+01  1  2 13  2  7  2        1 -.294714408963D-02 0.100000000000D+01
-.372993347008D-04 0.000000000000D+00 0.000000000000D+00 0.199330850318D-07 0.000000000000D+00  7 -1 1 24 -13 13 -24 21 2 0.19875451D+00 0.42092385D-01 0.85557594D+05 0.85557594D+05 0.85557594D+05 0.11273238D+01  1  2  8  2  7  2        1 -.889161835738D-04 0.100000000000D+01
0.898942732993D-03 0.000000000000D+00 0.000000000000D+00 0.199330850318D-07 0.531427614073D-10  7 -1 1 24 -13 13 -24 21 2 0.20947263D+00 0.43542706D-01 0.10144093D+06 0.10144093D+06 0.10144093D+06 0.11212125D+01  1  2  1  2  7  2        1 0.164939935453D-02 0.100000000000D+01
  </mgrwgt>
  </event>
  <event>
  8     66 0.29788925E-05 0.27641124E+03 0.75467711E-02 0.92026013E-01
       -1 -1    0    0    0  501 0.00000000E+00 0.00000000E+00 0.36496850E+03 0.36496864E+03 0.32000000E+00 0.0000E+00 0.9000E+01
        1 -1    0    0  501    0 0.00000000E+00 0.00000000E+00 -.66561527E+03 0.66561535E+03 0.32000000E+00 0.0000E+00 0.9000E+01
       25  2    1    2    0    0 0.13118708E+03 -.14259745E+03 -.57860702E+03 0.67956124E+03 0.29912089E+03 0.0000E+00 0.0000E+00
       23  2    1    2    0    0 -.13118708E+03 0.14259745E+03 0.27796025E+03 0.35102275E+03 0.91711469E+02 0.0000E+00 0.0000E+00
       24  1    3    3    0    0 -.61449992E+02 -.57854259E+02 -.29607866E+03 0.31820277E+03 0.80419002E+02 0.0000E+00 0.9000E+01
      -11  1    4    4    0    0 -.92084526E+01 -.11298588E+02 0.39549132E+02 0.42149585E+02 0.51099893E-03 0.0000E+00 0.9000E+01
       11  1    4    4    0    0 -.12197862E+03 0.15389604E+03 0.23841111E+03 0.30887317E+03 0.51099893E-03 0.0000E+00 0.9000E+01
      -24  1    3    3    0    0 0.19263707E+03 -.84743189E+02 -.28252836E+03 0.36135846E+03 0.80419002E+02 0.0000E+00 0.9000E+01
#aMCatNLO 1  0  0  1  1 0.50162314D+03 0.00000000D+00  -5  7  0 0.00000000D+00 0.00000000D+00 0.00000000D+00 0.00000000D+00 0.00000000D+00
  <mgrwgt>
 0.9233457403D-03    3    2    0
 0.492877997052443D+03 0.000000000000000D+00 0.000000000000000D+00 0.492877997052443D+03
 0.492877997052443D+03 0.000000000000000D+00 0.000000000000000D+00 -.492877997052443D+03
 0.242371937486537D+03 -.614499923054652D+02 -.578542587126573D+02 -.212494054789950D+03
 0.561285016607437D+02 -.920845262624932D+01 -.112985879484961D+02 0.542029059117713D+02
 0.395632669295094D+03 -.121978622574108D+03 0.153896035983420D+03 0.343456598068918D+03
 0.291622885662513D+03 0.192637067505822D+03 -.847431893222672D+02 -.185165449190739D+03
 0.000000000000000D+00 0.000000000000000D+00 0.000000000000000D+00 -.000000000000000D+00
 0.771033552279895D+03 0.000000000000000D+00 0.000000000000000D+00 0.771033552279895D+03
 0.841572230160777D+03 0.000000000000000D+00 0.000000000000000D+00 -.841572230160777D+03
 0.314737824524913D+03 -.166232488689971D+03 -.140732791541875D+03 -.212494054789950D+03
 0.702198625380771D+02 -.329723460591184D+02 -.300948248199561D+02 0.542029059117713D+02
 0.444012646248035D+03 -.279901061273642D+03 0.289860512832960D+02 0.343456598068918D+03
 0.277076979442196D+03 0.856746776456025D+02 -.169345925899487D+03 -.185165449190739D+03
 0.506558469687450D+03 0.393431218377129D+03 0.311187490978022D+03 -.705386778808814D+02
0.749249393343D-04 0.000000000000D+00 0.000000000000D+00 0.203175779940D-05 0.000000000000D+00  7 -1 1 24 -11 11 -24 21 0 0.56149017D-01 0.10240237D+00 0.76403175D+05 0.76403175D+05 0.76403175D+05 0.11314422D+01  1  2  2  1  7  1       -1 0.890490630336D-03 0.100000000000D+01
-.246952463436D-05 0.000000000000D+00 -.287731495233D-06 0.203175779940D-05 0.000000000000D+00  7 -1 1 24 -11 11 -24 21 2 0.56149017D-01 0.10240237D+00 0.76403175D+05 0.76403175D+05 0.76403175D+05 0.11314422D+01  1  2  3  1  7  1       -1 -.375734493838D-04 0.100000000000D+01
0.462893519409D-05 0.000000000000D+00 0.000000000000D+00 0.203175779940D-05 0.000000000000D+00  7 -1 1 24 -11 11 -24 21 2 0.56149017D-01 0.10240237D+00 0.76403175D+05 0.76403175D+05 0.76403175D+05 0.11314422D+01  1  2 15  1  7  1       -1 0.704285593254D-04 0.100000000000D+01
  </mgrwgt>
  </event>
  <event>
  8     66 0.29788925E-05 0.40029372E+03 0.75467711E-02 0.86383418E-01
       -1 -1    0    0    0  501 0.00000000E+00 0.00000000E+00 0.54869771E+03 0.54869780E+03 0.32000000E+00 0.0000E+00 0.9000E+01
        1 -1    0    0  501    0 0.00000000E+00 0.00000000E+00 -.27986905E+04 0.27986905E+04 0.32000000E+00 0.0000E+00 0.9000E+01
       25  2    1    2    0    0 0.58198856E+03 0.84285013E+03 -.20347328E+04 0.22969389E+04 0.29442077E+03 0.0000E+00 0.0000E+00
       23  2    1    2    0    0 -.58198856E+03 -.84285013E+03 -.21525991E+03 0.10504494E+04 0.89442846E+02 0.0000E+00 0.0000E+00
       24  1    3    3    0    0 0.53087419E+03 0.79387018E+03 -.18165129E+04 0.20538363E+04 0.80419002E+02 0.0000E+00 0.9000E+01
      -13  1    4    4    0    0 -.57187367E+03 -.83814024E+03 -.20471632E+03 0.10350977E+04 0.10565837E+00 0.0000E+00 0.9000E+01
       13  1    4    4    0    0 -.10114884E+02 -.47098926E+01 -.10543586E+02 0.15351623E+02 0.10565837E+00 0.0000E+00 0.9000E+01
      -24  1    3    3    0    0 0.51114370E+02 0.48979955E+02 -.21821991E+03 0.24310257E+03 0.80419002E+02 0.0000E+00 0.9000E+01
#aMCatNLO 1  0  0  2  1 0.12463233D+03 0.00000000D+00  -5  7  0 0.00000000D+00 0.00000000D+00 0.00000000D+00 0.00000000D+00 0.00000000D+00
  <mgrwgt>
 0.3099288187D-02    9    2    0
 0.123920750016777D+04 0.000000000000000D+00 0.000000000000000D+00 0.123920750016777D+04
 0.123920750016777D+04 0.000000000000000D+00 0.000000000000000D+00 -.123920750016777D+04
 0.112485066539159D+04 0.530874186790503D+03 0.793870177925241D+03 -.588867168279901D+03
 0.121217309208818D+04 -.571874457064884D+03 -.838141403117745D+03 0.663206000364281D+03
 0.111606400110381D+02 -.101140999560886D+02 -.470872957551566D+01 -.304521458849099D+00
 0.130230602844734D+03 0.511143702304691D+02 0.489799547680202D+02 -.740343106255312D+02
 0.000000000000000D+00 -.000000000000000D+00 0.000000000000000D+00 -.000000000000000D+00
 0.125753084093494D+04 0.000000000000000D+00 0.000000000000000D+00 0.125753084093494D+04
 0.147250894825621D+04 0.000000000000000D+00 0.000000000000000D+00 -.147250894825621D+04
 0.111781513922587D+04 0.571470126123244D+03 0.754785282447182D+03 -.588867168279901D+03
 0.122222047693093D+04 -.527807929882618D+03 -.880567705780260D+03 0.663206000364281D+03
 0.109725775306065D+02 -.971345231848292D+01 -.509446448636471D+01 -.304521458849099D+00
 0.130538527989138D+03 0.558347203572635D+02 0.444353033975121D+02 -.740343106255312D+02
 0.248493067514609D+03 -.897834642794071D+02 0.864415844219310D+02 -.214978107321268D+03
0.132377472774D-01 0.000000000000D+00 0.000000000000D+00 0.234847581373D-06 0.000000000000D+00  7 -1 1 24 -13 13 -24 21 0 0.84415041D-01 0.43056777D+00 0.10934325D+07 0.10934325D+07 0.10934325D+07 0.10452914D+01  1  2  2  2  7  2        1 0.182799803055D-02 0.100000000000D+01
-.709646092435D-03 0.000000000000D+00 -.508364351241D-04 0.234847581373D-06 0.000000000000D+00  7 -1 1 24 -13 13 -24 21 2 0.84415041D-01 0.43056777D+00 0.10934325D+07 0.10934325D+07 0.10934325D+07 0.10452914D+01  1  2  3  2  7  2        1 -.107072570910D-03 0.100000000000D+01
0.833327298607D-03 0.000000000000D+00 0.000000000000D+00 0.234847581373D-06 0.000000000000D+00  7 -1 1 24 -13 13 -24 21 2 0.84415041D-01 0.43056777D+00 0.10934325D+07 0.10934325D+07 0.10934325D+07 0.10452914D+01  1  2 15  2  7  2        1 0.125733794947D-03 0.100000000000D+01
0.432343826265D-01 0.000000000000D+00 0.000000000000D+00 0.234847581373D-06 0.000000000000D+00  7 -1 1 24 -13 13 -24 21 2 0.84415041D-01 0.51441985D+00 0.12319665D+07 0.12319665D+07 0.12319665D+07 0.10418858D+01  1  2 12  2  7  2        1 0.245194469191D-02 0.100000000000D+01
-.436202865574D-01 0.000000000000D+00 0.000000000000D+00 0.234847581373D-06 0.000000000000D+00  7 -1 1 24 -13 13 -24 21 2 0.84415041D-01 0.43056777D+00 0.10934325D+07 0.10934325D+07 0.10934325D+07 0.10452914D+01  1  2  4  2  7  2        1 -.658150065972D-02 0.100000000000D+01
-.576868747584D-01 0.000000000000D+00 -.653329077358D-02 0.234847581373D-06 0.000000000000D+00  7 -1 1 24 -13 13 -24 21 2 0.84415041D-01 0.51338768D+00 0.10934325D+07 0.10934325D+07 0.10934325D+07 0.10452914D+01  1  2  5  2  7  2        1 -.337126448930D-02 0.100000000000D+01
0.580356449076D-01 0.000000000000D+00 0.643347523097D-02 0.234847581373D-06 0.000000000000D+00  7 -1 1 24 -13 13 -24 21 2 0.84415041D-01 0.43056777D+00 0.10934325D+07 0.10934325D+07 0.10934325D+07 0.10452914D+01  1  2  6  2  7  2        1 0.875651366353D-02 0.100000000000D+01
0.112999893905D-02 0.000000000000D+00 0.000000000000D+00 0.234847581373D-06 0.000000000000D+00  7 -1 21 24 -13 13 -24 -1 2 0.84415041D-01 0.51441985D+00 0.12319665D+07 0.12319665D+07 0.12319665D+07 0.10418858D+01  1  2 12  4  7  2        1 0.948651699461D-05 0.100000000000D+01
-.143416173998D-02 0.000000000000D+00 -.169242915775D-03 0.234847581373D-06 0.000000000000D+00  7 -1 21 24 -13 13 -24 -1 2 0.84415041D-01 0.51338768D+00 0.10934325D+07 0.10934325D+07 0.10934325D+07 0.10452914D+01  1  2  5  4  7  2        1 -.125507912499D-04 0.100000000000D+01
  </mgrwgt>
  </event>
  <event>
  8     66 0.29788925E-05 0.21517653E+03 0.75467711E-02 0.96551414E-01
       -1 -1    0    0    0  501 0.00000000E+00 0.00000000E+00 0.91004952E+03 0.91004957E+03 0.32000000E+00 0.0000E+00 0.9000E+01
        1 -1    0    0  501    0 0.00000000E+00 0.00000000E+00 -.18775969E+03 0.18775996E+03 0.32000000E+00 0.0000E+00 0.9000E+01
       25  2    1    2    0    0 0.35117234E+03 -.29223912E+02 0.41009153E+03 0.61849311E+03 0.30030421E+03 0.0000E+00 0.0000E+00
       23  2    1    2    0    0 -.35117234E+03 0.29223912E+02 0.31219829E+03 0.47931642E+03 0.90002273E+02 0.0000E+00 0.0000E+00
       24  1    3    3    0    0 0.99999556E+02 0.49963939E+02 0.17294480E+02 0.13878985E+03 0.80419002E+02 0.0000E+00 0.9000E+01
      -11  1    4    4    0    0 -.19545164E+03 -.25026837E+02 0.19322474E+03 0.27597733E+03 0.51099893E-03 0.0000E+00 0.9000E+01
       11  1    4    4    0    0 -.15572070E+03 0.54250749E+02 0.11897355E+03 0.20333909E+03 0.51099893E-03 0.0000E+00 0.9000E+01
      -24  1    3    3    0    0 0.25117279E+03 -.79187851E+02 0.39279705E+03 0.47970327E+03 0.80419002E+02 0.0000E+00 0.9000E+01
#aMCatNLO 1  0  0  1  2 0.66191735D+02 0.00000000D+00  -5  7  0 0.00000000D+00 0.00000000D+00 0.00000000D+00 0.00000000D+00 0.00000000D+00
  <mgrwgt>
 0.2155515107D-03    9    2    0
 0.413365210013088D+03 0.000000000000000D+00 0.000000000000000D+00 0.413365210013088D+03
 0.413365210013088D+03 0.000000000000000D+00 0.000000000000000D+00 -.413365210013088D+03
 0.169188391243931D+03 0.999995558024259D+02 0.499639387798081D+02 -.982913497631603D+02
 0.197653646492698D+03 -.195451642008758D+03 -.250268371809089D+02 0.154685819861097D+02
 0.166068896149455D+03 -.155720699616212D+03 0.542507494947320D+02 -.196671848162301D+02
 0.293819486140093D+03 0.251172785822544D+03 -.791878510936312D+02 0.102489952593281D+03
 0.000000000000000D+00 -.000000000000000D+00 -.000000000000000D+00 0.000000000000000D+00
 0.679818387125211D+03 0.000000000000000D+00 0.000000000000000D+00 0.679818387125211D+03
 0.418819307409008D+03 0.000000000000000D+00 0.000000000000000D+00 -.418819307409008D+03
 0.178669512990456D+03 0.112122163115772D+03 0.567715599385160D+02 -.982913497631603D+02
 0.183660516637928D+03 -.182163107218026D+03 -.175644729987399D+02 0.154685819861097D+02
 0.157856224958204D+03 -.144432133238056D+03 0.605900031998991D+02 -.196671848162301D+02
 0.309189735651956D+03 0.272187240038268D+03 -.673868878635372D+02 0.102489952593281D+03
 0.269261704295674D+03 -.577141626979577D+02 -.324102022761381D+02 0.260999079716203D+03
0.204587852741D-04 0.000000000000D+00 0.000000000000D+00 0.489306457148D-06 0.000000000000D+00  7 -1 1 24 -11 11 -24 21 0 0.14000764D+00 0.28886132D-01 0.15016416D+06 0.15016416D+06 0.15016416D+06 0.11075144D+01  1  2  2  1  7  1       -1 0.183034891935D-03 0.100000000000D+01
-.113083403900D-05 0.000000000000D+00 -.785671223744D-07 0.489306457148D-06 0.000000000000D+00  7 -1 1 24 -11 11 -24 21 2 0.14000764D+00 0.28886132D-01 0.15016416D+06 0.15016416D+06 0.15016416D+06 0.11075144D+01  1  2  3  1  7  1       -1 -.124094258753D-04 0.100000000000D+01
0.130726187950D-05 0.000000000000D+00 0.000000000000D+00 0.489306457148D-06 0.000000000000D+00  7 -1 1 24 -11 11 -24 21 2 0.14000764D+00 0.28886132D-01 0.15016416D+06 0.15016416D+06 0.15016416D+06 0.11075144D+01  1  2 15  1  7  1       -1 0.143454908800D-04 0.100000000000D+01
0.135151572438D-03 0.000000000000D+00 0.000000000000D+00 0.489306457148D-06 0.000000000000D+00  7 -1 1 24 -11 11 -24 21 2 0.23066632D+00 0.28886132D-01 0.17924136D+06 0.17924136D+06 0.17924136D+06 0.11014994D+01  1  2 12  1  7  1       -1 0.267482615846D-03 0.100000000000D+01
-.122428851247D-03 0.000000000000D+00 0.000000000000D+00 0.489306457148D-06 0.000000000000D+00  7 -1 1 24 -11 11 -24 21 2 0.14000764D+00 0.28886132D-01 0.15016416D+06 0.15016416D+06 0.15016416D+06 0.11075144D+01  1  2  4  1  7  1       -1 -.134349666012D-02 0.100000000000D+01
-.138111878568D-03 0.000000000000D+00 -.667482836138D-05 0.489306457148D-06 0.000000000000D+00  7 -1 1 24 -11 11 -24 21 2 0.23120007D+00 0.28886132D-01 0.15016416D+06 0.15016416D+06 0.15016416D+06 0.11075144D+01  1  2  5  1  7  1       -1 -.276155361299D-03 0.100000000000D+01
0.126030553012D-03 0.000000000000D+00 0.591501997919D-05 0.489306457148D-06 0.000000000000D+00  7 -1 1 24 -11 11 -24 21 2 0.14000764D+00 0.28886132D-01 0.15016416D+06 0.15016416D+06 0.15016416D+06 0.11075144D+01  1  2  6  1  7  1       -1 0.138302063052D-02 0.100000000000D+01
0.761143954166D-05 0.000000000000D+00 0.000000000000D+00 0.489306457148D-06 0.000000000000D+00  7 21 1 24 -11 11 -24 1 2 0.23066632D+00 0.28886132D-01 0.17924136D+06 0.17924136D+06 0.17924136D+06 0.11014994D+01  1  2 12  3  7  1       -1 0.104398949173D-03 0.100000000000D+01
-.750455021692D-05 0.000000000000D+00 -.377290613013D-06 0.489306457148D-06 0.000000000000D+00  7 21 1 24 -11 11 -24 1 2 0.23120007D+00 0.28886132D-01 0.15016416D+06 0.15016416D+06 0.15016416D+06 0.11075144D+01  1  2  5  3  7  1       -1 -.104669620401D-03 0.100000000000D+01
  </mgrwgt>
  </event>
  <event>
  8     66 0.29788925E-05 0.16093333E+03 0.75467711E-02 0.97058144E-01
       -1 -1    0    0    0  501 0.00000000E+00 0.00000000E+00 0.80146669E+03 0.80146676E+03 0.32000000E+00 0.0000E+00 0.9000E+01
        1 -1    0    0  501    0 0.00000000E+00 0.00000000E+00 -.33662535E+03 0.33662551E+03 0.32000000E+00 0.0000E+00 0.9000E+01
       25  2    1    2    0    0 0.25452271E+03 0.17852001E+03 -.13415488E+03 0.45211342E+03 0.29959607E+03 0.0000E+00 0.0000E+00
       23  2    1    2    0    0 -.25452271E+03 -.17852001E+03 0.59899622E+03 0.68597885E+03 0.12296055E+03 0.0000E+00 0.0000E+00
       24  1    3    3    0    0 -.31520282E+01 0.12737565E+03 -.11100608E+02 0.15107922E+03 0.80419002E+02 0.0000E+00 0.9000E+01
      -11  1    4    4    0    0 -.23256069E+03 -.17091101E+03 0.59643773E+03 0.66259566E+03 0.51099893E-03 0.0000E+00 0.9000E+01
       11  1    4    4    0    0 -.21962021E+02 -.76090081E+01 0.25584923E+01 0.23383183E+02 0.51099893E-03 0.0000E+00 0.9000E+01
      -24  1    3    3    0    0 0.25767474E+03 0.51144361E+02 -.12305427E+03 0.30103420E+03 0.80419002E+02 0.0000E+00 0.9000E+01
#aMCatNLO 1  0  0  1  2 0.69459434D+02 0.00000000D+00  -5  7  0 0.00000000D+00 0.00000000D+00 0.00000000D+00 0.00000000D+00 0.00000000D+00
  <mgrwgt>
 0.1460325783D-02    9    2    0
 0.519417108459752D+03 0.000000000000000D+00 0.000000000000000D+00 0.519417108459752D+03
 0.519417108459752D+03 0.000000000000000D+00 0.000000000000000D+00 -.519417108459752D+03
 0.170481597127593D+03 -.315202814235788D+01 0.127375652817996D+03 -.797638188189573D+02
 0.459020386721920D+03 -.232560688921349D+03 -.170911005920822D+03 0.356937906994902D+03
 0.244725542592148D+02 -.219620209233189D+02 -.760900813257926D+01 -.766019217593533D+01
 0.384859678810777D+03 0.257674737987026D+03 0.511443612354057D+02 -.269513896000009D+03
 0.000000000000000D+00 0.000000000000000D+00 0.000000000000000D+00 0.000000000000000D+00
 0.556361656709450D+03 0.000000000000000D+00 0.000000000000000D+00 0.556361656709450D+03
 0.554282640137171D+03 0.000000000000000D+00 0.000000000000000D+00 -.554282640137171D+03
 0.170687545642093D+03 -.145334204981136D+02 0.126860297883115D+03 -.797638188189573D+02
 0.476095976175756D+03 -.263756142701325D+03 -.172323551112909D+03 0.356937906994902D+03
 0.260171512078066D+02 -.236463559812366D+02 -.768527563632212D+01 -.766019217593533D+01
 0.368353082779458D+03 0.232547582883178D+03 0.500065915339906D+02 -.269513896000009D+03
 0.694905410415073D+02 0.693883362974974D+02 0.314193733212583D+01 0.207901657227931D+01
0.119279046996D-03 0.000000000000D+00 0.000000000000D+00 0.208573395811D-07 0.000000000000D+00  7 -1 1 24 -11 11 -24 21 0 0.12330259D+00 0.51788533D-01 0.13588708D+06 0.13588708D+06 0.13588708D+06 0.11109544D+01  1  2  2  1  7  1       -1 0.691928791502D-03 0.100000000000D+01
-.567917230985D-05 0.000000000000D+00 -.458062947360D-06 0.208573395811D-07 0.000000000000D+00  7 -1 1 24 -11 11 -24 21 2 0.12330259D+00 0.51788533D-01 0.13588708D+06 0.13588708D+06 0.13588708D+06 0.11109544D+01  1  2  3  1  7  1       -1 -.406606873846D-04 0.100000000000D+01
0.749704708962D-05 0.000000000000D+00 0.000000000000D+00 0.208573395811D-07 0.000000000000D+00  7 -1 1 24 -11 11 -24 21 2 0.12330259D+00 0.51788533D-01 0.13588708D+06 0.13588708D+06 0.13588708D+06 0.11109544D+01  1  2 15  1  7  1       -1 0.536759709667D-04 0.100000000000D+01
0.160969227881D-03 0.000000000000D+00 0.000000000000D+00 0.208573395811D-07 0.000000000000D+00  7 -1 1 24 -11 11 -24 21 2 0.13593272D+00 0.51788533D-01 0.16458323D+06 0.16458323D+06 0.16458323D+06 0.11043861D+01  1  2 12  1  7  1       -1 0.880478322812D-03 0.100000000000D+01
-.129707276132D-03 0.000000000000D+00 0.000000000000D+00 0.208573395811D-07 0.000000000000D+00  7 -1 1 24 -11 11 -24 21 2 0.12330259D+00 0.51788533D-01 0.13588708D+06 0.13588708D+06 0.13588708D+06 0.11109544D+01  1  2  4  1  7  1       -1 -.928654162716D-03 0.100000000000D+01
-.490001021549D-03 0.000000000000D+00 -.125244323301D-03 0.208573395811D-07 0.000000000000D+00  7 -1 1 24 -11 11 -24 21 2 0.13877455D+00 0.51788533D-01 0.13588708D+06 0.13588708D+06 0.13588708D+06 0.11109544D+01  1  2  5  1  7  1       -1 -.258727419719D-02 0.100000000000D+01
0.502163484535D-03 0.000000000000D+00 0.124374342173D-03 0.208573395811D-07 0.000000000000D+00  7 -1 1 24 -11 11 -24 21 2 0.12330259D+00 0.51788533D-01 0.13588708D+06 0.13588708D+06 0.13588708D+06 0.11109544D+01  1  2  6  1  7  1       -1 0.359529722759D-02 0.100000000000D+01
0.255827692300D-05 0.000000000000D+00 0.000000000000D+00 0.208573395811D-07 0.000000000000D+00  7 21 1 24 -11 11 -24 1 2 0.13593272D+00 0.51788533D-01 0.16458323D+06 0.16458323D+06 0.16458323D+06 0.11043861D+01  1  2 12  3  7  1       -1 0.906082192004D-04 0.100000000000D+01
-.861679394454D-05 0.000000000000D+00 -.234646922305D-05 0.208573395811D-07 0.000000000000D+00  7 21 1 24 -11 11 -24 1 2 0.13877455D+00 0.51788533D-01 0.13588708D+06 0.13588708D+06 0.13588708D+06 0.11109544D+01  1  2  5  3  7  1       -1 -.295073702091D-03 0.100000000000D+01
  </mgrwgt>
  </event>
  <event>
  8     66 0.29788925E-05 0.68215788E+03 0.75467711E-02 0.83233535E-01
       -1 -1    0    0    0  501 0.00000000E+00 0.00000000E+00 0.32534896E+03 0.32534912E+03 0.32000000E+00 0.0000E+00 0.9000E+01
        1 -1    0    0  501    0 0.00000000E+00 0.00000000E+00 -.17144566E+04 0.17144566E+04 0.32000000E+00 0.0000E+00 0.9000E+01
       25  2    1    2    0    0 -.21771266E+03 0.63128798E+03 -.37590537E+03 0.82307295E+03 0.30036798E+03 0.0000E+00 0.0000E+00
       23  2    1    2    0    0 0.21771266E+03 -.63128798E+03 -.10132023E+04 0.12167328E+04 0.89087153E+02 0.0000E+00 0.0000E+00
       24  1    3    3    0    0 -.40351585E+02 0.24264793E+03 -.27338155E+03 0.37644515E+03 0.80419002E+02 0.0000E+00 0.9000E+01
      -11  1    4    4    0    0 0.17892865E+02 -.12919891E+03 -.15512744E+03 0.20267471E+03 0.51099893E-03 0.0000E+00 0.9000E+01
       11  1    4    4    0    0 0.19981979E+03 -.50208907E+03 -.85807482E+03 0.10140581E+04 0.51099893E-03 0.0000E+00 0.9000E+01
      -24  1    3    3    0    0 -.17736107E+03 0.38864006E+03 -.10252382E+03 0.44662780E+03 0.80419002E+02 0.0000E+00 0.9000E+01
#aMCatNLO 1  0  0  1  1 0.12727509D+04 0.00000000D+00  -5  7  0 0.00000000D+00 0.00000000D+00 0.00000000D+00 0.00000000D+00 0.00000000D+00
  <mgrwgt>
 0.7417026796D-03    5    2    0
 0.746857991013475D+03 0.000000000000000D+00 0.000000000000000D+00 0.746857991013475D+03
 0.746857991013475D+03 0.000000000000000D+00 0.000000000000000D+00 -.746857991013475D+03
 0.259834260171569D+03 -.403515854546009D+02 0.242647925135923D+03 -.232456615966916D+02
 0.132507327725413D+03 0.178928651500004D+02 -.129198909561058D+03 -.233597740975251D+02
 0.586807139200921D+03 0.199819790117121D+03 -.502089072721979D+03 -.228738350846337D+03
 0.514567254929047D+03 -.177361069812520D+03 0.388640057147114D+03 0.275343786540554D+03
 0.000000000000000D+00 0.000000000000000D+00 0.000000000000000D+00 0.000000000000000D+00
 0.219118584880057D+04 0.000000000000000D+00 0.000000000000000D+00 0.219118584880057D+04
 0.131590408235367D+04 0.000000000000000D+00 0.000000000000000D+00 -.131590408235367D+04
 0.300953000806383D+03 -.233713832948181D+03 0.170126353765658D+03 -.232456615966916D+02
 0.198469754635130D+03 -.962296853560436D+02 -.172001198005474D+03 -.233597740975251D+02
 0.761755224762722D+03 -.265171246103151D+03 -.676486510985626D+03 -.228738350846337D+03
 0.701239482663846D+03 -.596577303235558D+03 0.231410709713243D+03 0.275343786540554D+03
 0.154467246828616D+04 0.119169206764293D+04 0.446950645512199D+03 0.875281766446901D+03
0.318079083605D-03 0.000000000000D+00 0.000000000000D+00 0.306031479856D-05 0.000000000000D+00  7 -1 1 24 -11 11 -24 21 0 0.50053700D-01 0.26376257D+00 0.46533937D+06 0.46533937D+06 0.46533937D+06 0.10707225D+01  1  2  2  1  7  1       -1 0.722888845813D-03 0.100000000000D+01
-.174946457572D-04 0.000000000000D+00 -.122150743319D-05 0.306031479856D-05 0.000000000000D+00  7 -1 1 24 -11 11 -24 21 2 0.50053700D-01 0.26376257D+00 0.46533937D+06 0.46533937D+06 0.46533937D+06 0.10707225D+01  1  2  3  1  7  1       -1 -.455822120640D-04 0.100000000000D+01
0.202982140366D-04 0.000000000000D+00 0.000000000000D+00 0.306031479856D-05 0.000000000000D+00  7 -1 1 24 -11 11 -24 21 2 0.50053700D-01 0.26376257D+00 0.46533937D+06 0.46533937D+06 0.46533937D+06 0.10707225D+01  1  2 15  1  7  1       -1 0.528868952008D-04 0.100000000000D+01
0.127720085027D-03 0.000000000000D+00 -.127288626420D-03 0.306031479856D-05 0.000000000000D+00  7 -1 1 24 -11 11 -24 21 2 0.24185189D+00 0.26376257D+00 0.46533937D+06 0.46533937D+06 0.46533937D+06 0.10707225D+01  1  2  5  1  7  1       -1 0.527314702581D-05 0.100000000000D+01
0.216766666162D-04 0.000000000000D+00 -.243840356939D-04 0.306031479856D-05 0.000000000000D+00  7 21 1 24 -11 11 -24 1 2 0.24185189D+00 0.26376257D+00 0.46533937D+06 0.46533937D+06 0.46533937D+06 0.10707225D+01  1  2  5  3  7  1       -1 0.623600359767D-05 0.100000000000D+01
  </mgrwgt>
  </event>
  <event>
  8     66 0.29788925E-05 0.28841103E+03 0.75467711E-02 0.81627931E-01
       -1 -1    0    0    0  501 0.00000000E+00 0.00000000E+00 0.14547877E+03 0.14547912E+03 0.32000000E+00 0.0000E+00 0.9000E+01
        1 -1    0    0  501    0 0.00000000E+00 0.00000000E+00 -.68151229E+03 0.68151236E+03 0.32000000E+00 0.0000E+00 0.9000E+01
       25  2    1    2    0    0 -.30639005E+02 -.19729323E+03 -.20563250E+03 0.42634171E+03 0.31562503E+03 0.0000E+00 0.0000E+00
       23  2    1    2    0    0 0.30639005E+02 0.19729323E+03 -.33040102E+03 0.40064977E+03 0.10720092E+03 0.0000E+00 0.0000E+00
       24  1    3    3    0    0 -.18126395E+02 -.25193161E+03 -.10290835E+03 0.28435092E+03 0.80419002E+02 0.0000E+00 0.9000E+01
      -13  1    4    4    0    0 0.53969683E+02 0.99633847E+02 -.24058171E+03 0.26593082E+03 0.10565837E+00 0.0000E+00 0.9000E+01
       13  1    4    4    0    0 -.23330678E+02 0.97659388E+02 -.89819310E+02 0.13471895E+03 0.10565837E+00 0.0000E+00 0.9000E+01
      -24  1    3    3    0    0 -.12512610E+02 0.54638375E+02 -.10272416E+03 0.14199079E+03 0.80419002E+02 0.0000E+00 0.9000E+01
#aMCatNLO 1  0  0  1  1 0.18557507D+04 0.00000000D+00  -5  7  0 0.00000000D+00 0.00000000D+00 0.00000000D+00 0.00000000D+00 0.00000000D+00
  <mgrwgt>
 0.4861142704D-03    5    2    0
 0.314874172612346D+03 0.000000000000000D+00 0.000000000000000D+00 0.314874172612346D+03
 0.314874172612346D+03 0.000000000000000D+00 0.000000000000000D+00 -.314874172612346D+03
 0.285818243155779D+03 -.181264180496145D+02 -.251931758337857D+03 0.106895623276969D+03
 0.144442874870366D+03 0.539695249420258D+02 0.996340839963018D+02 -.895772503739988D+02
 0.100461056659456D+03 -.233304891078384D+02 0.976593506769210D+02 -.328076339982977D+01
 0.990261705390919D+02 -.125126177845730D+02 0.546383236646340D+02 -.140376095031404D+02
 0.000000000000000D+00 0.000000000000000D+00 0.000000000000000D+00 0.000000000000000D+00
 0.531507031831700D+04 0.000000000000000D+00 0.000000000000000D+00 0.531507031831700D+04
 0.117844086598358D+04 0.000000000000000D+00 0.000000000000000D+00 -.117844086598358D+04
 0.119024535000592D+04 -.101390708116009D+04 -.608919152067016D+03 0.106895623276969D+03
 0.200696459933724D+03 -.178868055544978D+03 0.161618053113346D+02 -.895772503739988D+02
 0.280220576041756D+03 -.280145581900160D+03 0.559113320434277D+01 -.328076339982977D+01
 0.288529876855520D+03 -.273965321892290D+03 -.390924775856211D+02 -.140376095031404D+02
 0.453381892146366D+04 0.174688604049752D+04 0.626258691136960D+03 0.413662945233341D+04
0.872386653302D-05 0.000000000000D+00 0.000000000000D+00 0.137256980544D-10 0.000000000000D+00  7 -1 1 24 -13 13 -24 21 0 0.22381382D-01 0.10484808D+00 0.83180922D+05 0.83180922D+05 0.83180922D+05 0.11283447D+01  1  2  2  1  7  1       -1 0.480203505583D-03 0.100000000000D+01
-.480118026652D-06 0.000000000000D+00 -.335019445336D-07 0.137256980544D-10 0.000000000000D+00  7 -1 1 24 -13 13 -24 21 2 0.22381382D-01 0.10484808D+00 0.83180922D+05 0.83180922D+05 0.83180922D+05 0.11283447D+01  1  2  3  1  7  1       -1 -.336471215445D-04 0.100000000000D+01
0.563993596959D-06 0.000000000000D+00 0.000000000000D+00 0.137256980544D-10 0.000000000000D+00  7 -1 1 24 -13 13 -24 21 2 0.22381382D-01 0.10484808D+00 0.83180922D+05 0.83180922D+05 0.83180922D+05 0.11283447D+01  1  2 15  1  7  1       -1 0.395252001671D-04 0.100000000000D+01
0.353830803399D-04 0.000000000000D+00 -.165160065019D-04 0.137256980544D-10 0.000000000000D+00  7 -1 1 24 -13 13 -24 21 2 0.62968758D+00 0.10484808D+00 0.83180922D+05 0.83180922D+05 0.83180922D+05 0.11283447D+01  1  2  5  1  7  1       -1 0.981838664459D-08 0.100000000000D+01
0.715136154257D-05 0.000000000000D+00 -.555680559746D-05 0.137256980544D-10 0.000000000000D+00  7 21 1 24 -13 13 -24 1 2 0.62968758D+00 0.10484808D+00 0.83180922D+05 0.83180922D+05 0.83180922D+05 0.11283447D+01  1  2  5  3  7  1       -1 0.228678147572D-07 0.100000000000D+01
  </mgrwgt>
  </event>
  <event>
  7     66 0.29788925E-05 0.49171690E+03 0.75467711E-02 0.92307925E-01
       -1 -1    0    0    0  501 0.00000000E+00 0.00000000E+00 0.63371019E+03 0.63371027E+03 0.32000000E+00 0.0000E+00 0.9000E+01
        1 -1    0    0  501    0 0.00000000E+00 0.00000000E+00 -.62166538E+03 0.62166546E+03 0.32000000E+00 0.0000E+00 0.9000E+01
       23  2    1    2    0    0 0.30799635E+03 0.39839695E+03 0.26256089E+03 0.57500494E+03 0.90058776E+02 0.0000E+00 0.0000E+00
       24  1    1    2    0    0 0.54866032E+02 -.37451581E+02 -.90600912E+02 0.13816166E+03 0.80419002E+02 0.0000E+00 0.9000E+01
      -13  1    3    3    0    0 0.91105360E+02 0.17309125E+03 0.13275322E+03 0.23639838E+03 0.10565837E+00 0.0000E+00 0.9000E+01
       13  1    3    3    0    0 0.21689099E+03 0.22530571E+03 0.12980767E+03 0.33860656E+03 0.10565837E+00 0.0000E+00 0.9000E+01
      -24  1    1    2    0    0 -.36286238E+03 -.36094537E+03 -.15991517E+03 0.54220913E+03 0.80419002E+02 0.0000E+00 0.9000E+01
#aMCatNLO 1  0  0  2  1 0.98820865D+02 0.00000000D+00  -5  7  0 0.00000000D+00 0.00000000D+00 0.00000000D+00 0.00000000D+00 0.00000000D+00
  <mgrwgt>
 0.1136735942D-02    9    2    0
 0.627658975237684D+03 0.000000000000000D+00 0.000000000000000D+00 0.627658975237684D+03
 0.627658975237684D+03 0.000000000000000D+00 0.000000000000000D+00 -.627658975237684D+03
 0.139037335496599D+03 0.548660319408337D+02 -.374515809726907D+02 -.919307474642554D+02
 0.235135351985407D+03 0.911051873236551D+02 0.173091173228110D+03 0.130491089146115D+03
 0.337376780773826D+03 0.216891161597204D+03 0.225305778135141D+03 0.126564697152265D+03
 0.543768482219535D+03 -.362862380861693D+03 -.360945370390561D+03 -.165125038834125D+03
 0.000000000000000D+00 -.000000000000000D+00 0.000000000000000D+00 -.000000000000000D+00
 0.650980352286851D+03 0.000000000000000D+00 0.000000000000000D+00 0.650980352286851D+03
 0.743793658387891D+03 0.000000000000000D+00 0.000000000000000D+00 -.743793658387891D+03
 0.143895939906074D+03 0.593088902481417D+02 -.476447140329242D+02 -.919307474642554D+02
 0.226237378888202D+03 0.983500533338828D+02 0.156469467529249D+03 0.130491089146115D+03
 0.328983573997275D+03 0.227354917172232D+03 0.201299058697212D+03 0.126564697152265D+03
 0.560084727315603D+03 -.345528741348800D+03 -.400713484012912D+03 -.165125038834125D+03
 0.135572390567587D+03 -.394851194054558D+02 0.905896718193743D+02 -.928133061010397D+02
0.187207843809D-03 0.000000000000D+00 0.000000000000D+00 0.343293601526D-09 0.000000000000D+00  7 -1 1 24 -13 13 -24 21 0 0.97493888D-01 0.95640840D-01 0.31964263D+06 0.31964263D+06 0.31964263D+06 0.10825199D+01  1  2  2  2  7  2        1 0.778325024777D-03 0.100000000000D+01
-.102622983084D-04 0.000000000000D+00 -.718927413185D-06 0.343293601526D-09 0.000000000000D+00  7 -1 1 24 -13 13 -24 21 2 0.97493888D-01 0.95640840D-01 0.31964263D+06 0.31964263D+06 0.31964263D+06 0.10825199D+01  1  2  3  2  7  2        1 -.499980885483D-04 0.100000000000D+01
0.119578099895D-04 0.000000000000D+00 0.000000000000D+00 0.343293601526D-09 0.000000000000D+00  7 -1 1 24 -13 13 -24 21 2 0.97493888D-01 0.95640840D-01 0.31964263D+06 0.31964263D+06 0.31964263D+06 0.10825199D+01  1  2 15  2  7  2        1 0.582586497422D-04 0.100000000000D+01
0.410340640812D-03 0.000000000000D+00 0.000000000000D+00 0.343293601526D-09 0.000000000000D+00  7 -1 1 24 -13 13 -24 21 2 0.97493888D-01 0.11488591D+00 0.38018809D+06 0.38018809D+06 0.38018809D+06 0.10770216D+01  1  2 12  2  7  2        1 0.148735610557D-02 0.100000000000D+01
-.417527872687D-03 0.000000000000D+00 0.000000000000D+00 0.343293601526D-09 0.000000000000D+00  7 -1 1 24 -13 13 -24 21 2 0.97493888D-01 0.95640840D-01 0.31964263D+06 0.31964263D+06 0.31964263D+06 0.10825199D+01  1  2  4  2  7  2        1 -.203420276068D-02 0.100000000000D+01
-.707038704968D-03 0.000000000000D+00 -.135687652403D-03 0.343293601526D-09 0.000000000000D+00  7 -1 1 24 -13 13 -24 21 2 0.97493888D-01 0.11592548D+00 0.31964263D+06 0.31964263D+06 0.31964263D+06 0.10825199D+01  1  2  5  2  7  2        1 -.257290531140D-02 0.100000000000D+01
0.722208603864D-03 0.000000000000D+00 0.133215714032D-03 0.343293601526D-09 0.000000000000D+00  7 -1 1 24 -13 13 -24 21 2 0.97493888D-01 0.95640840D-01 0.31964263D+06 0.31964263D+06 0.31964263D+06 0.10825199D+01  1  2  6  2  7  2        1 0.351861236548D-02 0.100000000000D+01
0.109787972593D-04 0.000000000000D+00 0.000000000000D+00 0.343293601526D-09 0.000000000000D+00  7 -1 21 24 -13 13 -24 -1 2 0.97493888D-01 0.11488591D+00 0.38018809D+06 0.38018809D+06 0.38018809D+06 0.10770216D+01  1  2 12  4  7  2        1 0.743476135338D-04 0.100000000000D+01
-.181736769279D-04 0.000000000000D+00 -.376806816985D-05 0.343293601526D-09 0.000000000000D+00  7 -1 21 24 -13 13 -24 -1 2 0.97493888D-01 0.11592548D+00 0.31964263D+06 0.31964263D+06 0.31964263D+06 0.10825199D+01  1  2  5  4  7  2        1 -.123057656243D-03 0.100000000000D+01
  </mgrwgt>
  </event>
  <event>
  8     66 0.29788925E-05 0.98703494E+02 0.75467711E-02 0.10222849E+00
       -1 -1    0    0    0  501 0.00000000E+00 0.00000000E+00 0.56510526E+02 0.56511432E+02 0.32000000E+00 0.0000E+00 0.9000E+01
        1 -1    0    0  501    0 0.00000000E+00 0.00000000E+00 -.12717812E+04 0.12717813E+04 0.32000000E+00 0.0000E+00 0.9000E+01
       25  2    1    2    0    0 -.99353540E+02 -.12907611E+03 -.89310885E+03 0.95601814E+03 0.29965897E+03 0.0000E+00 0.0000E+00
       23  2    1    2    0    0 0.99353540E+02 0.12907611E+03 -.32216186E+03 0.37227456E+03 0.90930311E+02 0.0000E+00 0.0000E+00
       24  1    3    3    0    0 -.86714083E+02 0.45716051E+02 -.20183938E+03 0.23836031E+03 0.80419002E+02 0.0000E+00 0.9000E+01
      -11  1    4    4    0    0 0.11394242E+03 0.12878407E+03 -.29741265E+03 0.34354403E+03 0.51099893E-03 0.0000E+00 0.9000E+01
       11  1    4    4    0    0 -.14588880E+02 0.29203707E+00 -.24749204E+02 0.28730538E+02 0.51099893E-03 0.0000E+00 0.9000E+01
      -24  1    3    3    0    0 -.12639457E+02 -.17479216E+03 -.69126948E+03 0.71765783E+03 0.80419002E+02 0.0000E+00 0.9000E+01
#aMCatNLO 1  0  0  2  1 0.31683488D+02 0.00000000D+00  -5  7  0 0.00000000D+00 0.00000000D+00 0.00000000D+00 0.00000000D+00 0.00000000D+00
  <mgrwgt>
 0.1255424464D-02    9    2    0
 0.268085164273584D+03 0.000000000000000D+00 0.000000000000000D+00 0.268085164273584D+03
 0.268085164273584D+03 0.000000000000000D+00 0.000000000000000D+00 -.268085164273584D+03
 0.133022625849669D+03 -.867140832954154D+02 0.457160508179181D+02 0.402307530307326D+02
 0.176977604503464D+03 0.113942419542778D+03 0.128784072733805D+03 0.418671725175702D+02
 0.150802469654679D+02 -.145888796762721D+02 0.292037070292562D+00 0.380698734964204D+01
 0.211089851228568D+03 -.126394565710907D+02 -.174792160622016D+03 -.859049128979448D+02
 0.000000000000000D+00 -.000000000000000D+00 -.000000000000000D+00 -.000000000000000D+00
 0.282141987426694D+03 0.000000000000000D+00 0.000000000000000D+00 0.282141987426694D+03
 0.287020529282228D+03 0.000000000000000D+00 0.000000000000000D+00 -.287020529282228D+03
 0.134887319871473D+03 -.851470877562687D+02 0.534680564911899D+02 0.402307530307326D+02
 0.186079645861789D+03 0.116065928210013D+03 0.139289176816366D+03 0.418671725175702D+02
 0.149526597828644D+02 -.144132182958199D+02 0.116104274632761D+01 0.380698734964204D+01
 0.201186010854211D+03 -.102280700320706D+02 -.162862910241945D+03 -.859049128979448D+02
 0.320568803385846D+02 -.627755212585371D+01 -.310553658119387D+02 -.487854185553343D+01
0.624125986342D-05 0.000000000000D+00 0.000000000000D+00 0.104813813922D-05 0.000000000000D+00  7 -1 1 24 -11 11 -24 21 0 0.86939999D-02 0.19565872D+00 0.64049065D+05 0.64049065D+05 0.64049065D+05 0.11379544D+01  1  2  2  2  7  2        1 0.524202270011D-03 0.100000000000D+01
-.345337839328D-06 0.000000000000D+00 -.239680812370D-07 0.104813813922D-05 0.000000000000D+00  7 -1 1 24 -11 11 -24 21 2 0.86939999D-02 0.19565872D+00 0.64049065D+05 0.64049065D+05 0.64049065D+05 0.11379544D+01  1  2  3  2  7  2        1 -.375595633402D-04 0.100000000000D+01
0.402095484373D-06 0.000000000000D+00 0.000000000000D+00 0.104813813922D-05 0.000000000000D+00  7 -1 1 24 -11 11 -24 21 2 0.86939999D-02 0.19565872D+00 0.64049065D+05 0.64049065D+05 0.64049065D+05 0.11379544D+01  1  2 15  2  7  2        1 0.437326267040D-04 0.100000000000D+01
0.104836473502D-04 0.000000000000D+00 0.000000000000D+00 0.104813813922D-05 0.000000000000D+00  7 -1 1 24 -11 11 -24 21 2 0.86939999D-02 0.21429454D+00 0.72394226D+05 0.72394226D+05 0.72394226D+05 0.11334201D+01  1  2 12  2  7  2        1 0.936095092809D-03 0.100000000000D+01
-.899609675392D-05 0.000000000000D+00 0.000000000000D+00 0.104813813922D-05 0.000000000000D+00  7 -1 1 24 -11 11 -24 21 2 0.86939999D-02 0.19565872D+00 0.64049065D+05 0.64049065D+05 0.64049065D+05 0.11379544D+01  1  2  4  2  7  2        1 -.978431632342D-03 0.100000000000D+01
-.361611073506D-04 0.000000000000D+00 -.729431381447D-05 0.104813813922D-05 0.000000000000D+00  7 -1 1 24 -11 11 -24 21 2 0.86939999D-02 0.21625267D+00 0.64049065D+05 0.64049065D+05 0.64049065D+05 0.11379544D+01  1  2  5  2  7  2        1 -.319642798287D-02 0.100000000000D+01
0.367433168668D-04 0.000000000000D+00 0.725793891339D-05 0.104813813922D-05 0.000000000000D+00  7 -1 1 24 -11 11 -24 21 2 0.86939999D-02 0.19565872D+00 0.64049065D+05 0.64049065D+05 0.64049065D+05 0.11379544D+01  1  2  6  2  7  2        1 0.399626910238D-02 0.100000000000D+01
0.156843400316D-06 0.000000000000D+00 0.000000000000D+00 0.104813813922D-05 0.000000000000D+00  7 -1 21 24 -11 11 -24 -1 2 0.86939999D-02 0.21429454D+00 0.72394226D+05 0.72394226D+05 0.72394226D+05 0.11334201D+01  1  2 12  4  7  2        1 0.128057727199D-04 0.100000000000D+01
-.563630901868D-06 0.000000000000D+00 -.118553754218D-06 0.104813813922D-05 0.000000000000D+00  7 -1 21 24 -11 11 -24 -1 2 0.86939999D-02 0.21625267D+00 0.64049065D+05 0.64049065D+05 0.64049065D+05 0.11379544D+01  1  2  5  4  7  2        1 -.452612221913D-04 0.100000000000D+01
  </mgrwgt>
  </event>
  <event>
  8     66 0.29788925E-05 0.19628943E+03 0.75467711E-02 0.10128927E+00
       -1 -1    0    0    0  501 0.00000000E+00 0.00000000E+00 0.44148783E+02 0.44149943E+02 0.32000000E+00 0.0000E+00 0.9000E+01
        1 -1    0    0  501    0 0.00000000E+00 0.00000000E+00 -.23667820E+04 0.23667820E+04 0.32000000E+00 0.0000E+00 0.9000E+01
       25  2    1    2    0    0 -.57709229E+02 0.96058221E+01 -.22624230E+04 0.22829156E+04 0.29953829E+03 0.0000E+00 0.0000E+00
       23  2    1    2    0    0 0.57709229E+02 -.96058221E+01 -.60210224E+02 0.12801637E+03 0.96645190E+02 0.0000E+00 0.0000E+00
       24  1    3    3    0    0 -.75059577E+01 0.12909756E+03 -.10729908E+04 0.10837431E+04 0.80419002E+02 0.0000E+00 0.9000E+01
      -11  1    4    4    0    0 0.72473775E+02 -.79542120E+01 -.75479885E+01 0.73298633E+02 0.51099893E-03 0.0000E+00 0.9000E+01
       11  1    4    4    0    0 -.14764545E+02 -.16516101E+01 -.52662235E+02 0.54717736E+02 0.51099893E-03 0.0000E+00 0.9000E+01
      -24  1    3    3    0    0 -.50203272E+02 -.11949174E+03 -.11894321E+04 0.11991725E+04 0.80419002E+02 0.0000E+00 0.9000E+01
#aMCatNLO 1  0  0  1  1 0.20483858D+03 0.00000000D+00  -5  7  0 0.00000000D+00 0.00000000D+00 0.00000000D+00 0.00000000D+00 0.00000000D+00
  <mgrwgt>
 0.1703263526D-02    3    2    0
 0.323252175356598D+03 0.000000000000000D+00 0.000000000000000D+00 0.323252175356598D+03
 0.323252175356598D+03 0.000000000000000D+00 0.000000000000000D+00 -.323252175356598D+03
 0.186644811047850D+03 -.750595773373878D+01 0.129097558405685D+03 -.107919185267991D+03
 0.246226970069382D+03 0.724737746057698D+02 -.795421201269773D+01 0.235185040542968D+03
 0.148578766206419D+02 -.147645452420091D+02 -.165161013521449D+01 0.192055804752833D+00
 0.198774692975322D+03 -.502032716300219D+02 -.119491736257773D+03 -.127457911079730D+03
 0.000000000000000D+00 0.000000000000000D+00 -.000000000000000D+00 -.000000000000000D+00
 0.363221827943872D+03 0.000000000000000D+00 0.000000000000000D+00 0.363221827943872D+03
 0.773763880693882D+03 0.000000000000000D+00 0.000000000000000D+00 -.773763880693882D+03
 0.202012173868006D+03 -.673372524044318D+02 0.134762184333076D+03 -.107919185267991D+03
 0.235192611579137D+03 -.163773751870761D+01 -.937583082819502D+00 0.235185040542968D+03
 0.201936707865694D+02 -.201605101750430D+02 -.114073830749976D+01 0.192055804752833D+00
 0.220780516617709D+03 -.114791153361312D+03 -.113376772651118D+03 -.127457911079730D+03
 0.458806735786333D+03 0.203926653459494D+03 -.193070902916384D+02 -.410542052750010D+03
0.699435335184D-04 0.000000000000D+00 0.000000000000D+00 0.167665369491D-06 0.000000000000D+00  7 -1 1 24 -11 11 -24 21 0 0.67922114D-02 0.36412040D+00 0.38529542D+05 0.38529542D+05 0.38529542D+05 0.11573854D+01  1  2  2  1  7  1       -1 0.165060762275D-02 0.100000000000D+01
-.271008733445D-05 0.000000000000D+00 -.268601585266D-06 0.167665369491D-06 0.000000000000D+00  7 -1 1 24 -11 11 -24 21 2 0.67922114D-02 0.36412040D+00 0.38529542D+05 0.38529542D+05 0.38529542D+05 0.11573854D+01  1  2  3  1  7  1       -1 -.856713395286D-04 0.100000000000D+01
0.437577970153D-05 0.000000000000D+00 0.000000000000D+00 0.167665369491D-06 0.000000000000D+00  7 -1 1 24 -11 11 -24 21 2 0.67922114D-02 0.36412040D+00 0.38529542D+05 0.38529542D+05 0.38529542D+05 0.11573854D+01  1  2 15  1  7  1       -1 0.138327242722D-03 0.100000000000D+01
  </mgrwgt>
  </event>
  <event>
  8     66 0.29788925E-05 0.10432825E+03 0.75467711E-02 0.97265321E-01
       -1 -1    0    0    0  501 0.00000000E+00 0.00000000E+00 0.11121241E+04 0.11121242E+04 0.32000000E+00 0.0000E+00 0.9000E+01
        1 -1    0    0  501    0 0.00000000E+00 0.00000000E+00 -.72017165E+02 0.72017876E+02 0.32000000E+00 0.0000E+00 0.9000E+01
       25  2    1    2    0    0 -.12102105E+03 0.12952217E+03 0.50879678E+03 0.61682666E+03 0.30029798E+03 0.0000E+00 0.0000E+00
       23  2    1    2    0    0 0.12102105E+03 -.12952217E+03 0.53131017E+03 0.56731537E+03 0.90189549E+02 0.0000E+00 0.0000E+00
       24  1    3    3    0    0 0.75204417E+02 0.54641876E+02 0.15902918E+03 0.20099486E+03 0.80419002E+02 0.0000E+00 0.9000E+01
      -13  1    4    4    0    0 0.96914400E+02 -.13305511E+03 0.50635297E+03 0.53243723E+03 0.10565837E+00 0.0000E+00 0.9000E+01
       13  1    4    4    0    0 0.24106649E+02 0.35329357E+01 0.24957194E+02 0.34878143E+02 0.10565837E+00 0.0000E+00 0.9000E+01
      -24  1    3    3    0    0 -.19622547E+03 0.74880296E+02 0.34976761E+03 0.41583180E+03 0.80419002E+02 0.0000E+00 0.9000E+01
#aMCatNLO 1  0  0  1  2 0.22535801D+03 0.00000000D+00  -5  7  0 0.00000000D+00 0.00000000D+00 0.00000000D+00 0.00000000D+00 0.00000000D+00
  <mgrwgt>
 0.6338562374D-03    7    2    0
 0.283006138160646D+03 0.000000000000000D+00 0.000000000000000D+00 0.283006138160646D+03
 0.283006138160646D+03 0.000000000000000D+00 0.000000000000000D+00 -.283006138160646D+03
 0.128264199573456D+03 0.752044167245173D+02 0.546418762236683D+02 -.366476466602059D+02
 0.183423910187069D+03 0.969145013241081D+02 -.133055295235534D+03 0.809209408694564D+02
 0.271061299410089D+02 0.241065486556411D+02 0.353312224226543D+01 -.118799679929398D+02
 0.227218036619758D+03 -.196225466704267D+03 0.748802967696006D+02 -.323933262163108D+02
 0.000000000000000D+00 0.000000000000000D+00 -.000000000000000D+00 0.000000000000000D+00
 0.643144339036273D+03 0.000000000000000D+00 0.000000000000000D+00 0.643144339036273D+03
 0.342117735412869D+03 0.000000000000000D+00 0.000000000000000D+00 -.342117735412869D+03
 0.141465646296329D+03 0.487849751112265D+02 0.991074635198237D+02 -.366476466602059D+02
 0.132174410227165D+03 0.660023441152922D+02 -.810281841027388D+02 0.809209408694564D+02
 0.254823308815867D+02 0.189556252724493D+02 0.122024513183160D+02 -.118799679929398D+02
 0.310103455818606D+03 -.248854918040159D+03 0.163458984274775D+03 -.323933262163108D+02
 0.376036231225456D+03 0.115111973541191D+03 -.193740715010176D+03 0.301026603623404D+03
0.353664215568D-04 0.000000000000D+00 0.000000000000D+00 0.955573349964D-06 0.000000000000D+00  7 -1 1 24 -13 13 -24 21 0 0.17109608D+00 0.11079622D-01 0.72035202D+05 0.72035202D+05 0.72035202D+05 0.11336030D+01  1  2  2  1  7  1       -1 0.633321018639D-03 0.100000000000D+01
-.195808732792D-05 0.000000000000D+00 -.135816370971D-06 0.955573349964D-06 0.000000000000D+00  7 -1 1 24 -13 13 -24 21 2 0.17109608D+00 0.11079622D-01 0.72035202D+05 0.72035202D+05 0.72035202D+05 0.11336030D+01  1  2  3  1  7  1       -1 -.450595492946D-04 0.100000000000D+01
0.229548778993D-05 0.000000000000D+00 0.000000000000D+00 0.955573349964D-06 0.000000000000D+00  7 -1 1 24 -13 13 -24 21 2 0.17109608D+00 0.11079622D-01 0.72035202D+05 0.72035202D+05 0.72035202D+05 0.11336030D+01  1  2 15  1  7  1       -1 0.528238162571D-04 0.100000000000D+01
0.117841143445D-05 0.000000000000D+00 0.000000000000D+00 0.955573349964D-06 0.000000000000D+00  7 -1 1 24 -13 13 -24 21 2 0.38539321D+00 0.11079622D-01 0.15898268D+06 0.15898268D+06 0.15898268D+06 0.11055641D+01  1  2 12  1  7  1       -1 0.357006580615D-06 0.100000000000D+01
-.188440958424D-04 0.000000000000D+00 -.938488333475D-05 0.955573349964D-06 0.000000000000D+00  7 -1 1 24 -13 13 -24 21 2 0.41150882D+00 0.11079622D-01 0.72035202D+05 0.72035202D+05 0.72035202D+05 0.11336030D+01  1  2  5  1  7  1       -1 -.378249365626D-05 0.100000000000D+01
0.103921557216D-06 0.000000000000D+00 0.000000000000D+00 0.955573349964D-06 0.000000000000D+00  7 21 1 24 -13 13 -24 1 2 0.38539321D+00 0.11079622D-01 0.15898268D+06 0.15898268D+06 0.15898268D+06 0.11055641D+01  1  2 12  3  7  1       -1 0.481318793315D-06 0.100000000000D+01
-.122057234820D-05 0.000000000000D+00 -.901382820632D-06 0.955573349964D-06 0.000000000000D+00  7 21 1 24 -13 13 -24 1 2 0.41150882D+00 0.11079622D-01 0.72035202D+05 0.72035202D+05 0.72035202D+05 0.11336030D+01  1  2  5  3  7  1       -1 -.428487993931D-05 0.100000000000D+01
  </mgrwgt>
  </event>
  <event>
  9     66 0.29788925E-05 0.39437449E+03 0.75467711E-02 0.90811682E-01
       21 -1    0    0  502  501 0.00000000E+00 0.00000000E+00 0.20925750E+04 0.20925752E+04 0.75000000E+00 0.0000E+00 0.9000E+01
        1 -1    0    0  501    0 0.00000000E+00 0.00000000E+00 -.41187676E+03 0.41187689E+03 0.32000000E+00 0.0000E+00 0.9000E+01
       25  2    1    2    0    0 -.51321776E+03 0.32331068E+03 0.34290795E+02 0.67831980E+03 0.30169461E+03 0.0000E+00 0.0000E+00
       23  2    1    2    0    0 0.57739995E+01 -.26340003E+03 0.66772374E+03 0.72208950E+03 0.78392159E+02 0.0000E+00 0.0000E+00
       24  1    3    3    0    0 -.17061701E+03 0.15648760E+03 -.10234619E+03 0.26559460E+03 0.80419002E+02 0.0000E+00 0.9000E+01
      -11  1    4    4    0    0 0.41190593E+02 -.16193325E+03 0.42315221E+03 0.45494707E+03 0.51099893E-03 0.0000E+00 0.9000E+01
       11  1    4    4    0    0 -.35416594E+02 -.10146678E+03 0.24457153E+03 0.26714243E+03 0.51099893E-03 0.0000E+00 0.9000E+01
      -24  1    3    3    0    0 -.34260075E+03 0.16682308E+03 0.13663699E+03 0.41272521E+03 0.80419002E+02 0.0000E+00 0.9000E+01
        1  1    1    2  502    0 0.50744376E+03 -.59910649E+02 0.97868374E+03 0.11040428E+04 0.32000000E+00 0.0000E+00 0.9000E+01
#aMCatNLO 2  0  0  1  2 0.51096815D+03 0.00000000D+00  -5  7  0 0.00000000D+00 0.00000000D+00 0.00000000D+00 0.00000000D+00 0.00000000D+00
  <mgrwgt>
 0.3529494067D-04    1    2    0
 0.549370854856492D+03 0.000000000000000D+00 0.000000000000000D+00 0.549370854856492D+03
 0.549370854856492D+03 0.000000000000000D+00 0.000000000000000D+00 -.549370854856492D+03
 0.316576541020064D+03 -.206522503923643D+02 0.138782215032583D+03 -.272151560190712D+03
 0.337346380377526D+03 0.176914876575442D+03 -.177957351765576D+03 0.225465934794367D+03
 0.173401063449170D+03 0.393544435074552D+02 -.110294518858110D+03 0.127883836708865D+03
 0.271417724866223D+03 -.195617069690532D+03 0.149469655591103D+03 -.811982113125214D+02
 0.000000000000000D+00 0.000000000000000D+00 -.000000000000000D+00 0.000000000000000D+00
 0.120606690211616D+04 0.000000000000000D+00 0.000000000000000D+00 0.120606690211616D+04
 0.714623108965089D+03 0.000000000000000D+00 0.000000000000000D+00 -.714623108965089D+03
 0.366240658307233D+03 -.170617009210702D+03 0.156487597900606D+03 -.272151560190712D+03
 0.280631307136047D+03 0.411905934812412D+02 -.161933251066146D+03 0.225465934794367D+03
 0.167045257661397D+03 -.354165940209424D+02 -.101466779212403D+03 0.127883836708865D+03
 0.397826065673920D+03 -.342600748100946D+03 0.166823081303334D+03 -.811982113125214D+02
 0.708946722302655D+03 0.507443757851350D+03 -.599106489253919D+02 0.491443793151075D+03
0.353052947061D-04 0.000000000000D+00 0.000000000000D+00 0.517453905525D-08 0.296652998322D-13  7 21 1 24 -11 11 -24 1 2 0.32193463D+00 0.63365673D-01 0.50414463D+06 0.50414463D+06 0.50414463D+06 0.10682571D+01  1  2  1  3  7  1       -1 0.352949406720D-04 0.100000000000D+01
  </mgrwgt>
  </event>
  <event>
  8     66 0.29788925E-05 0.27755751E+03 0.75467711E-02 0.95947966E-01
       -1 -1    0    0    0  501 0.00000000E+00 0.00000000E+00 0.11789565E+04 0.11789566E+04 0.32000000E+00 0.0000E+00 0.9000E+01
        1 -1    0    0  501    0 0.00000000E+00 0.00000000E+00 -.12605547E+03 0.12605588E+03 0.32000000E+00 0.0000E+00 0.9000E+01
       25  2    1    2    0    0 0.30241413E+03 -.10362735E+03 0.61776598E+03 0.75760067E+03 0.30021830E+03 0.0000E+00 0.0000E+00
       23  2    1    2    0    0 -.30241413E+03 0.10362735E+03 0.43513506E+03 0.54741177E+03 0.90134277E+02 0.0000E+00 0.0000E+00
       24  1    3    3    0    0 0.73386998E+02 -.14631739E+03 0.18633235E+03 0.26073241E+03 0.80419002E+02 0.0000E+00 0.9000E+01
      -11  1    4    4    0    0 -.28658776E+02 0.20582942E+02 0.10397336E+03 0.10979728E+03 0.51099893E-03 0.0000E+00 0.9000E+01
       11  1    4    4    0    0 -.27375536E+03 0.83044410E+02 0.33116170E+03 0.43761449E+03 0.51099893E-03 0.0000E+00 0.9000E+01
      -24  1    3    3    0    0 0.22902713E+03 0.42690040E+02 0.43143363E+03 0.49686825E+03 0.80419002E+02 0.0000E+00 0.9000E+01
#aMCatNLO 1  0  0  1  2 0.13000599D+03 0.00000000D+00  -5  7  0 0.00000000D+00 0.00000000D+00 0.00000000D+00 0.00000000D+00 0.00000000D+00
  <mgrwgt>
 0.1012565794D-02    9    2    0
 0.385505141383739D+03 0.000000000000000D+00 0.000000000000000D+00 0.385505141383739D+03
 0.385505141383739D+03 0.000000000000000D+00 0.000000000000000D+00 -.385505141383739D+03
 0.186858100769534D+03 0.733869982713758D+02 -.146317392448845D+03 -.406731240564890D+02
 0.438556485649598D+02 -.286587759871171D+02 0.205829421166190D+02 0.260448644419090D+02
 0.288468074343385D+03 -.273755356664050D+03 0.830444099454858D+02 -.370872025087588D+02
 0.251828459089598D+03 0.229027134379791D+03 0.426900403867399D+02 0.517154621233388D+02
 0.000000000000000D+00 0.000000000000000D+00 0.000000000000000D+00 0.000000000000000D+00
 0.494217851719798D+03 0.000000000000000D+00 0.000000000000000D+00 0.494217851719798D+03
 0.431862684814389D+03 0.000000000000000D+00 0.000000000000000D+00 -.431862684814389D+03
 0.180647293789841D+03 0.429150053447139D+02 -.150566357779456D+03 -.406731240564890D+02
 0.487814980301391D+02 -.363398563673833D+02 0.195119047113551D+02 0.260448644419090D+02
 0.336324066197848D+03 -.325560478354939D+03 0.758207876985766D+02 -.370872025087588D+02
 0.216141260424952D+03 0.190225064548853D+03 0.372795426268980D+02 0.517154621233388D+02
 0.144186418091406D+03 0.128760264828755D+03 0.179541227426264D+02 0.623551669054086D+02
0.912790372806D-04 0.000000000000D+00 0.000000000000D+00 0.220115280941D-05 0.000000000000D+00  7 -1 1 24 -11 11 -24 21 0 0.18137796D+00 0.19393184D-01 0.14069898D+06 0.14069898D+06 0.14069898D+06 0.11097524D+01  1  2  2  1  7  1       -1 0.633175082980D-03 0.100000000000D+01
-.506644033052D-05 0.000000000000D+00 -.350535537480D-06 0.220115280941D-05 0.000000000000D+00  7 -1 1 24 -11 11 -24 21 2 0.18137796D+00 0.19393184D-01 0.14069898D+06 0.14069898D+06 0.14069898D+06 0.11097524D+01  1  2  3  1  7  1       -1 -.432820590790D-04 0.100000000000D+01
0.580085986569D-05 0.000000000000D+00 0.000000000000D+00 0.220115280941D-05 0.000000000000D+00  7 -1 1 24 -11 11 -24 21 2 0.18137796D+00 0.19393184D-01 0.14069898D+06 0.14069898D+06 0.14069898D+06 0.11097524D+01  1  2 15  1  7  1       -1 0.495561267945D-04 0.100000000000D+01
0.605453362562D-04 0.000000000000D+00 0.000000000000D+00 0.220115280941D-05 0.000000000000D+00  7 -1 1 24 -11 11 -24 21 2 0.24102859D+00 0.19393184D-01 0.19864754D+06 0.19864754D+06 0.19864754D+06 0.10980518D+01  1  2 12  1  7  1       -1 0.164446924269D-03 0.100000000000D+01
-.664810082520D-04 0.000000000000D+00 0.000000000000D+00 0.220115280941D-05 0.000000000000D+00  7 -1 1 24 -11 11 -24 21 2 0.18137796D+00 0.19393184D-01 0.14069898D+06 0.14069898D+06 0.14069898D+06 0.11097524D+01  1  2  4  1  7  1       -1 -.567940158983D-03 0.100000000000D+01
-.122933569314D-03 0.000000000000D+00 -.390473182750D-04 0.220115280941D-05 0.000000000000D+00  7 -1 1 24 -11 11 -24 21 2 0.24710383D+00 0.19393184D-01 0.14069898D+06 0.14069898D+06 0.14069898D+06 0.11097524D+01  1  2  5  1  7  1       -1 -.309246239145D-03 0.100000000000D+01
0.130513504441D-03 0.000000000000D+00 0.372520516910D-04 0.220115280941D-05 0.000000000000D+00  7 -1 1 24 -11 11 -24 21 2 0.18137796D+00 0.19393184D-01 0.14069898D+06 0.14069898D+06 0.14069898D+06 0.11097524D+01  1  2  6  1  7  1       -1 0.111496294071D-02 0.100000000000D+01
0.225124416410D-05 0.000000000000D+00 0.000000000000D+00 0.220115280941D-05 0.000000000000D+00  7 21 1 24 -11 11 -24 1 2 0.24102859D+00 0.19393184D-01 0.19864754D+06 0.19864754D+06 0.19864754D+06 0.10980518D+01  1  2 12  3  7  1       -1 0.435159646043D-04 0.100000000000D+01
-.393969276999D-05 0.000000000000D+00 -.154275050642D-05 0.220115280941D-05 0.000000000000D+00  7 21 1 24 -11 11 -24 1 2 0.24710383D+00 0.19393184D-01 0.14069898D+06 0.14069898D+06 0.14069898D+06 0.11097524D+01  1  2  5  3  7  1       -1 -.726227881599D-04 0.100000000000D+01
  </mgrwgt>
  </event>
  <event>
  8     66 0.29788925E-05 0.21778615E+03 0.75467711E-02 0.86239184E-01
       -1 -1    0    0    0  501 0.00000000E+00 0.00000000E+00 0.53417578E+03 0.53417588E+03 0.32000000E+00 0.0000E+00 0.9000E+01
        1 -1    0    0  501    0 0.00000000E+00 0.00000000E+00 -.17778364E+03 0.17778393E+03 0.32000000E+00 0.0000E+00 0.9000E+01
       25  2    1    2    0    0 0.91018416E+02 -.68868627E+02 -.60424295E+01 0.32118558E+03 0.30016067E+03 0.0000E+00 0.0000E+00
       23  2    1    2    0    0 -.91018416E+02 0.68868627E+02 0.36243457E+03 0.39077423E+03 0.91205489E+02 0.0000E+00 0.0000E+00
       24  1    3    3    0    0 0.14535970E+03 -.10249569E+03 0.53580292E+02 0.20241757E+03 0.80419002E+02 0.0000E+00 0.9000E+01
      -11  1    4    4    0    0 -.37770528E+02 -.13043077E+02 0.17387594E+03 0.17840846E+03 0.51099893E-03 0.0000E+00 0.9000E+01
       11  1    4    4    0    0 -.53247889E+02 0.81911704E+02 0.18855863E+03 0.21236577E+03 0.51099893E-03 0.0000E+00 0.9000E+01
      -24  1    3    3    0    0 -.54341289E+02 0.33627059E+02 -.59622721E+02 0.11876801E+03 0.80419002E+02 0.0000E+00 0.9000E+01
#aMCatNLO 1  0  0  1  2 0.10793696D+04 0.00000000D+00  -5  7  0 0.00000000D+00 0.00000000D+00 0.00000000D+00 0.00000000D+00 0.00000000D+00
  <mgrwgt>
 0.7598022156D-03    3    2    0
 0.308168545900504D+03 0.000000000000000D+00 0.000000000000000D+00 0.308168545900504D+03
 0.308168545900504D+03 0.000000000000000D+00 0.000000000000000D+00 -.308168545900504D+03
 0.202839618119241D+03 0.145359704947637D+03 -.102495686315148D+03 -.551532881042594D+02
 0.105545541660718D+03 -.377705275366075D+02 -.130430767577181D+02 0.976889285577076D+02
 0.136281074657160D+03 -.532478887722751D+02 0.819117040252509D+02 0.950140326198472D+02
 0.171670857363891D+03 -.543412886387547D+02 0.336270590476152D+02 -.137549673073296D+03
 0.000000000000000D+00 0.000000000000000D+00 -.000000000000000D+00 -.000000000000000D+00
 0.695576407535134D+03 0.000000000000000D+00 0.000000000000000D+00 0.695576407535134D+03
 0.455187135345453D+04 0.000000000000000D+00 0.000000000000000D+00 -.455187135345453D+04
 0.215083880028934D+03 0.131272364600922D+03 0.139712349480286D+03 -.551532881042594D+02
 0.193887142243643D+03 -.478637865846918D+02 0.160493473694194D+03 0.976889285577076D+02
 0.423454601228875D+03 -.721154255471743D+02 0.406307147740931D+03 0.950140326198472D+02
 0.410518498981959D+03 -.739656927352460D+02 0.371035558656653D+03 -.137549673073296D+03
 0.400450363850625D+04 0.626725402661899D+02 -.107754852957206D+04 -.385629494591939D+04
0.221390152090D-04 0.000000000000D+00 0.000000000000D+00 0.185802545892D-05 0.000000000000D+00  7 -1 1 24 -11 11 -24 21 0 0.82180919D-01 0.27351359D-01 0.47430808D+05 0.47430808D+05 0.47430808D+05 0.11493160D+01  1  2  2  1  7  1       -1 0.745180394631D-03 0.100000000000D+01
-.104974326277D-05 0.000000000000D+00 -.850196477393D-07 0.185802545892D-05 0.000000000000D+00  7 -1 1 24 -11 11 -24 21 2 0.82180919D-01 0.27351359D-01 0.47430808D+05 0.47430808D+05 0.47430808D+05 0.11493160D+01  1  2  3  1  7  1       -1 -.466729331043D-04 0.100000000000D+01
0.137860963177D-05 0.000000000000D+00 0.000000000000D+00 0.185802545892D-05 0.000000000000D+00  7 -1 1 24 -11 11 -24 21 2 0.82180919D-01 0.27351359D-01 0.47430808D+05 0.47430808D+05 0.47430808D+05 0.11493160D+01  1  2 15  1  7  1       -1 0.612947540627D-04 0.100000000000D+01
  </mgrwgt>
  </event>
  <event>
  8     66 0.29788925E-05 0.19397416E+03 0.75467711E-02 0.91880596E-01
       -1 -1    0    0    0  501 0.00000000E+00 0.00000000E+00 0.64595727E+02 0.64596520E+02 0.32000000E+00 0.0000E+00 0.9000E+01
        1 -1    0    0  501    0 0.00000000E+00 0.00000000E+00 -.64525594E+03 0.64525602E+03 0.32000000E+00 0.0000E+00 0.9000E+01
       25  2    1    2    0    0 -.12183251E+02 0.22979383E+02 -.50103176E+03 0.58505868E+03 0.30097235E+03 0.0000E+00 0.0000E+00
       23  2    1    2    0    0 0.12183251E+02 -.22979383E+02 -.79628458E+02 0.12479386E+03 0.92500448E+02 0.0000E+00 0.0000E+00
       24  1    3    3    0    0 0.49961132E+02 0.11915437E+03 -.33486592E+03 0.36782642E+03 0.80419002E+02 0.0000E+00 0.9000E+01
      -13  1    4    4    0    0 -.39852854E+02 -.25510293E+01 -.28774842E+02 0.49221544E+02 0.10565837E+00 0.0000E+00 0.9000E+01
       13  1    4    4    0    0 0.52036104E+02 -.20428354E+02 -.50853616E+02 0.75572317E+02 0.10565837E+00 0.0000E+00 0.9000E+01
      -24  1    3    3    0    0 -.62144383E+02 -.96174985E+02 -.16616584E+03 0.21723226E+03 0.80419002E+02 0.0000E+00 0.9000E+01
#aMCatNLO 1  0  0  2  1 0.58900440D+03 0.00000000D+00  -5  7  0 0.00000000D+00 0.00000000D+00 0.00000000D+00 0.00000000D+00 0.00000000D+00
  <mgrwgt>
 0.1230536195D-02    3    2    0
 0.204159463515974D+03 0.000000000000000D+00 0.000000000000000D+00 0.204159463515974D+03
 0.204159463515974D+03 0.000000000000000D+00 0.000000000000000D+00 -.204159463515974D+03
 0.163252797624289D+03 0.499607054944520D+02 0.119154313439322D+03 -.590799244505873D+02
 0.446505481418952D+02 -.398528049363184D+02 -.255130995395683D+01 0.199728867617652D+02
 0.590635304305326D+02 0.520364281877397D+02 -.204287758698191D+02 0.190624207497726D+02
 0.141352050835231D+03 -.621443287458733D+02 -.961742276155459D+02 0.200446169390495D+02
 0.000000000000000D+00 0.000000000000000D+00 0.000000000000000D+00 0.000000000000000D+00
 0.123011807405361D+04 0.000000000000000D+00 0.000000000000000D+00 0.123011807405361D+04
 0.457835997407426D+03 0.000000000000000D+00 0.000000000000000D+00 -.457835997407426D+03
 0.106277813480593D+03 -.358653640445797D+02 0.714113945444073D+01 -.590799244505873D+02
 0.116257943771643D+03 -.910905599348336D+02 -.694226416608492D+02 0.199728867617652D+02
 0.814080660529618D+02 0.730635111549272D+01 -.788068180236911D+02 0.190624207497726D+02
 0.412750347624239D+03 -.238585998161379D+03 -.326451479277802D+03 0.200446169390495D+02
 0.971259900531602D+03 0.358235571025299D+03 0.467539799507901D+03 0.772282076646187D+03
0.575057068453D-05 0.000000000000D+00 0.000000000000D+00 0.440545194711D-07 0.000000000000D+00  7 -1 1 24 -13 13 -24 21 0 0.99378713D-02 0.99270212D-01 0.37625975D+05 0.37625975D+05 0.37625975D+05 0.11583179D+01  1  2  2  2  7  2        1 0.121826199677D-02 0.100000000000D+01
-.318458824054D-06 0.000000000000D+00 -.220837055886D-07 0.440545194711D-07 0.000000000000D+00  7 -1 1 24 -13 13 -24 21 2 0.99378713D-02 0.99270212D-01 0.37625975D+05 0.37625975D+05 0.37625975D+05 0.11583179D+01  1  2  3  2  7  2        1 -.905187487466D-04 0.100000000000D+01
0.361641334771D-06 0.000000000000D+00 0.000000000000D+00 0.440545194711D-07 0.000000000000D+00  7 -1 1 24 -13 13 -24 21 2 0.99378713D-02 0.99270212D-01 0.37625975D+05 0.37625975D+05 0.37625975D+05 0.11583179D+01  1  2 15  2  7  2        1 0.102792947301D-03 0.100000000000D+01
  </mgrwgt>
  </event>
  <event>
  8     66 0.29788925E-05 0.13818464E+03 0.75467711E-02 0.10087149E+00
       -1 -1    0    0    0  501 0.00000000E+00 0.00000000E+00 0.70402566E+02 0.70403293E+02 0.32000000E+00 0.0000E+00 0.9000E+01
        1 -1    0    0  501    0 0.00000000E+00 0.00000000E+00 -.67663480E+03 0.67663488E+03 0.32000000E+00 0.0000E+00 0.9000E+01
       25  2    1    2    0    0 0.79690733E+02 -.31867169E+02 -.42351707E+03 0.52562730E+03 0.29925109E+03 0.0000E+00 0.0000E+00
       23  2    1    2    0    0 -.79690733E+02 0.31867169E+02 -.18271517E+03 0.22141088E+03 0.90949519E+02 0.0000E+00 0.0000E+00
       24  1    3    3    0    0 0.11865553E+02 -.47736467E+01 0.68914112E+01 0.81720784E+02 0.80419002E+02 0.0000E+00 0.9000E+01
      -11  1    4    4    0    0 -.34532863E+02 0.89961930E+01 -.16336823E+03 0.16722030E+03 0.51099893E-03 0.0000E+00 0.9000E+01
       11  1    4    4    0    0 -.45157869E+02 0.22870976E+02 -.19346938E+02 0.54190578E+02 0.51099893E-03 0.0000E+00 0.9000E+01
      -24  1    3    3    0    0 0.67825180E+02 -.27093523E+02 -.43040848E+03 0.44390651E+03 0.80419002E+02 0.0000E+00 0.9000E+01
#aMCatNLO 1  0  0  1  2 0.24430786D+03 0.00000000D+00  -5  7  0 0.00000000D+00 0.00000000D+00 0.00000000D+00 0.00000000D+00 0.00000000D+00
  <mgrwgt>
 0.2909460596D-03    5    2    0
 0.218259310102770D+03 0.000000000000000D+00 0.000000000000000D+00 0.218259310102770D+03
 0.218259310102770D+03 0.000000000000000D+00 0.000000000000000D+00 -.218259310102770D+03
 0.149423960139508D+03 0.118655529583602D+02 -.477364669139496D+01 0.125286570947013D+03
 0.592892458157440D+02 -.345328631785580D+02 0.899619299458316D+01 -.473472759691086D+02
 0.658704842111113D+02 -.451578694403172D+02 0.228709762657157D+02 0.421498038248175D+02
 0.161934930039177D+03 0.678251796605150D+02 -.270935225689039D+02 -.120089098802722D+03
 0.000000000000000D+00 -.000000000000000D+00 0.000000000000000D+00 0.000000000000000D+00
 0.222738750705391D+04 0.000000000000000D+00 0.000000000000000D+00 0.222738750705391D+04
 0.257663947233529D+03 0.000000000000000D+00 0.000000000000000D+00 -.257663947233529D+03
 0.178214238976410D+03 0.820877368972022D+02 -.534600562196223D+02 0.125286570947013D+03
 0.491915144195591D+02 -.112823511209767D+02 -.712384042337861D+01 -.473472759691086D+02
 0.474220241209442D+02 -.208760629218663D+02 0.603592628675068D+01 0.421498038248175D+02
 0.225407002298479D+03 0.150843571573413D+03 -.846517926245089D+02 -.120089098802722D+03
 0.198481667447205D+04 -.200772894427772D+03 0.139199762980759D+03 0.196972355982038D+04
0.380002495964D-05 0.000000000000D+00 0.000000000000D+00 0.230892352870D-06 0.000000000000D+00  7 -1 1 24 -11 11 -24 21 0 0.10831226D-01 0.10409772D+00 0.19094995D+05 0.19094995D+05 0.19094995D+05 0.11859897D+01  1  2  2  1  7  1       -1 0.655624232420D-03 0.100000000000D+01
-.157482877553D-06 0.000000000000D+00 -.145930964146D-07 0.230892352870D-06 0.000000000000D+00  7 -1 1 24 -11 11 -24 21 2 0.10831226D-01 0.10409772D+00 0.19094995D+05 0.19094995D+05 0.19094995D+05 0.11859897D+01  1  2  3  1  7  1       -1 -.382176268682D-04 0.100000000000D+01
0.243628196171D-06 0.000000000000D+00 0.000000000000D+00 0.230892352870D-06 0.000000000000D+00  7 -1 1 24 -11 11 -24 21 2 0.10831226D-01 0.10409772D+00 0.19094995D+05 0.19094995D+05 0.19094995D+05 0.11859897D+01  1  2 15  1  7  1       -1 0.591231989185D-04 0.100000000000D+01
-.337668221989D-04 0.000000000000D+00 -.306794196421D-05 0.230892352870D-06 0.000000000000D+00  7 -1 1 24 -11 11 -24 21 2 0.12036198D+00 0.10409772D+00 0.19094995D+05 0.19094995D+05 0.19094995D+05 0.11859897D+01  1  2  5  1  7  1       -1 -.123019311307D-03 0.100000000000D+01
-.101017062359D-04 0.000000000000D+00 -.868444657568D-06 0.230892352870D-06 0.000000000000D+00  7 21 1 24 -11 11 -24 1 2 0.12036198D+00 0.10409772D+00 0.19094995D+05 0.19094995D+05 0.19094995D+05 0.11859897D+01  1  2  5  3  7  1       -1 -.262564433530D-03 0.100000000000D+01
  </mgrwgt>
  </event>
  <event>
  8     66 0.29788925E-05 0.10611978E+04 0.75467711E-02 0.85588820E-01
       -1 -1    0    0    0  501 0.00000000E+00 0.00000000E+00 0.10046706E+04 0.10046706E+04 0.32000000E+00 0.0000E+00 0.9000E+01
        1 -1    0    0  501    0 0.00000000E+00 0.00000000E+00 -.14557752E+04 0.14557753E+04 0.32000000E+00 0.0000E+00 0.9000E+01
       25  2    1    2    0    0 -.10981899E+04 -.45466821E+03 -.26675746E+03 0.12545792E+04 0.30010854E+03 0.0000E+00 0.0000E+00
       23  2    1    2    0    0 0.10981899E+04 0.45466821E+03 -.18434721E+03 0.12058667E+04 0.85943999E+02 0.0000E+00 0.0000E+00
       24  1    3    3    0    0 -.93500195E+03 -.30058665E+03 -.24337368E+03 0.10150266E+04 0.80419002E+02 0.0000E+00 0.9000E+01
      -11  1    4    4    0    0 0.22106352E+02 0.70467038E+01 -.16272316E+02 0.28339639E+02 0.51099893E-03 0.0000E+00 0.9000E+01
       11  1    4    4    0    0 0.10760836E+04 0.44762150E+03 -.16807490E+03 0.11775271E+04 0.51099893E-03 0.0000E+00 0.9000E+01
      -24  1    3    3    0    0 -.16318796E+03 -.15408156E+03 -.23383777E+02 0.23955261E+03 0.80419002E+02 0.0000E+00 0.9000E+01
#aMCatNLO 1  0  0  1  2 0.46600511D+01 0.00000000D+00  -5  7  0 0.00000000D+00 0.00000000D+00 0.00000000D+00 0.00000000D+00 0.00000000D+00
  <mgrwgt>
 0.3656578079D-02   10    2    0
 0.120936952390591D+04 0.000000000000000D+00 0.000000000000000D+00 0.120936952390591D+04
 0.120936952390591D+04 0.000000000000000D+00 0.000000000000000D+00 -.120936952390591D+04
 0.987138717616716D+03 -.935001950214312D+03 -.300586648125921D+03 -.582636415568114D+02
 0.257934522144731D+02 0.221063524076179D+02 0.704670380324069D+01 -.112674454016829D+02
 0.116648477723590D+04 0.107608355813197D+04 0.447621502429097D+03 0.486405386919503D+02
 0.239322100744731D+03 -.163187960325273D+03 -.154081558106417D+03 0.208905482665441D+02
 0.000000000000000D+00 0.000000000000000D+00 0.000000000000000D+00 0.000000000000000D+00
 0.121263931758710D+04 0.000000000000000D+00 0.000000000000000D+00 0.121263931758710D+04
 0.121103326421262D+04 0.000000000000000D+00 0.000000000000000D+00 -.121103326421262D+04
 0.988869834684798D+03 -.936421593514435D+03 -.301854735373811D+03 -.582636415568114D+02
 0.257526915509052D+02 0.220693196035045D+02 0.701362448913011D+01 -.112674454016829D+02
 0.116436622276448D+04 0.107440898187475D+04 0.446125697956799D+03 0.486405386919503D+02
 0.239754787939069D+03 -.163532148256278D+03 -.154389001762261D+03 0.208905482665441D+02
 0.492904486046769D+01 0.347544029245580D+01 0.310441469014302D+01 0.160605337448726D+01
0.395238190253D-02 0.000000000000D+00 0.000000000000D+00 0.250829924184D-05 0.000000000000D+00  7 -1 1 24 -11 11 -24 21 0 0.15456471D+00 0.22396543D+00 0.14550377D+07 0.14550377D+07 0.14550377D+07 0.10371910D+01  1  2  2  1  7  1       -1 0.101211899116D-02 0.100000000000D+01
-.219574990790D-03 0.000000000000D+00 -.151781871918D-04 0.250829924184D-05 0.000000000000D+00  7 -1 1 24 -11 11 -24 21 2 0.15456471D+00 0.22396543D+00 0.14550377D+07 0.14550377D+07 0.14550377D+07 0.10371910D+01  1  2  3  1  7  1       -1 -.604885319261D-04 0.100000000000D+01
0.251977941771D-03 0.000000000000D+00 0.000000000000D+00 0.250829924184D-05 0.000000000000D+00  7 -1 1 24 -11 11 -24 21 2 0.15456471D+00 0.22396543D+00 0.14550377D+07 0.14550377D+07 0.14550377D+07 0.10371910D+01  1  2 15  1  7  1       -1 0.694148988490D-04 0.100000000000D+01
-.147698284211D+00 0.000000000000D+00 0.000000000000D+00 0.250829924184D-05 0.000000000000D+00  7 -1 1 24 -11 11 -24 21 2 0.15456471D+00 0.22396543D+00 0.14550377D+07 0.14550377D+07 0.14550377D+07 0.10371910D+01  1  2  4  1  7  1       -1 -.406879323905D-01 0.100000000000D+01
-.148267033823D+01 0.000000000000D+00 -.123191239010D+00 0.250829924184D-05 0.000000000000D+00  7 -1 1 24 -11 11 -24 21 2 0.15512265D+00 0.22396543D+00 0.14550377D+07 0.14550377D+07 0.14550377D+07 0.10371910D+01  1  2  5  1  7  1       -1 -.404055328959D+00 0.100000000000D+01
0.148310540152D+01 0.000000000000D+00 0.123190439284D+00 0.250829924184D-05 0.000000000000D+00  7 -1 1 24 -11 11 -24 21 2 0.15456471D+00 0.22396543D+00 0.14550377D+07 0.14550377D+07 0.14550377D+07 0.10371910D+01  1  2  6  1  7  1       -1 0.408565966947D+00 0.100000000000D+01
0.147699313507D+00 0.000000000000D+00 0.000000000000D+00 0.250829924184D-05 0.662562202450D-06  7 -1 1 24 -11 11 -24 21 2 0.15498261D+00 0.22427354D+00 0.14606677D+07 0.14606677D+07 0.14606677D+07 0.10370828D+01  1  2 11  1  7  1       -1 0.402118284600D-01 0.100000000000D+01
0.372947583730D-04 0.000000000000D+00 0.000000000000D+00 0.250829924184D-05 0.000000000000D+00  7 21 1 24 -11 11 -24 1 2 0.15508871D+00 0.22396543D+00 0.14606677D+07 0.14606677D+07 0.14606677D+07 0.10370828D+01  1  2 12  3  7  1       -1 0.608961166258D-04 0.100000000000D+01
-.995722559340D-03 0.000000000000D+00 -.827816205404D-04 0.250829924184D-05 0.000000000000D+00  7 21 1 24 -11 11 -24 1 2 0.15512265D+00 0.22396543D+00 0.14550377D+07 0.14550377D+07 0.14550377D+07 0.10371910D+01  1  2  5  3  7  1       -1 -.162570577538D-02 0.100000000000D+01
0.101657229804D-03 0.000000000000D+00 0.000000000000D+00 0.250829924184D-05 0.334496351846D-09  7 21 1 24 -11 11 -24 1 2 0.15498261D+00 0.22427354D+00 0.14606677D+07 0.14606677D+07 0.14606677D+07 0.10370828D+01  1  2 11  3  7  1       -1 0.165808321862D-03 0.100000000000D+01
  </mgrwgt>
  </event>
  <event>
  9     66 0.29788925E-05 0.23123875E+03 0.75467711E-02 0.98681919E-01
       21 -1    0    0  502  501 0.00000000E+00 0.00000000E+00 0.10010612E+03 0.10010893E+03 0.75000000E+00 0.0000E+00 0.9000E+01
        1 -1    0    0  501    0 0.00000000E+00 0.00000000E+00 -.16237177E+04 0.16237178E+04 0.32000000E+00 0.0000E+00 0.9000E+01
       25  2    1    2    0    0 0.16513567E+02 0.16196741E+02 -.90416197E+03 0.95260439E+03 0.29901710E+03 0.0000E+00 0.0000E+00
       23  2    1    2    0    0 0.98968879E+02 -.18018786E+03 -.47047159E+03 0.52137466E+03 0.90694648E+02 0.0000E+00 0.0000E+00
       24  1    3    3    0    0 -.93817992E+02 0.82044128E+02 -.44399667E+03 0.46811677E+03 0.80419002E+02 0.0000E+00 0.9000E+01
      -13  1    4    4    0    0 0.77363726E+01 -.48802522E+02 -.45011519E+02 0.66840000E+02 0.10565837E+00 0.0000E+00 0.9000E+01
       13  1    4    4    0    0 0.91232507E+02 -.13138533E+03 -.42546007E+03 0.45453466E+03 0.10565837E+00 0.0000E+00 0.9000E+01
      -24  1    3    3    0    0 0.11033156E+03 -.65847387E+02 -.46016531E+03 0.48448762E+03 0.80419002E+02 0.0000E+00 0.9000E+01
        1  1    1    2  502    0 -.11548245E+03 0.16399111E+03 -.14897805E+03 0.24984764E+03 0.32000000E+00 0.0000E+00 0.9000E+01
#aMCatNLO 2  0  0  1  2 0.20057238D+03 0.00000000D+00  -5  7  0 0.00000000D+00 0.00000000D+00 0.00000000D+00 0.00000000D+00 0.00000000D+00
  <mgrwgt>
 0.2150936766D-03    2    2    0
 0.246357231230040D+03 0.000000000000000D+00 0.000000000000000D+00 0.246357231230040D+03
 0.246357231230040D+03 0.000000000000000D+00 0.000000000000000D+00 -.246357231230040D+03
 0.210975003497957D+03 -.134471367927613D+03 0.139774049543690D+03 -.205888908984186D+02
 0.563202155117742D+02 -.637463857347121D+01 -.287641939914269D+02 0.479994979387688D+02
 0.107650854445180D+03 0.610668759975402D+02 -.885485150031051D+02 -.432476697905683D+01
 0.117768389005170D+03 0.797791305035442D+02 -.224613405491581D+02 -.230858400612933D+02
 0.000000000000000D+00 -.000000000000000D+00 0.000000000000000D+00 0.000000000000000D+00
 0.536054929223119D+03 0.000000000000000D+00 0.000000000000000D+00 0.536054929223119D+03
 0.303227224697450D+03 0.000000000000000D+00 0.000000000000000D+00 -.303227224697450D+03
 0.149747031674055D+03 -.938179928647823D+02 0.820441303641930D+02 -.205888908984186D+02
 0.688874226198547D+02 0.773626283367200D+01 -.488024121350671D+02 0.479994979387688D+02
 0.160013217885911D+03 0.912326182099105D+02 -.131385446923719D+03 -.432476697905683D+01
 0.153326784348831D+03 0.110331557817357D+03 -.658473855414339D+02 -.230858400612933D+02
 0.307307697391916D+03 -.115482445996157D+03 0.163991114236027D+03 0.232827704525669D+03
-.922848839960D-08 0.000000000000D+00 0.000000000000D+00 0.221913420213D-06 0.000000000000D+00  7 21 1 24 -13 13 -24 1 2 0.15346514D-01 0.20295258D+00 0.12596915D+06 0.12596915D+06 0.12596915D+06 0.11135859D+01  1  2 13  3  7  1       -1 -.469820562960D-05 0.100000000000D+01
0.694133316609D-06 0.000000000000D+00 0.000000000000D+00 0.221913420213D-06 0.711869360487D-11  7 21 1 24 -13 13 -24 1 2 0.15401156D-01 0.24980288D+00 0.12596915D+06 0.12596915D+06 0.12596915D+06 0.11135859D+01  1  2  1  3  7  1       -1 0.219791882213D-03 0.100000000000D+01
  </mgrwgt>
  </event>
  <event>
  8     66 0.29788925E-05 0.13552424E+03 0.75467711E-02 0.10536575E+00
       -1 -1    0    0    0  501 0.00000000E+00 0.00000000E+00 0.51325001E+02 0.51325998E+02 0.32000000E+00 0.0000E+00 0.9000E+01
        1 -1    0    0  501    0 0.00000000E+00 0.00000000E+00 -.88722124E+03 0.88722129E+03 0.32000000E+00 0.0000E+00 0.9000E+01
       25  2    1    2    0    0 -.43206336E+02 -.57377879E+02 -.55969979E+03 0.63897355E+03 0.29977381E+03 0.0000E+00 0.0000E+00
       23  2    1    2    0    0 0.43206336E+02 0.57377879E+02 -.27619645E+03 0.29957374E+03 0.91109491E+02 0.0000E+00 0.0000E+00
       24  1    3    3    0    0 -.43985251E+02 -.15604013E+03 -.32806378E+03 0.37466824E+03 0.80419002E+02 0.0000E+00 0.9000E+01
      -13  1    4    4    0    0 0.10384024E+02 0.79039736E+01 0.36077630E+01 0.13539862E+02 0.10565837E+00 0.0000E+00 0.9000E+01
       13  1    4    4    0    0 0.32822312E+02 0.49473906E+02 -.27980421E+03 0.28603388E+03 0.10565837E+00 0.0000E+00 0.9000E+01
      -24  1    3    3    0    0 0.77891469E+00 0.98662250E+02 -.23163600E+03 0.26430532E+03 0.80419002E+02 0.0000E+00 0.9000E+01
#aMCatNLO 1  0  0  2  1 0.45477074D+02 0.00000000D+00  -5  7  0 0.00000000D+00 0.00000000D+00 0.00000000D+00 0.00000000D+00 0.00000000D+00
  <mgrwgt>
 0.8405056072D-03    9    2    0
 0.213394296336194D+03 0.000000000000000D+00 0.000000000000000D+00 0.213394296336194D+03
 0.213394296336194D+03 0.000000000000000D+00 0.000000000000000D+00 -.213394296336194D+03
 0.181393265376816D+03 -.439852574275157D+02 -.156040129330649D+03 0.123723860755761D+02
 0.368414040714242D+02 0.103839987962549D+02 0.790392425114529D+01 0.344527154863806D+02
 0.809981023620746D+02 0.328223519676888D+02 0.494739749740738D+02 -.550972921097852D+02
 0.127555820862074D+03 0.778906663571988D+00 0.986622301054298D+02 0.827219054782859D+01
 0.000000000000000D+00 -.000000000000000D+00 0.000000000000000D+00 -.000000000000000D+00
 0.219419206796724D+03 0.000000000000000D+00 0.000000000000000D+00 0.219419206796724D+03
 0.321942179995773D+03 0.000000000000000D+00 0.000000000000000D+00 -.321942179995773D+03
 0.194001887531910D+03 -.333701895388946D+02 -.172924465951202D+03 0.123723860755761D+02
 0.369258773682767D+02 0.124699199765740D+02 0.458605612802159D+01 0.344527154863806D+02
 0.788551057397071D+02 0.373425292876844D+02 0.422841768252359D+02 -.550972921097852D+02
 0.119421820763155D+03 0.776270603473964D+01 0.875537924853930D+02 0.827219054782859D+01
 0.112156695389448D+03 -.242049657601035D+02 0.385004405125518D+02 -.102522973199050D+03
0.385060475687D-05 0.000000000000D+00 0.000000000000D+00 0.844808851172D-06 0.000000000000D+00  7 -1 1 24 -13 13 -24 21 0 0.78962351D-02 0.13649566D+00 0.36229233D+05 0.36229233D+05 0.36229233D+05 0.11598091D+01  1  2  2  2  7  2        1 0.711034503254D-03 0.100000000000D+01
-.210522600032D-06 0.000000000000D+00 -.147873361539D-07 0.844808851172D-06 0.000000000000D+00  7 -1 1 24 -13 13 -24 21 2 0.78962351D-02 0.13649566D+00 0.36229233D+05 0.36229233D+05 0.36229233D+05 0.11598091D+01  1  2  3  2  7  2        1 -.522917843286D-04 0.100000000000D+01
0.246783801556D-06 0.000000000000D+00 0.000000000000D+00 0.844808851172D-06 0.000000000000D+00  7 -1 1 24 -13 13 -24 21 2 0.78962351D-02 0.13649566D+00 0.36229233D+05 0.36229233D+05 0.36229233D+05 0.11598091D+01  1  2 15  2  7  2        1 0.612987172150D-04 0.100000000000D+01
0.115671796519D-04 0.000000000000D+00 0.000000000000D+00 0.844808851172D-06 0.000000000000D+00  7 -1 1 24 -13 13 -24 21 2 0.78962351D-02 0.20706643D+00 0.45778541D+05 0.45778541D+05 0.45778541D+05 0.11506803D+01  1  2 12  2  7  2        1 0.132970958875D-02 0.100000000000D+01
-.112898946708D-04 0.000000000000D+00 0.000000000000D+00 0.844808851172D-06 0.000000000000D+00  7 -1 1 24 -13 13 -24 21 2 0.78962351D-02 0.13649566D+00 0.36229233D+05 0.36229233D+05 0.36229233D+05 0.11598091D+01  1  2  4  2  7  2        1 -.280430099726D-02 0.100000000000D+01
-.127702869566D-04 0.000000000000D+00 -.145084188193D-05 0.844808851172D-06 0.000000000000D+00  7 -1 1 24 -13 13 -24 21 2 0.78962351D-02 0.20807201D+00 0.36229233D+05 0.36229233D+05 0.36229233D+05 0.11598091D+01  1  2  5  2  7  2        1 -.147916697289D-02 0.100000000000D+01
0.123849360330D-04 0.000000000000D+00 0.133081099705D-05 0.844808851172D-06 0.000000000000D+00  7 -1 1 24 -13 13 -24 21 2 0.78962351D-02 0.13649566D+00 0.36229233D+05 0.36229233D+05 0.36229233D+05 0.11598091D+01  1  2  6  2  7  2        1 0.307629871501D-02 0.100000000000D+01
0.567499178238D-06 0.000000000000D+00 0.000000000000D+00 0.844808851172D-06 0.000000000000D+00  7 -1 21 24 -13 13 -24 -1 2 0.78962351D-02 0.20706643D+00 0.45778541D+05 0.45778541D+05 0.45778541D+05 0.11506803D+01  1  2 12  4  7  2        1 0.638363070688D-04 0.100000000000D+01
-.578805128618D-06 0.000000000000D+00 -.717930114262D-07 0.844808851172D-06 0.000000000000D+00  7 -1 21 24 -13 13 -24 -1 2 0.78962351D-02 0.20807201D+00 0.36229233D+05 0.36229233D+05 0.36229233D+05 0.11598091D+01  1  2  5  4  7  2        1 -.659124695862D-04 0.100000000000D+01
  </mgrwgt>
  </event>
  <event>
  8     66 0.29788925E-05 0.22569653E+03 0.75467711E-02 0.92928221E-01
       -1 -1    0    0    0  501 0.00000000E+00 0.00000000E+00 0.38531944E+03 0.38531957E+03 0.32000000E+00 0.0000E+00 0.9000E+01
        1 -1    0    0  501    0 0.00000000E+00 0.00000000E+00 -.25716401E+03 0.25716421E+03 0.32000000E+00 0.0000E+00 0.9000E+01
       25  2    1    2    0    0 0.94498263E+02 0.16719932E+03 -.58162192E+02 0.35983487E+03 0.29868505E+03 0.0000E+00 0.0000E+00
       23  2    1    2    0    0 -.94498263E+02 -.16719932E+03 0.18631762E+03 0.28264892E+03 0.91052855E+02 0.0000E+00 0.0000E+00
       24  1    3    3    0    0 0.45847017E+02 0.92545689E+02 0.97536877E+02 0.16324004E+03 0.80419002E+02 0.0000E+00 0.9000E+01
      -11  1    4    4    0    0 -.31182583E+02 -.11267132E+03 0.15332919E+03 0.19281343E+03 0.51099893E-03 0.0000E+00 0.9000E+01
       11  1    4    4    0    0 -.63315680E+02 -.54528003E+02 0.32988431E+02 0.89835489E+02 0.51099893E-03 0.0000E+00 0.9000E+01
      -24  1    3    3    0    0 0.48651246E+02 0.74653630E+02 -.15569907E+03 0.19659482E+03 0.80419002E+02 0.0000E+00 0.9000E+01
#aMCatNLO 1  0  0  2  2 0.50210041D+03 0.00000000D+00  -5  7  0 0.00000000D+00 0.00000000D+00 0.00000000D+00 0.00000000D+00 0.00000000D+00
  <mgrwgt>
 0.7376696092D-03    3    2    0
 0.314786277735261D+03 0.000000000000000D+00 0.000000000000000D+00 0.314786277735261D+03
 0.314786277735261D+03 0.000000000000000D+00 0.000000000000000D+00 -.314786277735261D+03
 0.146733208379352D+03 0.458470166270278D+02 0.925456887339590D+02 0.663081069710639D+02
 0.165556034230904D+03 -.311825825162154D+02 -.112671315622057D+03 0.117224663163852D+03
 0.849627230287111D+02 -.633156801016814D+02 -.545280033821599D+02 0.153780949688241D+02
 0.232320589831554D+03 0.486512459908689D+02 0.746536302702583D+02 -.198910865103740D+03
 0.000000000000000D+00 0.000000000000000D+00 0.000000000000000D+00 0.000000000000000D+00
 0.103396693304154D+04 0.000000000000000D+00 0.000000000000000D+00 0.103396693304154D+04
 0.502467931124429D+03 0.000000000000000D+00 0.000000000000000D+00 -.502467931124429D+03
 0.146072470996000D+03 -.563670598144847D+02 0.854162768229269D+02 0.663081069710639D+02
 0.242820585861199D+03 -.173740743109512D+03 -.122614719539914D+03 0.117224663163852D+03
 0.162073584187441D+03 -.149552354347510D+03 -.605429946039200D+02 0.153780949688241D+02
 0.254307491656958D+03 -.121223327569197D+03 0.628049118717348D+02 -.198910865103740D+03
 0.731160731464369D+03 0.500883484840704D+03 0.349365254491728D+02 0.531499001917109D+03
0.184743063034D-04 0.000000000000D+00 0.000000000000D+00 0.361227502820D-06 0.000000000000D+00  7 -1 1 24 -11 11 -24 21 0 0.59279940D-01 0.39563720D-01 0.50938924D+05 0.50938924D+05 0.50938924D+05 0.11465854D+01  1  2  2  2  7  2        1 0.723514888755D-03 0.100000000000D+01
-.888219858587D-06 0.000000000000D+00 -.709462006017D-07 0.361227502820D-06 0.000000000000D+00  7 -1 1 24 -11 11 -24 21 2 0.59279940D-01 0.39563720D-01 0.50938924D+05 0.50938924D+05 0.50938924D+05 0.11465854D+01  1  2  3  2  7  2        1 -.457312009377D-04 0.100000000000D+01
0.116314165295D-05 0.000000000000D+00 0.000000000000D+00 0.361227502820D-06 0.000000000000D+00  7 -1 1 24 -11 11 -24 21 2 0.59279940D-01 0.39563720D-01 0.50938924D+05 0.50938924D+05 0.50938924D+05 0.11465854D+01  1  2 15  2  7  2        1 0.598859214145D-04 0.100000000000D+01
  </mgrwgt>
  </event>
  <event>
  9     66 0.29788925E-05 0.19571507E+03 0.75467711E-02 0.10415885E+00
       -1 -1    0    0    0  502 0.00000000E+00 0.00000000E+00 0.52250904E+03 0.52250914E+03 0.32000000E+00 0.0000E+00 0.9000E+01
        1 -1    0    0  501    0 0.00000000E+00 0.00000000E+00 -.40502672E+03 0.40502685E+03 0.32000000E+00 0.0000E+00 0.9000E+01
       25  2    1    2    0    0 0.10897196E+03 -.47904334E+02 0.17671497E+03 0.36811541E+03 0.30018504E+03 0.0000E+00 0.0000E+00
       23  2    1    2    0    0 -.15803710E+03 0.80470759E+01 -.27754513E+03 0.33213906E+03 0.90799637E+02 0.0000E+00 0.0000E+00
       24  1    3    3    0    0 0.16727745E+02 -.59055407E+02 0.21648419E+03 0.23895602E+03 0.80419002E+02 0.0000E+00 0.9000E+01
      -13  1    4    4    0    0 -.16689342E+03 0.15669084E+02 -.27125054E+03 0.31886643E+03 0.10565837E+00 0.0000E+00 0.9000E+01
       13  1    4    4    0    0 0.88563272E+01 -.76220083E+01 -.62945930E+01 0.13272626E+02 0.10565837E+00 0.0000E+00 0.9000E+01
      -24  1    3    3    0    0 0.92244214E+02 0.11151073E+02 -.39769218E+02 0.12915939E+03 0.80419002E+02 0.0000E+00 0.9000E+01
       21  1    1    2  501  502 0.49065138E+02 0.39857258E+02 0.21831247E+03 0.22728152E+03 0.75000000E+00 0.0000E+00 0.9000E+01
#aMCatNLO 2  0  0  1  2 0.63213834D+02 0.00000000D+00  -5  7  0 0.00000000D+00 0.00000000D+00 0.00000000D+00 0.00000000D+00 0.00000000D+00
  <mgrwgt>
 0.1768428991D-03    2    2    0
 0.345033915163462D+03 0.000000000000000D+00 0.000000000000000D+00 0.345033915163462D+03
 0.345033915163462D+03 0.000000000000000D+00 0.000000000000000D+00 -.345033915163462D+03
 0.271893733071643D+03 0.360577864721741D+02 -.433529651451501D+02 0.253533710928377D+03
 0.272978280442281D+03 -.147178059698884D+03 0.316847609592432D+02 -.227709982783918D+03
 0.127379249905711D+02 0.975178529894449D+01 -.689482222429729D+01 -.442931631790332D+01
 0.132457891822429D+03 0.101368487927765D+03 0.185630264102042D+02 -.213944118265557D+02
 0.000000000000000D+00 0.000000000000000D+00 0.000000000000000D+00 0.000000000000000D+00
 0.604039394837780D+03 0.000000000000000D+00 0.000000000000000D+00 0.604039394837780D+03
 0.350357255029472D+03 0.000000000000000D+00 0.000000000000000D+00 -.350357255029472D+03
 0.272972374166330D+03 0.167277446342988D+02 -.590554069156109D+02 0.253533710928377D+03
 0.282755816527771D+03 -.166893661756828D+03 0.156691156812363D+02 -.227709982783918D+03
 0.124961224466286D+02 0.885656501230816D+01 -.762203970993660D+01 -.442931631790332D+01
 0.124732827821677D+03 0.922442144503133D+02 0.111510728211170D+02 -.213944118265557D+02
 0.261439508904845D+03 0.490651376599074D+02 0.398572581231942D+02 0.253682139808308D+03
-.929487040842D-04 0.000000000000D+00 0.000000000000D+00 0.332964173263D-05 0.000000000000D+00  7 -1 1 24 -13 13 -24 21 2 0.80500035D-01 0.61364960D-01 0.54423438D+05 0.54423438D+05 0.54423438D+05 0.11440711D+01  1  2 13  1  7  1       -1 -.149260488188D-02 0.100000000000D+01
0.105794313336D-03 0.000000000000D+00 0.000000000000D+00 0.332964173263D-05 0.683920521015D-08  7 -1 1 24 -13 13 -24 21 2 0.80385901D-01 0.62311726D-01 0.54423438D+05 0.54423438D+05 0.54423438D+05 0.11440711D+01  1  2  1  1  7  1       -1 0.166944778096D-02 0.100000000000D+01
  </mgrwgt>
  </event>
  <event>
  8     66 0.29788925E-05 0.56030368E+03 0.75467711E-02 0.89446207E-01
       -1 -1    0    0    0  501 0.00000000E+00 0.00000000E+00 0.27460538E+03 0.27460557E+03 0.32000000E+00 0.0000E+00 0.9000E+01
        1 -1    0    0  501    0 0.00000000E+00 0.00000000E+00 -.21529176E+04 0.21529176E+04 0.32000000E+00 0.0000E+00 0.9000E+01
       25  2    1    2    0    0 -.56037063E+03 0.46186460E+03 -.77659748E+03 0.11048063E+04 0.30026534E+03 0.0000E+00 0.0000E+00
       23  2    1    2    0    0 0.56037063E+03 -.46186460E+03 -.11017147E+04 0.13227168E+04 0.92034451E+02 0.0000E+00 0.0000E+00
       24  1    3    3    0    0 -.52132914E+03 0.45378234E+03 -.67928118E+03 0.97241587E+03 0.80419002E+02 0.0000E+00 0.9000E+01
      -11  1    4    4    0    0 0.56796178E+02 -.19834239E+02 -.11839310E+03 0.13280109E+03 0.51099893E-03 0.0000E+00 0.9000E+01
       11  1    4    4    0    0 0.50357445E+03 -.44203036E+03 -.98332163E+03 0.11899157E+04 0.51099893E-03 0.0000E+00 0.9000E+01
      -24  1    3    3    0    0 -.39041490E+02 0.80822553E+01 -.97316300E+02 0.13239048E+03 0.80419002E+02 0.0000E+00 0.9000E+01
#aMCatNLO 1  0  0  2  1 0.10260857D+03 0.00000000D+00  -5  7  0 0.00000000D+00 0.00000000D+00 0.00000000D+00 0.00000000D+00 0.00000000D+00
  <mgrwgt>
 0.1072782854D-02    9    2    0
 0.768897271201715D+03 0.000000000000000D+00 0.000000000000000D+00 0.768897271201715D+03
 0.768897271201715D+03 0.000000000000000D+00 0.000000000000000D+00 -.768897271201715D+03
 0.705334750854232D+03 -.521329138259336D+03 0.453782340312964D+03 0.115444410995503D+03
 0.650272268642156D+02 0.567961784474093D+02 -.198342391115338D+02 -.246847585827105D+02
 0.677309625914909D+03 0.503574450077338D+03 -.442030356473194D+03 -.988446586441703D+02
 0.901229387700719D+02 -.390414902654114D+02 0.808225527176343D+01 0.808500623137752D+01
 0.000000000000000D+00 -.000000000000000D+00 -.000000000000000D+00 -.000000000000000D+00
 0.775761436448317D+03 0.000000000000000D+00 0.000000000000000D+00 0.775761436448317D+03
 0.128125993666408D+04 0.000000000000000D+00 0.000000000000000D+00 -.128125993666408D+04
 0.701168074976698D+03 -.486397508871337D+03 0.485035570598505D+03 0.115444410995503D+03
 0.671136816434460D+02 0.600780042341837D+02 -.168979988368009D+02 -.246847585827105D+02
 0.684190726572173D+03 0.537388406829690D+03 -.411777104742267D+03 -.988446586441703D+02
 0.887415103144334D+02 -.345992477534440D+02 0.120567171174635D+02 0.808500623137752D+01
 0.515807379605649D+03 -.764696544390927D+02 -.684171841369008D+02 -.505498500215766D+03
0.596030651473D-03 0.000000000000D+00 0.000000000000D+00 0.101120083801D-04 0.000000000000D+00  7 -1 1 24 -11 11 -24 21 0 0.42246998D-01 0.33121811D+00 0.57441290D+06 0.57441290D+06 0.57441290D+06 0.10642778D+01  1  2  2  2  7  2        1 0.924175287760D-03 0.100000000000D+01
-.331044592140D-04 0.000000000000D+00 -.228891464013D-05 0.101120083801D-04 0.000000000000D+00  7 -1 1 24 -11 11 -24 21 2 0.42246998D-01 0.33121811D+00 0.57441290D+06 0.57441290D+06 0.57441290D+06 0.10642778D+01  1  2  3  2  7  2        1 -.581409721112D-04 0.100000000000D+01
0.383331091383D-04 0.000000000000D+00 0.000000000000D+00 0.101120083801D-04 0.000000000000D+00  7 -1 1 24 -11 11 -24 21 2 0.42246998D-01 0.33121811D+00 0.57441290D+06 0.57441290D+06 0.57441290D+06 0.10642778D+01  1  2 15  2  7  2        1 0.673239884373D-04 0.100000000000D+01
0.474909727961D-02 0.000000000000D+00 0.000000000000D+00 0.101120083801D-04 0.000000000000D+00  7 -1 1 24 -11 11 -24 21 2 0.42246998D-01 0.55254798D+00 0.65772290D+06 0.65772290D+06 0.65772290D+06 0.10601954D+01  1  2 12  2  7  2        1 0.697854422048D-03 0.100000000000D+01
-.423579071467D-02 0.000000000000D+00 0.000000000000D+00 0.101120083801D-04 0.000000000000D+00  7 -1 1 24 -11 11 -24 21 2 0.42246998D-01 0.33121811D+00 0.57441290D+06 0.57441290D+06 0.57441290D+06 0.10642778D+01  1  2  4  2  7  2        1 -.743926938115D-02 0.100000000000D+01
-.480894634059D-02 0.000000000000D+00 -.155286376273D-03 0.101120083801D-04 0.000000000000D+00  7 -1 1 24 -11 11 -24 21 2 0.42246998D-01 0.55276905D+00 0.57441290D+06 0.57441290D+06 0.57441290D+06 0.10642778D+01  1  2  5  2  7  2        1 -.718294584602D-03 0.100000000000D+01
0.432683169909D-02 0.000000000000D+00 0.136931078052D-03 0.101120083801D-04 0.000000000000D+00  7 -1 1 24 -11 11 -24 21 2 0.42246998D-01 0.33121811D+00 0.57441290D+06 0.57441290D+06 0.57441290D+06 0.10642778D+01  1  2  6  2  7  2        1 0.759916359062D-02 0.100000000000D+01
0.272775191685D-03 0.000000000000D+00 0.000000000000D+00 0.101120083801D-04 0.000000000000D+00  7 -1 21 24 -11 11 -24 -1 2 0.42246998D-01 0.55254798D+00 0.65772290D+06 0.65772290D+06 0.65772290D+06 0.10601954D+01  1  2 12  4  7  2        1 0.466035585378D-05 0.100000000000D+01
-.269191951263D-03 0.000000000000D+00 -.892481532425D-05 0.101120083801D-04 0.000000000000D+00  7 -1 21 24 -11 11 -24 -1 2 0.42246998D-01 0.55276905D+00 0.57441290D+06 0.57441290D+06 0.57441290D+06 0.10642778D+01  1  2  5  4  7  2        1 -.468985279985D-05 0.100000000000D+01
  </mgrwgt>
  </event>
  <event>
  7     66 0.29788925E-05 0.14847846E+03 0.75467711E-02 0.99115228E-01
       -1 -1    0    0    0  501 0.00000000E+00 0.00000000E+00 0.48361040E+03 0.48361050E+03 0.32000000E+00 0.0000E+00 0.9000E+01
        1 -1    0    0  501    0 0.00000000E+00 0.00000000E+00 -.25464828E+03 0.25464848E+03 0.32000000E+00 0.0000E+00 0.9000E+01
       25  2    1    2    0    0 -.11498420E+03 -.16863205E+03 0.98825271E+02 0.37598233E+03 0.29989689E+03 0.0000E+00 0.0000E+00
       24  1    3    3    0    0 -.90971951E+02 -.22287539E+03 0.10759260E+03 0.27566777E+03 0.80419002E+02 0.0000E+00 0.9000E+01
      -11  1    1    2    0    0 0.14468695E+03 0.19631209E+03 0.19760314E+02 0.24466961E+03 0.51099893E-03 0.0000E+00 0.9000E+01
       11  1    1    2    0    0 -.29702751E+02 -.27680039E+02 0.11037653E+03 0.11760704E+03 0.51099893E-03 0.0000E+00 0.9000E+01
      -24  1    3    3    0    0 -.24012250E+02 0.54243343E+02 -.87673328E+01 0.10031456E+03 0.80419002E+02 0.0000E+00 0.9000E+01
#aMCatNLO 1  0  0  2  1 0.45285823D+02 0.00000000D+00  -5  7  0 0.00000000D+00 0.00000000D+00 0.00000000D+00 0.00000000D+00 0.00000000D+00
  <mgrwgt>
 0.3748117386D-02    9    2    0
 0.350928298488467D+03 0.000000000000000D+00 0.000000000000000D+00 0.350928298488467D+03
 0.350928298488467D+03 0.000000000000000D+00 0.000000000000000D+00 -.350928298488467D+03
 0.254866326170267D+03 -.909719787663688D+02 -.222875433578994D+03 0.232436754293563D+02
 0.250913342142058D+03 0.144686958471463D+03 0.196312104402996D+03 -.590317455107119D+02
 0.876993661788699D+02 -.297027177005717D+02 -.276799963445986D+02 0.777350962676362D+02
 0.108377562485739D+03 -.240122620045228D+02 0.542433255205966D+02 -.419470261862805D+02
 0.000000000000000D+00 0.000000000000000D+00 -.000000000000000D+00 -.000000000000000D+00
 0.360895247098054D+03 0.000000000000000D+00 0.000000000000000D+00 0.360895247098054D+03
 0.407161937322461D+03 0.000000000000000D+00 0.000000000000000D+00 -.407161937322461D+03
 0.248526371963922D+03 -.101731502006403D+03 -.210733420840727D+03 0.232436754293563D+02
 0.254723671548540D+03 0.133879465196352D+03 0.208508250838823D+03 -.590317455107119D+02
 0.878160933745620D+02 -.334541878213142D+02 -.234465004008563D+02 0.777350962676362D+02
 0.112249928993418D+03 -.287279573865952D+02 0.595649398822688D+02 -.419470261862805D+02
 0.647411185400730D+02 0.300341820179597D+02 -.338932694795087D+02 -.462666902244072D+02
0.108139072862D-03 0.000000000000D+00 0.000000000000D+00 0.451702094450D-09 0.000000000000D+00  7 -1 1 24 -11 11 -24 21 0 0.74401623D-01 0.39176682D-01 0.10182678D+06 0.10182678D+06 0.10182678D+06 0.11210774D+01  1  2  2  2  7  2        1 0.275622457558D-02 0.100000000000D+01
-.594170897576D-05 0.000000000000D+00 -.415282513460D-06 0.451702094450D-09 0.000000000000D+00  7 -1 1 24 -11 11 -24 21 2 0.74401623D-01 0.39176682D-01 0.10182678D+06 0.10182678D+06 0.10182678D+06 0.11210774D+01  1  2  3  2  7  2        1 -.190333207239D-03 0.100000000000D+01
0.685181959826D-05 0.000000000000D+00 0.000000000000D+00 0.451702094450D-09 0.000000000000D+00  7 -1 1 24 -11 11 -24 21 2 0.74401623D-01 0.39176682D-01 0.10182678D+06 0.10182678D+06 0.10182678D+06 0.11210774D+01  1  2 15  2  7  2        1 0.219487155106D-03 0.100000000000D+01
0.312089880322D-03 0.000000000000D+00 0.000000000000D+00 0.451702094450D-09 0.000000000000D+00  7 -1 1 24 -11 11 -24 21 2 0.74401623D-01 0.45950672D-01 0.11747140D+06 0.11747140D+06 0.11747140D+06 0.11160281D+01  1  2 12  2  7  2        1 0.801969008548D-02 0.100000000000D+01
-.316960048758D-03 0.000000000000D+00 0.000000000000D+00 0.451702094450D-09 0.000000000000D+00  7 -1 1 24 -11 11 -24 21 2 0.74401623D-01 0.39176682D-01 0.10182678D+06 0.10182678D+06 0.10182678D+06 0.11210774D+01  1  2  4  2  7  2        1 -.101533115965D-01 0.100000000000D+01
-.536891422119D-03 0.000000000000D+00 -.925628144456D-04 0.451702094450D-09 0.000000000000D+00  7 -1 1 24 -11 11 -24 21 2 0.74401623D-01 0.46462080D-01 0.10182678D+06 0.10182678D+06 0.10182678D+06 0.11210774D+01  1  2  5  2  7  2        1 -.137614954417D-01 0.100000000000D+01
0.546047364345D-03 0.000000000000D+00 0.912326644673D-04 0.451702094450D-09 0.000000000000D+00  7 -1 1 24 -11 11 -24 21 2 0.74401623D-01 0.39176682D-01 0.10182678D+06 0.10182678D+06 0.10182678D+06 0.11210774D+01  1  2  6  2  7  2        1 0.174917597924D-01 0.100000000000D+01
0.747934028139D-05 0.000000000000D+00 0.000000000000D+00 0.451702094450D-09 0.000000000000D+00  7 -1 21 24 -11 11 -24 -1 2 0.74401623D-01 0.45950672D-01 0.11747140D+06 0.11747140D+06 0.11747140D+06 0.11160281D+01  1  2 12  4  7  2        1 0.912532142239D-03 0.100000000000D+01
-.127646376860D-04 0.000000000000D+00 -.233991573579D-05 0.451702094450D-09 0.000000000000D+00  7 -1 21 24 -11 11 -24 -1 2 0.74401623D-01 0.46462080D-01 0.10182678D+06 0.10182678D+06 0.10182678D+06 0.11210774D+01  1  2  5  4  7  2        1 -.154643611963D-02 0.100000000000D+01
  </mgrwgt>
  </event>
  <event>
  8     66 0.29788925E-05 0.20959853E+03 0.75467711E-02 0.10007755E+00
       -1 -1    0    0    0  501 0.00000000E+00 0.00000000E+00 0.56292659E+02 0.56293568E+02 0.32000000E+00 0.0000E+00 0.9000E+01
        1 -1    0    0  501    0 0.00000000E+00 0.00000000E+00 -.10705769E+04 0.10705769E+04 0.32000000E+00 0.0000E+00 0.9000E+01
       25  2    1    2    0    0 0.51202601E+02 -.54317397E+02 -.42375214E+03 0.52456214E+03 0.30004578E+03 0.0000E+00 0.0000E+00
       23  2    1    2    0    0 -.51202601E+02 0.54317397E+02 -.59053206E+03 0.60230834E+03 0.92060530E+02 0.0000E+00 0.0000E+00
       24  1    3    3    0    0 0.17844361E+02 0.10104145E+03 -.19711858E+03 0.23632763E+03 0.80419002E+02 0.0000E+00 0.9000E+01
      -11  1    4    4    0    0 -.66265105E+02 0.64568714E+02 -.38461389E+03 0.39558568E+03 0.51099893E-03 0.0000E+00 0.9000E+01
       11  1    4    4    0    0 0.15062505E+02 -.10251316E+02 -.20591817E+03 0.20672267E+03 0.51099893E-03 0.0000E+00 0.9000E+01
      -24  1    3    3    0    0 0.33358239E+02 -.15535885E+03 -.22663356E+03 0.28823451E+03 0.80419002E+02 0.0000E+00 0.9000E+01
#aMCatNLO 1  0  0  1  2 0.17864439D+03 0.00000000D+00  -5  7  0 0.00000000D+00 0.00000000D+00 0.00000000D+00 0.00000000D+00 0.00000000D+00
  <mgrwgt>
 0.6314087342D-03    3    2    0
 0.245491665163394D+03 0.000000000000000D+00 0.000000000000000D+00 0.245491665163394D+03
 0.245491665163394D+03 0.000000000000000D+00 0.000000000000000D+00 -.245491665163394D+03
 0.135190665244808D+03 0.178443612225599D+02 0.101041452013241D+03 0.357980971921402D+02
 0.113376614136435D+03 -.662651050864990D+02 0.645687136250616D+02 -.655291820620563D+02
 0.490650548741920D+02 0.150625045388027D+02 -.102513162738464D+02 -.455566798777039D+02
 0.193350996071353D+03 0.333582393251364D+02 -.155358849364456D+03 0.752877647476201D+02
 0.000000000000000D+00 0.000000000000000D+00 0.000000000000000D+00 -.000000000000000D+00
 0.299346655953165D+03 0.000000000000000D+00 0.000000000000000D+00 0.299346655953165D+03
 0.470590222561026D+03 0.000000000000000D+00 0.000000000000000D+00 -.470590222561026D+03
 0.107079758426413D+03 0.177274257460384D+02 0.583360379536460D+02 0.357980971921402D+02
 0.972209863246784D+02 -.663667531968668D+02 0.274463212530814D+02 -.655291820620563D+02
 0.559268499106385D+02 0.150118286113376D+02 -.287584154847120D+02 -.455566798777039D+02
 0.262245799522849D+03 0.331383386555163D+02 -.235667660919922D+03 0.752877647476201D+02
 0.247463484329612D+03 0.489160183974539D+00 0.178643717197906D+03 -.171243566607862D+03
0.533419896366D-05 0.000000000000D+00 0.000000000000D+00 0.667266321716D-06 0.000000000000D+00  7 -1 1 24 -11 11 -24 21 0 0.86604827D-02 0.16470421D+00 0.43931543D+05 0.43931543D+05 0.43931543D+05 0.11522712D+01  1  2  2  1  7  1       -1 0.624143929456D-03 0.100000000000D+01
-.287341703244D-06 0.000000000000D+00 -.204847285473D-07 0.667266321716D-06 0.000000000000D+00  7 -1 1 24 -11 11 -24 21 2 0.86604827D-02 0.16470421D+00 0.43931543D+05 0.43931543D+05 0.43931543D+05 0.11522712D+01  1  2  3  1  7  1       -1 -.446399407448D-04 0.100000000000D+01
0.334104340932D-06 0.000000000000D+00 0.000000000000D+00 0.667266321716D-06 0.000000000000D+00  7 -1 1 24 -11 11 -24 21 2 0.86604827D-02 0.16470421D+00 0.43931543D+05 0.43931543D+05 0.43931543D+05 0.11522712D+01  1  2 15  1  7  1       -1 0.519047455118D-04 0.100000000000D+01
  </mgrwgt>
  </event>
  <event>
  8     66 0.29788925E-05 0.28520832E+03 0.75467711E-02 0.95137834E-01
       -1 -1    0    0    0  501 0.00000000E+00 0.00000000E+00 0.32335348E+03 0.32335364E+03 0.32000000E+00 0.0000E+00 0.9000E+01
        1 -1    0    0  501    0 0.00000000E+00 0.00000000E+00 -.10991406E+04 0.10991406E+04 0.32000000E+00 0.0000E+00 0.9000E+01
       25  2    1    2    0    0 -.18748334E+03 -.83455815E+02 -.10245526E+04 0.10872846E+04 0.30060768E+03 0.0000E+00 0.0000E+00
       23  2    1    2    0    0 0.18748334E+03 0.83455815E+02 0.24876544E+03 0.33520967E+03 0.91468048E+02 0.0000E+00 0.0000E+00
       24  1    3    3    0    0 -.41794785E+02 -.14317505E+03 -.33487468E+03 0.37530543E+03 0.80419002E+02 0.0000E+00 0.9000E+01
      -11  1    4    4    0    0 -.93259946E+01 0.11051096E+02 0.10932605E+02 0.18127955E+02 0.51099893E-03 0.0000E+00 0.9000E+01
       11  1    4    4    0    0 0.19680934E+03 0.72404719E+02 0.23783284E+03 0.31708172E+03 0.51099893E-03 0.0000E+00 0.9000E+01
      -24  1    3    3    0    0 -.14568856E+03 0.59719239E+02 -.68967788E+03 0.71197917E+03 0.80419002E+02 0.0000E+00 0.9000E+01
#aMCatNLO 1  0  0  1  2 0.34210413D+03 0.00000000D+00  -5  7  0 0.00000000D+00 0.00000000D+00 0.00000000D+00 0.00000000D+00 0.00000000D+00
  <mgrwgt>
 0.1111471567D-02    4    2    0
 0.596163635186766D+03 0.000000000000000D+00 0.000000000000000D+00 0.596163635186766D+03
 0.596163635186766D+03 0.000000000000000D+00 0.000000000000000D+00 -.596163635186766D+03
 0.229868403672250D+03 -.417947845689526D+02 -.143175053042821D+03 -.155326646849399D+03
 0.287406717291233D+02 -.932599457564158D+01 0.110510956723251D+02 0.248379814207485D+02
 0.533037028883309D+03 0.196809335930172D+03 0.724047188352980D+02 0.490053176851096D+03
 0.400681166088850D+03 -.145688556785578D+03 0.597192385351977D+02 -.359564511422446D+03
 0.000000000000000D+00 0.000000000000000D+00 0.000000000000000D+00 -.000000000000000D+00
 0.703077451318727D+03 0.000000000000000D+00 0.000000000000000D+00 0.703077451318727D+03
 0.973329676477212D+03 0.000000000000000D+00 0.000000000000000D+00 -.973329676477212D+03
 0.281736626689480D+03 -.685454637426617D+02 -.209960622600578D+03 -.155326646849399D+03
 0.279517895494526D+02 -.122903161777158D+02 0.365038987112578D+01 0.248379814207485D+02
 0.514262363221190D+03 0.142048400492928D+03 -.643110721524058D+02 0.490053176851096D+03
 0.416484447651535D+03 -.188416313292390D+03 -.469545971346332D+02 -.359564511422446D+03
 0.435971900684281D+03 0.127203692719839D+03 0.317575902016492D+03 -.270252225158486D+03
0.184848948103D-03 0.000000000000D+00 0.000000000000D+00 0.682668555792D-05 0.000000000000D+00  7 -1 1 24 -11 11 -24 21 0 0.49746705D-01 0.16909857D+00 0.81343787D+05 0.81343787D+05 0.81343787D+05 0.11291561D+01  1  2  2  1  7  1       -1 0.121054700110D-02 0.100000000000D+01
-.348190031591D-05 0.000000000000D+00 -.709868632561D-06 0.682668555792D-05 0.000000000000D+00  7 -1 1 24 -11 11 -24 21 2 0.49746705D-01 0.16909857D+00 0.81343787D+05 0.81343787D+05 0.81343787D+05 0.11291561D+01  1  2  3  1  7  1       -1 -.290729414909D-04 0.100000000000D+01
0.115583482816D-04 0.000000000000D+00 0.000000000000D+00 0.682668555792D-05 0.000000000000D+00  7 -1 1 24 -11 11 -24 21 2 0.49746705D-01 0.16909857D+00 0.81343787D+05 0.81343787D+05 0.81343787D+05 0.11291561D+01  1  2 15  1  7  1       -1 0.965091337587D-04 0.100000000000D+01
-.199421474352D-04 0.000000000000D+00 0.000000000000D+00 0.682668555792D-05 0.000000000000D+00  7 -1 1 24 -11 11 -24 21 2 0.49746705D-01 0.16909857D+00 0.81343787D+05 0.81343787D+05 0.81343787D+05 0.11291561D+01  1  2  4  1  7  1       -1 -.166511626694D-03 0.100000000000D+01
  </mgrwgt>
  </event>
  <event>
  9     66 0.29788925E-05 0.20254596E+03 0.75467711E-02 0.10497405E+00
       -1 -1    0    0    0  501 0.00000000E+00 0.00000000E+00 0.17585432E+03 0.17585461E+03 0.32000000E+00 0.0000E+00 0.9000E+01
        1 -1    0    0  502    0 0.00000000E+00 0.00000000E+00 -.46832329E+03 0.46832340E+03 0.32000000E+00 0.0000E+00 0.9000E+01
       25  2    1    2    0    0 -.18708205E+02 -.91652662E+02 -.16650091E+02 0.31393748E+03 0.29921449E+03 0.0000E+00 0.0000E+00
       23  2    1    2    0    0 0.44807341E+02 0.73223593E+02 -.27089642E+03 0.29790497E+03 0.89404178E+02 0.0000E+00 0.0000E+00
       24  1    3    3    0    0 -.12042420E+03 0.15012971E+02 -.64510670E+01 0.14572649E+03 0.80419002E+02 0.0000E+00 0.9000E+01
      -13  1    4    4    0    0 0.35641765E+02 0.20630967E+02 -.22109214E+03 0.22489490E+03 0.10565837E+00 0.0000E+00 0.9000E+01
       13  1    4    4    0    0 0.91655754E+01 0.52592626E+02 -.49804283E+02 0.73010067E+02 0.10565837E+00 0.0000E+00 0.9000E+01
      -24  1    3    3    0    0 0.10171600E+03 -.10666563E+03 -.10199024E+02 0.16821099E+03 0.80419002E+02 0.0000E+00 0.9000E+01
       21  1    1    2  502  501 -.26099136E+02 0.18429069E+02 -.49224531E+01 0.32335562E+02 0.75000000E+00 0.0000E+00 0.9000E+01
#aMCatNLO 2  0  0  2  2 0.31949890D+02 0.00000000D+00  -5  7  0 0.00000000D+00 0.00000000D+00 0.00000000D+00 0.00000000D+00 0.00000000D+00
  <mgrwgt>
 0.3000038065D-03    1    2    0
 0.269558617228289D+03 0.000000000000000D+00 0.000000000000000D+00 0.269558617228289D+03
 0.269558617228289D+03 0.000000000000000D+00 0.000000000000000D+00 -.269558617228289D+03
 0.168286800663841D+03 -.128403712469471D+03 0.206474452533610D+02 0.702808718775446D+02
 0.136289510307595D+03 0.290308344711667D+02 0.252990486940790D+02 -.130736373687533D+03
 0.576490014575093D+02 0.641227893099291D+01 0.545367951347782D+02 -.175507271754275D+02
 0.176891922027632D+03 0.929605990673114D+02 -.100483289082218D+03 0.780062289854161D+02
 0.000000000000000D+00 -.000000000000000D+00 0.000000000000000D+00 0.000000000000000D+00
 0.292853396927457D+03 0.000000000000000D+00 0.000000000000000D+00 0.292853396927457D+03
 0.281213793102614D+03 0.000000000000000D+00 0.000000000000000D+00 -.281213793102614D+03
 0.161660121644335D+03 -.120424203314316D+03 0.150129703901379D+02 0.702808718775446D+02
 0.137069225457573D+03 0.356418024396526D+02 0.206309253652223D+02 -.130736373687533D+03
 0.561962983086061D+02 0.916553877472812D+01 0.525926688633740D+02 -.175507271754275D+02
 0.185137487920142D+03 0.101715998180917D+03 -.106665633793386D+03 0.780062289854161D+02
 0.340040566994148D+02 -.260991360809815D+02 0.184290691746522D+02 0.116396038248434D+02
0.330025863935D-05 0.000000000000D+00 0.000000000000D+00 0.151622769039D-06 0.104828986407D-08  7 -1 1 24 -13 13 -24 21 2 0.27054150D-01 0.72048722D-01 0.48400568D+05 0.48400568D+05 0.48400568D+05 0.11485394D+01  1  2  1  2  7  2        1 0.300003806480D-03 0.100000000000D+01
  </mgrwgt>
  </event>
  <event>
  8     66 0.29788925E-05 0.10446249E+03 0.75467711E-02 0.11266392E+00
       -1 -1    0    0    0  501 0.00000000E+00 0.00000000E+00 0.93606829E+02 0.93607376E+02 0.32000000E+00 0.0000E+00 0.9000E+01
        1 -1    0    0  501    0 0.00000000E+00 0.00000000E+00 -.52391560E+03 0.52391570E+03 0.32000000E+00 0.0000E+00 0.9000E+01
       25  2    1    2    0    0 -.30353763E+02 0.53047532E+02 -.39947867E+03 0.50312557E+03 0.29969441E+03 0.0000E+00 0.0000E+00
       23  2    1    2    0    0 0.30353763E+02 -.53047532E+02 -.30830103E+02 0.11439751E+03 0.91656437E+02 0.0000E+00 0.0000E+00
       24  1    3    3    0    0 0.74955754E+01 0.27409641E+02 0.76367547E+01 0.85632985E+02 0.80419002E+02 0.0000E+00 0.9000E+01
      -13  1    4    4    0    0 0.60965085E+01 0.12259474E+02 -.41697900E+02 0.43888360E+02 0.10565837E+00 0.0000E+00 0.9000E+01
       13  1    4    4    0    0 0.24257255E+02 -.65307006E+02 0.10867796E+02 0.70509146E+02 0.10565837E+00 0.0000E+00 0.9000E+01
      -24  1    3    3    0    0 -.37849339E+02 0.25637891E+02 -.40711542E+03 0.41749258E+03 0.80419002E+02 0.0000E+00 0.9000E+01
#aMCatNLO 1  0  0  1  2 0.29321577D+01 0.00000000D+00  -5  7  0 0.00000000D+00 0.00000000D+00 0.00000000D+00 0.00000000D+00 0.00000000D+00
  <mgrwgt>
 0.6321507312D-04   11    2    0
 0.221454909117231D+03 0.000000000000000D+00 0.000000000000000D+00 0.221454909117231D+03
 0.221454909117231D+03 0.000000000000000D+00 0.000000000000000D+00 -.221454909117231D+03
 0.126812504314984D+03 0.749557275972842D+01 0.274096436296091D+02 0.938441427120992D+02
 0.206792650666752D+02 0.609648496538116D+01 0.122595752352657D+02 -.154973446053043D+02
 0.108865476117197D+03 0.242572826123501D+02 -.653071144819656D+02 0.836555851603938D+02
 0.186552572735605D+03 -.378493403374596D+02 0.256378956170908D+02 -.162002383267189D+03
 0.000000000000000D+00 0.000000000000000D+00 0.000000000000000D+00 0.000000000000000D+00
 0.226151175703408D+03 0.000000000000000D+00 0.000000000000000D+00 0.226151175703408D+03
 0.221917915340573D+03 0.000000000000000D+00 0.000000000000000D+00 -.221917915340573D+03
 0.126628134525484D+03 0.735756853209184D+01 0.265821662578577D+02 0.938441427120992D+02
 0.205930235027052D+02 0.607401125977155D+01 0.121248222413189D+02 -.154973446053043D+02
 0.109267901022808D+03 0.241385039966880D+02 -.660193145238882D+02 0.836555851603938D+02
 0.186430464832434D+03 -.380524381368363D+02 0.244201152916989D+02 -.162002383267189D+03
 0.514956716055042D+01 0.482354348284900D+00 0.289221073301272D+01 0.423326036283572D+01
0.194529063953D-05 0.000000000000D+00 0.000000000000D+00 0.542918228921D-06 0.000000000000D+00  7 -1 1 24 -13 13 -24 21 0 0.14401100D-01 0.80602449D-01 0.17050442D+05 0.17050442D+05 0.17050442D+05 0.11908118D+01  1  2  2  1  7  1       -1 0.310765431513D-03 0.100000000000D+01
-.714044880575D-07 0.000000000000D+00 -.747042826257D-08 0.542918228921D-06 0.000000000000D+00  7 -1 1 24 -13 13 -24 21 2 0.14401100D-01 0.80602449D-01 0.17050442D+05 0.17050442D+05 0.17050442D+05 0.11908118D+01  1  2  3  1  7  1       -1 -.161755853897D-04 0.100000000000D+01
0.125483279547D-06 0.000000000000D+00 0.000000000000D+00 0.542918228921D-06 0.000000000000D+00  7 -1 1 24 -13 13 -24 21 2 0.14401100D-01 0.80602449D-01 0.17050442D+05 0.17050442D+05 0.17050442D+05 0.11908118D+01  1  2 15  1  7  1       -1 0.284263014625D-04 0.100000000000D+01
0.724519600345D-07 0.000000000000D+00 0.000000000000D+00 0.542918228921D-06 0.000000000000D+00  7 -1 1 24 -13 13 -24 21 2 0.14721371D-01 0.80602449D-01 0.17432259D+05 0.17432259D+05 0.17432259D+05 0.11898641D+01  1  2 12  1  7  1       -1 0.158464800196D-04 0.100000000000D+01
-.656175461694D-04 0.000000000000D+00 0.000000000000D+00 0.542918228921D-06 0.000000000000D+00  7 -1 1 24 -13 13 -24 21 2 0.14401100D-01 0.80602449D-01 0.17050442D+05 0.17050442D+05 0.17050442D+05 0.11908118D+01  1  2  4  1  7  1       -1 -.148646429658D-01 0.100000000000D+01
-.127988404195D-03 0.000000000000D+00 -.112889507485D-04 0.542918228921D-06 0.000000000000D+00  7 -1 1 24 -13 13 -24 21 2 0.14732985D-01 0.80602449D-01 0.17050442D+05 0.17050442D+05 0.17050442D+05 0.11908118D+01  1  2  5  1  7  1       -1 -.279983686860D-01 0.100000000000D+01
0.128215262816D-03 0.000000000000D+00 0.112860212126D-04 0.542918228921D-06 0.000000000000D+00  7 -1 1 24 -13 13 -24 21 2 0.14401100D-01 0.80602449D-01 0.17050442D+05 0.17050442D+05 0.17050442D+05 0.11908118D+01  1  2  6  1  7  1       -1 0.290451901325D-01 0.100000000000D+01
0.655536932103D-04 0.000000000000D+00 0.000000000000D+00 0.542918228921D-06 0.476891040533D-06  7 -1 1 24 -13 13 -24 21 2 0.14706496D-01 0.80770969D-01 0.17432259D+05 0.17432259D+05 0.17432259D+05 0.11898641D+01  1  2 11  1  7  1       -1 0.143193655329D-01 0.100000000000D+01
0.360120408785D-08 0.000000000000D+00 0.000000000000D+00 0.542918228921D-06 0.000000000000D+00  7 21 1 24 -13 13 -24 1 2 0.14721371D-01 0.80602449D-01 0.17432259D+05 0.17432259D+05 0.17432259D+05 0.11898641D+01  1  2 12  3  7  1       -1 0.105912777610D-04 0.100000000000D+01
-.526420614842D-06 0.000000000000D+00 -.466201970052D-07 0.542918228921D-06 0.000000000000D+00  7 21 1 24 -13 13 -24 1 2 0.14732985D-01 0.80602449D-01 0.17050442D+05 0.17050442D+05 0.17050442D+05 0.11908118D+01  1  2  5  3  7  1       -1 -.154882099464D-02 0.100000000000D+01
0.259044529792D-06 0.000000000000D+00 0.000000000000D+00 0.542918228921D-06 0.182713694232D-08  7 21 1 24 -13 13 -24 1 2 0.14706496D-01 0.80770969D-01 0.17432259D+05 0.17432259D+05 0.17432259D+05 0.11898641D+01  1  2 11  3  7  1       -1 0.761038148818D-03 0.100000000000D+01
  </mgrwgt>
  </event>
  <event>
  8     66 0.29788925E-05 0.20360417E+03 0.75467711E-02 0.91600247E-01
       -1 -1    0    0    0  501 0.00000000E+00 0.00000000E+00 0.51647060E+02 0.51648052E+02 0.32000000E+00 0.0000E+00 0.9000E+01
        1 -1    0    0  501    0 0.00000000E+00 0.00000000E+00 -.10072665E+04 0.10072665E+04 0.32000000E+00 0.0000E+00 0.9000E+01
       25  2    1    2    0    0 -.49344745E+02 -.67653052E+02 -.79991882E+03 0.85811811E+03 0.29913999E+03 0.0000E+00 0.0000E+00
       23  2    1    2    0    0 0.49344745E+02 0.67653052E+02 -.15570058E+03 0.20079645E+03 0.95208742E+02 0.0000E+00 0.0000E+00
       24  1    3    3    0    0 0.77660093E+02 0.32889558E+02 -.44200348E+03 0.45710732E+03 0.80419002E+02 0.0000E+00 0.9000E+01
      -13  1    4    4    0    0 -.72597550E+01 -.10843308E+02 0.43553658E+01 0.13757244E+02 0.10565837E+00 0.0000E+00 0.9000E+01
       13  1    4    4    0    0 0.56604500E+02 0.78496360E+02 -.16005594E+03 0.18703920E+03 0.10565837E+00 0.0000E+00 0.9000E+01
      -24  1    3    3    0    0 -.12700484E+03 -.10054261E+03 -.35791534E+03 0.40101079E+03 0.80419002E+02 0.0000E+00 0.9000E+01
#aMCatNLO 1  0  0  2  1 0.59701969D+03 0.00000000D+00  -5  7  0 0.00000000D+00 0.00000000D+00 0.00000000D+00 0.00000000D+00 0.00000000D+00
  <mgrwgt>
 0.1018665759D-02    3    2    0
 0.228085297729398D+03 0.000000000000000D+00 0.000000000000000D+00 0.228085297729398D+03
 0.228085297729398D+03 0.000000000000000D+00 0.000000000000000D+00 -.228085297729398D+03
 0.135147899568362D+03 0.776600788285676D+02 0.328895423881747D+02 -.684465409002289D+02
 0.410587133841038D+02 -.725981374875217D+01 -.108433904644595D+02 0.389298591357159D+02
 0.988796972359910D+02 0.566045813511910D+02 0.784964729523526D+02 0.202834816927032D+02
 0.181084285270340D+03 -.127004846431006D+03 -.100542624876068D+03 0.923320007180982D+01
 0.000000000000000D+00 0.000000000000000D+00 0.000000000000000D+00 0.000000000000000D+00
 0.982194881159901D+03 0.000000000000000D+00 0.000000000000000D+00 0.982194881159901D+03
 0.522590963966686D+03 0.000000000000000D+00 0.000000000000000D+00 -.522590963966686D+03
 0.152973074602138D+03 0.380223623557775D+02 -.103937079998141D+03 -.684465409002289D+02
 0.839016470183561D+02 -.244510069627501D+02 -.701861859526053D+02 0.389298591357159D+02
 0.435727724324065D+02 0.370069431722249D+02 0.108467979107096D+02 0.202834816927032D+02
 0.470900712231230D+03 -.216700490942422D+03 -.410165710496692D+03 0.923320007180982D+01
 0.753437638842456D+03 0.166122192377170D+03 0.573442178536729D+03 0.459603917193215D+03
0.678320338218D-05 0.000000000000D+00 0.000000000000D+00 0.196926162366D-07 0.000000000000D+00  7 -1 1 24 -13 13 -24 21 0 0.79457817D-02 0.15496415D+00 0.41454656D+05 0.41454656D+05 0.41454656D+05 0.11545246D+01  1  2  2  2  7  2        1 0.100530069373D-02 0.100000000000D+01
-.370937776873D-06 0.000000000000D+00 -.260492870461D-07 0.196926162366D-07 0.000000000000D+00  7 -1 1 24 -13 13 -24 21 2 0.79457817D-02 0.15496415D+00 0.41454656D+05 0.41454656D+05 0.41454656D+05 0.11545246D+01  1  2  3  2  7  2        1 -.732771500721D-04 0.100000000000D+01
0.438593352574D-06 0.000000000000D+00 0.000000000000D+00 0.196926162366D-07 0.000000000000D+00  7 -1 1 24 -13 13 -24 21 2 0.79457817D-02 0.15496415D+00 0.41454656D+05 0.41454656D+05 0.41454656D+05 0.11545246D+01  1  2 15  2  7  2        1 0.866422158134D-04 0.100000000000D+01
  </mgrwgt>
  </event>
  <event>
  9     66 0.29788925E-05 0.33050304E+03 0.75467711E-02 0.98598728E-01
       -1 -1    0    0    0  501 0.00000000E+00 0.00000000E+00 0.28144051E+03 0.28144070E+03 0.32000000E+00 0.0000E+00 0.9000E+01
        1 -1    0    0  502    0 0.00000000E+00 0.00000000E+00 -.56356327E+03 0.56356337E+03 0.32000000E+00 0.0000E+00 0.9000E+01
       25  2    1    2    0    0 -.23408156E+03 0.20380242E+03 -.85921108E+02 0.44021666E+03 0.30013110E+03 0.0000E+00 0.0000E+00
       23  2    1    2    0    0 0.19232602E+03 -.17490234E+03 -.21541584E+03 0.35048743E+03 0.94113376E+02 0.0000E+00 0.0000E+00
       24  1    3    3    0    0 -.10461080E+03 -.11229279E+02 -.11455271E+03 0.17509727E+03 0.80419002E+02 0.0000E+00 0.9000E+01
      -13  1    4    4    0    0 0.70624538E+02 -.25311686E+02 -.10248419E+03 0.12700995E+03 0.10565837E+00 0.0000E+00 0.9000E+01
       13  1    4    4    0    0 0.12170148E+03 -.14959066E+03 -.11293165E+03 0.22347748E+03 0.10565837E+00 0.0000E+00 0.9000E+01
      -24  1    3    3    0    0 -.12947076E+03 0.21503170E+03 0.28631601E+02 0.26511939E+03 0.80419002E+02 0.0000E+00 0.9000E+01
       21  1    1    2  502  501 0.41755534E+02 -.28900073E+02 0.19214187E+02 0.54299966E+02 0.75000000E+00 0.0000E+00 0.9000E+01
#aMCatNLO 2  0  0  2  1 0.50781284D+02 0.00000000D+00  -5  7  0 0.00000000D+00 0.00000000D+00 0.00000000D+00 0.00000000D+00 0.00000000D+00
  <mgrwgt>
 0.1649325431D-03    1    2    0
 0.364633470623107D+03 0.000000000000000D+00 0.000000000000000D+00 0.364633470623107D+03
 0.364633470623107D+03 0.000000000000000D+00 0.000000000000000D+00 -.364633470623107D+03
 0.136969891959883D+03 -.966291165759231D+02 -.167536051371118D+02 -.517268392016936D+02
 0.100409583831669D+03 0.762157636982120D+02 -.291814079176284D+02 -.584951905808702D+02
 0.208536905562193D+03 0.133245009320894D+03 -.157580335516313D+03 -.300307564189771D+02
 0.283350559892468D+03 -.112831656443183D+03 0.203515348571053D+03 0.140252786201541D+03
 0.000000000000000D+00 0.000000000000000D+00 -.000000000000000D+00 0.000000000000000D+00
 0.420423050926930D+03 0.000000000000000D+00 0.000000000000000D+00 0.420423050926930D+03
 0.377257891577342D+03 0.000000000000000D+00 0.000000000000000D+00 -.377257891577342D+03
 0.142170312368393D+03 -.104610798500348D+03 -.112292790453177D+02 -.517268392016936D+02
 0.951324191235579D+02 0.706244728477615D+02 -.253115325925504D+02 -.584951905808702D+02
 0.195167939467154D+03 0.121701549746064D+03 -.149590812064662D+03 -.300307564189771D+02
 0.298562167174164D+03 -.129470758310997D+03 0.215031696311132D+03 0.140252786201541D+03
 0.666481043710044D+02 0.417555342175198D+02 -.289000726086020D+02 0.431651593495884D+02
0.559436103304D-05 0.000000000000D+00 0.000000000000D+00 0.357428142566D-06 0.924403483615D-09  7 -1 1 24 -13 13 -24 21 2 0.43298324D-01 0.86701588D-01 0.12767878D+06 0.12767878D+06 0.12767878D+06 0.11131164D+01  1  2  1  2  7  2        1 0.164932543145D-03 0.100000000000D+01
  </mgrwgt>
  </event>
  <event>
  8     66 0.29788925E-05 0.26488547E+03 0.75467711E-02 0.95185027E-01
       -1 -1    0    0    0  501 0.00000000E+00 0.00000000E+00 0.72966941E+02 0.72967643E+02 0.32000000E+00 0.0000E+00 0.9000E+01
        1 -1    0    0  501    0 0.00000000E+00 0.00000000E+00 -.13795450E+04 0.13795451E+04 0.32000000E+00 0.0000E+00 0.9000E+01
       25  2    1    2    0    0 0.17151065E+03 -.16017649E+03 -.75341708E+03 0.84453433E+03 0.30087958E+03 0.0000E+00 0.0000E+00
       23  2    1    2    0    0 -.17151065E+03 0.16017649E+03 -.55316100E+03 0.60797837E+03 0.92618559E+02 0.0000E+00 0.0000E+00
       24  1    3    3    0    0 0.13289754E+03 -.10368432E+03 -.70325961E+03 0.72763555E+03 0.80419002E+02 0.0000E+00 0.9000E+01
      -13  1    4    4    0    0 -.37965363E+02 0.57774395E+02 -.79735115E+02 0.10553175E+03 0.10565837E+00 0.0000E+00 0.9000E+01
       13  1    4    4    0    0 -.13354529E+03 0.10240210E+03 -.47342588E+03 0.50244663E+03 0.10565837E+00 0.0000E+00 0.9000E+01
      -24  1    3    3    0    0 0.38613114E+02 -.56492166E+02 -.50157471E+02 0.11689878E+03 0.80419002E+02 0.0000E+00 0.9000E+01
#aMCatNLO 1  0  0  1  1 0.34290051D+03 0.00000000D+00  -5  7  0 0.00000000D+00 0.00000000D+00 0.00000000D+00 0.00000000D+00 0.00000000D+00
  <mgrwgt>
 0.5791629988D-03    5    2    0
 0.317272307017756D+03 0.000000000000000D+00 0.000000000000000D+00 0.317272307017756D+03
 0.317272307017756D+03 0.000000000000000D+00 0.000000000000000D+00 -.317272307017756D+03
 0.217535978637403D+03 0.132897538333963D+03 -.103684324898126D+03 -.111545914862690D+03
 0.773877276738605D+02 -.379652404506834D+02 0.577743367892519D+02 0.347796912092024D+02
 0.175310453487398D+03 -.133545412651933D+03 0.102402154907284D+03 -.491240931919037D+02
 0.164310454236850D+03 0.386131147686528D+02 -.564921667984098D+02 0.125890316845391D+03
 0.000000000000000D+00 0.000000000000000D+00 -.000000000000000D+00 0.000000000000000D+00
 0.166065703093273D+05 0.000000000000000D+00 0.000000000000000D+00 0.166065703093273D+05
 0.362443422300635D+03 0.000000000000000D+00 0.000000000000000D+00 -.362443422300635D+03
 0.168727317396438D+03 0.360495785507183D+02 -.908824980135833D+02 -.111545914862690D+03
 0.112394687715120D+03 -.855494658272224D+02 0.640642474602550D+02 0.347796912092024D+02
 0.278065874982197D+03 -.247220651477761D+03 0.117428292079035D+03 -.491240931919037D+02
 0.162080189951230D+03 -.432229496633797D+02 -.456746840954608D+02 0.125890316845391D+03
 0.162477456615829D+05 0.339943488417645D+03 -.449353574302462D+02 0.162441268870267D+05
0.119586012733D-04 0.000000000000D+00 0.000000000000D+00 0.323836004872D-06 0.000000000000D+00  7 -1 1 24 -13 13 -24 21 0 0.11225740D-01 0.21223775D+00 0.70164312D+05 0.70164312D+05 0.70164312D+05 0.11345731D+01  1  2  2  1  7  1       -1 0.574429485344D-03 0.100000000000D+01
-.638060113534D-06 0.000000000000D+00 -.459241776615D-07 0.323836004872D-06 0.000000000000D+00  7 -1 1 24 -13 13 -24 21 2 0.11225740D-01 0.21223775D+00 0.70164312D+05 0.70164312D+05 0.70164312D+05 0.11345731D+01  1  2  3  1  7  1       -1 -.394532584646D-04 0.100000000000D+01
0.766486873431D-06 0.000000000000D+00 0.000000000000D+00 0.323836004872D-06 0.000000000000D+00  7 -1 1 24 -13 13 -24 21 2 0.11225740D-01 0.21223775D+00 0.70164312D+05 0.70164312D+05 0.70164312D+05 0.11345731D+01  1  2 15  1  7  1       -1 0.473942879139D-04 0.100000000000D+01
-.389941874541D-02 0.000000000000D+00 -.421382465901D-04 0.323836004872D-06 0.000000000000D+00  7 -1 1 24 -13 13 -24 21 2 0.59172063D+00 0.21223775D+00 0.70164312D+05 0.70164312D+05 0.70164312D+05 0.11345731D+01  1  2  5  1  7  1       -1 -.382457891031D-06 0.100000000000D+01
-.139442286930D-02 0.000000000000D+00 -.149196590906D-04 0.323836004872D-06 0.000000000000D+00  7 21 1 24 -13 13 -24 1 2 0.59172063D+00 0.21223775D+00 0.70164312D+05 0.70164312D+05 0.70164312D+05 0.11345731D+01  1  2  5  3  7  1       -1 -.282505806141D-05 0.100000000000D+01
  </mgrwgt>
  </event>
  <event>
  8     66 0.29788925E-05 0.20029947E+03 0.75467711E-02 0.90458706E-01
       -1 -1    0    0    0  501 0.00000000E+00 0.00000000E+00 0.10683382E+04 0.10683382E+04 0.32000000E+00 0.0000E+00 0.9000E+01
        1 -1    0    0  501    0 0.00000000E+00 0.00000000E+00 -.16587541E+03 0.16587572E+03 0.32000000E+00 0.0000E+00 0.9000E+01
       25  2    1    2    0    0 -.68292161E+02 0.58555134E+02 0.10161528E+04 0.10631805E+04 0.29948916E+03 0.0000E+00 0.0000E+00
       23  2    1    2    0    0 0.68292161E+02 -.58555134E+02 -.11369004E+03 0.17103343E+03 0.90744062E+02 0.0000E+00 0.0000E+00
       24  1    3    3    0    0 -.11181887E+03 0.12372922E+03 0.46110502E+03 0.49688775E+03 0.80419002E+02 0.0000E+00 0.9000E+01
      -11  1    4    4    0    0 0.76488581E+02 -.50421170E+02 -.46274162E+02 0.10263574E+03 0.51099893E-03 0.0000E+00 0.9000E+01
       11  1    4    4    0    0 -.81964201E+01 -.81339636E+01 -.67415877E+02 0.68397684E+02 0.51099893E-03 0.0000E+00 0.9000E+01
      -24  1    3    3    0    0 0.43526705E+02 -.65174090E+02 0.55504779E+03 0.56629277E+03 0.80419002E+02 0.0000E+00 0.9000E+01
#aMCatNLO 1  0  0  2  2 0.66680962D+03 0.00000000D+00  -5  7  0 0.00000000D+00 0.00000000D+00 0.00000000D+00 0.00000000D+00 0.00000000D+00
  <mgrwgt>
 0.6735013026D-03    5    2    0
 0.420964667721902D+03 0.000000000000000D+00 0.000000000000000D+00 0.420964667721902D+03
 0.420964667721902D+03 0.000000000000000D+00 0.000000000000000D+00 -.420964667721902D+03
 0.234147530007947D+03 -.111818865889934D+03 0.123729223356385D+03 0.143336912109779D+03
 0.200058562035322D+03 0.764885812006472D+02 -.504211700159699D+02 -.177850023344877D+03
 0.172529555192365D+03 -.819642013792684D+01 -.813396363120791D+01 -.172142687173880D+03
 0.235193688208169D+03 0.435267048272137D+02 -.651740897092074D+02 0.206655798408977D+03
 0.000000000000000D+00 -.000000000000000D+00 -.000000000000000D+00 -.000000000000000D+00
 0.733012137998321D+03 0.000000000000000D+00 0.000000000000000D+00 0.733012137998321D+03
 0.110410512705588D+04 0.000000000000000D+00 0.000000000000000D+00 -.110410512705588D+04
 0.265714648325545D+03 0.422847447700287D+02 0.204459258452544D+03 0.143336912109779D+03
 0.290333892721884D+03 0.227672749945795D+03 0.287794612768983D+02 -.177850023344877D+03
 0.211346491286961D+03 0.110149570762126D+03 0.538637790429240D+02 -.172142687173880D+03
 0.306606861822588D+03 0.210559588362542D+03 0.223291848232373D+02 0.206655798408977D+03
 0.763115370897223D+03 -.590666653840491D+03 -.309431683595604D+03 -.371092989057559D+03
0.752158730656D-04 0.000000000000D+00 0.000000000000D+00 0.241965873157D-05 0.000000000000D+00  7 -1 1 24 -11 11 -24 21 0 0.16435975D+00 0.25519321D-01 0.40119877D+05 0.40119877D+05 0.40119877D+05 0.11558014D+01  1  2  2  2  7  2        1 0.523320807349D-03 0.100000000000D+01
-.137589482065D-05 0.000000000000D+00 -.288848757366D-06 0.241965873157D-05 0.000000000000D+00  7 -1 1 24 -11 11 -24 21 2 0.16435975D+00 0.25519321D-01 0.40119877D+05 0.40119877D+05 0.40119877D+05 0.11558014D+01  1  2  3  2  7  2        1 -.127882223238D-04 0.100000000000D+01
0.458684409460D-05 0.000000000000D+00 0.000000000000D+00 0.241965873157D-05 0.000000000000D+00  7 -1 1 24 -11 11 -24 21 2 0.16435975D+00 0.25519321D-01 0.40119877D+05 0.40119877D+05 0.40119877D+05 0.11558014D+01  1  2 15  2  7  2        1 0.426323154692D-04 0.100000000000D+01
0.678018702079D-04 0.000000000000D+00 -.301716614880D-04 0.241965873157D-05 0.000000000000D+00  7 -1 1 24 -11 11 -24 21 2 0.16435975D+00 0.11201648D+00 0.40119877D+05 0.40119877D+05 0.40119877D+05 0.11558014D+01  1  2  5  2  7  2        1 0.878328888973D-04 0.100000000000D+01
0.119683731436D-04 0.000000000000D+00 -.538346914203D-05 0.241965873157D-05 0.000000000000D+00  7 -1 21 24 -11 11 -24 -1 2 0.16435975D+00 0.11201648D+00 0.40119877D+05 0.40119877D+05 0.40119877D+05 0.11558014D+01  1  2  5  4  7  2        1 0.325035132311D-04 0.100000000000D+01
  </mgrwgt>
  </event>
  <event>
  8     66 0.29788925E-05 0.29228152E+03 0.75467711E-02 0.96948149E-01
       -1 -1    0    0    0  501 0.00000000E+00 0.00000000E+00 0.55649779E+02 0.55650699E+02 0.32000000E+00 0.0000E+00 0.9000E+01
        1 -1    0    0  501    0 0.00000000E+00 0.00000000E+00 -.37486012E+04 0.37486012E+04 0.32000000E+00 0.0000E+00 0.9000E+01
       25  2    1    2    0    0 -.12918250E+03 0.30985494E+03 -.11074611E+04 0.11955656E+04 0.30034781E+03 0.0000E+00 0.0000E+00
       23  2    1    2    0    0 0.12918250E+03 -.30985494E+03 -.25854903E+04 0.26086863E+04 0.88237604E+02 0.0000E+00 0.0000E+00
       24  1    3    3    0    0 -.11349850E+03 0.11716476E+03 -.82002091E+03 0.83994702E+03 0.80419002E+02 0.0000E+00 0.9000E+01
      -13  1    4    4    0    0 0.72220798E+02 -.81462381E+02 -.98081086E+03 0.98683429E+03 0.10565837E+00 0.0000E+00 0.9000E+01
       13  1    4    4    0    0 0.56961706E+02 -.22839256E+03 -.16046794E+04 0.16218520E+04 0.10565837E+00 0.0000E+00 0.9000E+01
      -24  1    3    3    0    0 -.15684007E+02 0.19269018E+03 -.28744019E+03 0.35561858E+03 0.80419002E+02 0.0000E+00 0.9000E+01
#aMCatNLO 1  0  0  2  1 0.78358701D+02 0.00000000D+00  -5  7  0 0.00000000D+00 0.00000000D+00 0.00000000D+00 0.00000000D+00 0.00000000D+00
  <mgrwgt>
 0.5575660251D-03    9    2    0
 0.456739095025019D+03 0.000000000000000D+00 0.000000000000000D+00 0.456739095025019D+03
 0.456739095025019D+03 0.000000000000000D+00 0.000000000000000D+00 -.456739095025019D+03
 0.182897279705137D+03 -.113498496637214D+03 0.117164759972815D+03 -.193574081625985D+02
 0.144589349741024D+03 0.722208194735370D+02 -.814621709012706D+02 -.951532868857144D+02
 0.267034855972935D+03 0.569616838333714D+02 -.228392771146861D+03 -.126094103617936D+03
 0.318956704630942D+03 -.156840066696948D+02 0.192690182075316D+03 0.240604798666249D+03
 0.000000000000000D+00 0.000000000000000D+00 -.000000000000000D+00 -.000000000000000D+00
 0.471160328451056D+03 0.000000000000000D+00 0.000000000000000D+00 0.471160328451056D+03
 0.578867904866650D+03 0.000000000000000D+00 0.000000000000000D+00 -.578867904866650D+03
 0.197416612243417D+03 -.123029016048534D+03 0.130365849802213D+03 -.193574081625985D+02
 0.135828385982566D+03 0.651936591983776D+02 -.717285803135668D+02 -.951532868857144D+02
 0.249270786004058D+03 0.440232636304579D+02 -.210471266559578D+03 -.126094103617936D+03
 0.334317073854408D+03 -.320547955327093D+02 0.215365992808366D+03 0.240604798666249D+03
 0.133195375233257D+03 0.458668887524074D+02 -.635319957374344D+02 -.107707576415594D+03
0.244847566168D-03 0.000000000000D+00 0.000000000000D+00 0.400791207316D-06 0.000000000000D+00  7 -1 1 24 -13 13 -24 21 0 0.85615762D-02 0.57670794D+00 0.13524445D+06 0.13524445D+06 0.13524445D+06 0.11111184D+01  1  2  2  2  7  2        1 0.355782315135D-03 0.100000000000D+01
-.128260494128D-04 0.000000000000D+00 -.940279123931D-06 0.400791207316D-06 0.000000000000D+00  7 -1 1 24 -13 13 -24 21 2 0.85615762D-02 0.57670794D+00 0.13524445D+06 0.13524445D+06 0.13524445D+06 0.11111184D+01  1  2  3  2  7  2        1 -.230092332685D-04 0.100000000000D+01
0.155983986364D-04 0.000000000000D+00 0.000000000000D+00 0.400791207316D-06 0.000000000000D+00  7 -1 1 24 -13 13 -24 21 2 0.85615762D-02 0.57670794D+00 0.13524445D+06 0.13524445D+06 0.13524445D+06 0.11111184D+01  1  2 15  2  7  2        1 0.279826766051D-04 0.100000000000D+01
0.305935569268D-03 0.000000000000D+00 0.000000000000D+00 0.400791207316D-06 0.000000000000D+00  7 -1 1 24 -13 13 -24 21 2 0.85615762D-02 0.73829923D+00 0.16764668D+06 0.16764668D+06 0.16764668D+06 0.11037601D+01  1  2 12  2  7  2        1 0.447943343441D-04 0.100000000000D+01
-.324276840149D-03 0.000000000000D+00 0.000000000000D+00 0.400791207316D-06 0.000000000000D+00  7 -1 1 24 -13 13 -24 21 2 0.85615762D-02 0.57670794D+00 0.13524445D+06 0.13524445D+06 0.13524445D+06 0.11111184D+01  1  2  4  2  7  2        1 -.581734969078D-03 0.100000000000D+01
-.414051430395D-03 0.000000000000D+00 -.686171861318D-04 0.400791207316D-06 0.000000000000D+00  7 -1 1 24 -13 13 -24 21 2 0.85615762D-02 0.73374442D+00 0.13524445D+06 0.13524445D+06 0.13524445D+06 0.11111184D+01  1  2  5  2  7  2        1 -.682403279164D-04 0.100000000000D+01
0.447069654027D-03 0.000000000000D+00 0.722888415309D-04 0.400791207316D-06 0.000000000000D+00  7 -1 1 24 -13 13 -24 21 2 0.85615762D-02 0.57670794D+00 0.13524445D+06 0.13524445D+06 0.13524445D+06 0.11111184D+01  1  2  6  2  7  2        1 0.802018581535D-03 0.100000000000D+01
0.102623690270D-04 0.000000000000D+00 0.000000000000D+00 0.400791207316D-06 0.000000000000D+00  7 -1 21 24 -13 13 -24 -1 2 0.85615762D-02 0.73829923D+00 0.16764668D+06 0.16764668D+06 0.16764668D+06 0.11037601D+01  1  2 12  4  7  2        1 0.656723634940D-07 0.100000000000D+01
-.125492071818D-04 0.000000000000D+00 -.225886633217D-05 0.400791207316D-06 0.000000000000D+00  7 -1 21 24 -13 13 -24 -1 2 0.85615762D-02 0.73374442D+00 0.13524445D+06 0.13524445D+06 0.13524445D+06 0.11111184D+01  1  2  5  4  7  2        1 -.930246143410D-07 0.100000000000D+01
  </mgrwgt>
  </event>
  <event>
  8     66 0.29788925E-05 0.28028658E+03 0.75467711E-02 0.90412527E-01
       -3 -1    0    0    0  501 0.00000000E+00 0.00000000E+00 0.36022295E+03 0.36022329E+03 0.50000000E+00 0.0000E+00 0.9000E+01
        3 -1    0    0  501    0 0.00000000E+00 0.00000000E+00 -.98050039E+03 0.98050052E+03 0.50000000E+00 0.0000E+00 0.9000E+01
       25  2    1    2    0    0 -.21859471E+02 0.20798972E+03 -.90488986E+03 0.97596649E+03 0.29991228E+03 0.0000E+00 0.0000E+00
       23  2    1    2    0    0 0.21859471E+02 -.20798972E+03 0.28461242E+03 0.36475732E+03 0.91137872E+02 0.0000E+00 0.0000E+00
       24  1    3    3    0    0 -.12153473E+03 0.89600900E+02 -.60828959E+03 0.63188801E+03 0.80419002E+02 0.0000E+00 0.9000E+01
      -13  1    4    4    0    0 0.16242434E+02 -.20878661E+03 0.28947577E+03 0.35728406E+03 0.10565837E+00 0.0000E+00 0.9000E+01
       13  1    4    4    0    0 0.56170374E+01 0.79689123E+00 -.48633564E+01 0.74732553E+01 0.10565837E+00 0.0000E+00 0.9000E+01
      -24  1    3    3    0    0 0.99675255E+02 0.11838882E+03 -.29660027E+03 0.34407849E+03 0.80419002E+02 0.0000E+00 0.9000E+01
#aMCatNLO 1  0  0  1  2 0.65730949D+03 0.00000000D+00  -5  7  0 0.00000000D+00 0.00000000D+00 0.00000000D+00 0.00000000D+00 0.00000000D+00
  <mgrwgt>
 0.9542225785D-04    3    2    0
 0.594305524777633D+03 0.000000000000000D+00 0.000000000000000D+00 0.594305524777633D+03
 0.594305524777633D+03 0.000000000000000D+00 0.000000000000000D+00 -.594305524777633D+03
 0.395317698293284D+03 -.121534726330266D+03 0.896009000853674D+02 -.356384421137132D+03
 0.554071422897026D+03 0.162424480585206D+02 -.208786892949966D+03 0.512971108235640D+03
 0.589096429879307D+01 0.561702315236398D+01 0.797172918173125D+00 -.158651398165686D+01
 0.233330964066163D+03 0.996752551193809D+02 0.118388819946426D+03 -.155000173116851D+03
 0.000000000000000D+00 -.000000000000000D+00 -.000000000000000D+00 -.000000000000000D+00
 0.922101651748859D+03 0.000000000000000D+00 0.000000000000000D+00 0.922101651748859D+03
 0.112367418719381D+04 0.000000000000000D+00 0.000000000000000D+00 -.112367418719381D+04
 0.414732912736752D+03 0.642524551524468D+02 0.185466814633708D+03 -.356384421137132D+03
 0.588187819809485D+03 0.278222529716840D+03 -.736055530900868D+02 0.512971108235640D+03
 0.969431386060232D+01 0.919154659871538D+01 0.264162180062118D+01 -.158651398165686D+01
 0.345638242514833D+03 0.232463324890958D+03 0.186907270187007D+03 -.155000173116851D+03
 0.687522550021000D+03 -.584129856358960D+03 -.301410153531249D+03 -.201572535444955D+03
0.218376533217D-03 0.000000000000D+00 0.000000000000D+00 0.263036416317D-04 0.000000000000D+00  7 -3 3 24 -13 13 -24 21 0 0.55418951D-01 0.15084625D+00 0.78560569D+05 0.78560569D+05 0.78560569D+05 0.11304245D+01  1  2  2  1  7  1       -3 0.903730245145D-04 0.100000000000D+01
-.379969918496D-05 0.000000000000D+00 -.838623387416D-06 0.263036416317D-04 0.000000000000D+00  7 -3 3 24 -13 13 -24 21 2 0.55418951D-01 0.15084625D+00 0.78560569D+05 0.78560569D+05 0.78560569D+05 0.11304245D+01  1  2  3  1  7  1       -3 -.200939448054D-05 0.100000000000D+01
0.133476341281D-04 0.000000000000D+00 0.000000000000D+00 0.263036416317D-04 0.000000000000D+00  7 -3 3 24 -13 13 -24 21 2 0.55418951D-01 0.15084625D+00 0.78560569D+05 0.78560569D+05 0.78560569D+05 0.11304245D+01  1  2 15  1  7  1       -3 0.705862781229D-05 0.100000000000D+01
  </mgrwgt>
  </event>
  <event>
  8     66 0.29788925E-05 0.25144666E+03 0.75467711E-02 0.10006533E+00
       -3 -1    0    0    0  501 0.00000000E+00 0.00000000E+00 0.79921390E+03 0.79921405E+03 0.50000000E+00 0.0000E+00 0.9000E+01
        3 -1    0    0  501    0 0.00000000E+00 0.00000000E+00 -.12458141E+03 0.12458242E+03 0.50000000E+00 0.0000E+00 0.9000E+01
       25  2    1    2    0    0 0.86400568E+02 -.16269757E+03 0.62103103E+03 0.71184349E+03 0.29513735E+03 0.0000E+00 0.0000E+00
       23  2    1    2    0    0 -.86400568E+02 0.16269757E+03 0.53601451E+02 0.21195298E+03 0.90085466E+02 0.0000E+00 0.0000E+00
       24  1    3    3    0    0 -.22675444E+02 0.16990381E+02 0.51875569E+02 0.99805508E+02 0.80419002E+02 0.0000E+00 0.9000E+01
      -13  1    4    4    0    0 -.78731604E+02 0.16637406E+03 0.67172776E+02 0.19593669E+03 0.10565837E+00 0.0000E+00 0.9000E+01
       13  1    4    4    0    0 -.76689644E+01 -.36764852E+01 -.13571324E+02 0.16016291E+02 0.10565837E+00 0.0000E+00 0.9000E+01
      -24  1    3    3    0    0 0.10907601E+03 -.17968795E+03 0.56915546E+03 0.61203799E+03 0.80419002E+02 0.0000E+00 0.9000E+01
#aMCatNLO 1  0  0  2  2 0.11696700D+03 0.00000000D+00  -5  7  0 0.00000000D+00 0.00000000D+00 0.00000000D+00 0.00000000D+00 0.00000000D+00
  <mgrwgt>
 0.2621373545D-03    4    2    0
 0.315543552756996D+03 0.000000000000000D+00 0.000000000000000D+00 0.315543552756996D+03
 0.315543552756996D+03 0.000000000000000D+00 0.000000000000000D+00 -.315543552756996D+03
 0.906420553215195D+02 -.226754443709597D+02 0.169903804534582D+02 -.307557707294928D+02
 0.215008099463594D+03 -.787317017340002D+02 0.166374292832344D+03 -.111127839273302D+03
 0.379524396218412D+02 -.766886675170122D+01 -.367671858088136D+01 -.369872666801854D+02
 0.287484511107038D+03 0.109076012856661D+03 -.179687954704921D+03 0.178870876682980D+03
 0.000000000000000D+00 -.000000000000000D+00 0.000000000000000D+00 0.000000000000000D+00
 0.403314867117869D+03 0.000000000000000D+00 0.000000000000000D+00 0.403314867117869D+03
 0.362427587448787D+03 0.000000000000000D+00 0.000000000000000D+00 -.362427587448787D+03
 0.873048768822684D+02 -.141320395361638D+02 0.304854037871967D+01 -.307557707294928D+02
 0.184753230553418D+03 -.595387724863046D+02 0.135053671217023D+03 -.111127839273302D+03
 0.384371860261389D+02 -.400132672161066D+01 -.966171607965033D+01 -.369872666801854D+02
 0.331339742568226D+03 0.138786365573974D+03 -.228171784531386D+03 0.178870876682980D+03
 0.123907418536605D+03 -.611142268298945D+02 0.997312890152930D+02 0.408872796690824D+02
0.834561174613D-04 0.000000000000D+00 0.000000000000D+00 0.143458471678D-07 0.000000000000D+00  7 -3 3 24 -13 13 -24 21 0 0.12295607D+00 0.19166461D-01 0.63225421D+05 0.63225421D+05 0.63225421D+05 0.11384369D+01  1  2  2  2  7  2        3 0.393808979006D-03 0.100000000000D+01
-.434580063380D-05 0.000000000000D+00 -.320493465552D-06 0.143458471678D-07 0.000000000000D+00  7 -3 3 24 -13 13 -24 21 2 0.12295607D+00 0.19166461D-01 0.63225421D+05 0.63225421D+05 0.63225421D+05 0.11384369D+01  1  2  3  2  7  2        3 -.265775620037D-04 0.100000000000D+01
0.535528985243D-05 0.000000000000D+00 0.000000000000D+00 0.143458471678D-07 0.000000000000D+00  7 -3 3 24 -13 13 -24 21 2 0.12295607D+00 0.19166461D-01 0.63225421D+05 0.63225421D+05 0.63225421D+05 0.11384369D+01  1  2 15  2  7  2        3 0.327512833869D-04 0.100000000000D+01
-.225396291543D-04 0.000000000000D+00 0.000000000000D+00 0.143458471678D-07 0.000000000000D+00  7 -3 3 24 -13 13 -24 21 2 0.12295607D+00 0.19166461D-01 0.63225421D+05 0.63225421D+05 0.63225421D+05 0.11384369D+01  1  2  4  2  7  2        3 -.137845345856D-03 0.100000000000D+01
  </mgrwgt>
  </event>
  <event>
  9     66 -.29788925E-05 0.25680879E+03 0.75467711E-02 0.10238407E+00
       -1 -1    0    0    0  501 0.00000000E+00 0.00000000E+00 0.14102960E+03 0.14102996E+03 0.32000000E+00 0.0000E+00 0.9000E+01
        1 -1    0    0  502    0 0.00000000E+00 0.00000000E+00 -.10209629E+04 0.10209629E+04 0.32000000E+00 0.0000E+00 0.9000E+01
       25  2    1    2    0    0 -.10319693E+03 -.18500235E+03 -.15770185E+03 0.39859496E+03 0.29855083E+03 0.0000E+00 0.0000E+00
       23  2    1    2    0    0 0.10780439E+03 0.16504356E+03 -.70396522E+03 0.73594253E+03 0.84753798E+02 0.0000E+00 0.0000E+00
       24  1    3    3    0    0 -.98775542E+02 -.18832854E+03 -.20414865E+03 0.30556200E+03 0.80419002E+02 0.0000E+00 0.9000E+01
      -13  1    4    4    0    0 0.33177328E+02 0.96649946E+02 -.47063047E+03 0.48159630E+03 0.10565837E+00 0.0000E+00 0.9000E+01
       13  1    4    4    0    0 0.74627063E+02 0.68393615E+02 -.23333476E+03 0.25434623E+03 0.10565837E+00 0.0000E+00 0.9000E+01
      -24  1    3    3    0    0 -.44213847E+01 0.33261828E+01 0.46446801E+02 0.93032970E+02 0.80419002E+02 0.0000E+00 0.9000E+01
       21  1    1    2  502  501 -.46074640E+01 0.19958792E+02 -.18266217E+02 0.27455405E+02 0.75000000E+00 0.0000E+00 0.9000E+01
#aMCatNLO 2  0  0  2  1 0.20483703D+02 0.00000000D+00  -5  7  0 0.00000000D+00 0.00000000D+00 0.00000000D+00 0.00000000D+00 0.00000000D+00
  <mgrwgt>
 -.8680254277D-03    3    2    0
 0.368878570043168D+03 0.000000000000000D+00 0.000000000000000D+00 0.368878570043168D+03
 0.368878570043168D+03 0.000000000000000D+00 0.000000000000000D+00 -.368878570043168D+03
 0.226984810123808D+03 -.100206544212226D+03 -.182129667130299D+03 0.429222660238290D+02
 0.193340748753731D+03 0.319777854428562D+02 0.101845941005120D+03 -.161200095122818D+03
 0.119998277352578D+03 0.738823182017797D+02 0.716199612264541D+02 -.617379201029511D+02
 0.197433303856220D+03 -.565355943240954D+01 0.866376489872488D+01 0.180015749201940D+03
 0.000000000000000D+00 -.000000000000000D+00 0.000000000000000D+00 0.000000000000000D+00
 0.381441092122985D+03 0.000000000000000D+00 0.000000000000000D+00 0.381441092122985D+03
 0.377466168412698D+03 0.000000000000000D+00 0.000000000000000D+00 -.377466168412698D+03
 0.231373684961138D+03 -.987755425226531D+02 -.188328535853865D+03 0.429222660238290D+02
 0.190859692448677D+03 0.331772646417605D+02 0.966499904029420D+02 -.161200095122818D+03
 0.118568374238528D+03 0.746271266544722D+02 0.683935710299333D+02 -.617379201029511D+02
 0.197239696942444D+03 -.442138475466702D+01 0.332618275086149D+01 0.180015749201940D+03
 0.208658119448961D+02 -.460746401891260D+01 0.199587916701285D+02 0.397492371028746D+01
-.516673811508D-04 0.000000000000D+00 0.000000000000D+00 0.116261719105D-07 0.000000000000D+00  7 -1 1 24 -13 13 -24 21 2 0.20981947D-01 0.15960915D+00 0.70719604D+05 0.70719604D+05 0.70719604D+05 0.11342822D+01  1  2 13  2  7  2        1 -.207287446270D-02 0.100000000000D+01
-.222997290992D-04 0.000000000000D+00 0.000000000000D+00 0.116261719105D-07 0.000000000000D+00  7 -1 1 24 -13 13 -24 21 2 0.20981947D-01 0.15349505D+00 0.65950753D+05 0.65950753D+05 0.65950753D+05 0.11368661D+01  1  2  8  2  7  2        1 -.963161338430D-03 0.100000000000D+01
0.554430278833D-04 0.000000000000D+00 0.000000000000D+00 0.116261719105D-07 0.190147734241D-09  7 -1 1 24 -13 13 -24 21 2 0.21696507D-01 0.15706845D+00 0.70719604D+05 0.70719604D+05 0.70719604D+05 0.11342822D+01  1  2  1  2  7  2        1 0.216801037347D-02 0.100000000000D+01
  </mgrwgt>
  </event>
  <event>
  9     66 -.29788925E-05 0.28995586E+03 0.75467711E-02 0.10077350E+00
       -1 -1    0    0    0  502 0.00000000E+00 0.00000000E+00 0.12969289E+03 0.12969328E+03 0.32000000E+00 0.0000E+00 0.9000E+01
        1 -1    0    0  501    0 0.00000000E+00 0.00000000E+00 -.72748478E+03 0.72748485E+03 0.32000000E+00 0.0000E+00 0.9000E+01
       25  2    1    2    0    0 -.18303618E+03 0.92206262E+02 -.33979281E+03 0.49746891E+03 0.30001989E+03 0.0000E+00 0.0000E+00
       23  2    1    2    0    0 0.17371177E+03 -.11128838E+03 -.24981077E+03 0.33693460E+03 0.92512825E+02 0.0000E+00 0.0000E+00
       24  1    3    3    0    0 -.13994368E+01 0.13199242E+03 -.10252899E+03 0.18548145E+03 0.80419002E+02 0.0000E+00 0.9000E+01
      -13  1    4    4    0    0 0.28163904E+02 -.64119958E+02 -.53981832E+02 0.88422983E+02 0.10565837E+00 0.0000E+00 0.9000E+01
       13  1    4    4    0    0 0.14554786E+03 -.47168427E+02 -.19582894E+03 0.24851162E+03 0.10565837E+00 0.0000E+00 0.9000E+01
      -24  1    3    3    0    0 -.18163674E+03 -.39786160E+02 -.23726381E+03 0.31198746E+03 0.80419002E+02 0.0000E+00 0.9000E+01
       21  1    1    2  501  502 0.93244101E+01 0.19082123E+02 -.81883151E+01 0.22774614E+02 0.75000000E+00 0.0000E+00 0.9000E+01
#aMCatNLO 2  0  0  1  2 0.21238456D+02 0.00000000D+00  -5  7  0 0.00000000D+00 0.00000000D+00 0.00000000D+00 0.00000000D+00 0.00000000D+00
  <mgrwgt>
 -.4338667185D-04    3    2    0
 0.295019396595597D+03 0.000000000000000D+00 0.000000000000000D+00 0.295019396595597D+03
 0.295019396595597D+03 0.000000000000000D+00 0.000000000000000D+00 -.295019396595597D+03
 0.164091854821391D+03 0.115851339211967D+01 0.137227191444821D+03 0.403271203936096D+02
 0.694726628417680D+02 0.292737772547770D+02 -.618483468070217D+02 0.120116129142608D+02
 0.156523044186655D+03 0.148013840736764D+03 -.421221697687196D+02 -.285847708716476D+02
 0.199951231341381D+03 -.178446131383660D+03 -.332566748690801D+02 -.237539624362228D+02
 0.000000000000000D+00 0.000000000000000D+00 0.000000000000000D+00 0.000000000000000D+00
 0.312794425872533D+03 0.000000000000000D+00 0.000000000000000D+00 0.312794425872533D+03
 0.301623568013677D+03 0.000000000000000D+00 0.000000000000000D+00 -.301623568013677D+03
 0.159741824731076D+03 -.139943756188346D+01 0.131992422317772D+03 0.403271203936096D+02
 0.710552428946546D+02 0.281637522226701D+02 -.641199794038986D+02 0.120116129142608D+02
 0.155647590828521D+03 0.145548015765277D+03 -.471684058637646D+02 -.285847708716476D+02
 0.203976250304762D+03 -.181636740490325D+03 -.397861597373936D+02 -.237539624362228D+02
 0.239970851271956D+02 0.932441006426125D+01 0.190821226872851D+02 0.111708578588564D+02
-.107546162965D-04 0.000000000000D+00 0.000000000000D+00 0.477115403322D-06 0.000000000000D+00  7 -1 1 24 -13 13 -24 21 2 0.20154044D-01 0.10946811D+00 0.90428746D+05 0.90428746D+05 0.90428746D+05 0.11253253D+01  1  2 13  1  7  1       -1 -.831338373190D-03 0.100000000000D+01
-.885690691448D-06 0.000000000000D+00 0.000000000000D+00 0.477115403322D-06 0.000000000000D+00  7 -1 1 24 -13 13 -24 21 2 0.18818577D-01 0.10946811D+00 0.84074404D+05 0.84074404D+05 0.84074404D+05 0.11279572D+01  1  2  8  1  7  1       -1 -.767923747714D-04 0.100000000000D+01
0.113828579354D-04 0.000000000000D+00 0.000000000000D+00 0.477115403322D-06 0.715388506246D-08  7 -1 1 24 -13 13 -24 21 2 0.19952404D-01 0.11191862D+00 0.90428746D+05 0.90428746D+05 0.90428746D+05 0.11253253D+01  1  2  1  1  7  1       -1 0.864744076112D-03 0.100000000000D+01
  </mgrwgt>
  </event>
  <event>
  9     66 0.29788925E-05 0.14732213E+03 0.75467711E-02 0.10636217E+00
       21 -1    0    0  502  501 0.00000000E+00 0.00000000E+00 0.57999668E+03 0.57999717E+03 0.75000000E+00 0.0000E+00 0.9000E+01
        3 -1    0    0  501    0 0.00000000E+00 0.00000000E+00 -.14782722E+03 0.14782807E+03 0.50000000E+00 0.0000E+00 0.9000E+01
       25  2    1    2    0    0 0.21001485E+02 0.10345327E+03 0.10886087E+03 0.33625916E+03 0.30012646E+03 0.0000E+00 0.0000E+00
       23  2    1    2    0    0 0.52845092E+02 -.50529303E+02 0.11299435E+03 0.16246655E+03 0.91004633E+02 0.0000E+00 0.0000E+00
       24  1    3    3    0    0 -.39670969E+02 0.70685439E+02 -.65947165E+02 0.13185773E+03 0.80419002E+02 0.0000E+00 0.9000E+01
      -11  1    4    4    0    0 0.57821331E+02 -.26648146E+02 0.12105410E+03 0.13677546E+03 0.51099893E-03 0.0000E+00 0.9000E+01
       11  1    4    4    0    0 -.49762387E+01 -.23881157E+02 -.80597552E+01 0.25691093E+02 0.51099893E-03 0.0000E+00 0.9000E+01
      -24  1    3    3    0    0 0.60672455E+02 0.32767832E+02 0.17480804E+03 0.20440143E+03 0.80419002E+02 0.0000E+00 0.9000E+01
        3  1    1    2  502    0 -.73846578E+02 -.52923968E+02 0.21031424E+03 0.22909953E+03 0.50000000E+00 0.0000E+00 0.9000E+01
#aMCatNLO 2  0  0  1  2 0.90852977D+02 0.00000000D+00  -5  7  0 0.00000000D+00 0.00000000D+00 0.00000000D+00 0.00000000D+00 0.00000000D+00
  <mgrwgt>
 0.4604686764D-04    2    2    0
 0.218662601129065D+03 0.000000000000000D+00 0.000000000000000D+00 0.218662601129065D+03
 0.218662601129065D+03 0.000000000000000D+00 0.000000000000000D+00 -.218662601129065D+03
 0.181970248329581D+03 -.699077922004002D+02 0.490154757723973D+02 -.139127060801377D+03
 0.880291619806636D+02 0.427326844834420D+02 -.374617962052967D+02 0.672284527631665D+02
 0.371171639617642D+02 -.108076960438225D+02 -.280604145664138D+02 -.217598414780491D+02
 0.130208627986120D+03 0.379828037607807D+02 0.165067349993133D+02 0.936584495162597D+02
 0.000000000000000D+00 -.000000000000000D+00 -.000000000000000D+00 0.000000000000000D+00
 0.359519330954357D+03 0.000000000000000D+00 0.000000000000000D+00 0.359519330954357D+03
 0.238483702279251D+03 0.000000000000000D+00 0.000000000000000D+00 -.238483702279251D+03
 0.179982699539202D+03 -.396709694069838D+02 0.706854392228566D+02 -.139127060801377D+03
 0.925910086203940D+02 0.578213310148157D+02 -.266481462035855D+02 0.672284527631665D+02
 0.326888867349584D+02 -.497623867552880D+01 -.238811570796996D+02 -.217598414780491D+02
 0.141400136888984D+03 0.606724548356615D+02 0.327678320350574D+02 0.936584495162597D+02
 0.151340301450069D+03 -.738465777679647D+02 -.529239679746289D+02 0.121035628675106D+03
-.126166213400D-06 0.000000000000D+00 0.000000000000D+00 0.956970671810D-06 0.000000000000D+00  7 21 3 24 -11 11 -24 3 2 0.90354189D-01 0.20852499D-01 0.39806156D+05 0.39806156D+05 0.39806156D+05 0.11561083D+01  1  2 13  3  7  1       -3 -.243885728748D-04 0.100000000000D+01
0.411628966817D-06 0.000000000000D+00 0.000000000000D+00 0.956970671810D-06 0.551120312095D-10  7 21 3 24 -11 11 -24 3 2 0.89230214D-01 0.22742715D-01 0.39806156D+05 0.39806156D+05 0.39806156D+05 0.11561083D+01  1  2  1  3  7  1       -3 0.704354405167D-04 0.100000000000D+01
  </mgrwgt>
  </event>
  <event>
  7     66 0.29788925E-05 0.97690339E+03 0.75467711E-02 0.83147050E-01
       -1 -1    0    0    0  501 0.00000000E+00 0.00000000E+00 0.12345427E+04 0.12345428E+04 0.32000000E+00 0.0000E+00 0.9000E+01
        1 -1    0    0  501    0 0.00000000E+00 0.00000000E+00 -.91541890E+03 0.91541895E+03 0.32000000E+00 0.0000E+00 0.9000E+01
       25  2    1    2    0    0 0.93243606E+03 -.19931959E+03 0.53241378E+03 0.11327205E+04 0.30070920E+03 0.0000E+00 0.0000E+00
       24  1    3    3    0    0 0.52453285E+03 -.72946978E+02 0.42843806E+03 0.68591716E+03 0.80419002E+02 0.0000E+00 0.9000E+01
      -13  1    1    2    0    0 -.51009532E+02 0.78971464E+02 0.23009814E+02 0.96788053E+02 0.10565837E+00 0.0000E+00 0.9000E+01
       13  1    1    2    0    0 -.88142653E+03 0.12034812E+03 -.23629977E+03 0.92045315E+03 0.10565837E+00 0.0000E+00 0.9000E+01
      -24  1    3    3    0    0 0.40790322E+03 -.12637261E+03 0.10397572E+03 0.44680335E+03 0.80419002E+02 0.0000E+00 0.9000E+01
#aMCatNLO 1  0  0  1  2 0.98913121D+03 0.00000000D+00  -5  7  0 0.00000000D+00 0.00000000D+00 0.00000000D+00 0.00000000D+00 0.00000000D+00
  <mgrwgt>
 0.7903181250D-02    6    2    0
 0.106307282908096D+04 0.000000000000000D+00 0.000000000000000D+00 0.106307282908096D+04
 0.106307282908096D+04 0.000000000000000D+00 0.000000000000000D+00 -.106307282908096D+04
 0.629294107567012D+03 0.524532886091512D+03 -.729469859696125D+02 0.330284493294265D+03
 0.944183829106563D+02 -.510094797480615D+02 0.789713497029968D+02 0.874013348767795D+01
 0.966231147505168D+03 -.881426648041523D+03 0.120348251993233D+03 -.377102098606749D+03
 0.436202020179093D+03 0.407903241698072D+03 -.126372615726617D+03 0.380774718248060D+02
 0.000000000000000D+00 -.000000000000000D+00 0.000000000000000D+00 0.000000000000000D+00
 0.169041533030056D+04 0.000000000000000D+00 0.000000000000000D+00 0.169041533030056D+04
 0.164473818992431D+04 0.000000000000000D+00 0.000000000000000D+00 -.164473818992431D+04
 0.842028212023625D+03 0.682307947689739D+03 -.357648307556600D+03 0.330284493294265D+03
 0.604984147802989D+02 -.343972072549133D+02 0.489949016797586D+02 0.874013348767795D+01
 0.817939130629477D+03 -.690103800704619D+03 -.224889245839658D+03 -.377102098606749D+03
 0.624502452752858D+03 0.521646308955363D+03 -.331619257632366D+03 0.380774718248060D+02
 0.990185310038617D+03 -.479453248685570D+03 0.865161909348866D+03 0.456771403762506D+02
0.171139901933D-01 0.000000000000D+00 0.000000000000D+00 0.161298232194D-08 0.000000000000D+00  7 -1 1 24 -13 13 -24 21 0 0.18992966D+00 0.14083368D+00 0.95434024D+06 0.95434024D+06 0.95434024D+06 0.10492177D+01  1  2  2  1  7  1       -1 0.574840873559D-02 0.100000000000D+01
-.942516976502D-03 0.000000000000D+00 -.657222285594D-04 0.161298232194D-08 0.000000000000D+00  7 -1 1 24 -13 13 -24 21 2 0.18992966D+00 0.14083368D+00 0.95434024D+06 0.95434024D+06 0.95434024D+06 0.10492177D+01  1  2  3  1  7  1       -1 -.348511231349D-03 0.100000000000D+01
0.109245081130D-02 0.000000000000D+00 0.000000000000D+00 0.161298232194D-08 0.000000000000D+00  7 -1 1 24 -13 13 -24 21 2 0.18992966D+00 0.14083368D+00 0.95434024D+06 0.95434024D+06 0.95434024D+06 0.10492177D+01  1  2 15  1  7  1       -1 0.403951745089D-03 0.100000000000D+01
-.305564817004D-02 0.000000000000D+00 -.459604908142D-02 0.161298232194D-08 0.000000000000D+00  7 -1 1 24 -13 13 -24 21 2 0.37981989D+00 0.14083368D+00 0.95434024D+06 0.95434024D+06 0.95434024D+06 0.10492177D+01  1  2  5  1  7  1       -1 -.239225582097D-04 0.100000000000D+01
0.572826904069D-02 0.000000000000D+00 0.367706825071D-02 0.161298232194D-08 0.000000000000D+00  7 -1 1 24 -13 13 -24 21 2 0.18992966D+00 0.14083368D+00 0.95434024D+06 0.95434024D+06 0.95434024D+06 0.10492177D+01  1  2  6  1  7  1       -1 0.211812216293D-02 0.100000000000D+01
0.465997261689D-04 0.000000000000D+00 -.344653591750D-03 0.161298232194D-08 0.000000000000D+00  7 21 1 24 -13 13 -24 1 2 0.37981989D+00 0.14083368D+00 0.95434024D+06 0.95434024D+06 0.95434024D+06 0.10492177D+01  1  2  5  3  7  1       -1 0.513239612772D-05 0.100000000000D+01
  </mgrwgt>
  </event>
  <event>
  9     66 0.29788925E-05 0.60998684E+03 0.75467711E-02 0.91797591E-01
       -1 -1    0    0    0  501 0.00000000E+00 0.00000000E+00 0.17700461E+04 0.17700461E+04 0.32000000E+00 0.0000E+00 0.9000E+01
       21 -1    0    0  501  502 0.00000000E+00 0.00000000E+00 -.26280278E+03 0.26280385E+03 0.75000000E+00 0.0000E+00 0.9000E+01
       25  2    1    2    0    0 -.26565042E+03 -.47766012E+03 0.93993368E+03 0.11280349E+04 0.30042970E+03 0.0000E+00 0.0000E+00
       23  2    1    2    0    0 0.29196478E+03 0.54427420E+03 0.45874286E+03 0.77475078E+03 0.91191662E+02 0.0000E+00 0.0000E+00
       24  1    3    3    0    0 -.64985419E+02 -.32024572E+03 0.38045620E+03 0.50793165E+03 0.80419002E+02 0.0000E+00 0.9000E+01
      -11  1    4    4    0    0 0.21520510E+02 0.34237009E+02 0.62880822E+02 0.74761641E+02 0.51099893E-03 0.0000E+00 0.9000E+01
       11  1    4    4    0    0 0.27044427E+03 0.51003719E+03 0.39586204E+03 0.69998914E+03 0.51099893E-03 0.0000E+00 0.9000E+01
      -24  1    3    3    0    0 -.20066500E+03 -.15741441E+03 0.55947748E+03 0.62010322E+03 0.80419002E+02 0.0000E+00 0.9000E+01
       -1  1    1    2    0  502 -.26314363E+02 -.66614077E+02 0.10856678E+03 0.13006432E+03 0.32000000E+00 0.0000E+00 0.9000E+01
#aMCatNLO 2  0  0  2  2 0.71623188D+02 0.00000000D+00  -5  7  0 0.00000000D+00 0.00000000D+00 0.00000000D+00 0.00000000D+00 0.00000000D+00
  <mgrwgt>
 0.4849774200D-04    1    2    0
 0.644043337838068D+03 0.000000000000000D+00 0.000000000000000D+00 0.644043337838068D+03
 0.644043337838068D+03 0.000000000000000D+00 0.000000000000000D+00 -.644043337838068D+03
 0.355094750253059D+03 -.720461648366905D+02 -.338119799897362D+03 0.104602462974759D+02
 0.399495481367638D+02 0.206831136738991D+02 0.321171639663969D+02 0.116902944291300D+02
 0.572286113993111D+03 0.258445945648102D+03 0.479663763730127D+03 -.175042175522483D+03
 0.320756263293201D+03 -.207082894485311D+03 -.173661127799161D+03 0.152891634795877D+03
 0.000000000000000D+00 -.000000000000000D+00 -.000000000000000D+00 0.000000000000000D+00
 0.691661495897383D+03 0.000000000000000D+00 0.000000000000000D+00 0.691661495897383D+03
 0.672545284232729D+03 0.000000000000000D+00 0.000000000000000D+00 -.672545284232729D+03
 0.336685398826177D+03 -.649854192045567D+02 -.320245718732625D+03 0.104602462974759D+02
 0.420947512305555D+02 0.215205096719923D+02 0.342370086424076D+02 0.116902944291300D+02
 0.603256003119391D+03 0.270444271821293D+03 0.510037192689895D+03 -.175042175522483D+03
 0.308040265122886D+03 -.200664999511851D+03 -.157414405195204D+03 0.152891634795877D+03
 0.741303618311029D+02 -.263143627768776D+02 -.666140774044738D+02 0.191162116646547D+02
0.185269834199D-04 0.000000000000D+00 0.000000000000D+00 0.106961806373D-04 0.107029951018D-09  7 -1 21 24 -11 11 -24 -1 2 0.27231473D+00 0.40431261D-01 0.41816036D+06 0.41816036D+06 0.41816036D+06 0.10740403D+01  1  2  1  4  7  2        1 0.484977420012D-04 0.100000000000D+01
  </mgrwgt>
  </event>
  <event>
  9     66 0.29788925E-05 0.63818307E+03 0.75467711E-02 0.83152349E-01
       21 -1    0    0  502  501 0.00000000E+00 0.00000000E+00 0.81863218E+03 0.81863252E+03 0.75000000E+00 0.0000E+00 0.9000E+01
        1 -1    0    0  501    0 0.00000000E+00 0.00000000E+00 -.30897732E+04 0.30897732E+04 0.32000000E+00 0.0000E+00 0.9000E+01
       25  2    1    2    0    0 -.33656047E+03 -.22501960E+03 -.38648197E+03 0.63382600E+03 0.29742279E+03 0.0000E+00 0.0000E+00
       23  2    1    2    0    0 -.52171559E+03 0.12398660E+04 -.92422418E+03 0.16347669E+04 0.93902469E+02 0.0000E+00 0.0000E+00
       24  1    3    3    0    0 -.87274489E+02 0.37760698E+02 -.54453022E+02 0.13592297E+03 0.80419002E+02 0.0000E+00 0.9000E+01
      -13  1    4    4    0    0 -.39790165E+03 0.88785278E+03 -.62417212E+03 0.11559408E+04 0.10565837E+00 0.0000E+00 0.9000E+01
       13  1    4    4    0    0 -.12381394E+03 0.35201319E+03 -.30005206E+03 0.47882610E+03 0.10565837E+00 0.0000E+00 0.9000E+01
      -24  1    3    3    0    0 -.24928599E+03 -.26278030E+03 -.33202895E+03 0.49790303E+03 0.80419002E+02 0.0000E+00 0.9000E+01
        1  1    1    2  502    0 0.85827607E+03 -.10148464E+04 -.96043490E+03 0.16398129E+04 0.32000000E+00 0.0000E+00 0.9000E+01
#aMCatNLO 2  0  0  1  2 0.13291166D+04 0.00000000D+00  -5  7  0 0.00000000D+00 0.00000000D+00 0.00000000D+00 0.00000000D+00 0.00000000D+00
  <mgrwgt>
 0.6840705981D-05    1    2    0
 0.644595250430719D+03 0.000000000000000D+00 0.000000000000000D+00 0.644595250430719D+03
 0.644595250430719D+03 0.000000000000000D+00 0.000000000000000D+00 -.644595250430719D+03
 0.959943973669869D+02 -.260689177415528D+02 -.346102488806441D+02 0.295000096895659D+02
 0.435707237593456D+03 -.125674394092836D+02 0.432224562324248D+03 0.535236777662581D+02
 0.177999389508948D+03 0.270970696956408D+02 0.173572092843749D+03 -.286750774246327D+02
 0.579489476392047D+03 0.115392874551956D+02 -.571186406287354D+03 -.543486100311913D+02
 0.000000000000000D+00 0.000000000000000D+00 -.000000000000000D+00 -.000000000000000D+00
 0.158245296972764D+04 0.000000000000000D+00 0.000000000000000D+00 0.158245296972764D+04
 0.159839722008093D+04 0.000000000000000D+00 0.000000000000000D+00 -.159839722008093D+04
 0.127985051165789D+03 -.872744892607760D+02 0.377606980884277D+02 0.295000096895659D+02
 0.974409844598822D+03 -.397901997959051D+03 0.887853457046639D+03 0.535236777662581D+02
 0.374252421040175D+03 -.123813596031079D+03 0.352012511179612D+03 -.286750774246327D+02
 0.374990634605018D+03 -.249285985041884D+03 -.262780300510672D+03 -.543486100311913D+02
 0.132921223839877D+04 0.858276068292790D+03 -.101484636580401D+04 -.159442503532822D+02
0.351292660761D-04 0.000000000000D+00 0.000000000000D+00 0.835787943486D-07 0.139854687260D-12  7 21 1 24 -13 13 -24 1 2 0.12594344D+00 0.47534975D+00 0.25134578D+07 0.25134578D+07 0.25134578D+07 0.10222149D+01  1  2  1  3  7  1       -1 0.684070598052D-05 0.100000000000D+01
  </mgrwgt>
  </event>
  <event>
  8     66 0.29788925E-05 0.12690614E+03 0.75467711E-02 0.10541318E+00
       -1 -1    0    0    0  501 0.00000000E+00 0.00000000E+00 0.21405384E+02 0.21407776E+02 0.32000000E+00 0.0000E+00 0.9000E+01
        1 -1    0    0  501    0 0.00000000E+00 0.00000000E+00 -.25546999E+04 0.25546999E+04 0.32000000E+00 0.0000E+00 0.9000E+01
       25  2    1    2    0    0 -.51437439E-01 0.95433367E+02 -.13962447E+04 0.14314839E+04 0.30089731E+03 0.0000E+00 0.0000E+00
       23  2    1    2    0    0 0.51437439E-01 -.95433367E+02 -.11370498E+04 0.11446238E+04 0.90409952E+02 0.0000E+00 0.0000E+00
       24  1    3    3    0    0 -.12523920E+03 0.26464350E+02 -.62960961E+03 0.64750343E+03 0.80419002E+02 0.0000E+00 0.9000E+01
      -13  1    4    4    0    0 -.92630839E+01 -.68470721E+02 -.33421833E+03 0.34128572E+03 0.10565837E+00 0.0000E+00 0.9000E+01
       13  1    4    4    0    0 0.93145213E+01 -.26962646E+02 -.80283145E+03 0.80333810E+03 0.10565837E+00 0.0000E+00 0.9000E+01
      -24  1    3    3    0    0 0.12518776E+03 0.68969017E+02 -.76663512E+03 0.78398044E+03 0.80419002E+02 0.0000E+00 0.9000E+01
#aMCatNLO 1  0  0  2  1 0.12439905D+02 0.00000000D+00  -5  7  0 0.00000000D+00 0.00000000D+00 0.00000000D+00 0.00000000D+00 0.00000000D+00
  <mgrwgt>
 0.1709280095D-02    9    2    0
 0.233853457191705D+03 0.000000000000000D+00 0.000000000000000D+00 0.233853457191705D+03
 0.233853457191705D+03 0.000000000000000D+00 0.000000000000000D+00 -.233853457191705D+03
 0.156191832592368D+03 -.125239181477028D+03 0.264643636229613D+02 0.392868616103081D+02
 0.695207298146784D+02 -.926310901302257D+01 -.684707878698336D+02 0.768621453399653D+01
 0.762805610772594D+02 0.931454646449012D+01 -.269626011923083D+02 -.707458928798477D+02
 0.165713790899104D+03 0.125187744025561D+03 0.689690254391806D+02 0.237728167355431D+02
 0.000000000000000D+00 -.000000000000000D+00 0.000000000000000D+00 -.000000000000000D+00
 0.239151438676655D+03 0.000000000000000D+00 0.000000000000000D+00 0.239151438676655D+03
 0.241354329245545D+03 0.000000000000000D+00 0.000000000000000D+00 -.241354329245545D+03
 0.153497638471217D+03 -.122487787030054D+03 0.234007178343431D+02 0.392868616103081D+02
 0.707356463396288D+02 -.801702010603348D+01 -.698582934077399D+02 0.768621453399653D+01
 0.770066318449993D+02 0.106764059101796D+02 -.284790158816180D+02 -.707458928798477D+02
 0.166632404613039D+03 0.128140429093169D+03 0.656812448803284D+02 0.237728167355431D+02
 0.126334466533162D+02 -.831202786726107D+01 0.925534657468638D+01 -.220289056888939D+01
0.862546075102D-05 0.000000000000D+00 0.000000000000D+00 0.223234887809D-06 0.000000000000D+00  7 -1 1 24 -13 13 -24 21 0 0.32933216D-02 0.39303094D+00 0.42599029D+05 0.42599029D+05 0.42599029D+05 0.11534655D+01  1  2  2  2  7  2        1 0.438040968732D-03 0.100000000000D+01
-.470103074188D-06 0.000000000000D+00 -.331240404199D-07 0.223234887809D-06 0.000000000000D+00  7 -1 1 24 -13 13 -24 21 2 0.32933216D-02 0.39303094D+00 0.42599029D+05 0.42599029D+05 0.42599029D+05 0.11534655D+01  1  2  3  2  7  2        1 -.317639671293D-04 0.100000000000D+01
0.552978866200D-06 0.000000000000D+00 0.000000000000D+00 0.223234887809D-06 0.000000000000D+00  7 -1 1 24 -13 13 -24 21 2 0.32933216D-02 0.39303094D+00 0.42599029D+05 0.42599029D+05 0.42599029D+05 0.11534655D+01  1  2 15  2  7  2        1 0.373637261563D-04 0.100000000000D+01
0.150449546350D-04 0.000000000000D+00 0.000000000000D+00 0.223234887809D-06 0.000000000000D+00  7 -1 1 24 -13 13 -24 21 2 0.32933216D-02 0.40996784D+00 0.45472139D+05 0.45472139D+05 0.45472139D+05 0.11509392D+01  1  2 12  2  7  2        1 0.849454618741D-03 0.100000000000D+01
-.129254359962D-04 0.000000000000D+00 0.000000000000D+00 0.223234887809D-06 0.000000000000D+00  7 -1 1 24 -13 13 -24 21 2 0.32933216D-02 0.39303094D+00 0.42599029D+05 0.42599029D+05 0.42599029D+05 0.11534655D+01  1  2  4  2  7  2        1 -.873347031019D-03 0.100000000000D+01
-.121699957227D-03 0.000000000000D+00 -.182216602620D-04 0.223234887809D-06 0.000000000000D+00  7 -1 1 24 -13 13 -24 21 2 0.32933216D-02 0.40923278D+00 0.42599029D+05 0.42599029D+05 0.42599029D+05 0.11534655D+01  1  2  5  2  7  2        1 -.696492732202D-02 0.100000000000D+01
0.122351051934D-03 0.000000000000D+00 0.182068031185D-04 0.223234887809D-06 0.000000000000D+00  7 -1 1 24 -13 13 -24 21 2 0.32933216D-02 0.39303094D+00 0.42599029D+05 0.42599029D+05 0.42599029D+05 0.11534655D+01  1  2  6  2  7  2        1 0.826702696763D-02 0.100000000000D+01
0.203064684479D-06 0.000000000000D+00 0.000000000000D+00 0.223234887809D-06 0.000000000000D+00  7 -1 21 24 -13 13 -24 -1 2 0.32933216D-02 0.40996784D+00 0.45472139D+05 0.45472139D+05 0.45472139D+05 0.11509392D+01  1  2 12  4  7  2        1 0.378928416081D-05 0.100000000000D+01
-.857814926964D-06 0.000000000000D+00 -.130023736638D-06 0.223234887809D-06 0.000000000000D+00  7 -1 21 24 -13 13 -24 -1 2 0.32933216D-02 0.40923278D+00 0.42599029D+05 0.42599029D+05 0.42599029D+05 0.11534655D+01  1  2  5  4  7  2        1 -.163571506100D-04 0.100000000000D+01
  </mgrwgt>
  </event>
  <event>
  8     66 0.29788925E-05 0.31772322E+03 0.75467711E-02 0.90769871E-01
       -1 -1    0    0    0  501 0.00000000E+00 0.00000000E+00 0.10225781E+04 0.10225782E+04 0.32000000E+00 0.0000E+00 0.9000E+01
        1 -1    0    0  501    0 0.00000000E+00 0.00000000E+00 -.39708307E+03 0.39708320E+03 0.32000000E+00 0.0000E+00 0.9000E+01
       25  2    1    2    0    0 -.35571496E+03 -.30092541E+03 0.74624142E+03 0.92962747E+03 0.30040263E+03 0.0000E+00 0.0000E+00
       23  2    1    2    0    0 0.35571496E+03 0.30092541E+03 -.12074634E+03 0.49003393E+03 0.92001802E+02 0.0000E+00 0.0000E+00
       24  1    3    3    0    0 -.60938113E+02 0.86909065E+01 0.24991997E+03 0.26965941E+03 0.80419002E+02 0.0000E+00 0.9000E+01
      -13  1    4    4    0    0 0.28816807E+03 0.22002889E+03 -.12774779E+03 0.38441261E+03 0.10565837E+00 0.0000E+00 0.9000E+01
       13  1    4    4    0    0 0.67546895E+02 0.80896523E+02 0.70014495E+01 0.10562131E+03 0.10565837E+00 0.0000E+00 0.9000E+01
      -24  1    3    3    0    0 -.29477685E+03 -.30961632E+03 0.49632144E+03 0.65996807E+03 0.80419002E+02 0.0000E+00 0.9000E+01
#aMCatNLO 1  0  0  1  2 0.35283159D+03 0.00000000D+00  -5  7  0 0.00000000D+00 0.00000000D+00 0.00000000D+00 0.00000000D+00 0.00000000D+00
  <mgrwgt>
 0.7982722685D-03    8    2    0
 0.637219429853307D+03 0.000000000000000D+00 0.000000000000000D+00 0.637219429853307D+03
 0.637219429853307D+03 0.000000000000000D+00 0.000000000000000D+00 -.637219429853307D+03
 0.177726326471555D+03 -.609381128666155D+02 0.869090645448405D+01 0.146049463237487D+03
 0.490915665125235D+03 0.288168358794325D+03 0.220029074697453D+03 -.330974913766768D+03
 0.114220071273801D+03 0.675466043441148D+02 0.808963396704786D+02 -.440393364083792D+02
 0.491576796836023D+03 -.294776850271824D+03 -.309616320822416D+03 0.228964786937660D+03
 0.000000000000000D+00 0.000000000000000D+00 -.000000000000000D+00 0.000000000000000D+00
 0.112792850571282D+04 0.000000000000000D+00 0.000000000000000D+00 0.112792850571282D+04
 0.727869939515680D+03 0.000000000000000D+00 0.000000000000000D+00 -.727869939515680D+03
 0.190904077493870D+03 -.732900210606452D+02 0.572300441235807D+02 0.146049463237487D+03
 0.548741329019532D+03 0.253331981743446D+03 0.356925145733865D+03 -.330974913766768D+03
 0.135609428389744D+03 0.591754254863504D+02 0.113792455529407D+03 -.440393364083792D+02
 0.447123528079794D+03 -.326230414900078D+03 -.186013645050213D+03 0.228964786937660D+03
 0.533420082245558D+03 0.870130287309269D+02 -.341934000336641D+03 0.400058566197139D+03
0.184656700257D-03 0.000000000000D+00 0.000000000000D+00 0.595224386750D-05 0.000000000000D+00  7 -1 1 24 -13 13 -24 21 0 0.15731973D+00 0.61089718D-01 0.25211679D+06 0.25211679D+06 0.25211679D+06 0.10901837D+01  1  2  2  1  7  1       -1 0.431839412475D-03 0.100000000000D+01
-.955045574915D-05 0.000000000000D+00 -.709130350214D-06 0.595224386750D-05 0.000000000000D+00  7 -1 1 24 -13 13 -24 21 2 0.15731973D+00 0.61089718D-01 0.25211679D+06 0.25211679D+06 0.25211679D+06 0.10901837D+01  1  2  3  1  7  1       -1 -.265448761930D-04 0.100000000000D+01
0.116793368973D-04 0.000000000000D+00 0.000000000000D+00 0.595224386750D-05 0.000000000000D+00  7 -1 1 24 -13 13 -24 21 2 0.15731973D+00 0.61089718D-01 0.25211679D+06 0.25211679D+06 0.25211679D+06 0.10901837D+01  1  2 15  1  7  1       -1 0.324619641301D-04 0.100000000000D+01
0.291933832811D-04 0.000000000000D+00 0.000000000000D+00 0.595224386750D-05 0.000000000000D+00  7 -1 1 24 -13 13 -24 21 2 0.28222780D+00 0.61089718D-01 0.50820499D+06 0.50820499D+06 0.50820499D+06 0.10680112D+01  1  2 12  1  7  1       -1 0.694930424904D-05 0.100000000000D+01
-.124425582524D-03 0.000000000000D+00 -.533783732947D-04 0.595224386750D-05 0.000000000000D+00  7 -1 1 24 -13 13 -24 21 2 0.29371055D+00 0.61089718D-01 0.25211679D+06 0.25211679D+06 0.25211679D+06 0.10901837D+01  1  2  5  1  7  1       -1 -.258057592596D-04 0.100000000000D+01
0.138762426000D-03 0.000000000000D+00 0.444339477127D-04 0.595224386750D-05 0.000000000000D+00  7 -1 1 24 -13 13 -24 21 2 0.15731973D+00 0.61089718D-01 0.25211679D+06 0.25211679D+06 0.25211679D+06 0.10901837D+01  1  2  6  1  7  1       -1 0.385681219322D-03 0.100000000000D+01
0.187265346400D-05 0.000000000000D+00 0.000000000000D+00 0.595224386750D-05 0.000000000000D+00  7 21 1 24 -13 13 -24 1 2 0.28222780D+00 0.61089718D-01 0.50820499D+06 0.50820499D+06 0.50820499D+06 0.10680112D+01  1  2 12  3  7  1       -1 0.361394890631D-05 0.100000000000D+01
-.547627485595D-05 0.000000000000D+00 -.362984183459D-05 0.595224386750D-05 0.000000000000D+00  7 21 1 24 -13 13 -24 1 2 0.29371055D+00 0.61089718D-01 0.25211679D+06 0.25211679D+06 0.25211679D+06 0.10901837D+01  1  2  5  3  7  1       -1 -.992294514400D-05 0.100000000000D+01
  </mgrwgt>
  </event>
  <event>
  8     66 0.29788925E-05 0.46841776E+03 0.75467711E-02 0.88337688E-01
       -1 -1    0    0    0  501 0.00000000E+00 0.00000000E+00 0.84048942E+03 0.84048948E+03 0.32000000E+00 0.0000E+00 0.9000E+01
        1 -1    0    0  501    0 0.00000000E+00 0.00000000E+00 -.27257128E+03 0.27257147E+03 0.32000000E+00 0.0000E+00 0.9000E+01
       25  2    1    2    0    0 0.38031604E+02 0.42391293E+03 0.34837588E+03 0.62528318E+03 0.29743021E+03 0.0000E+00 0.0000E+00
       23  2    1    2    0    0 -.38031604E+02 -.42391293E+03 0.21954226E+03 0.48777777E+03 0.92627049E+02 0.0000E+00 0.0000E+00
       24  1    3    3    0    0 0.54992338E+02 0.24575168E+02 0.12506045E+03 0.16042265E+03 0.80419002E+02 0.0000E+00 0.9000E+01
      -11  1    4    4    0    0 0.10687576E+02 -.32337659E+02 -.39517415E+01 0.34286509E+02 0.51099893E-03 0.0000E+00 0.9000E+01
       11  1    4    4    0    0 -.48719180E+02 -.39157527E+03 0.22349400E+03 0.45349126E+03 0.51099893E-03 0.0000E+00 0.9000E+01
      -24  1    3    3    0    0 -.16960734E+02 0.39933776E+03 0.22331543E+03 0.46486053E+03 0.80419002E+02 0.0000E+00 0.9000E+01
#aMCatNLO 1  0  0  1  2 0.66281802D+03 0.00000000D+00  -5  7  0 0.00000000D+00 0.00000000D+00 0.00000000D+00 0.00000000D+00 0.00000000D+00
  <mgrwgt>
 0.1210687654D-02    5    2    0
 0.478637039738680D+03 0.000000000000000D+00 0.000000000000000D+00 0.478637039738680D+03
 0.478637039738680D+03 0.000000000000000D+00 0.000000000000000D+00 -.478637039738680D+03
 0.112335741647897D+03 0.549923381310901D+02 0.245751684952010D+02 0.502394938023939D+02
 0.422107327355321D+02 0.106875756371822D+02 -.323376589840045D+02 -.249358676709727D+02
 0.394701078061486D+03 -.487191795144328D+02 -.391575270973412D+03 -.917549630478579D+01
 0.408026527032444D+03 -.169607342538395D+02 0.399337761462215D+03 -.161281298266354D+02
 0.000000000000000D+00 -.000000000000000D+00 -.000000000000000D+00 0.000000000000000D+00
 0.958214635695469D+03 0.000000000000000D+00 0.000000000000000D+00 0.958214635695469D+03
 0.874246776096474D+03 0.000000000000000D+00 0.000000000000000D+00 -.874246776096474D+03
 0.178204084205325D+03 0.134586003872382D+03 0.682061617248067D+02 0.502394938023939D+02
 0.470676901619302D+02 0.351454857675483D+02 -.189305253714274D+02 -.249358676709727D+02
 0.320172584875128D+03 0.147121150491737D+03 -.284221148845700D+03 -.917549630478579D+01
 0.618901547318133D+03 0.264367202975329D+03 0.553553768605820D+03 -.161281298266354D+02
 0.668115505231425D+03 -.581219843106996D+03 -.318608256113499D+03 0.839678595989950D+02
0.178913006158D-03 0.000000000000D+00 0.000000000000D+00 0.114865063675D-06 0.000000000000D+00  7 -1 1 24 -11 11 -24 21 0 0.12930608D+00 0.41934062D-01 0.21941519D+06 0.21941519D+06 0.21941519D+06 0.10947484D+01  1  2  2  1  7  1       -1 0.119520487708D-02 0.100000000000D+01
-.993398240111D-05 0.000000000000D+00 -.687073052524D-06 0.114865063675D-06 0.000000000000D+00  7 -1 1 24 -11 11 -24 21 2 0.12930608D+00 0.41934062D-01 0.21941519D+06 0.21941519D+06 0.21941519D+06 0.10947484D+01  1  2  3  1  7  1       -1 -.795339356523D-04 0.100000000000D+01
0.112760183023D-04 0.000000000000D+00 0.000000000000D+00 0.114865063675D-06 0.000000000000D+00  7 -1 1 24 -11 11 -24 21 2 0.12930608D+00 0.41934062D-01 0.21941519D+06 0.21941519D+06 0.21941519D+06 0.10947484D+01  1  2 15  1  7  1       -1 0.902786091071D-04 0.100000000000D+01
0.905955252764D-05 0.000000000000D+00 -.507970494705D-04 0.114865063675D-06 0.000000000000D+00  7 -1 1 24 -11 11 -24 21 2 0.36442244D+00 0.41934062D-01 0.21941519D+06 0.21941519D+06 0.21941519D+06 0.10947484D+01  1  2  5  1  7  1       -1 0.692070698056D-06 0.100000000000D+01
0.386525282846D-05 0.000000000000D+00 -.591790917502D-05 0.114865063675D-06 0.000000000000D+00  7 21 1 24 -11 11 -24 1 2 0.36442244D+00 0.41934062D-01 0.21941519D+06 0.21941519D+06 0.21941519D+06 0.10947484D+01  1  2  5  3  7  1       -1 0.404603276721D-05 0.100000000000D+01
  </mgrwgt>
  </event>
  <event>
  8     66 0.29788925E-05 0.30339265E+03 0.75467711E-02 0.94452158E-01
       -1 -1    0    0    0  501 0.00000000E+00 0.00000000E+00 0.30277202E+03 0.30277219E+03 0.32000000E+00 0.0000E+00 0.9000E+01
        1 -1    0    0  501    0 0.00000000E+00 0.00000000E+00 -.88709255E+03 0.88709261E+03 0.32000000E+00 0.0000E+00 0.9000E+01
       25  2    1    2    0    0 0.10679717E+03 -.20532261E+03 0.15543404E+03 0.40946022E+03 0.29989152E+03 0.0000E+00 0.0000E+00
       23  2    1    2    0    0 -.10679717E+03 0.20532261E+03 -.73975457E+03 0.78040458E+03 0.90727488E+02 0.0000E+00 0.0000E+00
       24  1    3    3    0    0 0.50560407E+01 0.39315904E+02 -.43749086E+01 0.89764467E+02 0.80419002E+02 0.0000E+00 0.9000E+01
      -13  1    4    4    0    0 -.67497256E+02 0.18298241E+03 -.66532413E+03 0.69332146E+03 0.10565837E+00 0.0000E+00 0.9000E+01
       13  1    4    4    0    0 -.39299917E+02 0.22340205E+02 -.74430440E+02 0.87083120E+02 0.10565837E+00 0.0000E+00 0.9000E+01
      -24  1    3    3    0    0 0.10174113E+03 -.24463852E+03 0.15980895E+03 0.31969576E+03 0.80419002E+02 0.0000E+00 0.9000E+01
#aMCatNLO 1  0  0  1  1 0.38547382D+03 0.00000000D+00  -5  7  0 0.00000000D+00 0.00000000D+00 0.00000000D+00 0.00000000D+00 0.00000000D+00
  <mgrwgt>
 0.7356504327D-03    5    2    0
 0.518253744322040D+03 0.000000000000000D+00 0.000000000000000D+00 0.518253744322040D+03
 0.518253744322040D+03 0.000000000000000D+00 0.000000000000000D+00 -.518253744322040D+03
 0.100579332764705D+03 0.505604073952311D+01 0.393159035702684D+02 0.455816015900755D+02
 0.420833204492281D+03 -.674972946908278D+02 0.182982625998098D+03 -.372910257026408D+03
 0.580076809977413D+02 -.392998791093830D+02 0.223399868337398D+02 -.363501794354845D+02
 0.457087270389353D+03 0.101741133060688D+03 -.244638516402107D+03 0.363678834871817D+03
 0.000000000000000D+00 -.000000000000000D+00 0.000000000000000D+00 0.000000000000000D+00
 0.850349539984374D+03 0.000000000000000D+00 0.000000000000000D+00 0.850349539984374D+03
 0.677833076715243D+03 0.000000000000000D+00 0.000000000000000D+00 -.677833076715243D+03
 0.935226154318042D+02 0.131541116993766D+02 0.534327471861149D+01 0.455816015900755D+02
 0.376976686270576D+03 -.342121001428074D+02 0.433462155194787D+02 -.372910257026408D+03
 0.504185643718230D+02 -.347762592432687D+02 0.336271934135135D+01 -.363501794354845D+02
 0.584947335166868D+03 0.145215555944244D+03 -.427020276266281D+03 0.363678834871817D+03
 0.422317415458546D+03 -.893813082575446D+02 0.374968066686840D+03 0.172516463269131D+03
0.652275538927D-04 0.000000000000D+00 0.000000000000D+00 0.841036299189D-05 0.000000000000D+00  7 -1 1 24 -13 13 -24 21 0 0.46580329D-01 0.13647580D+00 0.92047099D+05 0.92047099D+05 0.92047099D+05 0.11246874D+01  1  2  2  1  7  1       -1 0.691900719376D-03 0.100000000000D+01
-.236059673992D-05 0.000000000000D+00 -.250490981757D-06 0.841036299189D-05 0.000000000000D+00  7 -1 1 24 -13 13 -24 21 2 0.46580329D-01 0.13647580D+00 0.92047099D+05 0.92047099D+05 0.92047099D+05 0.11246874D+01  1  2  3  1  7  1       -1 -.316736555992D-04 0.100000000000D+01
0.398058911179D-05 0.000000000000D+00 0.000000000000D+00 0.841036299189D-05 0.000000000000D+00  7 -1 1 24 -13 13 -24 21 2 0.46580329D-01 0.13647580D+00 0.92047099D+05 0.92047099D+05 0.92047099D+05 0.11246874D+01  1  2 15  1  7  1       -1 0.534101426462D-04 0.100000000000D+01
-.161211059768D-05 0.000000000000D+00 -.204008848265D-04 0.841036299189D-05 0.000000000000D+00  7 -1 1 24 -13 13 -24 21 2 0.95896108D-01 0.13647580D+00 0.92047099D+05 0.92047099D+05 0.92047099D+05 0.11246874D+01  1  2  5  1  7  1       -1 -.536817737497D-05 0.100000000000D+01
0.112359420402D-05 0.000000000000D+00 -.159290818331D-05 0.841036299189D-05 0.000000000000D+00  7 21 1 24 -13 13 -24 1 2 0.95896108D-01 0.13647580D+00 0.92047099D+05 0.92047099D+05 0.92047099D+05 0.11246874D+01  1  2  5  3  7  1       -1 0.273814036033D-04 0.100000000000D+01
  </mgrwgt>
  </event>
  <event>
  8     66 0.29788925E-05 0.33830885E+03 0.75467711E-02 0.96289423E-01
       -3 -1    0    0    0  501 0.00000000E+00 0.00000000E+00 0.41491943E+03 0.41491973E+03 0.50000000E+00 0.0000E+00 0.9000E+01
        3 -1    0    0  501    0 0.00000000E+00 0.00000000E+00 -.30462819E+03 0.30462860E+03 0.50000000E+00 0.0000E+00 0.9000E+01
       25  2    1    2    0    0 0.23245216E+03 0.15643759E+03 0.18115843E+02 0.41070128E+03 0.29973427E+03 0.0000E+00 0.0000E+00
       23  2    1    2    0    0 -.23245216E+03 -.15643759E+03 0.92175395E+02 0.30884705E+03 0.91561284E+02 0.0000E+00 0.0000E+00
       24  1    3    3    0    0 0.23020055E+03 0.18205416E+03 -.41808897E+02 0.30716642E+03 0.80419002E+02 0.0000E+00 0.9000E+01
      -13  1    4    4    0    0 -.10425924E+03 -.10993827E+03 0.81554051E+02 0.17206826E+03 0.10565837E+00 0.0000E+00 0.9000E+01
       13  1    4    4    0    0 -.12819292E+03 -.46499318E+02 0.10621345E+02 0.13677879E+03 0.10565837E+00 0.0000E+00 0.9000E+01
      -24  1    3    3    0    0 0.22516137E+01 -.25616565E+02 0.59924741E+02 0.10353487E+03 0.80419002E+02 0.0000E+00 0.9000E+01
#aMCatNLO 1  0  0  1  1 0.16882931D+03 0.00000000D+00  -5  7  0 0.00000000D+00 0.00000000D+00 0.00000000D+00 0.00000000D+00 0.00000000D+00
  <mgrwgt>
 0.4835047186D-04    4    2    0
 0.355522728799867D+03 0.000000000000000D+00 0.000000000000000D+00 0.355522728799867D+03
 0.355522728799867D+03 0.000000000000000D+00 0.000000000000000D+00 -.355522728799867D+03
 0.317324630453216D+03 0.230200547072650D+03 0.182054155450993D+03 -.899538645549931D+02
 0.161475972095936D+03 -.104259205583765D+03 -.109938356810703D+03 0.558396392998033D+02
 0.136766899243916D+03 -.128192955272282D+03 -.464992334157571D+02 -.104676759168866D+02
 0.954779558066659D+02 0.225161378339746D+01 -.256165652245326D+02 0.445819011720764D+02
 0.000000000000000D+00 0.000000000000000D+00 0.000000000000000D+00 -.000000000000000D+00
 0.435752602514652D+03 0.000000000000000D+00 0.000000000000000D+00 0.435752602514652D+03
 0.466704405004564D+03 0.000000000000000D+00 0.000000000000000D+00 -.466704405004564D+03
 0.270173913143177D+03 0.212280004425551D+03 0.115638355926726D+03 -.899538645549931D+02
 0.197616455452555D+03 -.115212647481238D+03 -.150533199025542D+03 0.558396392998033D+02
 0.159158050995122D+03 -.137219591591474D+03 -.799530902525611D+02 -.104676759168866D+02
 0.103865496266679D+03 -.382898483805966D+01 -.481520334289850D+02 0.445819011720764D+02
 0.171643091661682D+03 0.439812194852203D+02 0.162999966780362D+03 -.309518024899121D+02
0.160654140800D-04 0.000000000000D+00 0.000000000000D+00 0.168549599210D-05 0.000000000000D+00  7 -3 3 24 -13 13 -24 21 0 0.63833813D-01 0.46865930D-01 0.11445288D+06 0.11445288D+06 0.11445288D+06 0.11169426D+01  1  2  2  1  7  1       -3 0.730039399090D-04 0.100000000000D+01
-.889850067636D-06 0.000000000000D+00 -.616954201880D-07 0.168549599210D-05 0.000000000000D+00  7 -3 3 24 -13 13 -24 21 2 0.63833813D-01 0.46865930D-01 0.11445288D+06 0.11445288D+06 0.11445288D+06 0.11169426D+01  1  2  3  1  7  1       -3 -.504467152436D-05 0.100000000000D+01
0.102362940982D-05 0.000000000000D+00 0.000000000000D+00 0.168549599210D-05 0.000000000000D+00  7 -3 3 24 -13 13 -24 21 2 0.63833813D-01 0.46865930D-01 0.11445288D+06 0.11445288D+06 0.11445288D+06 0.11169426D+01  1  2 15  1  7  1       -3 0.580308337665D-05 0.100000000000D+01
-.448250454796D-05 0.000000000000D+00 0.000000000000D+00 0.168549599210D-05 0.000000000000D+00  7 -3 3 24 -13 13 -24 21 2 0.63833813D-01 0.46865930D-01 0.11445288D+06 0.11445288D+06 0.11445288D+06 0.11169426D+01  1  2  4  1  7  1       -3 -.254118799035D-04 0.100000000000D+01
  </mgrwgt>
  </event>
  <event>
  8     66 0.29788925E-05 0.21839973E+03 0.75467711E-02 0.99238906E-01
       -1 -1    0    0    0  501 0.00000000E+00 0.00000000E+00 0.85613528E+02 0.85614126E+02 0.32000000E+00 0.0000E+00 0.9000E+01
        1 -1    0    0  501    0 0.00000000E+00 0.00000000E+00 -.11989826E+04 0.11989827E+04 0.32000000E+00 0.0000E+00 0.9000E+01
       25  2    1    2    0    0 0.53273219E+02 0.14311559E+03 -.29626344E+03 0.44852822E+03 0.30014236E+03 0.0000E+00 0.0000E+00
       23  2    1    2    0    0 -.53273219E+02 -.14311559E+03 -.81710567E+03 0.83606858E+03 0.89604071E+02 0.0000E+00 0.0000E+00
       24  1    3    3    0    0 0.69244451E+02 0.14307472E+02 -.27405533E+03 0.29423296E+03 0.80419002E+02 0.0000E+00 0.9000E+01
      -13  1    4    4    0    0 -.77119135E+01 0.12605922E+02 -.64176318E+02 0.65855856E+02 0.10565837E+00 0.0000E+00 0.9000E+01
       13  1    4    4    0    0 -.45561305E+02 -.15572151E+03 -.75292935E+03 0.77021272E+03 0.10565837E+00 0.0000E+00 0.9000E+01
      -24  1    3    3    0    0 -.15971232E+02 0.12880811E+03 -.22208108E+02 0.15429526E+03 0.80419002E+02 0.0000E+00 0.9000E+01
#aMCatNLO 1  0  0  1  1 0.19270849D+03 0.00000000D+00  -5  7  0 0.00000000D+00 0.00000000D+00 0.00000000D+00 0.00000000D+00 0.00000000D+00
  <mgrwgt>
 0.1202123350D-02    4    2    0
 0.320389675897633D+03 0.000000000000000D+00 0.000000000000000D+00 0.320389675897633D+03
 0.320389675897633D+03 0.000000000000000D+00 0.000000000000000D+00 -.320389675897633D+03
 0.113683419413512D+03 0.692444511974861D+02 0.143074724430660D+02 -.381733690657209D+02
 0.205157999691302D+02 -.771186083293449D+01 0.126061563541258D+02 -.142306033899532D+02
 0.235845170576858D+03 -.455613581497797D+02 -.155721743227747D+03 -.171166135126333D+03
 0.270734961835767D+03 -.159712322147719D+02 0.128808114430555D+03 0.223570107582008D+03
 0.000000000000000D+00 0.000000000000000D+00 -.000000000000000D+00 -.000000000000000D+00
 0.392064282895129D+03 0.000000000000000D+00 0.000000000000000D+00 0.392064282895129D+03
 0.496030024613804D+03 0.000000000000000D+00 0.000000000000000D+00 -.496030024613804D+03
 0.103561220755212D+03 0.424049619952510D+02 0.316594943467651D+02 -.381733690657209D+02
 0.254295100861828D+02 -.133881741917598D+02 0.162759547244463D+02 -.142306033899532D+02
 0.232360358529923D+03 -.103405810529035D+03 -.118324675156543D+03 -.171166135126333D+03
 0.307778749215033D+03 -.874437089996250D+02 0.175015848614226D+03 0.223570107582008D+03
 0.218964468922582D+03 0.161832731725169D+03 -.104626622528895D+03 -.103965741718675D+03
0.287864182956D-04 0.000000000000D+00 0.000000000000D+00 0.141980868313D-05 0.000000000000D+00  7 -1 1 24 -13 13 -24 21 0 0.13171361D-01 0.18445892D+00 0.47698444D+05 0.47698444D+05 0.47698444D+05 0.11490999D+01  1  2  2  1  7  1       -1 0.144130538332D-02 0.100000000000D+01
-.131370182738D-05 0.000000000000D+00 -.110547425893D-06 0.141980868313D-05 0.000000000000D+00  7 -1 1 24 -13 13 -24 21 2 0.13171361D-01 0.18445892D+00 0.47698444D+05 0.47698444D+05 0.47698444D+05 0.11490999D+01  1  2  3  1  7  1       -1 -.868521878470D-04 0.100000000000D+01
0.178249793387D-05 0.000000000000D+00 0.000000000000D+00 0.141980868313D-05 0.000000000000D+00  7 -1 1 24 -13 13 -24 21 2 0.13171361D-01 0.18445892D+00 0.47698444D+05 0.47698444D+05 0.47698444D+05 0.11490999D+01  1  2 15  1  7  1       -1 0.117845497481D-03 0.100000000000D+01
-.408659643928D-05 0.000000000000D+00 0.000000000000D+00 0.141980868313D-05 0.000000000000D+00  7 -1 1 24 -13 13 -24 21 2 0.13171361D-01 0.18445892D+00 0.47698444D+05 0.47698444D+05 0.47698444D+05 0.11490999D+01  1  2  4  1  7  1       -1 -.270175342839D-03 0.100000000000D+01
  </mgrwgt>
  </event>
  <event>
  9     66 0.29788925E-05 0.90159411E+03 0.75467711E-02 0.87149015E-01
       -1 -1    0    0    0  501 0.00000000E+00 0.00000000E+00 0.11239145E+04 0.11239145E+04 0.32000000E+00 0.0000E+00 0.9000E+01
        1 -1    0    0  502    0 0.00000000E+00 0.00000000E+00 -.96672496E+03 0.96672501E+03 0.32000000E+00 0.0000E+00 0.9000E+01
       25  2    1    2    0    0 0.35299817E+03 0.72792984E+03 -.75238241E+02 0.86609234E+03 0.29994264E+03 0.0000E+00 0.0000E+00
       23  2    1    2    0    0 -.58041007E+03 -.77108819E+03 0.16365844E+03 0.98307547E+03 0.90556320E+02 0.0000E+00 0.0000E+00
       24  1    3    3    0    0 0.55667797E+02 0.33842068E+03 0.45086264E+02 0.35514426E+03 0.80419002E+02 0.0000E+00 0.9000E+01
      -13  1    4    4    0    0 -.75566788E+02 -.14498740E+03 0.67937607E+01 0.16363940E+03 0.10565837E+00 0.0000E+00 0.9000E+01
       13  1    4    4    0    0 -.50484328E+03 -.62610079E+03 0.15686468E+03 0.81943607E+03 0.10565837E+00 0.0000E+00 0.9000E+01
      -24  1    3    3    0    0 0.29733037E+03 0.38950916E+03 -.12032450E+03 0.51094808E+03 0.80419002E+02 0.0000E+00 0.9000E+01
       21  1    1    2  502  501 0.22741190E+03 0.43158347E+02 0.68769320E+02 0.24147173E+03 0.75000000E+00 0.0000E+00 0.9000E+01
#aMCatNLO 2  0  0  2  1 0.23147098D+03 0.00000000D+00  -5  7  0 0.00000000D+00 0.00000000D+00 0.00000000D+00 0.00000000D+00 0.00000000D+00
  <mgrwgt>
 0.1878950353D-03    1    2    0
 0.916245687139398D+03 0.000000000000000D+00 0.000000000000000D+00 0.916245687139398D+03
 0.916245687139398D+03 0.000000000000000D+00 0.000000000000000D+00 -.916245687139398D+03
 0.371079509025531D+03 0.100443341170544D+03 0.346918206636190D+03 0.281367941152800D+02
 0.152007441921502D+03 -.560664226710552D+02 -.141286068724230D+03 -.103219806310809D+01
 0.741928414975202D+03 -.408750769263706D+03 -.607864845316766D+03 0.117817279725720D+03
 0.567476008356562D+03 0.364373850764218D+03 0.402232707404805D+03 -.144921875777892D+03
 0.000000000000000D+00 0.000000000000000D+00 0.000000000000000D+00 0.000000000000000D+00
 0.107139810122656D+04 0.000000000000000D+00 0.000000000000000D+00 0.107139810122656D+04
 0.101410954804698D+04 0.000000000000000D+00 0.000000000000000D+00 -.101410954804698D+04
 0.353392637201600D+03 0.556677971422022D+02 0.338420680887236D+03 0.281367941152800D+02
 0.163500683046088D+03 -.755662033242602D+02 -.144986747114529D+03 -.103219806310809D+01
 0.812866072406586D+03 -.504843861851643D+03 -.626101441795545D+03 0.117817279725720D+03
 0.517293246146368D+03 0.297330371220479D+03 0.389509161413676D+03 -.144921875777892D+03
 0.238455010472906D+03 0.227411896813222D+03 0.431583466091618D+02 0.572885531795804D+02
0.409380740654D-03 0.000000000000D+00 0.000000000000D+00 0.148219567513D-04 0.165526930197D-08  7 -1 1 24 -13 13 -24 21 2 0.17290983D+00 0.14872684D+00 0.10486783D+07 0.10486783D+07 0.10486783D+07 0.10464926D+01  1  2  1  2  7  2        1 0.187895035326D-03 0.100000000000D+01
  </mgrwgt>
  </event>
  <event>
  9     66 -.29788925E-05 0.21993619E+03 0.75467711E-02 0.10475127E+00
       -1 -1    0    0    0  501 0.00000000E+00 0.00000000E+00 0.32037330E+03 0.32037346E+03 0.32000000E+00 0.0000E+00 0.9000E+01
        1 -1    0    0  502    0 0.00000000E+00 0.00000000E+00 -.18298922E+03 0.18298950E+03 0.32000000E+00 0.0000E+00 0.9000E+01
       25  2    1    2    0    0 0.10608395E+03 -.18862998E+01 0.15224584E+03 0.35280423E+03 0.30005777E+03 0.0000E+00 0.0000E+00
       23  2    1    2    0    0 -.10952875E+03 0.78600482E+01 -.14159563E+02 0.14358679E+03 0.91423979E+02 0.0000E+00 0.0000E+00
       24  1    3    3    0    0 0.16953911E+03 -.32393232E+02 0.34039392E+02 0.19343921E+03 0.80419002E+02 0.0000E+00 0.9000E+01
      -13  1    4    4    0    0 0.83732666E+01 0.22549365E+02 -.32679029E+01 0.24275003E+02 0.10565837E+00 0.0000E+00 0.9000E+01
       13  1    4    4    0    0 -.11790202E+03 -.14689316E+02 -.10891660E+02 0.11931178E+03 0.10565837E+00 0.0000E+00 0.9000E+01
      -24  1    3    3    0    0 -.63455160E+02 0.30506933E+02 0.11820645E+03 0.15936502E+03 0.80419002E+02 0.0000E+00 0.9000E+01
       21  1    1    2  502  501 0.34448008E+01 -.59737484E+01 -.70219780E+00 0.69719369E+01 0.75000000E+00 0.0000E+00 0.9000E+01
#aMCatNLO 2  0  0  2  1 0.68958192D+01 0.00000000D+00  -5  7  0 0.00000000D+00 0.00000000D+00 0.00000000D+00 0.00000000D+00 0.00000000D+00
  <mgrwgt>
 -.1320596041D-03    3    2    0
 0.238374008175858D+03 0.000000000000000D+00 0.000000000000000D+00 0.238374008175858D+03
 0.238374008175858D+03 0.000000000000000D+00 0.000000000000000D+00 -.238374008175858D+03
 0.193180989590127D+03 0.170928933219678D+03 -.348033598063108D+02 -.205840889821592D+02
 0.259995184617152D+02 0.856207216886713D+01 0.222222731855104D+02 -.104324711782360D+02
 0.126714638726630D+03 -.116984280581352D+03 -.162811378561883D+02 -.458933798558328D+02
 0.130852869573245D+03 -.625067248071933D+02 0.288622244769887D+02 0.769099400162280D+02
 0.000000000000000D+00 0.000000000000000D+00 -.000000000000000D+00 -.000000000000000D+00
 0.240735912685367D+03 0.000000000000000D+00 0.000000000000000D+00 0.240735912685367D+03
 0.243485905892135D+03 0.000000000000000D+00 0.000000000000000D+00 -.243485905892135D+03
 0.191530035857785D+03 0.169539117729908D+03 -.323932326490125D+02 -.205840889821592D+02
 0.262188213226151D+02 0.837342704907144D+01 0.225494092187882D+02 -.104324711782360D+02
 0.127369171605470D+03 -.117902189328283D+03 -.146893605194243D+02 -.458933798558328D+02
 0.131679856505267D+03 -.634551562924898D+02 0.305069323510734D+02 0.769099400162280D+02
 0.742393328636601D+01 0.344480084179330D+01 -.597374840142480D+01 -.274999320676760D+01
-.392414534167D-05 0.000000000000D+00 0.000000000000D+00 0.902755488912D-06 0.000000000000D+00  7 -1 1 24 -13 13 -24 21 2 0.48800841D-01 0.28284394D-01 0.49967756D+05 0.49967756D+05 0.49967756D+05 0.11473200D+01  1  2 13  2  7  2        1 -.442844815811D-03 0.100000000000D+01
-.189946453383D-04 0.000000000000D+00 0.000000000000D+00 0.902755488912D-06 0.000000000000D+00  7 -1 1 24 -13 13 -24 21 2 0.48800841D-01 0.27559021D-01 0.48371927D+05 0.48371927D+05 0.48371927D+05 0.11485621D+01  1  2  8  2  7  2        1 -.222107653826D-02 0.100000000000D+01
0.226920659250D-04 0.000000000000D+00 0.000000000000D+00 0.902755488912D-06 0.133307909047D-06  7 -1 1 24 -13 13 -24 21 2 0.49284379D-01 0.28150020D-01 0.49967756D+05 0.49967756D+05 0.49967756D+05 0.11473200D+01  1  2  1  2  7  2        1 0.253186174997D-02 0.100000000000D+01
  </mgrwgt>
  </event>
  <event>
  9     66 0.29788925E-05 0.27016175E+03 0.75467711E-02 0.95602584E-01
       -1 -1    0    0    0  502 0.00000000E+00 0.00000000E+00 0.25084129E+03 0.25084150E+03 0.32000000E+00 0.0000E+00 0.9000E+01
        1 -1    0    0  501    0 0.00000000E+00 0.00000000E+00 -.17302375E+04 0.17302375E+04 0.32000000E+00 0.0000E+00 0.9000E+01
       25  2    1    2    0    0 -.17855862E+03 0.31809688E+02 -.12060364E+04 0.12558883E+04 0.29972746E+03 0.0000E+00 0.0000E+00
       23  2    1    2    0    0 0.62061695E+02 -.30836579E+03 -.26628231E+03 0.42501498E+03 0.10387660E+03 0.0000E+00 0.0000E+00
       24  1    3    3    0    0 0.29112834E+01 0.44791310E+02 -.11732553E+03 0.14915506E+03 0.80419002E+02 0.0000E+00 0.9000E+01
      -13  1    4    4    0    0 0.47931398E+02 -.30932564E+03 -.26611759E+03 0.41085077E+03 0.10565837E+00 0.0000E+00 0.9000E+01
       13  1    4    4    0    0 0.14130297E+02 0.95984600E+00 -.16472037E+00 0.14164212E+02 0.10565837E+00 0.0000E+00 0.9000E+01
      -24  1    3    3    0    0 -.18146991E+03 -.12981623E+02 -.10887109E+04 0.11067332E+04 0.80419002E+02 0.0000E+00 0.9000E+01
       21  1    1    2  501  502 0.11649693E+03 0.27655610E+03 -.70774534E+01 0.30017572E+03 0.75000000E+00 0.0000E+00 0.9000E+01
#aMCatNLO 2  0  0  1  1 0.30009134D+03 0.00000000D+00  -5  7  0 0.00000000D+00 0.00000000D+00 0.00000000D+00 0.00000000D+00 0.00000000D+00
  <mgrwgt>
 0.1202970488D-03    1    2    0
 0.376715604479279D+03 0.000000000000000D+00 0.000000000000000D+00 0.376715604479279D+03
 0.376715604479279D+03 0.000000000000000D+00 0.000000000000000D+00 -.376715604479279D+03
 0.120384086421978D+03 0.190355218760015D+02 0.830692115361645D+02 0.276091888861659D+02
 0.290442781269900D+03 0.969948268707191D+02 -.192852677391920D+03 0.194311238930954D+03
 0.338153241337264D+02 0.188121907470002D+02 0.120747356273714D+02 0.253727882798984D+02
 0.308789017132954D+03 -.134842539493721D+03 0.977087302283841D+02 -.247293216097018D+03
 0.000000000000000D+00 0.000000000000000D+00 0.000000000000000D+00 0.000000000000000D+00
 0.975293275224734D+03 0.000000000000000D+00 0.000000000000000D+00 0.975293275224734D+03
 0.445009548901588D+03 0.000000000000000D+00 0.000000000000000D+00 -.445009548901588D+03
 0.961468702685248D+02 0.291128041178223D+01 0.447913143753786D+02 0.276091888861659D+02
 0.368424770341184D+03 0.479314520189604D+02 -.309325928000589D+03 0.194311238930954D+03
 0.290579483602698D+02 0.141302559196033D+02 0.960127834236319D+00 0.253727882798984D+02
 0.317365724606159D+03 -.181469915108185D+03 -.129816171351413D+02 -.247293216097018D+03
 0.609307510550184D+03 0.116496926757839D+03 0.276556102926115D+03 0.530283726323146D+03
0.272866683741D-04 0.000000000000D+00 0.000000000000D+00 0.478021098399D-07 0.462574801879D-11  7 -1 1 24 -13 13 -24 21 2 0.38590968D-01 0.26619027D+00 0.21081134D+06 0.21081134D+06 0.21081134D+06 0.10960737D+01  1  2  1  1  7  1       -1 0.120297048846D-03 0.100000000000D+01
  </mgrwgt>
  </event>
  <event>
  8     66 0.29788925E-05 0.15441842E+03 0.75467711E-02 0.96513815E-01
       -1 -1    0    0    0  501 0.00000000E+00 0.00000000E+00 0.15370316E+04 0.15370316E+04 0.32000000E+00 0.0000E+00 0.9000E+01
        1 -1    0    0  501    0 0.00000000E+00 0.00000000E+00 -.56872298E+02 0.56873198E+02 0.32000000E+00 0.0000E+00 0.9000E+01
       25  2    1    2    0    0 0.85327241E+02 -.16941516E+02 0.14204491E+04 0.14542721E+04 0.29943915E+03 0.0000E+00 0.0000E+00
       23  2    1    2    0    0 -.85327241E+02 0.16941516E+02 0.59710116E+02 0.13963270E+03 0.91456212E+02 0.0000E+00 0.0000E+00
       24  1    3    3    0    0 0.59749383E+02 -.20976792E+02 0.13158037E+04 0.13197790E+04 0.80419002E+02 0.0000E+00 0.9000E+01
      -11  1    4    4    0    0 0.60012645E+01 -.21930307E+02 0.26613578E+02 0.35003372E+02 0.51099893E-03 0.0000E+00 0.9000E+01
       11  1    4    4    0    0 -.91328505E+02 0.38871822E+02 0.33096538E+02 0.10462932E+03 0.51099893E-03 0.0000E+00 0.9000E+01
      -24  1    3    3    0    0 0.25577857E+02 0.40352768E+01 0.10464549E+03 0.13449314E+03 0.80419002E+02 0.0000E+00 0.9000E+01
#aMCatNLO 1  0  0  1  1 0.36915304D+03 0.00000000D+00  -5  7  0 0.00000000D+00 0.00000000D+00 0.00000000D+00 0.00000000D+00 0.00000000D+00
  <mgrwgt>
 0.1710055098D-02    3    2    0
 0.295660719019464D+03 0.000000000000000D+00 0.000000000000000D+00 0.295660719019464D+03
 0.295660719019464D+03 0.000000000000000D+00 0.000000000000000D+00 -.295660719019464D+03
 0.263821033310615D+03 0.597493833609565D+02 -.209767924070114D+02 0.243154903366164D+03
 0.277339996891510D+02 0.600126447489494D+01 -.219303067550514D+02 -.158814737694440D+02
 0.199182752215531D+03 -.913285051496961D+02 0.388718223827023D+02 -.172690052845910D+03
 0.100583652823631D+03 0.255778573138446D+02 0.403527677936053D+01 -.545833767508097D+02
 0.000000000000000D+00 0.000000000000000D+00 0.000000000000000D+00 -.000000000000000D+00
 0.390396944602921D+03 0.000000000000000D+00 0.000000000000000D+00 0.390396944602921D+03
 0.116257309521084D+04 0.000000000000000D+00 0.000000000000000D+00 -.116257309521084D+04
 0.285969006614299D+03 -.747763327583477D+02 -.102933229900760D+03 0.243154903366164D+03
 0.366182297666170D+02 -.974480060950214D+01 -.315232042031305D+02 -.158814737694440D+02
 0.270875409634221D+03 -.206344977345514D+03 -.311990948083893D+02 -.172690052845910D+03
 0.103627743550771D+03 -.243897345703980D+02 -.264062323915869D+02 -.545833767508097D+02
 0.855879650247850D+03 0.315255845283762D+03 0.192061761303867D+03 -.772176150607916D+03
0.213869786140D-03 0.000000000000D+00 0.000000000000D+00 0.158827259869D-05 0.000000000000D+00  7 -1 1 24 -11 11 -24 21 0 0.23646646D+00 0.87496562D-02 0.23845047D+05 0.23845047D+05 0.23845047D+05 0.11767030D+01  1  2  2  1  7  1       -1 0.163231761979D-02 0.100000000000D+01
-.578657833815D-05 0.000000000000D+00 -.821316291985D-06 0.158827259869D-05 0.000000000000D+00  7 -1 1 24 -11 11 -24 21 2 0.23646646D+00 0.87496562D-02 0.23845047D+05 0.23845047D+05 0.23845047D+05 0.11767030D+01  1  2  3  1  7  1       -1 -.611520198110D-04 0.100000000000D+01
0.131425742077D-04 0.000000000000D+00 0.000000000000D+00 0.158827259869D-05 0.000000000000D+00  7 -1 1 24 -11 11 -24 21 2 0.23646646D+00 0.87496562D-02 0.23845047D+05 0.23845047D+05 0.23845047D+05 0.11767030D+01  1  2 15  1  7  1       -1 0.138889497619D-03 0.100000000000D+01
  </mgrwgt>
  </event>
  <event>
  8     66 0.29788925E-05 0.25353550E+03 0.75467711E-02 0.88254017E-01
       -1 -1    0    0    0  501 0.00000000E+00 0.00000000E+00 0.35055728E+03 0.35055743E+03 0.32000000E+00 0.0000E+00 0.9000E+01
        1 -1    0    0  501    0 0.00000000E+00 0.00000000E+00 -.29122204E+03 0.29122221E+03 0.32000000E+00 0.0000E+00 0.9000E+01
       25  2    1    2    0    0 0.15893630E+02 0.19321001E+03 -.10604221E+03 0.37241961E+03 0.29978109E+03 0.0000E+00 0.0000E+00
       23  2    1    2    0    0 -.15893630E+02 -.19321001E+03 0.16537745E+03 0.26936003E+03 0.87306409E+02 0.0000E+00 0.0000E+00
       24  1    3    3    0    0 0.82843688E+01 -.21625141E+02 0.47547562E+02 0.96251047E+02 0.80419002E+02 0.0000E+00 0.9000E+01
      -11  1    4    4    0    0 -.73912808E+01 -.95043671E+02 0.13684777E+03 0.16677903E+03 0.51099893E-03 0.0000E+00 0.9000E+01
       11  1    4    4    0    0 -.85023497E+01 -.98166337E+02 0.28529678E+02 0.10258100E+03 0.51099893E-03 0.0000E+00 0.9000E+01
      -24  1    3    3    0    0 0.76092617E+01 0.21483515E+03 -.15358977E+03 0.27616856E+03 0.80419002E+02 0.0000E+00 0.9000E+01
#aMCatNLO 1  0  0  1  2 0.84366408D+03 0.00000000D+00  -5  7  0 0.00000000D+00 0.00000000D+00 0.00000000D+00 0.00000000D+00 0.00000000D+00
  <mgrwgt>
 0.9561144372D-03    3    2    0
 0.319515426947887D+03 0.000000000000000D+00 0.000000000000000D+00 0.319515426947887D+03
 0.319515426947887D+03 0.000000000000000D+00 0.000000000000000D+00 -.319515426947887D+03
 0.922501874668130D+02 0.828436882232266D+01 -.216251411469155D+02 0.388149924241049D+02
 0.154789844236746D+03 -.739128077929598D+01 -.950436713516313D+02 0.121950667826301D+03
 0.100373218331626D+03 -.850234969408763D+01 -.981663367237625D+02 0.191275545265107D+02
 0.291617603860588D+03 0.760926165106095D+01 0.214835149222309D+03 -.179893214776917D+03
 0.000000000000000D+00 0.000000000000000D+00 0.000000000000000D+00 -.000000000000000D+00
 0.730228743697886D+03 0.000000000000000D+00 0.000000000000000D+00 0.730228743697886D+03
 0.141425491422792D+04 0.000000000000000D+00 0.000000000000000D+00 -.141425491422792D+04
 0.148464922808298D+03 -.108368297857315D+03 -.482112614720689D+02 0.388149924241049D+02
 0.293759564297451D+03 -.224762282472075D+03 -.144584344280046D+03 0.121950667826301D+03
 0.205981125256972D+03 -.156964368084443D+03 -.132002074876931D+03 0.191275545265107D+02
 0.410156099230390D+03 -.332476467814139D+03 0.137326761443570D+03 -.179893214776917D+03
 0.108612194633270D+04 0.822571416227972D+03 0.187470919185476D+03 -.684026170530037D+03
0.238399943310D-04 0.000000000000D+00 0.000000000000D+00 0.242870601130D-06 0.000000000000D+00  7 -1 1 24 -11 11 -24 21 0 0.53931914D-01 0.44803415D-01 0.64280247D+05 0.64280247D+05 0.64280247D+05 0.11378202D+01  1  2  2  1  7  1       -1 0.942097355034D-03 0.100000000000D+01
-.123829063774D-05 0.000000000000D+00 -.915518554457D-07 0.242870601130D-06 0.000000000000D+00  7 -1 1 24 -11 11 -24 21 2 0.53931914D-01 0.44803415D-01 0.64280247D+05 0.64280247D+05 0.64280247D+05 0.11378202D+01  1  2  3  1  7  1       -1 -.633518834939D-04 0.100000000000D+01
0.151227178261D-05 0.000000000000D+00 0.000000000000D+00 0.242870601130D-06 0.000000000000D+00  7 -1 1 24 -11 11 -24 21 2 0.53931914D-01 0.44803415D-01 0.64280247D+05 0.64280247D+05 0.64280247D+05 0.11378202D+01  1  2 15  1  7  1       -1 0.773689656232D-04 0.100000000000D+01
  </mgrwgt>
  </event>
  <event>
  8     66 0.29788925E-05 0.23953896E+03 0.75467711E-02 0.90808288E-01
       -1 -1    0    0    0  501 0.00000000E+00 0.00000000E+00 0.69922721E+02 0.69923453E+02 0.32000000E+00 0.0000E+00 0.9000E+01
        1 -1    0    0  501    0 0.00000000E+00 0.00000000E+00 -.14179118E+04 0.14179118E+04 0.32000000E+00 0.0000E+00 0.9000E+01
       25  2    1    2    0    0 -.28876637E+02 0.12142999E+03 -.36100152E+03 0.48747918E+03 0.30287744E+03 0.0000E+00 0.0000E+00
       23  2    1    2    0    0 0.28876637E+02 -.12142999E+03 -.98698752E+03 0.10003561E+04 0.10482754E+03 0.0000E+00 0.0000E+00
       24  1    3    3    0    0 -.79950384E+02 -.48616985E+02 -.19845420E+03 0.23368132E+03 0.80419002E+02 0.0000E+00 0.9000E+01
      -11  1    4    4    0    0 0.51491228E+02 -.12738366E+03 -.77526737E+03 0.78734836E+03 0.51099893E-03 0.0000E+00 0.9000E+01
       11  1    4    4    0    0 -.22614591E+02 0.59536684E+01 -.21172015E+03 0.21300772E+03 0.51099893E-03 0.0000E+00 0.9000E+01
      -24  1    3    3    0    0 0.51073747E+02 0.17004698E+03 -.16254732E+03 0.25379785E+03 0.80419002E+02 0.0000E+00 0.9000E+01
#aMCatNLO 1  0  0  2  1 0.63367771D+03 0.00000000D+00  -5  7  0 0.00000000D+00 0.00000000D+00 0.00000000D+00 0.00000000D+00 0.00000000D+00
  <mgrwgt>
 0.7536277337D-03    5    2    0
 0.314872705185921D+03 0.000000000000000D+00 0.000000000000000D+00 0.314872705185921D+03
 0.314872705185921D+03 0.000000000000000D+00 0.000000000000000D+00 -.314872705185921D+03
 0.127297828304793D+03 -.799503844034562D+02 -.486169851913463D+02 0.313344207125333D+02
 0.200704480153122D+03 0.514912279717389D+02 -.127383661063579D+03 -.146302237472763D+03
 0.500582442540624D+02 -.226145907372815D+02 0.595366816993972D+01 -.442601619846435D+02
 0.251684857659865D+03 0.510737471689988D+02 0.170046978084985D+03 0.159227978744873D+03
 0.000000000000000D+00 -.000000000000000D+00 -.000000000000000D+00 -.000000000000000D+00
 0.548548725898948D+03 0.000000000000000D+00 0.000000000000000D+00 0.548548725898948D+03
 0.143223664599935D+04 0.000000000000000D+00 0.000000000000000D+00 -.143223664599935D+04
 0.928961801100235D+02 -.243800299156589D+02 0.242126525722593D+02 0.313344207125333D+02
 0.214253371453311D+03 0.156214127006410D+03 0.986453309585409D+01 -.146302237472763D+03
 0.619734235962944D+02 0.565883750503113D+01 0.430083811765859D+02 -.442601619846435D+02
 0.524256408970086D+03 0.246898018495700D+03 0.426691206423989D+03 0.159227978744873D+03
 0.108740598776858D+04 -.384390953091482D+03 -.503776773268689D+03 -.883687920100398D+03
0.153071202791D-04 0.000000000000D+00 0.000000000000D+00 0.735310087910D-09 0.000000000000D+00  7 -1 1 24 -11 11 -24 21 0 0.10757401D-01 0.21814033D+00 0.57378913D+05 0.57378913D+05 0.57378913D+05 0.11420738D+01  1  2  2  2  7  2        1 0.742452233393D-03 0.100000000000D+01
-.773080191785D-06 0.000000000000D+00 -.587833723289D-07 0.735310087910D-09 0.000000000000D+00  7 -1 1 24 -11 11 -24 21 2 0.10757401D-01 0.21814033D+00 0.57378913D+05 0.57378913D+05 0.57378913D+05 0.11420738D+01  1  2  3  2  7  2        1 -.489089010843D-04 0.100000000000D+01
0.949725878479D-06 0.000000000000D+00 0.000000000000D+00 0.735310087910D-09 0.000000000000D+00  7 -1 1 24 -11 11 -24 21 2 0.10757401D-01 0.21814033D+00 0.57378913D+05 0.57378913D+05 0.57378913D+05 0.11420738D+01  1  2 15  2  7  2        1 0.600843865117D-04 0.100000000000D+01
0.246552059274D-05 0.000000000000D+00 -.504080759363D-05 0.735310087910D-09 0.000000000000D+00  7 -1 1 24 -11 11 -24 21 2 0.10757401D-01 0.99380729D+00 0.57378913D+05 0.57378913D+05 0.57378913D+05 0.11420738D+01  1  2  5  2  7  2        1 0.149191584452D-10 0.100000000000D+01
0.397099014341D-06 0.000000000000D+00 -.925278513572D-06 0.735310087910D-09 0.000000000000D+00  7 -1 21 24 -11 11 -24 -1 2 0.10757401D-01 0.99380729D+00 0.57378913D+05 0.57378913D+05 0.57378913D+05 0.11420738D+01  1  2  5  4  7  2        1 0.645656057851D-14 0.100000000000D+01
  </mgrwgt>
  </event>
  <event>
  9     66 -.29788925E-05 0.24408197E+03 0.75467711E-02 0.10267256E+00
       -3 -1    0    0    0  502 0.00000000E+00 0.00000000E+00 0.46963658E+02 0.46966319E+02 0.50000000E+00 0.0000E+00 0.9000E+01
        3 -1    0    0  501    0 0.00000000E+00 0.00000000E+00 -.19535713E+04 0.19535713E+04 0.50000000E+00 0.0000E+00 0.9000E+01
       25  2    1    2    0    0 -.19380118E+03 0.26495640E+02 -.11294942E+04 0.11854495E+04 0.30211332E+03 0.0000E+00 0.0000E+00
       23  2    1    2    0    0 0.16555239E+03 -.35760355E+02 -.75252968E+03 0.77650382E+03 0.89279698E+02 0.0000E+00 0.0000E+00
       24  1    3    3    0    0 -.14152316E+03 -.56726063E+02 -.29759439E+03 0.34391320E+03 0.80419002E+02 0.0000E+00 0.9000E+01
      -13  1    4    4    0    0 0.14834979E+03 -.61376609E+02 -.63814515E+03 0.65803039E+03 0.10565837E+00 0.0000E+00 0.9000E+01
       13  1    4    4    0    0 0.17202604E+02 0.25616254E+02 -.11438453E+03 0.11847343E+03 0.10565837E+00 0.0000E+00 0.9000E+01
      -24  1    3    3    0    0 -.52278017E+02 0.83221703E+02 -.83189976E+03 0.84153626E+03 0.80419002E+02 0.0000E+00 0.9000E+01
       21  1    1    2  501  502 0.28248787E+02 0.92647149E+01 -.24583764E+02 0.38584360E+02 0.75000000E+00 0.0000E+00 0.9000E+01
#aMCatNLO 2  0  0  1  2 0.29729260D+02 0.00000000D+00  -5  7  0 0.00000000D+00 0.00000000D+00 0.00000000D+00 0.00000000D+00 0.00000000D+00
  <mgrwgt>
 -.3419973662D-05    2    2    0
 0.276750395994381D+03 0.000000000000000D+00 0.000000000000000D+00 0.276750395994381D+03
 0.276750395994381D+03 0.000000000000000D+00 0.000000000000000D+00 -.276750395994381D+03
 0.198985236647174D+03 -.131174161819779D+03 -.533319148826353D+02 0.114354512700598D+03
 0.169182534896838D+03 0.156805415104163D+03 -.586036102055380D+02 -.245032401736703D+02
 0.323181084334449D+02 0.188161796076023D+02 0.261456359918800D+02 -.261098377445502D+01
 0.153014912011305D+03 -.444474328919863D+02 0.857898890962933D+02 -.872402887524731D+02
 0.000000000000000D+00 0.000000000000000D+00 0.000000000000000D+00 0.000000000000000D+00
 0.325692295255700D+03 0.000000000000000D+00 0.000000000000000D+00 0.325692295255700D+03
 0.281701092537568D+03 0.000000000000000D+00 0.000000000000000D+00 -.281701092537568D+03
 0.206859427852475D+03 -.141523164725912D+03 -.567260628640314D+02 0.114354512700598D+03
 0.162404515544547D+03 0.148349974762512D+03 -.613767291260497D+02 -.245032401736703D+02
 0.309667428064029D+02 0.172024215206188D+02 0.256163740133998D+02 -.261098377445502D+01
 0.154067929720729D+03 -.522780180874982D+02 0.832217030424711D+02 -.872402887524731D+02
 0.530947718691139D+02 0.282487865302793D+02 0.926471493421018D+01 0.439912027181320D+02
-.358252113639D-04 0.000000000000D+00 0.000000000000D+00 0.170183182146D-07 0.000000000000D+00  7 -3 3 24 -13 13 -24 21 2 0.72738579D-02 0.29526495D+00 0.67729188D+05 0.67729188D+05 0.67729188D+05 0.11358792D+01  1  2 13  1  7  1       -3 -.438147371527D-04 0.100000000000D+01
0.368804944343D-04 0.000000000000D+00 0.000000000000D+00 0.170183182146D-07 0.134684471633D-09  7 -3 3 24 -13 13 -24 21 2 0.72253207D-02 0.30054685D+00 0.67729188D+05 0.67729188D+05 0.67729188D+05 0.11358792D+01  1  2  1  1  7  1       -3 0.403947634906D-04 0.100000000000D+01
  </mgrwgt>
  </event>
  <event>
  8     66 0.29788925E-05 0.23696141E+03 0.75467711E-02 0.99992664E-01
       -1 -1    0    0    0  501 0.00000000E+00 0.00000000E+00 0.59236009E+03 0.59236017E+03 0.32000000E+00 0.0000E+00 0.9000E+01
        1 -1    0    0  501    0 0.00000000E+00 0.00000000E+00 -.10902745E+04 0.10902745E+04 0.32000000E+00 0.0000E+00 0.9000E+01
       25  2    1    2    0    0 0.11041223E+03 -.19627232E+03 -.10306120E+04 0.10971371E+04 0.30138851E+03 0.0000E+00 0.0000E+00
       23  2    1    2    0    0 -.11041223E+03 0.19627232E+03 0.53269762E+03 0.58549758E+03 0.91252250E+02 0.0000E+00 0.0000E+00
       24  1    3    3    0    0 0.15154737E+03 -.22342735E+03 -.78767627E+03 0.83653303E+03 0.80419002E+02 0.0000E+00 0.9000E+01
      -13  1    4    4    0    0 -.11046789E+03 0.15545493E+03 0.35298585E+03 0.40120869E+03 0.10565837E+00 0.0000E+00 0.9000E+01
       13  1    4    4    0    0 0.55662843E-01 0.40817391E+02 0.17971177E+03 0.18428889E+03 0.10565837E+00 0.0000E+00 0.9000E+01
      -24  1    3    3    0    0 -.41135144E+02 0.27155033E+02 -.24293574E+03 0.26060408E+03 0.80419002E+02 0.0000E+00 0.9000E+01
#aMCatNLO 1  0  0  1  2 0.33476878D+02 0.00000000D+00  -5  7  0 0.00000000D+00 0.00000000D+00 0.00000000D+00 0.00000000D+00 0.00000000D+00
  <mgrwgt>
 0.9879162391D-03    9    2    0
 0.803638718230669D+03 0.000000000000000D+00 0.000000000000000D+00 0.803638718230669D+03
 0.803638718230669D+03 0.000000000000000D+00 0.000000000000000D+00 -.803638718230669D+03
 0.631741679102141D+03 0.151547374888097D+03 -.223427354480350D+03 -.565459055630786D+03
 0.529370334450363D+03 -.110468041846464D+03 0.155455084088304D+03 0.493825353295875D+03
 0.248601357960227D+03 0.558110097234845D-01 0.408172377996043D+02 0.245227619087269D+03
 0.197564064948607D+03 -.411351440513561D+02 0.271550325924414D+02 -.173593916752358D+03
 0.000000000000000D+00 0.000000000000000D+00 0.000000000000000D+00 0.000000000000000D+00
 0.849041739065600D+03 0.000000000000000D+00 0.000000000000000D+00 0.849041739065600D+03
 0.810007649063374D+03 0.000000000000000D+00 0.000000000000000D+00 -.810007649063374D+03
 0.632842091212112D+03 0.142077154921589D+03 -.232576944063412D+03 -.565459055630786D+03
 0.528890114641347D+03 -.118393146904758D+03 0.147798296923647D+03 0.493825353295875D+03
 0.248063729530604D+03 -.366361647197992D+01 0.372237378532563D+02 0.245227619087269D+03
 0.197830096726522D+03 -.440961734212063D+02 0.242942539016256D+02 -.173593916752358D+03
 0.514233560183889D+02 0.240757818763550D+02 0.232606553848836D+02 0.390340900022255D+02
0.269430412573D-03 0.000000000000D+00 0.000000000000D+00 0.371065431276D-05 0.000000000000D+00  7 -1 1 24 -13 13 -24 21 0 0.91132331D-01 0.16773454D+00 0.92277791D+05 0.92277791D+05 0.92277791D+05 0.11245975D+01  1  2  2  1  7  1       -1 0.554527973512D-03 0.100000000000D+01
0.225689693114D-05 0.000000000000D+00 -.103468372694D-05 0.371065431276D-05 0.000000000000D+00  7 -1 1 24 -13 13 -24 21 2 0.91132331D-01 0.16773454D+00 0.92277791D+05 0.92277791D+05 0.92277791D+05 0.11245975D+01  1  2  3  1  7  1       -1 0.587466106687D-05 0.100000000000D+01
0.164890257477D-04 0.000000000000D+00 0.000000000000D+00 0.371065431276D-05 0.000000000000D+00  7 -1 1 24 -13 13 -24 21 2 0.91132331D-01 0.16773454D+00 0.92277791D+05 0.92277791D+05 0.92277791D+05 0.11245975D+01  1  2 15  1  7  1       -1 0.429206297611D-04 0.100000000000D+01
0.168284532458D-02 0.000000000000D+00 0.000000000000D+00 0.371065431276D-05 0.000000000000D+00  7 -1 1 24 -13 13 -24 21 2 0.96629798D-01 0.16773454D+00 0.10217180D+06 0.10217180D+06 0.10217180D+06 0.11209571D+01  1  2 12  1  7  1       -1 0.381657554544D-02 0.100000000000D+01
-.171491381230D-02 0.000000000000D+00 0.000000000000D+00 0.371065431276D-05 0.000000000000D+00  7 -1 1 24 -13 13 -24 21 2 0.91132331D-01 0.16773454D+00 0.92277791D+05 0.92277791D+05 0.92277791D+05 0.11245975D+01  1  2  4  1  7  1       -1 -.446388900935D-02 0.100000000000D+01
-.391810642000D-02 0.000000000000D+00 -.561408194725D-03 0.371065431276D-05 0.000000000000D+00  7 -1 1 24 -13 13 -24 21 2 0.96737506D-01 0.16773454D+00 0.92277791D+05 0.92277791D+05 0.92277791D+05 0.11245975D+01  1  2  5  1  7  1       -1 -.897368607111D-02 0.100000000000D+01
0.394558405147D-02 0.000000000000D+00 0.560409606174D-03 0.371065431276D-05 0.000000000000D+00  7 -1 1 24 -13 13 -24 21 2 0.91132331D-01 0.16773454D+00 0.92277791D+05 0.92277791D+05 0.92277791D+05 0.11245975D+01  1  2  6  1  7  1       -1 0.102702824810D-01 0.100000000000D+01
0.239441715807D-04 0.000000000000D+00 0.000000000000D+00 0.371065431276D-05 0.000000000000D+00  7 21 1 24 -13 13 -24 1 2 0.96629798D-01 0.16773454D+00 0.10217180D+06 0.10217180D+06 0.10217180D+06 0.11209571D+01  1  2 12  3  7  1       -1 0.395001607926D-03 0.100000000000D+01
-.394852594721D-04 0.000000000000D+00 -.575729601268D-05 0.371065431276D-05 0.000000000000D+00  7 21 1 24 -13 13 -24 1 2 0.96737506D-01 0.16773454D+00 0.92277791D+05 0.92277791D+05 0.92277791D+05 0.11245975D+01  1  2  5  3  7  1       -1 -.659691579162D-03 0.100000000000D+01
  </mgrwgt>
  </event>
  <event>
  8     66 0.29788925E-05 0.30280792E+03 0.75467711E-02 0.79351142E-01
       -1 -1    0    0    0  501 0.00000000E+00 0.00000000E+00 0.52000746E+03 0.52000755E+03 0.32000000E+00 0.0000E+00 0.9000E+01
        1 -1    0    0  501    0 0.00000000E+00 0.00000000E+00 -.37805194E+03 0.37805207E+03 0.32000000E+00 0.0000E+00 0.9000E+01
       25  2    1    2    0    0 0.12195755E+03 -.19676323E+03 -.23519018E+03 0.44601988E+03 0.30004982E+03 0.0000E+00 0.0000E+00
       23  2    1    2    0    0 -.12195755E+03 0.19676323E+03 0.37714570E+03 0.45203975E+03 0.92258576E+02 0.0000E+00 0.0000E+00
       24  1    3    3    0    0 0.19031297E+03 -.13863091E+03 -.10929504E+03 0.27175389E+03 0.80419002E+02 0.0000E+00 0.9000E+01
      -11  1    4    4    0    0 -.48079890E+02 0.12234088E+03 0.27898150E+03 0.30839851E+03 0.51099893E-03 0.0000E+00 0.9000E+01
       11  1    4    4    0    0 -.73877660E+02 0.74422348E+02 0.98164203E+02 0.14364124E+03 0.51099893E-03 0.0000E+00 0.9000E+01
      -24  1    3    3    0    0 -.68355419E+02 -.58132317E+02 -.12589515E+03 0.17426598E+03 0.80419002E+02 0.0000E+00 0.9000E+01
#aMCatNLO 1  0  0  1  1 0.24705045D+04 0.00000000D+00  -5  7  0 0.00000000D+00 0.00000000D+00 0.00000000D+00 0.00000000D+00 0.00000000D+00
  <mgrwgt>
 0.6175926641D-03    5    2    0
 0.443384630822046D+03 0.000000000000000D+00 0.000000000000000D+00 0.443384630822046D+03
 0.443384630822046D+03 0.000000000000000D+00 0.000000000000000D+00 -.443384630822046D+03
 0.292710001216057D+03 0.190312969566309D+03 -.138630913927585D+03 -.154189403578812D+03
 0.267665220916885D+03 -.480798900047793D+02 0.122340883548988D+03 0.233164540353086D+03
 0.129755790273833D+03 -.738776601541259D+02 0.744223475800127D+02 0.764197004732304D+02
 0.196638249237317D+03 -.683554194074034D+02 -.581323172014161D+02 -.155394837247505D+03
 0.000000000000000D+00 0.000000000000000D+00 -.000000000000000D+00 0.000000000000000D+00
 0.398180520450920D+04 0.000000000000000D+00 0.000000000000000D+00 0.398180520450920D+04
 0.188402655394270D+04 0.000000000000000D+00 0.000000000000000D+00 -.188402655394270D+04
 0.411771469979528D+03 0.123002612564968D+03 0.352398230218221D+03 -.154189403578812D+03
 0.114815869439249D+04 -.183356142237185D+03 0.110918132410121D+04 0.233164540353086D+03
 0.617445884818157D+03 -.145269759959230D+03 0.595227810926074D+03 0.764197004732304D+02
 0.447457729132687D+03 -.129896186652333D+03 0.390807661972247D+03 -.155394837247505D+03
 0.324099798012904D+04 0.335519476283780D+03 -.244761502721775D+04 0.209777865056650D+04
0.460145996365D-04 0.000000000000D+00 0.000000000000D+00 0.428617674229D-05 0.000000000000D+00  7 -1 1 24 -11 11 -24 21 0 0.80001165D-01 0.58161854D-01 0.91692635D+05 0.91692635D+05 0.91692635D+05 0.11248261D+01  1  2  2  1  7  1       -1 0.605145169358D-03 0.100000000000D+01
-.210437853569D-05 0.000000000000D+00 -.176708178527D-06 0.428617674229D-05 0.000000000000D+00  7 -1 1 24 -11 11 -24 21 2 0.80001165D-01 0.58161854D-01 0.91692635D+05 0.91692635D+05 0.91692635D+05 0.11248261D+01  1  2  3  1  7  1       -1 -.350153570577D-04 0.100000000000D+01
0.284945732312D-05 0.000000000000D+00 0.000000000000D+00 0.428617674229D-05 0.000000000000D+00  7 -1 1 24 -11 11 -24 21 2 0.80001165D-01 0.58161854D-01 0.91692635D+05 0.91692635D+05 0.91692635D+05 0.11248261D+01  1  2 15  1  7  1       -1 0.474129363597D-04 0.100000000000D+01
0.975865454597D-04 0.000000000000D+00 -.340255671402D-04 0.428617674229D-05 0.000000000000D+00  7 -1 1 24 -11 11 -24 21 2 0.87370260D+00 0.58161854D-01 0.91692635D+05 0.91692635D+05 0.91692635D+05 0.11248261D+01  1  2  5  1  7  1       -1 0.496870333782D-07 0.100000000000D+01
0.215531448296D-04 0.000000000000D+00 -.958255238553D-05 0.428617674229D-05 0.000000000000D+00  7 21 1 24 -11 11 -24 1 2 0.87370260D+00 0.58161854D-01 0.91692635D+05 0.91692635D+05 0.91692635D+05 0.11248261D+01  1  2  5  3  7  1       -1 0.228444909079D-09 0.100000000000D+01
  </mgrwgt>
  </event>
  <event>
  8     66 0.29788925E-05 0.50543279E+03 0.75467711E-02 0.94281187E-01
       -1 -1    0    0    0  501 0.00000000E+00 0.00000000E+00 0.43936113E+03 0.43936125E+03 0.32000000E+00 0.0000E+00 0.9000E+01
        1 -1    0    0  501    0 0.00000000E+00 0.00000000E+00 -.11992659E+04 0.11992659E+04 0.32000000E+00 0.0000E+00 0.9000E+01
       25  2    1    2    0    0 -.21344077E+03 -.40778943E+03 0.18837325E+03 0.58061393E+03 0.29963122E+03 0.0000E+00 0.0000E+00
       23  2    1    2    0    0 0.21344077E+03 0.40778943E+03 -.94827802E+03 0.10580133E+04 0.91168420E+02 0.0000E+00 0.0000E+00
       24  1    3    3    0    0 0.41312065E+02 -.87633946E+02 0.82096348E+02 0.15031108E+03 0.80419002E+02 0.0000E+00 0.9000E+01
      -13  1    4    4    0    0 -.71117197E+01 0.47792371E+01 -.30364670E+02 0.31550626E+02 0.10565837E+00 0.0000E+00 0.9000E+01
       13  1    4    4    0    0 0.22055249E+03 0.40301019E+03 -.91791335E+03 0.10264626E+04 0.10565837E+00 0.0000E+00 0.9000E+01
      -24  1    3    3    0    0 -.25475284E+03 -.32015548E+03 0.10627690E+03 0.43030284E+03 0.80419002E+02 0.0000E+00 0.9000E+01
#aMCatNLO 1  0  0  2  1 0.20872373D+02 0.00000000D+00  -5  7  0 0.00000000D+00 0.00000000D+00 0.00000000D+00 0.00000000D+00 0.00000000D+00
  <mgrwgt>
 0.1039887473D-02    6    2    0
 0.725886322702868D+03 0.000000000000000D+00 0.000000000000000D+00 0.725886322702868D+03
 0.725886322702868D+03 0.000000000000000D+00 0.000000000000000D+00 -.725886322702868D+03
 0.212629184316753D+03 0.413120653566908D+02 -.876339455617477D+02 0.171340476566637D+03
 0.197167049069769D+02 -.711202550176422D+01 0.477870221343414D+01 -.177575772786262D+02
 0.678111785087267D+03 0.220552799742203D+03 0.403010724526544D+03 -.498772905756423D+03
 0.541314971094739D+03 -.254752839597129D+03 -.320155481178231D+03 0.345190006468413D+03
 0.000000000000000D+00 0.000000000000000D+00 0.000000000000000D+00 0.000000000000000D+00
 0.792074566413515D+03 0.000000000000000D+00 0.000000000000000D+00 0.792074566413515D+03
 0.727608726040213D+03 0.000000000000000D+00 0.000000000000000D+00 -.727608726040213D+03
 0.213201484763330D+03 0.392842764521562D+02 -.899268806557110D+02 0.171340476566637D+03
 0.197350148004962D+02 -.729989303995832D+01 0.456626980965758D+01 -.177575772786262D+02
 0.671740888091142D+03 0.214124854382277D+03 0.395742284766916D+03 -.498772905756423D+03
 0.547245292764545D+03 -.259936520776645D+03 -.326016961367736D+03 0.345190006468413D+03
 0.677606120342150D+02 0.138272829821705D+02 0.156352874468739D+02 0.644658403733017D+02
0.401499240785D-03 0.000000000000D+00 0.000000000000D+00 0.221937355736D-04 0.000000000000D+00  7 -1 1 24 -13 13 -24 21 0 0.67594033D-01 0.18450246D+00 0.25546230D+06 0.25546230D+06 0.25546230D+06 0.10897536D+01  1  2  2  2  7  2        1 0.119927618850D-02 0.100000000000D+01
-.187519920314D-04 0.000000000000D+00 -.154186280179D-05 0.221937355736D-04 0.000000000000D+00  7 -1 1 24 -13 13 -24 21 2 0.67594033D-01 0.18450246D+00 0.25546230D+06 0.25546230D+06 0.25546230D+06 0.10897536D+01  1  2  3  2  7  2        1 -.665179033029D-04 0.100000000000D+01
0.256031226522D-04 0.000000000000D+00 0.000000000000D+00 0.221937355736D-04 0.000000000000D+00  7 -1 1 24 -13 13 -24 21 2 0.67594033D-01 0.18450246D+00 0.25546230D+06 0.25546230D+06 0.25546230D+06 0.10897536D+01  1  2 15  2  7  2        1 0.908205397047D-04 0.100000000000D+01
-.512574536119D-04 0.000000000000D+00 0.000000000000D+00 0.221937355736D-04 0.000000000000D+00  7 -1 1 24 -13 13 -24 21 2 0.67594033D-01 0.18450246D+00 0.25546230D+06 0.25546230D+06 0.25546230D+06 0.10897536D+01  1  2  4  2  7  2        1 -.181822727804D-03 0.100000000000D+01
0.375208073746D-05 0.000000000000D+00 0.000000000000D+00 0.221937355736D-04 0.000000000000D+00  7 -1 1 24 -13 13 -24 21 2 0.67594033D-01 0.19925045D+00 0.25546230D+06 0.25546230D+06 0.25546230D+06 0.10897536D+01  1  2  5  2  7  2        1 0.114016670171D-04 0.100000000000D+01
-.374101390140D-05 0.000000000000D+00 0.000000000000D+00 0.221937355736D-04 0.000000000000D+00  7 -1 1 24 -13 13 -24 21 2 0.67594033D-01 0.18450246D+00 0.25546230D+06 0.25546230D+06 0.25546230D+06 0.10897536D+01  1  2  6  2  7  2        1 -.132702915259D-04 0.100000000000D+01
  </mgrwgt>
  </event>
  <event>
  8     66 0.29788925E-05 0.53455341E+03 0.75467711E-02 0.82057342E-01
       -1 -1    0    0    0  501 0.00000000E+00 0.00000000E+00 0.11777497E+04 0.11777498E+04 0.32000000E+00 0.0000E+00 0.9000E+01
        1 -1    0    0  501    0 0.00000000E+00 0.00000000E+00 -.26686412E+03 0.26686431E+03 0.32000000E+00 0.0000E+00 0.9000E+01
       25  2    1    2    0    0 -.12705062E+01 0.50209117E+03 0.32555520E+03 0.66911691E+03 0.29938954E+03 0.0000E+00 0.0000E+00
       23  2    1    2    0    0 0.12705062E+01 -.50209117E+03 0.58533042E+03 0.77549717E+03 0.81774100E+02 0.0000E+00 0.0000E+00
       24  1    3    3    0    0 0.50749061E+02 0.60807052E+02 0.14269221E+03 0.18193748E+03 0.80419002E+02 0.0000E+00 0.9000E+01
      -13  1    4    4    0    0 0.20328526E+02 -.95555441E+02 0.77454891E+02 0.12467302E+03 0.10565837E+00 0.0000E+00 0.9000E+01
       13  1    4    4    0    0 -.19058020E+02 -.40653573E+03 0.50787553E+03 0.65082415E+03 0.10565837E+00 0.0000E+00 0.9000E+01
      -24  1    3    3    0    0 -.52019568E+02 0.44128412E+03 0.18286299E+03 0.48717943E+03 0.80419002E+02 0.0000E+00 0.9000E+01
#aMCatNLO 1  0  0  1  1 0.16460538D+04 0.00000000D+00  -5  7  0 0.00000000D+00 0.00000000D+00 0.00000000D+00 0.00000000D+00 0.00000000D+00
  <mgrwgt>
 0.1584759434D-02    5    2    0
 0.560624037192112D+03 0.000000000000000D+00 0.000000000000000D+00 0.560624037192112D+03
 0.560624037192112D+03 0.000000000000000D+00 0.000000000000000D+00 -.560624037192112D+03
 0.118486863643932D+03 0.507490614054405D+02 0.608070522290405D+02 0.360410331079285D+02
 0.977047327288355D+02 0.203285916817416D+02 -.955549214712205D+02 -.149001358353191D+01
 0.425930570266399D+03 -.190580854481288D+02 -.406536250342415D+03 0.125626100886882D+03
 0.479125907745057D+03 -.520195676390532D+02 0.441284119584595D+03 -.160177120411278D+03
 0.000000000000000D+00 -.000000000000000D+00 -.000000000000000D+00 0.000000000000000D+00
 0.207640369604604D+04 0.000000000000000D+00 0.000000000000000D+00 0.207640369604604D+04
 0.162269069468502D+04 0.000000000000000D+00 0.000000000000000D+00 -.162269069468502D+04
 0.325335052221624D+03 0.227227208437814D+03 0.215509906797222D+03 0.360410331079285D+02
 0.103521733245968D+03 0.100342832934000D+03 -.254134805280488D+02 -.149001358353191D+01
 0.342118023863774D+03 0.286343220520664D+03 -.138817812582776D+03 0.125626100886882D+03
 0.122068037864727D+04 0.623879149871256D+03 0.103378501987247D+04 -.160177120411278D+03
 0.170743920275244D+04 -.123779241176374D+04 -.108506363355887D+04 0.453713001361021D+03
0.621624420173D-03 0.000000000000D+00 0.000000000000D+00 0.494341251041D-07 0.000000000000D+00  7 -1 1 24 -13 13 -24 21 0 0.18119228D+00 0.41056036D-01 0.28574735D+06 0.28574735D+06 0.28574735D+06 0.10861193D+01  1  2  2  1  7  1       -1 0.156896037525D-02 0.100000000000D+01
-.344394772868D-04 0.000000000000D+00 -.238720145093D-05 0.494341251041D-07 0.000000000000D+00  7 -1 1 24 -13 13 -24 21 2 0.18119228D+00 0.41056036D-01 0.28574735D+06 0.28574735D+06 0.28574735D+06 0.10861193D+01  1  2  3  1  7  1       -1 -.102540520927D-03 0.100000000000D+01
0.396587839574D-04 0.000000000000D+00 0.000000000000D+00 0.494341251041D-07 0.000000000000D+00  7 -1 1 24 -13 13 -24 21 2 0.18119228D+00 0.41056036D-01 0.28574735D+06 0.28574735D+06 0.28574735D+06 0.10861193D+01  1  2 15  1  7  1       -1 0.118080548449D-03 0.100000000000D+01
0.239748791112D-03 0.000000000000D+00 -.203827403910D-03 0.494341251041D-07 0.000000000000D+00  7 -1 1 24 -13 13 -24 21 2 0.80852400D+00 0.41056036D-01 0.28574735D+06 0.28574735D+06 0.28574735D+06 0.10861193D+01  1  2  5  1  7  1       -1 0.253590496549D-06 0.100000000000D+01
0.418478822253D-04 0.000000000000D+00 -.368318654355D-04 0.494341251041D-07 0.000000000000D+00  7 21 1 24 -13 13 -24 1 2 0.80852400D+00 0.41056036D-01 0.28574735D+06 0.28574735D+06 0.28574735D+06 0.10861193D+01  1  2  5  3  7  1       -1 0.544095787707D-08 0.100000000000D+01
  </mgrwgt>
  </event>
  <event>
  8     66 0.29788925E-05 0.14432179E+03 0.75467711E-02 0.10215564E+00
       -1 -1    0    0    0  501 0.00000000E+00 0.00000000E+00 0.30433279E+03 0.30433296E+03 0.32000000E+00 0.0000E+00 0.9000E+01
        1 -1    0    0  501    0 0.00000000E+00 0.00000000E+00 -.15222328E+03 0.15222361E+03 0.32000000E+00 0.0000E+00 0.9000E+01
       25  2    1    2    0    0 0.15371571E+02 0.88250520E+02 0.12121916E+03 0.33462878E+03 0.29876060E+03 0.0000E+00 0.0000E+00
       23  2    1    2    0    0 -.15371571E+02 -.88250520E+02 0.30890352E+02 0.12192780E+03 0.76731575E+02 0.0000E+00 0.0000E+00
       24  1    3    3    0    0 -.11670572E+03 0.63058096E+02 0.55996479E+02 0.16492232E+03 0.80419002E+02 0.0000E+00 0.9000E+01
      -13  1    4    4    0    0 0.13817568E+02 -.67583932E+02 0.46200066E+02 0.83023914E+02 0.10565837E+00 0.0000E+00 0.9000E+01
       13  1    4    4    0    0 -.29189140E+02 -.20666588E+02 -.15309713E+02 0.38903884E+02 0.10565837E+00 0.0000E+00 0.9000E+01
      -24  1    3    3    0    0 0.13207729E+03 0.25192423E+02 0.65222683E+02 0.16970646E+03 0.80419002E+02 0.0000E+00 0.9000E+01
#aMCatNLO 1  0  0  1  2 0.11115202D+03 0.00000000D+00  -5  7  0 0.00000000D+00 0.00000000D+00 0.00000000D+00 0.00000000D+00 0.00000000D+00
  <mgrwgt>
 0.1674502502D-02    9    2    0
 0.215236267318215D+03 0.000000000000000D+00 0.000000000000000D+00 0.215236267318215D+03
 0.215236267318215D+03 0.000000000000000D+00 0.000000000000000D+00 -.215236267318215D+03
 0.155129028228879D+03 -.116705697572809D+03 0.630582255235843D+02 0.111345980012358D+01
 0.717296959344875D+02 0.138174925905047D+02 -.675840988345578D+02 0.196625471922158D+02
 0.466708624755242D+02 -.291891092967582D+02 -.206666809738301D+02 -.299842225211381D+02
 0.156942947997540D+03 0.132077314279063D+03 0.251925542848035D+02 0.920821552879869D+01
 0.000000000000000D+00 -.000000000000000D+00 0.000000000000000D+00 0.000000000000000D+00
 0.327402497894483D+03 0.000000000000000D+00 0.000000000000000D+00 0.327402497894483D+03
 0.251681834520374D+03 0.000000000000000D+00 0.000000000000000D+00 -.251681834520374D+03
 0.126175678752377D+03 -.835815775923528D+02 0.496584942250510D+02 0.111345980012358D+01
 0.839339497299604D+02 0.321471584212582D+02 -.749990157310343D+02 0.196625471922158D+02
 0.432158850605670D+02 -.186047879677984D+02 -.249483664003131D+02 -.299842225211381D+02
 0.191265731151638D+03 0.173079493695642D+03 0.860590421951651D+01 0.920821552879869D+01
 0.134493087720315D+03 -.103040286556749D+03 0.416829836867799D+02 0.757206633741085D+02
0.126838427568D-04 0.000000000000D+00 0.000000000000D+00 0.517459885387D-09 0.000000000000D+00  7 -1 1 24 -13 13 -24 21 0 0.46820469D-01 0.23419005D-01 0.43377323D+05 0.43377323D+05 0.43377323D+05 0.11527630D+01  1  2  2  1  7  1       -1 0.149049178805D-02 0.100000000000D+01
-.703731110402D-06 0.000000000000D+00 -.487092959186D-07 0.517459885387D-09 0.000000000000D+00  7 -1 1 24 -13 13 -24 21 2 0.46820469D-01 0.23419005D-01 0.43377323D+05 0.43377323D+05 0.43377323D+05 0.11527630D+01  1  2  3  1  7  1       -1 -.109891866807D-03 0.100000000000D+01
0.823730234571D-06 0.000000000000D+00 0.000000000000D+00 0.517459885387D-09 0.000000000000D+00  7 -1 1 24 -13 13 -24 21 2 0.46820469D-01 0.23419005D-01 0.43377323D+05 0.43377323D+05 0.43377323D+05 0.11527630D+01  1  2 15  1  7  1       -1 0.128630455417D-03 0.100000000000D+01
0.451074741663D-05 0.000000000000D+00 0.000000000000D+00 0.517459885387D-09 0.000000000000D+00  7 -1 1 24 -13 13 -24 21 2 0.73518610D-01 0.23419005D-01 0.73193724D+05 0.73193724D+05 0.73193724D+05 0.11330162D+01  1  2 12  1  7  1       -1 0.295719538923D-03 0.100000000000D+01
-.800732425693D-05 0.000000000000D+00 0.000000000000D+00 0.517459885387D-09 0.000000000000D+00  7 -1 1 24 -13 13 -24 21 2 0.46820469D-01 0.23419005D-01 0.43377323D+05 0.43377323D+05 0.43377323D+05 0.11527630D+01  1  2  4  1  7  1       -1 -.125039208544D-02 0.100000000000D+01
-.957046401228D-05 0.000000000000D+00 -.439892928662D-05 0.517459885387D-09 0.000000000000D+00  7 -1 1 24 -13 13 -24 21 2 0.80695628D-01 0.23419005D-01 0.43377323D+05 0.43377323D+05 0.43377323D+05 0.11527630D+01  1  2  5  1  7  1       -1 -.542611717938D-03 0.100000000000D+01
0.108911006725D-04 0.000000000000D+00 0.381897501897D-05 0.517459885387D-09 0.000000000000D+00  7 -1 1 24 -13 13 -24 21 2 0.46820469D-01 0.23419005D-01 0.43377323D+05 0.43377323D+05 0.43377323D+05 0.11527630D+01  1  2  6  1  7  1       -1 0.170071120459D-02 0.100000000000D+01
0.234882940119D-06 0.000000000000D+00 0.000000000000D+00 0.517459885387D-09 0.000000000000D+00  7 21 1 24 -13 13 -24 1 2 0.73518610D-01 0.23419005D-01 0.73193724D+05 0.73193724D+05 0.73193724D+05 0.11330162D+01  1  2 12  3  7  1       -1 0.125378031570D-03 0.100000000000D+01
-.360734610676D-06 0.000000000000D+00 -.265704477841D-06 0.517459885387D-09 0.000000000000D+00  7 21 1 24 -13 13 -24 1 2 0.80695628D-01 0.23419005D-01 0.43377323D+05 0.43377323D+05 0.43377323D+05 0.11527630D+01  1  2  5  3  7  1       -1 -.163532846240D-03 0.100000000000D+01
  </mgrwgt>
  </event>
  <event>
  8     66 0.29788925E-05 0.26489292E+03 0.75467711E-02 0.74878735E-01
       -1 -1    0    0    0  501 0.00000000E+00 0.00000000E+00 0.37492824E+03 0.37492838E+03 0.32000000E+00 0.0000E+00 0.9000E+01
        1 -1    0    0  501    0 0.00000000E+00 0.00000000E+00 -.25638984E+03 0.25639004E+03 0.32000000E+00 0.0000E+00 0.9000E+01
       25  2    1    2    0    0 -.17990427E+02 0.18813117E+03 -.59763619E+02 0.35890546E+03 0.29920636E+03 0.0000E+00 0.0000E+00
       23  2    1    2    0    0 0.17990427E+02 -.18813117E+03 0.17830202E+03 0.27241296E+03 0.81854865E+02 0.0000E+00 0.0000E+00
       24  1    3    3    0    0 -.18572151E+02 -.45121494E+02 0.26177464E+02 0.97638873E+02 0.80419002E+02 0.0000E+00 0.9000E+01
      -13  1    4    4    0    0 0.13842635E+02 -.13848341E+03 0.17341110E+03 0.22235264E+03 0.10565837E+00 0.0000E+00 0.9000E+01
       13  1    4    4    0    0 0.41477918E+01 -.49647754E+02 0.48909190E+01 0.50060322E+02 0.10565837E+00 0.0000E+00 0.9000E+01
      -24  1    3    3    0    0 0.58172425E+00 0.23325266E+03 -.85941083E+02 0.26126659E+03 0.80419002E+02 0.0000E+00 0.9000E+01
#aMCatNLO 1  0  0  1  1 0.45410199D+04 0.00000000D+00  -5  7  0 0.00000000D+00 0.00000000D+00 0.00000000D+00 0.00000000D+00 0.00000000D+00
  <mgrwgt>
 0.2181581462D-02    3    2    0
 0.310044994164819D+03 0.000000000000000D+00 0.000000000000000D+00 0.310044994164819D+03
 0.310044994164819D+03 0.000000000000000D+00 0.000000000000000D+00 -.310044994164819D+03
 0.944027243121242D+02 -.185721511212164D+02 -.451214932449192D+02 0.798651696672655D+01
 0.193229356615802D+03 0.138426513216932D+02 -.138483565108336D+03 0.134045766279388D+03
 0.500315983052439D+02 0.414777564177394D+01 -.496476048300622D+02 -.459043797918859D+01
 0.282426309096468D+03 0.581724157749241D+00 0.233252663183317D+03 -.137441845266926D+03
 0.000000000000000D+00 -.000000000000000D+00 0.000000000000000D+00 -.000000000000000D+00
 0.355346009887255D+04 0.000000000000000D+00 0.000000000000000D+00 0.355346009887255D+04
 0.637692903973295D+04 0.000000000000000D+00 0.000000000000000D+00 -.637692903973295D+04
 0.750260780465365D+03 0.614461766141470D+03 -.422843914757176D+03 0.798651696672655D+01
 0.203488068373436D+04 0.168370197276444D+04 -.113486510056788D+04 0.134045766279388D+03
 0.582171700719997D+03 0.477953176993604D+03 -.332360613791848D+03 -.459043797918859D+01
 0.121584877905117D+04 0.112346550310952D+04 -.436756270771632D+03 -.137441845266926D+03
 0.534722719463460D+04 -.389958241900903D+04 0.232682589988854D+04 -.282346894086040D+04
0.522748377114D-04 0.000000000000D+00 0.000000000000D+00 0.162991048809D-07 0.000000000000D+00  7 -1 1 24 -13 13 -24 21 0 0.57681294D-01 0.39444617D-01 0.70168259D+05 0.70168259D+05 0.70168259D+05 0.11345710D+01  1  2  2  1  7  1       -1 0.215386589035D-02 0.100000000000D+01
-.281668633448D-05 0.000000000000D+00 -.200749141093D-06 0.162991048809D-07 0.000000000000D+00  7 -1 1 24 -13 13 -24 21 2 0.57681294D-01 0.39444617D-01 0.70168259D+05 0.70168259D+05 0.70168259D+05 0.11345710D+01  1  2  3  1  7  1       -1 -.149392159491D-03 0.100000000000D+01
0.333924436792D-05 0.000000000000D+00 0.000000000000D+00 0.162991048809D-07 0.000000000000D+00  7 -1 1 24 -13 13 -24 21 2 0.57681294D-01 0.39444617D-01 0.70168259D+05 0.70168259D+05 0.70168259D+05 0.11345710D+01  1  2 15  1  7  1       -1 0.177107731552D-03 0.100000000000D+01
  </mgrwgt>
  </event>
  <event>
  8     66 0.29788925E-05 0.21804699E+03 0.75467711E-02 0.95602188E-01
       -3 -1    0    0    0  501 0.00000000E+00 0.00000000E+00 0.15738811E+03 0.15738890E+03 0.50000000E+00 0.0000E+00 0.9000E+01
        3 -1    0    0  501    0 0.00000000E+00 0.00000000E+00 -.66573277E+03 0.66573295E+03 0.50000000E+00 0.0000E+00 0.9000E+01
       25  2    1    2    0    0 0.14391460E+03 0.21506381E+02 -.54505752E+02 0.33806349E+03 0.30023676E+03 0.0000E+00 0.0000E+00
       23  2    1    2    0    0 -.14391460E+03 -.21506381E+02 -.45383891E+03 0.48505836E+03 0.90210426E+02 0.0000E+00 0.0000E+00
       24  1    3    3    0    0 -.80532044E+00 0.54076606E+02 0.77287420E+02 0.12395761E+03 0.80419002E+02 0.0000E+00 0.9000E+01
      -13  1    4    4    0    0 -.22773591E+02 0.30956773E+02 -.12258095E+03 0.12846423E+03 0.10565837E+00 0.0000E+00 0.9000E+01
       13  1    4    4    0    0 -.12114101E+03 -.52463153E+02 -.33125796E+03 0.35659413E+03 0.10565837E+00 0.0000E+00 0.9000E+01
      -24  1    3    3    0    0 0.14471992E+03 -.32570225E+02 -.13179317E+03 0.21410588E+03 0.80419002E+02 0.0000E+00 0.9000E+01
#aMCatNLO 1  0  0  2  1 0.34369208D+03 0.00000000D+00  -5  7  0 0.00000000D+00 0.00000000D+00 0.00000000D+00 0.00000000D+00 0.00000000D+00
  <mgrwgt>
 0.8393068817D-04    3    2    0
 0.323695571850787D+03 0.000000000000000D+00 0.000000000000000D+00 0.323695571850787D+03
 0.323695571850787D+03 0.000000000000000D+00 0.000000000000000D+00 -.323695571850787D+03
 0.218292861242887D+03 -.805320077257164D+00 0.540766056600998D+02 0.195600688892169D+03
 0.670819067994490D+02 -.227734564664938D+02 0.309568868311233D+02 -.549820248639835D+02
 0.193279316431809D+03 -.121141140199472D+03 -.524632677298575D+02 -.141171257168818D+03
 0.168737059227429D+03 0.144719916743223D+03 -.325702247613656D+02 0.552593140632354D+00
 0.000000000000000D+00 0.000000000000000D+00 0.000000000000000D+00 0.000000000000000D+00
 0.589943866559819D+03 0.000000000000000D+00 0.000000000000000D+00 0.589943866559819D+03
 0.498636379653062D+03 0.000000000000000D+00 0.000000000000000D+00 -.498636379653062D+03
 0.240290002512979D+03 -.111263634026593D+03 0.251563829161159D+02 0.195600688892169D+03
 0.834824066138912D+02 -.590397051971284D+02 0.214616487283604D+02 -.549820248639835D+02
 0.288097599263211D+03 -.237089830576421D+03 -.828209821714579D+02 -.141171257168818D+03
 0.121096253754837D+03 0.749081082160408D+02 -.508483695254845D+02 0.552593140632354D+00
 0.355613984067962D+03 0.332485061584102D+03 0.870513200524662D+02 0.913074869067576D+02
0.143782807318D-04 0.000000000000D+00 0.000000000000D+00 0.143323654208D-05 0.000000000000D+00  7 -3 3 24 -13 13 -24 21 0 0.24213630D-01 0.10242050D+00 0.47544489D+05 0.47544489D+05 0.47544489D+05 0.11492240D+01  1  2  2  2  7  2        3 0.821670350748D-04 0.100000000000D+01
-.647188068817D-06 0.000000000000D+00 -.552163838983D-07 0.143323654208D-05 0.000000000000D+00  7 -3 3 24 -13 13 -24 21 2 0.24213630D-01 0.10242050D+00 0.47544489D+05 0.47544489D+05 0.47544489D+05 0.11492240D+01  1  2  3  2  7  2        3 -.488461743395D-05 0.100000000000D+01
0.880863531445D-06 0.000000000000D+00 0.000000000000D+00 0.143323654208D-05 0.000000000000D+00  7 -3 3 24 -13 13 -24 21 2 0.24213630D-01 0.10242050D+00 0.47544489D+05 0.47544489D+05 0.47544489D+05 0.11492240D+01  1  2 15  2  7  2        3 0.664827052589D-05 0.100000000000D+01
  </mgrwgt>
  </event>
  <event>
  9     66 -.29788925E-05 0.40791754E+03 0.75467711E-02 0.94771884E-01
       -1 -1    0    0    0  502 0.00000000E+00 0.00000000E+00 0.18711885E+03 0.18711913E+03 0.32000000E+00 0.0000E+00 0.9000E+01
        1 -1    0    0  501    0 0.00000000E+00 0.00000000E+00 -.29987545E+04 0.29987545E+04 0.32000000E+00 0.0000E+00 0.9000E+01
       25  2    1    2    0    0 -.42424147E+03 0.99941091E+02 -.30111226E+03 0.60978950E+03 0.30200264E+03 0.0000E+00 0.0000E+00
       23  2    1    2    0    0 0.33779200E+03 0.36907914E+02 -.21792051E+04 0.22073383E+04 0.89115998E+02 0.0000E+00 0.0000E+00
       24  1    3    3    0    0 -.67949635E+02 0.45580390E+02 0.24668128E+02 0.11734759E+03 0.80419002E+02 0.0000E+00 0.9000E+01
      -11  1    4    4    0    0 0.21247444E+03 0.74549089E+01 -.15957298E+04 0.16098306E+04 0.51099893E-03 0.0000E+00 0.9000E+01
       11  1    4    4    0    0 0.12531756E+03 0.29453005E+02 -.58347537E+03 0.59750772E+03 0.51099893E-03 0.0000E+00 0.9000E+01
      -24  1    3    3    0    0 -.35629184E+03 0.54360701E+02 -.32578038E+03 0.49244191E+03 0.80419002E+02 0.0000E+00 0.9000E+01
       21  1    1    2  501  502 0.86449470E+02 -.13684900E+03 -.33131829E+03 0.36874589E+03 0.75000000E+00 0.0000E+00 0.9000E+01
#aMCatNLO 2  0  0  1  2 0.16186773D+03 0.00000000D+00  -5  7  0 0.00000000D+00 0.00000000D+00 0.00000000D+00 0.00000000D+00 0.00000000D+00
  <mgrwgt>
 -.1013267744D-03    2    2    0
 0.662954266569873D+03 0.000000000000000D+00 0.000000000000000D+00 0.662954266569873D+03
 0.662954266569873D+03 0.000000000000000D+00 0.000000000000000D+00 -.662954266569873D+03
 0.286336573658006D+03 -.491235182209186D+02 0.157787570269926D+02 0.269924671425415D+03
 0.448394602727899D+03 0.241072566259895D+03 -.378157580627838D+02 -.376180416814215D+03
 0.183160840660073D+03 0.137006253652969D+03 0.109498743518587D+02 -.121067255122768D+03
 0.408016516093769D+03 -.328955301691945D+03 0.110871266839325D+02 0.227323000511568D+03
 0.000000000000000D+00 0.000000000000000D+00 -.000000000000000D+00 -.000000000000000D+00
 0.742092211357477D+03 0.000000000000000D+00 0.000000000000000D+00 0.742092211357477D+03
 0.756136050530572D+03 0.000000000000000D+00 0.000000000000000D+00 -.756136050530572D+03
 0.293293827215645D+03 -.679496352897670D+02 0.455803899533526D+02 0.269924671425415D+03
 0.432102614084931D+03 0.212474439492340D+03 0.745490891497794D+01 -.376180416814215D+03
 0.176717998683160D+03 0.125317561772996D+03 0.294530050570568D+02 -.121067255122768D+03
 0.433638006879811D+03 -.356291836416734D+03 0.543607008557898D+02 0.227323000511568D+03
 0.162475815024502D+03 0.864494704411656D+02 -.136849004781177D+03 -.140438391730947D+02
-.141519966723D-03 0.000000000000D+00 0.000000000000D+00 0.238448749286D-06 0.000000000000D+00  7 -1 1 24 -11 11 -24 21 2 0.30377904D-01 0.40449271D+00 0.24364515D+06 0.24364515D+06 0.24364515D+06 0.10913013D+01  1  2 13  1  7  1       -1 -.229025221869D-03 0.100000000000D+01
0.133186311609D-03 0.000000000000D+00 0.000000000000D+00 0.238448749286D-06 0.581153837214D-10  7 -1 1 24 -11 11 -24 21 2 0.28787505D-01 0.46134634D+00 0.24364515D+06 0.24364515D+06 0.24364515D+06 0.10913013D+01  1  2  1  1  7  1       -1 0.127698447498D-03 0.100000000000D+01
  </mgrwgt>
  </event>
  <event>
  8     66 0.29788925E-05 0.26607814E+03 0.75467711E-02 0.95846223E-01
       -1 -1    0    0    0  501 0.00000000E+00 0.00000000E+00 0.50380711E+03 0.50380721E+03 0.32000000E+00 0.0000E+00 0.9000E+01
        1 -1    0    0  501    0 0.00000000E+00 0.00000000E+00 -.87578598E+03 0.87578604E+03 0.32000000E+00 0.0000E+00 0.9000E+01
       25  2    1    2    0    0 0.19552867E+03 0.11038271E+03 -.80261294E+03 0.88573361E+03 0.29986779E+03 0.0000E+00 0.0000E+00
       23  2    1    2    0    0 -.19552867E+03 -.11038271E+03 0.43063407E+03 0.49385965E+03 0.89642874E+02 0.0000E+00 0.0000E+00
       24  1    3    3    0    0 0.16575857E+03 0.25668608E+02 -.20808145E+03 0.27910552E+03 0.80419002E+02 0.0000E+00 0.9000E+01
      -11  1    4    4    0    0 -.15375250E+03 -.76084365E+02 0.39055395E+03 0.42656893E+03 0.51099893E-03 0.0000E+00 0.9000E+01
       11  1    4    4    0    0 -.41776166E+02 -.34298349E+02 0.40080120E+02 0.67290719E+02 0.51099893E-03 0.0000E+00 0.9000E+01
      -24  1    3    3    0    0 0.29770094E+02 0.84714106E+02 -.59453149E+03 0.60662809E+03 0.80419002E+02 0.0000E+00 0.9000E+01
#aMCatNLO 1  0  0  1  2 0.35889478D+03 0.00000000D+00  -5  7  0 0.00000000D+00 0.00000000D+00 0.00000000D+00 0.00000000D+00 0.00000000D+00
  <mgrwgt>
 0.8263929956D-03    4    2    0
 0.664249438990531D+03 0.000000000000000D+00 0.000000000000000D+00 0.664249438990531D+03
 0.664249438990531D+03 0.000000000000000D+00 0.000000000000000D+00 -.664249438990531D+03
 0.231577300050593D+03 0.165758573017931D+03 0.256686083419840D+02 -.137934941045396D+03
 0.552329733666415D+03 -.153752500673943D+03 -.760843652612527D+02 0.525013783239369D+03
 0.811011446625462D+02 -.417761662052727D+02 -.342983492910534D+02 0.604629708058872D+02
 0.463490699601508D+03 0.297700938612845D+02 0.847141062103221D+02 -.447541812999860D+03
 0.000000000000000D+00 -.000000000000000D+00 -.000000000000000D+00 -.000000000000000D+00
 0.861072039423960D+03 0.000000000000000D+00 0.000000000000000D+00 0.861072039423960D+03
 0.874185305834984D+03 0.000000000000000D+00 0.000000000000000D+00 -.874185305834984D+03
 0.285094262456422D+03 0.232674693095640D+03 0.405950953053875D+02 -.137934941045396D+03
 0.527114815805939D+03 -.139494878291237D+02 -.448995349655126D+02 0.525013783239369D+03
 0.709760668787944D+02 -.220800619737854D+02 -.299048841185401D+02 0.604629708058872D+02
 0.492937934920902D+03 0.153640842703964D+03 0.112345043503161D+03 -.447541812999860D+03
 0.359134265196887D+03 -.350285985996695D+03 -.781357197244961D+02 -.131132664110241D+02
0.281897136822D-03 0.000000000000D+00 0.000000000000D+00 0.100644720251D-04 0.000000000000D+00  7 -1 1 24 -11 11 -24 21 0 0.77508799D-01 0.13473632D+00 0.70797577D+05 0.70797577D+05 0.70797577D+05 0.11342416D+01  1  2  2  1  7  1       -1 0.119208145703D-02 0.100000000000D+01
0.276403524303D-06 0.000000000000D+00 -.108255923062D-05 0.100644720251D-04 0.000000000000D+00  7 -1 1 24 -11 11 -24 21 2 0.77508799D-01 0.13473632D+00 0.70797577D+05 0.70797577D+05 0.70797577D+05 0.11342416D+01  1  2  3  1  7  1       -1 0.150373036947D-05 0.100000000000D+01
0.173218604512D-04 0.000000000000D+00 0.000000000000D+00 0.100644720251D-04 0.000000000000D+00  7 -1 1 24 -11 11 -24 21 2 0.77508799D-01 0.13473632D+00 0.70797577D+05 0.70797577D+05 0.70797577D+05 0.11342416D+01  1  2 15  1  7  1       -1 0.942368867465D-04 0.100000000000D+01
-.848161519709D-04 0.000000000000D+00 0.000000000000D+00 0.100644720251D-04 0.000000000000D+00  7 -1 1 24 -11 11 -24 21 2 0.77508799D-01 0.13473632D+00 0.70797577D+05 0.70797577D+05 0.70797577D+05 0.11342416D+01  1  2  4  1  7  1       -1 -.461429078596D-03 0.100000000000D+01
  </mgrwgt>
  </event>
  <event>
  8     66 0.29788925E-05 0.24250297E+03 0.75467711E-02 0.92968822E-01
       -3 -1    0    0    0  501 0.00000000E+00 0.00000000E+00 0.93846938E+02 0.93848270E+02 0.50000000E+00 0.0000E+00 0.9000E+01
        3 -1    0    0  501    0 0.00000000E+00 0.00000000E+00 -.78719395E+03 0.78719411E+03 0.50000000E+00 0.0000E+00 0.9000E+01
       25  2    1    2    0    0 0.27561774E+02 -.12943692E+03 -.25869944E+03 0.41769779E+03 0.30005412E+03 0.0000E+00 0.0000E+00
       23  2    1    2    0    0 -.27561774E+02 0.12943692E+03 -.43464757E+03 0.46334459E+03 0.90863240E+02 0.0000E+00 0.0000E+00
       24  1    3    3    0    0 -.25456987E+02 0.66450344E+02 -.10899891E+03 0.15300878E+03 0.80419002E+02 0.0000E+00 0.9000E+01
      -13  1    4    4    0    0 -.12000287E+02 0.14000855E+03 -.39926040E+03 0.42326738E+03 0.10565837E+00 0.0000E+00 0.9000E+01
       13  1    4    4    0    0 -.15561487E+02 -.10571629E+02 -.35387179E+02 0.40077211E+02 0.10565837E+00 0.0000E+00 0.9000E+01
      -24  1    3    3    0    0 0.53018761E+02 -.19588727E+03 -.14970052E+03 0.26468901E+03 0.80419002E+02 0.0000E+00 0.9000E+01
#aMCatNLO 1  0  0  2  2 0.50261863D+03 0.00000000D+00  -5  7  0 0.00000000D+00 0.00000000D+00 0.00000000D+00 0.00000000D+00 0.00000000D+00
  <mgrwgt>
 0.7086506366D-04    5    2    0
 0.271802131607772D+03 0.000000000000000D+00 0.000000000000000D+00 0.271802131607772D+03
 0.271802131607772D+03 0.000000000000000D+00 0.000000000000000D+00 -.271802131607772D+03
 0.108963723216437D+03 -.254569868047694D+02 0.664503427174776D+02 0.184978592915348D+02
 0.176765747802919D+03 -.120002827541209D+02 0.140008755818917D+03 -.107236519452028D+03
 0.198195845471534D+02 -.155614912150183D+02 -.105718324240719D+02 -.623636769153405D+01
 0.238055207649035D+03 0.530187607739086D+02 -.195887266112323D+03 0.949750278520276D+02
 0.000000000000000D+00 0.000000000000000D+00 0.000000000000000D+00 -.000000000000000D+00
 0.437246435070149D+03 0.000000000000000D+00 0.000000000000000D+00 0.437246435070149D+03
 0.131186929531842D+04 0.000000000000000D+00 0.000000000000000D+00 -.131186929531842D+04
 0.932667928976087D+02 -.420634669438714D+02 -.109532028798575D+02 0.184978592915348D+02
 0.116500221943122D+03 -.360822838073925D+02 0.277614733732600D+02 -.107236519452028D+03
 0.395686725644027D+02 -.204382523051337D+02 -.333026336681741D+02 -.623636769153405D+01
 0.491023066625003D+03 -.685066009408091D+01 -.474941310631360D+03 0.949750278520276D+02
 0.100875697635843D+04 0.105434663150479D+03 0.491435673806132D+03 -.874622860248272D+03
0.750790773536D-05 0.000000000000D+00 0.000000000000D+00 0.138040544490D-05 0.000000000000D+00  7 -3 3 24 -13 13 -24 21 0 0.14438105D-01 0.12110688D+00 0.58807691D+05 0.58807691D+05 0.58807691D+05 0.11411485D+01  1  2  2  2  7  2        3 0.699812648035D-04 0.100000000000D+01
-.410508209204D-06 0.000000000000D+00 -.288323425813D-07 0.138040544490D-05 0.000000000000D+00  7 -3 3 24 -13 13 -24 21 2 0.14438105D-01 0.12110688D+00 0.58807691D+05 0.58807691D+05 0.58807691D+05 0.11411485D+01  1  2  3  2  7  2        3 -.498274924912D-05 0.100000000000D+01
0.483792860537D-06 0.000000000000D+00 0.000000000000D+00 0.138040544490D-05 0.000000000000D+00  7 -3 3 24 -13 13 -24 21 2 0.14438105D-01 0.12110688D+00 0.58807691D+05 0.58807691D+05 0.58807691D+05 0.11411485D+01  1  2 15  2  7  2        3 0.587227845515D-05 0.100000000000D+01
-.128819316888D-06 0.000000000000D+00 -.306301733767D-05 0.138040544490D-05 0.000000000000D+00  7 -3 3 24 -13 13 -24 21 2 0.14438105D-01 0.63884518D+00 0.58807691D+05 0.58807691D+05 0.58807691D+05 0.11411485D+01  1  2  5  2  7  2        3 -.248965905652D-08 0.100000000000D+01
-.144730526707D-06 0.000000000000D+00 -.622482168180D-06 0.138040544490D-05 0.000000000000D+00  7 -3 21 24 -13 13 -24 -3 2 0.14438105D-01 0.63884518D+00 0.58807691D+05 0.58807691D+05 0.58807691D+05 0.11411485D+01  1  2  5  4  7  2        3 -.324069120910D-08 0.100000000000D+01
  </mgrwgt>
  </event>
  <event>
  8     66 0.29788925E-05 0.25232719E+03 0.75467711E-02 0.87680769E-01
       -1 -1    0    0    0  501 0.00000000E+00 0.00000000E+00 0.14182426E+03 0.14182462E+03 0.32000000E+00 0.0000E+00 0.9000E+01
        1 -1    0    0  501    0 0.00000000E+00 0.00000000E+00 -.13989207E+04 0.13989207E+04 0.32000000E+00 0.0000E+00 0.9000E+01
       25  2    1    2    0    0 -.89844321E+02 -.18642449E+03 -.12346190E+03 0.38476618E+03 0.29996013E+03 0.0000E+00 0.0000E+00
       23  2    1    2    0    0 0.89844321E+02 0.18642449E+03 -.11336345E+04 0.11559791E+04 0.91293344E+02 0.0000E+00 0.0000E+00
       24  1    3    3    0    0 -.20730049E+02 -.14043932E+03 0.54972778E+02 0.17216898E+03 0.80419002E+02 0.0000E+00 0.9000E+01
      -13  1    4    4    0    0 0.10823236E+03 0.14834794E+03 -.94261434E+03 0.96033492E+03 0.10565837E+00 0.0000E+00 0.9000E+01
       13  1    4    4    0    0 -.18388038E+02 0.38076550E+02 -.19102016E+03 0.19564421E+03 0.10565837E+00 0.0000E+00 0.9000E+01
      -24  1    3    3    0    0 -.69114272E+02 -.45985174E+02 -.17843468E+03 0.21259720E+03 0.80419002E+02 0.0000E+00 0.9000E+01
#aMCatNLO 1  0  0  2  1 0.93209008D+03 0.00000000D+00  -5  7  0 0.00000000D+00 0.00000000D+00 0.00000000D+00 0.00000000D+00 0.00000000D+00
  <mgrwgt>
 0.8447019258D-03    3    2    0
 0.445422484436974D+03 0.000000000000000D+00 0.000000000000000D+00 0.445422484436974D+03
 0.445422484436974D+03 0.000000000000000D+00 0.000000000000000D+00 -.445422484436974D+03
 0.375345484461644D+03 -.207300490581199D+02 -.140439316983509D+03 0.338029702929534D+03
 0.330781176462609D+03 0.108232527844222D+03 0.148348088411186D+03 -.275126791285734D+03
 0.688187406129623D+02 -.183882070917765D+02 0.380764024377954D+02 -.542962289381055D+02
 0.115899567336733D+03 -.691142716943260D+02 -.459851738654726D+02 -.860668270569415D+01
 0.000000000000000D+00 0.000000000000000D+00 0.000000000000000D+00 0.000000000000000D+00
 0.111618726072152D+04 0.000000000000000D+00 0.000000000000000D+00 0.111618726072152D+04
 0.110530595415274D+04 0.000000000000000D+00 0.000000000000000D+00 -.110530595415274D+04
 0.691495380420549D+03 -.593109821687183D+02 -.594909045586081D+03 0.338029702929534D+03
 0.314507728509488D+03 0.848964812985280D+02 -.126542275434507D+03 -.275126791285734D+03
 0.615338069384571D+02 -.231022399746777D+02 -.174532354476912D+02 -.542962289381055D+02
 0.221802709639203D+03 -.813268418987342D+02 -.189844925790772D+03 -.860668270569415D+01
 0.932153589366553D+03 0.788435827436022D+02 0.928749482259052D+03 0.108813065687795D+02
0.494983204834D-04 0.000000000000D+00 0.000000000000D+00 0.577819813586D-05 0.000000000000D+00  7 -1 1 24 -13 13 -24 21 0 0.21819147D-01 0.21521859D+00 0.63669013D+05 0.63669013D+05 0.63669013D+05 0.11381762D+01  1  2  2  2  7  2        1 0.815243522653D-03 0.100000000000D+01
-.167009115345D-05 0.000000000000D+00 -.190086583863D-06 0.577819813586D-05 0.000000000000D+00  7 -1 1 24 -13 13 -24 21 2 0.21819147D-01 0.21521859D+00 0.63669013D+05 0.63669013D+05 0.63669013D+05 0.11381762D+01  1  2  3  2  7  2        1 -.356333008971D-04 0.100000000000D+01
0.305077206908D-05 0.000000000000D+00 0.000000000000D+00 0.577819813586D-05 0.000000000000D+00  7 -1 1 24 -13 13 -24 21 2 0.21819147D-01 0.21521859D+00 0.63669013D+05 0.63669013D+05 0.63669013D+05 0.11381762D+01  1  2 15  2  7  2        1 0.650917040554D-04 0.100000000000D+01
  </mgrwgt>
  </event>
  <event>
  8     66 -.29788925E-05 0.19896409E+03 0.75467711E-02 0.96531458E-01
       -1 -1    0    0    0  501 0.00000000E+00 0.00000000E+00 0.47892739E+02 0.47893808E+02 0.32000000E+00 0.0000E+00 0.9000E+01
        1 -1    0    0  501    0 0.00000000E+00 0.00000000E+00 -.27375386E+04 0.27375386E+04 0.32000000E+00 0.0000E+00 0.9000E+01
       25  2    1    2    0    0 0.27334356E+03 0.69835862E+02 -.12576138E+04 0.13231288E+04 0.29913846E+03 0.0000E+00 0.0000E+00
       23  2    1    2    0    0 -.27334356E+03 -.69835862E+02 -.14320321E+04 0.14623035E+04 0.89566065E+02 0.0000E+00 0.0000E+00
       24  1    3    3    0    0 0.27515895E+03 0.97720376E+02 -.75720296E+03 0.81552759E+03 0.80419002E+02 0.0000E+00 0.9000E+01
      -13  1    4    4    0    0 -.12601260E+03 -.52116204E+02 -.48859781E+03 0.50727025E+03 0.10565837E+00 0.0000E+00 0.9000E+01
       13  1    4    4    0    0 -.14733096E+03 -.17719657E+02 -.94343424E+03 0.95503328E+03 0.10565837E+00 0.0000E+00 0.9000E+01
      -24  1    3    3    0    0 -.18153903E+01 -.27884514E+02 -.50041081E+03 0.50760125E+03 0.80419002E+02 0.0000E+00 0.9000E+01
#aMCatNLO 1  0  0  1  2 0.15821447D+03 0.00000000D+00  -5  7  0 0.00000000D+00 0.00000000D+00 0.00000000D+00 0.00000000D+00 0.00000000D+00
  <mgrwgt>
 -.4755747359D-03    8    2    0
 0.362090779947987D+03 0.000000000000000D+00 0.000000000000000D+00 0.362090779947987D+03
 0.362090779947987D+03 0.000000000000000D+00 0.000000000000000D+00 -.362090779947987D+03
 0.324489340354061D+03 0.275158948978044D+03 0.977203761178063D+02 0.116466290993299D+03
 0.136446286283051D+03 -.126012565440540D+03 -.521162521436854D+02 0.472426227317157D+01
 0.169400493210483D+03 -.147330993286727D+03 -.177196097986472D+02 -.817075329800439D+02
 0.938454400483782D+02 -.181539025077650D+01 -.278845141754737D+02 -.394830202864269D+02
 0.000000000000000D+00 -.000000000000000D+00 -.000000000000000D+00 0.000000000000000D+00
 0.665566529964566D+03 0.000000000000000D+00 0.000000000000000D+00 0.665566529964566D+03
 0.391849547820179D+03 0.000000000000000D+00 0.000000000000000D+00 -.391849547820179D+03
 0.387431666084214D+03 0.325100106646286D+03 0.156146097137447D+03 0.116466290993299D+03
 0.113121628123678D+03 -.108505411627680D+03 -.316347869098802D+02 0.472426227317157D+01
 0.149539177300769D+03 -.124957420618394D+03 0.845503604389289D+01 -.817075329800439D+02
 0.911704711831989D+02 0.111634496912794D+02 -.127006835031757D+02 -.394830202864269D+02
 0.316153135092885D+03 -.102800724091491D+03 -.120265662768284D+03 0.273716982144387D+03
0.541234447170D-04 0.000000000000D+00 0.000000000000D+00 0.356169120225D-06 0.000000000000D+00  7 -1 1 24 -13 13 -24 21 0 0.73681973D-02 0.42115986D+00 0.11315170D+06 0.11315170D+06 0.11315170D+06 0.11173450D+01  1  2  2  1  7  1       -1 0.606868113907D-03 0.100000000000D+01
-.298702585637D-05 0.000000000000D+00 -.207848278744D-06 0.356169120225D-06 0.000000000000D+00  7 -1 1 24 -13 13 -24 21 2 0.73681973D-02 0.42115986D+00 0.11315170D+06 0.11315170D+06 0.11315170D+06 0.11173450D+01  1  2  3  1  7  1       -1 -.418140672295D-04 0.100000000000D+01
0.342899620185D-05 0.000000000000D+00 0.000000000000D+00 0.356169120225D-06 0.000000000000D+00  7 -1 1 24 -13 13 -24 21 2 0.73681973D-02 0.42115986D+00 0.11315170D+06 0.11315170D+06 0.11315170D+06 0.11173450D+01  1  2 15  1  7  1       -1 0.480010165992D-04 0.100000000000D+01
0.530159876422D-04 0.000000000000D+00 0.000000000000D+00 0.356169120225D-06 0.000000000000D+00  7 -1 1 24 -13 13 -24 21 2 0.13617125D-01 0.42115986D+00 0.17984799D+06 0.17984799D+06 0.17984799D+06 0.11013855D+01  1  2 12  1  7  1       -1 0.274036195957D-03 0.100000000000D+01
-.694502006116D-04 0.000000000000D+00 0.000000000000D+00 0.356169120225D-06 0.000000000000D+00  7 -1 1 24 -13 13 -24 21 2 0.73681973D-02 0.42115986D+00 0.11315170D+06 0.11315170D+06 0.11315170D+06 0.11173450D+01  1  2  4  1  7  1       -1 -.972202952741D-03 0.100000000000D+01
-.743410349363D-04 0.000000000000D+00 -.177155377900D-04 0.356169120225D-06 0.000000000000D+00  7 -1 1 24 -13 13 -24 21 2 0.14943291D-01 0.42115986D+00 0.11315170D+06 0.11315170D+06 0.11315170D+06 0.11173450D+01  1  2  5  1  7  1       -1 -.349825999237D-03 0.100000000000D+01
0.355243008389D-05 0.000000000000D+00 0.000000000000D+00 0.356169120225D-06 0.000000000000D+00  7 21 1 24 -13 13 -24 1 2 0.13617125D-01 0.42115986D+00 0.17984799D+06 0.17984799D+06 0.17984799D+06 0.11013855D+01  1  2 12  3  7  1       -1 0.239261472196D-03 0.100000000000D+01
-.461092291920D-05 0.000000000000D+00 -.135477055853D-05 0.356169120225D-06 0.000000000000D+00  7 21 1 24 -13 13 -24 1 2 0.14943291D-01 0.42115986D+00 0.11315170D+06 0.11315170D+06 0.11315170D+06 0.11173450D+01  1  2  5  3  7  1       -1 -.279898515313D-03 0.100000000000D+01
  </mgrwgt>
  </event>
  <event>
  9     66 0.29788925E-05 0.33602220E+03 0.75467711E-02 0.93586913E-01
       21 -1    0    0  502  501 0.00000000E+00 0.00000000E+00 0.72825341E+03 0.72825380E+03 0.75000000E+00 0.0000E+00 0.9000E+01
        3 -1    0    0  501    0 0.00000000E+00 0.00000000E+00 -.53095894E+03 0.53095918E+03 0.50000000E+00 0.0000E+00 0.9000E+01
       25  2    1    2    0    0 -.30570570E+02 -.24221797E+03 0.29977398E+03 0.48925269E+03 0.29983271E+03 0.0000E+00 0.0000E+00
       23  2    1    2    0    0 0.35084739E+03 0.13213175E+03 0.66242988E+02 0.39159044E+03 0.91663746E+02 0.0000E+00 0.0000E+00
       24  1    3    3    0    0 -.13883172E+03 -.13122215E+03 0.12439024E+03 0.24173053E+03 0.80419002E+02 0.0000E+00 0.9000E+01
      -13  1    4    4    0    0 0.28949646E+03 0.94729442E+02 0.87030944E+02 0.31679057E+03 0.10565837E+00 0.0000E+00 0.9000E+01
       13  1    4    4    0    0 0.61350928E+02 0.37402312E+02 -.20787955E+02 0.74799863E+02 0.10565837E+00 0.0000E+00 0.9000E+01
      -24  1    3    3    0    0 0.10826115E+03 -.11099582E+03 0.17538373E+03 0.24752216E+03 0.80419002E+02 0.0000E+00 0.9000E+01
        3  1    1    2  502    0 -.32027682E+03 0.11008621E+03 -.16872250E+03 0.37836986E+03 0.50000000E+00 0.0000E+00 0.9000E+01
#aMCatNLO 2  0  0  1  1 0.33866830D+03 0.00000000D+00  -5  7  0 0.00000000D+00 0.00000000D+00 0.00000000D+00 0.00000000D+00 0.00000000D+00
  <mgrwgt>
 0.1194099250D-04    1    2    0
 0.363049572781693D+03 0.000000000000000D+00 0.000000000000000D+00 0.363049572781693D+03
 0.363049572781693D+03 0.000000000000000D+00 0.000000000000000D+00 -.363049572781693D+03
 0.271886517431550D+03 -.239660822932696D+03 -.965649623193723D+02 0.263241412047429D+02
 0.227100576237639D+03 0.177175334669959D+03 0.133336873882096D+03 -.490392758450365D+02
 0.798289682751535D+02 0.253739450254231D+02 0.497682143712678D+02 -.570258882264696D+02
 0.147283083619044D+03 0.371115432373139D+02 -.865401259339918D+02 0.797410228667631D+02
 0.000000000000000D+00 -.000000000000000D+00 0.000000000000000D+00 -.000000000000000D+00
 0.467954952497492D+03 0.000000000000000D+00 0.000000000000000D+00 0.467954952497492D+03
 0.826303605496091D+03 0.000000000000000D+00 0.000000000000000D+00 -.826303605496091D+03
 0.208934621927641D+03 -.138831723498747D+03 -.131222149143641D+03 0.263241412047429D+02
 0.308523760600213D+03 0.289496767937730D+03 0.947295182775688D+02 -.490392758450365D+02
 0.917321006884948D+02 0.613506246376892D+02 0.374022355651600D+02 -.570258882264696D+02
 0.192006238340072D+03 0.108261153727165D+03 -.110995817366960D+03 0.797410228667631D+02
 0.493061836437162D+03 -.320276822803838D+03 0.110086212667872D+03 -.358348652998599D+03
0.198159108517D-05 0.000000000000D+00 0.000000000000D+00 0.250150061021D-05 0.149842380281D-10  7 21 3 24 -13 13 -24 3 2 0.11203901D+00 0.81686019D-01 0.30088350D+06 0.30088350D+06 0.30088350D+06 0.10844574D+01  1  2  1  3  7  1       -3 0.119409924955D-04 0.100000000000D+01
  </mgrwgt>
  </event>
  <event>
  9     66 0.29788925E-05 0.20944504E+03 0.75467711E-02 0.97809151E-01
       -3 -1    0    0    0  501 0.00000000E+00 0.00000000E+00 0.57401557E+03 0.57401579E+03 0.50000000E+00 0.0000E+00 0.9000E+01
       21 -1    0    0  501  502 0.00000000E+00 0.00000000E+00 -.27493144E+03 0.27493246E+03 0.75000000E+00 0.0000E+00 0.9000E+01
       25  2    1    2    0    0 -.18839650E+03 0.10633085E+03 0.21519438E+03 0.42783084E+03 0.29988517E+03 0.0000E+00 0.0000E+00
       23  2    1    2    0    0 0.29672189E+02 0.10794258E+03 0.49205065E+02 0.15221262E+03 0.90639416E+02 0.0000E+00 0.0000E+00
       24  1    3    3    0    0 -.46247439E+02 0.15739029E+03 0.48684601E+02 0.18907124E+03 0.80419002E+02 0.0000E+00 0.9000E+01
      -13  1    4    4    0    0 -.20036280E+02 -.29994484E+01 -.18785581E+01 0.20346728E+02 0.10565837E+00 0.0000E+00 0.9000E+01
       13  1    4    4    0    0 0.49708469E+02 0.11094203E+03 0.51083623E+02 0.13186589E+03 0.10565837E+00 0.0000E+00 0.9000E+01
      -24  1    3    3    0    0 -.14214906E+03 -.51059440E+02 0.16650978E+03 0.23875959E+03 0.80419002E+02 0.0000E+00 0.9000E+01
       -3  1    1    2    0  502 0.15872431E+03 -.21427343E+03 0.34684686E+02 0.26890479E+03 0.50000000E+00 0.0000E+00 0.9000E+01
#aMCatNLO 2  0  0  2  1 0.26665804D+03 0.00000000D+00  -5  7  0 0.00000000D+00 0.00000000D+00 0.00000000D+00 0.00000000D+00 0.00000000D+00
  <mgrwgt>
 0.3405534157D-04    1    2    0
 0.221041193738536D+03 0.000000000000000D+00 0.000000000000000D+00 0.221041193738536D+03
 0.221041193738536D+03 0.000000000000000D+00 0.000000000000000D+00 -.221041193738536D+03
 0.126067458823695D+03 0.568424466703030D+01 0.872839362246376D+02 -.421306546304720D+02
 0.220797803099038D+02 -.124341466303436D+02 -.132623960830612D+02 -.125306642379697D+02
 0.106540173700473D+03 0.875581173977280D+02 0.598463478295974D+02 -.101390010036284D+02
 0.187394974643000D+03 -.808082154344147D+02 -.133867887971174D+03 0.648003198720702D+02
 0.000000000000000D+00 0.000000000000000D+00 -.000000000000000D+00 -.000000000000000D+00
 0.350943760586056D+03 0.000000000000000D+00 0.000000000000000D+00 0.350943760586056D+03
 0.449688210480669D+03 0.000000000000000D+00 0.000000000000000D+00 -.449688210480669D+03
 0.187490621215480D+03 -.462474422615335D+02 0.157390276427961D+03 -.421306546304720D+02
 0.238216571952464D+02 -.200363716528680D+02 -.299960268556494D+01 -.125306642379697D+02
 0.121991438744863D+03 0.497085676450686D+02 0.110942192552544D+03 -.101390010036284D+02
 0.182974644127669D+03 -.142149065229920D+03 -.510594382853363D+02 0.648003198720702D+02
 0.284353609783467D+03 0.158724311499252D+03 -.214273428009604D+03 -.987444498946135D+02
0.689430385894D-06 0.000000000000D+00 0.000000000000D+00 0.504615118771D-06 0.924247484030D-11  7 -3 21 24 -13 13 -24 -3 2 0.88310132D-01 0.42297216D-01 0.14527482D+06 0.14527482D+06 0.14527482D+06 0.11086505D+01  1  2  1  4  7  2        3 0.340553415744D-04 0.100000000000D+01
  </mgrwgt>
  </event>
  <event>
  8     66 0.29788925E-05 0.34352372E+03 0.75467711E-02 0.92731107E-01
       -1 -1    0    0    0  501 0.00000000E+00 0.00000000E+00 0.52021549E+03 0.52021558E+03 0.32000000E+00 0.0000E+00 0.9000E+01
        1 -1    0    0  501    0 0.00000000E+00 0.00000000E+00 -.25044925E+03 0.25044946E+03 0.32000000E+00 0.0000E+00 0.9000E+01
       25  2    1    2    0    0 0.58305703E+00 0.28263698E+03 0.23042247E+03 0.47151110E+03 0.29890501E+03 0.0000E+00 0.0000E+00
       23  2    1    2    0    0 -.58305703E+00 -.28263698E+03 0.39343765E+02 0.29915394E+03 0.89783865E+02 0.0000E+00 0.0000E+00
       24  1    3    3    0    0 -.77936623E+02 0.32005773E+02 0.14047465E+03 0.18247967E+03 0.80419002E+02 0.0000E+00 0.9000E+01
      -11  1    4    4    0    0 0.99669074E+01 0.27304500E+01 -.22556562E+01 0.10577457E+02 0.51099893E-03 0.0000E+00 0.9000E+01
       11  1    4    4    0    0 -.10549964E+02 -.28536743E+03 0.41599421E+02 0.28857648E+03 0.51099893E-03 0.0000E+00 0.9000E+01
      -24  1    3    3    0    0 0.78519680E+02 0.25063121E+03 0.89947819E+02 0.28903144E+03 0.80419002E+02 0.0000E+00 0.9000E+01
#aMCatNLO 1  0  0  2  1 0.39310618D+03 0.00000000D+00  -5  7  0 0.00000000D+00 0.00000000D+00 0.00000000D+00 0.00000000D+00 0.00000000D+00
  <mgrwgt>
 0.9681566798D-03    5    2    0
 0.360953870898443D+03 0.000000000000000D+00 0.000000000000000D+00 0.360953870898443D+03
 0.360953870898443D+03 0.000000000000000D+00 0.000000000000000D+00 -.360953870898443D+03
 0.142310961713238D+03 -.779366231705898D+02 0.320057727686316D+02 0.817722883844176D+02
 0.121347581607567D+02 0.996690744320439D+01 0.273045000490169D+01 -.636064103761402D+01
 0.292521711095632D+03 -.105499644764191D+02 -.285367434233456D+03 -.634277320332100D+02
 0.274940310827260D+03 0.785196802038046D+02 0.250631211459923D+03 -.119839153135936D+02
 0.000000000000000D+00 0.000000000000000D+00 -.000000000000000D+00 -.000000000000000D+00
 0.472775554546588D+03 0.000000000000000D+00 0.000000000000000D+00 0.472775554546588D+03
 0.103637620726958D+04 0.000000000000000D+00 0.000000000000000D+00 -.103637620726958D+04
 0.201167364222212D+03 -.129577103620219D+03 0.102587326427353D+03 0.817722883844176D+02
 0.118124615837349D+02 0.636654654802874D+01 0.765137760861509D+01 -.636064103761402D+01
 0.211060711405977D+03 -.862614032495845D+02 -.181886000059744D+03 -.634277320332100D+02
 0.397959010773748D+03 -.226478219000569D+02 0.388905670103419D+03 -.119839153135936D+02
 0.687152213830500D+03 0.232119782221832D+03 -.317258374079643D+03 -.563600652722997D+03
0.469111215126D-04 0.000000000000D+00 0.000000000000D+00 0.308433115356D-06 0.000000000000D+00  7 -1 1 24 -11 11 -24 21 0 0.80033175D-01 0.38530678D-01 0.11800855D+06 0.11800855D+06 0.11800855D+06 0.11158681D+01  1  2  2  2  7  2        1 0.105329026477D-02 0.100000000000D+01
-.259841112440D-05 0.000000000000D+00 -.180151058591D-06 0.308433115356D-06 0.000000000000D+00  7 -1 1 24 -11 11 -24 21 2 0.80033175D-01 0.38530678D-01 0.11800855D+06 0.11800855D+06 0.11800855D+06 0.11158681D+01  1  2  3  2  7  2        1 -.726450137125D-04 0.100000000000D+01
0.294205006056D-05 0.000000000000D+00 0.000000000000D+00 0.308433115356D-06 0.000000000000D+00  7 -1 1 24 -11 11 -24 21 2 0.80033175D-01 0.38530678D-01 0.11800855D+06 0.11800855D+06 0.11800855D+06 0.11158681D+01  1  2 15  2  7  2        1 0.822522906346D-04 0.100000000000D+01
-.162763445823D-04 0.000000000000D+00 -.163616476053D-04 0.308433115356D-06 0.000000000000D+00  7 -1 1 24 -11 11 -24 21 2 0.80033175D-01 0.13311233D+00 0.11800855D+06 0.11800855D+06 0.11800855D+06 0.11158681D+01  1  2  5  2  7  2        1 -.801455736920D-04 0.100000000000D+01
-.180394341579D-05 0.000000000000D+00 -.236789964509D-05 0.308433115356D-06 0.000000000000D+00  7 -1 21 24 -11 11 -24 -1 2 0.80033175D-01 0.13311233D+00 0.11800855D+06 0.11800855D+06 0.11800855D+06 0.11158681D+01  1  2  5  4  7  2        1 -.145952881906D-04 0.100000000000D+01
  </mgrwgt>
  </event>
  <event>
  8     66 0.29788925E-05 0.28775989E+03 0.75467711E-02 0.95821010E-01
       -1 -1    0    0    0  501 0.00000000E+00 0.00000000E+00 0.87162788E+03 0.87162794E+03 0.32000000E+00 0.0000E+00 0.9000E+01
        1 -1    0    0  501    0 0.00000000E+00 0.00000000E+00 -.12633371E+03 0.12633412E+03 0.32000000E+00 0.0000E+00 0.9000E+01
       25  2    1    2    0    0 -.19373683E+03 -.22085285E+02 0.67988165E+03 0.77247027E+03 0.31056327E+03 0.0000E+00 0.0000E+00
       23  2    1    2    0    0 0.19373683E+03 0.22085285E+02 0.65412524E+02 0.22549180E+03 0.92444760E+02 0.0000E+00 0.0000E+00
       24  1    3    3    0    0 -.13107138E+03 0.11425129E+03 0.29669700E+03 0.35317048E+03 0.80419002E+02 0.0000E+00 0.9000E+01
      -11  1    4    4    0    0 0.18044307E+02 0.33067806E+02 -.72470422E-01 0.37670705E+02 0.51099893E-03 0.0000E+00 0.9000E+01
       11  1    4    4    0    0 0.17569252E+03 -.10982521E+02 0.65484995E+02 0.18782109E+03 0.51099893E-03 0.0000E+00 0.9000E+01
      -24  1    3    3    0    0 -.62665444E+02 -.13633657E+03 0.38318465E+03 0.41929979E+03 0.80419002E+02 0.0000E+00 0.9000E+01
#aMCatNLO 1  0  0  2  1 0.27430662D+03 0.00000000D+00  -5  7  0 0.00000000D+00 0.00000000D+00 0.00000000D+00 0.00000000D+00 0.00000000D+00
  <mgrwgt>
 0.7165777194D-03    3    2    0
 0.331837640006050D+03 0.000000000000000D+00 0.000000000000000D+00 0.331837640006050D+03
 0.331837640006050D+03 0.000000000000000D+00 0.000000000000000D+00 -.331837640006050D+03
 0.197874175397495D+03 -.131071382818652D+03 0.114251288485525D+03 0.495369460127704D+02
 0.567264559646212D+02 0.180443067018309D+02 0.330678058040607D+02 -.424124276746958D+02
 0.208886397001315D+03 0.175692520394967D+03 -.109825208614165D+02 -.112450208381238D+03
 0.200188251648669D+03 -.626654442781458D+02 -.136336573428169D+03 0.105325690043163D+03
 0.000000000000000D+00 0.000000000000000D+00 0.000000000000000D+00 0.000000000000000D+00
 0.915311968757944D+03 0.000000000000000D+00 0.000000000000000D+00 0.915311968757944D+03
 0.392882137988771D+03 0.000000000000000D+00 0.000000000000000D+00 -.392882137988771D+03
 0.199568398942603D+03 -.169807514813803D+03 0.455173460851053D+02 0.495369460127704D+02
 0.458124118315863D+02 0.805051294638788D+01 0.153346763208621D+02 -.424124276746958D+02
 0.194327517605535D+03 0.136393893557049D+03 -.807145620944200D+02 -.112450208381238D+03
 0.278420487695218D+03 -.109312312274208D+03 -.219107438066968D+03 0.105325690043163D+03
 0.590065290671773D+03 0.134675420584574D+03 0.238969977755420D+03 0.522429830769172D+03
0.413533430990D-04 0.000000000000D+00 0.000000000000D+00 0.366062222761D-08 0.000000000000D+00  7 -1 1 24 -11 11 -24 21 0 0.13409663D+00 0.19435992D-01 0.82805752D+05 0.82805752D+05 0.82805752D+05 0.11285088D+01  1  2  2  2  7  2        1 0.707031119581D-03 0.100000000000D+01
-.224067078356D-05 0.000000000000D+00 -.158807726085D-06 0.366062222761D-08 0.000000000000D+00  7 -1 1 24 -11 11 -24 21 2 0.13409663D+00 0.19435992D-01 0.82805752D+05 0.82805752D+05 0.82805752D+05 0.11285088D+01  1  2  3  2  7  2        1 -.487883185649D-04 0.100000000000D+01
0.267911153793D-05 0.000000000000D+00 0.000000000000D+00 0.366062222761D-08 0.000000000000D+00  7 -1 1 24 -11 11 -24 21 2 0.13409663D+00 0.19435992D-01 0.82805752D+05 0.82805752D+05 0.82805752D+05 0.11285088D+01  1  2 15  2  7  2        1 0.583349183391D-04 0.100000000000D+01
  </mgrwgt>
  </event>
  <event>
  8     66 0.29788925E-05 0.31892351E+03 0.75467711E-02 0.94580372E-01
       -1 -1    0    0    0  501 0.00000000E+00 0.00000000E+00 0.24220108E+03 0.24220129E+03 0.32000000E+00 0.0000E+00 0.9000E+01
        1 -1    0    0  501    0 0.00000000E+00 0.00000000E+00 -.23008786E+04 0.23008786E+04 0.32000000E+00 0.0000E+00 0.9000E+01
       25  2    1    2    0    0 -.38626578E+03 -.29621092E+02 -.20873364E+04 0.21439910E+04 0.29940900E+03 0.0000E+00 0.0000E+00
       23  2    1    2    0    0 0.38626578E+03 0.29621092E+02 0.28658841E+02 0.39908889E+03 0.91498366E+02 0.0000E+00 0.0000E+00
       24  1    3    3    0    0 -.15735656E+03 -.87111214E+02 -.13800063E+04 0.13939993E+04 0.80419002E+02 0.0000E+00 0.9000E+01
      -11  1    4    4    0    0 0.11137445E+03 -.86099728E+01 0.46456161E+02 0.12098171E+03 0.51099893E-03 0.0000E+00 0.9000E+01
       11  1    4    4    0    0 0.27489134E+03 0.38231064E+02 -.17797320E+02 0.27810718E+03 0.51099893E-03 0.0000E+00 0.9000E+01
      -24  1    3    3    0    0 -.22890922E+03 0.57490123E+02 -.70733008E+03 0.74999174E+03 0.80419002E+02 0.0000E+00 0.9000E+01
#aMCatNLO 1  0  0  1  2 0.16430768D+03 0.00000000D+00  -5  7  0 0.00000000D+00 0.00000000D+00 0.00000000D+00 0.00000000D+00 0.00000000D+00
  <mgrwgt>
 0.7135714638D-03    9    2    0
 0.746508929483449D+03 0.000000000000000D+00 0.000000000000000D+00 0.746508929483449D+03
 0.746508929483449D+03 0.000000000000000D+00 0.000000000000000D+00 -.746508929483449D+03
 0.471570832572632D+03 -.157356557799708D+03 -.871112142394220D+02 -.428441809642845D+03
 0.270126983575255D+03 0.111374446353945D+03 -.860997277819380D+01 0.245947531647660D+03
 0.449163987361245D+03 0.274891336304601D+03 0.382310644044428D+02 0.353159208405256D+03
 0.302156055457766D+03 -.228909224858838D+03 0.574901226131730D+02 -.170664930410071D+03
 0.000000000000000D+00 0.000000000000000D+00 -.000000000000000D+00 0.000000000000000D+00
 0.847877467631597D+03 0.000000000000000D+00 0.000000000000000D+00 0.847877467631597D+03
 0.820695219559405D+03 0.000000000000000D+00 0.000000000000000D+00 -.820695219559405D+03
 0.472467924312213D+03 -.177854153916050D+03 -.395504644004464D+02 -.428441809642845D+03
 0.266036603360141D+03 0.997329066638205D+02 0.184019926152066D+02 0.245947531647660D+03
 0.443766265466689D+03 0.255503441952756D+03 0.832169636259330D+02 0.353159208405256D+03
 0.319760944376104D+03 -.242412699570561D+03 0.888223519670923D+02 -.170664930410071D+03
 0.166540949675854D+03 0.650305048700345D+02 -.150890843807786D+03 0.271822480721916D+02
0.327904660614D-03 0.000000000000D+00 0.000000000000D+00 0.773701333122D-05 0.000000000000D+00  7 -1 1 24 -11 11 -24 21 0 0.37261722D-01 0.35398134D+00 0.17455935D+06 0.17455935D+06 0.17455935D+06 0.11023924D+01  1  2  2  1  7  1       -1 0.539672012901D-03 0.100000000000D+01
-.107557422403D-04 0.000000000000D+00 -.125924023604D-05 0.773701333122D-05 0.000000000000D+00  7 -1 1 24 -11 11 -24 21 2 0.37261722D-01 0.35398134D+00 0.17455935D+06 0.17455935D+06 0.17455935D+06 0.11023924D+01  1  2  3  1  7  1       -1 -.215127114481D-04 0.100000000000D+01
0.202456636076D-04 0.000000000000D+00 0.000000000000D+00 0.773701333122D-05 0.000000000000D+00  7 -1 1 24 -11 11 -24 21 2 0.37261722D-01 0.35398134D+00 0.17455935D+06 0.17455935D+06 0.17455935D+06 0.11023924D+01  1  2 15  1  7  1       -1 0.404936367509D-04 0.100000000000D+01
0.227592970807D-03 0.000000000000D+00 0.000000000000D+00 0.773701333122D-05 0.000000000000D+00  7 -1 1 24 -11 11 -24 21 2 0.43957737D-01 0.35398134D+00 0.25200552D+06 0.25200552D+06 0.25200552D+06 0.10901982D+01  1  2 12  1  7  1       -1 0.325955733215D-03 0.100000000000D+01
-.245327148241D-03 0.000000000000D+00 0.000000000000D+00 0.773701333122D-05 0.000000000000D+00  7 -1 1 24 -11 11 -24 21 2 0.37261722D-01 0.35398134D+00 0.17455935D+06 0.17455935D+06 0.17455935D+06 0.11023924D+01  1  2  4  1  7  1       -1 -.490682282316D-03 0.100000000000D+01
-.435140822397D-03 0.000000000000D+00 -.202538301864D-03 0.773701333122D-05 0.000000000000D+00  7 -1 1 24 -11 11 -24 21 2 0.47323339D-01 0.35398134D+00 0.17455935D+06 0.17455935D+06 0.17455935D+06 0.11023924D+01  1  2  5  1  7  1       -1 -.571778752447D-03 0.100000000000D+01
0.475555598763D-03 0.000000000000D+00 0.196886547593D-03 0.773701333122D-05 0.000000000000D+00  7 -1 1 24 -11 11 -24 21 2 0.37261722D-01 0.35398134D+00 0.17455935D+06 0.17455935D+06 0.17455935D+06 0.11023924D+01  1  2  6  1  7  1       -1 0.951165446803D-03 0.100000000000D+01
0.561135676144D-05 0.000000000000D+00 0.000000000000D+00 0.773701333122D-05 0.000000000000D+00  7 21 1 24 -11 11 -24 1 2 0.43957737D-01 0.35398134D+00 0.25200552D+06 0.25200552D+06 0.25200552D+06 0.10901982D+01  1  2 12  3  7  1       -1 0.758665761731D-04 0.100000000000D+01
-.110931762237D-04 0.000000000000D+00 -.663074115210D-05 0.773701333122D-05 0.000000000000D+00  7 21 1 24 -11 11 -24 1 2 0.47323339D-01 0.35398134D+00 0.17455935D+06 0.17455935D+06 0.17455935D+06 0.11023924D+01  1  2  5  3  7  1       -1 -.135608195804D-03 0.100000000000D+01
  </mgrwgt>
  </event>
  <event>
  7     66 0.29788925E-05 0.21920824E+03 0.75467711E-02 0.98682243E-01
       -1 -1    0    0    0  501 0.00000000E+00 0.00000000E+00 0.83066501E+03 0.83066507E+03 0.32000000E+00 0.0000E+00 0.9000E+01
        1 -1    0    0  501    0 0.00000000E+00 0.00000000E+00 -.22350817E+03 0.22350840E+03 0.32000000E+00 0.0000E+00 0.9000E+01
       25  2    1    2    0    0 -.34535746E+02 0.20705847E+03 0.41669253E+02 0.36850737E+03 0.29999238E+03 0.0000E+00 0.0000E+00
       24  1    3    3    0    0 -.27776840E+02 0.37157497E+02 0.13077149E+03 0.16037653E+03 0.80419002E+02 0.0000E+00 0.9000E+01
      -13  1    1    2    0    0 -.95600503E+02 -.86019451E+02 0.45941122E+02 0.13656281E+03 0.10565837E+00 0.0000E+00 0.9000E+01
       13  1    1    2    0    0 0.13013625E+03 -.12103902E+03 0.51954646E+03 0.54910329E+03 0.10565837E+00 0.0000E+00 0.9000E+01
      -24  1    3    3    0    0 -.67589058E+01 0.16990098E+03 -.89102235E+02 0.20813085E+03 0.80419002E+02 0.0000E+00 0.9000E+01
#aMCatNLO 1  0  0  2  1 0.10451004D+03 0.00000000D+00  -5  7  0 0.00000000D+00 0.00000000D+00 0.00000000D+00 0.00000000D+00 0.00000000D+00
  <mgrwgt>
 0.6155082809D-02    9    2    0
 0.430883476334893D+03 0.000000000000000D+00 0.000000000000000D+00 0.430883476334893D+03
 0.430883476334893D+03 0.000000000000000D+00 0.000000000000000D+00 -.430883476334893D+03
 0.104048686292985D+03 -.277774141195823D+02 0.371609368399565D+02 0.469722599300004D+02
 0.134672628585714D+03 -.955877755396467D+02 -.860211355282777D+02 -.400007287432804D+02
 0.305654423997376D+03 0.130125845587926D+03 -.121051271701366D+03 0.248673442165980D+03
 0.317391213793710D+03 -.676065592869657D+01 0.169911470389687D+03 -.255644973352700D+03
 0.000000000000000D+00 -.000000000000000D+00 -.000000000000000D+00 -.000000000000000D+00
 0.484745836998697D+03 0.000000000000000D+00 0.000000000000000D+00 0.484745836998697D+03
 0.487892565899062D+03 0.000000000000000D+00 0.000000000000000D+00 -.487892565899062D+03
 0.101559173083385D+03 -.153595588953685D+02 0.374798670037475D+02 0.469722599300004D+02
 0.123803011691317D+03 -.799769273469680D+02 -.856201991120357D+02 -.400007287432804D+02
 0.323292694510672D+03 0.168111622420623D+03 -.120075675689958D+03 0.248673442165980D+03
 0.319426124184939D+03 0.317004492609280D+02 0.170899274350696D+03 -.255644973352700D+03
 0.104557399427446D+03 -.104475585439214D+03 -.268326655244971D+01 -.314672890036541D+01
0.459528691680D-03 0.000000000000D+00 0.000000000000D+00 0.529687777656D-09 0.000000000000D+00  7 -1 1 24 -13 13 -24 21 0 0.12779464D+00 0.34385895D-01 0.86220231D+05 0.86220231D+05 0.86220231D+05 0.11270447D+01  1  2  2  2  7  2        1 0.423336275631D-02 0.100000000000D+01
-.209640682715D-04 0.000000000000D+00 -.176471117273D-05 0.529687777656D-09 0.000000000000D+00  7 -1 1 24 -13 13 -24 21 2 0.12779464D+00 0.34385895D-01 0.86220231D+05 0.86220231D+05 0.86220231D+05 0.11270447D+01  1  2  3  2  7  2        1 -.245318710656D-03 0.100000000000D+01
0.292644021399D-04 0.000000000000D+00 0.000000000000D+00 0.529687777656D-09 0.000000000000D+00  7 -1 1 24 -13 13 -24 21 2 0.12779464D+00 0.34385895D-01 0.86220231D+05 0.86220231D+05 0.86220231D+05 0.11270447D+01  1  2 15  2  7  2        1 0.342448102539D-03 0.100000000000D+01
0.319915554380D-03 0.000000000000D+00 0.000000000000D+00 0.529687777656D-09 0.000000000000D+00  7 -1 1 24 -13 13 -24 21 2 0.12779464D+00 0.40821383D-01 0.12596254D+06 0.12596254D+06 0.12596254D+06 0.11135877D+01  1  2 12  2  7  2        1 0.288576038207D-02 0.100000000000D+01
-.301630519573D-03 0.000000000000D+00 0.000000000000D+00 0.529687777656D-09 0.000000000000D+00  7 -1 1 24 -13 13 -24 21 2 0.12779464D+00 0.34385895D-01 0.86220231D+05 0.86220231D+05 0.86220231D+05 0.11270447D+01  1  2  4  2  7  2        1 -.352963981981D-02 0.100000000000D+01
-.719854916483D-03 0.000000000000D+00 -.297903282928D-03 0.529687777656D-09 0.000000000000D+00  7 -1 1 24 -13 13 -24 21 2 0.12779464D+00 0.43573626D-01 0.86220231D+05 0.86220231D+05 0.86220231D+05 0.11270447D+01  1  2  5  2  7  2        1 -.619130854949D-02 0.100000000000D+01
0.776683072247D-03 0.000000000000D+00 0.289741350843D-03 0.529687777656D-09 0.000000000000D+00  7 -1 1 24 -13 13 -24 21 2 0.12779464D+00 0.34385895D-01 0.86220231D+05 0.86220231D+05 0.86220231D+05 0.11270447D+01  1  2  6  2  7  2        1 0.908864097391D-02 0.100000000000D+01
0.812483478551D-05 0.000000000000D+00 0.000000000000D+00 0.529687777656D-09 0.000000000000D+00  7 -1 21 24 -13 13 -24 -1 2 0.12779464D+00 0.40821383D-01 0.12596254D+06 0.12596254D+06 0.12596254D+06 0.11135877D+01  1  2 12  4  7  2        1 0.380618139980D-03 0.100000000000D+01
-.188376370190D-04 0.000000000000D+00 -.968504778929D-05 0.529687777656D-09 0.000000000000D+00  7 -1 21 24 -13 13 -24 -1 2 0.12779464D+00 0.43573626D-01 0.86220231D+05 0.86220231D+05 0.86220231D+05 0.11270447D+01  1  2  5  4  7  2        1 -.809480466307D-03 0.100000000000D+01
  </mgrwgt>
  </event>
  <event>
  8     66 0.29788925E-05 0.40585865E+03 0.75467711E-02 0.92950752E-01
       -3 -1    0    0    0  501 0.00000000E+00 0.00000000E+00 0.53265283E+03 0.53265306E+03 0.50000000E+00 0.0000E+00 0.9000E+01
        3 -1    0    0  501    0 0.00000000E+00 0.00000000E+00 -.45062359E+03 0.45062387E+03 0.50000000E+00 0.0000E+00 0.9000E+01
       25  2    1    2    0    0 -.21068102E+03 0.27525209E+03 -.22570039E+03 0.51089298E+03 0.29986791E+03 0.0000E+00 0.0000E+00
       23  2    1    2    0    0 0.21068102E+03 -.27525209E+03 0.30772962E+03 0.47238395E+03 0.91098141E+02 0.0000E+00 0.0000E+00
       24  1    3    3    0    0 0.32761296E+00 0.20739697E+03 -.10413331E+03 0.24561061E+03 0.80419002E+02 0.0000E+00 0.9000E+01
      -13  1    4    4    0    0 0.14150742E+01 -.34369795E+02 0.96463941E+01 0.35726031E+02 0.10565837E+00 0.0000E+00 0.9000E+01
       13  1    4    4    0    0 0.20926595E+03 -.24088229E+03 0.29808323E+03 0.43665792E+03 0.10565837E+00 0.0000E+00 0.9000E+01
      -24  1    3    3    0    0 -.21100864E+03 0.67855116E+02 -.12156708E+03 0.26528236E+03 0.80419002E+02 0.0000E+00 0.9000E+01
#aMCatNLO 1  0  0  1  1 0.29935289D+03 0.00000000D+00  -5  7  0 0.00000000D+00 0.00000000D+00 0.00000000D+00 0.00000000D+00 0.00000000D+00
  <mgrwgt>
 0.7844645487D-04    7    2    0
 0.489924667916661D+03 0.000000000000000D+00 0.000000000000000D+00 0.489924667916661D+03
 0.489924667916661D+03 0.000000000000000D+00 0.000000000000000D+00 -.489924667916661D+03
 0.255187418936065D+03 0.327612953008966D+00 0.207396970912142D+03 -.125059153823705D+03
 0.350429359690538D+02 0.141479464730919D+01 -.343695170824465D+02 0.668894707383507D+01
 0.413231506552279D+03 0.209266230140463D+03 -.240882569548348D+03 0.262570963013906D+03
 0.276387474375925D+03 -.211008637740781D+03 0.678551157186527D+02 -.144200756264036D+03
 0.000000000000000D+00 0.000000000000000D+00 0.000000000000000D+00 0.000000000000000D+00
 0.697598469699929D+03 0.000000000000000D+00 0.000000000000000D+00 0.697598469699929D+03
 0.633166852297611D+03 0.000000000000000D+00 0.000000000000000D+00 -.633166852297611D+03
 0.227219669892000D+03 -.559753590593348D+02 0.162445466709712D+03 -.125059153823705D+03
 0.428554013641833D+02 -.767692064513450D+01 -.416282152216136D+02 0.668894707383507D+01
 0.428039447468611D+03 0.111079333480000D+03 -.319273612509432D+03 0.262570963013906D+03
 0.326442397798230D+03 -.281366462505921D+03 0.116824139488310D+02 -.144200756264036D+03
 0.306208405474515D+03 0.233939408730390D+03 0.186773947072503D+03 0.644316174023182D+02
0.642393502762D-04 0.000000000000D+00 0.000000000000D+00 0.712314923349D-05 0.000000000000D+00  7 -3 3 24 -13 13 -24 21 0 0.81946628D-01 0.69326745D-01 0.16472124D+06 0.16472124D+06 0.16472124D+06 0.11043576D+01  1  2  2  1  7  1       -3 0.728219265643D-04 0.100000000000D+01
-.341508519073D-05 0.000000000000D+00 -.246696019670D-06 0.712314923349D-05 0.000000000000D+00  7 -3 3 24 -13 13 -24 21 2 0.81946628D-01 0.69326745D-01 0.16472124D+06 0.16472124D+06 0.16472124D+06 0.11043576D+01  1  2  3  1  7  1       -3 -.472152198249D-05 0.100000000000D+01
0.409288088001D-05 0.000000000000D+00 0.000000000000D+00 0.712314923349D-05 0.000000000000D+00  7 -3 3 24 -13 13 -24 21 2 0.81946628D-01 0.69326745D-01 0.16472124D+06 0.16472124D+06 0.16472124D+06 0.11043576D+01  1  2 15  1  7  1       -3 0.565860760930D-05 0.100000000000D+01
-.236032646138D-04 0.000000000000D+00 0.000000000000D+00 0.712314923349D-05 0.000000000000D+00  7 -3 3 24 -13 13 -24 21 2 0.81946628D-01 0.69326745D-01 0.16472124D+06 0.16472124D+06 0.16472124D+06 0.11043576D+01  1  2  4  1  7  1       -3 -.326326655145D-04 0.100000000000D+01
-.248098469654D-04 0.000000000000D+00 -.213511436622D-04 0.712314923349D-05 0.000000000000D+00  7 -3 3 24 -13 13 -24 21 2 0.14204513D+00 0.69326745D-01 0.16472124D+06 0.16472124D+06 0.16472124D+06 0.11043576D+01  1  2  5  1  7  1       -3 -.770853657909D-05 0.100000000000D+01
0.341275122804D-04 0.000000000000D+00 0.184835060948D-04 0.712314923349D-05 0.000000000000D+00  7 -3 3 24 -13 13 -24 21 2 0.81946628D-01 0.69326745D-01 0.16472124D+06 0.16472124D+06 0.16472124D+06 0.11043576D+01  1  2  6  1  7  1       -3 0.471829516514D-04 0.100000000000D+01
-.445586065662D-06 0.000000000000D+00 -.130089739908D-05 0.712314923349D-05 0.000000000000D+00  7 21 3 24 -13 13 -24 3 2 0.14204513D+00 0.69326745D-01 0.16472124D+06 0.16472124D+06 0.16472124D+06 0.11043576D+01  1  2  5  3  7  1       -3 -.215430687455D-05 0.100000000000D+01
  </mgrwgt>
  </event>
  <event>
  8     66 0.29788925E-05 0.20614249E+03 0.75467711E-02 0.96523289E-01
       -1 -1    0    0    0  501 0.00000000E+00 0.00000000E+00 0.10423143E+03 0.10423192E+03 0.32000000E+00 0.0000E+00 0.9000E+01
        1 -1    0    0  501    0 0.00000000E+00 0.00000000E+00 -.55691409E+03 0.55691419E+03 0.32000000E+00 0.0000E+00 0.9000E+01
       25  2    1    2    0    0 -.10361548E+03 0.35977846E+02 -.38751260E+03 0.50214772E+03 0.29992623E+03 0.0000E+00 0.0000E+00
       23  2    1    2    0    0 0.10361548E+03 -.35977846E+02 -.65170065E+02 0.15899839E+03 0.94882967E+02 0.0000E+00 0.0000E+00
       24  1    3    3    0    0 -.14188297E+03 -.49973305E+02 -.31627541E+03 0.35934031E+03 0.80419002E+02 0.0000E+00 0.9000E+01
      -13  1    4    4    0    0 0.38093498E+02 0.81354234E+01 0.19197019E+02 0.43426218E+02 0.10565837E+00 0.0000E+00 0.9000E+01
       13  1    4    4    0    0 0.65521978E+02 -.44113270E+02 -.84367084E+02 0.11557217E+03 0.10565837E+00 0.0000E+00 0.9000E+01
      -24  1    3    3    0    0 0.38267493E+02 0.85951151E+02 -.71237190E+02 0.14280740E+03 0.80419002E+02 0.0000E+00 0.9000E+01
#aMCatNLO 1  0  0  1  1 0.33684011D+03 0.00000000D+00  -5  7  0 0.00000000D+00 0.00000000D+00 0.00000000D+00 0.00000000D+00 0.00000000D+00
  <mgrwgt>
 0.7326151073D-03    3    2    0
 0.240931823203314D+03 0.000000000000000D+00 0.000000000000000D+00 0.240931823203314D+03
 0.240931823203314D+03 0.000000000000000D+00 0.000000000000000D+00 -.240931823203314D+03
 0.195914457366561D+03 -.141882978921662D+03 -.499732998478592D+02 -.963698513306654D+02
 0.776178712028317D+02 0.380934781212091D+02 0.813547483589700D+01 0.671359434571588D+02
 0.793140811014551D+02 0.655220159304598D+02 -.441133275023222D+02 -.718353854653983D+01
 0.129017236735780D+03 0.382674848699930D+02 0.859511525142844D+02 0.364174464200465D+02
 0.000000000000000D+00 0.000000000000000D+00 0.000000000000000D+00 -.000000000000000D+00
 0.348012059656424D+03 0.000000000000000D+00 0.000000000000000D+00 0.348012059656424D+03
 0.818755479286437D+03 0.000000000000000D+00 0.000000000000000D+00 -.818755479286437D+03
 0.343297883864131D+03 -.293333876718971D+03 -.126705602223203D+03 -.963698513306654D+02
 0.683776119415258D+02 -.291290342061290D+01 -.126403285006860D+02 0.671359434571588D+02
 0.698505412153683D+02 0.236255045896442D+02 -.653401133677846D+02 -.718353854653983D+01
 0.106397285638923D+03 -.278544081986965D+02 0.524506241822100D+02 0.364174464200465D+02
 0.578844216282914D+03 0.300475683748636D+03 0.152235419909464D+03 -.470743419630014D+03
0.576921201957D-05 0.000000000000D+00 0.000000000000D+00 0.126600448088D-06 0.000000000000D+00  7 -1 1 24 -13 13 -24 21 0 0.16035649D-01 0.85679136D-01 0.42494724D+05 0.42494724D+05 0.42494724D+05 0.11535607D+01  1  2  2  1  7  1       -1 0.721979439672D-03 0.100000000000D+01
-.311034663254D-06 0.000000000000D+00 -.221552932236D-07 0.126600448088D-06 0.000000000000D+00  7 -1 1 24 -13 13 -24 21 2 0.16035649D-01 0.85679136D-01 0.42494724D+05 0.42494724D+05 0.42494724D+05 0.11535607D+01  1  2  3  1  7  1       -1 -.517962171561D-04 0.100000000000D+01
0.374901514269D-06 0.000000000000D+00 0.000000000000D+00 0.126600448088D-06 0.000000000000D+00  7 -1 1 24 -13 13 -24 21 2 0.16035649D-01 0.85679136D-01 0.42494724D+05 0.42494724D+05 0.42494724D+05 0.11535607D+01  1  2 15  1  7  1       -1 0.624318847363D-04 0.100000000000D+01
  </mgrwgt>
  </event>
  <event>
  8     66 0.29788925E-05 0.18767994E+03 0.75467711E-02 0.95876077E-01
       -1 -1    0    0    0  501 0.00000000E+00 0.00000000E+00 0.21242676E+03 0.21242700E+03 0.32000000E+00 0.0000E+00 0.9000E+01
        1 -1    0    0  501    0 0.00000000E+00 0.00000000E+00 -.35629652E+03 0.35629667E+03 0.32000000E+00 0.0000E+00 0.9000E+01
       25  2    1    2    0    0 -.19604285E+02 -.13623604E+03 -.20994977E+03 0.39074145E+03 0.29942509E+03 0.0000E+00 0.0000E+00
       23  2    1    2    0    0 0.19604285E+02 0.13623604E+03 0.66080014E+02 0.17798222E+03 0.91468658E+02 0.0000E+00 0.0000E+00
       24  1    3    3    0    0 -.53058060E+01 -.21463255E+02 -.23347107E+03 0.24792091E+03 0.80419002E+02 0.0000E+00 0.9000E+01
      -13  1    4    4    0    0 0.13822883E+02 -.87785060E+00 0.34476050E+02 0.37154433E+02 0.10565837E+00 0.0000E+00 0.9000E+01
       13  1    4    4    0    0 0.57814024E+01 0.13711389E+03 0.31603964E+02 0.14082779E+03 0.10565837E+00 0.0000E+00 0.9000E+01
      -24  1    3    3    0    0 -.14298479E+02 -.11477278E+03 0.23521296E+02 0.14282054E+03 0.80419002E+02 0.0000E+00 0.9000E+01
#aMCatNLO 1  0  0  2  1 0.36307073D+03 0.00000000D+00  -5  7  0 0.00000000D+00 0.00000000D+00 0.00000000D+00 0.00000000D+00 0.00000000D+00
  <mgrwgt>
 0.4933790153D-03    5    2    0
 0.275112751527481D+03 0.000000000000000D+00 0.000000000000000D+00 0.275112751527481D+03
 0.275112751527481D+03 0.000000000000000D+00 0.000000000000000D+00 -.275112751527481D+03
 0.195209172408211D+03 -.530580607065110D+01 -.214632560451255D+02 -.176495275007038D+03
 0.474179909117874D+02 0.138228928863891D+02 -.878032326872429D+00 0.453500005909012D+02
 0.153826072077478D+03 0.578139241834717D+01 0.137114073473320D+03 0.694893287350180D+02
 0.153772267657486D+03 -.142984792340851D+02 -.114772785101322D+03 0.616559456811191D+02
 0.000000000000000D+00 -.000000000000000D+00 -.000000000000000D+00 -.000000000000000D+00
 0.404618572268831D+03 0.000000000000000D+00 0.000000000000000D+00 0.404618572268831D+03
 0.768954342114382D+03 0.000000000000000D+00 0.000000000000000D+00 -.768954342114382D+03
 0.229462543234737D+03 0.121909087880285D+03 -.131694717346572D+02 -.176495275007038D+03
 0.658750144098262D+02 0.477610082034205D+02 0.133456558207853D+01 0.453500005909012D+02
 0.193989928704881D+03 0.109973345929959D+03 0.143906875498883D+03 0.694893287350180D+02
 0.169890580731730D+03 0.826581425916798D+02 -.108451691053917D+03 0.616559456811191D+02
 0.514354847302039D+03 -.362301584605345D+03 -.236202782923870D+02 -.364335769845550D+03
0.637255132393D-05 0.000000000000D+00 0.000000000000D+00 0.639014976704D-06 0.000000000000D+00  7 -1 1 24 -13 13 -24 21 0 0.32681070D-01 0.54814879D-01 0.35223759D+05 0.35223759D+05 0.35223759D+05 0.11609224D+01  1  2  2  2  7  2        1 0.462611092222D-03 0.100000000000D+01
-.291071936612D-06 0.000000000000D+00 -.244722750152D-07 0.639014976704D-06 0.000000000000D+00  7 -1 1 24 -13 13 -24 21 2 0.32681070D-01 0.54814879D-01 0.35223759D+05 0.35223759D+05 0.35223759D+05 0.11609224D+01  1  2  3  2  7  2        1 -.284779972233D-04 0.100000000000D+01
0.400840066043D-06 0.000000000000D+00 0.000000000000D+00 0.639014976704D-06 0.000000000000D+00  7 -1 1 24 -13 13 -24 21 2 0.32681070D-01 0.54814879D-01 0.35223759D+05 0.35223759D+05 0.35223759D+05 0.11609224D+01  1  2 15  2  7  2        1 0.392175295930D-04 0.100000000000D+01
0.117424215809D-05 0.000000000000D+00 -.222466524108D-05 0.639014976704D-06 0.000000000000D+00  7 -1 1 24 -13 13 -24 21 2 0.32681070D-01 0.19701922D+00 0.35223759D+05 0.35223759D+05 0.35223759D+05 0.11609224D+01  1  2  5  2  7  2        1 0.164757045429D-04 0.100000000000D+01
0.239275253175D-06 0.000000000000D+00 -.334419519949D-06 0.639014976704D-06 0.000000000000D+00  7 -1 21 24 -13 13 -24 -1 2 0.32681070D-01 0.19701922D+00 0.35223759D+05 0.35223759D+05 0.35223759D+05 0.11609224D+01  1  2  5  4  7  2        1 0.355268619751D-05 0.100000000000D+01
  </mgrwgt>
  </event>
  <event>
  8     66 0.29788925E-05 0.19660234E+03 0.75467711E-02 0.99095300E-01
       -1 -1    0    0    0  501 0.00000000E+00 0.00000000E+00 0.13033081E+03 0.13033120E+03 0.32000000E+00 0.0000E+00 0.9000E+01
        1 -1    0    0  501    0 0.00000000E+00 0.00000000E+00 -.33470928E+03 0.33470943E+03 0.32000000E+00 0.0000E+00 0.9000E+01
       25  2    1    2    0    0 0.83511172E+01 0.53759690E+02 -.11375684E+03 0.32613921E+03 0.30077619E+03 0.0000E+00 0.0000E+00
       23  2    1    2    0    0 -.83511172E+01 -.53759690E+02 -.90621633E+02 0.13890142E+03 0.90119254E+02 0.0000E+00 0.0000E+00
       24  1    3    3    0    0 -.74284654E+02 -.72359574E+02 -.74125417E+02 0.15071799E+03 0.80419002E+02 0.0000E+00 0.9000E+01
      -13  1    4    4    0    0 0.78679633E+01 0.16873233E+02 -.55164024E+02 0.58221058E+02 0.10565837E+00 0.0000E+00 0.9000E+01
       13  1    4    4    0    0 -.16219080E+02 -.70632923E+02 -.35457609E+02 0.80680366E+02 0.10565837E+00 0.0000E+00 0.9000E+01
      -24  1    3    3    0    0 0.82635771E+02 0.12611926E+03 -.39631423E+02 0.17542122E+03 0.80419002E+02 0.0000E+00 0.9000E+01
#aMCatNLO 1  0  0  2  1 0.22873722D+03 0.00000000D+00  -5  7  0 0.00000000D+00 0.00000000D+00 0.00000000D+00 0.00000000D+00 0.00000000D+00
  <mgrwgt>
 0.2076047698D-02    3    2    0
 0.208861334215879D+03 0.000000000000000D+00 0.000000000000000D+00 0.208861334215879D+03
 0.208861334215879D+03 0.000000000000000D+00 0.000000000000000D+00 -.208861334215879D+03
 0.131523443772905D+03 -.742846408041318D+02 -.723594909988586D+02 -.878046186149348D+01
 0.378259641045242D+02 0.786796003561518D+01 0.168732015299159D+02 -.329270988009202D+02
 0.724713184624307D+02 -.162191071956156D+02 -.706330840430691D+02 0.157844499479864D-03
 0.175901942091899D+03 0.826357879641322D+02 0.126119373512012D+03 0.417074028179142D+02
 0.000000000000000D+00 0.000000000000000D+00 -.000000000000000D+00 0.000000000000000D+00
 0.517470232323578D+03 0.000000000000000D+00 0.000000000000000D+00 0.517470232323578D+03
 0.284948737034111D+03 0.000000000000000D+00 0.000000000000000D+00 -.284948737034111D+03
 0.155644949771944D+03 -.130573373084304D+03 -.251322932902371D+02 -.878046186149348D+01
 0.457638134411268D+02 -.851672127121340D+01 0.306202260608436D+02 -.329270988009202D+02
 0.645689450035302D+02 -.430807774742251D+02 -.480956886951450D+02 0.157844499479864D-03
 0.210271117846768D+03 0.694085609375712D+01 0.189628700657439D+03 0.417074028179142D+02
 0.326170143294321D+03 0.175230015735985D+03 -.147020944732901D+03 0.232521495289467D+03
0.117914953125D-04 0.000000000000D+00 0.000000000000D+00 0.812127021815D-07 0.000000000000D+00  7 -1 1 24 -13 13 -24 21 0 0.20050935D-01 0.51493777D-01 0.38652482D+05 0.38652482D+05 0.38652482D+05 0.11572604D+01  1  2  2  2  7  2        1 0.205040856904D-02 0.100000000000D+01
-.652168948102D-06 0.000000000000D+00 -.452824467721D-07 0.812127021815D-07 0.000000000000D+00  7 -1 1 24 -13 13 -24 21 2 0.20050935D-01 0.51493777D-01 0.38652482D+05 0.38652482D+05 0.38652482D+05 0.11572604D+01  1  2  3  2  7  2        1 -.151877632722D-03 0.100000000000D+01
0.762264448313D-06 0.000000000000D+00 0.000000000000D+00 0.812127021815D-07 0.000000000000D+00  7 -1 1 24 -13 13 -24 21 2 0.20050935D-01 0.51493777D-01 0.38652482D+05 0.38652482D+05 0.38652482D+05 0.11572604D+01  1  2 15  2  7  2        1 0.177516761960D-03 0.100000000000D+01
  </mgrwgt>
  </event>
  <event>
  8     66 0.29788925E-05 0.67238167E+02 0.75467711E-02 0.10689608E+00
       -1 -1    0    0    0  501 0.00000000E+00 0.00000000E+00 0.62318969E+02 0.62319791E+02 0.32000000E+00 0.0000E+00 0.9000E+01
        1 -1    0    0  501    0 0.00000000E+00 0.00000000E+00 -.64958901E+03 0.64958908E+03 0.32000000E+00 0.0000E+00 0.9000E+01
       25  2    1    2    0    0 -.95089613E+01 0.75591993E+01 -.50409928E+03 0.58671394E+03 0.29994932E+03 0.0000E+00 0.0000E+00
       23  2    1    2    0    0 0.95089613E+01 -.75591993E+01 -.83170752E+02 0.12519494E+03 0.92783819E+02 0.0000E+00 0.0000E+00
       24  1    3    3    0    0 -.12159673E+03 -.34632426E+02 -.19784250E+03 0.24818147E+03 0.80419002E+02 0.0000E+00 0.9000E+01
      -11  1    4    4    0    0 -.15052809E+02 -.35971056E+02 -.78105380E+02 0.87298078E+02 0.51099893E-03 0.0000E+00 0.9000E+01
       11  1    4    4    0    0 0.24561770E+02 0.28411856E+02 -.50653719E+01 0.37896862E+02 0.51099893E-03 0.0000E+00 0.9000E+01
      -24  1    3    3    0    0 0.11208776E+03 0.42191626E+02 -.30625678E+03 0.33853247E+03 0.80419002E+02 0.0000E+00 0.9000E+01
#aMCatNLO 1  0  0  2  1 0.14459721D+02 0.00000000D+00  -5  7  0 0.00000000D+00 0.00000000D+00 0.00000000D+00 0.00000000D+00 0.00000000D+00
  <mgrwgt>
 0.7755398923D-03    9    2    0
 0.201201484953925D+03 0.000000000000000D+00 0.000000000000000D+00 0.201201484953925D+03
 0.201201484953925D+03 0.000000000000000D+00 0.000000000000000D+00 -.201201484953925D+03
 0.150335905019417D+03 -.121596725036578D+03 -.346324258218861D+02 0.121860545586737D+02
 0.404552842139750D+02 -.150528086236831D+02 -.359710560213783D+02 -.107761821662003D+02
 0.596525709285232D+02 0.245617707266392D+02 0.284118560815595D+02 0.463456046584275D+02
 0.151959209745936D+03 0.112087762933622D+03 0.421916257617049D+02 -.477554770509008D+02
 0.000000000000000D+00 0.000000000000000D+00 0.000000000000000D+00 -.000000000000000D+00
 0.205169546273395D+03 0.000000000000000D+00 0.000000000000000D+00 0.205169546273395D+03
 0.214949910412870D+03 0.000000000000000D+00 0.000000000000000D+00 -.214949910412870D+03
 0.154953442542591D+03 -.126993765263777D+03 -.356010822848300D+02 0.121860545586737D+02
 0.412421258391948D+02 -.164970916032107D+02 -.362302747752777D+02 -.107761821662003D+02
 0.586420077420164D+02 0.224705067999975D+02 0.280365177047851D+02 0.463456046584275D+02
 0.147825103704163D+03 0.106788043136341D+03 0.412404362916772D+02 -.477554770509008D+02
 0.174567768582999D+02 0.142323069306486D+02 0.255440306364542D+01 -.978036413947473D+01
0.181557084274D-05 0.000000000000D+00 0.000000000000D+00 0.156723951168D-06 0.000000000000D+00  7 -1 1 24 -11 11 -24 21 0 0.95876029D-02 0.99936839D-01 0.34345705D+05 0.34345705D+05 0.34345705D+05 0.11619238D+01  1  2  2  2  7  2        1 0.401848262494D-03 0.100000000000D+01
-.100036594613D-06 0.000000000000D+00 -.697227008691D-08 0.156723951168D-06 0.000000000000D+00  7 -1 1 24 -11 11 -24 21 2 0.95876029D-02 0.99936839D-01 0.34345705D+05 0.34345705D+05 0.34345705D+05 0.11619238D+01  1  2  3  2  7  2        1 -.298925597452D-04 0.100000000000D+01
0.113976092079D-06 0.000000000000D+00 0.000000000000D+00 0.156723951168D-06 0.000000000000D+00  7 -1 1 24 -11 11 -24 21 2 0.95876029D-02 0.99936839D-01 0.34345705D+05 0.34345705D+05 0.34345705D+05 0.11619238D+01  1  2 15  2  7  2        1 0.340579080601D-04 0.100000000000D+01
0.691943404289D-05 0.000000000000D+00 0.000000000000D+00 0.156723951168D-06 0.000000000000D+00  7 -1 1 24 -11 11 -24 21 2 0.95876029D-02 0.10770564D+00 0.36973810D+05 0.36973810D+05 0.36973810D+05 0.11590064D+01  1  2 12  2  7  2        1 0.184531687613D-02 0.100000000000D+01
-.689741675956D-05 0.000000000000D+00 0.000000000000D+00 0.156723951168D-06 0.000000000000D+00  7 -1 1 24 -11 11 -24 21 2 0.95876029D-02 0.99936839D-01 0.34345705D+05 0.34345705D+05 0.34345705D+05 0.11619238D+01  1  2  4  2  7  2        1 -.206106018872D-02 0.100000000000D+01
-.189568507995D-04 0.000000000000D+00 -.296121037734D-05 0.156723951168D-06 0.000000000000D+00  7 -1 1 24 -11 11 -24 21 2 0.95876029D-02 0.10818231D+00 0.34345705D+05 0.34345705D+05 0.34345705D+05 0.11619238D+01  1  2  5  2  7  2        1 -.504485294329D-02 0.100000000000D+01
0.191407121802D-04 0.000000000000D+00 0.295192873646D-05 0.156723951168D-06 0.000000000000D+00  7 -1 1 24 -11 11 -24 21 2 0.95876029D-02 0.99936839D-01 0.34345705D+05 0.34345705D+05 0.34345705D+05 0.11619238D+01  1  2  6  2  7  2        1 0.571955577479D-02 0.100000000000D+01
0.912724303137D-07 0.000000000000D+00 0.000000000000D+00 0.156723951168D-06 0.000000000000D+00  7 -1 21 24 -11 11 -24 -1 2 0.95876029D-02 0.10770564D+00 0.36973810D+05 0.36973810D+05 0.36973810D+05 0.11590064D+01  1  2 12  4  7  2        1 0.534916840658D-04 0.100000000000D+01
-.244868791355D-06 0.000000000000D+00 -.392357555533D-07 0.156723951168D-06 0.000000000000D+00  7 -1 21 24 -11 11 -24 -1 2 0.95876029D-02 0.10818231D+00 0.34345705D+05 0.34345705D+05 0.34345705D+05 0.11619238D+01  1  2  5  4  7  2        1 -.142924921451D-03 0.100000000000D+01
  </mgrwgt>
  </event>
  <event>
  8     66 0.29788925E-05 0.41411337E+03 0.75467711E-02 0.95576695E-01
       -1 -1    0    0    0  501 0.00000000E+00 0.00000000E+00 0.29915876E+03 0.29915893E+03 0.32000000E+00 0.0000E+00 0.9000E+01
        1 -1    0    0  501    0 0.00000000E+00 0.00000000E+00 -.69366425E+03 0.69366432E+03 0.32000000E+00 0.0000E+00 0.9000E+01
       25  2    1    2    0    0 -.38795500E+03 0.84280407E+02 -.15543237E+03 0.52089939E+03 0.29927360E+03 0.0000E+00 0.0000E+00
       23  2    1    2    0    0 0.38795500E+03 -.84280407E+02 -.23907312E+03 0.47192386E+03 0.89128607E+02 0.0000E+00 0.0000E+00
       24  1    3    3    0    0 -.23614129E+03 0.68539299E+02 -.21706262E+03 0.33770363E+03 0.80419002E+02 0.0000E+00 0.9000E+01
      -13  1    4    4    0    0 0.33384388E+03 -.72181389E+02 -.16480162E+03 0.37923802E+03 0.10565837E+00 0.0000E+00 0.9000E+01
       13  1    4    4    0    0 0.54111120E+02 -.12099018E+02 -.74271497E+02 0.92685846E+02 0.10565837E+00 0.0000E+00 0.9000E+01
      -24  1    3    3    0    0 -.15181370E+03 0.15741108E+02 0.61630249E+02 0.18319576E+03 0.80419002E+02 0.0000E+00 0.9000E+01
#aMCatNLO 1  0  0  2  1 0.87232778D+02 0.00000000D+00  -5  7  0 0.00000000D+00 0.00000000D+00 0.00000000D+00 0.00000000D+00 0.00000000D+00
  <mgrwgt>
 0.9712241085D-03    4    2    0
 0.455539085011300D+03 0.000000000000000D+00 0.000000000000000D+00 0.455539085011300D+03
 0.455539085011300D+03 0.000000000000000D+00 0.000000000000000D+00 -.455539085011300D+03
 0.274013395454168D+03 -.236141293805676D+03 0.685392993668743D+02 -.903093502137552D+02
 0.341904281486217D+03 0.333844271012182D+03 -.721814736513959D+02 -.153745007224434D+02
 0.688412936125037D+02 0.541107264710575D+02 -.120989334114391D+02 -.408015783680350D+02
 0.226319199469711D+03 -.151813703677563D+03 0.157411076959608D+02 0.146485429304234D+03
 0.000000000000000D+00 -.000000000000000D+00 -.000000000000000D+00 0.000000000000000D+00
 0.660485008743686D+03 0.000000000000000D+00 0.000000000000000D+00 0.660485008743686D+03
 0.467000107498560D+03 0.000000000000000D+00 0.000000000000000D+00 -.467000107498560D+03
 0.280255254210156D+03 -.234316896775234D+03 0.949505382166006D+02 -.903093502137552D+02
 0.338775936071783D+03 0.336084756683428D+03 -.397466465741372D+02 -.153745007224434D+02
 0.683574729743598D+02 0.545623216000496D+02 -.556132859397734D+01 -.408015783680350D+02
 0.227856106939965D+03 -.150318767817821D+03 0.373828377568225D+02 0.146485429304234D+03
 0.212240346045982D+03 -.601141369042287D+01 -.870254008053085D+02 0.193484901245126D+03
0.660531619346D-04 0.000000000000D+00 0.000000000000D+00 0.585330522378D-06 0.000000000000D+00  7 -1 1 24 -13 13 -24 21 0 0.46024443D-01 0.10671760D+00 0.17148988D+06 0.17148988D+06 0.17148988D+06 0.11029923D+01  1  2  2  2  7  2        1 0.103433633510D-02 0.100000000000D+01
-.362906282948D-05 0.000000000000D+00 -.253661534026D-06 0.585330522378D-06 0.000000000000D+00  7 -1 1 24 -13 13 -24 21 2 0.46024443D-01 0.10671760D+00 0.17148988D+06 0.17148988D+06 0.17148988D+06 0.11029923D+01  1  2  3  2  7  2        1 -.691365343934D-04 0.100000000000D+01
0.418853806578D-05 0.000000000000D+00 0.000000000000D+00 0.585330522378D-06 0.000000000000D+00  7 -1 1 24 -13 13 -24 21 2 0.46024443D-01 0.10671760D+00 0.17148988D+06 0.17148988D+06 0.17148988D+06 0.11029923D+01  1  2 15  2  7  2        1 0.797949827955D-04 0.100000000000D+01
-.387231464551D-05 0.000000000000D+00 0.000000000000D+00 0.585330522378D-06 0.000000000000D+00  7 -1 1 24 -13 13 -24 21 2 0.46024443D-01 0.10671760D+00 0.17148988D+06 0.17148988D+06 0.17148988D+06 0.11029923D+01  1  2  4  2  7  2        1 -.737706750338D-04 0.100000000000D+01
  </mgrwgt>
  </event>
  <event>
  8     66 0.29788925E-05 0.11767528E+03 0.75467711E-02 0.10530612E+00
       -1 -1    0    0    0  501 0.00000000E+00 0.00000000E+00 0.91530032E+03 0.91530038E+03 0.32000000E+00 0.0000E+00 0.9000E+01
        1 -1    0    0  501    0 0.00000000E+00 0.00000000E+00 -.22512272E+03 0.22512294E+03 0.32000000E+00 0.0000E+00 0.9000E+01
       25  2    1    2    0    0 -.49560878E+02 -.54066655E+02 -.11401489E+03 0.32779646E+03 0.29844872E+03 0.0000E+00 0.0000E+00
       23  2    1    2    0    0 0.49560878E+02 0.54066655E+02 0.80419249E+03 0.81262687E+03 0.90870105E+02 0.0000E+00 0.0000E+00
       24  1    3    3    0    0 0.60384064E+02 -.11943449E+03 -.53665271E+02 0.16510000E+03 0.80419002E+02 0.0000E+00 0.9000E+01
      -11  1    4    4    0    0 0.49967858E+02 0.76295736E+02 0.71066061E+03 0.71648889E+03 0.51099893E-03 0.0000E+00 0.9000E+01
       11  1    4    4    0    0 -.40697989E+00 -.22229080E+02 0.93531880E+02 0.96137974E+02 0.51099893E-03 0.0000E+00 0.9000E+01
      -24  1    3    3    0    0 -.10994494E+03 0.65367836E+02 -.60349616E+02 0.16269645E+03 0.80419002E+02 0.0000E+00 0.9000E+01
#aMCatNLO 1  0  0  1  2 0.11133189D+02 0.00000000D+00  -5  7  0 0.00000000D+00 0.00000000D+00 0.00000000D+00 0.00000000D+00 0.00000000D+00
  <mgrwgt>
 0.1554710742D-02    9    2    0
 0.453932877518230D+03 0.000000000000000D+00 0.000000000000000D+00 0.453932877518230D+03
 0.453932877518230D+03 0.000000000000000D+00 0.000000000000000D+00 -.453932877518230D+03
 0.248189182853606D+03 0.603840642823934D+02 -.119434491521686D+03 -.192924393343263D+03
 0.359765308970185D+03 0.499678576957784D+02 0.762957355060806D+02 0.348013292101456D+03
 0.496597425257001D+02 -.406979888104523D+00 -.222290804131231D+02 0.444048688667854D+02
 0.250251520686970D+03 -.109944942090067D+03 0.653678364287288D+02 -.199493767624978D+03
 0.000000000000000D+00 0.000000000000000D+00 0.000000000000000D+00 0.000000000000000D+00
 0.461554953717919D+03 0.000000000000000D+00 0.000000000000000D+00 0.461554953717919D+03
 0.458050718692221D+03 0.000000000000000D+00 0.000000000000000D+00 -.458050718692221D+03
 0.249634449910756D+03 0.602345778319486D+02 -.122483128284739D+03 -.192924393343263D+03
 0.358827854731545D+03 0.497520785838885D+02 0.718951217297229D+02 0.348013292101456D+03
 0.499359896484502D+02 -.436886488559583D+00 -.228389976419682D+02 0.444048688667854D+02
 0.249535721523450D+03 -.110095018173038D+03 0.623071746601292D+02 -.199493767624978D+03
 0.116716565959398D+02 0.545248245760820D+00 0.111198295368549D+02 0.350423502569798D+01
0.703483479158D-04 0.000000000000D+00 0.000000000000D+00 0.116278697530D-05 0.000000000000D+00  7 -1 1 24 -11 11 -24 21 0 0.14081546D+00 0.34634286D-01 0.44238543D+05 0.44238543D+05 0.44238543D+05 0.11520017D+01  1  2  2  1  7  1       -1 0.510893045010D-03 0.100000000000D+01
-.109618257309D-05 0.000000000000D+00 -.270156179142D-06 0.116278697530D-05 0.000000000000D+00  7 -1 1 24 -11 11 -24 21 2 0.14081546D+00 0.34634286D-01 0.44238543D+05 0.44238543D+05 0.44238543D+05 0.11520017D+01  1  2  3  1  7  1       -1 -.105648957995D-04 0.100000000000D+01
0.437997146677D-05 0.000000000000D+00 0.000000000000D+00 0.116278697530D-05 0.000000000000D+00  7 -1 1 24 -11 11 -24 21 2 0.14081546D+00 0.34634286D-01 0.44238543D+05 0.44238543D+05 0.44238543D+05 0.11520017D+01  1  2 15  1  7  1       -1 0.422137181224D-04 0.100000000000D+01
0.630358104908D-04 0.000000000000D+00 0.000000000000D+00 0.116278697530D-05 0.000000000000D+00  7 -1 1 24 -11 11 -24 21 2 0.14381032D+00 0.34634286D-01 0.46167051D+05 0.46167051D+05 0.46167051D+05 0.11503546D+01  1  2 12  1  7  1       -1 0.571546063228D-03 0.100000000000D+01
-.575601802658D-04 0.000000000000D+00 0.000000000000D+00 0.116278697530D-05 0.000000000000D+00  7 -1 1 24 -11 11 -24 21 2 0.14081546D+00 0.34634286D-01 0.44238543D+05 0.44238543D+05 0.44238543D+05 0.11520017D+01  1  2  4  1  7  1       -1 -.554759144722D-03 0.100000000000D+01
-.239672550809D-02 0.000000000000D+00 -.355121647977D-03 0.116278697530D-05 0.000000000000D+00  7 -1 1 24 -11 11 -24 21 2 0.14406780D+00 0.34634286D-01 0.44238543D+05 0.44238543D+05 0.44238543D+05 0.11520017D+01  1  2  5  1  7  1       -1 -.217221314529D-01 0.100000000000D+01
0.240430002950D-02 0.000000000000D+00 0.355029091127D-03 0.116278697530D-05 0.000000000000D+00  7 -1 1 24 -11 11 -24 21 2 0.14081546D+00 0.34634286D-01 0.44238543D+05 0.44238543D+05 0.44238543D+05 0.11520017D+01  1  2  6  1  7  1       -1 0.231723983813D-01 0.100000000000D+01
0.233033256917D-05 0.000000000000D+00 0.000000000000D+00 0.116278697530D-05 0.000000000000D+00  7 21 1 24 -11 11 -24 1 2 0.14381032D+00 0.34634286D-01 0.46167051D+05 0.46167051D+05 0.46167051D+05 0.11503546D+01  1  2 12  3  7  1       -1 0.140817073215D-03 0.100000000000D+01
-.985113318852D-05 0.000000000000D+00 -.146963421874D-05 0.116278697530D-05 0.000000000000D+00  7 21 1 24 -11 11 -24 1 2 0.14406780D+00 0.34634286D-01 0.44238543D+05 0.44238543D+05 0.44238543D+05 0.11520017D+01  1  2  5  3  7  1       -1 -.595702046030D-03 0.100000000000D+01
  </mgrwgt>
  </event>
  <event>
  8     66 0.29788925E-05 0.24943196E+03 0.75467711E-02 0.92682457E-01
       -1 -1    0    0    0  501 0.00000000E+00 0.00000000E+00 0.24375621E+03 0.24375642E+03 0.32000000E+00 0.0000E+00 0.9000E+01
        1 -1    0    0  501    0 0.00000000E+00 0.00000000E+00 -.11549586E+04 0.11549587E+04 0.32000000E+00 0.0000E+00 0.9000E+01
       25  2    1    2    0    0 -.15843750E+03 0.45480173E+03 -.43337185E+03 0.71427873E+03 0.30072561E+03 0.0000E+00 0.0000E+00
       23  2    1    2    0    0 0.15843750E+03 -.45480173E+03 -.47783057E+03 0.68443637E+03 0.90465686E+02 0.0000E+00 0.0000E+00
       24  1    3    3    0    0 -.43053951E+02 0.27156498E+02 -.16413138E+03 0.18972992E+03 0.80419002E+02 0.0000E+00 0.9000E+01
      -13  1    4    4    0    0 0.11556758E+03 -.37534065E+03 -.42965561E+03 0.58210002E+03 0.10565837E+00 0.0000E+00 0.9000E+01
       13  1    4    4    0    0 0.42869916E+02 -.79461073E+02 -.48174959E+02 0.10233635E+03 0.10565837E+00 0.0000E+00 0.9000E+01
      -24  1    3    3    0    0 -.11538355E+03 0.42764523E+03 -.26924047E+03 0.52454881E+03 0.80419002E+02 0.0000E+00 0.9000E+01
#aMCatNLO 1  0  0  1  2 0.15304836D+03 0.00000000D+00  -5  7  0 0.00000000D+00 0.00000000D+00 0.00000000D+00 0.00000000D+00 0.00000000D+00
  <mgrwgt>
 0.1049174095D-02    9    2    0
 0.530592612179516D+03 0.000000000000000D+00 0.000000000000000D+00 0.530592612179516D+03
 0.530592612179516D+03 0.000000000000000D+00 0.000000000000000D+00 -.530592612179516D+03
 0.109143243338752D+03 -.430539506252477D+02 0.271564975793821D+02 -.534220327852773D+02
 0.398318106944416D+03 0.115567683729117D+03 -.375341056685308D+03 -.664869608541895D+02
 0.935197949990263D+02 0.428698164912763D+02 -.794606689140634D+02 0.243748433101384D+02
 0.460204079076839D+03 -.115383549595146D+03 0.427645228019989D+03 0.955341503293284D+02
 0.000000000000000D+00 -.000000000000000D+00 0.000000000000000D+00 0.000000000000000D+00
 0.657599672085272D+03 0.000000000000000D+00 0.000000000000000D+00 0.657599672085272D+03
 0.584272837697383D+03 0.000000000000000D+00 0.000000000000000D+00 -.584272837697383D+03
 0.103337102672780D+03 -.335409817139009D+02 0.152456483361840D+02 -.534220327852773D+02
 0.455139228326552D+03 0.153777867635505D+03 -.423182665788120D+03 -.664869608541895D+02
 0.107300553293148D+03 0.518607550224363D+02 -.907179025282481D+02 0.243748433101384D+02
 0.406388158951980D+03 -.765853022563770D+02 0.379067325657543D+03 0.955341503293284D+02
 0.169707466538195D+03 -.955123386876637D+02 0.119587594322641D+03 0.733268343878890D+02
0.804522492729D-04 0.000000000000D+00 0.000000000000D+00 0.208593549662D-05 0.000000000000D+00  7 -1 1 24 -13 13 -24 21 0 0.37500975D-01 0.17768596D+00 0.26438699D+06 0.26438699D+06 0.26438699D+06 0.10886357D+01  1  2  2  1  7  1       -1 0.757198003209D-03 0.100000000000D+01
-.446420796974D-05 0.000000000000D+00 -.308957820772D-06 0.208593549662D-05 0.000000000000D+00  7 -1 1 24 -13 13 -24 21 2 0.37500975D-01 0.17768596D+00 0.26438699D+06 0.26438699D+06 0.26438699D+06 0.10886357D+01  1  2  3  1  7  1       -1 -.497944393351D-04 0.100000000000D+01
0.511394697956D-05 0.000000000000D+00 0.000000000000D+00 0.208593549662D-05 0.000000000000D+00  7 -1 1 24 -13 13 -24 21 2 0.37500975D-01 0.17768596D+00 0.26438699D+06 0.26438699D+06 0.26438699D+06 0.10886357D+01  1  2 15  1  7  1       -1 0.570417248396D-04 0.100000000000D+01
0.682558462861D-04 0.000000000000D+00 0.000000000000D+00 0.208593549662D-05 0.000000000000D+00  7 -1 1 24 -13 13 -24 21 2 0.48023324D-01 0.17768596D+00 0.35477329D+06 0.35477329D+06 0.35477329D+06 0.10792044D+01  1  2 12  1  7  1       -1 0.477555782813D-03 0.100000000000D+01
-.710107107575D-04 0.000000000000D+00 0.000000000000D+00 0.208593549662D-05 0.000000000000D+00  7 -1 1 24 -13 13 -24 21 2 0.37500975D-01 0.17768596D+00 0.26438699D+06 0.26438699D+06 0.26438699D+06 0.10886357D+01  1  2  4  1  7  1       -1 -.792064024107D-03 0.100000000000D+01
-.131852659311D-03 0.000000000000D+00 -.411521272688D-04 0.208593549662D-05 0.000000000000D+00  7 -1 1 24 -13 13 -24 21 2 0.50746827D-01 0.17768596D+00 0.26438699D+06 0.26438699D+06 0.26438699D+06 0.10886357D+01  1  2  5  1  7  1       -1 -.859051227471D-03 0.100000000000D+01
0.139675173072D-03 0.000000000000D+00 0.393387071413D-04 0.208593549662D-05 0.000000000000D+00  7 -1 1 24 -13 13 -24 21 2 0.37500975D-01 0.17768596D+00 0.26438699D+06 0.26438699D+06 0.26438699D+06 0.10886357D+01  1  2  6  1  7  1       -1 0.155795764429D-02 0.100000000000D+01
0.229168899130D-05 0.000000000000D+00 0.000000000000D+00 0.208593549662D-05 0.000000000000D+00  7 21 1 24 -13 13 -24 1 2 0.48023324D-01 0.17768596D+00 0.35477329D+06 0.35477329D+06 0.35477329D+06 0.10792044D+01  1  2 12  3  7  1       -1 0.145524531532D-03 0.100000000000D+01
-.419267900265D-05 0.000000000000D+00 -.160024254898D-05 0.208593549662D-05 0.000000000000D+00  7 21 1 24 -13 13 -24 1 2 0.50746827D-01 0.17768596D+00 0.26438699D+06 0.26438699D+06 0.26438699D+06 0.10886357D+01  1  2  5  3  7  1       -1 -.245193900748D-03 0.100000000000D+01
  </mgrwgt>
  </event>
  <event>
  8     66 0.29788925E-05 0.25800494E+03 0.75467711E-02 0.96394078E-01
       -1 -1    0    0    0  501 0.00000000E+00 0.00000000E+00 0.39216250E+03 0.39216263E+03 0.32000000E+00 0.0000E+00 0.9000E+01
        1 -1    0    0  501    0 0.00000000E+00 0.00000000E+00 -.28144641E+03 0.28144659E+03 0.32000000E+00 0.0000E+00 0.9000E+01
       25  2    1    2    0    0 0.17619799E+03 0.58617110E+02 -.11238764E+03 0.37001901E+03 0.29966880E+03 0.0000E+00 0.0000E+00
       23  2    1    2    0    0 -.17619799E+03 -.58617110E+02 0.22310372E+03 0.30359021E+03 0.88938463E+02 0.0000E+00 0.0000E+00
       24  1    3    3    0    0 0.63242695E+02 0.13624032E+03 0.81439688E+01 0.17057140E+03 0.80419002E+02 0.0000E+00 0.9000E+01
      -13  1    4    4    0    0 -.67428305E+02 -.12469884E+02 0.25116110E+02 0.73026738E+02 0.10565837E+00 0.0000E+00 0.9000E+01
       13  1    4    4    0    0 -.10876968E+03 -.46147226E+02 0.19798761E+03 0.23056348E+03 0.10565837E+00 0.0000E+00 0.9000E+01
      -24  1    3    3    0    0 0.11295529E+03 -.77623212E+02 -.12053161E+03 0.19944760E+03 0.80419002E+02 0.0000E+00 0.9000E+01
#aMCatNLO 1  0  0  2  2 0.26197255D+03 0.00000000D+00  -5  7  0 0.00000000D+00 0.00000000D+00 0.00000000D+00 0.00000000D+00 0.00000000D+00
  <mgrwgt>
 0.3944409377D-03    5    2    0
 0.332224069750977D+03 0.000000000000000D+00 0.000000000000000D+00 0.332224069750977D+03
 0.332224069750977D+03 0.000000000000000D+00 0.000000000000000D+00 -.332224069750977D+03
 0.171566140122900D+03 0.632426950853828D+02 0.136240322428952D+03 -.201658261693524D+02
 0.698483460052495D+02 -.674282458069377D+02 -.124698368796529D+02 0.132938435098014D+02
 0.200752150697989D+03 -.108769742788445D+03 -.461472736827710D+02 0.162299101030323D+03
 0.222281502675816D+03 0.112955293510000D+03 -.776232118665284D+02 -.155427118370772D+03
 0.000000000000000D+00 -.000000000000000D+00 0.000000000000000D+00 -.000000000000000D+00
 0.433878551372098D+03 0.000000000000000D+00 0.000000000000000D+00 0.433878551372098D+03
 0.580619913787986D+03 0.000000000000000D+00 0.000000000000000D+00 -.580619913787986D+03
 0.132934168043802D+03 0.679963438100837D+02 0.785755290309625D+02 -.201658261693524D+02
 0.777969946348401D+02 -.651233086150267D+02 -.404301963139217D+02 0.132938435098014D+02
 0.230401902655505D+03 -.102038863177146D+03 -.127797139848831D+03 0.162299101030323D+03
 0.273094451130075D+03 0.120688761122018D+03 -.171435110457154D+03 -.155427118370772D+03
 0.300270948695861D+03 -.215229331399293D+02 0.261086917588943D+03 -.146741362415888D+03
0.125864275233D-04 0.000000000000D+00 0.000000000000D+00 0.473498066021D-06 0.000000000000D+00  7 -1 1 24 -13 13 -24 21 0 0.60332716D-01 0.43299472D-01 0.66566547D+05 0.66566547D+05 0.66566547D+05 0.11365211D+01  1  2  2  2  7  2        1 0.423129393838D-03 0.100000000000D+01
-.644899433439D-06 0.000000000000D+00 -.483351957719D-07 0.473498066021D-06 0.000000000000D+00  7 -1 1 24 -13 13 -24 21 2 0.60332716D-01 0.43299472D-01 0.66566547D+05 0.66566547D+05 0.66566547D+05 0.11365211D+01  1  2  3  2  7  2        1 -.280038483770D-04 0.100000000000D+01
0.804263001586D-06 0.000000000000D+00 0.000000000000D+00 0.473498066021D-06 0.000000000000D+00  7 -1 1 24 -13 13 -24 21 2 0.60332716D-01 0.43299472D-01 0.66566547D+05 0.66566547D+05 0.66566547D+05 0.11365211D+01  1  2 15  2  7  2        1 0.349239865688D-04 0.100000000000D+01
-.245096584657D-05 0.000000000000D+00 -.404377194310D-05 0.473498066021D-06 0.000000000000D+00  7 -1 1 24 -13 13 -24 21 2 0.60332716D-01 0.94073796D-01 0.66566547D+05 0.66566547D+05 0.66566547D+05 0.11365211D+01  1  2  5  2  7  2        1 -.374291622256D-04 0.100000000000D+01
0.479013651559D-07 0.000000000000D+00 -.339819216168D-06 0.473498066021D-06 0.000000000000D+00  7 -1 21 24 -13 13 -24 -1 2 0.60332716D-01 0.94073796D-01 0.66566547D+05 0.66566547D+05 0.66566547D+05 0.11365211D+01  1  2  5  4  7  2        1 0.182056789696D-05 0.100000000000D+01
  </mgrwgt>
  </event>
  <event>
  8     66 0.29788925E-05 0.50590863E+03 0.75467711E-02 0.86935492E-01
       -1 -1    0    0    0  501 0.00000000E+00 0.00000000E+00 0.58292786E+03 0.58292795E+03 0.32000000E+00 0.0000E+00 0.9000E+01
        1 -1    0    0  501    0 0.00000000E+00 0.00000000E+00 -.14589470E+04 0.14589471E+04 0.32000000E+00 0.0000E+00 0.9000E+01
       25  2    1    2    0    0 -.39517578E+03 0.29015284E+03 -.12780195E+04 0.14013165E+04 0.30000291E+03 0.0000E+00 0.0000E+00
       23  2    1    2    0    0 0.39517578E+03 -.29015284E+03 0.40200027E+03 0.64055848E+03 0.91424216E+02 0.0000E+00 0.0000E+00
       24  1    3    3    0    0 -.20732357E+03 0.17432025E+03 -.99068372E+03 0.10301903E+04 0.80419002E+02 0.0000E+00 0.9000E+01
      -11  1    4    4    0    0 0.15928626E+03 -.79083942E+02 0.18607020E+03 0.25738784E+03 0.51099893E-03 0.0000E+00 0.9000E+01
       11  1    4    4    0    0 0.23588952E+03 -.21106889E+03 0.21593007E+03 0.38317064E+03 0.51099893E-03 0.0000E+00 0.9000E+01
      -24  1    3    3    0    0 -.18785221E+03 0.11583259E+03 -.28733573E+03 0.37112623E+03 0.80419002E+02 0.0000E+00 0.9000E+01
#aMCatNLO 1  0  0  2  2 0.85702828D+03 0.00000000D+00  -5  7  0 0.00000000D+00 0.00000000D+00 0.00000000D+00 0.00000000D+00 0.00000000D+00
  <mgrwgt>
 0.1143789234D-02    3    2    0
 0.922204422893931D+03 0.000000000000000D+00 0.000000000000000D+00 0.922204422893931D+03
 0.922204422893931D+03 0.000000000000000D+00 0.000000000000000D+00 -.922204422893931D+03
 0.669950109892187D+03 -.207323571337081D+03 0.174320246328898D+03 -.607449851656952D+03
 0.373320089453665D+03 0.159286258046319D+03 -.790839415638086D+02 0.328240014888535D+03
 0.526751670866943D+03 0.235889518362325D+03 -.211068894259424D+03 0.421038454020544D+03
 0.274386975575067D+03 -.187852205071562D+03 0.115832589494335D+03 -.141828617252127D+03
 0.000000000000000D+00 0.000000000000000D+00 -.000000000000000D+00 0.000000000000000D+00
 0.274453498750713D+04 0.000000000000000D+00 0.000000000000000D+00 0.274453498750713D+04
 0.112318642564840D+04 0.000000000000000D+00 0.000000000000000D+00 -.112318642564840D+04
 0.847369775117983D+03 -.319822001729958D+03 0.490190661641488D+03 -.607449851656952D+03
 0.352204079531259D+03 0.105493823748687D+03 0.719531751579913D+02 0.328240014888535D+03
 0.451674527383248D+03 0.163346205217992D+03 -.738350619642276D+01 0.421038454020544D+03
 0.382551377646364D+03 -.236559491077899D+03 0.252591747874066D+03 -.141828617252127D+03
 0.183392165347668D+04 0.287541463841178D+03 -.807352078477122D+03 0.162134856185873D+04
0.991011684855D-03 0.000000000000D+00 0.000000000000D+00 0.254319433330D-04 0.000000000000D+00  7 -1 1 24 -11 11 -24 21 0 0.89681218D-01 0.22445340D+00 0.25594354D+06 0.25594354D+06 0.25594354D+06 0.10896923D+01  1  2  2  2  7  2        1 0.110385178199D-02 0.100000000000D+01
-.309246770174D-04 0.000000000000D+00 -.380574580921D-05 0.254319433330D-04 0.000000000000D+00  7 -1 1 24 -11 11 -24 21 2 0.89681218D-01 0.22445340D+00 0.25594354D+06 0.25594354D+06 0.25594354D+06 0.10896923D+01  1  2  3  2  7  2        1 -.409020344204D-04 0.100000000000D+01
0.611200651649D-04 0.000000000000D+00 0.000000000000D+00 0.254319433330D-04 0.000000000000D+00  7 -1 1 24 -11 11 -24 21 2 0.89681218D-01 0.22445340D+00 0.25594354D+06 0.25594354D+06 0.25594354D+06 0.10896923D+01  1  2 15  2  7  2        1 0.808394864639D-04 0.100000000000D+01
  </mgrwgt>
  </event>
  <event>
  8     66 0.29788925E-05 0.25008661E+03 0.75467711E-02 0.99375764E-01
       -1 -1    0    0    0  501 0.00000000E+00 0.00000000E+00 0.24706771E+03 0.24706791E+03 0.32000000E+00 0.0000E+00 0.9000E+01
        1 -1    0    0  501    0 0.00000000E+00 0.00000000E+00 -.36179842E+03 0.36179856E+03 0.32000000E+00 0.0000E+00 0.9000E+01
       25  2    1    2    0    0 -.17674433E+03 0.14998958E+02 0.46374967E+02 0.35206150E+03 0.30055471E+03 0.0000E+00 0.0000E+00
       23  2    1    2    0    0 0.17674433E+03 -.14998958E+02 -.16110568E+03 0.25680498E+03 0.92359246E+02 0.0000E+00 0.0000E+00
       24  1    3    3    0    0 -.26805097E+01 0.85237397E+02 -.48549885E+02 0.12687358E+03 0.80419002E+02 0.0000E+00 0.9000E+01
      -11  1    4    4    0    0 0.87869225E+02 0.36404507E+01 -.21952695E+02 0.90643116E+02 0.51099893E-03 0.0000E+00 0.9000E+01
       11  1    4    4    0    0 0.88875105E+02 -.18639408E+02 -.13915298E+03 0.16616186E+03 0.51099893E-03 0.0000E+00 0.9000E+01
      -24  1    3    3    0    0 -.17406382E+03 -.70238440E+02 0.94924852E+02 0.22518791E+03 0.80419002E+02 0.0000E+00 0.9000E+01
#aMCatNLO 1  0  0  2  2 0.14731871D+03 0.00000000D+00  -5  7  0 0.00000000D+00 0.00000000D+00 0.00000000D+00 0.00000000D+00 0.00000000D+00
  <mgrwgt>
 0.5370154326D-03    7    2    0
 0.298979617044095D+03 0.000000000000000D+00 0.000000000000000D+00 0.298979617044095D+03
 0.298979617044095D+03 0.000000000000000D+00 0.000000000000000D+00 -.298979617044095D+03
 0.119872567763323D+03 -.268050968935506D+01 0.852373973131536D+02 -.250921803533847D+02
 0.880844425819509D+02 0.878692251131890D+02 0.364045065041703D+01 -.496139315541296D+01
 0.142493436337537D+03 0.888751049989809D+02 -.186394083294262D+02 -.109809687950693D+03
 0.247508787405380D+03 -.174063820422815D+03 -.702384396341444D+02 0.139863261459491D+03
 0.000000000000000D+00 0.000000000000000D+00 0.000000000000000D+00 -.000000000000000D+00
 0.379357177034635D+03 0.000000000000000D+00 0.000000000000000D+00 0.379357177034635D+03
 0.383869936411043D+03 0.000000000000000D+00 0.000000000000000D+00 -.383869936411043D+03
 0.105081906393570D+03 -.151621701334998D+02 0.609547551786770D+02 -.250921803533847D+02
 0.800239618896346D+02 0.785416843728442D+02 -.145059598216606D+02 -.496139315541296D+01
 0.140828490469171D+03 0.731549105016900D+02 -.492225073466051D+02 -.109809687950693D+03
 0.289904944367242D+03 -.203882368122952D+03 -.128249401077333D+03 0.139863261459491D+03
 0.147387810326060D+03 0.673479433819174D+02 0.131023113066921D+03 -.451275937640828D+01
0.946740639417D-05 0.000000000000D+00 0.000000000000D+00 0.709497341719D-06 0.000000000000D+00  7 -1 1 24 -11 11 -24 21 0 0.38010443D-01 0.55661322D-01 0.62543313D+05 0.62543313D+05 0.62543313D+05 0.11388417D+01  1  2  2  2  7  2        1 0.520920315870D-03 0.100000000000D+01
-.505575588936D-06 0.000000000000D+00 -.363573333790D-07 0.709497341719D-06 0.000000000000D+00  7 -1 1 24 -11 11 -24 21 2 0.38010443D-01 0.55661322D-01 0.62543313D+05 0.62543313D+05 0.62543313D+05 0.11388417D+01  1  2  3  2  7  2        1 -.360788824204D-04 0.100000000000D+01
0.607836947922D-06 0.000000000000D+00 0.000000000000D+00 0.709497341719D-06 0.000000000000D+00  7 -1 1 24 -11 11 -24 21 2 0.38010443D-01 0.55661322D-01 0.62543313D+05 0.62543313D+05 0.62543313D+05 0.11388417D+01  1  2 15  2  7  2        1 0.433764569626D-04 0.100000000000D+01
-.349130054883D-05 0.000000000000D+00 0.000000000000D+00 0.709497341719D-06 0.000000000000D+00  7 -1 1 24 -11 11 -24 21 2 0.38010443D-01 0.55661322D-01 0.62543313D+05 0.62543313D+05 0.62543313D+05 0.11388417D+01  1  2  4  2  7  2        1 -.249146170725D-03 0.100000000000D+01
-.533796030883D-05 0.000000000000D+00 -.371958813957D-05 0.709497341719D-06 0.000000000000D+00  7 -1 1 24 -11 11 -24 21 2 0.38010443D-01 0.87774818D-01 0.62543313D+05 0.62543313D+05 0.62543313D+05 0.11388417D+01  1  2  5  2  7  2        1 -.205502093347D-03 0.100000000000D+01
0.668205352872D-05 0.000000000000D+00 0.336449547964D-05 0.709497341719D-06 0.000000000000D+00  7 -1 1 24 -11 11 -24 21 2 0.38010443D-01 0.55661322D-01 0.62543313D+05 0.62543313D+05 0.62543313D+05 0.11388417D+01  1  2  6  2  7  2        1 0.476844667475D-03 0.100000000000D+01
-.129695586940D-06 0.000000000000D+00 -.195078149030D-06 0.709497341719D-06 0.000000000000D+00  7 -1 21 24 -11 11 -24 -1 2 0.38010443D-01 0.87774818D-01 0.62543313D+05 0.62543313D+05 0.62543313D+05 0.11388417D+01  1  2  5  4  7  2        1 -.133988611783D-04 0.100000000000D+01
  </mgrwgt>
  </event>
  <event>
  8     66 0.29788925E-05 0.65393157E+03 0.75467711E-02 0.85621724E-01
       -1 -1    0    0    0  501 0.00000000E+00 0.00000000E+00 0.25697997E+03 0.25698017E+03 0.32000000E+00 0.0000E+00 0.9000E+01
        1 -1    0    0  501    0 0.00000000E+00 0.00000000E+00 -.17750122E+04 0.17750122E+04 0.32000000E+00 0.0000E+00 0.9000E+01
       25  2    1    2    0    0 -.46800771E+02 0.62060240E+03 -.10089154E+04 0.12226491E+04 0.29937053E+03 0.0000E+00 0.0000E+00
       23  2    1    2    0    0 0.46800771E+02 -.62060240E+03 -.50911680E+03 0.80934335E+03 0.92190500E+02 0.0000E+00 0.0000E+00
       24  1    3    3    0    0 -.76311798E+02 0.57917873E+03 -.80759172E+03 0.99997155E+03 0.80419002E+02 0.0000E+00 0.9000E+01
      -11  1    4    4    0    0 0.50643207E+02 -.55665109E+03 -.48765757E+03 0.74177833E+03 0.51099893E-03 0.0000E+00 0.9000E+01
       11  1    4    4    0    0 -.38424361E+01 -.63951308E+02 -.21459226E+02 0.67565024E+02 0.51099893E-03 0.0000E+00 0.9000E+01
      -24  1    3    3    0    0 0.29511027E+02 0.41423672E+02 -.20132370E+03 0.22267750E+03 0.80419002E+02 0.0000E+00 0.9000E+01
#aMCatNLO 1  0  0  2  2 0.85102163D+03 0.00000000D+00  -5  7  0 0.00000000D+00 0.00000000D+00 0.00000000D+00 0.00000000D+00 0.00000000D+00
  <mgrwgt>
 0.1099639853D-02    5    2    0
 0.675383462459551D+03 0.000000000000000D+00 0.000000000000000D+00 0.675383462459551D+03
 0.675383462459551D+03 0.000000000000000D+00 0.000000000000000D+00 -.675383462459551D+03
 0.596686456411591D+03 -.763117981627900D+02 0.579178730291061D+03 -.910824854197925D+02
 0.567831500442910D+03 0.506432071712400D+02 -.556651094150558D+03 0.100037182305601D+03
 0.775232330797649D+02 -.384243611416547D+01 -.639513079279272D+02 0.436499434839905D+02
 0.108725734984837D+03 0.295110271057155D+02 0.414236717874240D+02 -.526046403697990D+02
 0.000000000000000D+00 0.000000000000000D+00 0.000000000000000D+00 -.000000000000000D+00
 0.936056018804686D+03 0.000000000000000D+00 0.000000000000000D+00 0.936056018804686D+03
 0.211211671102332D+04 0.000000000000000D+00 0.000000000000000D+00 -.211211671102332D+04
 0.391090944677164D+03 -.191848482353459D+03 0.318407053506252D+03 -.910824854197925D+02
 0.978851074467749D+03 -.130266556510028D+03 -.964972855783023D+03 0.100037182305601D+03
 0.129444384720263D+03 -.280506760162933D+02 -.118590432769599D+03 0.436499434839905D+02
 0.971126116433601D+02 0.543487389295879D+01 -.129173272450336D+02 -.526046403697990D+02
 0.145167371431947D+04 0.344730840986822D+03 0.778073562291403D+03 -.117606069221863D+04
0.343144175334D-03 0.000000000000D+00 0.000000000000D+00 0.412226232851D-05 0.000000000000D+00  7 -1 1 24 -11 11 -24 21 0 0.39535398D-01 0.27307882D+00 0.42762650D+06 0.42762650D+06 0.42762650D+06 0.10733429D+01  1  2  2  2  7  2        1 0.108931729273D-02 0.100000000000D+01
-.190394164585D-04 0.000000000000D+00 -.131776398522D-05 0.412226232851D-05 0.000000000000D+00  7 -1 1 24 -11 11 -24 21 2 0.39535398D-01 0.27307882D+00 0.42762650D+06 0.42762650D+06 0.42762650D+06 0.10733429D+01  1  2  3  2  7  2        1 -.696319248369D-04 0.100000000000D+01
0.218717937834D-04 0.000000000000D+00 0.000000000000D+00 0.412226232851D-05 0.000000000000D+00  7 -1 1 24 -11 11 -24 21 2 0.39535398D-01 0.27307882D+00 0.42762650D+06 0.42762650D+06 0.42762650D+06 0.10733429D+01  1  2 15  2  7  2        1 0.799906396343D-04 0.100000000000D+01
-.895630338101D-04 0.000000000000D+00 -.875682633561D-04 0.412226232851D-05 0.000000000000D+00  7 -1 1 24 -11 11 -24 21 2 0.39535398D-01 0.86940013D+00 0.42762650D+06 0.42762650D+06 0.42762650D+06 0.10733429D+01  1  2  5  2  7  2        1 -.360908171354D-07 0.100000000000D+01
-.809589331875D-05 0.000000000000D+00 -.116674944524D-04 0.412226232851D-05 0.000000000000D+00  7 -1 21 24 -11 11 -24 -1 2 0.39535398D-01 0.86940013D+00 0.42762650D+06 0.42762650D+06 0.42762650D+06 0.10733429D+01  1  2  5  4  7  2        1 -.636107016821D-10 0.100000000000D+01
  </mgrwgt>
  </event>
  <event>
  8     66 0.29788925E-05 0.11657424E+03 0.75467711E-02 0.10461309E+00
       -3 -1    0    0    0  501 0.00000000E+00 0.00000000E+00 0.32880594E+03 0.32880632E+03 0.50000000E+00 0.0000E+00 0.9000E+01
        3 -1    0    0  501    0 0.00000000E+00 0.00000000E+00 -.17224869E+03 0.17224942E+03 0.50000000E+00 0.0000E+00 0.9000E+01
       25  2    1    2    0    0 -.64159637E+02 -.11883740E+02 0.21441600E+03 0.37411756E+03 0.29955308E+03 0.0000E+00 0.0000E+00
       23  2    1    2    0    0 0.64159637E+02 0.11883740E+02 -.57858750E+02 0.12693818E+03 0.92238741E+02 0.0000E+00 0.0000E+00
       24  1    3    3    0    0 -.13128150E+03 0.55871987E+02 0.18276563E+03 0.24541190E+03 0.80419002E+02 0.0000E+00 0.9000E+01
      -11  1    4    4    0    0 0.41209480E+02 0.42450454E+02 -.65172687E+02 0.88021255E+02 0.51099893E-03 0.0000E+00 0.9000E+01
       11  1    4    4    0    0 0.22950157E+02 -.30566713E+02 0.73139365E+01 0.38916929E+02 0.51099893E-03 0.0000E+00 0.9000E+01
      -24  1    3    3    0    0 0.67121865E+02 -.67755727E+02 0.31650368E+02 0.12870565E+03 0.80419002E+02 0.0000E+00 0.9000E+01
#aMCatNLO 1  0  0  2  1 0.56118245D+02 0.00000000D+00  -5  7  0 0.00000000D+00 0.00000000D+00 0.00000000D+00 0.00000000D+00 0.00000000D+00
  <mgrwgt>
 0.9262536290D-04    9    2    0
 0.237984602655104D+03 0.000000000000000D+00 0.000000000000000D+00 0.237984602655104D+03
 0.237984602655104D+03 0.000000000000000D+00 0.000000000000000D+00 -.237984602655104D+03
 0.198230807767809D+03 -.131281502512465D+03 0.558719870998227D+02 0.111676879207355D+03
 0.114097321681577D+03 0.412094799492793D+02 0.424504536826763D+02 -.975599126657779D+02
 0.385623705020941D+02 0.229501571416358D+02 -.305667133989411D+02 -.510124866106315D+01
 0.125078705358727D+03 0.671218654215502D+02 -.677557273835580D+02 -.901571788051437D+01
 0.000000000000000D+00 -.000000000000000D+00 -.000000000000000D+00 -.000000000000000D+00
 0.245745324830146D+03 0.000000000000000D+00 0.000000000000000D+00 0.245745324830146D+03
 0.368441173719656D+03 0.000000000000000D+00 0.000000000000000D+00 -.368441173719656D+03
 0.201406605057885D+03 -.124455579196785D+03 0.783357393778267D+02 0.111676879207355D+03
 0.121089077568014D+03 0.452265320936660D+02 0.556703596332808D+02 -.975599126657779D+02
 0.361679505084351D+02 0.242265727729133D+02 -.263660971278903D+02 -.510124866106315D+01
 0.120602411837218D+03 0.713181704026895D+02 -.539459098365704D+02 -.901571788051437D+01
 0.134920453578251D+03 -.163156960724835D+02 -.536940920466468D+02 -.122695848889510D+03
0.395183870324D-05 0.000000000000D+00 0.000000000000D+00 0.314286809889D-06 0.000000000000D+00  7 -3 3 24 -11 11 -24 21 0 0.50585614D-01 0.26499884D-01 0.37233436D+05 0.37233436D+05 0.37233436D+05 0.11587307D+01  1  2  2  2  7  2        3 0.855392757034D-04 0.100000000000D+01
-.207805527143D-06 0.000000000000D+00 -.151761011635D-07 0.314286809889D-06 0.000000000000D+00  7 -3 3 24 -11 11 -24 21 2 0.50585614D-01 0.26499884D-01 0.37233436D+05 0.37233436D+05 0.37233436D+05 0.11587307D+01  1  2  3  2  7  2        3 -.603932597025D-05 0.100000000000D+01
0.245111657210D-06 0.000000000000D+00 0.000000000000D+00 0.314286809889D-06 0.000000000000D+00  7 -3 3 24 -11 11 -24 21 2 0.50585614D-01 0.26499884D-01 0.37233436D+05 0.37233436D+05 0.37233436D+05 0.11587307D+01  1  2 15  2  7  2        3 0.712353139663D-05 0.100000000000D+01
0.113456093454D-04 0.000000000000D+00 0.000000000000D+00 0.314286809889D-06 0.000000000000D+00  7 -3 3 24 -11 11 -24 21 2 0.50585614D-01 0.41264380D-01 0.50968708D+05 0.50968708D+05 0.50968708D+05 0.11465631D+01  1  2 12  2  7  2        3 0.142134601541D-03 0.100000000000D+01
-.113966694914D-04 0.000000000000D+00 0.000000000000D+00 0.314286809889D-06 0.000000000000D+00  7 -3 3 24 -11 11 -24 21 2 0.50585614D-01 0.26499884D-01 0.37233436D+05 0.37233436D+05 0.37233436D+05 0.11587307D+01  1  2  4  2  7  2        3 -.331214491645D-03 0.100000000000D+01
-.125319149144D-04 0.000000000000D+00 -.159425890815D-05 0.314286809889D-06 0.000000000000D+00  7 -3 3 24 -11 11 -24 21 2 0.50585614D-01 0.41915940D-01 0.37233436D+05 0.37233436D+05 0.37233436D+05 0.11587307D+01  1  2  5  2  7  2        3 -.154806400518D-03 0.100000000000D+01
0.121203813035D-04 0.000000000000D+00 0.144019059914D-05 0.314286809889D-06 0.000000000000D+00  7 -3 3 24 -11 11 -24 21 2 0.50585614D-01 0.26499884D-01 0.37233436D+05 0.37233436D+05 0.37233436D+05 0.11587307D+01  1  2  6  2  7  2        3 0.352247289002D-03 0.100000000000D+01
0.582487968321D-06 0.000000000000D+00 0.000000000000D+00 0.314286809889D-06 0.000000000000D+00  7 -3 21 24 -11 11 -24 -3 2 0.50585614D-01 0.41264380D-01 0.50968708D+05 0.50968708D+05 0.50968708D+05 0.11465631D+01  1  2 12  4  7  2        3 0.117268968667D-03 0.100000000000D+01
-.595657697745D-06 0.000000000000D+00 -.840375014939D-07 0.314286809889D-06 0.000000000000D+00  7 -3 21 24 -11 11 -24 -3 2 0.50585614D-01 0.41915940D-01 0.37233436D+05 0.37233436D+05 0.37233436D+05 0.11587307D+01  1  2  5  4  7  2        3 -.119628085273D-03 0.100000000000D+01
  </mgrwgt>
  </event>
  <event>
  8     66 0.29788925E-05 0.17549225E+03 0.75467711E-02 0.10283095E+00
       -1 -1    0    0    0  501 0.00000000E+00 0.00000000E+00 0.59788919E+03 0.59788928E+03 0.32000000E+00 0.0000E+00 0.9000E+01
        1 -1    0    0  501    0 0.00000000E+00 0.00000000E+00 -.12969062E+03 0.12969101E+03 0.32000000E+00 0.0000E+00 0.9000E+01
       25  2    1    2    0    0 0.16834885E+03 -.76543819E+02 0.29909399E+03 0.46038673E+03 0.29715052E+03 0.0000E+00 0.0000E+00
       23  2    1    2    0    0 -.16834885E+03 0.76543819E+02 0.16910458E+03 0.26719356E+03 0.92713261E+02 0.0000E+00 0.0000E+00
       24  1    3    3    0    0 0.54318381E+02 -.12997026E+03 0.49676401E+02 0.16963996E+03 0.80419002E+02 0.0000E+00 0.9000E+01
      -11  1    4    4    0    0 -.30593900E+02 0.48038808E+02 0.15750096E+02 0.59091280E+02 0.51099893E-03 0.0000E+00 0.9000E+01
       11  1    4    4    0    0 -.13775495E+03 0.28505011E+02 0.15335448E+03 0.20810228E+03 0.51099893E-03 0.0000E+00 0.9000E+01
      -24  1    3    3    0    0 0.11403047E+03 0.53426442E+02 0.24941759E+03 0.29074677E+03 0.80419002E+02 0.0000E+00 0.9000E+01
#aMCatNLO 1  0  0  2  1 0.50643890D+01 0.00000000D+00  -5  7  0 0.00000000D+00 0.00000000D+00 0.00000000D+00 0.00000000D+00 0.00000000D+00
  <mgrwgt>
 0.3709908950D-03    8    2    0
 0.278461473806686D+03 0.000000000000000D+00 0.000000000000000D+00 0.278461473806686D+03
 0.278461473806686D+03 0.000000000000000D+00 0.000000000000000D+00 -.278461473806686D+03
 0.179860195770086D+03 0.543183808201546D+02 -.129970260649981D+03 -.777156285423719D+02
 0.639576409725159D+02 -.305939003130465D+02 0.480388083020100D+02 -.291009621718485D+02
 0.142947539976102D+03 -.137754946195798D+03 0.285050107052697D+02 0.253976051726231D+02
 0.170157570894668D+03 0.114030465688690D+03 0.534264416427012D+02 0.814189855415974D+02
 0.000000000000000D+00 -.000000000000000D+00 -.000000000000000D+00 0.000000000000000D+00
 0.281653852996559D+03 0.000000000000000D+00 0.000000000000000D+00 0.281653852996559D+03
 0.280488792823971D+03 0.000000000000000D+00 0.000000000000000D+00 -.280488792823971D+03
 0.178983236118986D+03 0.549730040246740D+02 -.128475806150503D+03 -.777156285423719D+02
 0.642487978041474D+02 -.303600186188765D+02 0.485727422471939D+02 -.291009621718485D+02
 0.142688269746113D+03 -.137233872623122D+03 0.296945816521427D+02 0.253976051726231D+02
 0.171025670025104D+03 0.114652872138555D+03 0.548473477656165D+02 0.814189855415974D+02
 0.519667212617992D+01 -.203198492123017D+01 -.463886551445048D+01 0.116506017258793D+01
0.785430675180D-05 0.000000000000D+00 0.000000000000D+00 0.128301815204D-07 0.000000000000D+00  7 -1 1 24 -11 11 -24 21 0 0.91982989D-01 0.19952440D-01 0.64832453D+05 0.64832453D+05 0.64832453D+05 0.11375018D+01  1  2  2  2  7  2        1 0.313624475793D-03 0.100000000000D+01
-.432100731397D-06 0.000000000000D+00 -.301626060134D-07 0.128301815204D-07 0.000000000000D+00  7 -1 1 24 -11 11 -24 21 2 0.91982989D-01 0.19952440D-01 0.64832453D+05 0.64832453D+05 0.64832453D+05 0.11375018D+01  1  2  3  2  7  2        1 -.223249921229D-04 0.100000000000D+01
0.510474859755D-06 0.000000000000D+00 0.000000000000D+00 0.128301815204D-07 0.000000000000D+00  7 -1 1 24 -11 11 -24 21 2 0.91982989D-01 0.19952440D-01 0.64832453D+05 0.64832453D+05 0.64832453D+05 0.11375018D+01  1  2 15  2  7  2        1 0.263742835753D-04 0.100000000000D+01
0.139355480404D-05 0.000000000000D+00 0.000000000000D+00 0.128301815204D-07 0.000000000000D+00  7 -1 1 24 -11 11 -24 21 2 0.91982989D-01 0.20211011D-01 0.66148483D+05 0.66148483D+05 0.66148483D+05 0.11367549D+01  1  2 12  2  7  2        1 0.706975576383D-04 0.100000000000D+01
-.244720830745D-04 0.000000000000D+00 0.000000000000D+00 0.128301815204D-07 0.000000000000D+00  7 -1 1 24 -11 11 -24 21 2 0.91982989D-01 0.19952440D-01 0.64832453D+05 0.64832453D+05 0.64832453D+05 0.11375018D+01  1  2  4  2  7  2        1 -.126437893337D-02 0.100000000000D+01
0.236310146287D-04 0.000000000000D+00 0.000000000000D+00 0.128301815204D-07 0.344808640809D-08  7 -1 1 24 -11 11 -24 21 2 0.93037514D-01 0.20097702D-01 0.66148483D+05 0.66148483D+05 0.66148483D+05 0.11367549D+01  1  2 11  2  7  2        1 0.117878843067D-02 0.100000000000D+01
0.675203225945D-07 0.000000000000D+00 0.000000000000D+00 0.128301815204D-07 0.000000000000D+00  7 -1 21 24 -11 11 -24 -1 2 0.91982989D-01 0.20211011D-01 0.66148483D+05 0.66148483D+05 0.66148483D+05 0.11367549D+01  1  2 12  4  7  2        1 0.283877507477D-04 0.100000000000D+01
0.960385666838D-07 0.000000000000D+00 0.000000000000D+00 0.128301815204D-07 0.471844888327D-11  7 -1 21 24 -11 11 -24 -1 2 0.93037514D-01 0.20097702D-01 0.66148483D+05 0.66148483D+05 0.66148483D+05 0.11367549D+01  1  2 11  4  7  2        1 0.398223220771D-04 0.100000000000D+01
  </mgrwgt>
  </event>
  <event>
  9     66 0.29788925E-05 0.17899279E+03 0.75467711E-02 0.99024812E-01
       -1 -1    0    0    0  501 0.00000000E+00 0.00000000E+00 0.10639225E+04 0.10639225E+04 0.32000000E+00 0.0000E+00 0.9000E+01
       21 -1    0    0  501  502 0.00000000E+00 0.00000000E+00 -.18494289E+03 0.18494441E+03 0.75000000E+00 0.0000E+00 0.9000E+01
       25  2    1    2    0    0 -.25874662E+03 0.77070212E+02 0.22242427E+03 0.46106025E+03 0.30035706E+03 0.0000E+00 0.0000E+00
       23  2    1    2    0    0 0.38526479E+02 0.62061925E+02 0.42985579E+03 0.44248445E+03 0.75369218E+02 0.0000E+00 0.0000E+00
       24  1    3    3    0    0 -.17178762E+03 0.50523909E+01 0.25578654E+03 0.31848153E+03 0.80419002E+02 0.0000E+00 0.9000E+01
      -13  1    4    4    0    0 -.20694170E+02 0.21498510E+02 0.81033577E+02 0.86353265E+02 0.10565837E+00 0.0000E+00 0.9000E+01
       13  1    4    4    0    0 0.59220649E+02 0.40563415E+02 0.34882221E+03 0.35613119E+03 0.10565837E+00 0.0000E+00 0.9000E+01
      -24  1    3    3    0    0 -.86959002E+02 0.72017821E+02 -.33362274E+02 0.14257872E+03 0.80419002E+02 0.0000E+00 0.9000E+01
       -1  1    1    2    0  502 0.22022014E+03 -.13913214E+03 0.22669953E+03 0.34532223E+03 0.32000000E+00 0.0000E+00 0.9000E+01
#aMCatNLO 2  0  0  2  2 0.26048928D+03 0.00000000D+00  -5  7  0 0.00000000D+00 0.00000000D+00 0.00000000D+00 0.00000000D+00 0.00000000D+00
  <mgrwgt>
 0.1144560105D-03    1    2    0
 0.284195835792358D+03 0.000000000000000D+00 0.000000000000000D+00 0.284195835792358D+03
 0.284195835792358D+03 0.000000000000000D+00 0.000000000000000D+00 -.284195835792358D+03
 0.144941942546772D+03 -.109365862492414D+03 -.343848393317031D+02 0.373863838888505D+02
 0.309977740868105D+02 -.754896550385868D+01 0.131934095477140D+02 0.270149784872168D+02
 0.178835741360212D+03 0.120026905092520D+03 0.214697393469202D+01 0.132556233141605D+03
 0.213616213590922D+03 -.311207709624713D+01 0.190444558492971D+02 -.196957595517672D+03
 0.000000000000000D+00 0.000000000000000D+00 -.000000000000000D+00 -.000000000000000D+00
 0.427558514246266D+03 0.000000000000000D+00 0.000000000000000D+00 0.427558514246266D+03
 0.460207856422089D+03 0.000000000000000D+00 0.000000000000000D+00 -.460207856422089D+03
 0.193394597929344D+03 -.171787619459776D+03 0.505239091331048D+01 0.373863838888505D+02
 0.402523095420574D+02 -.206943248491031D+02 0.214984715699654D+02 0.270149784872168D+02
 0.150743664758181D+03 0.592208048669314D+02 0.405634538833703D+02 0.132556233141605D+03
 0.240848386099202D+03 -.869590028589959D+02 0.720178208632146D+02 -.196957595517672D+03
 0.262527412339570D+03 0.220220142300943D+03 -.139132137229861D+03 -.326493421758237D+02
0.234151595452D-05 0.000000000000D+00 0.000000000000D+00 0.587397012677D-08 0.843720417650D-13  7 -1 21 24 -13 13 -24 -1 2 0.16368046D+00 0.28452866D-01 0.11918977D+06 0.11918977D+06 0.11918977D+06 0.11155189D+01  1  2  1  4  7  2        1 0.114456010521D-03 0.100000000000D+01
  </mgrwgt>
  </event>
  <event>
  8     66 0.29788925E-05 0.13877717E+03 0.75467711E-02 0.98814553E-01
       -1 -1    0    0    0  501 0.00000000E+00 0.00000000E+00 0.25772137E+03 0.25772157E+03 0.32000000E+00 0.0000E+00 0.9000E+01
        1 -1    0    0  501    0 0.00000000E+00 0.00000000E+00 -.64358250E+03 0.64358258E+03 0.32000000E+00 0.0000E+00 0.9000E+01
       25  2    1    2    0    0 0.16489439E+03 0.16798248E+03 -.49791634E+03 0.62823248E+03 0.30223681E+03 0.0000E+00 0.0000E+00
       23  2    1    2    0    0 -.16489439E+03 -.16798248E+03 0.11205522E+03 0.27307166E+03 0.81261845E+02 0.0000E+00 0.0000E+00
       24  1    3    3    0    0 -.66468230E+01 -.14369572E+02 -.22589788E+02 0.85018700E+02 0.80419002E+02 0.0000E+00 0.9000E+01
      -11  1    4    4    0    0 -.16302053E+01 -.22258518E+00 -.92654225E+01 0.94103755E+01 0.51099893E-03 0.0000E+00 0.9000E+01
       11  1    4    4    0    0 -.16326419E+03 -.16775989E+03 0.12132064E+03 0.26366129E+03 0.51099893E-03 0.0000E+00 0.9000E+01
      -24  1    3    3    0    0 0.17154122E+03 0.18235205E+03 -.47532656E+03 0.54321378E+03 0.80419002E+02 0.0000E+00 0.9000E+01
#aMCatNLO 1  0  0  1  2 0.11139022D+03 0.00000000D+00  -5  7  0 0.00000000D+00 0.00000000D+00 0.00000000D+00 0.00000000D+00 0.00000000D+00
  <mgrwgt>
 0.1655386025D-02    6    2    0
 0.407265378231739D+03 0.000000000000000D+00 0.000000000000000D+00 0.407265378231739D+03
 0.407265378231739D+03 0.000000000000000D+00 0.000000000000000D+00 -.407265378231739D+03
 0.833746116997077D+02 -.664682299669015D+01 -.143695715896387D+02 0.152789095843719D+02
 0.602364497131414D+01 -.163020526676866D+01 -.222585176302335D+00 -.579458241531935D+01
 0.349221843186446D+03 -.163264189269241D+03 -.167759893918446D+03 0.259147290653922D+03
 0.375910656606009D+03 0.171541217532699D+03 0.182352050684387D+03 -.268631617822974D+03
 0.000000000000000D+00 -.000000000000000D+00 0.000000000000000D+00 -.000000000000000D+00
 0.463070891678339D+03 0.000000000000000D+00 0.000000000000000D+00 0.463070891678339D+03
 0.470691709327745D+03 0.000000000000000D+00 0.000000000000000D+00 -.470691709327745D+03
 0.849651906037496D+02 0.117821379910355D+01 -.227383903149970D+02 0.152789095843719D+02
 0.594968327110692D+01 -.107364209642486D+01 -.817825352594120D+00 -.579458241531935D+01
 0.353980982245238D+03 -.130576803941380D+03 -.202718809710618D+03 0.259147290653922D+03
 0.377216139876928D+03 0.206549247800870D+03 0.144911222367303D+03 -.268631617822974D+03
 0.111650605009061D+03 -.760770155621685D+02 0.813638030109057D+02 -.762081764940623D+01
0.730765070391D-04 0.000000000000D+00 0.000000000000D+00 0.443775625991D-08 0.000000000000D+00  7 -1 1 24 -11 11 -24 21 0 0.39649463D-01 0.99012713D-01 0.84290058D+05 0.84290058D+05 0.84290058D+05 0.11278643D+01  1  2  2  1  7  1       -1 0.168844724087D-02 0.100000000000D+01
-.349436183572D-05 0.000000000000D+00 -.280633028516D-06 0.443775625991D-08 0.000000000000D+00  7 -1 1 24 -11 11 -24 21 2 0.39649463D-01 0.99012713D-01 0.84290058D+05 0.84290058D+05 0.84290058D+05 0.11278643D+01  1  2  3  1  7  1       -1 -.102704933234D-03 0.100000000000D+01
0.460117469631D-05 0.000000000000D+00 0.000000000000D+00 0.443775625991D-08 0.000000000000D+00  7 -1 1 24 -11 11 -24 21 2 0.39649463D-01 0.99012713D-01 0.84290058D+05 0.84290058D+05 0.84290058D+05 0.11278643D+01  1  2 15  1  7  1       -1 0.135235949280D-03 0.100000000000D+01
0.392850995282D-04 0.000000000000D+00 0.000000000000D+00 0.443775625991D-08 0.000000000000D+00  7 -1 1 24 -11 11 -24 21 2 0.47754003D-01 0.99012713D-01 0.12329654D+06 0.12329654D+06 0.12329654D+06 0.11143340D+01  1  2 12  1  7  1       -1 0.806243980315D-03 0.100000000000D+01
-.366150800324D-04 0.000000000000D+00 0.000000000000D+00 0.443775625991D-08 0.000000000000D+00  7 -1 1 24 -11 11 -24 21 2 0.39649463D-01 0.99012713D-01 0.84290058D+05 0.84290058D+05 0.84290058D+05 0.11278643D+01  1  2  4  1  7  1       -1 -.107617628822D-02 0.100000000000D+01
0.106287813372D-05 0.000000000000D+00 0.000000000000D+00 0.443775625991D-08 0.000000000000D+00  7 21 1 24 -11 11 -24 1 2 0.47754003D-01 0.99012713D-01 0.12329654D+06 0.12329654D+06 0.12329654D+06 0.11143340D+01  1  2 12  3  7  1       -1 0.204340075654D-03 0.100000000000D+01
  </mgrwgt>
  </event>
  <event>
  8     66 0.29788925E-05 0.71040377E+03 0.75467711E-02 0.86115590E-01
       -1 -1    0    0    0  501 0.00000000E+00 0.00000000E+00 0.36634756E+03 0.36634770E+03 0.32000000E+00 0.0000E+00 0.9000E+01
        1 -1    0    0  501    0 0.00000000E+00 0.00000000E+00 -.14153716E+04 0.14153716E+04 0.32000000E+00 0.0000E+00 0.9000E+01
       25  2    1    2    0    0 0.26264098E+03 0.62838802E+03 -.45038762E+03 0.87027198E+03 0.30111877E+03 0.0000E+00 0.0000E+00
       23  2    1    2    0    0 -.26264098E+03 -.62838802E+03 -.59863641E+03 0.91144736E+03 0.92298145E+02 0.0000E+00 0.0000E+00
       24  1    3    3    0    0 -.17814330E+02 0.22523687E+03 -.20457259E+03 0.31522398E+03 0.80419002E+02 0.0000E+00 0.9000E+01
      -13  1    4    4    0    0 -.21395342E+03 -.44762336E+03 -.38945384E+03 0.63072739E+03 0.10565837E+00 0.0000E+00 0.9000E+01
       13  1    4    4    0    0 -.48687558E+02 -.18076466E+03 -.20918257E+03 0.28071997E+03 0.10565837E+00 0.0000E+00 0.9000E+01
      -24  1    3    3    0    0 0.28045531E+03 0.40315115E+03 -.24581503E+03 0.55504799E+03 0.80419002E+02 0.0000E+00 0.9000E+01
#aMCatNLO 1  0  0  2  2 0.70040814D+03 0.00000000D+00  -5  7  0 0.00000000D+00 0.00000000D+00 0.00000000D+00 0.00000000D+00 0.00000000D+00
  <mgrwgt>
 0.6533009210D-03    5    2    0
 0.720082005681188D+03 0.000000000000000D+00 0.000000000000000D+00 0.720082005681188D+03
 0.720082005681188D+03 0.000000000000000D+00 0.000000000000000D+00 -.720082005681188D+03
 0.240971930479655D+03 -.178143299071331D+02 0.225236871089024D+03 -.234788602088637D+02
 0.496633241047444D+03 -.213953635365428D+03 -.447623708176836D+03 -.223927199157340D+02
 0.194926469054333D+03 -.486873419232842D+02 -.180764314883903D+03 -.543151317681207D+02
 0.507632370780944D+03 0.280455307195845D+03 0.403151151971715D+03 0.100186711892718D+03
 0.000000000000000D+00 -.000000000000000D+00 0.000000000000000D+00 -.000000000000000D+00
 0.100467779487200D+04 0.000000000000000D+00 0.000000000000000D+00 0.100467779487200D+04
 0.140205590980116D+04 0.000000000000000D+00 0.000000000000000D+00 -.140205590980116D+04
 0.175490691067670D+03 0.401970417126898D+02 0.148871446751480D+03 -.234788602088637D+02
 0.662659744716210D+03 -.524693322519319D+02 -.660199570232490D+03 -.223927199157340D+02
 0.272437712435910D+03 0.164143882475804D+02 -.266463396129339D+03 -.543151317681207D+02
 0.490862424321918D+03 0.419541144969137D+03 0.220060341940413D+03 0.100186711892718D+03
 0.805283132131456D+03 -.423683242677475D+03 0.557731177669937D+03 -.397378114929160D+03
0.228670096861D-03 0.000000000000D+00 0.000000000000D+00 0.141675044471D-05 0.000000000000D+00  7 -1 1 24 -13 13 -24 21 0 0.56361177D-01 0.21774949D+00 0.50467351D+06 0.50467351D+06 0.50467351D+06 0.10682250D+01  1  2  2  2  7  2        1 0.661388475988D-03 0.100000000000D+01
-.127010660249D-04 0.000000000000D+00 -.878153382166D-06 0.141675044471D-05 0.000000000000D+00  7 -1 1 24 -13 13 -24 21 2 0.56361177D-01 0.21774949D+00 0.50467351D+06 0.50467351D+06 0.50467351D+06 0.10682250D+01  1  2  3  2  7  2        1 -.419191876295D-04 0.100000000000D+01
0.145505422761D-04 0.000000000000D+00 0.000000000000D+00 0.141675044471D-05 0.000000000000D+00  7 -1 1 24 -13 13 -24 21 2 0.56361177D-01 0.21774949D+00 0.50467351D+06 0.50467351D+06 0.50467351D+06 0.10682250D+01  1  2 15  2  7  2        1 0.480232848633D-04 0.100000000000D+01
-.622626763448D-04 0.000000000000D+00 -.600125109208D-04 0.141675044471D-05 0.000000000000D+00  7 -1 1 24 -13 13 -24 21 2 0.56361177D-01 0.47542494D+00 0.50467351D+06 0.50467351D+06 0.50467351D+06 0.10682250D+01  1  2  5  2  7  2        1 -.141246095724D-04 0.100000000000D+01
-.149416561504D-05 0.000000000000D+00 -.507670903204D-05 0.141675044471D-05 0.000000000000D+00  7 -1 21 24 -13 13 -24 -1 2 0.56361177D-01 0.47542494D+00 0.50467351D+06 0.50467351D+06 0.50467351D+06 0.10682250D+01  1  2  5  4  7  2        1 -.670426167272D-07 0.100000000000D+01
  </mgrwgt>
  </event>
  <event>
  8     66 0.29788925E-05 0.10635912E+03 0.75467711E-02 0.96753237E-01
       -1 -1    0    0    0  501 0.00000000E+00 0.00000000E+00 0.49548475E+03 0.49548485E+03 0.32000000E+00 0.0000E+00 0.9000E+01
        1 -1    0    0  501    0 0.00000000E+00 0.00000000E+00 -.56440132E+03 0.56440141E+03 0.32000000E+00 0.0000E+00 0.9000E+01
       25  2    1    2    0    0 0.21744728E+03 0.18179766E+03 0.35291339E+03 0.54369796E+03 0.30120742E+03 0.0000E+00 0.0000E+00
       23  2    1    2    0    0 -.21744728E+03 -.18179766E+03 -.42182996E+03 0.51618830E+03 0.90421981E+02 0.0000E+00 0.0000E+00
       24  1    3    3    0    0 0.49310772E+01 0.98487347E+02 0.25038223E+03 0.28086038E+03 0.80419002E+02 0.0000E+00 0.9000E+01
      -13  1    4    4    0    0 -.96994143E+02 -.59246507E+02 -.24253141E+03 0.26784232E+03 0.10565837E+00 0.0000E+00 0.9000E+01
       13  1    4    4    0    0 -.12045314E+03 -.12255115E+03 -.17929854E+03 0.24834597E+03 0.10565837E+00 0.0000E+00 0.9000E+01
      -24  1    3    3    0    0 0.21251620E+03 0.83310309E+02 0.10253115E+03 0.26283759E+03 0.80419002E+02 0.0000E+00 0.9000E+01
#aMCatNLO 1  0  0  1  2 0.17733325D+03 0.00000000D+00  -5  7  0 0.00000000D+00 0.00000000D+00 0.00000000D+00 0.00000000D+00 0.00000000D+00
  <mgrwgt>
 0.7625563858D-03    9    2    0
 0.528821659181992D+03 0.000000000000000D+00 0.000000000000000D+00 0.528821659181992D+03
 0.528821659181992D+03 0.000000000000000D+00 0.000000000000000D+00 -.528821659181992D+03
 0.297771030683747D+03 0.493107753506891D+01 0.984873473819580D+02 0.269214222581385D+03
 0.252606887895269D+03 -.969941108329866D+02 -.592464211121862D+02 -.225593093558399D+03
 0.237189433055659D+03 -.120453168161930D+03 -.122551235661685D+03 -.163496348799638D+03
 0.270075966729308D+03 0.212516201459848D+03 0.833103093919135D+02 0.119875219776653D+03
 0.000000000000000D+00 -.000000000000000D+00 -.000000000000000D+00 0.000000000000000D+00
 0.643015965332428D+03 0.000000000000000D+00 0.000000000000000D+00 0.643015965332428D+03
 0.609806873796059D+03 0.000000000000000D+00 0.000000000000000D+00 -.609806873796059D+03
 0.313767127651721D+03 0.422476418870796D+02 0.133121874818989D+03 0.269214222581385D+03
 0.237455370593746D+03 -.670901063875842D+02 -.314916939440731D+02 -.225593093558399D+03
 0.211719144715116D+03 -.930603953607217D+02 -.971272514971654D+02 -.163496348799638D+03
 0.309465215949533D+03 0.247880283885938D+03 0.116132684772403D+03 0.119875219776653D+03
 0.180415980218370D+03 -.129977424024712D+03 -.120635614150153D+03 0.332090915363682D+02
0.780563482838D-04 0.000000000000D+00 0.000000000000D+00 0.997662822127D-06 0.000000000000D+00  7 -1 1 24 -13 13 -24 21 0 0.76228437D-01 0.86830987D-01 0.10717544D+06 0.10717544D+06 0.10717544D+06 0.11192607D+01  1  2  2  1  7  1       -1 0.650918879547D-03 0.100000000000D+01
-.312400497330D-05 0.000000000000D+00 -.299756930118D-06 0.997662822127D-06 0.000000000000D+00  7 -1 1 24 -13 13 -24 21 2 0.76228437D-01 0.86830987D-01 0.10717544D+06 0.10717544D+06 0.10717544D+06 0.11192607D+01  1  2  3  1  7  1       -1 -.326356957846D-04 0.100000000000D+01
0.472050252998D-05 0.000000000000D+00 0.000000000000D+00 0.997662822127D-06 0.000000000000D+00  7 -1 1 24 -13 13 -24 21 2 0.76228437D-01 0.86830987D-01 0.10717544D+06 0.10717544D+06 0.10717544D+06 0.11192607D+01  1  2 15  1  7  1       -1 0.493139050147D-04 0.100000000000D+01
0.264165134701D-04 0.000000000000D+00 0.000000000000D+00 0.997662822127D-06 0.000000000000D+00  7 -1 1 24 -13 13 -24 21 2 0.97463275D-01 0.86830987D-01 0.17323407D+06 0.17323407D+06 0.17323407D+06 0.11026500D+01  1  2 12  1  7  1       -1 0.157605127645D-03 0.100000000000D+01
-.453526547414D-04 0.000000000000D+00 0.000000000000D+00 0.997662822127D-06 0.000000000000D+00  7 -1 1 24 -13 13 -24 21 2 0.76228437D-01 0.86830987D-01 0.10717544D+06 0.10717544D+06 0.10717544D+06 0.11192607D+01  1  2  4  1  7  1       -1 -.473787799896D-03 0.100000000000D+01
-.683001815087D-04 0.000000000000D+00 -.375430790788D-04 0.997662822127D-06 0.000000000000D+00  7 -1 1 24 -13 13 -24 21 2 0.10400551D+00 0.86830987D-01 0.10717544D+06 0.10717544D+06 0.10717544D+06 0.11192607D+01  1  2  5  1  7  1       -1 -.370558944476D-03 0.100000000000D+01
0.779158677693D-04 0.000000000000D+00 0.358010120392D-04 0.997662822127D-06 0.000000000000D+00  7 -1 1 24 -13 13 -24 21 2 0.76228437D-01 0.86830987D-01 0.10717544D+06 0.10717544D+06 0.10717544D+06 0.11192607D+01  1  2  6  1  7  1       -1 0.813967512549D-03 0.100000000000D+01
0.882744724606D-06 0.000000000000D+00 0.000000000000D+00 0.997662822127D-06 0.000000000000D+00  7 21 1 24 -13 13 -24 1 2 0.97463275D-01 0.86830987D-01 0.17323407D+06 0.17323407D+06 0.17323407D+06 0.11026500D+01  1  2 12  3  7  1       -1 0.375789142565D-04 0.100000000000D+01
-.181931725067D-05 0.000000000000D+00 -.148844799489D-05 0.997662822127D-06 0.000000000000D+00  7 21 1 24 -13 13 -24 1 2 0.10400551D+00 0.86830987D-01 0.10717544D+06 0.10717544D+06 0.10717544D+06 0.11192607D+01  1  2  5  3  7  1       -1 -.698455130184D-04 0.100000000000D+01
  </mgrwgt>
  </event>
  <event>
  8     66 0.29788925E-05 0.13304428E+03 0.75467711E-02 0.95947558E-01
       -1 -1    0    0    0  501 0.00000000E+00 0.00000000E+00 0.48518504E+02 0.48519559E+02 0.32000000E+00 0.0000E+00 0.9000E+01
        1 -1    0    0  501    0 0.00000000E+00 0.00000000E+00 -.24635009E+04 0.24635009E+04 0.32000000E+00 0.0000E+00 0.9000E+01
       25  2    1    2    0    0 0.16882081E+03 -.20479734E+03 -.15930960E+04 0.16423180E+04 0.29801184E+03 0.0000E+00 0.0000E+00
       23  2    1    2    0    0 -.16882081E+03 0.20479734E+03 -.82188636E+03 0.86970247E+03 0.10218991E+03 0.0000E+00 0.0000E+00
       24  1    3    3    0    0 0.20649071E+03 -.17079324E+03 -.89322766E+03 0.93601903E+03 0.80419002E+02 0.0000E+00 0.9000E+01
      -11  1    4    4    0    0 -.17422498E+03 0.18788485E+03 -.80644264E+03 0.84617066E+03 0.51099893E-03 0.0000E+00 0.9000E+01
       11  1    4    4    0    0 0.54041697E+01 0.16912491E+02 -.15443723E+02 0.23531808E+02 0.51099893E-03 0.0000E+00 0.9000E+01
      -24  1    3    3    0    0 -.37669904E+02 -.34004106E+02 -.69986838E+03 0.70629900E+03 0.80419002E+02 0.0000E+00 0.9000E+01
#aMCatNLO 1  0  0  2  1 0.20902259D+03 0.00000000D+00  -5  7  0 0.00000000D+00 0.00000000D+00 0.00000000D+00 0.00000000D+00 0.00000000D+00
  <mgrwgt>
 0.1155359074D-02    9    2    0
 0.345726380205391D+03 0.000000000000000D+00 0.000000000000000D+00 0.345726380205391D+03
 0.345726380205391D+03 0.000000000000000D+00 0.000000000000000D+00 -.345726380205391D+03
 0.280814385202698D+03 0.206490710331952D+03 -.170793237381744D+03 0.240989542027883D+02
 0.257506032907926D+03 -.174224976361952D+03 0.187884851825479D+03 0.255792308362247D+02
 0.315510560748974D+02 0.540416963614746D+01 0.169124914337440D+02 0.260812523374281D+02
 0.121581286225260D+03 -.376699036061477D+02 -.340041058774789D+02 -.757594373764411D+02
 0.000000000000000D+00 0.000000000000000D+00 -.000000000000000D+00 -.000000000000000D+00
 0.417470854632900D+03 0.000000000000000D+00 0.000000000000000D+00 0.417470854632900D+03
 0.555208649244310D+03 0.000000000000000D+00 0.000000000000000D+00 -.555208649244310D+03
 0.231082278211086D+03 0.192495861814149D+03 -.964177729446976D+02 0.240989542027883D+02
 0.334570894980879D+03 -.190411889676508D+03 0.273910019875058D+03 0.255792308362247D+02
 0.376834387772564D+02 0.351135349391904D+01 0.269718414505087D+02 0.260812523374281D+02
 0.119018815217556D+03 -.442477194305466D+02 0.953622053529372D+00 -.757594373764411D+02
 0.250324076690432D+03 0.386523937989868D+02 -.205417710434399D+03 -.137737794611410D+03
0.563889434956D-04 0.000000000000D+00 0.000000000000D+00 0.269730042923D-08 0.000000000000D+00  7 -1 1 24 -11 11 -24 21 0 0.74644680D-02 0.37900022D+00 0.10525415D+06 0.10525415D+06 0.10525415D+06 0.11199016D+01  1  2  2  2  7  2        1 0.962592585226D-03 0.100000000000D+01
-.311732128867D-05 0.000000000000D+00 -.216548390573D-06 0.269730042923D-08 0.000000000000D+00  7 -1 1 24 -11 11 -24 21 2 0.74644680D-02 0.37900022D+00 0.10525415D+06 0.10525415D+06 0.10525415D+06 0.11199016D+01  1  2  3  2  7  2        1 -.667405623193D-04 0.100000000000D+01
0.361140604445D-05 0.000000000000D+00 0.000000000000D+00 0.269730042923D-08 0.000000000000D+00  7 -1 1 24 -11 11 -24 21 2 0.74644680D-02 0.37900022D+00 0.10525415D+06 0.10525415D+06 0.10525415D+06 0.11199016D+01  1  2 15  2  7  2        1 0.773187130393D-04 0.100000000000D+01
0.771780447176D-05 0.000000000000D+00 0.000000000000D+00 0.269730042923D-08 0.000000000000D+00  7 -1 1 24 -11 11 -24 21 2 0.74644680D-02 0.62853616D+00 0.19866145D+06 0.19866145D+06 0.19866145D+06 0.10980494D+01  1  2 12  2  7  2        1 0.806198486275D-05 0.100000000000D+01
-.241938184828D-04 0.000000000000D+00 0.000000000000D+00 0.269730042923D-08 0.000000000000D+00  7 -1 1 24 -11 11 -24 21 2 0.74644680D-02 0.37900022D+00 0.10525415D+06 0.10525415D+06 0.10525415D+06 0.11199016D+01  1  2  4  2  7  2        1 -.517979669296D-03 0.100000000000D+01
-.297639408981D-04 0.000000000000D+00 -.136586720380D-04 0.269730042923D-08 0.000000000000D+00  7 -1 1 24 -11 11 -24 21 2 0.74644680D-02 0.63174252D+00 0.10525415D+06 0.10525415D+06 0.10525415D+06 0.11199016D+01  1  2  5  2  7  2        1 -.322671786887D-04 0.100000000000D+01
0.338366438270D-04 0.000000000000D+00 0.120510917302D-04 0.269730042923D-08 0.000000000000D+00  7 -1 1 24 -11 11 -24 21 2 0.74644680D-02 0.37900022D+00 0.10525415D+06 0.10525415D+06 0.10525415D+06 0.11199016D+01  1  2  6  2  7  2        1 0.724428580467D-03 0.100000000000D+01
0.439195496449D-06 0.000000000000D+00 0.000000000000D+00 0.269730042923D-08 0.000000000000D+00  7 -1 21 24 -11 11 -24 -1 2 0.74644680D-02 0.62853616D+00 0.19866145D+06 0.19866145D+06 0.19866145D+06 0.10980494D+01  1  2 12  4  7  2        1 0.353855969438D-07 0.100000000000D+01
-.107626139304D-05 0.000000000000D+00 -.783511776543D-06 0.269730042923D-08 0.000000000000D+00  7 -1 21 24 -11 11 -24 -1 2 0.74644680D-02 0.63174252D+00 0.10525415D+06 0.10525415D+06 0.10525415D+06 0.11199016D+01  1  2  5  4  7  2        1 -.907644405307D-07 0.100000000000D+01
  </mgrwgt>
  </event>
  <event>
  8     66 0.29788925E-05 0.39822002E+03 0.75467711E-02 0.87259040E-01
       -1 -1    0    0    0  501 0.00000000E+00 0.00000000E+00 0.37776658E+03 0.37776671E+03 0.32000000E+00 0.0000E+00 0.9000E+01
        1 -1    0    0  501    0 0.00000000E+00 0.00000000E+00 -.56330674E+03 0.56330683E+03 0.32000000E+00 0.0000E+00 0.9000E+01
       25  2    1    2    0    0 0.14385903E+03 0.32844050E+03 0.94411006E+02 0.47724327E+03 0.30046484E+03 0.0000E+00 0.0000E+00
       23  2    1    2    0    0 -.14385903E+03 -.32844050E+03 -.27995117E+03 0.46383027E+03 0.90538834E+02 0.0000E+00 0.0000E+00
       24  1    3    3    0    0 0.16795247E+03 0.26530761E+03 -.16412053E+02 0.32455004E+03 0.80419002E+02 0.0000E+00 0.9000E+01
      -13  1    4    4    0    0 -.83748156E+02 -.97027088E+02 -.72327079E+02 0.14717074E+03 0.10565837E+00 0.0000E+00 0.9000E+01
       13  1    4    4    0    0 -.60110878E+02 -.23141341E+03 -.20762409E+03 0.31665953E+03 0.10565837E+00 0.0000E+00 0.9000E+01
      -24  1    3    3    0    0 -.24093439E+02 0.63132893E+02 0.11082306E+03 0.15269323E+03 0.80419002E+02 0.0000E+00 0.9000E+01
#aMCatNLO 1  0  0  2  1 0.86591969D+03 0.00000000D+00  -5  7  0 0.00000000D+00 0.00000000D+00 0.00000000D+00 0.00000000D+00 0.00000000D+00
  <mgrwgt>
 0.4733511470D-03    5    2    0
 0.461300947889760D+03 0.000000000000000D+00 0.000000000000000D+00 0.461300947889760D+03
 0.461300947889760D+03 0.000000000000000D+00 0.000000000000000D+00 -.461300947889760D+03
 0.327747388743933D+03 0.167952472627660D+03 0.265307605008070D+03 0.485281004906783D+02
 0.135571723118404D+03 -.837481877058840D+02 -.970269046276254D+02 -.441781953417639D+02
 0.281245336279653D+03 -.601108462874320D+02 -.231413593351448D+03 -.148099203744769D+03
 0.178037447637529D+03 -.240934386343438D+02 0.631328929710039D+02 0.143749298595854D+03
 0.000000000000000D+00 -.000000000000000D+00 -.000000000000000D+00 -.000000000000000D+00
 0.947358003682663D+03 0.000000000000000D+00 0.000000000000000D+00 0.947358003682663D+03
 0.122831040016552D+04 0.000000000000000D+00 0.000000000000000D+00 -.122831040016552D+04
 0.671554793487349D+03 0.547048933315968D+03 0.378022635198071D+03 0.485281004906783D+02
 0.846345724038743D+02 -.210466345781214D+00 -.721890130577285D+02 -.441781953417639D+02
 0.269738528484233D+03 0.148911045931364D+03 -.169266062749247D+03 -.148099203744769D+03
 0.239382803424703D+03 0.134259602728967D+03 0.110215284100525D+03 0.143749298595854D+03
 0.910357706048027D+03 -.830009115630518D+03 -.246782843491620D+03 -.280952396482860D+03
0.326861166730D-04 0.000000000000D+00 0.000000000000D+00 0.189208506050D-05 0.000000000000D+00  7 -1 1 24 -13 13 -24 21 0 0.58117952D-01 0.86662592D-01 0.15857918D+06 0.15857918D+06 0.15857918D+06 0.11056508D+01  1  2  2  2  7  2        1 0.454804541527D-03 0.100000000000D+01
-.176815578390D-05 0.000000000000D+00 -.125523294476D-06 0.189208506050D-05 0.000000000000D+00  7 -1 1 24 -13 13 -24 21 2 0.58117952D-01 0.86662592D-01 0.15857918D+06 0.15857918D+06 0.15857918D+06 0.11056508D+01  1  2  3  2  7  2        1 -.300758515558D-04 0.100000000000D+01
0.208126056487D-05 0.000000000000D+00 0.000000000000D+00 0.189208506050D-05 0.000000000000D+00  7 -1 1 24 -13 13 -24 21 2 0.58117952D-01 0.86662592D-01 0.15857918D+06 0.15857918D+06 0.15857918D+06 0.11056508D+01  1  2 15  2  7  2        1 0.354016791778D-04 0.100000000000D+01
0.133577337266D-04 0.000000000000D+00 -.117643187921D-04 0.189208506050D-05 0.000000000000D+00  7 -1 1 24 -13 13 -24 21 2 0.58117952D-01 0.35302990D+00 0.15857918D+06 0.15857918D+06 0.15857918D+06 0.11056508D+01  1  2  5  2  7  2        1 0.123278636245D-04 0.100000000000D+01
0.234591227227D-05 0.000000000000D+00 -.197647156947D-05 0.189208506050D-05 0.000000000000D+00  7 -1 21 24 -13 13 -24 -1 2 0.58117952D-01 0.35302990D+00 0.15857918D+06 0.15857918D+06 0.15857918D+06 0.11056508D+01  1  2  5  4  7  2        1 0.892914265623D-06 0.100000000000D+01
  </mgrwgt>
  </event>
  <event>
  8     66 0.29788925E-05 0.17735082E+03 0.75467711E-02 0.10550918E+00
       -1 -1    0    0    0  501 0.00000000E+00 0.00000000E+00 0.44665527E+03 0.44665538E+03 0.32000000E+00 0.0000E+00 0.9000E+01
        1 -1    0    0  501    0 0.00000000E+00 0.00000000E+00 -.11145793E+03 0.11145839E+03 0.32000000E+00 0.0000E+00 0.9000E+01
       25  2    1    2    0    0 -.48823535E+02 -.45429347E+02 0.33797274E+03 0.45580676E+03 0.29847391E+03 0.0000E+00 0.0000E+00
       23  2    1    2    0    0 0.48823535E+02 0.45429347E+02 -.27754032E+01 0.10230701E+03 0.77533594E+02 0.0000E+00 0.0000E+00
       24  1    3    3    0    0 -.13507938E+03 0.61536082E+00 0.26917979E+03 0.31172390E+03 0.80419002E+02 0.0000E+00 0.9000E+01
      -11  1    4    4    0    0 0.49296740E+02 0.35006589E+02 -.34013536E+02 0.69372549E+02 0.51099893E-03 0.0000E+00 0.9000E+01
       11  1    4    4    0    0 -.47320450E+00 0.10422758E+02 0.31238133E+02 0.32934461E+02 0.51099893E-03 0.0000E+00 0.9000E+01
      -24  1    3    3    0    0 0.86255843E+02 -.46044708E+02 0.68792949E+02 0.14408286E+03 0.80419002E+02 0.0000E+00 0.9000E+01
#aMCatNLO 1  0  0  2  1 0.60166147D+02 0.00000000D+00  -5  7  0 0.00000000D+00 0.00000000D+00 0.00000000D+00 0.00000000D+00 0.00000000D+00
  <mgrwgt>
 0.2126755277D-02    3    2    0
 0.223122014553856D+03 0.000000000000000D+00 0.000000000000000D+00 0.223122014553856D+03
 0.223122014553856D+03 0.000000000000000D+00 0.000000000000000D+00 -.223122014553856D+03
 0.187675467690098D+03 -.135079378420732D+03 0.615360679896018D+00 0.102508770722456D+03
 0.112313035710838D+03 0.492967400465765D+02 0.350065894824652D+02 -.946498182997217D+02
 0.177262599211356D+02 -.473204373573456D+00 0.104227581286194D+02 0.143304738723040D+02
 0.128529265785641D+03 0.862558427477284D+02 -.460447082909807D+02 -.221894262950381D+02
 0.000000000000000D+00 0.000000000000000D+00 -.000000000000000D+00 0.000000000000000D+00
 0.622744396622296D+03 0.000000000000000D+00 0.000000000000000D+00 0.622744396622296D+03
 0.227417014696071D+03 0.000000000000000D+00 0.000000000000000D+00 -.227417014696071D+03
 0.195981740564457D+03 -.144311928422374D+03 0.246504750520204D+02 0.102508770722456D+03
 0.115351923024766D+03 0.438180781840484D+02 0.492691999691281D+02 -.946498182997217D+02
 0.192213561375942D+02 -.136233327657419D+01 0.127374290344237D+02 0.143304738723040D+02
 0.119726779538340D+03 0.802816650121108D+02 -.304921204220355D+02 -.221894262950381D+02
 0.399879612053210D+03 0.215745185027886D+02 -.561649836335367D+02 0.395327381926225D+03
0.240389399714D-04 0.000000000000D+00 0.000000000000D+00 0.625580147753D-09 0.000000000000D+00  7 -1 1 24 -11 11 -24 21 0 0.68716239D-01 0.17147419D-01 0.31453315D+05 0.31453315D+05 0.31453315D+05 0.11654345D+01  1  2  2  2  7  2        1 0.209652852633D-02 0.100000000000D+01
-.124990603178D-05 0.000000000000D+00 -.923158590886D-07 0.625580147753D-09 0.000000000000D+00  7 -1 1 24 -11 11 -24 21 2 0.68716239D-01 0.17147419D-01 0.31453315D+05 0.31453315D+05 0.31453315D+05 0.11654345D+01  1  2  3  2  7  2        1 -.148060278170D-03 0.100000000000D+01
0.150507641318D-05 0.000000000000D+00 0.000000000000D+00 0.625580147753D-09 0.000000000000D+00  7 -1 1 24 -11 11 -24 21 2 0.68716239D-01 0.17147419D-01 0.31453315D+05 0.31453315D+05 0.31453315D+05 0.11654345D+01  1  2 15  2  7  2        1 0.178287028574D-03 0.100000000000D+01
  </mgrwgt>
  </event>
  <event>
  8     66 0.29788925E-05 0.25598093E+03 0.75467711E-02 0.96477569E-01
       -1 -1    0    0    0  501 0.00000000E+00 0.00000000E+00 0.81414760E+02 0.81415389E+02 0.32000000E+00 0.0000E+00 0.9000E+01
        1 -1    0    0  501    0 0.00000000E+00 0.00000000E+00 -.17512868E+04 0.17512868E+04 0.32000000E+00 0.0000E+00 0.9000E+01
       25  2    1    2    0    0 -.19377313E+03 -.59293066E+02 -.15073934E+04 0.15505969E+04 0.30174878E+03 0.0000E+00 0.0000E+00
       23  2    1    2    0    0 0.19377313E+03 0.59293066E+02 -.16247864E+03 0.28210527E+03 0.11009260E+03 0.0000E+00 0.0000E+00
       24  1    3    3    0    0 -.54839864E+02 -.96338525E+02 -.11369784E+04 0.11451968E+04 0.80419002E+02 0.0000E+00 0.9000E+01
      -13  1    4    4    0    0 0.41234390E+02 -.10446102E+02 0.76288134E+01 0.43215806E+02 0.10565837E+00 0.0000E+00 0.9000E+01
       13  1    4    4    0    0 0.15253874E+03 0.69739168E+02 -.17010745E+03 0.23888946E+03 0.10565837E+00 0.0000E+00 0.9000E+01
      -24  1    3    3    0    0 -.13893327E+03 0.37045459E+02 -.37041496E+03 0.40540015E+03 0.80419002E+02 0.0000E+00 0.9000E+01
#aMCatNLO 1  0  0  2  1 0.28262147D+03 0.00000000D+00  -5  7  0 0.00000000D+00 0.00000000D+00 0.00000000D+00 0.00000000D+00 0.00000000D+00
  <mgrwgt>
 0.9662767587D-03    6    2    0
 0.377599252177299D+03 0.000000000000000D+00 0.000000000000000D+00 0.377599252177299D+03
 0.377599252177299D+03 0.000000000000000D+00 0.000000000000000D+00 -.377599252177299D+03
 0.265090850499600D+03 -.548398767818111D+02 -.963385273203209D+02 -.226974490047974D+03
 0.121743856088940D+03 0.412343332960085D+02 -.104461335021569D+02 0.114070918940338D+03
 0.203596305378077D+03 0.152538819729689D+03 0.697392050851026D+02 0.115411469591087D+03
 0.164767492387982D+03 -.138933276243887D+03 0.370454557373753D+02 -.250789848345119D+01
 0.000000000000000D+00 -.000000000000000D+00 -.000000000000000D+00 -.000000000000000D+00
 0.472830901357223D+03 0.000000000000000D+00 0.000000000000000D+00 0.472830901357223D+03
 0.689850685609410D+03 0.000000000000000D+00 0.000000000000000D+00 -.689850685609410D+03
 0.244879043231372D+03 0.186030463573126D+02 -.404355956210751D+02 -.226974490047974D+03
 0.139900914366510D+03 0.789149042523214D+02 0.182353826266206D+02 0.114070918940338D+03
 0.278617161060054D+03 0.221984422279217D+03 0.122599475485630D+03 0.115411469591087D+03
 0.142952482089468D+03 -.946172201163797D+02 0.707777386175515D+02 -.250789848345119D+01
 0.356331986219229D+03 -.224885152772472D+03 -.171177001108727D+03 -.217019784252187D+03
0.276803053463D-04 0.000000000000D+00 0.000000000000D+00 0.164939896648D-08 0.000000000000D+00  7 -1 1 24 -13 13 -24 21 0 0.12525398D-01 0.26942878D+00 0.65526239D+05 0.65526239D+05 0.65526239D+05 0.11371060D+01  1  2  2  2  7  2        1 0.641359917766D-03 0.100000000000D+01
-.125525660338D-05 0.000000000000D+00 -.106299660922D-06 0.164939896648D-08 0.000000000000D+00  7 -1 1 24 -13 13 -24 21 2 0.12525398D-01 0.26942878D+00 0.65526239D+05 0.65526239D+05 0.65526239D+05 0.11371060D+01  1  2  3  2  7  2        1 -.376067138920D-04 0.100000000000D+01
0.176948951886D-05 0.000000000000D+00 0.000000000000D+00 0.164939896648D-08 0.000000000000D+00  7 -1 1 24 -13 13 -24 21 2 0.12525398D-01 0.26942878D+00 0.65526239D+05 0.65526239D+05 0.65526239D+05 0.11371060D+01  1  2 15  2  7  2        1 0.530128149824D-04 0.100000000000D+01
-.734483975563D-05 0.000000000000D+00 -.705515180633D-05 0.164939896648D-08 0.000000000000D+00  7 -1 1 24 -13 13 -24 21 2 0.12525398D-01 0.52265034D+00 0.65526239D+05 0.65526239D+05 0.65526239D+05 0.11371060D+01  1  2  5  2  7  2        1 -.156982758828D-04 0.100000000000D+01
0.108563215521D-04 0.000000000000D+00 0.574675663538D-05 0.164939896648D-08 0.000000000000D+00  7 -1 1 24 -13 13 -24 21 2 0.12525398D-01 0.26942878D+00 0.65526239D+05 0.65526239D+05 0.65526239D+05 0.11371060D+01  1  2  6  2  7  2        1 0.325248700088D-03 0.100000000000D+01
-.115778914517D-06 0.000000000000D+00 -.506836851791D-06 0.164939896648D-08 0.000000000000D+00  7 -1 21 24 -13 13 -24 -1 2 0.12525398D-01 0.52265034D+00 0.65526239D+05 0.65526239D+05 0.65526239D+05 0.11371060D+01  1  2  5  4  7  2        1 -.396843543992D-07 0.100000000000D+01
  </mgrwgt>
  </event>
  <event>
  9     66 -.29788925E-05 0.32697448E+03 0.75467711E-02 0.99144879E-01
       -1 -1    0    0    0  501 0.00000000E+00 0.00000000E+00 0.23503083E+04 0.23503083E+04 0.32000000E+00 0.0000E+00 0.9000E+01
        1 -1    0    0  502    0 0.00000000E+00 0.00000000E+00 -.67195211E+02 0.67195973E+02 0.32000000E+00 0.0000E+00 0.9000E+01
       25  2    1    2    0    0 0.15619538E+03 0.20227981E+03 0.72423211E+03 0.82533951E+03 0.30225659E+03 0.0000E+00 0.0000E+00
       23  2    1    2    0    0 -.13903456E+03 -.22560658E+03 0.15020705E+04 0.15283947E+04 0.97701589E+02 0.0000E+00 0.0000E+00
       24  1    3    3    0    0 0.14646071E+03 0.24298279E+03 0.46408472E+03 0.54984836E+03 0.80419002E+02 0.0000E+00 0.9000E+01
      -11  1    4    4    0    0 -.83541670E+02 -.17640237E+03 0.12657164E+04 0.12806776E+04 0.51099893E-03 0.0000E+00 0.9000E+01
       11  1    4    4    0    0 -.55492891E+02 -.49204207E+02 0.23635407E+03 0.24771710E+03 0.51099893E-03 0.0000E+00 0.9000E+01
      -24  1    3    3    0    0 0.97346745E+01 -.40702981E+02 0.26014739E+03 0.27549115E+03 0.80419002E+02 0.0000E+00 0.9000E+01
       21  1    1    2  502  501 -.17160822E+02 0.23326774E+02 0.56810524E+02 0.63770137E+02 0.75000000E+00 0.0000E+00 0.9000E+01
#aMCatNLO 2  0  0  2  1 0.28959147D+02 0.00000000D+00  -5  7  0 0.00000000D+00 0.00000000D+00 0.00000000D+00 0.00000000D+00 0.00000000D+00
  <mgrwgt>
 -.8765727120D-04    3    2    0
 0.381707594652628D+03 0.000000000000000D+00 0.000000000000000D+00 0.381707594652628D+03
 0.381707594652628D+03 0.000000000000000D+00 0.000000000000000D+00 -.381707594652628D+03
 0.346022038579438D+03 0.138734457688133D+03 0.253485110569940D+03 -.172516909888928D+03
 0.253892771171098D+03 -.892842602209460D+02 -.168596447465341D+03 0.167526409953190D+03
 0.742309759781079D+02 -.571632053405959D+02 -.469337417148757D+02 0.631107268953825D+01
 0.892694035766118D+02 0.771300787340905D+01 -.379549213897237D+02 -.132057275380009D+01
 0.000000000000000D+00 -.000000000000000D+00 0.000000000000000D+00 -.000000000000000D+00
 0.392034232193028D+03 0.000000000000000D+00 0.000000000000000D+00 0.392034232193028D+03
 0.402839257716960D+03 0.000000000000000D+00 0.000000000000000D+00 -.402839257716960D+03
 0.341644075341645D+03 0.146460707914759D+03 0.242982787664395D+03 -.172516909888928D+03
 0.257219956550307D+03 -.835416698148670D+02 -.176402373624850D+03 0.167526409953190D+03
 0.744334908243699D+02 -.554928905656328D+02 -.492042072843331D+02 0.631107268953825D+01
 0.906667326424916D+02 0.973467447162760D+01 -.407029809010088D+02 -.132057275380009D+01
 0.309092345511749D+02 -.171608220058863D+02 0.233267741457966D+02 -.108050255239322D+02
-.530703498223D-03 0.000000000000D+00 0.000000000000D+00 0.107781079151D-07 0.000000000000D+00  7 -1 1 24 -11 11 -24 21 2 0.35205731D+00 0.10464608D-01 0.11691397D+06 0.11691397D+06 0.11691397D+06 0.11161950D+01  1  2 13  2  7  2        1 -.358124442794D-03 0.100000000000D+01
-.423505294027D-04 0.000000000000D+00 0.000000000000D+00 0.107781079151D-07 0.000000000000D+00  7 -1 1 24 -11 11 -24 21 2 0.35205731D+00 0.97953852D-02 0.10691231D+06 0.10691231D+06 0.10691231D+06 0.11193477D+01  1  2  8  2  7  2        1 -.315622576038D-04 0.100000000000D+01
0.540934936806D-03 0.000000000000D+00 0.000000000000D+00 0.107781079151D-07 0.855453729322D-10  7 -1 1 24 -11 11 -24 21 2 0.36158180D+00 0.10337666D-01 0.11691397D+06 0.11691397D+06 0.11691397D+06 0.11161950D+01  1  2  1  2  7  2        1 0.302029429202D-03 0.100000000000D+01
  </mgrwgt>
  </event>
  <event>
  8     66 0.29788925E-05 0.19300078E+03 0.75467711E-02 0.10022846E+00
       -1 -1    0    0    0  501 0.00000000E+00 0.00000000E+00 0.88954820E+02 0.88955395E+02 0.32000000E+00 0.0000E+00 0.9000E+01
        1 -1    0    0  501    0 0.00000000E+00 0.00000000E+00 -.77124246E+03 0.77124252E+03 0.32000000E+00 0.0000E+00 0.9000E+01
       25  2    1    2    0    0 -.80109380E+02 0.47556228E+02 -.65462963E+03 0.72608837E+03 0.29997543E+03 0.0000E+00 0.0000E+00
       23  2    1    2    0    0 0.80109380E+02 -.47556228E+02 -.27658008E+02 0.13410955E+03 0.92419147E+02 0.0000E+00 0.0000E+00
       24  1    3    3    0    0 -.44520465E+02 0.11262798E+03 -.14677649E+03 0.20658579E+03 0.80419002E+02 0.0000E+00 0.9000E+01
      -11  1    4    4    0    0 0.98053509E+01 0.27014967E+02 -.59102849E+01 0.29340839E+02 0.51099893E-03 0.0000E+00 0.9000E+01
       11  1    4    4    0    0 0.70304029E+02 -.74571195E+02 -.21747723E+02 0.10476871E+03 0.51099893E-03 0.0000E+00 0.9000E+01
      -24  1    3    3    0    0 -.35588915E+02 -.65071753E+02 -.50785314E+03 0.51950258E+03 0.80419002E+02 0.0000E+00 0.9000E+01
#aMCatNLO 1  0  0  1  2 0.20671685D+03 0.00000000D+00  -5  7  0 0.00000000D+00 0.00000000D+00 0.00000000D+00 0.00000000D+00 0.00000000D+00
  <mgrwgt>
 0.5802058246D-03    5    2    0
 0.261927489660033D+03 0.000000000000000D+00 0.000000000000000D+00 0.261927489660033D+03
 0.261927489660033D+03 0.000000000000000D+00 0.000000000000000D+00 -.261927489660033D+03
 0.148057922495895D+03 -.445204648256563D+02 0.112627980229465D+03 0.280499329868842D+02
 0.404814598602499D+02 0.980535086530903D+01 0.270149673008522D+02 0.285095638086431D+02
 0.143710814120140D+03 0.703040286675370D+02 -.745711948700118D+02 0.100743627807650D+03
 0.191604782843782D+03 -.355889147071897D+02 -.650717526603052D+02 -.157303124603177D+03
 0.000000000000000D+00 -.000000000000000D+00 -.000000000000000D+00 0.000000000000000D+00
 0.391275951325428D+03 0.000000000000000D+00 0.000000000000000D+00 0.391275951325428D+03
 0.378972658081609D+03 0.000000000000000D+00 0.000000000000000D+00 -.378972658081609D+03
 0.176888269655466D+03 0.427937295883197D+00 0.155033100067167D+03 0.280499329868842D+02
 0.536491038553008D+02 0.228260248476739D+02 0.392989020911671D+02 0.285095638086431D+02
 0.154481411766804D+03 0.111551670284584D+03 -.356574381348132D+02 0.100743627807650D+03
 0.178147170513724D+03 0.155572746809794D+02 -.168195303814665D+02 -.157303124603177D+03
 0.207082653615743D+03 -.150362907109120D+03 -.141855033642055D+03 0.123032932438180D+02
0.523068142867D-05 0.000000000000D+00 0.000000000000D+00 0.604686174363D-06 0.000000000000D+00  7 -1 1 24 -11 11 -24 21 0 0.13685406D-01 0.11865274D+00 0.37249302D+05 0.37249302D+05 0.37249302D+05 0.11587139D+01  1  2  2  1  7  1       -1 0.521382337483D-03 0.100000000000D+01
-.257645351937D-06 0.000000000000D+00 -.200871939561D-07 0.604686174363D-06 0.000000000000D+00  7 -1 1 24 -11 11 -24 21 2 0.13685406D-01 0.11865274D+00 0.37249302D+05 0.37249302D+05 0.37249302D+05 0.11587139D+01  1  2  3  1  7  1       -1 -.344804397892D-04 0.100000000000D+01
0.329906888158D-06 0.000000000000D+00 0.000000000000D+00 0.604686174363D-06 0.000000000000D+00  7 -1 1 24 -11 11 -24 21 2 0.13685406D-01 0.11865274D+00 0.37249302D+05 0.37249302D+05 0.37249302D+05 0.11587139D+01  1  2 15  1  7  1       -1 0.441511345253D-04 0.100000000000D+01
0.365339570679D-07 0.000000000000D+00 -.167073534593D-05 0.604686174363D-06 0.000000000000D+00  7 -1 1 24 -11 11 -24 21 2 0.29553080D-01 0.11865274D+00 0.37249302D+05 0.37249302D+05 0.37249302D+05 0.11587139D+01  1  2  5  1  7  1       -1 0.144002803271D-05 0.100000000000D+01
0.107731723760D-06 0.000000000000D+00 -.139252917810D-06 0.604686174363D-06 0.000000000000D+00  7 21 1 24 -11 11 -24 1 2 0.29553080D-01 0.11865274D+00 0.37249302D+05 0.37249302D+05 0.37249302D+05 0.11587139D+01  1  2  5  3  7  1       -1 0.477127643730D-04 0.100000000000D+01
  </mgrwgt>
  </event>
  <event>
  9     66 0.29788925E-05 0.22725342E+03 0.75467711E-02 0.10077895E+00
       -1 -1    0    0    0  501 0.00000000E+00 0.00000000E+00 0.31334942E+03 0.31334959E+03 0.32000000E+00 0.0000E+00 0.9000E+01
        1 -1    0    0  502    0 0.00000000E+00 0.00000000E+00 -.64305927E+03 0.64305934E+03 0.32000000E+00 0.0000E+00 0.9000E+01
       25  2    1    2    0    0 -.15656291E+00 -.73620967E+02 -.31825165E+03 0.44475689E+03 0.30183523E+03 0.0000E+00 0.0000E+00
       23  2    1    2    0    0 0.90748468E+02 0.16920714E+03 0.18069635E+03 0.27869810E+03 0.90305721E+02 0.0000E+00 0.0000E+00
       24  1    3    3    0    0 -.14309258E+02 0.59901243E+02 -.13530444E+02 0.10219199E+03 0.80419002E+02 0.0000E+00 0.9000E+01
      -13  1    4    4    0    0 0.39436297E+02 0.15279369E+03 0.14289816E+03 0.21288736E+03 0.10565837E+00 0.0000E+00 0.9000E+01
       13  1    4    4    0    0 0.51312171E+02 0.16413456E+02 0.37798185E+02 0.65810747E+02 0.10565837E+00 0.0000E+00 0.9000E+01
      -24  1    3    3    0    0 0.14152695E+02 -.13352221E+03 -.30472121E+03 0.34256490E+03 0.80419002E+02 0.0000E+00 0.9000E+01
       21  1    1    2  502  501 -.90591905E+02 -.95586175E+02 -.19215454E+03 0.23295394E+03 0.75000000E+00 0.0000E+00 0.9000E+01
#aMCatNLO 2  0  0  2  1 0.13169514D+03 0.00000000D+00  -5  7  0 0.00000000D+00 0.00000000D+00 0.00000000D+00 0.00000000D+00 0.00000000D+00
  <mgrwgt>
 0.2564900204D-03    2    2    0
 0.348970647294875D+03 0.000000000000000D+00 0.000000000000000D+00 0.348970647294875D+03
 0.348970647294875D+03 0.000000000000000D+00 0.000000000000000D+00 -.348970647294875D+03
 0.969145852915075D+02 -.270717144061427D+02 0.464351976434501D+02 0.600962451242347D+01
 0.222788650283244D+03 0.937359931248360D+01 0.121073856031873D+03 0.186783403214879D+03
 0.667576752821156D+02 0.422342423502217D+02 0.683486378357532D+01 0.512458839248099D+02
 0.311480383732882D+03 -.245361272565626D+02 -.174343917458898D+03 -.244038911652113D+03
 0.000000000000000D+00 -.000000000000000D+00 -.000000000000000D+00 -.000000000000000D+00
 0.379857619153085D+03 0.000000000000000D+00 0.000000000000000D+00 0.379857619153085D+03
 0.530466272336931D+03 0.000000000000000D+00 0.000000000000000D+00 -.530466272336931D+03
 0.101470413873534D+03 -.143092581000312D+02 0.599012394124036D+02 0.600962451242347D+01
 0.244518359111936D+03 0.394362820457885D+02 0.152793873845342D+03 0.186783403214879D+03
 0.743537262030595D+02 0.513121872721079D+02 0.164132695827663D+02 0.512458839248099D+02
 0.289914961801921D+03 0.141526942389653D+02 -.133522207769606D+03 -.244038911652113D+03
 0.200066430499565D+03 -.905919054568305D+02 -.955861750709064D+02 -.150608653183846D+03
-.927650153519D-05 0.000000000000D+00 0.000000000000D+00 0.211583381523D-06 0.000000000000D+00  7 -1 1 24 -13 13 -24 21 2 0.44287687D-01 0.10060377D+00 0.90352207D+05 0.90352207D+05 0.90352207D+05 0.11253558D+01  1  2 13  2  7  2        1 -.218379558747D-03 0.100000000000D+01
0.228712196658D-04 0.000000000000D+00 0.000000000000D+00 0.211583381523D-06 0.921422083799D-10  7 -1 1 24 -13 13 -24 21 2 0.48207537D-01 0.98932039D-01 0.90352207D+05 0.90352207D+05 0.90352207D+05 0.11253558D+01  1  2  1  2  7  2        1 0.474869579103D-03 0.100000000000D+01
  </mgrwgt>
  </event>
  <event>
  8     66 0.29788925E-05 0.40461163E+03 0.75467711E-02 0.94758922E-01
       -1 -1    0    0    0  501 0.00000000E+00 0.00000000E+00 0.13642948E+04 0.13642949E+04 0.32000000E+00 0.0000E+00 0.9000E+01
        1 -1    0    0  501    0 0.00000000E+00 0.00000000E+00 -.12439076E+03 0.12439117E+03 0.32000000E+00 0.0000E+00 0.9000E+01
       25  2    1    2    0    0 -.22731182E+03 0.26774480E+03 0.69870356E+03 0.83695641E+03 0.29824725E+03 0.0000E+00 0.0000E+00
       23  2    1    2    0    0 0.22731182E+03 -.26774480E+03 0.54120050E+03 0.65172962E+03 0.92171475E+02 0.0000E+00 0.0000E+00
       24  1    3    3    0    0 -.52471779E+02 0.24604043E+03 0.44943788E+03 0.52129723E+03 0.80419002E+02 0.0000E+00 0.9000E+01
      -11  1    4    4    0    0 0.16191644E+03 -.18191137E+03 0.29238491E+03 0.38052281E+03 0.51099893E-03 0.0000E+00 0.9000E+01
       11  1    4    4    0    0 0.65395381E+02 -.85833431E+02 0.24881559E+03 0.27120681E+03 0.51099893E-03 0.0000E+00 0.9000E+01
      -24  1    3    3    0    0 -.17484004E+03 0.21704370E+02 0.24926568E+03 0.31565917E+03 0.80419002E+02 0.0000E+00 0.9000E+01
#aMCatNLO 1  0  0  2  1 0.16477918D+03 0.00000000D+00  -5  7  0 0.00000000D+00 0.00000000D+00 0.00000000D+00 0.00000000D+00 0.00000000D+00
  <mgrwgt>
 0.5997363389D-03    4    2    0
 0.411953888138399D+03 0.000000000000000D+00 0.000000000000000D+00 0.411953888138399D+03
 0.411953888138399D+03 0.000000000000000D+00 0.000000000000000D+00 -.411953888138399D+03
 0.265549208365319D+03 -.524717793028175D+02 0.246040431729822D+03 0.275678152938546D+02
 0.247539558821832D+03 0.161916437883160D+03 -.181911370184959D+03 -.443526067144537D+02
 0.115588572835564D+03 0.653953806898979D+02 -.858334312535517D+02 0.414340974781359D+02
 0.195230436254082D+03 -.174840039270240D+03 0.217043697086887D+02 -.246493060575368D+02
 0.000000000000000D+00 0.000000000000000D+00 -.000000000000000D+00 0.000000000000000D+00
 0.726835613374496D+03 0.000000000000000D+00 0.000000000000000D+00 0.726835613374496D+03
 0.442242763626293D+03 0.000000000000000D+00 0.000000000000000D+00 -.442242763626293D+03
 0.320667780707755D+03 -.720797056121422D+02 0.300674477181648D+03 0.275678152938546D+02
 0.207259612844172D+03 0.146704206218449D+03 -.139525156411895D+03 -.443526067144537D+02
 0.973022101536985D+02 0.582745587713991D+02 -.659925106884530D+02 0.414340974781359D+02
 0.214994295692972D+03 -.188561334395104D+03 0.599363504742013D+02 -.246493060575368D+02
 0.328854477602191D+03 0.556622750173976D+02 -.155093160555501D+03 0.284592849748203D+03
0.152662552088D-03 0.000000000000D+00 0.000000000000D+00 0.246712580343D-06 0.000000000000D+00  7 -1 1 24 -11 11 -24 21 0 0.20989155D+00 0.19137075D-01 0.16371057D+06 0.16371057D+06 0.16371057D+06 0.11045667D+01  1  2  2  2  7  2        1 0.631904135669D-03 0.100000000000D+01
-.847791784728D-05 0.000000000000D+00 -.586264396989D-06 0.246712580343D-06 0.000000000000D+00  7 -1 1 24 -11 11 -24 21 2 0.20989155D+00 0.19137075D-01 0.16371057D+06 0.16371057D+06 0.16371057D+06 0.11045667D+01  1  2  3  2  7  2        1 -.428145906116D-04 0.100000000000D+01
0.984341426100D-05 0.000000000000D+00 0.000000000000D+00 0.246712580343D-06 0.000000000000D+00  7 -1 1 24 -11 11 -24 21 2 0.20989155D+00 0.19137075D-01 0.16371057D+06 0.16371057D+06 0.16371057D+06 0.11045667D+01  1  2 15  2  7  2        1 0.497105255556D-04 0.100000000000D+01
-.773519268008D-05 0.000000000000D+00 0.000000000000D+00 0.246712580343D-06 0.000000000000D+00  7 -1 1 24 -11 11 -24 21 2 0.20989155D+00 0.19137075D-01 0.16371057D+06 0.16371057D+06 0.16371057D+06 0.11045667D+01  1  2  4  2  7  2        1 -.390637316692D-04 0.100000000000D+01
  </mgrwgt>
  </event>
  <event>
  9     66 0.29788925E-05 0.35196725E+03 0.75467711E-02 0.94821232E-01
       -1 -1    0    0    0  502 0.00000000E+00 0.00000000E+00 0.71600510E+03 0.71600518E+03 0.32000000E+00 0.0000E+00 0.9000E+01
        1 -1    0    0  501    0 0.00000000E+00 0.00000000E+00 -.70306158E+03 0.70306166E+03 0.32000000E+00 0.0000E+00 0.9000E+01
       25  2    1    2    0    0 0.27930846E+02 0.40945977E+03 -.42933006E+03 0.66412706E+03 0.29715822E+03 0.0000E+00 0.0000E+00
       23  2    1    2    0    0 0.14766888E+03 -.25117586E+03 0.41760102E+03 0.51724594E+03 0.90869881E+02 0.0000E+00 0.0000E+00
       24  1    3    3    0    0 0.53017747E+02 0.20040622E+03 -.36898116E+03 0.43079908E+03 0.80419002E+02 0.0000E+00 0.9000E+01
      -13  1    4    4    0    0 0.57305580E+02 -.16197807E+03 0.18663495E+03 0.25367980E+03 0.10565837E+00 0.0000E+00 0.9000E+01
       13  1    4    4    0    0 0.90363302E+02 -.89197791E+02 0.23096607E+03 0.26356614E+03 0.10565837E+00 0.0000E+00 0.9000E+01
      -24  1    3    3    0    0 -.25086901E+02 0.20905355E+03 -.60348906E+02 0.23332798E+03 0.80419002E+02 0.0000E+00 0.9000E+01
       21  1    1    2  501  502 -.17559973E+03 -.15828391E+03 0.24672565E+02 0.23769383E+03 0.75000000E+00 0.0000E+00 0.9000E+01
#aMCatNLO 2  0  0  1  2 0.23640867D+03 0.00000000D+00  -5  7  0 0.00000000D+00 0.00000000D+00 0.00000000D+00 0.00000000D+00 0.00000000D+00
  <mgrwgt>
 0.1486127853D-03    2    2    0
 0.578708805906099D+03 0.000000000000000D+00 0.000000000000000D+00 0.578708805906099D+03
 0.578708805906099D+03 0.000000000000000D+00 0.000000000000000D+00 -.578708805906099D+03
 0.400525804607450D+03 -.912738635283029D+01 0.144389195097914D+03 -.364722024779719D+03
 0.274278878005952D+03 0.175245873643210D+02 -.197836335734576D+03 0.189162829385242D+03
 0.269850501995596D+03 0.501395107095825D+02 -.125455072607777D+03 0.233594408430630D+03
 0.212762427203200D+03 -.585367117210732D+02 0.178902213244439D+03 -.580352130361539D+02
 0.000000000000000D+00 -.000000000000000D+00 -.000000000000000D+00 0.000000000000000D+00
 0.723148940157786D+03 0.000000000000000D+00 0.000000000000000D+00 0.723148940157786D+03
 0.696115165500810D+03 0.000000000000000D+00 0.000000000000000D+00 -.696115165500810D+03
 0.427156770328528D+03 0.530177469471378D+02 0.200406221541048D+03 -.364722024779719D+03
 0.255545354728615D+03 0.573055354788682D+02 -.161978171078154D+03 0.189162829385242D+03
 0.265872357599254D+03 0.903633471530853D+02 -.891976926642194D+02 0.233594408430630D+03
 0.232740288640424D+03 -.250869007669869D+02 0.209053551655581D+03 -.580352130361539D+02
 0.237949334361775D+03 -.175599728812104D+03 -.158283909454256D+03 0.270337746569764D+02
-.189830587779D-04 0.000000000000D+00 0.000000000000D+00 0.306522917182D-06 0.000000000000D+00  7 -1 1 24 -13 13 -24 21 2 0.11717101D+00 0.89920495D-01 0.24154164D+06 0.24154164D+06 0.24154164D+06 0.10915854D+01  1  2 13  1  7  1       -1 -.680545294772D-04 0.100000000000D+01
0.686025246068D-04 0.000000000000D+00 0.000000000000D+00 0.306522917182D-06 0.359760887113D-10  7 -1 1 24 -13 13 -24 21 2 0.11015455D+00 0.10816324D+00 0.24154164D+06 0.24154164D+06 0.24154164D+06 0.10915854D+01  1  2  1  1  7  1       -1 0.216667314769D-03 0.100000000000D+01
  </mgrwgt>
  </event>
  <event>
  8     66 0.29788925E-05 0.31773722E+03 0.75467711E-02 0.95598010E-01
       -1 -1    0    0    0  501 0.00000000E+00 0.00000000E+00 0.38939118E+03 0.38939131E+03 0.32000000E+00 0.0000E+00 0.9000E+01
        1 -1    0    0  501    0 0.00000000E+00 0.00000000E+00 -.66662661E+03 0.66662669E+03 0.32000000E+00 0.0000E+00 0.9000E+01
       25  2    1    2    0    0 -.42446566E+03 0.10115519E+03 -.30147221E+03 0.60908313E+03 0.29948838E+03 0.0000E+00 0.0000E+00
       23  2    1    2    0    0 0.42446566E+03 -.10115519E+03 0.24236780E+02 0.44693487E+03 0.93594255E+02 0.0000E+00 0.0000E+00
       24  1    3    3    0    0 -.28193055E+03 0.62941099E+02 -.46109019E+02 0.30338041E+03 0.80419002E+02 0.0000E+00 0.9000E+01
      -11  1    4    4    0    0 0.38358002E+02 0.23064194E-01 -.23440387E+02 0.44953182E+02 0.51099893E-03 0.0000E+00 0.9000E+01
       11  1    4    4    0    0 0.38610766E+03 -.10117825E+03 0.47677167E+02 0.40198169E+03 0.51099893E-03 0.0000E+00 0.9000E+01
      -24  1    3    3    0    0 -.14253511E+03 0.38214087E+02 -.25536319E+03 0.30570271E+03 0.80419002E+02 0.0000E+00 0.9000E+01
#aMCatNLO 1  0  0  2  1 0.13172118D+02 0.00000000D+00  -5  7  0 0.00000000D+00 0.00000000D+00 0.00000000D+00 0.00000000D+00 0.00000000D+00
  <mgrwgt>
 0.1118033627D-02    9    2    0
 0.509488598204464D+03 0.000000000000000D+00 0.000000000000000D+00 0.509488598204464D+03
 0.509488598204464D+03 0.000000000000000D+00 0.000000000000000D+00 -.509488598204464D+03
 0.301863597383072D+03 -.281930550569219D+03 0.629410987237177D+02 0.347562687563977D+02
 0.402097945774702D+02 0.383580021864829D+02 0.230641959724771D-01 -.120619532525618D+02
 0.429565742405631D+03 0.386107661579034D+03 -.101178250147528D+03 0.158778343660449D+03
 0.247338062042754D+03 -.142535113196297D+03 0.382140872278375D+02 -.181472659164285D+03
 0.000000000000000D+00 -.000000000000000D+00 -.000000000000000D+00 -.000000000000000D+00
 0.513582942541714D+03 0.000000000000000D+00 0.000000000000000D+00 0.513582942541714D+03
 0.520236631847835D+03 0.000000000000000D+00 0.000000000000000D+00 -.520236631847835D+03
 0.301381600474922D+03 -.280572054852697D+03 0.665956227414617D+02 0.347562687563977D+02
 0.403862035462226D+02 0.385395027083414D+02 0.511323384645574D+00 -.120619532525618D+02
 0.430114768636725D+03 0.388043644320339D+03 -.959702135376278D+02 0.158778343660449D+03
 0.247179756886035D+03 -.141421469289733D+03 0.412099291390450D+02 -.181472659164285D+03
 0.147572448456446D+02 -.458962288625008D+01 -.123466617275244D+02 -.665368930612162D+01
0.420606625213D-04 0.000000000000D+00 0.000000000000D+00 0.886417583037D-06 0.000000000000D+00  7 -1 1 24 -11 11 -24 21 0 0.59906351D-01 0.10255796D+00 0.20494508D+06 0.20494508D+06 0.20494508D+06 0.10970116D+01  1  2  2  2  7  2        1 0.429495417088D-03 0.100000000000D+01
-.229703757271D-05 0.000000000000D+00 -.161524018909D-06 0.886417583037D-06 0.000000000000D+00  7 -1 1 24 -11 11 -24 21 2 0.59906351D-01 0.10255796D+00 0.20494508D+06 0.20494508D+06 0.20494508D+06 0.10970116D+01  1  2  3  2  7  2        1 -.282275370096D-04 0.100000000000D+01
0.266463510894D-05 0.000000000000D+00 0.000000000000D+00 0.886417583037D-06 0.000000000000D+00  7 -1 1 24 -11 11 -24 21 2 0.59906351D-01 0.10255796D+00 0.20494508D+06 0.20494508D+06 0.20494508D+06 0.10970116D+01  1  2 15  2  7  2        1 0.327448218732D-04 0.100000000000D+01
0.564959484331D-04 0.000000000000D+00 0.000000000000D+00 0.886417583037D-06 0.000000000000D+00  7 -1 1 24 -11 11 -24 21 2 0.59906351D-01 0.10512751D+00 0.21097795D+06 0.21097795D+06 0.21097795D+06 0.10960475D+01  1  2 12  2  7  2        1 0.667167752891D-03 0.100000000000D+01
-.546441685640D-04 0.000000000000D+00 0.000000000000D+00 0.886417583037D-06 0.000000000000D+00  7 -1 1 24 -11 11 -24 21 2 0.59906351D-01 0.10255796D+00 0.20494508D+06 0.20494508D+06 0.20494508D+06 0.10970116D+01  1  2  4  2  7  2        1 -.671504162066D-03 0.100000000000D+01
-.161143324569D-02 0.000000000000D+00 -.198217710480D-03 0.886417583037D-06 0.000000000000D+00  7 -1 1 24 -11 11 -24 21 2 0.59906351D-01 0.10532034D+00 0.20494508D+06 0.20494508D+06 0.20494508D+06 0.10970116D+01  1  2  5  2  7  2        1 -.190277459167D-01 0.100000000000D+01
0.161620068199D-02 0.000000000000D+00 0.198147718787D-03 0.886417583037D-06 0.000000000000D+00  7 -1 1 24 -11 11 -24 21 2 0.59906351D-01 0.10255796D+00 0.20494508D+06 0.20494508D+06 0.20494508D+06 0.10970116D+01  1  2  6  2  7  2        1 0.198609570465D-01 0.100000000000D+01
0.184806322280D-05 0.000000000000D+00 0.000000000000D+00 0.886417583037D-06 0.000000000000D+00  7 -1 21 24 -11 11 -24 -1 2 0.59906351D-01 0.10512751D+00 0.21097795D+06 0.21097795D+06 0.21097795D+06 0.10960475D+01  1  2 12  4  7  2        1 0.460539272127D-04 0.100000000000D+01
-.766899117819D-05 0.000000000000D+00 -.949586771189D-06 0.886417583037D-06 0.000000000000D+00  7 -1 21 24 -11 11 -24 -1 2 0.59906351D-01 0.10532034D+00 0.20494508D+06 0.20494508D+06 0.20494508D+06 0.10970116D+01  1  2  5  4  7  2        1 -.190907722949D-03 0.100000000000D+01
  </mgrwgt>
  </event>
  <event>
  8     66 0.29788925E-05 0.39305276E+03 0.75467711E-02 0.80916611E-01
       -1 -1    0    0    0  501 0.00000000E+00 0.00000000E+00 0.57158317E+03 0.57158326E+03 0.32000000E+00 0.0000E+00 0.9000E+01
        1 -1    0    0  501    0 0.00000000E+00 0.00000000E+00 -.56989109E+03 0.56989118E+03 0.32000000E+00 0.0000E+00 0.9000E+01
       25  2    1    2    0    0 -.98543368E+02 0.31711300E+03 -.40617279E+03 0.60762802E+03 0.30653551E+03 0.0000E+00 0.0000E+00
       23  2    1    2    0    0 0.98543368E+02 -.31711300E+03 0.40786487E+03 0.53384642E+03 0.91470236E+02 0.0000E+00 0.0000E+00
       24  1    3    3    0    0 -.98533995E+02 0.34322420E+03 -.31090641E+03 0.48025182E+03 0.80419002E+02 0.0000E+00 0.9000E+01
      -13  1    4    4    0    0 0.39877935E+02 -.20649700E+03 0.19454362E+03 0.28649344E+03 0.10565837E+00 0.0000E+00 0.9000E+01
       13  1    4    4    0    0 0.58665434E+02 -.11061600E+03 0.21332125E+03 0.24735298E+03 0.10565837E+00 0.0000E+00 0.9000E+01
      -24  1    3    3    0    0 -.93729344E-02 -.26111207E+02 -.95266379E+02 0.12737619E+03 0.80419002E+02 0.0000E+00 0.9000E+01
#aMCatNLO 1  0  0  1  1 0.20410577D+04 0.00000000D+00  -5  7  0 0.00000000D+00 0.00000000D+00 0.00000000D+00 0.00000000D+00 0.00000000D+00
  <mgrwgt>
 0.1077187884D-02    3    2    0
 0.570736591042036D+03 0.000000000000000D+00 0.000000000000000D+00 0.570736591042036D+03
 0.570736591042036D+03 0.000000000000000D+00 0.000000000000000D+00 -.570736591042036D+03
 0.480713224625979D+03 -.985339944345157D+02 0.343224199421986D+03 -.311618659980195D+03
 0.286205422987213D+03 0.398779097676820D+02 -.206497125107240D+03 0.194119122660018D+03
 0.247036983995864D+03 0.586654591150579D+02 -.110615873429343D+03 0.212954840081309D+03
 0.127517550475016D+03 -.937444822428546D-02 -.261112008854033D+02 -.954553027611325D+02
 0.000000000000000D+00 -.000000000000000D+00 0.000000000000000D+00 -.000000000000000D+00
 0.141268628015816D+04 0.000000000000000D+00 0.000000000000000D+00 0.141268628015816D+04
 0.544807750316239D+04 0.000000000000000D+00 0.000000000000000D+00 -.544807750316239D+04
 0.354823291693816D+03 0.111404866186181D+03 -.995746901388647D+02 -.311618659980195D+03
 0.950539672752410D+03 0.350625377061421D+03 -.861919532586714D+03 0.194119122660018D+03
 0.729771404006958D+03 0.304100620854372D+03 -.628282858741361D+03 0.212954840081309D+03
 0.303428757073182D+03 0.108271203393974D+03 -.254494452503403D+03 -.954553027611325D+02
 0.452220065779418D+04 -.874402067495948D+03 0.184427153397034D+04 -.403539122300423D+04
0.174162268279D-03 0.000000000000D+00 0.000000000000D+00 0.662664970716D-07 0.000000000000D+00  7 -1 1 24 -13 13 -24 21 0 0.87935886D-01 0.87675566D-01 0.15449048D+06 0.15449048D+06 0.15449048D+06 0.11065424D+01  1  2  2  1  7  1       -1 0.105607655349D-02 0.100000000000D+01
-.803907871553D-05 0.000000000000D+00 -.668828968168D-06 0.662664970716D-07 0.000000000000D+00  7 -1 1 24 -13 13 -24 21 2 0.87935886D-01 0.87675566D-01 0.15449048D+06 0.15449048D+06 0.15449048D+06 0.11065424D+01  1  2  3  1  7  1       -1 -.596875455390D-04 0.100000000000D+01
0.108824801133D-04 0.000000000000D+00 0.000000000000D+00 0.662664970716D-07 0.000000000000D+00  7 -1 1 24 -13 13 -24 21 2 0.87935886D-01 0.87675566D-01 0.15449048D+06 0.15449048D+06 0.15449048D+06 0.11065424D+01  1  2 15  1  7  1       -1 0.807988763790D-04 0.100000000000D+01
  </mgrwgt>
  </event>
  <event>
  8     66 0.29788925E-05 0.24312290E+03 0.75467711E-02 0.88278108E-01
       -1 -1    0    0    0  501 0.00000000E+00 0.00000000E+00 0.27511510E+03 0.27511528E+03 0.32000000E+00 0.0000E+00 0.9000E+01
        1 -1    0    0  501    0 0.00000000E+00 0.00000000E+00 -.29228205E+03 0.29228222E+03 0.32000000E+00 0.0000E+00 0.9000E+01
       25  2    1    2    0    0 0.33432085E+02 0.15124888E+03 -.12104588E+03 0.35938800E+03 0.30085494E+03 0.0000E+00 0.0000E+00
       23  2    1    2    0    0 -.33432085E+02 -.15124888E+03 0.10387893E+03 0.20800951E+03 0.92104249E+02 0.0000E+00 0.0000E+00
       24  1    3    3    0    0 -.25260265E+02 0.19613092E+03 -.12978049E+03 0.24983117E+03 0.80419002E+02 0.0000E+00 0.9000E+01
      -13  1    4    4    0    0 -.94318202E+01 -.13319260E+03 0.43261586E+02 0.14035955E+03 0.10565837E+00 0.0000E+00 0.9000E+01
       13  1    4    4    0    0 -.24000265E+02 -.18056283E+02 0.60617349E+02 0.67649954E+02 0.10565837E+00 0.0000E+00 0.9000E+01
      -24  1    3    3    0    0 0.58692350E+02 -.44882041E+02 0.87346052E+01 0.10955683E+03 0.80419002E+02 0.0000E+00 0.9000E+01
#aMCatNLO 1  0  0  1  2 0.85399191D+03 0.00000000D+00  -5  7  0 0.00000000D+00 0.00000000D+00 0.00000000D+00 0.00000000D+00 0.00000000D+00
  <mgrwgt>
 0.6041456890D-03    5    2    0
 0.283568873058875D+03 0.000000000000000D+00 0.000000000000000D+00 0.283568873058875D+03
 0.283568873058875D+03 0.000000000000000D+00 0.000000000000000D+00 -.283568873058875D+03
 0.246017208761861D+03 -.252602632539190D+02 0.196130924554000D+03 -.122277678202288D+03
 0.141733442110928D+03 -.943180173611279D+01 -.133192754496545D+03 0.475299892514785D+02
 0.695156977877438D+02 -.240002842149746D+02 -.180561328673998D+02 0.626928597401026D+02
 0.109871397457217D+03 0.586923492050063D+02 -.448820371900554D+02 0.120548292107074D+02
 0.000000000000000D+00 -.000000000000000D+00 -.000000000000000D+00 0.000000000000000D+00
 0.951281786767728D+03 0.000000000000000D+00 0.000000000000000D+00 0.951281786767728D+03
 0.928179798768511D+03 0.000000000000000D+00 0.000000000000000D+00 -.928179798768511D+03
 0.671644140016455D+03 0.242850107660791D+03 0.608860106663816D+03 -.122277678202288D+03
 0.802710648595610D+02 0.554305908968956D+02 -.333435686191981D+02 0.475299892514785D+02
 0.831689257100348D+02 0.206091254473817D+02 0.506156051990213D+02 0.626928597401026D+02
 0.190073127849998D+03 0.146326243823119D+03 0.900216053935332D+02 0.120548292107074D+02
 0.854304327100191D+03 -.465216067828187D+03 -.716153748637172D+03 0.231019879992169D+02
0.972924829502D-05 0.000000000000D+00 0.000000000000D+00 0.283161607297D-06 0.000000000000D+00  7 -1 1 24 -13 13 -24 21 0 0.42325427D-01 0.44966496D-01 0.59108742D+05 0.59108742D+05 0.59108742D+05 0.11409567D+01  1  2  2  1  7  1       -1 0.588371849460D-03 0.100000000000D+01
-.524950639199D-06 0.000000000000D+00 -.373628752228D-07 0.283161607297D-06 0.000000000000D+00  7 -1 1 24 -13 13 -24 21 2 0.42325427D-01 0.44966496D-01 0.59108742D+05 0.59108742D+05 0.59108742D+05 0.11409567D+01  1  2  3  1  7  1       -1 -.413265723472D-04 0.100000000000D+01
0.620370815389D-06 0.000000000000D+00 0.000000000000D+00 0.283161607297D-06 0.000000000000D+00  7 -1 1 24 -13 13 -24 21 2 0.42325427D-01 0.44966496D-01 0.59108742D+05 0.59108742D+05 0.59108742D+05 0.11409567D+01  1  2 15  1  7  1       -1 0.488384954124D-04 0.100000000000D+01
0.141798795121D-04 0.000000000000D+00 -.563156746663D-05 0.283161607297D-06 0.000000000000D+00  7 -1 1 24 -13 13 -24 21 2 0.33111100D+00 0.44966496D-01 0.59108742D+05 0.59108742D+05 0.59108742D+05 0.11409567D+01  1  2  5  1  7  1       -1 0.247969313314D-05 0.100000000000D+01
0.289582839358D-05 0.000000000000D+00 -.140817739888D-05 0.283161607297D-06 0.000000000000D+00  7 21 1 24 -13 13 -24 1 2 0.33111100D+00 0.44966496D-01 0.59108742D+05 0.59108742D+05 0.59108742D+05 0.11409567D+01  1  2  5  3  7  1       -1 0.578222337274D-05 0.100000000000D+01
  </mgrwgt>
  </event>
  <event>
  8     66 0.29788925E-05 0.47971469E+03 0.75467711E-02 0.90741057E-01
       -1 -1    0    0    0  501 0.00000000E+00 0.00000000E+00 0.88850552E+03 0.88850558E+03 0.32000000E+00 0.0000E+00 0.9000E+01
        1 -1    0    0  501    0 0.00000000E+00 0.00000000E+00 -.74734123E+03 0.74734130E+03 0.32000000E+00 0.0000E+00 0.9000E+01
       25  2    1    2    0    0 -.38116308E+03 0.22523630E+03 0.72328743E+03 0.89912739E+03 0.29877864E+03 0.0000E+00 0.0000E+00
       23  2    1    2    0    0 0.38116308E+03 -.22523630E+03 -.58212315E+03 0.73671948E+03 0.88721768E+02 0.0000E+00 0.0000E+00
       24  1    3    3    0    0 -.36204874E+03 0.16634938E+03 0.67211499E+03 0.78546622E+03 0.80419002E+02 0.0000E+00 0.9000E+01
      -13  1    4    4    0    0 0.37410429E+03 -.19787743E+03 -.54878814E+03 0.69302087E+03 0.10565837E+00 0.0000E+00 0.9000E+01
       13  1    4    4    0    0 0.70587890E+01 -.27358877E+02 -.33335005E+02 0.43698608E+02 0.10565837E+00 0.0000E+00 0.9000E+01
      -24  1    3    3    0    0 -.19114342E+02 0.58886925E+02 0.51172443E+02 0.11366118E+03 0.80419002E+02 0.0000E+00 0.9000E+01
#aMCatNLO 1  0  0  1  2 0.40585331D+03 0.00000000D+00  -5  7  0 0.00000000D+00 0.00000000D+00 0.00000000D+00 0.00000000D+00 0.00000000D+00
  <mgrwgt>
 0.9629331046D-03    4    2    0
 0.814872327997276D+03 0.000000000000000D+00 0.000000000000000D+00 0.814872327997276D+03
 0.814872327997276D+03 0.000000000000000D+00 0.000000000000000D+00 -.814872327997276D+03
 0.730190352586357D+03 -.362048738006350D+03 0.166349376585864D+03 0.606596514392657D+03
 0.743151340723790D+03 0.374104811409394D+03 -.197877666986559D+03 -.610871454733207D+03
 0.467486328291425D+02 0.705826842009235D+01 -.273586348696359D+02 -.372440682038611D+02
 0.109654329855262D+03 -.191143418231367D+02 0.588869252703311D+02 0.415190085444106D+02
 0.000000000000000D+00 0.000000000000000D+00 -.000000000000000D+00 -.000000000000000D+00
 0.978881941544270D+03 0.000000000000000D+00 0.000000000000000D+00 0.978881941544270D+03
 0.113575243124979D+04 0.000000000000000D+00 0.000000000000000D+00 -.113575243124979D+04
 0.797692076139050D+03 -.369971348442374D+03 0.353563717650819D+03 0.606596514392657D+03
 0.712675988745626D+03 0.366555832131503D+03 -.194923743313270D+02 -.610871454733207D+03
 0.412950840141512D+02 0.660173062845686D+01 -.165704707256990D+02 -.372440682038611D+02
 0.127855995211916D+03 -.203459168086612D+02 0.879895173072517D+02 0.415190085444106D+02
 0.435115228683313D+03 0.171597024910749D+02 -.405490389901044D+03 -.156870489705516D+03
0.865853597135D-03 0.000000000000D+00 0.000000000000D+00 0.840102281278D-06 0.000000000000D+00  7 -1 1 24 -13 13 -24 21 0 0.13669317D+00 0.11497558D+00 0.23012618D+06 0.23012618D+06 0.23012618D+06 0.10931758D+01  1  2  2  1  7  1       -1 0.122227423140D-02 0.100000000000D+01
-.316841244824D-04 0.000000000000D+00 -.332510579748D-05 0.840102281278D-06 0.000000000000D+00  7 -1 1 24 -13 13 -24 21 2 0.13669317D+00 0.11497558D+00 0.23012618D+06 0.23012618D+06 0.23012618D+06 0.10931758D+01  1  2  3  1  7  1       -1 -.534497777548D-04 0.100000000000D+01
0.529413517535D-04 0.000000000000D+00 0.000000000000D+00 0.840102281278D-06 0.000000000000D+00  7 -1 1 24 -13 13 -24 21 2 0.13669317D+00 0.11497558D+00 0.23012618D+06 0.23012618D+06 0.23012618D+06 0.10931758D+01  1  2 15  1  7  1       -1 0.893098209746D-04 0.100000000000D+01
-.174990262067D-03 0.000000000000D+00 0.000000000000D+00 0.840102281278D-06 0.000000000000D+00  7 -1 1 24 -13 13 -24 21 2 0.13669317D+00 0.11497558D+00 0.23012618D+06 0.23012618D+06 0.23012618D+06 0.10931758D+01  1  2  4  1  7  1       -1 -.295201169972D-03 0.100000000000D+01
  </mgrwgt>
  </event>
  <event>
  8     66 0.29788925E-05 0.21802009E+03 0.75467711E-02 0.10489468E+00
       -1 -1    0    0    0  501 0.00000000E+00 0.00000000E+00 0.63172344E+03 0.63172352E+03 0.32000000E+00 0.0000E+00 0.9000E+01
        1 -1    0    0  501    0 0.00000000E+00 0.00000000E+00 -.17460482E+03 0.17460511E+03 0.32000000E+00 0.0000E+00 0.9000E+01
       25  2    1    2    0    0 -.41515146E+02 -.11671665E+03 -.69994661E+00 0.32461483E+03 0.30004669E+03 0.0000E+00 0.0000E+00
       23  2    1    2    0    0 0.41515146E+02 0.11671665E+03 0.45781857E+03 0.48171380E+03 0.84285575E+02 0.0000E+00 0.0000E+00
       24  1    3    3    0    0 -.22375911E+02 -.18530057E+03 0.44551616E+02 0.20806019E+03 0.80419002E+02 0.0000E+00 0.9000E+01
      -13  1    4    4    0    0 0.41246779E+02 0.93709515E+02 0.21857725E+03 0.24136859E+03 0.10565837E+00 0.0000E+00 0.9000E+01
       13  1    4    4    0    0 0.26836790E+00 0.23007132E+02 0.23924132E+03 0.24034521E+03 0.10565837E+00 0.0000E+00 0.9000E+01
      -24  1    3    3    0    0 -.19139236E+02 0.68583919E+02 -.45251563E+02 0.11655464E+03 0.80419002E+02 0.0000E+00 0.9000E+01
#aMCatNLO 1  0  0  1  1 0.73968901D+01 0.00000000D+00  -5  7  0 0.00000000D+00 0.00000000D+00 0.00000000D+00 0.00000000D+00 0.00000000D+00
  <mgrwgt>
 0.7561723791D-03    6    2    0
 0.332117610168342D+03 0.000000000000000D+00 0.000000000000000D+00 0.332117610168342D+03
 0.332117610168342D+03 0.000000000000000D+00 0.000000000000000D+00 -.332117610168342D+03
 0.221908614489271D+03 -.223759106326555D+02 -.185300566569060D+03 -.891023898822137D+02
 0.142580046603937D+03 0.412468421363037D+02 0.937096250905161D+02 0.992283924527582D+02
 0.127116935569039D+03 0.268304492403772D+00 0.230070227062489D+02 0.125017279715073D+03
 0.172629623674438D+03 -.191392359960520D+02 0.685839187722955D+02 -.135143282285617D+03
 0.000000000000000D+00 -.000000000000000D+00 0.000000000000000D+00 -.000000000000000D+00
 0.333432981508205D+03 0.000000000000000D+00 0.000000000000000D+00 0.333432981508205D+03
 0.342702549083415D+03 0.000000000000000D+00 0.000000000000000D+00 -.342702549083415D+03
 0.222881426238782D+03 -.203316376771691D+02 -.186698427509460D+03 -.891023898822137D+02
 0.142379014151936D+03 0.425565254654774D+02 0.928140718987413D+02 0.992283924527582D+02
 0.126982668705591D+03 0.143615651572732D+01 0.222084528659594D+02 0.125017279715073D+03
 0.172033295661703D+03 -.175551513263401D+02 0.675007316762995D+02 -.135143282285617D+03
 0.118591258336086D+02 -.610589297769559D+01 0.417517106846007D+01 -.926956757521002D+01
0.392175009965D-04 0.000000000000D+00 0.000000000000D+00 0.766435683412D-07 0.000000000000D+00  7 -1 1 24 -13 13 -24 21 0 0.97188251D-01 0.26862308D-01 0.47532761D+05 0.47532761D+05 0.47532761D+05 0.11492335D+01  1  2  2  1  7  1       -1 0.952672405094D-03 0.100000000000D+01
-.170944985644D-05 0.000000000000D+00 -.150605530032D-06 0.766435683412D-07 0.000000000000D+00  7 -1 1 24 -13 13 -24 21 2 0.97188251D-01 0.26862308D-01 0.47532761D+05 0.47532761D+05 0.47532761D+05 0.11492335D+01  1  2  3  1  7  1       -1 -.548449432292D-04 0.100000000000D+01
0.246786382238D-05 0.000000000000D+00 0.000000000000D+00 0.766435683412D-07 0.000000000000D+00  7 -1 1 24 -13 13 -24 21 2 0.97188251D-01 0.26862308D-01 0.47532761D+05 0.47532761D+05 0.47532761D+05 0.11492335D+01  1  2 15  1  7  1       -1 0.791774328602D-04 0.100000000000D+01
-.756817452544D-05 0.000000000000D+00 0.000000000000D+00 0.766435683412D-07 0.000000000000D+00  7 -1 1 24 -13 13 -24 21 2 0.97188251D-01 0.26862308D-01 0.47532761D+05 0.47532761D+05 0.47532761D+05 0.11492335D+01  1  2  4  1  7  1       -1 -.242812680719D-03 0.100000000000D+01
0.638446355198D-06 0.000000000000D+00 0.000000000000D+00 0.766435683412D-07 0.985110760907D-08  7 -1 1 24 -13 13 -24 21 2 0.97573170D-01 0.27718438D-01 0.48952424D+05 0.48952424D+05 0.48952424D+05 0.11481051D+01  1  2 11  1  7  1       -1 0.194582743458D-04 0.100000000000D+01
0.111480973399D-07 0.000000000000D+00 0.000000000000D+00 0.766435683412D-07 0.736137425043D-11  7 21 1 24 -13 13 -24 1 2 0.97573170D-01 0.27718438D-01 0.48952424D+05 0.48952424D+05 0.48952424D+05 0.11481051D+01  1  2 11  3  7  1       -1 0.252189070272D-05 0.100000000000D+01
  </mgrwgt>
  </event>
  <event>
  8     66 -.29788925E-05 0.19986102E+03 0.75467711E-02 0.10565273E+00
       -1 -1    0    0    0  501 0.00000000E+00 0.00000000E+00 0.69464256E+02 0.69464993E+02 0.32000000E+00 0.0000E+00 0.9000E+01
        1 -1    0    0  501    0 0.00000000E+00 0.00000000E+00 -.11636119E+04 0.11636120E+04 0.32000000E+00 0.0000E+00 0.9000E+01
       25  2    1    2    0    0 0.16111711E+02 -.44795309E+02 -.28175152E+03 0.41435489E+03 0.30006641E+03 0.0000E+00 0.0000E+00
       23  2    1    2    0    0 -.16111711E+02 0.44795309E+02 -.81239616E+03 0.81872208E+03 0.89733622E+02 0.0000E+00 0.0000E+00
       24  1    3    3    0    0 -.15485063E+02 0.10226756E+03 -.14753949E+03 0.19731588E+03 0.80419002E+02 0.0000E+00 0.9000E+01
      -11  1    4    4    0    0 -.63923693E+01 0.70431300E+02 -.66907252E+03 0.67279972E+03 0.51099893E-03 0.0000E+00 0.9000E+01
       11  1    4    4    0    0 -.97193412E+01 -.25635990E+02 -.14332364E+03 0.14592236E+03 0.51099893E-03 0.0000E+00 0.9000E+01
      -24  1    3    3    0    0 0.31596774E+02 -.14706287E+03 -.13421203E+03 0.21703901E+03 0.80419002E+02 0.0000E+00 0.9000E+01
#aMCatNLO 1  0  0  2  1 0.21213632D+02 0.00000000D+00  -5  7  0 0.00000000D+00 0.00000000D+00 0.00000000D+00 0.00000000D+00 0.00000000D+00
  <mgrwgt>
 -.1442079267D-03    4    2    0
 0.284306030422414D+03 0.000000000000000D+00 0.000000000000000D+00 0.284306030422414D+03
 0.284306030422414D+03 0.000000000000000D+00 0.000000000000000D+00 -.284306030422414D+03
 0.143992170177782D+03 -.154850634475146D+02 0.102267562972909D+03 0.597334704478584D+02
 0.171557565355412D+03 -.639236928817123D+01 0.704312995252726D+02 -.156302808332868D+03
 0.406538585082541D+02 -.971934122907982D+01 -.256359903134398D+02 -.300177717082910D+02
 0.212408466803381D+03 0.315967739647657D+02 -.147062872184742D+03 0.126587109593301D+03
 0.000000000000000D+00 0.000000000000000D+00 0.000000000000000D+00 0.000000000000000D+00
 0.299548255667787D+03 0.000000000000000D+00 0.000000000000000D+00 0.299548255667787D+03
 0.291981969491088D+03 0.000000000000000D+00 0.000000000000000D+00 -.291981969491088D+03
 0.140863658512458D+03 -.176960356881678D+02 0.974377604644205D+02 0.597334704478584D+02
 0.169386990952324D+03 -.903868673606853D+01 0.646504984762573D+02 -.156302808332868D+03
 0.417027030004868D+02 -.103585701055564D+02 -.270323666108614D+02 -.300177717082910D+02
 0.217054287125255D+03 0.282634027232622D+02 -.154344521627424D+03 0.126587109593301D+03
 0.225225855683510D+02 0.882988980653058D+01 0.192886292976074D+02 0.756628617669867D+01
0.727775251858D-05 0.000000000000D+00 0.000000000000D+00 0.780494071341D-06 0.000000000000D+00  7 -1 1 24 -11 11 -24 21 0 0.10686869D-01 0.17901728D+00 0.39944427D+05 0.39944427D+05 0.39944427D+05 0.11559727D+01  1  2  2  2  7  2        1 0.532224194008D-03 0.100000000000D+01
-.343260601700D-06 0.000000000000D+00 -.279484859476D-07 0.780494071341D-06 0.000000000000D+00  7 -1 1 24 -11 11 -24 21 2 0.10686869D-01 0.17901728D+00 0.39944427D+05 0.39944427D+05 0.39944427D+05 0.11559727D+01  1  2  3  2  7  2        1 -.335441246510D-04 0.100000000000D+01
0.459609115747D-06 0.000000000000D+00 0.000000000000D+00 0.780494071341D-06 0.000000000000D+00  7 -1 1 24 -11 11 -24 21 2 0.10686869D-01 0.17901728D+00 0.39944427D+05 0.39944427D+05 0.39944427D+05 0.11559727D+01  1  2 15  2  7  2        1 0.449139382526D-04 0.100000000000D+01
-.703835047937D-05 0.000000000000D+00 0.000000000000D+00 0.780494071341D-06 0.000000000000D+00  7 -1 1 24 -11 11 -24 21 2 0.10686869D-01 0.17901728D+00 0.39944427D+05 0.39944427D+05 0.39944427D+05 0.11559727D+01  1  2  4  2  7  2        1 -.687801934297D-03 0.100000000000D+01
  </mgrwgt>
  </event>
  <event>
  8     66 0.29788925E-05 0.31486556E+03 0.75467711E-02 0.99920182E-01
       -1 -1    0    0    0  501 0.00000000E+00 0.00000000E+00 0.32721247E+03 0.32721263E+03 0.32000000E+00 0.0000E+00 0.9000E+01
        1 -1    0    0  501    0 0.00000000E+00 0.00000000E+00 -.69496384E+03 0.69496391E+03 0.32000000E+00 0.0000E+00 0.9000E+01
       25  2    1    2    0    0 0.90151515E+02 -.24029813E+03 0.16210878E+03 0.42652158E+03 0.29961794E+03 0.0000E+00 0.0000E+00
       23  2    1    2    0    0 -.90151515E+02 0.24029813E+03 -.52986015E+03 0.59565496E+03 0.90457553E+02 0.0000E+00 0.0000E+00
       24  1    3    3    0    0 0.53492775E+02 0.14589171E+02 -.21722573E+02 0.10006701E+03 0.80419002E+02 0.0000E+00 0.9000E+01
      -13  1    4    4    0    0 -.53408524E+02 0.69943848E+02 -.10866874E+03 0.13983389E+03 0.10565837E+00 0.0000E+00 0.9000E+01
       13  1    4    4    0    0 -.36742991E+02 0.17035428E+03 -.42119141E+03 0.45582107E+03 0.10565837E+00 0.0000E+00 0.9000E+01
      -24  1    3    3    0    0 0.36658740E+02 -.25488730E+03 0.18383136E+03 0.32645456E+03 0.80419002E+02 0.0000E+00 0.9000E+01
#aMCatNLO 1  0  0  2  1 0.13453512D+02 0.00000000D+00  -5  7  0 0.00000000D+00 0.00000000D+00 0.00000000D+00 0.00000000D+00 0.00000000D+00
  <mgrwgt>
 0.3192737134D-03    4    2    0
 0.476865757563008D+03 0.000000000000000D+00 0.000000000000000D+00 0.476865757563008D+03
 0.476865757563008D+03 0.000000000000000D+00 0.000000000000000D+00 -.476865757563008D+03
 0.988723188887902D+02 0.534927751317887D+02 0.145891710165110D+02 0.153035481450212D+02
 0.107967035946288D+03 -.534085468616719D+02 0.699437114248529D+02 -.625482630076043D+02
 0.326125498278100D+03 -.367429685731297D+02 0.170354415296876D+03 -.275657700919877D+03
 0.420766662012837D+03 0.366587403030129D+02 -.254887297738240D+03 0.322902415782460D+03
 0.000000000000000D+00 -.000000000000000D+00 0.000000000000000D+00 0.000000000000000D+00
 0.495557349672972D+03 0.000000000000000D+00 0.000000000000000D+00 0.495557349672972D+03
 0.479340193808094D+03 0.000000000000000D+00 0.000000000000000D+00 -.479340193808094D+03
 0.995914365364756D+02 0.548725951701119D+02 0.143540234951161D+02 0.153035481450212D+02
 0.107069341819944D+03 -.519135056014957D+02 0.696889280205325D+02 -.625482630076043D+02
 0.325243301867672D+03 -.322143244342855D+02 0.169582648388908D+03 -.275657700919877D+03
 0.421922319032681D+03 0.425175387502619D+02 -.255885748184646D+03 0.322902415782460D+03
 0.210711442242939D+02 -.132623038845925D+02 0.226014828008840D+01 0.162171558648775D+02
0.337123831461D-04 0.000000000000D+00 0.000000000000D+00 0.461841558295D-05 0.000000000000D+00  7 -1 1 24 -13 13 -24 21 0 0.50340398D-01 0.10691753D+00 0.99140323D+05 0.99140323D+05 0.99140323D+05 0.11220299D+01  1  2  2  2  7  2        1 0.454863915329D-03 0.100000000000D+01
-.148055314977D-05 0.000000000000D+00 -.129464427955D-06 0.461841558295D-05 0.000000000000D+00  7 -1 1 24 -13 13 -24 21 2 0.50340398D-01 0.10691753D+00 0.99140323D+05 0.99140323D+05 0.99140323D+05 0.11220299D+01  1  2  3  2  7  2        1 -.251492406688D-04 0.100000000000D+01
0.208118721404D-05 0.000000000000D+00 0.000000000000D+00 0.461841558295D-05 0.000000000000D+00  7 -1 1 24 -13 13 -24 21 2 0.50340398D-01 0.10691753D+00 0.99140323D+05 0.99140323D+05 0.99140323D+05 0.11220299D+01  1  2 15  2  7  2        1 0.353518400409D-04 0.100000000000D+01
-.858292280321D-05 0.000000000000D+00 0.000000000000D+00 0.461841558295D-05 0.000000000000D+00  7 -1 1 24 -13 13 -24 21 2 0.50340398D-01 0.10691753D+00 0.99140323D+05 0.99140323D+05 0.99140323D+05 0.11220299D+01  1  2  4  2  7  2        1 -.145792801328D-03 0.100000000000D+01
  </mgrwgt>
  </event>
  <event>
  8     66 0.29788925E-05 0.83418736E+02 0.75467711E-02 0.10706304E+00
       -1 -1    0    0    0  501 0.00000000E+00 0.00000000E+00 0.18203538E+03 0.18203566E+03 0.32000000E+00 0.0000E+00 0.9000E+01
        1 -1    0    0  501    0 0.00000000E+00 0.00000000E+00 -.68598955E+03 0.68598962E+03 0.32000000E+00 0.0000E+00 0.9000E+01
       25  2    1    2    0    0 0.25227168E+02 -.44610631E+02 -.63166597E+03 0.70203708E+03 0.30203913E+03 0.0000E+00 0.0000E+00
       23  2    1    2    0    0 -.25227168E+02 0.44610631E+02 0.12771181E+03 0.16598821E+03 0.92818436E+02 0.0000E+00 0.0000E+00
       24  1    3    3    0    0 -.98090134E+02 0.33722690E+02 -.19940163E+03 0.23871975E+03 0.80419002E+02 0.0000E+00 0.9000E+01
      -11  1    4    4    0    0 -.44180843E+01 0.37509491E+02 0.14187103E+01 0.37795425E+02 0.51099893E-03 0.0000E+00 0.9000E+01
       11  1    4    4    0    0 -.20809083E+02 0.71011397E+01 0.12629310E+03 0.12819279E+03 0.51099893E-03 0.0000E+00 0.9000E+01
      -24  1    3    3    0    0 0.12331730E+03 -.78333321E+02 -.43226434E+03 0.46331732E+03 0.80419002E+02 0.0000E+00 0.9000E+01
#aMCatNLO 1  0  0  1  2 0.27947499D+02 0.00000000D+00  -5  7  0 0.00000000D+00 0.00000000D+00 0.00000000D+00 0.00000000D+00 0.00000000D+00
  <mgrwgt>
 0.4349757849D-03    9    2    0
 0.353375896458238D+03 0.000000000000000D+00 0.000000000000000D+00 0.353375896458238D+03
 0.353375896458238D+03 0.000000000000000D+00 0.000000000000000D+00 -.353375896458238D+03
 0.151008459636358D+03 -.980901339495562D+02 0.337226899023394D+02 -.746822919766382D+02
 0.474315730530024D+02 -.441808425144009D+01 0.375094910692932D+02 0.286927296288116D+02
 0.247499210366889D+03 -.208090834762440D+02 0.710113967181265D+01 0.246520617783733D+03
 0.260812549860227D+03 0.123317301677240D+03 -.783333206434452D+02 -.200531055435907D+03
 0.000000000000000D+00 -.000000000000000D+00 0.000000000000000D+00 0.000000000000000D+00
 0.379002075631343D+03 0.000000000000000D+00 0.000000000000000D+00 0.379002075631343D+03
 0.361354862008976D+03 0.000000000000000D+00 0.000000000000000D+00 -.361354862008976D+03
 0.147182978206539D+03 -.932586809661376D+02 0.303477644802427D+02 -.746822919766382D+02
 0.464760233706455D+02 -.289654446415167D+01 0.364466465530629D+02 0.286927296288116D+02
 0.246857254737297D+03 -.127992625522164D+02 0.150602193896556D+01 0.246520617783733D+03
 0.266787892878877D+03 0.131865758841419D+03 -.843046931274794D+02 -.200531055435907D+03
 0.330527884469605D+02 -.229112708589133D+02 0.160042601552083D+02 0.176472136223668D+02
0.931891617113D-05 0.000000000000D+00 0.000000000000D+00 0.100548921495D-06 0.000000000000D+00  7 -1 1 24 -11 11 -24 21 0 0.28005471D-01 0.10553688D+00 0.31999696D+05 0.31999696D+05 0.31999696D+05 0.11647446D+01  1  2  2  1  7  1       -1 0.356760654152D-03 0.100000000000D+01
-.225973077655D-06 0.000000000000D+00 -.357870918241D-07 0.100548921495D-06 0.000000000000D+00  7 -1 1 24 -11 11 -24 21 2 0.28005471D-01 0.10553688D+00 0.31999696D+05 0.31999696D+05 0.31999696D+05 0.11647446D+01  1  2  3  1  7  1       -1 -.117362592382D-04 0.100000000000D+01
0.576738125786D-06 0.000000000000D+00 0.000000000000D+00 0.100548921495D-06 0.000000000000D+00  7 -1 1 24 -11 11 -24 21 2 0.28005471D-01 0.10553688D+00 0.31999696D+05 0.31999696D+05 0.31999696D+05 0.11647446D+01  1  2 15  1  7  1       -1 0.299537813399D-04 0.100000000000D+01
0.318384495882D-04 0.000000000000D+00 0.000000000000D+00 0.100548921495D-06 0.000000000000D+00  7 -1 1 24 -11 11 -24 21 2 0.30336788D-01 0.10553688D+00 0.36135742D+05 0.36135742D+05 0.36135742D+05 0.11599111D+01  1  2 12  1  7  1       -1 0.143609663883D-02 0.100000000000D+01
-.317108247601D-04 0.000000000000D+00 0.000000000000D+00 0.100548921495D-06 0.000000000000D+00  7 -1 1 24 -11 11 -24 21 2 0.28005471D-01 0.10553688D+00 0.31999696D+05 0.31999696D+05 0.31999696D+05 0.11647446D+01  1  2  4  1  7  1       -1 -.164695044164D-02 0.100000000000D+01
-.676427453667D-04 0.000000000000D+00 -.140162571390D-04 0.100548921495D-06 0.000000000000D+00  7 -1 1 24 -11 11 -24 21 2 0.30641931D-01 0.10553688D+00 0.31999696D+05 0.31999696D+05 0.31999696D+05 0.11647446D+01  1  2  5  1  7  1       -1 -.303152085322D-02 0.100000000000D+01
0.686821558234D-04 0.000000000000D+00 0.139597204740D-04 0.100548921495D-06 0.000000000000D+00  7 -1 1 24 -11 11 -24 21 2 0.28005471D-01 0.10553688D+00 0.31999696D+05 0.31999696D+05 0.31999696D+05 0.11647446D+01  1  2  6  1  7  1       -1 0.356711336655D-02 0.100000000000D+01
0.432684468607D-06 0.000000000000D+00 0.000000000000D+00 0.100548921495D-06 0.000000000000D+00  7 21 1 24 -11 11 -24 1 2 0.30336788D-01 0.10553688D+00 0.36135742D+05 0.36135742D+05 0.36135742D+05 0.11599111D+01  1  2 12  3  7  1       -1 0.217895944284D-03 0.100000000000D+01
-.964229456158D-06 0.000000000000D+00 -.207654729614D-06 0.100548921495D-06 0.000000000000D+00  7 21 1 24 -11 11 -24 1 2 0.30641931D-01 0.10553688D+00 0.31999696D+05 0.31999696D+05 0.31999696D+05 0.11647446D+01  1  2  5  3  7  1       -1 -.482637046189D-03 0.100000000000D+01
  </mgrwgt>
  </event>
  <event>
  8     66 0.29788925E-05 0.11309779E+03 0.75467711E-02 0.10658122E+00
       -1 -1    0    0    0  501 0.00000000E+00 0.00000000E+00 0.13314873E+04 0.13314873E+04 0.32000000E+00 0.0000E+00 0.9000E+01
        1 -1    0    0  501    0 0.00000000E+00 0.00000000E+00 -.59626352E+02 0.59627211E+02 0.32000000E+00 0.0000E+00 0.9000E+01
       25  2    1    2    0    0 0.59692684E+00 0.35944433E+02 0.34354730E+03 0.45740865E+03 0.29984257E+03 0.0000E+00 0.0000E+00
       23  2    1    2    0    0 -.59692684E+00 -.35944433E+02 0.92831364E+03 0.93370589E+03 0.93531353E+02 0.0000E+00 0.0000E+00
       24  1    3    3    0    0 0.76321656E+02 0.11857314E+03 0.20980574E+03 0.26527392E+03 0.80419002E+02 0.0000E+00 0.9000E+01
      -13  1    4    4    0    0 0.12896532E+02 -.60062549E+02 0.80465814E+03 0.80699973E+03 0.10565837E+00 0.0000E+00 0.9000E+01
       13  1    4    4    0    0 -.13493459E+02 0.24118115E+02 0.12365550E+03 0.12670616E+03 0.10565837E+00 0.0000E+00 0.9000E+01
      -24  1    3    3    0    0 -.75724729E+02 -.82628705E+02 0.13374156E+03 0.19213474E+03 0.80419002E+02 0.0000E+00 0.9000E+01
#aMCatNLO 1  0  0  1  2 0.39182204D+01 0.00000000D+00  -5  7  0 0.00000000D+00 0.00000000D+00 0.00000000D+00 0.00000000D+00 0.00000000D+00
  <mgrwgt>
 0.2748287092D-02   11    2    0
 0.281766488527059D+03 0.000000000000000D+00 0.000000000000000D+00 0.281766488527059D+03
 0.281766488527059D+03 0.000000000000000D+00 0.000000000000000D+00 -.281766488527059D+03
 0.181325096179027D+03 0.763216552941897D+02 0.118573137844452D+03 -.807897918355919D+02
 0.176060509668721D+03 0.128965642613207D+02 -.600626539959658D+02 0.164995331115836D+03
 0.336982528483397D+02 -.134934911139036D+02 0.241182202524853D+02 0.192823596699742D+02
 0.172449118358031D+03 -.757247284416068D+02 -.826287041009718D+02 -.103487898950218D+03
 0.000000000000000D+00 0.000000000000000D+00 -.000000000000000D+00 0.000000000000000D+00
 0.286980656570750D+03 0.000000000000000D+00 0.000000000000000D+00 0.286980656570750D+03
 0.282510355018575D+03 0.000000000000000D+00 0.000000000000000D+00 -.282510355018575D+03
 0.181018391884207D+03 0.751008530256417D+02 0.118883613908547D+03 -.807897918355919D+02
 0.175874931151091D+03 0.117108286301057D+02 -.597610961259317D+02 0.164995331115836D+03
 0.338313247883992D+02 -.137210107583539D+02 0.241760833524590D+02 0.192823596699742D+02
 0.172821950674167D+03 -.768880105709243D+02 -.823328566355412D+02 -.103487898950218D+03
 0.594441309146057D+01 0.379733967353072D+01 -.965744499532692D+00 0.447030155217517D+01
0.629064790523D-04 0.000000000000D+00 0.000000000000D+00 0.620722991764D-06 0.000000000000D+00  7 -1 1 24 -13 13 -24 21 0 0.20484427D+00 0.91733539D-02 0.37897523D+05 0.37897523D+05 0.37897523D+05 0.11580350D+01  1  2  2  1  7  1       -1 0.792778075925D-03 0.100000000000D+01
-.291385288168D-05 0.000000000000D+00 -.241577443217D-06 0.620722991764D-06 0.000000000000D+00  7 -1 1 24 -13 13 -24 21 2 0.20484427D+00 0.91733539D-02 0.37897523D+05 0.37897523D+05 0.37897523D+05 0.11580350D+01  1  2  3  1  7  1       -1 -.492455826778D-04 0.100000000000D+01
0.392050290907D-05 0.000000000000D+00 0.000000000000D+00 0.620722991764D-06 0.000000000000D+00  7 -1 1 24 -13 13 -24 21 2 0.20484427D+00 0.91733539D-02 0.37897523D+05 0.37897523D+05 0.37897523D+05 0.11580350D+01  1  2 15  1  7  1       -1 0.662584756291D-04 0.100000000000D+01
0.846195078866D-05 0.000000000000D+00 0.000000000000D+00 0.620722991764D-06 0.000000000000D+00  7 -1 1 24 -13 13 -24 21 2 0.20890245D+00 0.91733539D-02 0.38615256D+05 0.38615256D+05 0.38615256D+05 0.11572982D+01  1  2 12  1  7  1       -1 0.132589424195D-03 0.100000000000D+01
-.135310496918D-02 0.000000000000D+00 0.000000000000D+00 0.620722991764D-06 0.000000000000D+00  7 -1 1 24 -13 13 -24 21 2 0.20484427D+00 0.91733539D-02 0.37897523D+05 0.37897523D+05 0.37897523D+05 0.11580350D+01  1  2  4  1  7  1       -1 -.228681561277D-01 0.100000000000D+01
-.357034432259D-02 0.000000000000D+00 -.342807732117D-03 0.620722991764D-06 0.000000000000D+00  7 -1 1 24 -13 13 -24 21 2 0.20888671D+00 0.91733539D-02 0.37897523D+05 0.37897523D+05 0.37897523D+05 0.11580350D+01  1  2  5  1  7  1       -1 -.560593478208D-01 0.100000000000D+01
0.357642599698D-02 0.000000000000D+00 0.342742285132D-03 0.620722991764D-06 0.000000000000D+00  7 -1 1 24 -13 13 -24 21 2 0.20484427D+00 0.91733539D-02 0.37897523D+05 0.37897523D+05 0.37897523D+05 0.11580350D+01  1  2  6  1  7  1       -1 0.604434023533D-01 0.100000000000D+01
0.134472215285D-02 0.000000000000D+00 0.000000000000D+00 0.620722991764D-06 0.288857277518D-06  7 -1 1 24 -13 13 -24 21 2 0.20863497D+00 0.91975717D-02 0.38615256D+05 0.38615256D+05 0.38615256D+05 0.11572982D+01  1  2 11  1  7  1       -1 0.210995448827D-01 0.100000000000D+01
0.470949565072D-06 0.000000000000D+00 0.000000000000D+00 0.620722991764D-06 0.000000000000D+00  7 21 1 24 -13 13 -24 1 2 0.20890245D+00 0.91733539D-02 0.38615256D+05 0.38615256D+05 0.38615256D+05 0.11572982D+01  1  2 12  3  7  1       -1 0.510171066616D-04 0.100000000000D+01
-.126590981869D-04 0.000000000000D+00 -.122006665435D-05 0.620722991764D-06 0.000000000000D+00  7 21 1 24 -13 13 -24 1 2 0.20888671D+00 0.91733539D-02 0.37897523D+05 0.37897523D+05 0.37897523D+05 0.11580350D+01  1  2  5  3  7  1       -1 -.137496599000D-02 0.100000000000D+01
0.474447043956D-05 0.000000000000D+00 0.000000000000D+00 0.620722991764D-06 0.966460003571D-09  7 21 1 24 -13 13 -24 1 2 0.20863497D+00 0.91975717D-02 0.38615256D+05 0.38615256D+05 0.38615256D+05 0.11572982D+01  1  2 11  3  7  1       -1 0.514412294620D-03 0.100000000000D+01
  </mgrwgt>
  </event>
  <event>
  9     66 -.29788925E-05 0.29119196E+03 0.75467711E-02 0.10053935E+00
       -1 -1    0    0    0  501 0.00000000E+00 0.00000000E+00 0.99694733E+02 0.99695247E+02 0.32000000E+00 0.0000E+00 0.9000E+01
        1 -1    0    0  502    0 0.00000000E+00 0.00000000E+00 -.13250350E+04 0.13250350E+04 0.32000000E+00 0.0000E+00 0.9000E+01
       25  2    1    2    0    0 -.29927640E+02 -.21365901E+03 -.10331187E+04 0.10966931E+04 0.29808674E+03 0.0000E+00 0.0000E+00
       23  2    1    2    0    0 0.58818033E+02 0.20522219E+03 -.15301501E+03 0.27860487E+03 0.92905184E+02 0.0000E+00 0.0000E+00
       24  1    3    3    0    0 -.13654857E+03 -.76635175E+02 -.52644068E+03 0.55509050E+03 0.80419002E+02 0.0000E+00 0.9000E+01
      -11  1    4    4    0    0 0.12822012E+02 0.90649569E+02 -.13891417E+02 0.92599783E+02 0.51099893E-03 0.0000E+00 0.9000E+01
       11  1    4    4    0    0 0.45996021E+02 0.11457263E+03 -.13912359E+03 0.18600509E+03 0.51099893E-03 0.0000E+00 0.9000E+01
      -24  1    3    3    0    0 0.10662093E+03 -.13702383E+03 -.50667801E+03 0.54160260E+03 0.80419002E+02 0.0000E+00 0.9000E+01
       21  1    1    2  502  501 -.28890393E+02 0.84368119E+01 -.39206526E+02 0.49432265E+02 0.75000000E+00 0.0000E+00 0.9000E+01
#aMCatNLO 2  0  0  2  1 0.30097086D+02 0.00000000D+00  -5  7  0 0.00000000D+00 0.00000000D+00 0.00000000D+00 0.00000000D+00 0.00000000D+00
  <mgrwgt>
 -.3815794487D-03    3    2    0
 0.347715955872715D+03 0.000000000000000D+00 0.000000000000000D+00 0.347715955872715D+03
 0.347715955872715D+03 0.000000000000000D+00 0.000000000000000D+00 -.347715955872715D+03
 0.204598324105651D+03 -.144941892261317D+03 -.741840881957591D+02 -.942434464498364D+02
 0.160000676469745D+03 0.619306758291856D+01 0.925854082877970D+02 0.130344944500626D+03
 0.130035779678437D+03 0.405881802548604D+02 0.116151867574702D+03 0.420790598645803D+02
 0.200797131491598D+03 0.981606444235376D+02 -.134553187666740D+03 -.781805579153702D+02
 0.000000000000000D+00 -.000000000000000D+00 0.000000000000000D+00 0.000000000000000D+00
 0.366851063969090D+03 0.000000000000000D+00 0.000000000000000D+00 0.366851063969090D+03
 0.360080951329145D+03 0.000000000000000D+00 0.000000000000000D+00 -.360080951329145D+03
 0.199668490454806D+03 -.136548573534142D+03 -.766351746470133D+02 -.942434464498364D+02
 0.159284503052646D+03 0.128220120821309D+02 0.906495690117870D+02 0.130344944500626D+03
 0.130434533941039D+03 0.459960205287459D+02 0.114572625268205D+03 0.420790598645803D+02
 0.206695354455608D+03 0.106620933990472D+03 -.137023831497297D+03 -.781805579153702D+02
 0.308491333941361D+02 -.288903930672073D+02 0.843681186431911D+01 0.677011263994547D+01
-.233851233253D-04 0.000000000000D+00 0.000000000000D+00 0.908316262811D-07 0.000000000000D+00  7 -1 1 24 -11 11 -24 21 2 0.14537490D-01 0.20903027D+00 0.93781860D+05 0.93781860D+05 0.93781860D+05 0.11240172D+01  1  2 13  2  7  2        1 -.976299180786D-03 0.100000000000D+01
-.481448253603D-06 0.000000000000D+00 0.000000000000D+00 0.908316262811D-07 0.000000000000D+00  7 -1 1 24 -11 11 -24 21 2 0.14537490D-01 0.19684894D+00 0.84792757D+05 0.84792757D+05 0.84792757D+05 0.11276489D+01  1  2  8  2  7  2        1 -.229391948985D-04 0.100000000000D+01
0.152699118843D-04 0.000000000000D+00 0.000000000000D+00 0.908316262811D-07 0.676274246555D-09  7 -1 1 24 -11 11 -24 21 2 0.15337501D-01 0.20384901D+00 0.93781860D+05 0.93781860D+05 0.93781860D+05 0.11240172D+01  1  2  1  2  7  2        1 0.617658926961D-03 0.100000000000D+01
  </mgrwgt>
  </event>
  <event>
  8     66 0.29788925E-05 0.20264827E+03 0.75467711E-02 0.10244788E+00
       -1 -1    0    0    0  501 0.00000000E+00 0.00000000E+00 0.25030641E+02 0.25032686E+02 0.32000000E+00 0.0000E+00 0.9000E+01
        1 -1    0    0  501    0 0.00000000E+00 0.00000000E+00 -.28797255E+04 0.28797255E+04 0.32000000E+00 0.0000E+00 0.9000E+01
       25  2    1    2    0    0 -.92986308E+02 0.20506598E+02 -.10775771E+04 0.11226407E+04 0.30013804E+03 0.0000E+00 0.0000E+00
       23  2    1    2    0    0 0.92986308E+02 -.20506598E+02 -.17771178E+04 0.17821175E+04 0.93424624E+02 0.0000E+00 0.0000E+00
       24  1    3    3    0    0 -.71870331E+02 0.11227542E+03 -.84429030E+03 0.85852458E+03 0.80419002E+02 0.0000E+00 0.9000E+01
      -11  1    4    4    0    0 0.78785704E+02 -.49812279E+02 -.10050231E+04 0.10093363E+04 0.51099893E-03 0.0000E+00 0.9000E+01
       11  1    4    4    0    0 0.14200604E+02 0.29305681E+02 -.77209469E+03 0.77278114E+03 0.51099893E-03 0.0000E+00 0.9000E+01
      -24  1    3    3    0    0 -.21115977E+02 -.91768821E+02 -.23328679E+03 0.26411615E+03 0.80419002E+02 0.0000E+00 0.9000E+01
#aMCatNLO 1  0  0  1  1 0.11446329D+03 0.00000000D+00  -5  7  0 0.00000000D+00 0.00000000D+00 0.00000000D+00 0.00000000D+00 0.00000000D+00
  <mgrwgt>
 0.9226230754D-03    4    2    0
 0.268485325926874D+03 0.000000000000000D+00 0.000000000000000D+00 0.268485325926874D+03
 0.268485325926874D+03 0.000000000000000D+00 0.000000000000000D+00 -.268485325926874D+03
 0.155716357991582D+03 -.718703306250874D+02 0.112275418848726D+03 -.304205357868277D+01
 0.117033929622810D+03 0.787857041885283D+02 -.498122791767592D+02 -.707706884359001D+02
 0.756980169924939D+02 0.142006037174516D+02 0.293056812657759D+02 -.683352740259710D+02
 0.188522347246863D+03 -.211159772808925D+02 -.917688209377428D+02 0.142148016040554D+03
 0.000000000000000D+00 0.000000000000000D+00 -.000000000000000D+00 -.000000000000000D+00
 0.301694843499948D+03 0.000000000000000D+00 0.000000000000000D+00 0.301694843499948D+03
 0.395038993349008D+03 0.000000000000000D+00 0.000000000000000D+00 -.395038993349008D+03
 0.177526712678771D+03 -.106693405269539D+03 0.116857951985197D+03 -.304205357868277D+01
 0.101627208198756D+03 0.559361574331107D+02 -.468053992206057D+02 -.707706884359001D+02
 0.752125853492135D+02 -.156918006053701D+01 0.313809017181757D+02 -.683352740259710D+02
 0.194668397483068D+03 -.611584600246472D+02 -.864994411970585D+02 0.142148016040554D+03
 0.147698933139148D+03 0.113484887921612D+03 -.149340132857082D+02 -.933441498490600D+02
0.425343299730D-04 0.000000000000D+00 0.000000000000D+00 0.283944020761D-06 0.000000000000D+00  7 -1 1 24 -11 11 -24 21 0 0.38510265D-02 0.44303485D+00 0.41066320D+05 0.41066320D+05 0.41066320D+05 0.11548913D+01  1  2  2  1  7  1       -1 0.102537589915D-02 0.100000000000D+01
-.213563239904D-05 0.000000000000D+00 -.163343026642D-06 0.283944020761D-06 0.000000000000D+00  7 -1 1 24 -11 11 -24 21 2 0.38510265D-02 0.44303485D+00 0.41066320D+05 0.41066320D+05 0.41066320D+05 0.11548913D+01  1  2  3  1  7  1       -1 -.686676590404D-04 0.100000000000D+01
0.264014798864D-05 0.000000000000D+00 0.000000000000D+00 0.283944020761D-06 0.000000000000D+00  7 -1 1 24 -11 11 -24 21 2 0.38510265D-02 0.44303485D+00 0.41066320D+05 0.41066320D+05 0.41066320D+05 0.11548913D+01  1  2 15  1  7  1       -1 0.848895071930D-04 0.100000000000D+01
-.370023046576D-05 0.000000000000D+00 0.000000000000D+00 0.283944020761D-06 0.000000000000D+00  7 -1 1 24 -11 11 -24 21 2 0.38510265D-02 0.44303485D+00 0.41066320D+05 0.41066320D+05 0.41066320D+05 0.11548913D+01  1  2  4  1  7  1       -1 -.118974671909D-03 0.100000000000D+01
  </mgrwgt>
  </event>
  <event>
  8     66 0.29788925E-05 0.35095867E+03 0.75467711E-02 0.94319747E-01
       -1 -1    0    0    0  501 0.00000000E+00 0.00000000E+00 0.19981381E+03 0.19981407E+03 0.32000000E+00 0.0000E+00 0.9000E+01
        1 -1    0    0  501    0 0.00000000E+00 0.00000000E+00 -.10826274E+04 0.10826275E+04 0.32000000E+00 0.0000E+00 0.9000E+01
       25  2    1    2    0    0 -.25228470E+03 -.14202658E+03 -.81229702E+02 0.42635539E+03 0.30226071E+03 0.0000E+00 0.0000E+00
       23  2    1    2    0    0 0.25228470E+03 0.14202658E+03 -.80158389E+03 0.85608614E+03 0.80793696E+02 0.0000E+00 0.0000E+00
       24  1    3    3    0    0 -.62178737E+02 0.55492834E+02 0.30220376E+02 0.11969184E+03 0.80419002E+02 0.0000E+00 0.9000E+01
      -11  1    4    4    0    0 0.22898426E+03 0.94965888E+02 -.67206187E+03 0.71632358E+03 0.51099893E-03 0.0000E+00 0.9000E+01
       11  1    4    4    0    0 0.23300438E+02 0.47060689E+02 -.12952203E+03 0.13976256E+03 0.51099893E-03 0.0000E+00 0.9000E+01
      -24  1    3    3    0    0 -.19010596E+03 -.19751941E+03 -.11145008E+03 0.30666355E+03 0.80419002E+02 0.0000E+00 0.9000E+01
#aMCatNLO 1  0  0  1  2 0.26402315D+03 0.00000000D+00  -5  7  0 0.00000000D+00 0.00000000D+00 0.00000000D+00 0.00000000D+00 0.00000000D+00
  <mgrwgt>
 0.1633844176D-02    4    2    0
 0.465106553582209D+03 0.000000000000000D+00 0.000000000000000D+00 0.465106553582209D+03
 0.465106553582209D+03 0.000000000000000D+00 0.000000000000000D+00 -.465106553582209D+03
 0.193694053907209D+03 -.621787371988051D+02 0.554928341371240D+02 0.155256306037564D+03
 0.349745390226559D+03 0.228984260285421D+03 0.949658881200952D+02 -.246717503675414D+03
 0.697619816037643D+02 0.233004378885059D+02 0.470606887615661D+02 -.459251047334118D+02
 0.317011681426885D+03 -.190105960975122D+03 -.197519411018785D+03 0.137386302371262D+03
 0.000000000000000D+00 0.000000000000000D+00 -.000000000000000D+00 -.000000000000000D+00
 0.567472696216374D+03 0.000000000000000D+00 0.000000000000000D+00 0.567472696216374D+03
 0.690956708521171D+03 0.000000000000000D+00 0.000000000000000D+00 -.690956708521171D+03
 0.217345908038469D+03 -.629955367900840D+02 0.112690148490432D+03 0.155256306037564D+03
 0.389583749894607D+03 0.227515099631034D+03 0.197845523077973D+03 -.246717503675414D+03
 0.857790491400978D+02 0.229913539499582D+02 0.687046408196144D+02 -.459251047334118D+02
 0.274247675617695D+03 -.191280884208590D+03 -.115244083945641D+03 0.137386302371262D+03
 0.291473022046676D+03 0.376996741768221D+01 -.263996228442378D+03 -.123484012304797D+03
0.131299100585D-03 0.000000000000D+00 0.000000000000D+00 0.341459620970D-08 0.000000000000D+00  7 -1 1 24 -11 11 -24 21 0 0.30740610D-01 0.16655809D+00 0.12317199D+06 0.12317199D+06 0.12317199D+06 0.11143693D+01  1  2  2  1  7  1       -1 0.200349334382D-02 0.100000000000D+01
-.659111156956D-05 0.000000000000D+00 -.504223118094D-06 0.341459620970D-08 0.000000000000D+00  7 -1 1 24 -11 11 -24 21 2 0.30740610D-01 0.16655809D+00 0.12317199D+06 0.12317199D+06 0.12317199D+06 0.11143693D+01  1  2  3  1  7  1       -1 -.124894439169D-03 0.100000000000D+01
0.847976685316D-05 0.000000000000D+00 0.000000000000D+00 0.341459620970D-08 0.000000000000D+00  7 -1 1 24 -11 11 -24 21 2 0.30740610D-01 0.16655809D+00 0.12317199D+06 0.12317199D+06 0.12317199D+06 0.11143693D+01  1  2 15  1  7  1       -1 0.160682415133D-03 0.100000000000D+01
-.213963204969D-04 0.000000000000D+00 0.000000000000D+00 0.341459620970D-08 0.000000000000D+00  7 -1 1 24 -11 11 -24 21 2 0.30740610D-01 0.16655809D+00 0.12317199D+06 0.12317199D+06 0.12317199D+06 0.11143693D+01  1  2  4  1  7  1       -1 -.405437143726D-03 0.100000000000D+01
  </mgrwgt>
  </event>
  <event>
  9     66 -.29788925E-05 0.36829499E+03 0.75467711E-02 0.97994423E-01
       -1 -1    0    0    0  501 0.00000000E+00 0.00000000E+00 0.43888816E+03 0.43888828E+03 0.32000000E+00 0.0000E+00 0.9000E+01
        1 -1    0    0  502    0 0.00000000E+00 0.00000000E+00 -.55602209E+03 0.55602218E+03 0.32000000E+00 0.0000E+00 0.9000E+01
       25  2    1    2    0    0 -.29595419E+03 0.10918864E+03 0.23492382E+03 0.49504470E+03 0.30061439E+03 0.0000E+00 0.0000E+00
       23  2    1    2    0    0 0.30950880E+03 -.11111732E+03 -.34217732E+03 0.48296509E+03 0.89594639E+02 0.0000E+00 0.0000E+00
       24  1    3    3    0    0 -.13099348E+03 0.15242955E+03 0.21558177E+03 0.30551069E+03 0.80419002E+02 0.0000E+00 0.9000E+01
      -11  1    4    4    0    0 0.15205620E+03 -.30189901E+02 -.10598103E+03 0.18778844E+03 0.51099893E-03 0.0000E+00 0.9000E+01
       11  1    4    4    0    0 0.15745261E+03 -.80927417E+02 -.23619628E+03 0.29517665E+03 0.51099893E-03 0.0000E+00 0.9000E+01
      -24  1    3    3    0    0 -.16496070E+03 -.43240917E+02 0.19342041E+02 0.18953401E+03 0.80419002E+02 0.0000E+00 0.9000E+01
       21  1    1    2  502  501 -.13554618E+02 0.19286807E+01 -.98804278E+01 0.16900676E+02 0.75000000E+00 0.0000E+00 0.9000E+01
#aMCatNLO 2  0  0  2  1 0.13691146D+02 0.00000000D+00  -5  7  0 0.00000000D+00 0.00000000D+00 0.00000000D+00 0.00000000D+00 0.00000000D+00
  <mgrwgt>
 -.1541821004D-03    3    2    0
 0.486007297695945D+03 0.000000000000000D+00 0.000000000000000D+00 0.486007297695945D+03
 0.486007297695945D+03 0.000000000000000D+00 0.000000000000000D+00 -.486007297695945D+03
 0.333311759535190D+03 -.135626170030636D+03 0.153088736543278D+03 0.250597074676616D+03
 0.175072268261881D+03 0.149599878683152D+03 -.298403921148642D+02 -.859053340065526D+02
 0.268578765852439D+03 0.153691257146225D+03 -.803922158855149D+02 -.205062533312765D+03
 0.195051801742381D+03 -.167664965798741D+03 -.428561285428994D+02 0.403707926427020D+02
 0.000000000000000D+00 -.000000000000000D+00 0.000000000000000D+00 -.000000000000000D+00
 0.489965397283852D+03 0.000000000000000D+00 0.000000000000000D+00 0.489965397283852D+03
 0.498040974232886D+03 0.000000000000000D+00 0.000000000000000D+00 -.498040974232886D+03
 0.331149772235069D+03 -.130993484565854D+03 0.152429553767586D+03 0.250597074676616D+03
 0.177234994892895D+03 0.152056196557275D+03 -.301899005040167D+02 -.859053340065526D+02
 0.270908126863966D+03 0.157452608205434D+03 -.809274168721586D+02 -.205062533312765D+03
 0.192818118774413D+03 -.164960701884144D+03 -.432409170650168D+02 0.403707926427020D+02
 0.158953587503955D+02 -.135546183127107D+02 0.192868067360560D+01 -.807557694903366D+01
-.434263297118D-04 0.000000000000D+00 0.000000000000D+00 0.122763418983D-05 0.000000000000D+00  7 -1 1 24 -11 11 -24 21 2 0.66974609D-01 0.85874564D-01 0.14091286D+06 0.14091286D+06 0.14091286D+06 0.11097001D+01  1  2 13  2  7  2        1 -.578373287089D-03 0.100000000000D+01
-.191962129663D-03 0.000000000000D+00 0.000000000000D+00 0.122763418983D-05 0.000000000000D+00  7 -1 1 24 -11 11 -24 21 2 0.66974609D-01 0.83473511D-01 0.13564120D+06 0.13564120D+06 0.13564120D+06 0.11110170D+01  1  2  8  2  7  2        1 -.267055164216D-02 0.100000000000D+01
0.234718966183D-03 0.000000000000D+00 0.000000000000D+00 0.122763418983D-05 0.430256885821D-07  7 -1 1 24 -11 11 -24 21 2 0.67520058D-01 0.85540339D-01 0.14091286D+06 0.14091286D+06 0.14091286D+06 0.11097001D+01  1  2  1  2  7  2        1 0.309474282889D-02 0.100000000000D+01
  </mgrwgt>
  </event>
  <event>
  8     66 0.29788925E-05 0.15257415E+03 0.75467711E-02 0.96736752E-01
       -1 -1    0    0    0  501 0.00000000E+00 0.00000000E+00 0.17025325E+03 0.17025355E+03 0.32000000E+00 0.0000E+00 0.9000E+01
        1 -1    0    0  501    0 0.00000000E+00 0.00000000E+00 -.16883880E+04 0.16883880E+04 0.32000000E+00 0.0000E+00 0.9000E+01
       25  2    1    2    0    0 -.33078130E+03 0.24018170E+02 -.18830177E+03 0.48493037E+03 0.29951088E+03 0.0000E+00 0.0000E+00
       23  2    1    2    0    0 0.33078130E+03 -.24018170E+02 -.13298329E+04 0.13737112E+04 0.92917038E+02 0.0000E+00 0.0000E+00
       24  1    3    3    0    0 -.18376495E+03 -.75829946E+02 -.19486052E+03 0.28975434E+03 0.80419002E+02 0.0000E+00 0.9000E+01
      -13  1    4    4    0    0 0.19423199E+03 -.27722806E+02 -.60184108E+03 0.63301446E+03 0.10565837E+00 0.0000E+00 0.9000E+01
       13  1    4    4    0    0 0.13654931E+03 0.37046362E+01 -.72799185E+03 0.74069669E+03 0.10565837E+00 0.0000E+00 0.9000E+01
      -24  1    3    3    0    0 -.14701634E+03 0.99848116E+02 0.65587448E+01 0.19517604E+03 0.80419002E+02 0.0000E+00 0.9000E+01
#aMCatNLO 1  0  0  2  1 0.88930935D+02 0.00000000D+00  -5  7  0 0.00000000D+00 0.00000000D+00 0.00000000D+00 0.00000000D+00 0.00000000D+00
  <mgrwgt>
 0.5970858427D-03    9    2    0
 0.536147216913414D+03 0.000000000000000D+00 0.000000000000000D+00 0.536147216913414D+03
 0.536147216913414D+03 0.000000000000000D+00 0.000000000000000D+00 -.536147216913414D+03
 0.226360337622034D+03 -.183764953219822D+03 -.758299460419788D+02 0.724710131388943D+02
 0.245148278197139D+03 0.194232060368395D+03 -.277228467632892D+02 -.146979688377030D+03
 0.253195332043913D+03 0.136549237264677D+03 0.370467674861451D+01 -.213186437986684D+03
 0.347590485963743D+03 -.147016344413251D+03 0.998481160566535D+02 0.287695113224820D+03
 0.000000000000000D+00 0.000000000000000D+00 -.000000000000000D+00 -.000000000000000D+00
 0.549948566072523D+03 0.000000000000000D+00 0.000000000000000D+00 0.549948566072523D+03
 0.703295049830439D+03 0.000000000000000D+00 0.000000000000000D+00 -.703295049830439D+03
 0.238702657574950D+03 -.201482304798463D+03 -.682977004495375D+02 0.724710131388943D+02
 0.230265784129616D+03 0.176120367598461D+03 -.200229533885678D+02 -.146979688377030D+03
 0.243762816343550D+03 0.117616786552013D+03 0.117535020937353D+02 -.213186437986684D+03
 0.363244607822735D+03 -.174096794591225D+03 0.111360931648137D+03 0.287695113224820D+03
 0.177267750032111D+03 0.818419452392136D+02 -.347937799037668D+02 -.153346483757915D+03
0.619003569993D-04 0.000000000000D+00 0.000000000000D+00 0.181861447010D-05 0.000000000000D+00  7 -1 1 24 -13 13 -24 21 0 0.26192833D-01 0.25975202D+00 0.13775660D+06 0.13775660D+06 0.13775660D+06 0.11104819D+01  1  2  2  2  7  2        1 0.474962867351D-03 0.100000000000D+01
-.287332767398D-05 0.000000000000D+00 -.237713669616D-06 0.181861447010D-05 0.000000000000D+00  7 -1 1 24 -13 13 -24 21 2 0.26192833D-01 0.25975202D+00 0.13775660D+06 0.13775660D+06 0.13775660D+06 0.11104819D+01  1  2  3  2  7  2        1 -.271878365443D-04 0.100000000000D+01
0.388379731234D-05 0.000000000000D+00 0.000000000000D+00 0.181861447010D-05 0.000000000000D+00  7 -1 1 24 -13 13 -24 21 2 0.26192833D-01 0.25975202D+00 0.13775660D+06 0.13775660D+06 0.13775660D+06 0.11104819D+01  1  2 15  2  7  2        1 0.367490444809D-04 0.100000000000D+01
0.158530414898D-03 0.000000000000D+00 0.000000000000D+00 0.181861447010D-05 0.000000000000D+00  7 -1 1 24 -13 13 -24 21 2 0.26192833D-01 0.34332480D+00 0.17371618D+06 0.17371618D+06 0.17371618D+06 0.11025561D+01  1  2 12  2  7  2        1 0.640261728405D-03 0.100000000000D+01
-.162363866695D-03 0.000000000000D+00 0.000000000000D+00 0.181861447010D-05 0.000000000000D+00  7 -1 1 24 -13 13 -24 21 2 0.26192833D-01 0.25975202D+00 0.13775660D+06 0.13775660D+06 0.13775660D+06 0.11104819D+01  1  2  4  2  7  2        1 -.153631007991D-02 0.100000000000D+01
-.187773624224D-03 0.000000000000D+00 -.268980825070D-04 0.181861447010D-05 0.000000000000D+00  7 -1 1 24 -13 13 -24 21 2 0.26192833D-01 0.34347840D+00 0.13775660D+06 0.13775660D+06 0.13775660D+06 0.11104819D+01  1  2  5  2  7  2        1 -.777300310698D-03 0.100000000000D+01
0.188885118090D-03 0.000000000000D+00 0.258813128108D-04 0.181861447010D-05 0.000000000000D+00  7 -1 1 24 -13 13 -24 21 2 0.26192833D-01 0.25975202D+00 0.13775660D+06 0.13775660D+06 0.13775660D+06 0.11104819D+01  1  2  6  2  7  2        1 0.178725794583D-02 0.100000000000D+01
0.581331963328D-05 0.000000000000D+00 0.000000000000D+00 0.181861447010D-05 0.000000000000D+00  7 -1 21 24 -13 13 -24 -1 2 0.26192833D-01 0.34332480D+00 0.17371618D+06 0.17371618D+06 0.17371618D+06 0.11025561D+01  1  2 12  4  7  2        1 0.101268384522D-04 0.100000000000D+01
-.635433345955D-05 0.000000000000D+00 -.987504027233D-06 0.181861447010D-05 0.000000000000D+00  7 -1 21 24 -13 13 -24 -1 2 0.26192833D-01 0.34347840D+00 0.13775660D+06 0.13775660D+06 0.13775660D+06 0.11104819D+01  1  2  5  4  7  2        1 -.114743546367D-04 0.100000000000D+01
  </mgrwgt>
  </event>
  <event>
  8     66 0.29788925E-05 0.23132679E+03 0.75467711E-02 0.10381598E+00
       -1 -1    0    0    0  501 0.00000000E+00 0.00000000E+00 0.75925061E+03 0.75925068E+03 0.32000000E+00 0.0000E+00 0.9000E+01
        1 -1    0    0  501    0 0.00000000E+00 0.00000000E+00 -.13498034E+03 0.13498071E+03 0.32000000E+00 0.0000E+00 0.9000E+01
       25  2    1    2    0    0 -.18784561E+03 -.64142531E+02 0.55879551E+03 0.66537172E+03 0.30177287E+03 0.0000E+00 0.0000E+00
       23  2    1    2    0    0 0.18784561E+03 0.64142531E+02 0.65474770E+02 0.22885968E+03 0.93217856E+02 0.0000E+00 0.0000E+00
       24  1    3    3    0    0 -.46577323E+02 -.31748156E+02 0.46430859E+03 0.47458094E+03 0.80419002E+02 0.0000E+00 0.9000E+01
      -13  1    4    4    0    0 0.15009589E+03 0.54992843E+02 0.87266400E+01 0.16009109E+03 0.10565837E+00 0.0000E+00 0.9000E+01
       13  1    4    4    0    0 0.37749718E+02 0.91496885E+01 0.56748130E+02 0.68768593E+02 0.10565837E+00 0.0000E+00 0.9000E+01
      -24  1    3    3    0    0 -.14126829E+03 -.32394375E+02 0.94486921E+02 0.19079077E+03 0.80419002E+02 0.0000E+00 0.9000E+01
#aMCatNLO 1  0  0  2  1 0.15231323D+02 0.00000000D+00  -5  7  0 0.00000000D+00 0.00000000D+00 0.00000000D+00 0.00000000D+00 0.00000000D+00
  <mgrwgt>
 0.4818389580D-03    4    2    0
 0.320131382120350D+03 0.000000000000000D+00 0.000000000000000D+00 0.320131382120350D+03
 0.320131382120350D+03 0.000000000000000D+00 0.000000000000000D+00 -.320131382120350D+03
 0.210118621102637D+03 -.465773243230218D+02 -.317481568030746D+02 0.185755824614515D+03
 0.215084873475938D+03 0.150096040790219D+03 0.549929019800250D+02 -.143904350417478D+03
 0.407156578562462D+02 0.377495728494232D+02 0.914962980235860D+01 0.122073264408215D+02
 0.174343611805878D+03 -.141268289316621D+03 -.323943749793089D+02 -.540588006378582D+02
 0.000000000000000D+00 -.000000000000000D+00 0.000000000000000D+00 0.000000000000000D+00
 0.360095425293603D+03 0.000000000000000D+00 0.000000000000000D+00 0.360095425293603D+03
 0.321676513162111D+03 0.000000000000000D+00 0.000000000000000D+00 -.321676513162111D+03
 0.209973828078348D+03 -.431674282345114D+02 -.353997074127054D+02 0.185755824614515D+03
 0.216626573813065D+03 0.153600248443430D+03 0.512403560782690D+02 -.143904350417478D+03
 0.411810071779574D+02 0.384143291865262D+02 0.843776312226139D+01 0.122073264408215D+02
 0.172662499862619D+03 -.138451636017628D+03 -.354106405205703D+02 -.540588006378582D+02
 0.413280295237236D+02 -.103955133778167D+02 0.111322287327454D+02 0.384189121314912D+02
0.248884603848D-04 0.000000000000D+00 0.000000000000D+00 0.650043995642D-07 0.000000000000D+00  7 -1 1 24 -13 13 -24 21 0 0.11680782D+00 0.20766240D-01 0.53512082D+05 0.53512082D+05 0.53512082D+05 0.11447112D+01  1  2  2  2  7  2        1 0.555035151926D-03 0.100000000000D+01
-.120522968220D-05 0.000000000000D+00 -.955782411598D-07 0.650043995642D-07 0.000000000000D+00  7 -1 1 24 -13 13 -24 21 2 0.11680782D+00 0.20766240D-01 0.53512082D+05 0.53512082D+05 0.53512082D+05 0.11447112D+01  1  2  3  2  7  2        1 -.352195757694D-04 0.100000000000D+01
0.161069946668D-05 0.000000000000D+00 0.000000000000D+00 0.650043995642D-07 0.000000000000D+00  7 -1 1 24 -13 13 -24 21 2 0.11680782D+00 0.20766240D-01 0.53512082D+05 0.53512082D+05 0.53512082D+05 0.11447112D+01  1  2 15  2  7  2        1 0.470683329046D-04 0.100000000000D+01
-.291027637786D-05 0.000000000000D+00 0.000000000000D+00 0.650043995642D-07 0.000000000000D+00  7 -1 1 24 -13 13 -24 21 2 0.11680782D+00 0.20766240D-01 0.53512082D+05 0.53512082D+05 0.53512082D+05 0.11447112D+01  1  2  4  2  7  2        1 -.850449511104D-04 0.100000000000D+01
  </mgrwgt>
  </event>
  <event>
  8     66 0.29788925E-05 0.18974458E+03 0.75467711E-02 0.90910255E-01
       -1 -1    0    0    0  501 0.00000000E+00 0.00000000E+00 0.59950391E+02 0.59951245E+02 0.32000000E+00 0.0000E+00 0.9000E+01
        1 -1    0    0  501    0 0.00000000E+00 0.00000000E+00 -.11499268E+04 0.11499269E+04 0.32000000E+00 0.0000E+00 0.9000E+01
       25  2    1    2    0    0 0.19572659E+02 -.54708329E+02 -.36345753E+03 0.47490165E+03 0.30009017E+03 0.0000E+00 0.0000E+00
       23  2    1    2    0    0 -.19572659E+02 0.54708329E+02 -.72651891E+03 0.73497647E+03 0.94787128E+02 0.0000E+00 0.0000E+00
       24  1    3    3    0    0 0.22443654E+02 0.86471042E+02 -.24788991E+03 0.27549516E+03 0.80419002E+02 0.0000E+00 0.9000E+01
      -11  1    4    4    0    0 0.28023476E+02 0.36055925E+02 -.52836237E+03 0.53033210E+03 0.51099893E-03 0.0000E+00 0.9000E+01
       11  1    4    4    0    0 -.47596135E+02 0.18652403E+02 -.19815654E+03 0.20464437E+03 0.51099893E-03 0.0000E+00 0.9000E+01
      -24  1    3    3    0    0 -.28709957E+01 -.14117937E+03 -.11556762E+03 0.19940649E+03 0.80419002E+02 0.0000E+00 0.9000E+01
#aMCatNLO 1  0  0  2  2 0.65377408D+03 0.00000000D+00  -5  7  0 0.00000000D+00 0.00000000D+00 0.00000000D+00 0.00000000D+00 0.00000000D+00
  <mgrwgt>
 0.5662911363D-03    5    2    0
 0.262562577602522D+03 0.000000000000000D+00 0.000000000000000D+00 0.262562577602522D+03
 0.262562577602522D+03 0.000000000000000D+00 0.000000000000000D+00 -.262562577602522D+03
 0.120202588173916D+03 0.224436542125071D+02 0.864710421040653D+02 0.698220856112130D+00
 0.125179058474482D+03 0.280234763141845D+02 0.360559251063734D+02 -.116552356134699D+03
 0.601928645015854D+02 -.475961348630088D+02 0.186524034749881D+02 -.317785576704601D+02
 0.219550644055061D+03 -.287099566368283D+01 -.141179370685427D+03 0.147632692949047D+03
 0.000000000000000D+00 -.000000000000000D+00 0.000000000000000D+00 -.000000000000000D+00
 0.566558711032002D+03 0.000000000000000D+00 0.000000000000000D+00 0.566558711032002D+03
 0.114479965339221D+04 0.000000000000000D+00 0.000000000000000D+00 -.114479965339221D+04
 0.164425521908750D+03 0.141932484451004D+03 0.205722785756936D+02 0.698220856112130D+00
 0.208767037171879D+03 0.168216334707221D+03 -.412612266740008D+02 -.116552356134699D+03
 0.330170170030047D+02 -.846598814483108D+01 -.292809304727935D+01 -.317785576704601D+02
 0.432346904065946D+03 0.270800060359912D+03 -.292110500979883D+03 0.147632692949047D+03
 0.872801884274635D+03 -.572482891373305D+03 0.315727542125469D+03 -.578240942360211D+03
0.593942182785D-05 0.000000000000D+00 0.000000000000D+00 0.134921143728D-06 0.000000000000D+00  7 -1 1 24 -11 11 -24 21 0 0.92232063D-02 0.17691189D+00 0.36003005D+05 0.36003005D+05 0.36003005D+05 0.11600566D+01  1  2  2  2  7  2        1 0.555505078047D-03 0.100000000000D+01
-.287641263360D-06 0.000000000000D+00 -.228089437046D-07 0.134921143728D-06 0.000000000000D+00  7 -1 1 24 -11 11 -24 21 2 0.92232063D-02 0.17691189D+00 0.36003005D+05 0.36003005D+05 0.36003005D+05 0.11600566D+01  1  2  3  2  7  2        1 -.362037359105D-04 0.100000000000D+01
0.372955457117D-06 0.000000000000D+00 0.000000000000D+00 0.134921143728D-06 0.000000000000D+00  7 -1 1 24 -11 11 -24 21 2 0.92232063D-02 0.17691189D+00 0.36003005D+05 0.36003005D+05 0.36003005D+05 0.11600566D+01  1  2 15  2  7  2        1 0.469417381849D-04 0.100000000000D+01
0.274101227001D-05 0.000000000000D+00 -.210974096611D-05 0.134921143728D-06 0.000000000000D+00  7 -1 1 24 -11 11 -24 21 2 0.92232063D-02 0.83734792D+00 0.36003005D+05 0.36003005D+05 0.36003005D+05 0.11600566D+01  1  2  5  2  7  2        1 0.478328701317D-07 0.100000000000D+01
0.479339007655D-06 0.000000000000D+00 -.398258152726D-06 0.134921143728D-06 0.000000000000D+00  7 -1 21 24 -11 11 -24 -1 2 0.92232063D-02 0.83734792D+00 0.36003005D+05 0.36003005D+05 0.36003005D+05 0.11600566D+01  1  2  5  4  7  2        1 0.223094541686D-09 0.100000000000D+01
  </mgrwgt>
  </event>
  <event>
  8     66 0.29788925E-05 0.25487532E+03 0.75467711E-02 0.89506788E-01
       -1 -1    0    0    0  501 0.00000000E+00 0.00000000E+00 0.44487226E+03 0.44487237E+03 0.32000000E+00 0.0000E+00 0.9000E+01
        1 -1    0    0  501    0 0.00000000E+00 0.00000000E+00 -.20860677E+03 0.20860702E+03 0.32000000E+00 0.0000E+00 0.9000E+01
       25  2    1    2    0    0 -.15402122E+03 0.87003544E+02 0.28341039E+03 0.44893444E+03 0.29988087E+03 0.0000E+00 0.0000E+00
       23  2    1    2    0    0 0.15402122E+03 -.87003544E+02 -.47144900E+02 0.20454495E+03 0.91235089E+02 0.0000E+00 0.0000E+00
       24  1    3    3    0    0 -.11604012E+01 0.13085020E+03 0.64303152E+02 0.16650896E+03 0.80419002E+02 0.0000E+00 0.9000E+01
      -11  1    4    4    0    0 0.46059084E+02 -.36488433E+02 0.26471855E+02 0.64448460E+02 0.51099893E-03 0.0000E+00 0.9000E+01
       11  1    4    4    0    0 0.10796213E+03 -.50515111E+02 -.73616755E+02 0.14009649E+03 0.51099893E-03 0.0000E+00 0.9000E+01
      -24  1    3    3    0    0 -.15286082E+03 -.43846660E+02 0.21910723E+03 0.28242548E+03 0.80419002E+02 0.0000E+00 0.9000E+01
#aMCatNLO 1  0  0  2  1 0.72874045D+03 0.00000000D+00  -5  7  0 0.00000000D+00 0.00000000D+00 0.00000000D+00 0.00000000D+00 0.00000000D+00
  <mgrwgt>
 0.7179831169D-03    5    2    0
 0.304636641956931D+03 0.000000000000000D+00 0.000000000000000D+00 0.304636641956931D+03
 0.304636641956931D+03 0.000000000000000D+00 0.000000000000000D+00 -.304636641956931D+03
 0.153654461435432D+03 -.116040118638108D+01 0.130850204103718D+03 0.439944539050077D+01
 0.588592274485178D+02 0.460590837003505D+02 -.364884326195925D+02 0.340055135028277D+01
 0.178808537255385D+03 0.107962133517458D+03 -.505151110230144D+02 -.133285011460785D+03
 0.217951057774527D+03 -.152860816031427D+03 -.438466604611110D+02 0.125485014720001D+03
 0.000000000000000D+00 0.000000000000000D+00 0.000000000000000D+00 -.000000000000000D+00
 0.826154070356924D+03 0.000000000000000D+00 0.000000000000000D+00 0.826154070356924D+03
 0.852961683716287D+03 0.000000000000000D+00 0.000000000000000D+00 -.852961683716287D+03
 0.159222833923655D+03 -.125996117708162D+03 0.546838009929456D+02 0.439944539050077D+01
 0.674670611810172D+02 -.434416700055520D+01 -.672411243807574D+02 0.340055135028277D+01
 0.200005815137493D+03 -.431819789226142D+02 -.142733137375447D+03 -.133285011460785D+03
 0.523186688930097D+03 -.448569271146476D+03 -.224268177820902D+03 0.125485014720001D+03
 0.729233354900950D+03 0.622091534777808D+03 0.379558638584161D+03 -.268076133593634D+02
0.162981972446D-04 0.000000000000D+00 0.000000000000D+00 0.319674149422D-05 0.000000000000D+00  7 -1 1 24 -11 11 -24 21 0 0.68441914D-01 0.32093377D-01 0.64961427D+05 0.64961427D+05 0.64961427D+05 0.11374279D+01  1  2  2  2  7  2        1 0.636830731056D-03 0.100000000000D+01
-.870438986609D-06 0.000000000000D+00 -.625893688330D-07 0.319674149422D-05 0.000000000000D+00  7 -1 1 24 -11 11 -24 21 2 0.68441914D-01 0.32093377D-01 0.64961427D+05 0.64961427D+05 0.64961427D+05 0.11374279D+01  1  2  3  2  7  2        1 -.440018103630D-04 0.100000000000D+01
0.103202182568D-05 0.000000000000D+00 0.000000000000D+00 0.319674149422D-05 0.000000000000D+00  7 -1 1 24 -11 11 -24 21 2 0.68441914D-01 0.32093377D-01 0.64961427D+05 0.64961427D+05 0.64961427D+05 0.11374279D+01  1  2 15  2  7  2        1 0.521700307117D-04 0.100000000000D+01
0.189906609055D-04 0.000000000000D+00 -.845849079828D-05 0.319674149422D-05 0.000000000000D+00  7 -1 1 24 -11 11 -24 21 2 0.68441914D-01 0.20603277D+00 0.64961427D+05 0.64961427D+05 0.64961427D+05 0.11374279D+01  1  2  5  2  7  2        1 0.614645534628D-04 0.100000000000D+01
0.367283279743D-05 0.000000000000D+00 -.192679766981D-05 0.319674149422D-05 0.000000000000D+00  7 -1 21 24 -11 11 -24 -1 2 0.68441914D-01 0.20603277D+00 0.64961427D+05 0.64961427D+05 0.64961427D+05 0.11374279D+01  1  2  5  4  7  2        1 0.115196119886D-04 0.100000000000D+01
  </mgrwgt>
  </event>
  <event>
  9     66 0.29788925E-05 0.23894386E+03 0.75467711E-02 0.88510792E-01
       21 -1    0    0  502  501 0.00000000E+00 0.00000000E+00 0.16833858E+04 0.16833859E+04 0.75000000E+00 0.0000E+00 0.9000E+01
        1 -1    0    0  501    0 0.00000000E+00 0.00000000E+00 -.72163323E+03 0.72163330E+03 0.32000000E+00 0.0000E+00 0.9000E+01
       25  2    1    2    0    0 0.70987977E+03 -.11772566E+03 0.22246794E+02 0.77933485E+03 0.29846150E+03 0.0000E+00 0.0000E+00
       23  2    1    2    0    0 0.65257730E+02 -.18028193E+03 -.14697351E+03 0.25817428E+03 0.91063722E+02 0.0000E+00 0.0000E+00
       24  1    3    3    0    0 0.52968801E+03 -.63443408E+02 -.88384463E+02 0.54669323E+03 0.80419002E+02 0.0000E+00 0.9000E+01
      -13  1    4    4    0    0 0.50879502E+02 -.38381306E+02 -.74981140E+02 0.98407474E+02 0.10565837E+00 0.0000E+00 0.9000E+01
       13  1    4    4    0    0 0.14378227E+02 -.14190062E+03 -.71992366E+02 0.15976680E+03 0.10565837E+00 0.0000E+00 0.9000E+01
      -24  1    3    3    0    0 0.18019176E+03 -.54282249E+02 0.11063126E+03 0.23264162E+03 0.80419002E+02 0.0000E+00 0.9000E+01
        1  1    1    2  502    0 -.77513750E+03 0.29800758E+03 0.10864792E+04 0.13675101E+04 0.32000000E+00 0.0000E+00 0.9000E+01
#aMCatNLO 2  0  0  1  1 0.83044967D+03 0.00000000D+00  -5  7  0 0.00000000D+00 0.00000000D+00 0.00000000D+00 0.00000000D+00 0.00000000D+00
  <mgrwgt>
 0.7200351252D-05    1    2    0
 0.304639855306803D+03 0.000000000000000D+00 0.000000000000000D+00 0.304639855306803D+03
 0.304639855306803D+03 0.000000000000000D+00 0.000000000000000D+00 -.304639855306803D+03
 0.207930197202015D+03 0.176031583139638D+03 0.725225304746027D+02 -.228279492073062D+02
 0.687203049359393D+02 -.241943849116868D+02 -.951841463970960D+01 -.636121987670619D+02
 0.169622688576018D+03 -.137805508626384D+03 -.833925674621429D+02 -.531712136785715D+02
 0.163006519899634D+03 -.140316896015670D+02 0.203884516272499D+02 0.139611361652940D+03
 0.000000000000000D+00 -.000000000000000D+00 0.000000000000000D+00 0.000000000000000D+00
 0.189953443393954D+04 0.000000000000000D+00 0.000000000000000D+00 0.189953443393954D+04
 0.639518462572151D+03 0.000000000000000D+00 0.000000000000000D+00 -.639518462572151D+03
 0.539984061450923D+03 0.529688011363227D+03 -.634434080084156D+02 -.228279492073062D+02
 0.900464015939563D+02 0.508795499713237D+02 -.383811672927679D+02 -.636121987670619D+02
 0.152216080763501D+03 0.143781786233962D+02 -.141900758484308D+03 -.531712136785715D+02
 0.247738128061732D+03 0.180191757042709D+03 -.542822487783423D+02 0.139611361652940D+03
 0.150906822464158D+04 -.775137497000656D+03 0.298007582563834D+03 0.126001597136739D+04
0.659793434098D-05 0.000000000000D+00 0.000000000000D+00 0.227487705905D-06 0.188455709140D-11  7 21 1 24 -13 13 -24 1 2 0.25898244D+00 0.11102051D+00 0.79295811D+06 0.79295811D+06 0.79295811D+06 0.10546371D+01  1  2  1  3  7  1       -1 0.720035125225D-05 0.100000000000D+01
  </mgrwgt>
  </event>
  <event>
  8     66 0.29788925E-05 0.10021768E+03 0.75467711E-02 0.10579178E+00
       -1 -1    0    0    0  501 0.00000000E+00 0.00000000E+00 0.47334103E+02 0.47335185E+02 0.32000000E+00 0.0000E+00 0.9000E+01
        1 -1    0    0  501    0 0.00000000E+00 0.00000000E+00 -.12415137E+04 0.12415137E+04 0.32000000E+00 0.0000E+00 0.9000E+01
       25  2    1    2    0    0 0.46900448E+02 0.41580519E+01 -.11253906E+04 0.11657162E+04 0.30028873E+03 0.0000E+00 0.0000E+00
       23  2    1    2    0    0 -.46900448E+02 -.41580519E+01 -.68788971E+02 0.12313270E+03 0.90624484E+02 0.0000E+00 0.0000E+00
       24  1    3    3    0    0 0.14235467E+03 0.49195377E+02 -.59901574E+03 0.62287407E+03 0.80419002E+02 0.0000E+00 0.9000E+01
      -11  1    4    4    0    0 -.48554796E+02 -.25180431E+02 -.38220241E+01 0.54829099E+02 0.51099893E-03 0.0000E+00 0.9000E+01
       11  1    4    4    0    0 0.16543473E+01 0.21022379E+02 -.64966947E+02 0.68303598E+02 0.51099893E-03 0.0000E+00 0.9000E+01
      -24  1    3    3    0    0 -.95454222E+02 -.45037325E+02 -.52637486E+03 0.54284213E+03 0.80419002E+02 0.0000E+00 0.9000E+01
#aMCatNLO 1  0  0  1  2 0.41197622D+02 0.00000000D+00  -5  7  0 0.00000000D+00 0.00000000D+00 0.00000000D+00 0.00000000D+00 0.00000000D+00
  <mgrwgt>
 0.7677607704D-03    9    2    0
 0.242418355970587D+03 0.000000000000000D+00 0.000000000000000D+00 0.242418355970587D+03
 0.242418355970587D+03 0.000000000000000D+00 0.000000000000000D+00 -.242418355970587D+03
 0.180386923701754D+03 0.142354670075152D+03 0.491953771762709D+02 -.581995623737068D+02
 0.136339182202558D+03 -.485547955911747D+02 -.251804305383396D+02 0.124886950265692D+03
 0.215553312993183D+02 0.165434734686864D+01 0.210223786736377D+02 -.446710613053455D+01
 0.146555274737545D+03 -.954542218308459D+02 -.450373253115690D+02 -.622202817614503D+02
 0.000000000000000D+00 -.000000000000000D+00 -.000000000000000D+00 0.000000000000000D+00
 0.264542389716638D+03 0.000000000000000D+00 0.000000000000000D+00 0.264542389716638D+03
 0.263259103282954D+03 0.000000000000000D+00 0.000000000000000D+00 -.263259103282954D+03
 0.193610345930899D+03 0.158049210654257D+03 0.514879408035266D+02 -.581995623737068D+02
 0.132438756164310D+03 -.372757125523862D+02 -.235328502607780D+02 0.124886950265692D+03
 0.220303005542029D+02 0.348338868843484D+01 0.212895539777689D+02 -.446710613053455D+01
 0.138504486603487D+03 -.834918831853498D+02 -.432899391846956D+02 -.622202817614503D+02
 0.412176037466928D+02 -.407650036049555D+02 -.595470533582188D+01 0.128328643368384D+01
0.478462495956D-05 0.000000000000D+00 0.000000000000D+00 0.123439682476D-05 0.000000000000D+00  7 -1 1 24 -11 11 -24 21 0 0.72822561D-02 0.19100219D+00 0.35951023D+05 0.35951023D+05 0.35951023D+05 0.11601137D+01  1  2  2  1  7  1       -1 0.552204246385D-03 0.100000000000D+01
-.246300689514D-06 0.000000000000D+00 -.183742196654D-07 0.123439682476D-05 0.000000000000D+00  7 -1 1 24 -11 11 -24 21 2 0.72822561D-02 0.19100219D+00 0.35951023D+05 0.35951023D+05 0.35951023D+05 0.11601137D+01  1  2  3  1  7  1       -1 -.382576745655D-04 0.100000000000D+01
0.298330750391D-06 0.000000000000D+00 0.000000000000D+00 0.123439682476D-05 0.000000000000D+00  7 -1 1 24 -11 11 -24 21 2 0.72822561D-02 0.19100219D+00 0.35951023D+05 0.35951023D+05 0.35951023D+05 0.11601137D+01  1  2 15  1  7  1       -1 0.463394592352D-04 0.100000000000D+01
0.498447489631D-05 0.000000000000D+00 0.000000000000D+00 0.123439682476D-05 0.000000000000D+00  7 -1 1 24 -11 11 -24 21 2 0.82330934D-02 0.19100219D+00 0.43108321D+05 0.43108321D+05 0.43108321D+05 0.11530042D+01  1  2 12  1  7  1       -1 0.635547244758D-03 0.100000000000D+01
-.409417065388D-05 0.000000000000D+00 0.000000000000D+00 0.123439682476D-05 0.000000000000D+00  7 -1 1 24 -11 11 -24 21 2 0.72822561D-02 0.19100219D+00 0.35951023D+05 0.35951023D+05 0.35951023D+05 0.11601137D+01  1  2  4  1  7  1       -1 -.635944011366D-03 0.100000000000D+01
-.131915186543D-04 0.000000000000D+00 -.398223106669D-05 0.123439682476D-05 0.000000000000D+00  7 -1 1 24 -11 11 -24 21 2 0.86754539D-02 0.19100219D+00 0.35951023D+05 0.35951023D+05 0.35951023D+05 0.11601137D+01  1  2  5  1  7  1       -1 -.157522974222D-02 0.100000000000D+01
0.137378480762D-04 0.000000000000D+00 0.392198299814D-05 0.123439682476D-05 0.000000000000D+00  7 -1 1 24 -11 11 -24 21 2 0.72822561D-02 0.19100219D+00 0.35951023D+05 0.35951023D+05 0.35951023D+05 0.11601137D+01  1  2  6  1  7  1       -1 0.213388814284D-02 0.100000000000D+01
0.963709571427D-07 0.000000000000D+00 0.000000000000D+00 0.123439682476D-05 0.000000000000D+00  7 21 1 24 -11 11 -24 1 2 0.82330934D-02 0.19100219D+00 0.43108321D+05 0.43108321D+05 0.43108321D+05 0.11530042D+01  1  2 12  3  7  1       -1 0.180920425705D-03 0.100000000000D+01
-.304018573288D-06 0.000000000000D+00 -.102757362253D-06 0.123439682476D-05 0.000000000000D+00  7 21 1 24 -11 11 -24 1 2 0.86754539D-02 0.19100219D+00 0.35951023D+05 0.35951023D+05 0.35951023D+05 0.11601137D+01  1  2  5  3  7  1       -1 -.531707320400D-03 0.100000000000D+01
  </mgrwgt>
  </event>
  <event>
  8     66 0.29788925E-05 0.28696941E+03 0.75467711E-02 0.83794178E-01
       -1 -1    0    0    0  501 0.00000000E+00 0.00000000E+00 0.31888171E+03 0.31888187E+03 0.32000000E+00 0.0000E+00 0.9000E+01
        1 -1    0    0  501    0 0.00000000E+00 0.00000000E+00 -.13518113E+04 0.13518114E+04 0.32000000E+00 0.0000E+00 0.9000E+01
       25  2    1    2    0    0 0.87517502E+02 0.18855353E+03 0.20037010E+03 0.41669020E+03 0.30045100E+03 0.0000E+00 0.0000E+00
       23  2    1    2    0    0 -.87517502E+02 -.18855353E+03 -.12332997E+04 0.12540030E+04 0.91014624E+02 0.0000E+00 0.0000E+00
       24  1    3    3    0    0 0.16594127E+03 0.17092188E+03 0.13126933E+03 0.28363647E+03 0.80419002E+02 0.0000E+00 0.9000E+01
      -11  1    4    4    0    0 -.74658297E+02 -.14104220E+03 -.11071330E+04 0.11185751E+04 0.51099893E-03 0.0000E+00 0.9000E+01
       11  1    4    4    0    0 -.12859206E+02 -.47511328E+02 -.12616674E+03 0.13542795E+03 0.51099893E-03 0.0000E+00 0.9000E+01
      -24  1    3    3    0    0 -.78423770E+02 0.17631645E+02 0.69100767E+02 0.13305373E+03 0.80419002E+02 0.0000E+00 0.9000E+01
#aMCatNLO 1  0  0  2  2 0.14513139D+04 0.00000000D+00  -5  7  0 0.00000000D+00 0.00000000D+00 0.00000000D+00 0.00000000D+00 0.00000000D+00
  <mgrwgt>
 0.1077895017D-02    3    2    0
 0.656557743758028D+03 0.000000000000000D+00 0.000000000000000D+00 0.656557743758028D+03
 0.656557743758028D+03 0.000000000000000D+00 0.000000000000000D+00 -.656557743758028D+03
 0.464133980834600D+03 0.165941272646914D+03 0.170921882932736D+03 0.390131183293586D+03
 0.552278433063873D+03 -.746582965192968D+02 -.141042200056546D+03 -.528719873081703D+03
 0.730607540672720D+02 -.128592057579436D+02 -.475113280338527D+02 -.539924839270516D+02
 0.223642319550312D+03 -.784237703696737D+02 0.176316451576630D+02 0.192581173715169D+03
 0.000000000000000D+00 -.000000000000000D+00 -.000000000000000D+00 0.000000000000000D+00
 0.216486275311258D+04 0.000000000000000D+00 0.000000000000000D+00 0.216486275311258D+04
 0.142248829013956D+04 0.000000000000000D+00 0.000000000000000D+00 -.142248829013956D+04
 0.954633033827112D+03 0.577345783443637D+03 0.647554259874325D+03 0.390131183293586D+03
 0.651243351074707D+03 0.274330850902340D+03 0.263278906049611D+03 -.528719873081703D+03
 0.598582329806903D+02 0.256837475789731D+02 -.285741933521807D+01 -.539924839270516D+02
 0.291453259536948D+03 0.709401791287413D+02 0.190677133018123D+03 0.192581173715169D+03
 0.163016316583268D+04 -.948300561053692D+03 -.109865287960684D+04 0.742374462973019D+03
0.225582371955D-03 0.000000000000D+00 0.000000000000D+00 0.108894871593D-04 0.000000000000D+00  7 -1 1 24 -11 11 -24 21 0 0.49058739D-01 0.20797099D+00 0.82351444D+05 0.82351444D+05 0.82351444D+05 0.11287086D+01  1  2  2  2  7  2        1 0.101110818223D-02 0.100000000000D+01
-.209496518893D-05 0.000000000000D+00 -.866295705510D-06 0.108894871593D-04 0.000000000000D+00  7 -1 1 24 -11 11 -24 21 2 0.49058739D-01 0.20797099D+00 0.82351444D+05 0.82351444D+05 0.82351444D+05 0.11287086D+01  1  2  3  2  7  2        1 -.119628026278D-04 0.100000000000D+01
0.137908944958D-04 0.000000000000D+00 0.000000000000D+00 0.108894871593D-04 0.000000000000D+00  7 -1 1 24 -11 11 -24 21 2 0.49058739D-01 0.20797099D+00 0.82351444D+05 0.82351444D+05 0.82351444D+05 0.11287086D+01  1  2 15  2  7  2        1 0.787496373615D-04 0.100000000000D+01
  </mgrwgt>
  </event>
  <event>
  9     66 0.29788925E-05 0.18117249E+03 0.75467711E-02 0.10341274E+00
       21 -1    0    0  502  501 0.00000000E+00 0.00000000E+00 0.33951646E+03 0.33951729E+03 0.75000000E+00 0.0000E+00 0.9000E+01
        1 -1    0    0  501    0 0.00000000E+00 0.00000000E+00 -.67539829E+03 0.67539836E+03 0.32000000E+00 0.0000E+00 0.9000E+01
       25  2    1    2    0    0 -.13769302E+03 -.43421944E+02 -.26270590E+02 0.33321005E+03 0.29915542E+03 0.0000E+00 0.0000E+00
       23  2    1    2    0    0 0.27283450E+02 0.64912939E+01 -.47252113E+03 0.48147103E+03 0.88043246E+02 0.0000E+00 0.0000E+00
       24  1    3    3    0    0 0.22802215E+02 0.57505554E+02 -.69238034E+02 0.12283302E+03 0.80419002E+02 0.0000E+00 0.9000E+01
      -11  1    4    4    0    0 -.12853733E+02 0.22306397E+02 -.36068517E+03 0.36160280E+03 0.51099893E-03 0.0000E+00 0.9000E+01
       11  1    4    4    0    0 0.40137182E+02 -.15815103E+02 -.11183596E+03 0.11986823E+03 0.51099893E-03 0.0000E+00 0.9000E+01
      -24  1    3    3    0    0 -.16049523E+03 -.10092750E+03 0.42967443E+02 0.21037703E+03 0.80419002E+02 0.0000E+00 0.9000E+01
        1  1    1    2  502    0 0.11040957E+03 0.36930650E+02 0.16290990E+03 0.20023457E+03 0.32000000E+00 0.0000E+00 0.9000E+01
#aMCatNLO 2  0  0  1  2 0.11642227D+03 0.00000000D+00  -5  7  0 0.00000000D+00 0.00000000D+00 0.00000000D+00 0.00000000D+00 0.00000000D+00
  <mgrwgt>
 0.2540361963D-03    2    2    0
 0.316764086812823D+03 0.000000000000000D+00 0.000000000000000D+00 0.316764086812823D+03
 0.316764086812823D+03 0.000000000000000D+00 0.000000000000000D+00 -.316764086812823D+03
 0.110769629755312D+03 0.411662490211508D+02 0.636480991404904D+02 0.754680986174232D+01
 0.180084811719897D+03 0.180939468127765D+02 0.326580174263009D+02 -.176172081780033D+03
 0.721656867468788D+02 0.519907263737232D+02 -.118502374019414D+02 -.486253286703432D+02
 0.270508045403557D+03 -.111250922207651D+03 -.844558791648499D+02 0.217250600588634D+03
 0.000000000000000D+00 0.000000000000000D+00 0.000000000000000D+00 0.000000000000000D+00
 0.692316004473919D+03 0.000000000000000D+00 0.000000000000000D+00 0.692316004473919D+03
 0.331220431837114D+03 0.000000000000000D+00 0.000000000000000D+00 -.331220431837114D+03
 0.101739864774355D+03 0.228022151635459D+02 0.575055542924293D+02 0.754680986174232D+01
 0.178043242460774D+03 -.128537326162660D+02 0.223063969538965D+02 -.176172081780033D+03
 0.650041034862427D+02 0.401371822407577D+02 -.158151030196912D+02 -.486253286703432D+02
 0.299349492124417D+03 -.160495230732953D+03 -.100927498416584D+03 0.217250600588634D+03
 0.379399733465245D+03 0.110409565944916D+03 0.369306501899496D+02 0.361095572636805D+03
-.664759530417D-06 0.000000000000D+00 0.000000000000D+00 0.892425621082D-07 0.000000000000D+00  7 21 1 24 -11 11 -24 1 2 0.52116915D-01 0.99372364D-01 0.60690707D+05 0.60690707D+05 0.60690707D+05 0.11399662D+01  1  2 13  3  7  1       -1 -.114795258885D-03 0.100000000000D+01
0.229104887599D-05 0.000000000000D+00 0.000000000000D+00 0.892425621082D-07 0.509114831870D-11  7 21 1 24 -11 11 -24 1 2 0.52233361D-01 0.10390748D+00 0.60690707D+05 0.60690707D+05 0.60690707D+05 0.11399662D+01  1  2  1  3  7  1       -1 0.368831455229D-03 0.100000000000D+01
  </mgrwgt>
  </event>
  <event>
  8     66 0.29788925E-05 0.22904109E+03 0.75467711E-02 0.87385681E-01
       -1 -1    0    0    0  501 0.00000000E+00 0.00000000E+00 0.55141800E+03 0.55141810E+03 0.32000000E+00 0.0000E+00 0.9000E+01
        1 -1    0    0  501    0 0.00000000E+00 0.00000000E+00 -.20243141E+04 0.20243141E+04 0.32000000E+00 0.0000E+00 0.9000E+01
       25  2    1    2    0    0 0.62618020E+02 -.96455598E+02 0.50139316E+03 0.59579268E+03 0.30058129E+03 0.0000E+00 0.0000E+00
       23  2    1    2    0    0 -.62618020E+02 0.96455598E+02 -.19742892E+04 0.19799395E+04 0.95487217E+02 0.0000E+00 0.0000E+00
       24  1    3    3    0    0 0.14602072E+03 0.10269108E+01 0.30752785E+03 0.34980523E+03 0.80419002E+02 0.0000E+00 0.9000E+01
      -11  1    4    4    0    0 -.37198127E+02 -.29930151E+01 -.89569038E+03 0.89646746E+03 0.51099893E-03 0.0000E+00 0.9000E+01
       11  1    4    4    0    0 -.25419893E+02 0.99448613E+02 -.10785988E+04 0.10834720E+04 0.51099893E-03 0.0000E+00 0.9000E+01
      -24  1    3    3    0    0 -.83402696E+02 -.97482509E+02 0.19386531E+03 0.24598745E+03 0.80419002E+02 0.0000E+00 0.9000E+01
#aMCatNLO 1  0  0  1  2 0.95504087D+03 0.00000000D+00  -5  7  0 0.00000000D+00 0.00000000D+00 0.00000000D+00 0.00000000D+00 0.00000000D+00
  <mgrwgt>
 0.1627593032D-02    5    2    0
 0.105652418891851D+04 0.000000000000000D+00 0.000000000000000D+00 0.105652418891851D+04
 0.105652418891851D+04 0.000000000000000D+00 0.000000000000000D+00 -.105652418891851D+04
 0.640762019850384D+03 0.146020715853223D+03 0.102691084169873D+01 0.618696731948868D+03
 0.468423381554767D+03 -.371981272999004D+02 -.299301511253355D+01 -.466934476744992D+03
 0.568879452937441D+03 -.254198926985474D+02 0.994486128608908D+02 -.559542343732483D+03
 0.434983523494423D+03 -.834026958547753D+02 -.974825085900559D+02 0.407780088528607D+03
 0.000000000000000D+00 -.000000000000000D+00 0.000000000000000D+00 0.000000000000000D+00
 0.287867683842129D+04 0.000000000000000D+00 0.000000000000000D+00 0.287867683842129D+04
 0.129205710831545D+04 0.000000000000000D+00 0.000000000000000D+00 -.129205710831545D+04
 0.767780452536399D+03 0.443592215838117D+03 -.588209764135760D+02 0.618696731948868D+03
 0.497830522988897D+03 0.166934605207695D+03 -.440484009974248D+02 -.466934476744992D+03
 0.604160359555174D+03 0.222398844321102D+03 0.496070526521697D+02 -.559542343732483D+03
 0.449081075622303D+03 0.103366559599007D+03 -.135045734045844D+03 0.407780088528607D+03
 0.185188153603397D+04 -.936292224965920D+03 0.188308058804675D+03 0.158661973010584D+04
0.219511715438D-02 0.000000000000D+00 0.000000000000D+00 0.155608700258D-05 0.000000000000D+00  7 -1 1 24 -11 11 -24 21 0 0.84833548D-01 0.31143294D+00 0.52459819D+05 0.52459819D+05 0.52459819D+05 0.11454653D+01  1  2  2  1  7  1       -1 0.130074164617D-02 0.100000000000D+01
0.224618136158D-03 0.000000000000D+00 -.842982786043D-05 0.155608700258D-05 0.000000000000D+00  7 -1 1 24 -11 11 -24 21 2 0.84833548D-01 0.31143294D+00 0.52459819D+05 0.52459819D+05 0.52459819D+05 0.11454653D+01  1  2  3  1  7  1       -1 0.174639334672D-03 0.100000000000D+01
0.133673768226D-03 0.000000000000D+00 0.000000000000D+00 0.155608700258D-05 0.000000000000D+00  7 -1 1 24 -11 11 -24 21 2 0.84833548D-01 0.31143294D+00 0.52459819D+05 0.52459819D+05 0.52459819D+05 0.11454653D+01  1  2 15  1  7  1       -1 0.103930601266D-03 0.100000000000D+01
0.669375822972D-03 0.000000000000D+00 -.664249091204D-03 0.155608700258D-05 0.000000000000D+00  7 -1 1 24 -11 11 -24 21 2 0.25228755D+00 0.31143294D+00 0.52459819D+05 0.52459819D+05 0.52459819D+05 0.11454653D+01  1  2  5  1  7  1       -1 0.206365888517D-04 0.100000000000D+01
0.116624931124D-03 0.000000000000D+00 -.822345283977D-04 0.155608700258D-05 0.000000000000D+00  7 21 1 24 -11 11 -24 1 2 0.25228755D+00 0.31143294D+00 0.52459819D+05 0.52459819D+05 0.52459819D+05 0.11454653D+01  1  2  5  3  7  1       -1 0.276448605601D-04 0.100000000000D+01
  </mgrwgt>
  </event>
  <event>
  8     66 0.29788925E-05 0.23180406E+03 0.75467711E-02 0.93846174E-01
       -3 -1    0    0    0  501 0.00000000E+00 0.00000000E+00 0.19571955E+03 0.19572019E+03 0.50000000E+00 0.0000E+00 0.9000E+01
        3 -1    0    0  501    0 0.00000000E+00 0.00000000E+00 -.40986395E+03 0.40986425E+03 0.50000000E+00 0.0000E+00 0.9000E+01
       25  2    1    2    0    0 -.10824006E+03 0.15280197E+02 0.28959137E+02 0.32263627E+03 0.30216905E+03 0.0000E+00 0.0000E+00
       23  2    1    2    0    0 0.10824006E+03 -.15280197E+02 -.24310353E+03 0.28294817E+03 0.94925996E+02 0.0000E+00 0.0000E+00
       24  1    3    3    0    0 0.28600346E+02 -.94074129E+02 0.27094192E+02 0.12988161E+03 0.80419002E+02 0.0000E+00 0.9000E+01
      -13  1    4    4    0    0 0.10088217E+03 0.24145727E+02 -.18906998E+03 0.21565643E+03 0.10565837E+00 0.0000E+00 0.9000E+01
       13  1    4    4    0    0 0.73578882E+01 -.39425924E+02 -.54033557E+02 0.67291741E+02 0.10565837E+00 0.0000E+00 0.9000E+01
      -24  1    3    3    0    0 -.13684040E+03 0.10935433E+03 0.18649448E+01 0.19275466E+03 0.80419002E+02 0.0000E+00 0.9000E+01
#aMCatNLO 1  0  0  2  2 0.43896899D+03 0.00000000D+00  -5  7  0 0.00000000D+00 0.00000000D+00 0.00000000D+00 0.00000000D+00 0.00000000D+00
  <mgrwgt>
 0.1072745704D-03    3    2    0
 0.283229011552005D+03 0.000000000000000D+00 0.000000000000000D+00 0.283229011552005D+03
 0.283229011552005D+03 0.000000000000000D+00 0.000000000000000D+00 -.283229011552005D+03
 0.149095507899098D+03 0.286003295153456D+02 -.940741136134824D+02 0.780662335505609D+02
 0.159076191932433D+03 0.100882291606643D+03 0.241457976183560D+02 -.120602564389361D+03
 0.515126829861175D+02 0.735777936754976D+01 -.394259969545497D+02 -.323266199183666D+02
 0.206773640286361D+03 -.136840400489538D+03 0.109354312949676D+03 0.748629507571669D+02
 0.000000000000000D+00 0.000000000000000D+00 0.000000000000000D+00 0.000000000000000D+00
 0.760899675038347D+03 0.000000000000000D+00 0.000000000000000D+00 0.760899675038347D+03
 0.477979883271312D+03 0.000000000000000D+00 0.000000000000000D+00 -.477979883271312D+03
 0.255666702161122D+03 0.108195394424329D+01 -.229788466191115D+03 0.780662335505609D+02
 0.167376440549136D+03 0.786879119844290D+02 -.853118211102020D+02 -.120602564389361D+03
 0.939798965294543D+02 -.253375533210094D+01 -.882087902663757D+02 -.323266199183666D+02
 0.199613873304739D+03 -.164469274797598D+03 -.269049941986977D+02 0.748629507571669D+02
 0.522242645765207D+03 0.872331642010269D+02 0.430214071766391D+03 0.282919791767035D+03
0.940869961177D-05 0.000000000000D+00 0.000000000000D+00 0.839674034206D-08 0.000000000000D+00  7 -3 3 24 -13 13 -24 21 0 0.30110773D-01 0.63056064D-01 0.53733121D+05 0.53733121D+05 0.53733121D+05 0.11445548D+01  1  2  2  2  7  2        3 0.105984731688D-03 0.100000000000D+01
-.497191728456D-06 0.000000000000D+00 -.361318838767D-07 0.839674034206D-08 0.000000000000D+00  7 -3 3 24 -13 13 -24 21 2 0.30110773D-01 0.63056064D-01 0.53733121D+05 0.53733121D+05 0.53733121D+05 0.11445548D+01  1  2  3  2  7  2        3 -.733686962067D-05 0.100000000000D+01
0.584599188325D-06 0.000000000000D+00 0.000000000000D+00 0.839674034206D-08 0.000000000000D+00  7 -3 3 24 -13 13 -24 21 2 0.30110773D-01 0.63056064D-01 0.53733121D+05 0.53733121D+05 0.53733121D+05 0.11445548D+01  1  2 15  2  7  2        3 0.862670832922D-05 0.100000000000D+01
  </mgrwgt>
  </event>
  <event>
  8     66 0.29788925E-05 0.89652817E+03 0.75467711E-02 0.88062341E-01
       -1 -1    0    0    0  501 0.00000000E+00 0.00000000E+00 0.13989348E+04 0.13989348E+04 0.32000000E+00 0.0000E+00 0.9000E+01
        1 -1    0    0  501    0 0.00000000E+00 0.00000000E+00 -.67603679E+03 0.67603686E+03 0.32000000E+00 0.0000E+00 0.9000E+01
       25  2    1    2    0    0 -.84533211E+03 -.23685982E+03 -.94724645E+01 0.92806888E+03 0.30088730E+03 0.0000E+00 0.0000E+00
       23  2    1    2    0    0 0.84533211E+03 0.23685982E+03 0.73237043E+03 0.11469028E+04 0.91272000E+02 0.0000E+00 0.0000E+00
       24  1    3    3    0    0 -.57005108E+03 -.69173235E+02 0.76632046E+02 0.58487849E+03 0.80419002E+02 0.0000E+00 0.9000E+01
      -11  1    4    4    0    0 0.79959303E+03 0.20559112E+03 0.70207348E+03 0.10837545E+04 0.51099893E-03 0.0000E+00 0.9000E+01
       11  1    4    4    0    0 0.45739083E+02 0.31268701E+02 0.30296956E+02 0.63148245E+02 0.51099893E-03 0.0000E+00 0.9000E+01
      -24  1    3    3    0    0 -.27528104E+03 -.16768658E+03 -.86104511E+02 0.34319039E+03 0.80419002E+02 0.0000E+00 0.9000E+01
#aMCatNLO 1  0  0  1  2 0.69087480D+02 0.00000000D+00  -5  7  0 0.00000000D+00 0.00000000D+00 0.00000000D+00 0.00000000D+00 0.00000000D+00
  <mgrwgt>
 0.5307865368D-03    4    2    0
 0.972487262419805D+03 0.000000000000000D+00 0.000000000000000D+00 0.972487262419805D+03
 0.972487262419805D+03 0.000000000000000D+00 0.000000000000000D+00 -.972487262419805D+03
 0.595488079549905D+03 -.570051075398105D+03 -.691732347593913D+02 -.135630645364719D+03
 0.895246916326656D+03 0.799593027791677D+03 0.205591117759442D+03 0.346194054538418D+03
 0.561082984335493D+02 0.457390828409951D+02 0.312687006616243D+02 0.885131701536876D+01
 0.398131230529499D+03 -.275281035234567D+03 -.167686583661675D+03 -.219414726189067D+03
 0.000000000000000D+00 0.000000000000000D+00 0.000000000000000D+00 -.000000000000000D+00
 0.984472554204967D+03 0.000000000000000D+00 0.000000000000000D+00 0.984472554204967D+03
 0.107803138237177D+04 0.000000000000000D+00 0.000000000000000D+00 -.107803138237177D+04
 0.607666281900923D+03 -.580223098422863D+03 -.879578211385669D+02 -.135630645364719D+03
 0.875865279739654D+03 0.784619226744161D+03 0.177939129701899D+03 0.346194054538418D+03
 0.543933511445613D+02 0.448048508257225D+02 0.295434625308840D+02 0.885131701536876D+01
 0.408276254148481D+03 -.282098776801485D+03 -.180276847669430D+03 -.219414726189067D+03
 0.116302769643115D+03 0.328977976544644D+02 0.607520765752132D+02 -.935588281668000D+02
0.206668884570D-02 0.000000000000D+00 0.000000000000D+00 0.106217994854D-04 0.000000000000D+00  7 -1 1 24 -11 11 -24 21 0 0.21522074D+00 0.10400567D+00 0.80376276D+06 0.80376276D+06 0.80376276D+06 0.10542383D+01  1  2  2  1  7  1       -1 0.711031293994D-03 0.100000000000D+01
-.113892718077D-03 0.000000000000D+00 -.793662933916D-05 0.106217994854D-04 0.000000000000D+00  7 -1 1 24 -11 11 -24 21 2 0.21522074D+00 0.10400567D+00 0.80376276D+06 0.80376276D+06 0.80376276D+06 0.10542383D+01  1  2  3  1  7  1       -1 -.435498969633D-04 0.100000000000D+01
0.132064979278D-03 0.000000000000D+00 0.000000000000D+00 0.106217994854D-04 0.000000000000D+00  7 -1 1 24 -11 11 -24 21 2 0.21522074D+00 0.10400567D+00 0.80376276D+06 0.80376276D+06 0.80376276D+06 0.10542383D+01  1  2 15  1  7  1       -1 0.504985422873D-04 0.100000000000D+01
-.489552602937D-03 0.000000000000D+00 0.000000000000D+00 0.106217994854D-04 0.000000000000D+00  7 -1 1 24 -11 11 -24 21 2 0.21522074D+00 0.10400567D+00 0.80376276D+06 0.80376276D+06 0.80376276D+06 0.10542383D+01  1  2  4  1  7  1       -1 -.187193402493D-03 0.100000000000D+01
  </mgrwgt>
  </event>
  <event>
  8     66 0.29788925E-05 0.30628866E+03 0.75467711E-02 0.94296750E-01
       -1 -1    0    0    0  501 0.00000000E+00 0.00000000E+00 0.11594546E+03 0.11594591E+03 0.32000000E+00 0.0000E+00 0.9000E+01
        1 -1    0    0  501    0 0.00000000E+00 0.00000000E+00 -.18605571E+04 0.18605571E+04 0.32000000E+00 0.0000E+00 0.9000E+01
       25  2    1    2    0    0 -.23254429E+03 -.31487069E+03 -.12201315E+04 0.13161464E+04 0.30049982E+03 0.0000E+00 0.0000E+00
       23  2    1    2    0    0 0.23254429E+03 0.31487069E+03 -.52448011E+03 0.66035658E+03 0.88153448E+02 0.0000E+00 0.0000E+00
       24  1    3    3    0    0 -.17202696E+03 -.24744007E+03 -.52602231E+03 0.61154440E+03 0.80419002E+02 0.0000E+00 0.9000E+01
      -13  1    4    4    0    0 0.22486529E+03 0.31237364E+03 -.52635439E+03 0.65206644E+03 0.10565837E+00 0.0000E+00 0.9000E+01
       13  1    4    4    0    0 0.76790010E+01 0.24970568E+01 0.18742819E+01 0.82901414E+01 0.10565837E+00 0.0000E+00 0.9000E+01
      -24  1    3    3    0    0 -.60517323E+02 -.67430623E+02 -.69410920E+03 0.70460204E+03 0.80419002E+02 0.0000E+00 0.9000E+01
#aMCatNLO 1  0  0  2  1 0.18001549D+03 0.00000000D+00  -5  7  0 0.00000000D+00 0.00000000D+00 0.00000000D+00 0.00000000D+00 0.00000000D+00
  <mgrwgt>
 0.1396101328D-02    9    2    0
 0.464460569294085D+03 0.000000000000000D+00 0.000000000000000D+00 0.464460569294085D+03
 0.464460569294085D+03 0.000000000000000D+00 0.000000000000000D+00 -.464460569294085D+03
 0.313282478041135D+03 -.172026964920799D+03 -.247440070168809D+03 0.293058033197621D+02
 0.398879721382611D+03 0.224865598955533D+03 0.312374081977924D+03 0.104703999183833D+03
 0.211588246689790D+02 0.767868895608398D+01 0.249661169105182D+01 0.195576206976312D+02
 0.195600114495445D+03 -.605173229908176D+02 -.674306235001668D+02 -.153567423201226D+03
 0.000000000000000D+00 -.000000000000000D+00 0.000000000000000D+00 -.000000000000000D+00
 0.537383642688761D+03 0.000000000000000D+00 0.000000000000000D+00 0.537383642688761D+03
 0.599130138129156D+03 0.000000000000000D+00 0.000000000000000D+00 -.599130138129156D+03
 0.357806222896194D+03 -.156773850502032D+03 -.310034202757406D+03 0.293058033197621D+02
 0.357803657937773D+03 0.242064187081712D+03 0.241796318253675D+03 0.104703999183833D+03
 0.214347081897013D+02 0.864679351407394D+01 -.147619434703105D+01 0.195576206976312D+02
 0.209158379345962D+03 -.513176037735102D+02 -.105183467192041D+03 -.153567423201226D+03
 0.190310812448287D+03 -.426195263202441D+02 0.174897546042803D+03 -.617464954403951D+02
0.881228260813D-04 0.000000000000D+00 0.000000000000D+00 0.552375056329D-06 0.000000000000D+00  7 -1 1 24 -13 13 -24 21 0 0.17837800D-01 0.28623959D+00 0.17057803D+06 0.17057803D+06 0.17057803D+06 0.11031727D+01  1  2  2  2  7  2        1 0.964014292680D-03 0.100000000000D+01
-.481366742193D-05 0.000000000000D+00 -.338414855425D-06 0.552375056329D-06 0.000000000000D+00  7 -1 1 24 -13 13 -24 21 2 0.17837800D-01 0.28623959D+00 0.17057803D+06 0.17057803D+06 0.17057803D+06 0.11031727D+01  1  2  3  2  7  2        1 -.640852651123D-04 0.100000000000D+01
0.559517735722D-05 0.000000000000D+00 0.000000000000D+00 0.552375056329D-06 0.000000000000D+00  7 -1 1 24 -13 13 -24 21 2 0.17837800D-01 0.28623959D+00 0.17057803D+06 0.17057803D+06 0.17057803D+06 0.11031727D+01  1  2 15  2  7  2        1 0.744896547389D-04 0.100000000000D+01
0.384313743947D-04 0.000000000000D+00 0.000000000000D+00 0.552375056329D-06 0.000000000000D+00  7 -1 1 24 -13 13 -24 21 2 0.17837800D-01 0.38645717D+00 0.26498482D+06 0.26498482D+06 0.26498482D+06 0.10885623D+01  1  2 12  2  7  2        1 0.178434668590D-03 0.100000000000D+01
-.486424376803D-04 0.000000000000D+00 0.000000000000D+00 0.552375056329D-06 0.000000000000D+00  7 -1 1 24 -13 13 -24 21 2 0.17837800D-01 0.28623959D+00 0.17057803D+06 0.17057803D+06 0.17057803D+06 0.11031727D+01  1  2  4  2  7  2        1 -.647585975767D-03 0.100000000000D+01
-.914362274390D-04 0.000000000000D+00 -.337216482669D-04 0.552375056329D-06 0.000000000000D+00  7 -1 1 24 -13 13 -24 21 2 0.17837800D-01 0.39188661D+00 0.17057803D+06 0.17057803D+06 0.17057803D+06 0.11031727D+01  1  2  5  2  7  2        1 -.421326336358D-03 0.100000000000D+01
0.987166404205D-04 0.000000000000D+00 0.321234993464D-04 0.552375056329D-06 0.000000000000D+00  7 -1 1 24 -13 13 -24 21 2 0.17837800D-01 0.28623959D+00 0.17057803D+06 0.17057803D+06 0.17057803D+06 0.11031727D+01  1  2  6  2  7  2        1 0.131423331066D-02 0.100000000000D+01
0.148626104615D-05 0.000000000000D+00 0.000000000000D+00 0.552375056329D-06 0.000000000000D+00  7 -1 21 24 -13 13 -24 -1 2 0.17837800D-01 0.38645717D+00 0.26498482D+06 0.26498482D+06 0.26498482D+06 0.10885623D+01  1  2 12  4  7  2        1 0.233307198589D-05 0.100000000000D+01
-.284234253798D-05 0.000000000000D+00 -.134757940537D-05 0.552375056329D-06 0.000000000000D+00  7 -1 21 24 -13 13 -24 -1 2 0.17837800D-01 0.39188661D+00 0.17057803D+06 0.17057803D+06 0.17057803D+06 0.11031727D+01  1  2  5  4  7  2        1 -.440609382849D-05 0.100000000000D+01
  </mgrwgt>
  </event>
  <event>
  8     66 0.29788925E-05 0.17300385E+03 0.75467711E-02 0.10311633E+00
       -1 -1    0    0    0  501 0.00000000E+00 0.00000000E+00 0.27128706E+03 0.27128725E+03 0.32000000E+00 0.0000E+00 0.9000E+01
        1 -1    0    0  501    0 0.00000000E+00 0.00000000E+00 -.22908183E+03 0.22908205E+03 0.32000000E+00 0.0000E+00 0.9000E+01
       25  2    1    2    0    0 0.65408084E+02 0.62460147E+02 0.13644137E+03 0.34100572E+03 0.29914740E+03 0.0000E+00 0.0000E+00
       23  2    1    2    0    0 -.65408084E+02 -.62460147E+02 -.94236141E+02 0.15936358E+03 0.91306153E+02 0.0000E+00 0.0000E+00
       24  1    3    3    0    0 -.38350297E+02 0.14086538E+02 -.53672641E+02 0.10496258E+03 0.80419002E+02 0.0000E+00 0.9000E+01
      -13  1    4    4    0    0 -.73673123E+02 -.72182674E+02 -.10147664E+03 0.14469135E+03 0.10565837E+00 0.0000E+00 0.9000E+01
       13  1    4    4    0    0 0.82650386E+01 0.97225271E+01 0.72404984E+01 0.14672232E+02 0.10565837E+00 0.0000E+00 0.9000E+01
      -24  1    3    3    0    0 0.10375838E+03 0.48373609E+02 0.19011401E+03 0.23604313E+03 0.80419002E+02 0.0000E+00 0.9000E+01
#aMCatNLO 1  0  0  1  1 0.13751733D+03 0.00000000D+00  -5  7  0 0.00000000D+00 0.00000000D+00 0.00000000D+00 0.00000000D+00 0.00000000D+00
  <mgrwgt>
 0.4031587042D-03    4    2    0
 0.249293078189741D+03 0.000000000000000D+00 0.000000000000000D+00 0.249293078189741D+03
 0.249293078189741D+03 0.000000000000000D+00 0.000000000000000D+00 -.249293078189741D+03
 0.109881351408131D+03 -.383502965607362D+02 0.140865385812745D+02 -.627496583051133D+02
 0.153798992839774D+03 -.736732331182524D+02 -.721827834504345D+02 -.114087820093909D+03
 0.141116075946690D+02 0.826514631302670D+01 0.972263455313607D+01 0.602454999782922D+01
 0.220794204536908D+03 0.103758383365962D+03 0.483736103160239D+02 0.170812928401193D+03
 0.000000000000000D+00 -.000000000000000D+00 -.000000000000000D+00 -.000000000000000D+00
 0.319505063633939D+03 0.000000000000000D+00 0.000000000000000D+00 0.319505063633939D+03
 0.336228639544446D+03 0.000000000000000D+00 0.000000000000000D+00 -.336228639544446D+03
 0.112912015347921D+03 -.253039764785911D+02 0.412807026650587D+02 -.627496583051133D+02
 0.132802157572640D+03 -.568904608183684D+02 -.372002396503292D+02 -.114087820093909D+03
 0.180423856492905D+02 0.101480178450106D+02 0.136473517965473D+02 0.602454999782922D+01
 0.253446662446795D+03 0.131528950491858D+03 0.106259462753058D+03 0.170812928401193D+03
 0.138530482161739D+03 -.594825310399091D+02 -.123987277564335D+03 -.167235759105072D+02
0.730561936260D-05 0.000000000000D+00 0.000000000000D+00 0.371522444348D-06 0.000000000000D+00  7 -1 1 24 -13 13 -24 21 0 0.41736502D-01 0.35243390D-01 0.29930333D+05 0.29930333D+05 0.29930333D+05 0.11674296D+01  1  2  2  1  7  1       -1 0.620269140896D-03 0.100000000000D+01
-.340010747094D-06 0.000000000000D+00 -.280555019661D-07 0.371522444348D-06 0.000000000000D+00  7 -1 1 24 -13 13 -24 21 2 0.41736502D-01 0.35243390D-01 0.29930333D+05 0.29930333D+05 0.29930333D+05 0.11674296D+01  1  2  3  1  7  1       -1 -.393438801591D-04 0.100000000000D+01
0.449216546162D-06 0.000000000000D+00 0.000000000000D+00 0.371522444348D-06 0.000000000000D+00  7 -1 1 24 -13 13 -24 21 2 0.41736502D-01 0.35243390D-01 0.29930333D+05 0.29930333D+05 0.29930333D+05 0.11674296D+01  1  2 15  1  7  1       -1 0.519804803488D-04 0.100000000000D+01
-.198547935127D-05 0.000000000000D+00 0.000000000000D+00 0.371522444348D-06 0.000000000000D+00  7 -1 1 24 -13 13 -24 21 2 0.41736502D-01 0.35243390D-01 0.29930333D+05 0.29930333D+05 0.29930333D+05 0.11674296D+01  1  2  4  1  7  1       -1 -.229747036887D-03 0.100000000000D+01
  </mgrwgt>
  </event>
  <event>
  8     66 0.29788925E-05 0.30001451E+03 0.75467711E-02 0.99450843E-01
       -1 -1    0    0    0  501 0.00000000E+00 0.00000000E+00 0.77629698E+03 0.77629705E+03 0.32000000E+00 0.0000E+00 0.9000E+01
        1 -1    0    0  501    0 0.00000000E+00 0.00000000E+00 -.35793122E+03 0.35793137E+03 0.32000000E+00 0.0000E+00 0.9000E+01
       25  2    1    2    0    0 -.21027053E+03 0.14295893E+03 -.21290110E+03 0.44778337E+03 0.30088555E+03 0.0000E+00 0.0000E+00
       23  2    1    2    0    0 0.21027053E+03 -.14295893E+03 0.63126686E+03 0.68644505E+03 0.89766394E+02 0.0000E+00 0.0000E+00
       24  1    3    3    0    0 -.82073237E+02 -.13139848E+02 0.32296105E+02 0.12007883E+03 0.80419002E+02 0.0000E+00 0.9000E+01
      -11  1    4    4    0    0 0.13014413E+03 -.13323023E+03 0.39347612E+03 0.43532889E+03 0.51099893E-03 0.0000E+00 0.9000E+01
       11  1    4    4    0    0 0.80126397E+02 -.97287022E+01 0.23779075E+03 0.25111616E+03 0.51099893E-03 0.0000E+00 0.9000E+01
      -24  1    3    3    0    0 -.12819729E+03 0.15609878E+03 -.24519721E+03 0.32770453E+03 0.80419002E+02 0.0000E+00 0.9000E+01
#aMCatNLO 1  0  0  1  1 0.62094751D+02 0.00000000D+00  -5  7  0 0.00000000D+00 0.00000000D+00 0.00000000D+00 0.00000000D+00 0.00000000D+00
  <mgrwgt>
 0.6822932041D-03    4    2    0
 0.527125267322563D+03 0.000000000000000D+00 0.000000000000000D+00 0.527125267322563D+03
 0.527125267322563D+03 0.000000000000000D+00 0.000000000000000D+00 -.527125267322563D+03
 0.116371997146088D+03 -.820732368992513D+02 -.131398483854300D+02 -.129055776579733D+02
 0.312208010775454D+03 0.130144130623452D+03 -.133230228934718D+03 0.250571453590856D+03
 0.175802214915485D+03 0.801263969420925D+02 -.972870223080385D+01 0.156177884590530D+03
 0.449868311808099D+03 -.128197290666294D+03 0.156098779550952D+03 -.393843760523413D+03
 0.000000000000000D+00 0.000000000000000D+00 -.000000000000000D+00 -.000000000000000D+00
 0.535422325268122D+03 0.000000000000000D+00 0.000000000000000D+00 0.535422325268122D+03
 0.658591772548642D+03 0.000000000000000D+00 0.000000000000000D+00 -.658591772548642D+03
 0.116891373741437D+03 -.835957904908700D+02 -.644726130308567D+01 -.129055776579733D+02
 0.303396993277133D+03 0.126125961776914D+03 -.115567832638750D+03 0.250571453590856D+03
 0.174501247590189D+03 0.778399008112805D+02 0.321896022774483D+00 0.156177884590530D+03
 0.461288009371001D+03 -.134144578163936D+03 0.182240873793687D+03 -.393843760523413D+03
 0.137936473837004D+03 0.137745060666114D+02 -.605476758746252D+02 -.123169447280520D+03
0.126125944416D-03 0.000000000000D+00 0.000000000000D+00 0.962376246262D-06 0.000000000000D+00  7 -1 1 24 -11 11 -24 21 0 0.11943032D+00 0.55066358D-01 0.90008704D+05 0.90008704D+05 0.90008704D+05 0.11254929D+01  1  2  2  1  7  1       -1 0.740951924752D-03 0.100000000000D+01
-.430075393863D-05 0.000000000000D+00 -.484356836283D-06 0.962376246262D-06 0.000000000000D+00  7 -1 1 24 -11 11 -24 21 2 0.11943032D+00 0.55066358D-01 0.90008704D+05 0.90008704D+05 0.90008704D+05 0.11254929D+01  1  2  3  1  7  1       -1 -.320048464760D-04 0.100000000000D+01
0.774906852200D-05 0.000000000000D+00 0.000000000000D+00 0.962376246262D-06 0.000000000000D+00  7 -1 1 24 -11 11 -24 21 2 0.11943032D+00 0.55066358D-01 0.90008704D+05 0.90008704D+05 0.90008704D+05 0.11254929D+01  1  2 15  1  7  1       -1 0.576661096909D-04 0.100000000000D+01
-.113307683834D-04 0.000000000000D+00 0.000000000000D+00 0.962376246262D-06 0.000000000000D+00  7 -1 1 24 -11 11 -24 21 2 0.11943032D+00 0.55066358D-01 0.90008704D+05 0.90008704D+05 0.90008704D+05 0.11254929D+01  1  2  4  1  7  1       -1 -.843199838310D-04 0.100000000000D+01
  </mgrwgt>
  </event>
  <event>
  8     66 0.29788925E-05 0.10247318E+03 0.75467711E-02 0.10553441E+00
       -1 -1    0    0    0  501 0.00000000E+00 0.00000000E+00 0.79413669E+03 0.79413676E+03 0.32000000E+00 0.0000E+00 0.9000E+01
        1 -1    0    0  501    0 0.00000000E+00 0.00000000E+00 -.30935455E+03 0.30935471E+03 0.32000000E+00 0.0000E+00 0.9000E+01
       25  2    1    2    0    0 -.21244147E+02 -.13271366E+03 -.20976492E+03 0.39018081E+03 0.30029238E+03 0.0000E+00 0.0000E+00
       23  2    1    2    0    0 0.21244147E+02 0.13271366E+03 0.69454706E+03 0.71331066E+03 0.91390626E+02 0.0000E+00 0.0000E+00
       24  1    3    3    0    0 -.33238630E+01 -.13360792E+03 -.25293348E+03 0.29716104E+03 0.80419002E+02 0.0000E+00 0.9000E+01
      -11  1    4    4    0    0 -.33135735E+02 0.65141373E+02 0.25395741E+03 0.26426453E+03 0.51099893E-03 0.0000E+00 0.9000E+01
       11  1    4    4    0    0 0.54379883E+02 0.67572286E+02 0.44058966E+03 0.44904613E+03 0.51099893E-03 0.0000E+00 0.9000E+01
      -24  1    3    3    0    0 -.17920284E+02 0.89426251E+00 0.43168560E+02 0.93019766E+02 0.80419002E+02 0.0000E+00 0.9000E+01
#aMCatNLO 1  0  0  1  2 0.24749564D+02 0.00000000D+00  -5  7  0 0.00000000D+00 0.00000000D+00 0.00000000D+00 0.00000000D+00 0.00000000D+00
  <mgrwgt>
 0.7350111156D-03    9    2    0
 0.495651009891831D+03 0.000000000000000D+00 0.000000000000000D+00 0.495651009891831D+03
 0.495651009891831D+03 0.000000000000000D+00 0.000000000000000D+00 -.495651009891831D+03
 0.454485414785087D+03 -.332386304260392D+01 -.133607922129307D+03 -.426881308300990D+03
 0.169978100437033D+03 -.331357350647586D+02 0.651413731251654D+02 0.153463934516447D+03
 0.284402305241613D+03 0.543798825074200D+02 0.675722864937494D+02 0.270853254924561D+03
 0.824361993199292D+02 -.179202844000574D+02 0.894262510392025D+00 0.256411885998170D+01
 0.000000000000000D+00 0.000000000000000D+00 -.000000000000000D+00 0.000000000000000D+00
 0.513886138778151D+03 0.000000000000000D+00 0.000000000000000D+00 0.513886138778151D+03
 0.504275017846243D+03 0.000000000000000D+00 0.000000000000000D+00 -.504275017846243D+03
 0.451296772967188D+03 -.374918825980431D+01 -.122310480118651D+03 -.426881308300990D+03
 0.171687408093856D+03 -.332961698343873D+02 0.694028239704814D+02 0.153463934516447D+03
 0.286125717100747D+03 0.541119815061607D+02 0.746882436576475D+02 0.270853254924561D+03
 0.825010312587045D+02 -.179977334428504D+02 0.295145553434001D+01 0.256411885998170D+01
 0.265502272038986D+02 0.931110030881270D+00 -.247320430438181D+02 0.961112093190784D+01
0.447135109592D-04 0.000000000000D+00 0.000000000000D+00 0.534854980506D-05 0.000000000000D+00  7 -1 1 24 -11 11 -24 21 0 0.12217489D+00 0.47593025D-01 0.39640010D+05 0.39640010D+05 0.39640010D+05 0.11562719D+01  1  2  2  1  7  1       -1 0.310348366070D-03 0.100000000000D+01
0.284320111858D-07 0.000000000000D+00 -.171711655421D-06 0.534854980506D-05 0.000000000000D+00  7 -1 1 24 -11 11 -24 21 2 0.12217489D+00 0.47593025D-01 0.39640010D+05 0.39640010D+05 0.39640010D+05 0.11562719D+01  1  2  3  1  7  1       -1 0.263838550254D-06 0.100000000000D+01
0.274123410749D-05 0.000000000000D+00 0.000000000000D+00 0.534854980506D-05 0.000000000000D+00  7 -1 1 24 -11 11 -24 21 2 0.12217489D+00 0.47593025D-01 0.39640010D+05 0.39640010D+05 0.39640010D+05 0.11562719D+01  1  2 15  1  7  1       -1 0.254376388678D-04 0.100000000000D+01
0.109104451152D-03 0.000000000000D+00 0.000000000000D+00 0.534854980506D-05 0.000000000000D+00  7 -1 1 24 -11 11 -24 21 2 0.12770343D+00 0.47593025D-01 0.44699585D+05 0.44699585D+05 0.44699585D+05 0.11516008D+01  1  2 12  1  7  1       -1 0.896705871116D-03 0.100000000000D+01
-.102640962268D-03 0.000000000000D+00 0.000000000000D+00 0.534854980506D-05 0.000000000000D+00  7 -1 1 24 -11 11 -24 21 2 0.12217489D+00 0.47593025D-01 0.39640010D+05 0.39640010D+05 0.39640010D+05 0.11562719D+01  1  2  4  1  7  1       -1 -.952470175413D-03 0.100000000000D+01
-.564432401503D-03 0.000000000000D+00 -.110790079760D-03 0.534854980506D-05 0.000000000000D+00  7 -1 1 24 -11 11 -24 21 2 0.12820474D+00 0.47593025D-01 0.39640010D+05 0.39640010D+05 0.39640010D+05 0.11562719D+01  1  2  5  1  7  1       -1 -.465254572161D-02 0.100000000000D+01
0.569237468332D-03 0.000000000000D+00 0.110661641695D-03 0.534854980506D-05 0.000000000000D+00  7 -1 1 24 -11 11 -24 21 2 0.12217489D+00 0.47593025D-01 0.39640010D+05 0.39640010D+05 0.39640010D+05 0.11562719D+01  1  2  6  1  7  1       -1 0.528231321428D-02 0.100000000000D+01
0.157208811846D-05 0.000000000000D+00 0.000000000000D+00 0.534854980506D-05 0.000000000000D+00  7 21 1 24 -11 11 -24 1 2 0.12770343D+00 0.47593025D-01 0.44699585D+05 0.44699585D+05 0.44699585D+05 0.11516008D+01  1  2 12  3  7  1       -1 0.883614445849D-04 0.100000000000D+01
-.465876401411D-05 0.000000000000D+00 -.932255835094D-06 0.534854980506D-05 0.000000000000D+00  7 21 1 24 -11 11 -24 1 2 0.12820474D+00 0.47593025D-01 0.39640010D+05 0.39640010D+05 0.39640010D+05 0.11562719D+01  1  2  5  3  7  1       -1 -.263403360810D-03 0.100000000000D+01
  </mgrwgt>
  </event>
  <event>
  8     66 0.29788925E-05 0.17523369E+03 0.75467711E-02 0.10503388E+00
       -1 -1    0    0    0  501 0.00000000E+00 0.00000000E+00 0.55228329E+02 0.55229256E+02 0.32000000E+00 0.0000E+00 0.9000E+01
        1 -1    0    0  501    0 0.00000000E+00 0.00000000E+00 -.90513709E+03 0.90513714E+03 0.32000000E+00 0.0000E+00 0.9000E+01
       25  2    1    2    0    0 -.38790868E+01 0.67621810E+02 -.44060667E+03 0.53762710E+03 0.30053437E+03 0.0000E+00 0.0000E+00
       23  2    1    2    0    0 0.38790868E+01 -.67621810E+02 -.40930209E+03 0.42273930E+03 0.81194575E+02 0.0000E+00 0.0000E+00
       24  1    3    3    0    0 -.60827714E+02 0.10749125E+03 -.39565221E+03 0.42221117E+03 0.80419002E+02 0.0000E+00 0.9000E+01
      -13  1    4    4    0    0 0.36265099E+02 -.41983666E+02 -.31411143E+03 0.31897302E+03 0.10565837E+00 0.0000E+00 0.9000E+01
       13  1    4    4    0    0 -.32386012E+02 -.25638144E+02 -.95190660E+02 0.10376628E+03 0.10565837E+00 0.0000E+00 0.9000E+01
      -24  1    3    3    0    0 0.56948627E+02 -.39869439E+02 -.44954454E+02 0.11541593E+03 0.80419002E+02 0.0000E+00 0.9000E+01
#aMCatNLO 1  0  0  2  1 0.84740477D+02 0.00000000D+00  -5  7  0 0.00000000D+00 0.00000000D+00 0.00000000D+00 0.00000000D+00 0.00000000D+00
  <mgrwgt>
 0.1859499238D-02    4    2    0
 0.223583723376132D+03 0.000000000000000D+00 0.000000000000000D+00 0.223583723376132D+03
 0.223583723376132D+03 0.000000000000000D+00 0.000000000000000D+00 -.223583723376132D+03
 0.154772299828220D+03 -.608277087726946D+02 0.107491250615029D+03 -.472532509614627D+02
 0.880318004898720D+02 0.362652107236237D+02 -.419837055446475D+02 -.683505732046201D+02
 0.419311370220774D+02 -.323861229527346D+02 -.256381209547773D+02 -.721429455752912D+01
 0.162432209412096D+03 0.569486210018056D+02 -.398694241156044D+02 0.122818118723612D+03
 0.000000000000000D+00 -.000000000000000D+00 -.000000000000000D+00 0.000000000000000D+00
 0.338535188427450D+03 0.000000000000000D+00 0.000000000000000D+00 0.338535188427450D+03
 0.243740359239991D+03 0.000000000000000D+00 0.000000000000000D+00 -.243740359239991D+03
 0.176758333531088D+03 -.579822185252655D+02 0.138497238697304D+03 -.472532509614627D+02
 0.823037946906995D+02 0.377271820351889D+02 -.260532819194130D+02 -.683505732046201D+02
 0.372783133605136D+02 -.317062771228514D+02 -.182301561170169D+02 -.721429455752912D+01
 0.158785556176745D+03 0.597055970616722D+02 -.982793410080818D+01 0.122818118723612D+03
 0.127149549908395D+03 -.774428344874415D+01 -.843858665600663D+02 0.947948291874591D+02
0.132348686290D-04 0.000000000000D+00 0.000000000000D+00 0.353985610089D-08 0.000000000000D+00  7 -1 1 24 -13 13 -24 21 0 0.84967417D-02 0.13925194D+00 0.30706846D+05 0.30706846D+05 0.30706846D+05 0.11663987D+01  1  2  2  2  7  2        1 0.211744821331D-02 0.100000000000D+01
-.682192215471D-06 0.000000000000D+00 -.508253803562D-07 0.353985610089D-08 0.000000000000D+00  7 -1 1 24 -13 13 -24 21 2 0.84967417D-02 0.13925194D+00 0.30706846D+05 0.30706846D+05 0.30706846D+05 0.11663987D+01  1  2  3  2  7  2        1 -.148488893045D-03 0.100000000000D+01
0.869924889418D-06 0.000000000000D+00 0.000000000000D+00 0.353985610089D-08 0.000000000000D+00  7 -1 1 24 -13 13 -24 21 2 0.84967417D-02 0.13925194D+00 0.30706846D+05 0.30706846D+05 0.30706846D+05 0.11663987D+01  1  2 15  2  7  2        1 0.189351594656D-03 0.100000000000D+01
-.137280974689D-05 0.000000000000D+00 0.000000000000D+00 0.353985610089D-08 0.000000000000D+00  7 -1 1 24 -13 13 -24 21 2 0.84967417D-02 0.13925194D+00 0.30706846D+05 0.30706846D+05 0.30706846D+05 0.11663987D+01  1  2  4  2  7  2        1 -.298811676612D-03 0.100000000000D+01
  </mgrwgt>
  </event>
  <event>
  8     66 0.29788925E-05 0.16234187E+03 0.75467711E-02 0.10202265E+00
       -1 -1    0    0    0  501 0.00000000E+00 0.00000000E+00 0.63187490E+03 0.63187498E+03 0.32000000E+00 0.0000E+00 0.9000E+01
        1 -1    0    0  501    0 0.00000000E+00 0.00000000E+00 -.12606463E+03 0.12606504E+03 0.32000000E+00 0.0000E+00 0.9000E+01
       25  2    1    2    0    0 -.99659971E+02 -.13955043E+02 0.53213269E+03 0.61925415E+03 0.30030593E+03 0.0000E+00 0.0000E+00
       23  2    1    2    0    0 0.99659971E+02 0.13955043E+02 -.26322427E+02 0.13868586E+03 0.91728103E+02 0.0000E+00 0.0000E+00
       24  1    3    3    0    0 -.56706487E+02 0.81994995E+01 0.22785190E+02 0.10133725E+03 0.80419002E+02 0.0000E+00 0.9000E+01
      -11  1    4    4    0    0 0.21243175E+02 -.34078935E+02 0.72177142E+01 0.40801246E+02 0.51099893E-03 0.0000E+00 0.9000E+01
       11  1    4    4    0    0 0.78416796E+02 0.48033977E+02 -.33540141E+02 0.97884616E+02 0.51099893E-03 0.0000E+00 0.9000E+01
      -24  1    3    3    0    0 -.42953484E+02 -.22154542E+02 0.50934750E+03 0.51791690E+03 0.80419002E+02 0.0000E+00 0.9000E+01
#aMCatNLO 1  0  0  2  2 0.17531870D+03 0.00000000D+00  -5  7  0 0.00000000D+00 0.00000000D+00 0.00000000D+00 0.00000000D+00 0.00000000D+00
  <mgrwgt>
 0.5754593108D-03    4    2    0
 0.282236178887597D+03 0.000000000000000D+00 0.000000000000000D+00 0.282236178887597D+03
 0.282236178887597D+03 0.000000000000000D+00 0.000000000000000D+00 -.282236178887597D+03
 0.115652384329655D+03 -.567064874866702D+02 0.819949945698584D+01 -.602112990421456D+02
 0.483178716401570D+02 0.212431749739904D+02 -.340789345386734D+02 -.268695079517272D+02
 0.161488181906770D+03 0.784167962527184D+02 0.480339773198236D+02 -.132747790881251D+03
 0.239013919898613D+03 -.429534837400387D+02 -.221545422381361D+02 0.219828597875124D+03
 0.000000000000000D+00 0.000000000000000D+00 -.000000000000000D+00 0.000000000000000D+00
 0.444992010474636D+03 0.000000000000000D+00 0.000000000000000D+00 0.444992010474636D+03
 0.346949967382940D+03 0.000000000000000D+00 0.000000000000000D+00 -.346949967382940D+03
 0.128712822049161D+03 -.676031338512492D+02 0.436370297641319D+02 -.602112990421456D+02
 0.385385016493724D+02 0.173701064702089D+02 -.214831341527338D+02 -.268695079517272D+02
 0.176199547769873D+03 0.633587451231329D+02 0.970050208333441D+02 -.132747790881251D+03
 0.247620774527879D+03 -.646533249428006D+02 0.484165999788705D+02 0.219828597875124D+03
 0.200870331861291D+03 0.515276072007080D+02 -.167575516423613D+03 0.980420430916968D+02
0.186017050495D-04 0.000000000000D+00 0.000000000000D+00 0.144916811707D-05 0.000000000000D+00  7 -1 1 24 -11 11 -24 21 0 0.97211560D-01 0.19394596D-01 0.26354884D+05 0.26354884D+05 0.26354884D+05 0.11725921D+01  1  2  2  2  7  2        1 0.691668739479D-03 0.100000000000D+01
-.649124411534D-06 0.000000000000D+00 -.714354453314D-07 0.144916811707D-05 0.000000000000D+00  7 -1 1 24 -11 11 -24 21 2 0.97211560D-01 0.19394596D-01 0.26354884D+05 0.26354884D+05 0.26354884D+05 0.11725921D+01  1  2  3  2  7  2        1 -.331869433460D-04 0.100000000000D+01
0.114058045560D-05 0.000000000000D+00 0.000000000000D+00 0.144916811707D-05 0.000000000000D+00  7 -1 1 24 -11 11 -24 21 2 0.97211560D-01 0.19394596D-01 0.26354884D+05 0.26354884D+05 0.26354884D+05 0.11725921D+01  1  2 15  2  7  2        1 0.583129802069D-04 0.100000000000D+01
-.276446974798D-05 0.000000000000D+00 0.000000000000D+00 0.144916811707D-05 0.000000000000D+00  7 -1 1 24 -11 11 -24 21 2 0.97211560D-01 0.19394596D-01 0.26354884D+05 0.26354884D+05 0.26354884D+05 0.11725921D+01  1  2  4  2  7  2        1 -.141335465556D-03 0.100000000000D+01
  </mgrwgt>
  </event>
  <event>
  8     66 0.29788925E-05 0.18870424E+03 0.75467711E-02 0.96086300E-01
       -1 -1    0    0    0  501 0.00000000E+00 0.00000000E+00 0.13935109E+03 0.13935145E+03 0.32000000E+00 0.0000E+00 0.9000E+01
        1 -1    0    0  501    0 0.00000000E+00 0.00000000E+00 -.15174481E+04 0.15174481E+04 0.32000000E+00 0.0000E+00 0.9000E+01
       25  2    1    2    0    0 -.31917145E+03 -.21552449E+03 -.52685008E+03 0.71792687E+03 0.29921023E+03 0.0000E+00 0.0000E+00
       23  2    1    2    0    0 0.31917145E+03 0.21552449E+03 -.85124689E+03 0.93887267E+03 0.92408931E+02 0.0000E+00 0.0000E+00
       24  1    3    3    0    0 -.29601934E+03 -.11272331E+03 -.47284721E+03 0.57479187E+03 0.80419002E+02 0.0000E+00 0.9000E+01
      -13  1    4    4    0    0 0.30689189E+03 0.18340953E+03 -.80844533E+03 0.88397146E+03 0.10565837E+00 0.0000E+00 0.9000E+01
       13  1    4    4    0    0 0.12279562E+02 0.32114957E+02 -.42801559E+02 0.54901209E+02 0.10565837E+00 0.0000E+00 0.9000E+01
      -24  1    3    3    0    0 -.23152114E+02 -.10280118E+03 -.54002874E+02 0.14313500E+03 0.80419002E+02 0.0000E+00 0.9000E+01
#aMCatNLO 1  0  0  2  1 0.28471860D+02 0.00000000D+00  -5  7  0 0.00000000D+00 0.00000000D+00 0.00000000D+00 0.00000000D+00 0.00000000D+00
  <mgrwgt>
 0.9941728861D-03    9    2    0
 0.459846027319328D+03 0.000000000000000D+00 0.000000000000000D+00 0.459846027319328D+03
 0.459846027319328D+03 0.000000000000000D+00 0.000000000000000D+00 -.459846027319328D+03
 0.326941610943366D+03 -.296019340543046D+03 -.112723307583274D+03 0.946609548965900D+01
 0.381049153936175D+03 0.306892277672221D+03 0.183409728487649D+03 -.131819797893633D+03
 0.347672700056180D+02 0.122791767604738D+02 0.321147586567054D+02 0.516015098133267D+01
 0.176934019753497D+03 -.231521138896487D+02 -.102801179561081D+03 0.117193551422641D+03
 0.000000000000000D+00 -.000000000000000D+00 0.000000000000000D+00 -.000000000000000D+00
 0.466465823376476D+03 0.000000000000000D+00 0.000000000000000D+00 0.466465823376476D+03
 0.491734743439685D+03 0.000000000000000D+00 0.000000000000000D+00 -.491734743439685D+03
 0.321328963912818D+03 -.287616567221912D+03 -.118204020196348D+03 0.946609548965900D+01
 0.386087419581016D+03 0.316835771922359D+03 0.176924079967571D+03 -.131819797893633D+03
 0.345591744407395D+02 0.131777743838075D+02 0.315286479596696D+02 0.516015098133267D+01
 0.178157107583582D+03 -.185494828786372D+02 -.105803247672562D+03 0.117193551422641D+03
 0.380679012980060D+02 -.238474962056172D+02 0.155545399416682D+02 -.252689200632090D+02
0.323587159523D-04 0.000000000000D+00 0.000000000000D+00 0.861659658779D-06 0.000000000000D+00  7 -1 1 24 -13 13 -24 21 0 0.21438660D-01 0.23345358D+00 0.18116329D+06 0.18116329D+06 0.18116329D+06 0.11011401D+01  1  2  2  2  7  2        1 0.442843080267D-03 0.100000000000D+01
-.178464099722D-05 0.000000000000D+00 -.124265989502D-06 0.861659658779D-06 0.000000000000D+00  7 -1 1 24 -13 13 -24 21 2 0.21438660D-01 0.23345358D+00 0.18116329D+06 0.18116329D+06 0.18116329D+06 0.11011401D+01  1  2  3  2  7  2        1 -.296138332936D-04 0.100000000000D+01
0.209647279000D-05 0.000000000000D+00 0.000000000000D+00 0.861659658779D-06 0.000000000000D+00  7 -1 1 24 -13 13 -24 21 2 0.21438660D-01 0.23345358D+00 0.18116329D+06 0.18116329D+06 0.18116329D+06 0.11011401D+01  1  2 15  2  7  2        1 0.347882827999D-04 0.100000000000D+01
0.139028957484D-03 0.000000000000D+00 0.000000000000D+00 0.861659658779D-06 0.000000000000D+00  7 -1 1 24 -13 13 -24 21 2 0.21438660D-01 0.25124839D+00 0.19399852D+06 0.19399852D+06 0.19399852D+06 0.10988431D+01  1  2 12  2  7  2        1 0.192020177876D-02 0.100000000000D+01
-.140755103681D-03 0.000000000000D+00 0.000000000000D+00 0.861659658779D-06 0.000000000000D+00  7 -1 1 24 -13 13 -24 21 2 0.21438660D-01 0.23345358D+00 0.18116329D+06 0.18116329D+06 0.18116329D+06 0.11011401D+01  1  2  4  2  7  2        1 -.233565080154D-02 0.100000000000D+01
-.349506061804D-03 0.000000000000D+00 -.484037070529D-04 0.861659658779D-06 0.000000000000D+00  7 -1 1 24 -13 13 -24 21 2 0.21438660D-01 0.25122670D+00 0.18116329D+06 0.18116329D+06 0.18116329D+06 0.11011401D+01  1  2  5  2  7  2        1 -.485996084570D-02 0.100000000000D+01
0.352238992586D-03 0.000000000000D+00 0.482737075458D-04 0.861659658779D-06 0.000000000000D+00  7 -1 1 24 -13 13 -24 21 2 0.21438660D-01 0.23345358D+00 0.18116329D+06 0.18116329D+06 0.18116329D+06 0.11011401D+01  1  2  6  2  7  2        1 0.584495527234D-02 0.100000000000D+01
0.185581891269D-05 0.000000000000D+00 0.000000000000D+00 0.861659658779D-06 0.000000000000D+00  7 -1 21 24 -13 13 -24 -1 2 0.21438660D-01 0.25124839D+00 0.19399852D+06 0.19399852D+06 0.19399852D+06 0.10988431D+01  1  2 12  4  7  2        1 0.179417729354D-04 0.100000000000D+01
-.423246587513D-05 0.000000000000D+00 -.598486636312D-06 0.861659658779D-06 0.000000000000D+00  7 -1 21 24 -13 13 -24 -1 2 0.21438660D-01 0.25122670D+00 0.18116329D+06 0.18116329D+06 0.18116329D+06 0.11011401D+01  1  2  5  4  7  2        1 -.413318204435D-04 0.100000000000D+01
  </mgrwgt>
  </event>
  <event>
  8     66 0.29788925E-05 0.23306728E+03 0.75467711E-02 0.96162937E-01
       -1 -1    0    0    0  501 0.00000000E+00 0.00000000E+00 0.73083639E+03 0.73083646E+03 0.32000000E+00 0.0000E+00 0.9000E+01
        1 -1    0    0  501    0 0.00000000E+00 0.00000000E+00 -.92636533E+02 0.92637086E+02 0.32000000E+00 0.0000E+00 0.9000E+01
       25  2    1    2    0    0 0.63218925E+02 0.10539689E+03 0.56977204E+03 0.65565486E+03 0.30022987E+03 0.0000E+00 0.0000E+00
       23  2    1    2    0    0 -.63218925E+02 -.10539689E+03 0.68427817E+02 0.16781869E+03 0.91518357E+02 0.0000E+00 0.0000E+00
       24  1    3    3    0    0 0.16018098E+03 0.73717769E+02 0.36221729E+03 0.41080511E+03 0.80419002E+02 0.0000E+00 0.9000E+01
      -13  1    4    4    0    0 0.14977941E+02 -.31354909E+02 0.46283706E+02 0.57876261E+02 0.10565837E+00 0.0000E+00 0.9000E+01
       13  1    4    4    0    0 -.78196866E+02 -.74041982E+02 0.22144110E+02 0.10994243E+03 0.10565837E+00 0.0000E+00 0.9000E+01
      -24  1    3    3    0    0 -.96962060E+02 0.31679121E+02 0.20755476E+03 0.24484975E+03 0.80419002E+02 0.0000E+00 0.9000E+01
#aMCatNLO 1  0  0  1  1 0.31268000D+03 0.00000000D+00  -5  7  0 0.00000000D+00 0.00000000D+00 0.00000000D+00 0.00000000D+00 0.00000000D+00
  <mgrwgt>
 0.5532435284D-03    5    2    0
 0.260196860291830D+03 0.000000000000000D+00 0.000000000000000D+00 0.260196860291830D+03
 0.260196860291830D+03 0.000000000000000D+00 0.000000000000000D+00 -.260196860291830D+03
 0.205844370437646D+03 0.160180983601208D+03 0.737177701528100D+02 0.693716926616856D+02
 0.348221686036045D+02 0.149780645079087D+02 -.313548521150457D+02 0.226147268354042D+01
 0.146816514608138D+03 -.781969901933892D+02 -.740420402453873D+02 -.997902598587509D+02
 0.132910666934270D+03 -.969620579157279D+02 0.316791222076230D+02 0.281570945135249D+02
 0.000000000000000D+00 -.000000000000000D+00 0.000000000000000D+00 0.000000000000000D+00
 0.461120099737294D+03 0.000000000000000D+00 0.000000000000000D+00 0.461120099737294D+03
 0.458676043181280D+03 0.000000000000000D+00 0.000000000000000D+00 -.458676043181280D+03
 0.270868883873687D+03 0.247902893584232D+03 -.251884875771424D+02 0.693716926616856D+02
 0.606908730128706D+02 0.325538007877591D+02 -.511714555454198D+02 0.226147268354042D+01
 0.173387629884973D+03 -.192749466265630D+02 -.140476512866011D+03 -.997902598587509D+02
 0.102159200996151D+03 -.537059126170140D+02 -.170920850785248D+02 0.281570945135249D+02
 0.312689555150892D+03 -.207475835128415D+03 0.233928541067098D+03 0.244405655601378D+01
0.135822373840D-04 0.000000000000D+00 0.000000000000D+00 0.138621340765D-05 0.000000000000D+00  7 -1 1 24 -13 13 -24 21 0 0.11243642D+00 0.14251822D-01 0.54320355D+05 0.54320355D+05 0.54320355D+05 0.11441429D+01  1  2  2  1  7  1       -1 0.540315926338D-03 0.100000000000D+01
-.743445165657D-06 0.000000000000D+00 -.521593678398D-07 0.138621340765D-05 0.000000000000D+00  7 -1 1 24 -13 13 -24 21 2 0.11243642D+00 0.14251822D-01 0.54320355D+05 0.54320355D+05 0.54320355D+05 0.11441429D+01  1  2  3  1  7  1       -1 -.387155940162D-04 0.100000000000D+01
0.864426210647D-06 0.000000000000D+00 0.000000000000D+00 0.138621340765D-05 0.000000000000D+00  7 -1 1 24 -13 13 -24 21 2 0.11243642D+00 0.14251822D-01 0.54320355D+05 0.54320355D+05 0.54320355D+05 0.11441429D+01  1  2 15  1  7  1       -1 0.450157937321D-04 0.100000000000D+01
0.747899880758D-06 0.000000000000D+00 -.387193867439D-05 0.138621340765D-05 0.000000000000D+00  7 -1 1 24 -13 13 -24 21 2 0.28923386D+00 0.14251822D-01 0.54320355D+05 0.54320355D+05 0.54320355D+05 0.11441429D+01  1  2  5  1  7  1       -1 0.139515912904D-05 0.100000000000D+01
0.313245355164D-06 0.000000000000D+00 -.404600092579D-06 0.138621340765D-05 0.000000000000D+00  7 21 1 24 -13 13 -24 1 2 0.28923386D+00 0.14251822D-01 0.54320355D+05 0.54320355D+05 0.54320355D+05 0.11441429D+01  1  2  5  3  7  1       -1 0.523224320372D-05 0.100000000000D+01
  </mgrwgt>
  </event>
  <event>
  8     66 0.29788925E-05 0.17507909E+03 0.75467711E-02 0.96420200E-01
       -1 -1    0    0    0  501 0.00000000E+00 0.00000000E+00 0.11554193E+03 0.11554237E+03 0.32000000E+00 0.0000E+00 0.9000E+01
        1 -1    0    0  501    0 0.00000000E+00 0.00000000E+00 -.10342596E+04 0.10342597E+04 0.32000000E+00 0.0000E+00 0.9000E+01
       25  2    1    2    0    0 0.13066177E+03 -.20996903E+03 -.72510745E+03 0.82288079E+03 0.30032065E+03 0.0000E+00 0.0000E+00
       23  2    1    2    0    0 -.13066177E+03 0.20996903E+03 -.19361027E+03 0.32692128E+03 0.90736400E+02 0.0000E+00 0.0000E+00
       24  1    3    3    0    0 0.16436182E+03 -.74564683E+02 -.23520844E+03 0.30718875E+03 0.80419002E+02 0.0000E+00 0.9000E+01
      -13  1    4    4    0    0 0.48109363E+00 0.22979525E+02 -.55366081E+02 0.59947511E+02 0.10565837E+00 0.0000E+00 0.9000E+01
       13  1    4    4    0    0 -.13114286E+03 0.18698950E+03 -.13824419E+03 0.26697377E+03 0.10565837E+00 0.0000E+00 0.9000E+01
      -24  1    3    3    0    0 -.33700052E+02 -.13540434E+03 -.48989901E+03 0.51569204E+03 0.80419002E+02 0.0000E+00 0.9000E+01
#aMCatNLO 1  0  0  2  1 0.21425091D+03 0.00000000D+00  -5  7  0 0.00000000D+00 0.00000000D+00 0.00000000D+00 0.00000000D+00 0.00000000D+00
  <mgrwgt>
 0.5429144503D-03    7    2    0
 0.345688643906725D+03 0.000000000000000D+00 0.000000000000000D+00 0.345688643906725D+03
 0.345688643906725D+03 0.000000000000000D+00 0.000000000000000D+00 -.345688643906725D+03
 0.198323114577548D+03 0.164361822728904D+03 -.745646831756029D+02 0.170335279235617D+02
 0.261243082341915D+02 0.481272045260877D+00 0.229793025274428D+02 -.124177096634507D+02
 0.260291777468964D+03 -.131143043365954D+03 0.186989724707087D+03 0.124852530805892D+03
 0.206638087532747D+03 -.337000514082111D+02 -.135404344058927D+03 -.129468349066003D+03
 0.000000000000000D+00 0.000000000000000D+00 -.000000000000000D+00 -.000000000000000D+00
 0.385987647700787D+03 0.000000000000000D+00 0.000000000000000D+00 0.385987647700787D+03
 0.838461550655665D+03 0.000000000000000D+00 0.000000000000000D+00 -.838461550655665D+03
 0.169249970923656D+03 0.146313030211285D+03 -.219247079833873D+02 0.170335279235617D+02
 0.340376707729492D+02 -.247283727171655D+01 0.315950723086612D+02 -.124177096634507D+02
 0.340498264131585D+03 -.160643393732234D+03 0.273028594616346D+03 0.124852530805892D+03
 0.180027610887759D+03 -.526863407741913D+02 -.800301244128326D+02 -.129468349066003D+03
 0.500635681640501D+03 0.694895415668569D+02 -.202668834528787D+03 -.452473902954878D+03
0.145721881356D-04 0.000000000000D+00 0.000000000000D+00 0.199823599689D-05 0.000000000000D+00  7 -1 1 24 -13 13 -24 21 0 0.17775719D-01 0.15911691D+00 0.93030704D+05 0.93030704D+05 0.93030704D+05 0.11243057D+01  1  2  2  2  7  2        1 0.592495028711D-03 0.100000000000D+01
-.794137813189D-06 0.000000000000D+00 -.559610393859D-07 0.199823599689D-05 0.000000000000D+00  7 -1 1 24 -13 13 -24 21 2 0.17775719D-01 0.15911691D+00 0.93030704D+05 0.93030704D+05 0.93030704D+05 0.11243057D+01  1  2  3  2  7  2        1 -.408154582404D-04 0.100000000000D+01
0.929750379025D-06 0.000000000000D+00 0.000000000000D+00 0.199823599689D-05 0.000000000000D+00  7 -1 1 24 -13 13 -24 21 2 0.17775719D-01 0.15911691D+00 0.93030704D+05 0.93030704D+05 0.93030704D+05 0.11243057D+01  1  2 15  2  7  2        1 0.477853933396D-04 0.100000000000D+01
0.397305998570D-05 0.000000000000D+00 0.000000000000D+00 0.199823599689D-05 0.000000000000D+00  7 -1 1 24 -13 13 -24 21 2 0.17775719D-01 0.38162515D+00 0.18327256D+06 0.18327256D+06 0.18327256D+06 0.11007506D+01  1  2 12  2  7  2        1 0.203044275842D-04 0.100000000000D+01
-.159573897606D-04 0.000000000000D+00 -.407651850174D-05 0.199823599689D-05 0.000000000000D+00  7 -1 1 24 -13 13 -24 21 2 0.17775719D-01 0.39669114D+00 0.93030704D+05 0.93030704D+05 0.93030704D+05 0.11243057D+01  1  2  5  2  7  2        1 -.753749402497D-04 0.100000000000D+01
0.380229722083D-06 0.000000000000D+00 0.000000000000D+00 0.199823599689D-05 0.000000000000D+00  7 -1 21 24 -13 13 -24 -1 2 0.17775719D-01 0.38162515D+00 0.18327256D+06 0.18327256D+06 0.18327256D+06 0.11007506D+01  1  2 12  4  7  2        1 0.686871125961D-06 0.100000000000D+01
-.135162311255D-05 0.000000000000D+00 -.409742450130D-06 0.199823599689D-05 0.000000000000D+00  7 -1 21 24 -13 13 -24 -1 2 0.17775719D-01 0.39669114D+00 0.93030704D+05 0.93030704D+05 0.93030704D+05 0.11243057D+01  1  2  5  4  7  2        1 -.216687194007D-05 0.100000000000D+01
  </mgrwgt>
  </event>
  <event>
  8     66 0.29788925E-05 0.19157737E+03 0.75467711E-02 0.98357575E-01
       -1 -1    0    0    0  501 0.00000000E+00 0.00000000E+00 0.10834758E+03 0.10834806E+03 0.32000000E+00 0.0000E+00 0.9000E+01
        1 -1    0    0  501    0 0.00000000E+00 0.00000000E+00 -.22055985E+04 0.22055985E+04 0.32000000E+00 0.0000E+00 0.9000E+01
       25  2    1    2    0    0 -.23315301E+03 -.55142196E+02 -.27106220E+03 0.46975839E+03 0.29966189E+03 0.0000E+00 0.0000E+00
       23  2    1    2    0    0 0.23315301E+03 0.55142196E+02 -.18261887E+04 0.18441882E+04 0.93079667E+02 0.0000E+00 0.0000E+00
       24  1    3    3    0    0 -.66499027E+02 -.11677371E+03 -.29620952E+02 0.15938268E+03 0.80419002E+02 0.0000E+00 0.9000E+01
      -11  1    4    4    0    0 0.23672772E+03 0.60288972E+02 -.18149884E+04 0.18313540E+04 0.51099893E-03 0.0000E+00 0.9000E+01
       11  1    4    4    0    0 -.35747054E+01 -.51467756E+01 -.11200344E+02 0.12834155E+02 0.51099893E-03 0.0000E+00 0.9000E+01
      -24  1    3    3    0    0 -.16665399E+03 0.61631519E+02 -.24144124E+03 0.31037572E+03 0.80419002E+02 0.0000E+00 0.9000E+01
#aMCatNLO 1  0  0  1  2 0.10805457D+03 0.00000000D+00  -5  7  0 0.00000000D+00 0.00000000D+00 0.00000000D+00 0.00000000D+00 0.00000000D+00
  <mgrwgt>
 0.6886146868D-03    9    2    0
 0.488847459426474D+03 0.000000000000000D+00 0.000000000000000D+00 0.488847459426474D+03
 0.488847459426474D+03 0.000000000000000D+00 0.000000000000000D+00 -.488847459426474D+03
 0.313677022418290D+03 -.664990271428751D+02 -.116773714902556D+03 0.271786381807003D+03
 0.441006025524996D+03 0.236727719120730D+03 0.602889719220438D+02 -.367166912199115D+03
 0.634923657381083D+01 -.357470538743539D+01 -.514677564366765D+01 0.102224602567407D+01
 0.216662634335851D+03 -.166653986590420D+03 0.616315186241795D+02 0.943582843664386D+02
 0.000000000000000D+00 -.000000000000000D+00 0.000000000000000D+00 0.000000000000000D+00
 0.592048269272327D+03 0.000000000000000D+00 0.000000000000000D+00 0.592048269272327D+03
 0.520948077996408D+03 0.000000000000000D+00 0.000000000000000D+00 -.520948077996408D+03
 0.308806704955733D+03 -.322376276456110D+02 -.118267760185470D+03 0.271786381807003D+03
 0.469539165196410D+03 0.286843973036672D+03 0.581035400990836D+02 -.367166912199115D+03
 0.601797639541352D+01 -.289401606886667D+01 -.517645863036582D+01 0.102224602567407D+01
 0.199284029547523D+03 -.143760352276507D+03 0.606331902763193D+02 0.943582843664386D+02
 0.129348471173655D+03 -.107951977045688D+03 0.470748844043332D+01 0.711001912759193D+02
0.842086629517D-04 0.000000000000D+00 0.000000000000D+00 0.223061541812D-05 0.000000000000D+00  7 -1 1 24 -11 11 -24 21 0 0.16668897D-01 0.33932288D+00 0.90659114D+05 0.90659114D+05 0.90659114D+05 0.11252338D+01  1  2  2  1  7  1       -1 0.622815055022D-03 0.100000000000D+01
-.334237810566D-05 0.000000000000D+00 -.323383438385D-06 0.223061541812D-05 0.000000000000D+00  7 -1 1 24 -11 11 -24 21 2 0.16668897D-01 0.33932288D+00 0.90659114D+05 0.90659114D+05 0.90659114D+05 0.11252338D+01  1  2  3  1  7  1       -1 -.312999340166D-04 0.100000000000D+01
0.508834470916D-05 0.000000000000D+00 0.000000000000D+00 0.223061541812D-05 0.000000000000D+00  7 -1 1 24 -11 11 -24 21 2 0.16668897D-01 0.33932288D+00 0.90659114D+05 0.90659114D+05 0.90659114D+05 0.11252338D+01  1  2 15  1  7  1       -1 0.476501606389D-04 0.100000000000D+01
0.928576056700D-04 0.000000000000D+00 0.000000000000D+00 0.223061541812D-05 0.000000000000D+00  7 -1 1 24 -11 11 -24 21 2 0.20650051D-01 0.33932288D+00 0.13278434D+06 0.13278434D+06 0.13278434D+06 0.11117544D+01  1  2 12  1  7  1       -1 0.592905431695D-03 0.100000000000D+01
-.106933151785D-03 0.000000000000D+00 0.000000000000D+00 0.223061541812D-05 0.000000000000D+00  7 -1 1 24 -11 11 -24 21 2 0.16668897D-01 0.33932288D+00 0.90659114D+05 0.90659114D+05 0.90659114D+05 0.11252338D+01  1  2  4  1  7  1       -1 -.100138299416D-02 0.100000000000D+01
-.146625448514D-03 0.000000000000D+00 -.491395738638D-04 0.223061541812D-05 0.000000000000D+00  7 -1 1 24 -11 11 -24 21 2 0.21682218D-01 0.33932288D+00 0.90659114D+05 0.90659114D+05 0.90659114D+05 0.11252338D+01  1  2  5  1  7  1       -1 -.902505654490D-03 0.100000000000D+01
0.155781206807D-03 0.000000000000D+00 0.474883811193D-04 0.223061541812D-05 0.000000000000D+00  7 -1 1 24 -11 11 -24 21 2 0.16668897D-01 0.33932288D+00 0.90659114D+05 0.90659114D+05 0.90659114D+05 0.11252338D+01  1  2  6  1  7  1       -1 0.145882402887D-02 0.100000000000D+01
0.279962407049D-05 0.000000000000D+00 0.000000000000D+00 0.223061541812D-05 0.000000000000D+00  7 21 1 24 -11 11 -24 1 2 0.20650051D-01 0.33932288D+00 0.13278434D+06 0.13278434D+06 0.13278434D+06 0.11117544D+01  1  2 12  3  7  1       -1 0.213299417405D-03 0.100000000000D+01
-.425584987067D-05 0.000000000000D+00 -.172592419924D-05 0.223061541812D-05 0.000000000000D+00  7 21 1 24 -11 11 -24 1 2 0.21682218D-01 0.33932288D+00 0.90659114D+05 0.90659114D+05 0.90659114D+05 0.11252338D+01  1  2  5  3  7  1       -1 -.311690824174D-03 0.100000000000D+01
  </mgrwgt>
  </event>
  <event>
  9     66 0.29788925E-05 0.62830876E+03 0.75467711E-02 0.90829414E-01
       -1 -1    0    0    0  501 0.00000000E+00 0.00000000E+00 0.13804560E+04 0.13804560E+04 0.32000000E+00 0.0000E+00 0.9000E+01
        1 -1    0    0  502    0 0.00000000E+00 0.00000000E+00 -.37651024E+03 0.37651038E+03 0.32000000E+00 0.0000E+00 0.9000E+01
       25  2    1    2    0    0 -.28644745E+03 0.53431142E+03 0.47175839E+03 0.82469121E+03 0.30003130E+03 0.0000E+00 0.0000E+00
       23  2    1    2    0    0 0.40128988E+03 -.43468071E+03 0.34466924E+03 0.69086543E+03 0.92289089E+02 0.0000E+00 0.0000E+00
       24  1    3    3    0    0 -.26846270E+03 0.51562155E+03 0.44349905E+03 0.73559257E+03 0.80419002E+02 0.0000E+00 0.9000E+01
      -11  1    4    4    0    0 0.30893924E+03 -.29755574E+03 0.28555614E+03 0.51529136E+03 0.51099893E-03 0.0000E+00 0.9000E+01
       11  1    4    4    0    0 0.92350639E+02 -.13712497E+03 0.59113095E+02 0.17557408E+03 0.51099893E-03 0.0000E+00 0.9000E+01
      -24  1    3    3    0    0 -.17984747E+02 0.18689870E+02 0.28259347E+02 0.89098648E+02 0.80419002E+02 0.0000E+00 0.9000E+01
       21  1    1    2  502  501 -.11484243E+03 -.99630709E+02 0.18751812E+03 0.24140975E+03 0.75000000E+00 0.0000E+00 0.9000E+01
#aMCatNLO 2  0  0  2  2 0.15203638D+03 0.00000000D+00  -5  7  0 0.00000000D+00 0.00000000D+00 0.00000000D+00 0.00000000D+00 0.00000000D+00
  <mgrwgt>
 0.8507077676D-04    1    2    0
 0.633885401655644D+03 0.000000000000000D+00 0.000000000000000D+00 0.633885401655644D+03
 0.633885401655644D+03 0.000000000000000D+00 0.000000000000000D+00 -.633885401655644D+03
 0.577554313123206D+03 -.321134925527164D+03 0.469926146169004D+03 0.560673292235211D+02
 0.427509192758063D+03 0.270282158241008D+03 -.331092408084435D+03 0.945949988548705D+01
 0.174232580422024D+03 0.767878907643081D+02 -.150626317884762D+03 -.420989818518759D+02
 0.884747170079957D+02 -.259351234781515D+02 0.117925798001926D+02 -.234278472571323D+02
 0.000000000000000D+00 -.000000000000000D+00 -.000000000000000D+00 0.000000000000000D+00
 0.755854022343097D+03 0.000000000000000D+00 0.000000000000000D+00 0.755854022343097D+03
 0.687639030152240D+03 0.000000000000000D+00 0.000000000000000D+00 -.687639030152240D+03
 0.589532496268407D+03 -.268462699943421D+03 0.515621548749583D+03 0.560673292235211D+02
 0.429036542650801D+03 0.308939239989509D+03 -.297555740637572D+03 0.945949988548705D+01
 0.170599596045814D+03 0.923506390031605D+02 -.137124969913355D+03 -.420989818518759D+02
 0.876860443141371D+02 -.179847471353666D+02 0.186898704239402D+02 -.234278472571323D+02
 0.166638373216178D+03 -.114842431913882D+03 -.996307086225974D+02 0.682149921908568D+02
0.864790998019D-04 0.000000000000D+00 0.000000000000D+00 0.577046088360D-05 0.152317828539D-08  7 -1 1 24 -11 11 -24 21 2 0.21237760D+00 0.57924596D-01 0.50243355D+06 0.50243355D+06 0.50243355D+06 0.10683614D+01  1  2  1  2  7  2        1 0.850707767625D-04 0.100000000000D+01
  </mgrwgt>
  </event>
  <event>
  8     66 0.29788925E-05 0.10900404E+03 0.75467711E-02 0.10167581E+00
       -1 -1    0    0    0  501 0.00000000E+00 0.00000000E+00 0.41833568E+03 0.41833580E+03 0.32000000E+00 0.0000E+00 0.9000E+01
        1 -1    0    0  501    0 0.00000000E+00 0.00000000E+00 -.26211920E+03 0.26211940E+03 0.32000000E+00 0.0000E+00 0.9000E+01
       25  2    1    2    0    0 -.12860327E+03 0.12122669E+03 -.94664961E+02 0.36032257E+03 0.29939303E+03 0.0000E+00 0.0000E+00
       23  2    1    2    0    0 0.12860327E+03 -.12122669E+03 0.25088143E+03 0.32013263E+03 0.91152062E+02 0.0000E+00 0.0000E+00
       24  1    3    3    0    0 -.18291167E+02 -.71060311E+02 -.52119310E+02 0.12069703E+03 0.80419002E+02 0.0000E+00 0.9000E+01
      -11  1    4    4    0    0 0.17045550E+02 0.40494029E+00 0.82914995E+02 0.84649933E+02 0.51099893E-03 0.0000E+00 0.9000E+01
       11  1    4    4    0    0 0.11155772E+03 -.12163163E+03 0.16796644E+03 0.23548270E+03 0.51099893E-03 0.0000E+00 0.9000E+01
      -24  1    3    3    0    0 -.11031210E+03 0.19228700E+03 -.42545652E+02 0.23962554E+03 0.80419002E+02 0.0000E+00 0.9000E+01
#aMCatNLO 1  0  0  1  2 0.34406166D+02 0.00000000D+00  -5  7  0 0.00000000D+00 0.00000000D+00 0.00000000D+00 0.00000000D+00 0.00000000D+00
  <mgrwgt>
 0.6389263290D-03    6    2    0
 0.331140337073403D+03 0.000000000000000D+00 0.000000000000000D+00 0.331140337073403D+03
 0.331140337073403D+03 0.000000000000000D+00 0.000000000000000D+00 -.331140337073403D+03
 0.136302959735556D+03 -.182911671189019D+02 -.710603111806728D+02 -.820191822602269D+02
 0.674152226004217D+02 0.170455501618458D+02 0.404940295219681D+00 0.652234427280691D+02
 0.202325551354993D+03 0.111557719798941D+03 -.121631626391424D+03 0.117030984554261D+03
 0.256236940455837D+03 -.110312102841885D+03 0.192286997276878D+03 -.100235245022103D+03
 0.000000000000000D+00 0.000000000000000D+00 0.000000000000000D+00 -.000000000000000D+00
 0.347607050615510D+03 0.000000000000000D+00 0.000000000000000D+00 0.347607050615510D+03
 0.350060252458125D+03 0.000000000000000D+00 0.000000000000000D+00 -.350060252458125D+03
 0.139808791296409D+03 -.232524601115584D+02 -.762329260196436D+02 -.820191822602269D+02
 0.668779763813652D+02 0.146325130325690D+02 -.211087799657631D+01 0.652234427280691D+02
 0.203146971974824D+03 0.104272017610634D+03 -.129227656560846D+03 0.117030984554261D+03
 0.253340050240090D+03 -.119468398232102D+03 0.182740697657900D+03 -.100235245022103D+03
 0.344935131809454D+02 0.238163277004577D+02 0.248307629191666D+02 -.245320184261512D+01
0.132596361014D-04 0.000000000000D+00 0.000000000000D+00 0.113717567788D-05 0.000000000000D+00  7 -1 1 24 -11 11 -24 21 0 0.64359359D-01 0.40326056D-01 0.69373270D+05 0.69373270D+05 0.69373270D+05 0.11349918D+01  1  2  2  1  7  1       -1 0.433023497632D-03 0.100000000000D+01
-.689712772617D-06 0.000000000000D+00 -.509204939718D-07 0.113717567788D-05 0.000000000000D+00  7 -1 1 24 -11 11 -24 21 2 0.64359359D-01 0.40326056D-01 0.69373270D+05 0.69373270D+05 0.69373270D+05 0.11349918D+01  1  2  3  1  7  1       -1 -.290157353158D-04 0.100000000000D+01
0.855380529374D-06 0.000000000000D+00 0.000000000000D+00 0.113717567788D-05 0.000000000000D+00  7 -1 1 24 -11 11 -24 21 2 0.64359359D-01 0.40326056D-01 0.69373270D+05 0.69373270D+05 0.69373270D+05 0.11349918D+01  1  2 15  1  7  1       -1 0.359852623004D-04 0.100000000000D+01
0.218453125381D-04 0.000000000000D+00 0.000000000000D+00 0.113717567788D-05 0.000000000000D+00  7 -1 1 24 -11 11 -24 21 2 0.69303387D-01 0.40326056D-01 0.78716593D+05 0.78716593D+05 0.78716593D+05 0.11303521D+01  1  2 12  1  7  1       -1 0.790163836858D-03 0.100000000000D+01
-.159981511454D-04 0.000000000000D+00 0.000000000000D+00 0.113717567788D-05 0.000000000000D+00  7 -1 1 24 -11 11 -24 21 2 0.64359359D-01 0.40326056D-01 0.69373270D+05 0.69373270D+05 0.69373270D+05 0.11349918D+01  1  2  4  1  7  1       -1 -.673031061055D-03 0.100000000000D+01
0.272250096974D-06 0.000000000000D+00 0.000000000000D+00 0.113717567788D-05 0.000000000000D+00  7 21 1 24 -11 11 -24 1 2 0.69303387D-01 0.40326056D-01 0.78716593D+05 0.78716593D+05 0.78716593D+05 0.11303521D+01  1  2 12  3  7  1       -1 0.818005286245D-04 0.100000000000D+01
  </mgrwgt>
  </event>
  <event>
  7     66 0.29788925E-05 0.10482826E+03 0.75467711E-02 0.10308444E+00
       -1 -1    0    0    0  501 0.00000000E+00 0.00000000E+00 0.45342838E+02 0.45343967E+02 0.32000000E+00 0.0000E+00 0.9000E+01
        1 -1    0    0  501    0 0.00000000E+00 0.00000000E+00 -.31486519E+04 0.31486519E+04 0.32000000E+00 0.0000E+00 0.9000E+01
       23  2    1    2    0    0 -.11105548E+03 -.28655643E+02 -.12767986E+03 0.19486750E+03 0.92286152E+02 0.0000E+00 0.0000E+00
       24  1    1    2    0    0 0.73636239E+02 -.13108844E+03 -.19422255E+04 0.19496958E+04 0.80419002E+02 0.0000E+00 0.9000E+01
      -11  1    3    3    0    0 -.15440762E+02 -.45114960E+02 -.25941738E+02 0.54283980E+02 0.51099893E-03 0.0000E+00 0.9000E+01
       11  1    3    3    0    0 -.95614713E+02 0.16459317E+02 -.10173812E+03 0.14058352E+03 0.51099893E-03 0.0000E+00 0.9000E+01
      -24  1    1    2    0    0 0.37419237E+02 0.15974408E+03 -.10334036E+04 0.10494325E+04 0.80419002E+02 0.0000E+00 0.9000E+01
#aMCatNLO 1  0  0  2  1 0.82992043D+01 0.00000000D+00  -5  7  0 0.00000000D+00 0.00000000D+00 0.00000000D+00 0.00000000D+00 0.00000000D+00
  <mgrwgt>
 0.3212689310D-02   11    2    0
 0.377850025723294D+03 0.000000000000000D+00 0.000000000000000D+00 0.377850025723294D+03
 0.377850025723294D+03 0.000000000000000D+00 0.000000000000000D+00 -.377850025723294D+03
 0.264647673795984D+03 0.736362403479863D+02 -.131088430282590D+03 -.202397388433535D+03
 0.122902704688227D+03 -.154407640443901D+02 -.451149601417223D+02 0.113275319451404D+03
 0.176390588116676D+03 -.956147155533525D+02 0.164593161604713D+02 0.147311088032531D+03
 0.191759084845700D+03 0.374192392497563D+02 0.159744074263841D+03 -.581890190503997D+02
 0.000000000000000D+00 -.000000000000000D+00 -.000000000000000D+00 -.000000000000000D+00
 0.379406455629495D+03 0.000000000000000D+00 0.000000000000000D+00 0.379406455629495D+03
 0.389100441566633D+03 0.000000000000000D+00 0.000000000000000D+00 -.389100441566633D+03
 0.263605145890346D+03 0.746665768810634D+02 -.128377008991677D+03 -.202397388433535D+03
 0.122386733930629D+03 -.149623365559442D+02 -.438559360882357D+02 0.113275319451404D+03
 0.176197198180973D+03 -.949270068203353D+02 0.182690822328057D+02 0.147311088032531D+03
 0.193556543585232D+03 0.381707823630968D+02 0.161721826127560D+03 -.581890190503997D+02
 0.127612756089485D+02 -.294801586788068D+01 -.775796328045230D+01 -.969398593713764D+01
0.985095206272D-04 0.000000000000D+00 0.000000000000D+00 0.261088512890D-09 0.000000000000D+00  7 -1 1 24 -11 11 -24 21 0 0.69759094D-02 0.48440807D+00 0.61984191D+05 0.61984191D+05 0.61984191D+05 0.11391771D+01  1  2  2  2  7  2        1 0.618697764609D-03 0.100000000000D+01
-.431468267400D-05 0.000000000000D+00 -.378302497361D-06 0.261088512890D-09 0.000000000000D+00  7 -1 1 24 -11 11 -24 21 2 0.69759094D-02 0.48440807D+00 0.61984191D+05 0.61984191D+05 0.61984191D+05 0.11391771D+01  1  2  3  2  7  2        1 -.351667088152D-04 0.100000000000D+01
0.606358080094D-05 0.000000000000D+00 0.000000000000D+00 0.261088512890D-09 0.000000000000D+00  7 -1 1 24 -11 11 -24 21 2 0.69759094D-02 0.48440807D+00 0.61984191D+05 0.61984191D+05 0.61984191D+05 0.11391771D+01  1  2 15  2  7  2        1 0.494210574718D-04 0.100000000000D+01
0.195364003119D-03 0.000000000000D+00 0.000000000000D+00 0.261088512890D-09 0.000000000000D+00  7 -1 1 24 -11 11 -24 21 2 0.69759094D-02 0.49981145D+00 0.63704863D+05 0.63704863D+05 0.63704863D+05 0.11381552D+01  1  2 12  2  7  2        1 0.133282434697D-02 0.100000000000D+01
-.201287372740D-03 0.000000000000D+00 0.000000000000D+00 0.261088512890D-09 0.000000000000D+00  7 -1 1 24 -11 11 -24 21 2 0.69759094D-02 0.48440807D+00 0.61984191D+05 0.61984191D+05 0.61984191D+05 0.11391771D+01  1  2  4  2  7  2        1 -.164058749163D-02 0.100000000000D+01
-.222511022710D-02 0.000000000000D+00 -.233558657844D-03 0.261088512890D-09 0.000000000000D+00  7 -1 1 24 -11 11 -24 21 2 0.69759094D-02 0.49936655D+00 0.61984191D+05 0.61984191D+05 0.61984191D+05 0.11391771D+01  1  2  5  2  7  2        1 -.153060690021D-01 0.100000000000D+01
0.223128937607D-02 0.000000000000D+00 0.233450686333D-03 0.261088512890D-09 0.000000000000D+00  7 -1 1 24 -11 11 -24 21 2 0.69759094D-02 0.48440807D+00 0.61984191D+05 0.61984191D+05 0.61984191D+05 0.11391771D+01  1  2  6  2  7  2        1 0.181860659750D-01 0.100000000000D+01
0.232252271987D-05 0.000000000000D+00 0.000000000000D+00 0.261088512890D-09 0.261937382302D-10  7 -1 1 24 -11 11 -24 21 2 0.70046444D-02 0.49883123D+00 0.63704863D+05 0.63704863D+05 0.63704863D+05 0.11381552D+01  1  2 11  2  7  2        1 0.159250613622D-04 0.100000000000D+01
0.564912756778D-05 0.000000000000D+00 0.000000000000D+00 0.261088512890D-09 0.000000000000D+00  7 -1 21 24 -11 11 -24 -1 2 0.69759094D-02 0.49981145D+00 0.63704863D+05 0.63704863D+05 0.63704863D+05 0.11381552D+01  1  2 12  4  7  2        1 0.726817226451D-05 0.100000000000D+01
-.120510584635D-04 0.000000000000D+00 -.127312267988D-05 0.261088512890D-09 0.000000000000D+00  7 -1 21 24 -11 11 -24 -1 2 0.69759094D-02 0.49936655D+00 0.61984191D+05 0.61984191D+05 0.61984191D+05 0.11391771D+01  1  2  5  4  7  2        1 -.157067755311D-04 0.100000000000D+01
0.129909658798D-07 0.000000000000D+00 0.000000000000D+00 0.261088512890D-09 0.139214734457D-12  7 -1 21 24 -11 11 -24 -1 2 0.70046444D-02 0.49883123D+00 0.63704863D+05 0.63704863D+05 0.63704863D+05 0.11381552D+01  1  2 11  4  7  2        1 0.169100496565D-07 0.100000000000D+01
  </mgrwgt>
  </event>
  <event>
  8     66 0.29788925E-05 0.18080455E+03 0.75467711E-02 0.10455593E+00
       -1 -1    0    0    0  501 0.00000000E+00 0.00000000E+00 0.62246270E+02 0.62247092E+02 0.32000000E+00 0.0000E+00 0.9000E+01
        1 -1    0    0  501    0 0.00000000E+00 0.00000000E+00 -.12796717E+04 0.12796718E+04 0.32000000E+00 0.0000E+00 0.9000E+01
       25  2    1    2    0    0 -.39284066E+02 0.10348436E+03 -.40020253E+03 0.51204150E+03 0.29962006E+03 0.0000E+00 0.0000E+00
       23  2    1    2    0    0 0.39284066E+02 -.10348436E+03 -.81722293E+03 0.82987736E+03 0.92686925E+02 0.0000E+00 0.0000E+00
       24  1    3    3    0    0 -.88820230E+02 0.60525046E+02 -.38429739E+03 0.40706758E+03 0.80419002E+02 0.0000E+00 0.9000E+01
      -13  1    4    4    0    0 0.49380485E+02 -.10210616E+03 -.80863556E+03 0.81655103E+03 0.10565837E+00 0.0000E+00 0.9000E+01
       13  1    4    4    0    0 -.10096418E+02 -.13782061E+01 -.85873712E+01 0.13326335E+02 0.10565837E+00 0.0000E+00 0.9000E+01
      -24  1    3    3    0    0 0.49536164E+02 0.42959318E+02 -.15905139E+02 0.10497392E+03 0.80419002E+02 0.0000E+00 0.9000E+01
#aMCatNLO 1  0  0  2  2 0.77179553D+02 0.00000000D+00  -5  7  0 0.00000000D+00 0.00000000D+00 0.00000000D+00 0.00000000D+00 0.00000000D+00
  <mgrwgt>
 0.5129255291D-03    4    2    0
 0.282232830325134D+03 0.000000000000000D+00 0.000000000000000D+00 0.282232830325134D+03
 0.282232830325134D+03 0.000000000000000D+00 0.000000000000000D+00 -.282232830325134D+03
 0.138889293299279D+03 -.888202303860667D+02 0.605250474682049D+02 -.356469513695112D+02
 0.197163175740960D+03 0.493805606423924D+02 -.102106291170310D+03 -.161273628973702D+03
 0.131597723240699D+02 -.100964931567592D+02 -.137807624363881D+01 0.832714473415639D+01
 0.215253419285960D+03 0.495361629004335D+02 0.429593199457443D+02 0.188593435609057D+03
 0.000000000000000D+00 -.000000000000000D+00 -.000000000000000D+00 0.000000000000000D+00
 0.342665250840806D+03 0.000000000000000D+00 0.000000000000000D+00 0.342665250840806D+03
 0.310620139855805D+03 0.000000000000000D+00 0.000000000000000D+00 -.310620139855805D+03
 0.134745614001450D+03 -.733866510333635D+02 0.709426447662078D+02 -.356469513695112D+02
 0.196783110680523D+03 0.715999526496652D+02 -.871083005649950D+02 -.161273628973702D+03
 0.120325717516572D+02 -.867559242004867D+01 -.418974577252278D+00 0.832714473415639D+01
 0.226156322553060D+03 0.744325927636074D+02 0.597642991761192D+02 0.188593435609057D+03
 0.835677717099202D+02 -.639703019598605D+02 -.431796688000797D+02 0.320451109850009D+02
0.117765097504D-04 0.000000000000D+00 0.000000000000D+00 0.609258881425D-06 0.000000000000D+00  7 -1 1 24 -13 13 -24 21 0 0.95764156D-02 0.19687264D+00 0.32690287D+05 0.32690287D+05 0.32690287D+05 0.11638911D+01  1  2  2  2  7  2        1 0.848798598378D-03 0.100000000000D+01
-.496503340166D-06 0.000000000000D+00 -.452248982677D-07 0.609258881425D-06 0.000000000000D+00  7 -1 1 24 -13 13 -24 21 2 0.95764156D-02 0.19687264D+00 0.32690287D+05 0.32690287D+05 0.32690287D+05 0.11638911D+01  1  2  3  2  7  2        1 -.484769127158D-04 0.100000000000D+01
0.720840140065D-06 0.000000000000D+00 0.000000000000D+00 0.609258881425D-06 0.000000000000D+00  7 -1 1 24 -13 13 -24 21 2 0.95764156D-02 0.19687264D+00 0.32690287D+05 0.32690287D+05 0.32690287D+05 0.11638911D+01  1  2 15  2  7  2        1 0.703804017518D-04 0.100000000000D+01
-.366436817597D-05 0.000000000000D+00 0.000000000000D+00 0.609258881425D-06 0.000000000000D+00  7 -1 1 24 -13 13 -24 21 2 0.95764156D-02 0.19687264D+00 0.32690287D+05 0.32690287D+05 0.32690287D+05 0.11638911D+01  1  2  4  2  7  2        1 -.357776558292D-03 0.100000000000D+01
  </mgrwgt>
  </event>
  <event>
  8     66 0.29788925E-05 0.20108351E+03 0.75467711E-02 0.97351541E-01
       -1 -1    0    0    0  501 0.00000000E+00 0.00000000E+00 0.72361057E+03 0.72361064E+03 0.32000000E+00 0.0000E+00 0.9000E+01
        1 -1    0    0  501    0 0.00000000E+00 0.00000000E+00 -.62022010E+02 0.62022835E+02 0.32000000E+00 0.0000E+00 0.9000E+01
       25  2    1    2    0    0 -.50129485E+02 -.32635791E+02 0.41041263E+03 0.51209834E+03 0.30037997E+03 0.0000E+00 0.0000E+00
       23  2    1    2    0    0 0.50129485E+02 0.32635791E+02 0.25117593E+03 0.27353513E+03 0.90299836E+02 0.0000E+00 0.0000E+00
       24  1    3    3    0    0 -.81407060E+02 -.12364920E+03 0.30426059E+03 0.34779010E+03 0.80419002E+02 0.0000E+00 0.9000E+01
      -11  1    4    4    0    0 -.26535839E+02 0.97392279E+01 0.62477374E+02 0.68574234E+02 0.51099893E-03 0.0000E+00 0.9000E+01
       11  1    4    4    0    0 0.76665324E+02 0.22896563E+02 0.18869855E+03 0.20496090E+03 0.51099893E-03 0.0000E+00 0.9000E+01
      -24  1    3    3    0    0 0.31277575E+02 0.91013404E+02 0.10615204E+03 0.16430824E+03 0.80419002E+02 0.0000E+00 0.9000E+01
#aMCatNLO 1  0  0  1  2 0.29946344D+03 0.00000000D+00  -5  7  0 0.00000000D+00 0.00000000D+00 0.00000000D+00 0.00000000D+00 0.00000000D+00
  <mgrwgt>
 0.1201019899D-02    3    2    0
 0.211849318029861D+03 0.000000000000000D+00 0.000000000000000D+00 0.211849318029861D+03
 0.211849318029861D+03 0.000000000000000D+00 0.000000000000000D+00 -.211849318029861D+03
 0.169791014497062D+03 -.814070598056805D+02 -.123649195365827D+03 0.211078125050610D+02
 0.295962667961176D+02 -.265358389668128D+02 0.973922799648928D+01 0.877129959736564D+01
 0.853987560104540D+02 0.766653244116332D+02 0.228965635453738D+02 0.298516823446310D+02
 0.138912598756089D+03 0.312775743608602D+02 0.910134038239639D+02 -.597307944470577D+02
 0.000000000000000D+00 0.000000000000000D+00 0.000000000000000D+00 -.000000000000000D+00
 0.352353804291442D+03 0.000000000000000D+00 0.000000000000000D+00 0.352353804291442D+03
 0.500669376038578D+03 0.000000000000000D+00 0.000000000000000D+00 -.500669376038578D+03
 0.289739804309056D+03 -.220197964435374D+03 -.168965247777312D+03 0.211078125050610D+02
 0.519346856188526D+02 -.511604216452783D+02 0.169915590209960D+01 0.877129959736564D+01
 0.480431932402825D+02 0.363621976264123D+02 0.973735393708749D+01 0.298516823446310D+02
 0.129126113792915D+03 -.496774647094363D+02 0.645811040758539D+02 -.597307944470577D+02
 0.334179383368915D+03 0.284673653163676D+03 0.929476338622714D+02 -.148315571747137D+03
0.171695217375D-04 0.000000000000D+00 0.000000000000D+00 0.194956936835D-06 0.000000000000D+00  7 -1 1 24 -11 11 -24 21 0 0.11132477D+00 0.95419166D-02 0.40434576D+05 0.40434576D+05 0.40434576D+05 0.11554962D+01  1  2  2  1  7  1       -1 0.118687740773D-02 0.100000000000D+01
-.950707613082D-06 0.000000000000D+00 -.659354843108D-07 0.194956936835D-06 0.000000000000D+00  7 -1 1 24 -11 11 -24 21 2 0.11132477D+00 0.95419166D-02 0.40434576D+05 0.40434576D+05 0.40434576D+05 0.11554962D+01  1  2  3  1  7  1       -1 -.877468778213D-04 0.100000000000D+01
0.110393670435D-05 0.000000000000D+00 0.000000000000D+00 0.194956936835D-06 0.000000000000D+00  7 -1 1 24 -11 11 -24 21 2 0.11132477D+00 0.95419166D-02 0.40434576D+05 0.40434576D+05 0.40434576D+05 0.11554962D+01  1  2 15  1  7  1       -1 0.101889369335D-03 0.100000000000D+01
  </mgrwgt>
  </event>
  <event>
  8     66 0.29788925E-05 0.37496573E+03 0.75467711E-02 0.91209980E-01
       -1 -1    0    0    0  501 0.00000000E+00 0.00000000E+00 0.36069434E+03 0.36069448E+03 0.32000000E+00 0.0000E+00 0.9000E+01
        1 -1    0    0  501    0 0.00000000E+00 0.00000000E+00 -.17029057E+04 0.17029058E+04 0.32000000E+00 0.0000E+00 0.9000E+01
       25  2    1    2    0    0 0.15216219E+03 -.31721884E+03 0.18153981E+03 0.49707223E+03 0.30057107E+03 0.0000E+00 0.0000E+00
       23  2    1    2    0    0 -.15216219E+03 0.31721884E+03 -.15237512E+04 0.15665280E+04 0.91712241E+02 0.0000E+00 0.0000E+00
       24  1    3    3    0    0 0.63458627E+02 -.16907905E+03 0.22723341E+03 0.30119257E+03 0.80419002E+02 0.0000E+00 0.9000E+01
      -13  1    4    4    0    0 -.11005142E+03 0.13219201E+03 -.80300211E+03 0.82121766E+03 0.10565837E+00 0.0000E+00 0.9000E+01
       13  1    4    4    0    0 -.42110771E+02 0.18502684E+03 -.72074910E+03 0.74531035E+03 0.10565837E+00 0.0000E+00 0.9000E+01
      -24  1    3    3    0    0 0.88703565E+02 -.14813979E+03 -.45693600E+02 0.19587966E+03 0.80419002E+02 0.0000E+00 0.9000E+01
#aMCatNLO 1  0  0  2  1 0.47187097D+03 0.00000000D+00  -5  7  0 0.00000000D+00 0.00000000D+00 0.00000000D+00 0.00000000D+00 0.00000000D+00
  <mgrwgt>
 0.5351761073D-03    7    2    0
 0.783727395648747D+03 0.000000000000000D+00 0.000000000000000D+00 0.783727395648747D+03
 0.783727395648747D+03 0.000000000000000D+00 0.000000000000000D+00 -.783727395648747D+03
 0.591108809515281D+03 0.634586271646128D+02 -.169079053772988D+03 0.557070628328057D+03
 0.393546555957234D+03 -.110051511194993D+03 0.132191935844000D+03 -.353967298895413D+03
 0.364045529591207D+03 -.421106809758075D+02 0.185026909018727D+03 -.310678098845207D+03
 0.218753896233771D+03 0.887035650061876D+02 -.148139791089740D+03 0.107574769412563D+03
 0.000000000000000D+00 0.000000000000000D+00 -.000000000000000D+00 -.000000000000000D+00
 0.933973385541151D+03 0.000000000000000D+00 0.000000000000000D+00 0.933973385541151D+03
 0.130041199598756D+04 0.000000000000000D+00 0.000000000000000D+00 -.130041199598756D+04
 0.595377684510631D+03 -.110983872709305D+03 -.159255349396807D+03 0.557070628328057D+03
 0.446308112177542D+03 -.233530664626478D+03 0.139145646670253D+03 -.353967298895413D+03
 0.395972844471082D+03 -.153851948819216D+03 0.191319602500572D+03 -.310678098845207D+03
 0.199282631639432D+03 0.272419829924091D+02 -.144678590908407D+03 0.107574769412563D+03
 0.597444108730027D+03 0.471124503162589D+03 -.265313088656108D+02 -.366438610446413D+03
0.324793954191D-03 0.000000000000D+00 0.000000000000D+00 0.708786224694D-05 0.000000000000D+00  7 -1 1 24 -13 13 -24 21 0 0.55491450D-01 0.26198551D+00 0.14059930D+06 0.14059930D+06 0.14059930D+06 0.11097769D+01  1  2  2  2  7  2        1 0.663025130595D-03 0.100000000000D+01
-.612019162363D-05 0.000000000000D+00 -.124729430430D-05 0.708786224694D-05 0.000000000000D+00  7 -1 1 24 -13 13 -24 21 2 0.55491450D-01 0.26198551D+00 0.14059930D+06 0.14059930D+06 0.14059930D+06 0.11097769D+01  1  2  3  2  7  2        1 -.153871581546D-04 0.100000000000D+01
0.198338157076D-04 0.000000000000D+00 0.000000000000D+00 0.708786224694D-05 0.000000000000D+00  7 -1 1 24 -13 13 -24 21 2 0.55491450D-01 0.26198551D+00 0.14059930D+06 0.14059930D+06 0.14059930D+06 0.11097769D+01  1  2 15  2  7  2        1 0.498654417819D-04 0.100000000000D+01
-.171997987667D-03 0.000000000000D+00 0.000000000000D+00 0.708786224694D-05 0.000000000000D+00  7 -1 1 24 -13 13 -24 21 2 0.55491450D-01 0.26198551D+00 0.14059930D+06 0.14059930D+06 0.14059930D+06 0.11097769D+01  1  2  4  2  7  2        1 -.432430943548D-03 0.100000000000D+01
-.738084192694D-04 0.000000000000D+00 -.893588234018D-04 0.708786224694D-05 0.000000000000D+00  7 -1 1 24 -13 13 -24 21 2 0.55491450D-01 0.45862349D+00 0.14059930D+06 0.14059930D+06 0.14059930D+06 0.11097769D+01  1  2  5  2  7  2        1 -.249254057072D-04 0.100000000000D+01
0.117347594745D-03 0.000000000000D+00 0.769733738211D-04 0.708786224694D-05 0.000000000000D+00  7 -1 1 24 -13 13 -24 21 2 0.55491450D-01 0.26198551D+00 0.14059930D+06 0.14059930D+06 0.14059930D+06 0.11097769D+01  1  2  6  2  7  2        1 0.295030958252D-03 0.100000000000D+01
-.241949957946D-07 0.000000000000D+00 -.552625360574D-05 0.708786224694D-05 0.000000000000D+00  7 -1 21 24 -13 13 -24 -1 2 0.55491450D-01 0.45862349D+00 0.14059930D+06 0.14059930D+06 0.14059930D+06 0.11097769D+01  1  2  5  4  7  2        1 -.191596645219D-08 0.100000000000D+01
  </mgrwgt>
  </event>
  <event>
  9     66 0.29788925E-05 0.54230191E+03 0.75467711E-02 0.91483687E-01
       -1 -1    0    0    0  501 0.00000000E+00 0.00000000E+00 0.20884586E+04 0.20884586E+04 0.32000000E+00 0.0000E+00 0.9000E+01
        1 -1    0    0  502    0 0.00000000E+00 0.00000000E+00 -.23735414E+03 0.23735436E+03 0.32000000E+00 0.0000E+00 0.9000E+01
       25  2    1    2    0    0 0.41304131E+03 0.47504832E+03 0.66139378E+03 0.96099086E+03 0.29964590E+03 0.0000E+00 0.0000E+00
       23  2    1    2    0    0 -.34742459E+03 -.26149915E+03 0.75575534E+03 0.87673749E+03 0.91743370E+02 0.0000E+00 0.0000E+00
       24  1    3    3    0    0 0.11937140E+03 0.26030520E+03 0.42843394E+03 0.52156609E+03 0.80419002E+02 0.0000E+00 0.9000E+01
      -13  1    4    4    0    0 -.33535265E+03 -.23490225E+03 0.73342144E+03 0.83996874E+03 0.10565837E+00 0.0000E+00 0.9000E+01
       13  1    4    4    0    0 -.12071946E+02 -.26596900E+02 0.22333900E+02 0.36768753E+02 0.10565837E+00 0.0000E+00 0.9000E+01
      -24  1    3    3    0    0 0.29366991E+03 0.21474312E+03 0.23295983E+03 0.43942477E+03 0.80419002E+02 0.0000E+00 0.9000E+01
       21  1    1    2  502  501 -.65616718E+02 -.21354917E+03 0.43395529E+03 0.48808459E+03 0.75000000E+00 0.0000E+00 0.9000E+01
#aMCatNLO 2  0  0  2  2 0.22340278D+03 0.00000000D+00  -5  7  0 0.00000000D+00 0.00000000D+00 0.00000000D+00 0.00000000D+00 0.00000000D+00
  <mgrwgt>
 0.4199610855D-04    1    2    0
 0.574244082229755D+03 0.000000000000000D+00 0.000000000000000D+00 0.574244082229755D+03
 0.574244082229755D+03 0.000000000000000D+00 0.000000000000000D+00 -.574244082229755D+03
 0.250695911384525D+03 0.103777805951459D+03 0.209555939307312D+03 0.412031470094004D+02
 0.501908044495946D+03 -.361755406556290D+03 -.320828728484466D+03 0.134586915917109D+03
 0.369108488206120D+02 -.139850051971233D+02 -.328240580669701D+02 -.945577084698439D+01
 0.358973359758427D+03 0.271962605801954D+03 0.144096847244124D+03 -.166334292079525D+03
 0.000000000000000D+00 -.000000000000000D+00 -.000000000000000D+00 0.000000000000000D+00
 0.750727124870074D+03 0.000000000000000D+00 0.000000000000000D+00 0.750727124870074D+03
 0.660298144842551D+03 0.000000000000000D+00 0.000000000000000D+00 -.660298144842551D+03
 0.300288598728028D+03 0.119371402669204D+03 0.260305196784429D+03 0.412031470094004D+02
 0.430992481270744D+03 -.335353077072279D+03 -.234902521642461D+03 0.134586915917109D+03
 0.307003831510743D+02 -.120715171305695D+02 -.265966237984908D+02 -.945577084698439D+01
 0.408033010054737D+03 0.293669909349135D+03 0.214743123198934D+03 -.166334292079525D+03
 0.241010796508042D+03 -.656167178154903D+02 -.213549174542411D+03 0.904289800275227D+02
0.196120133674D-03 0.000000000000D+00 0.000000000000D+00 0.708063288137D-05 0.935912095479D-09  7 -1 1 24 -13 13 -24 21 2 0.32130106D+00 0.36516009D-01 0.44361562D+06 0.44361562D+06 0.44361562D+06 0.10722024D+01  1  2  1  2  7  2        1 0.419961085454D-04 0.100000000000D+01
  </mgrwgt>
  </event>
  <event>
  8     66 0.29788925E-05 0.47781620E+03 0.75467711E-02 0.89969341E-01
       -1 -1    0    0    0  501 0.00000000E+00 0.00000000E+00 0.76804033E+03 0.76804040E+03 0.32000000E+00 0.0000E+00 0.9000E+01
        1 -1    0    0  501    0 0.00000000E+00 0.00000000E+00 -.30650131E+03 0.30650148E+03 0.32000000E+00 0.0000E+00 0.9000E+01
       25  2    1    2    0    0 0.27060882E+03 -.33393311E+03 0.18446996E+03 0.55572200E+03 0.30009551E+03 0.0000E+00 0.0000E+00
       23  2    1    2    0    0 -.27060882E+03 0.33393311E+03 0.27706906E+03 0.51881988E+03 0.87557692E+02 0.0000E+00 0.0000E+00
       24  1    3    3    0    0 0.29469586E+03 -.22308136E+03 0.17376002E+03 0.41625797E+03 0.80419002E+02 0.0000E+00 0.9000E+01
      -11  1    4    4    0    0 -.90505997E+02 0.53798278E+02 0.75105560E+02 0.12933072E+03 0.51099893E-03 0.0000E+00 0.9000E+01
       11  1    4    4    0    0 -.18010283E+03 0.28013483E+03 0.20196350E+03 0.38948916E+03 0.51099893E-03 0.0000E+00 0.9000E+01
      -24  1    3    3    0    0 -.24087032E+02 -.11085174E+03 0.10709939E+02 0.13946402E+03 0.80419002E+02 0.0000E+00 0.9000E+01
#aMCatNLO 1  0  0  2  1 0.47310126D+03 0.00000000D+00  -5  7  0 0.00000000D+00 0.00000000D+00 0.00000000D+00 0.00000000D+00 0.00000000D+00
  <mgrwgt>
 0.4079474938D-03    3    2    0
 0.485186041019246D+03 0.000000000000000D+00 0.000000000000000D+00 0.485186041019246D+03
 0.485186041019246D+03 0.000000000000000D+00 0.000000000000000D+00 -.485186041019246D+03
 0.378297771355332D+03 0.294695855061925D+03 -.223081361977687D+03 -.557196603920409D+01
 0.107491889878744D+03 -.905059970164212D+02 0.537982781222529D+02 0.216544721673893D+02
 0.335240865598468D+03 -.180102826351914D+03 0.280134828324244D+03 0.383912472708099D+02
 0.149341555205949D+03 -.240870316935893D+02 -.110851744468811D+03 -.544737533989951D+02
 0.000000000000000D+00 0.000000000000000D+00 -.000000000000000D+00 0.000000000000000D+00
 0.188338558201321D+04 0.000000000000000D+00 0.000000000000000D+00 0.188338558201321D+04
 0.581425580610203D+03 0.000000000000000D+00 0.000000000000000D+00 -.581425580610203D+03
 0.263481440804531D+03 0.148013826687120D+03 -.202524354086007D+03 -.557196603920409D+01
 0.166926057890012D+03 -.153225668265520D+03 0.625882354954680D+02 0.216544721673893D+02
 0.478876688698223D+03 -.366173692994488D+03 0.306212053437393D+03 0.383912472708099D+02
 0.170274417428532D+03 -.971369502305796D+02 -.100614036629004D+03 -.544737533989951D+02
 0.138525255780212D+04 0.468522484803468D+03 -.656618982178488D+02 0.130196000140301D+04
0.564634089700D-04 0.000000000000D+00 0.000000000000D+00 0.234497944047D-06 0.000000000000D+00  7 -1 1 24 -11 11 -24 21 0 0.11816007D+00 0.47154066D-01 0.22830832D+06 0.22830832D+06 0.22830832D+06 0.10934370D+01  1  2  2  2  7  2        1 0.404148080897D-03 0.100000000000D+01
-.313596251346D-05 0.000000000000D+00 -.216834357602D-06 0.234497944047D-06 0.000000000000D+00  7 -1 1 24 -11 11 -24 21 2 0.11816007D+00 0.47154066D-01 0.22830832D+06 0.22830832D+06 0.22830832D+06 0.10934370D+01  1  2  3  2  7  2        1 -.268368662469D-04 0.100000000000D+01
0.357993448266D-05 0.000000000000D+00 0.000000000000D+00 0.234497944047D-06 0.000000000000D+00  7 -1 1 24 -11 11 -24 21 2 0.11816007D+00 0.47154066D-01 0.22830832D+06 0.22830832D+06 0.22830832D+06 0.10934370D+01  1  2 15  2  7  2        1 0.306362791238D-04 0.100000000000D+01
  </mgrwgt>
  </event>
  <event>
  8     66 0.29788925E-05 0.86608663E+02 0.75467711E-02 0.10223403E+00
       -1 -1    0    0    0  501 0.00000000E+00 0.00000000E+00 0.12035460E+03 0.12035503E+03 0.32000000E+00 0.0000E+00 0.9000E+01
        1 -1    0    0  501    0 0.00000000E+00 0.00000000E+00 -.67945530E+03 0.67945538E+03 0.32000000E+00 0.0000E+00 0.9000E+01
       25  2    1    2    0    0 -.19599478E+03 -.99536384E+01 -.31929612E+03 0.47745518E+03 0.29580468E+03 0.0000E+00 0.0000E+00
       23  2    1    2    0    0 0.19599478E+03 0.99536384E+01 -.23980458E+03 0.32235523E+03 0.88846097E+02 0.0000E+00 0.0000E+00
       24  1    3    3    0    0 -.32465704E+02 0.63166234E+02 -.56795573E+01 0.10744053E+03 0.80419002E+02 0.0000E+00 0.9000E+01
      -11  1    4    4    0    0 0.18532379E+03 0.17773365E+02 -.24536794E+03 0.30800361E+03 0.51099893E-03 0.0000E+00 0.9000E+01
       11  1    4    4    0    0 0.10670986E+02 -.78197269E+01 0.55633538E+01 0.14351620E+02 0.51099893E-03 0.0000E+00 0.9000E+01
      -24  1    3    3    0    0 -.16352907E+03 -.73119872E+02 -.31361656E+03 0.37001464E+03 0.80419002E+02 0.0000E+00 0.9000E+01
#aMCatNLO 1  0  0  1  2 0.33104400D+02 0.00000000D+00  -5  7  0 0.00000000D+00 0.00000000D+00 0.00000000D+00 0.00000000D+00 0.00000000D+00
  <mgrwgt>
 0.1269688171D-02    9    2    0
 0.285964636515715D+03 0.000000000000000D+00 0.000000000000000D+00 0.285964636515715D+03
 0.285964636515715D+03 0.000000000000000D+00 0.000000000000000D+00 -.285964636515715D+03
 0.144697284431646D+03 -.324657039803905D+02 0.631662335357973D+02 0.970880691613600D+02
 0.190861200001772D+03 0.185323789758724D+03 0.177733653659512D+02 -.420380553683121D+02
 0.255084856535978D+02 0.106709862657966D+02 -.781972693251851D+01 0.218097400983100D+02
 0.210862302944413D+03 -.163529072044130D+03 -.731198719692300D+02 -.768597538913579D+02
 0.000000000000000D+00 0.000000000000000D+00 -.000000000000000D+00 0.000000000000000D+00
 0.425636940784025D+03 0.000000000000000D+00 0.000000000000000D+00 0.425636940784025D+03
 0.288411576033107D+03 0.000000000000000D+00 0.000000000000000D+00 -.288411576033107D+03
 0.149033495059011D+03 -.370152108540916D+02 0.703388064092623D+02 0.970880691613600D+02
 0.186303741134709D+03 0.179481996483960D+03 0.269833059459223D+02 -.420380553683121D+02
 0.248381274448509D+02 0.989118285957496D+01 -.659031967732053D+01 0.218097400983100D+02
 0.212711182386920D+03 -.170089673171373D+03 -.627766873153276D+02 -.768597538913579D+02
 0.141161970791641D+03 0.177317046819294D+02 -.279551053625365D+02 0.137225364750918D+03
0.146711164243D-04 0.000000000000D+00 0.000000000000D+00 0.533664313222D-08 0.000000000000D+00  7 -1 1 24 -11 11 -24 21 0 0.18516131D-01 0.10453162D+00 0.63264669D+05 0.63264669D+05 0.63264669D+05 0.11384137D+01  1  2  2  1  7  1       -1 0.110086427643D-02 0.100000000000D+01
-.798742471057D-06 0.000000000000D+00 -.563409500631D-07 0.533664313222D-08 0.000000000000D+00  7 -1 1 24 -11 11 -24 21 2 0.18516131D-01 0.10453162D+00 0.63264669D+05 0.63264669D+05 0.63264669D+05 0.11384137D+01  1  2  3  1  7  1       -1 -.776743515806D-04 0.100000000000D+01
0.956310393189D-06 0.000000000000D+00 0.000000000000D+00 0.533664313222D-08 0.000000000000D+00  7 -1 1 24 -11 11 -24 21 2 0.18516131D-01 0.10453162D+00 0.63264669D+05 0.63264669D+05 0.63264669D+05 0.11384137D+01  1  2 15  1  7  1       -1 0.929971704176D-04 0.100000000000D+01
0.153222097138D-03 0.000000000000D+00 0.000000000000D+00 0.533664313222D-08 0.000000000000D+00  7 -1 1 24 -11 11 -24 21 2 0.27608346D-01 0.10453162D+00 0.72333825D+05 0.72333825D+05 0.72333825D+05 0.11334508D+01  1  2 12  1  7  1       -1 0.774278331390D-02 0.100000000000D+01
-.143497372978D-03 0.000000000000D+00 0.000000000000D+00 0.533664313222D-08 0.000000000000D+00  7 -1 1 24 -11 11 -24 21 2 0.18516131D-01 0.10453162D+00 0.63264669D+05 0.63264669D+05 0.63264669D+05 0.11384137D+01  1  2  4  1  7  1       -1 -.139545170108D-01 0.100000000000D+01
-.157430395389D-03 0.000000000000D+00 -.623711371814D-05 0.533664313222D-08 0.000000000000D+00  7 -1 1 24 -11 11 -24 21 2 0.27687755D-01 0.10453162D+00 0.63264669D+05 0.63264669D+05 0.63264669D+05 0.11384137D+01  1  2  5  1  7  1       -1 -.800141869563D-02 0.100000000000D+01
0.148250354040D-03 0.000000000000D+00 0.576421849732D-05 0.533664313222D-08 0.000000000000D+00  7 -1 1 24 -11 11 -24 21 2 0.18516131D-01 0.10453162D+00 0.63264669D+05 0.63264669D+05 0.63264669D+05 0.11384137D+01  1  2  6  1  7  1       -1 0.144167244624D-01 0.100000000000D+01
0.728632219742D-05 0.000000000000D+00 0.000000000000D+00 0.533664313222D-08 0.000000000000D+00  7 21 1 24 -11 11 -24 1 2 0.27608346D-01 0.10453162D+00 0.72333825D+05 0.72333825D+05 0.72333825D+05 0.11334508D+01  1  2 12  3  7  1       -1 0.413871175733D-02 0.100000000000D+01
-.731135165271D-05 0.000000000000D+00 -.298164061939D-06 0.533664313222D-08 0.000000000000D+00  7 21 1 24 -11 11 -24 1 2 0.27687755D-01 0.10453162D+00 0.63264669D+05 0.63264669D+05 0.63264669D+05 0.11384137D+01  1  2  5  3  7  1       -1 -.418878275162D-02 0.100000000000D+01
  </mgrwgt>
  </event>
  <event>
  9     66 0.29788925E-05 0.48330450E+03 0.75467711E-02 0.94428105E-01
       -1 -1    0    0    0  501 0.00000000E+00 0.00000000E+00 0.92628319E+02 0.92628872E+02 0.32000000E+00 0.0000E+00 0.9000E+01
        1 -1    0    0  502    0 0.00000000E+00 0.00000000E+00 -.33982646E+04 0.33982647E+04 0.32000000E+00 0.0000E+00 0.9000E+01
       25  2    1    2    0    0 0.44585153E+03 -.53803425E+02 -.10911851E+04 0.12176280E+04 0.30042423E+03 0.0000E+00 0.0000E+00
       23  2    1    2    0    0 -.42928519E+03 0.10037375E+03 -.21122493E+04 0.21597356E+04 0.92196199E+02 0.0000E+00 0.0000E+00
       24  1    3    3    0    0 0.43047959E+03 -.29428800E+02 -.78087844E+03 0.89577737E+03 0.80419002E+02 0.0000E+00 0.9000E+01
      -11  1    4    4    0    0 -.18461668E+03 0.69352371E+02 -.11244708E+04 0.11416338E+04 0.51099893E-03 0.0000E+00 0.9000E+01
       11  1    4    4    0    0 -.24466851E+03 0.31021379E+02 -.98777846E+03 0.10181018E+04 0.51099893E-03 0.0000E+00 0.9000E+01
      -24  1    3    3    0    0 0.15371944E+02 -.24374625E+02 -.31030662E+03 0.32185064E+03 0.80419002E+02 0.0000E+00 0.9000E+01
       21  1    1    2  502  501 -.16566347E+02 -.46570326E+02 -.10220200E+03 0.11352996E+03 0.75000000E+00 0.0000E+00 0.9000E+01
#aMCatNLO 2  0  0  2  2 0.49429132D+02 0.00000000D+00  -5  7  0 0.00000000D+00 0.00000000D+00 0.00000000D+00 0.00000000D+00 0.00000000D+00
  <mgrwgt>
 0.2290110625D-03    2    2    0
 0.534357095864067D+03 0.000000000000000D+00 0.000000000000000D+00 0.534357095864067D+03
 0.534357095864067D+03 0.000000000000000D+00 0.000000000000000D+00 -.534357095864067D+03
 0.484799474407574D+03 0.422930931161232D+03 -.506491407302274D+02 0.217088476068796D+03
 0.237081714535306D+03 -.188289043205878D+03 0.590288351107412D+02 -.131417549060559D+03
 0.259026343557619D+03 -.248660552417310D+03 0.197991885343587D+02 -.697894580988307D+02
 0.878066592276347D+02 0.140186644619558D+02 -.281788829148725D+02 -.158814689094060D+02
 0.000000000000000D+00 -.000000000000000D+00 -.000000000000000D+00 0.000000000000000D+00
 0.569765288121125D+03 0.000000000000000D+00 0.000000000000000D+00 0.569765288121125D+03
 0.552461710851868D+03 0.000000000000000D+00 0.000000000000000D+00 -.552461710851868D+03
 0.489666574961321D+03 0.430479590634782D+03 -.294288002646891D+02 0.217088476068796D+03
 0.236988693962440D+03 -.184616677111077D+03 0.693523712457089D+02 -.131417549060559D+03
 0.256311478994105D+03 -.244668510068782D+03 0.310213794525534D+02 -.697894580988307D+02
 0.868899073026176D+02 0.153719439248876D+02 -.243746245496546D+02 -.158814689094060D+02
 0.523703437525100D+02 -.165663473798102D+02 -.465703258839186D+02 0.173035772692568D+02
-.916446552300D-06 0.000000000000D+00 0.000000000000D+00 0.262077967566D-05 0.000000000000D+00  7 -1 1 24 -11 11 -24 21 2 0.13364886D-01 0.50567465D+00 0.23358324D+06 0.23358324D+06 0.23358324D+06 0.10926852D+01  1  2  8  2  7  2        1 -.184646163134D-05 0.100000000000D+01
0.157311475123D-03 0.000000000000D+00 0.000000000000D+00 0.262077967566D-05 0.680873326330D-08  7 -1 1 24 -11 11 -24 21 2 0.14250486D-01 0.52280747D+00 0.25888271D+06 0.25888271D+06 0.25888271D+06 0.10893202D+01  1  2  1  2  7  2        1 0.230857524101D-03 0.100000000000D+01
  </mgrwgt>
  </event>
  <event>
  8     66 0.29788925E-05 0.20039185E+03 0.75467711E-02 0.10035234E+00
       -1 -1    0    0    0  501 0.00000000E+00 0.00000000E+00 0.13323410E+03 0.13323449E+03 0.32000000E+00 0.0000E+00 0.9000E+01
        1 -1    0    0  501    0 0.00000000E+00 0.00000000E+00 -.77811840E+03 0.77811846E+03 0.32000000E+00 0.0000E+00 0.9000E+01
       25  2    1    2    0    0 -.57153708E+02 0.11885570E+03 -.98720581E+02 0.34197967E+03 0.29968503E+03 0.0000E+00 0.0000E+00
       23  2    1    2    0    0 0.57153708E+02 -.11885570E+03 -.54616371E+03 0.56937328E+03 0.92184086E+02 0.0000E+00 0.0000E+00
       24  1    3    3    0    0 -.95062043E+02 0.98104712E+02 -.16526957E+03 0.22900344E+03 0.80419002E+02 0.0000E+00 0.9000E+01
      -11  1    4    4    0    0 -.91637689E+01 -.64706370E+02 -.14309596E+03 0.15731288E+03 0.51099893E-03 0.0000E+00 0.9000E+01
       11  1    4    4    0    0 0.66317477E+02 -.54149332E+02 -.40306775E+03 0.41206040E+03 0.51099893E-03 0.0000E+00 0.9000E+01
      -24  1    3    3    0    0 0.37908334E+02 0.20750990E+02 0.66548992E+02 0.11297624E+03 0.80419002E+02 0.0000E+00 0.9000E+01
#aMCatNLO 1  0  0  2  2 0.21513005D+03 0.00000000D+00  -5  7  0 0.00000000D+00 0.00000000D+00 0.00000000D+00 0.00000000D+00 0.00000000D+00
  <mgrwgt>
 0.7178173368D-03    3    2    0
 0.321981541071295D+03 0.000000000000000D+00 0.000000000000000D+00 0.321981541071295D+03
 0.321981541071295D+03 0.000000000000000D+00 0.000000000000000D+00 -.321981541071295D+03
 0.158585498921009D+03 -.950620425500566D+02 0.981047123551656D+02 -.456267395024543D+01
 0.793325319127663D+02 -.916376889218007D+01 -.647063695660939D+02 -.449751230899579D+02
 0.179514012820969D+03 0.663174769856577D+02 -.541493323831054D+02 -.157781883775698D+03
 0.226531038487845D+03 0.379083344565790D+02 0.207509895940337D+02 0.207319680815902D+03
 0.000000000000000D+00 0.000000000000000D+00 -.000000000000000D+00 0.000000000000000D+00
 0.598990297687471D+03 0.000000000000000D+00 0.000000000000000D+00 0.598990297687471D+03
 0.384057417426865D+03 0.000000000000000D+00 0.000000000000000D+00 -.384057417426865D+03
 0.212285130323885D+03 -.143240372377418D+03 0.134384293464156D+03 -.456267395024543D+01
 0.730845292850370D+02 -.289636636982367D+02 -.497965150290059D+02 -.449751230899579D+02
 0.160686414955963D+03 0.221233911659803D+02 -.208699944156426D+02 -.157781883775698D+03
 0.232891192090287D+03 -.217733820489353D+02 0.656929309698405D+02 0.207319680815902D+03
 0.304100448459165D+03 0.171854026958610D+03 -.129410714989348D+03 0.214932880260606D+03
0.133523703275D-04 0.000000000000D+00 0.000000000000D+00 0.141625453922D-05 0.000000000000D+00  7 -1 1 24 -11 11 -24 21 0 0.20497589D-01 0.11971056D+00 0.40156892D+05 0.40156892D+05 0.40156892D+05 0.11557654D+01  1  2  2  2  7  2        1 0.697481238716D-03 0.100000000000D+01
-.538971122532D-06 0.000000000000D+00 -.512766178176D-07 0.141625453922D-05 0.000000000000D+00  7 -1 1 24 -11 11 -24 21 2 0.20497589D-01 0.11971056D+00 0.40156892D+05 0.40156892D+05 0.40156892D+05 0.11557654D+01  1  2  3  2  7  2        1 -.376078941501D-04 0.100000000000D+01
0.830414445273D-06 0.000000000000D+00 0.000000000000D+00 0.141625453922D-05 0.000000000000D+00  7 -1 1 24 -11 11 -24 21 2 0.20497589D-01 0.11971056D+00 0.40156892D+05 0.40156892D+05 0.40156892D+05 0.11557654D+01  1  2 15  2  7  2        1 0.579439922715D-04 0.100000000000D+01
  </mgrwgt>
  </event>
  <event>
  8     66 0.29788925E-05 0.18437652E+03 0.75467711E-02 0.90533678E-01
       -1 -1    0    0    0  501 0.00000000E+00 0.00000000E+00 0.26000016E+03 0.26000036E+03 0.32000000E+00 0.0000E+00 0.9000E+01
        1 -1    0    0  501    0 0.00000000E+00 0.00000000E+00 -.34729715E+03 0.34729730E+03 0.32000000E+00 0.0000E+00 0.9000E+01
       25  2    1    2    0    0 0.15280216E+01 0.26946117E+02 0.15979489E+03 0.34314911E+03 0.30247062E+03 0.0000E+00 0.0000E+00
       23  2    1    2    0    0 -.15280216E+01 -.26946117E+02 -.24709188E+03 0.26414855E+03 0.89395924E+02 0.0000E+00 0.0000E+00
       24  1    3    3    0    0 -.86837686E+02 -.78844204E+02 0.56349195E+02 0.15296941E+03 0.80419002E+02 0.0000E+00 0.9000E+01
      -13  1    4    4    0    0 -.26952777E+02 0.36229537E+01 -.20400298E+02 0.33996490E+02 0.10565837E+00 0.0000E+00 0.9000E+01
       13  1    4    4    0    0 0.25424756E+02 -.30569070E+02 -.22669158E+03 0.23015206E+03 0.10565837E+00 0.0000E+00 0.9000E+01
      -24  1    3    3    0    0 0.88365707E+02 0.10579032E+03 0.10344569E+03 0.19017970E+03 0.80419002E+02 0.0000E+00 0.9000E+01
#aMCatNLO 1  0  0  1  2 0.67604170D+03 0.00000000D+00  -5  7  0 0.00000000D+00 0.00000000D+00 0.00000000D+00 0.00000000D+00 0.00000000D+00
  <mgrwgt>
 0.1043585796D-02    3    2    0
 0.300495291129829D+03 0.000000000000000D+00 0.000000000000000D+00 0.300495291129829D+03
 0.300495291129829D+03 0.000000000000000D+00 0.000000000000000D+00 -.300495291129829D+03
 0.162759753650592D+03 -.868376857933815D+02 -.788442042495812D+02 0.791601492945228D+02
 0.313897803582594D+02 -.269528495710282D+02 0.362300116847554D+01 -.156759712131185D+02
 0.199639493449728D+03 0.254248279973852D+02 -.305691180223461D+02 -.195640063610456D+03
 0.207201554801079D+03 0.883657073670244D+02 0.105790321103452D+03 0.132155885529052D+03
 0.000000000000000D+00 -.000000000000000D+00 0.000000000000000D+00 -.000000000000000D+00
 0.503994419232508D+03 0.000000000000000D+00 0.000000000000000D+00 0.503994419232508D+03
 0.266160359038610D+04 0.000000000000000D+00 0.000000000000000D+00 -.266160359038610D+04
 0.316173969055883D+03 -.510585652018700D+02 -.290904548670823D+03 0.791601492945228D+02
 0.381822761682429D+02 -.217554143472263D+02 -.271818337588536D+02 -.156759712131185D+02
 0.339144665441992D+03 0.656751225158972D+02 -.269129797478428D+03 -.195640063610456D+03
 0.211055366792179D+03 0.119611919789387D+03 -.794037937490404D+02 0.132155885529052D+03
 0.226104173216031D+04 -.112473062756188D+03 0.666619973657145D+03 -.215760917115359D+04
0.189583470635D-04 0.000000000000D+00 0.000000000000D+00 0.565530239356D-07 0.000000000000D+00  7 -1 1 24 -13 13 -24 21 0 0.40000051D-01 0.53430358D-01 0.33994702D+05 0.33994702D+05 0.33994702D+05 0.11623321D+01  1  2  2  1  7  1       -1 0.101277916870D-02 0.100000000000D+01
-.747711804640D-06 0.000000000000D+00 -.728050445712D-07 0.565530239356D-07 0.000000000000D+00  7 -1 1 24 -13 13 -24 21 2 0.40000051D-01 0.53430358D-01 0.33994702D+05 0.33994702D+05 0.33994702D+05 0.11623321D+01  1  2  3  1  7  1       -1 -.539646009732D-04 0.100000000000D+01
0.117455604248D-05 0.000000000000D+00 0.000000000000D+00 0.565530239356D-07 0.000000000000D+00  7 -1 1 24 -13 13 -24 21 2 0.40000051D-01 0.53430358D-01 0.33994702D+05 0.33994702D+05 0.33994702D+05 0.11623321D+01  1  2 15  1  7  1       -1 0.847712283791D-04 0.100000000000D+01
  </mgrwgt>
  </event>
  <event>
  8     66 0.29788925E-05 0.83715784E+03 0.75467711E-02 0.85000765E-01
       -1 -1    0    0    0  501 0.00000000E+00 0.00000000E+00 0.89591424E+03 0.89591430E+03 0.32000000E+00 0.0000E+00 0.9000E+01
        1 -1    0    0  501    0 0.00000000E+00 0.00000000E+00 -.84222364E+03 0.84222370E+03 0.32000000E+00 0.0000E+00 0.9000E+01
       25  2    1    2    0    0 -.78009276E+03 -.25220624E+03 0.21138794E+03 0.89825872E+03 0.30005192E+03 0.0000E+00 0.0000E+00
       23  2    1    2    0    0 0.78009276E+03 0.25220624E+03 -.15769735E+03 0.83987929E+03 0.91520809E+02 0.0000E+00 0.0000E+00
       24  1    3    3    0    0 -.49788076E+03 -.79099592E+02 0.22364352E+03 0.55733799E+03 0.80419002E+02 0.0000E+00 0.9000E+01
      -11  1    4    4    0    0 0.20502721E+03 0.32887506E+02 -.64225175E+02 0.21735367E+03 0.51099893E-03 0.0000E+00 0.9000E+01
       11  1    4    4    0    0 0.57506555E+03 0.21931873E+03 -.93472170E+02 0.62252562E+03 0.51099893E-03 0.0000E+00 0.9000E+01
      -24  1    3    3    0    0 -.28221200E+03 -.17310665E+03 -.12255574E+02 0.34092072E+03 0.80419002E+02 0.0000E+00 0.9000E+01
#aMCatNLO 1  0  0  1  2 0.74390185D+03 0.00000000D+00  -5  7  0 0.00000000D+00 0.00000000D+00 0.00000000D+00 0.00000000D+00 0.00000000D+00
  <mgrwgt>
 0.5494741118D-03    5    2    0
 0.868654280609750D+03 0.000000000000000D+00 0.000000000000000D+00 0.868654280609750D+03
 0.868654280609750D+03 0.000000000000000D+00 0.000000000000000D+00 -.868654280609750D+03
 0.550692497383479D+03 -.497880761576427D+03 -.790995923634924D+02 0.206526057581336D+03
 0.219442285015892D+03 0.205027208625019D+03 0.328875059403789D+02 -.709730380457987D+02
 0.625711537455344D+03 0.575065553365473D+03 0.219318734893219D+03 -.112755620534100D+03
 0.341462241364785D+03 -.282212000414066D+03 -.173106648470106D+03 -.227973990014371D+02
 0.000000000000000D+00 0.000000000000000D+00 -.000000000000000D+00 0.000000000000000D+00
 0.148465275860891D+04 0.000000000000000D+00 0.000000000000000D+00 0.148465275860891D+04
 0.120127239998678D+04 0.000000000000000D+00 0.000000000000000D+00 -.120127239998678D+04
 0.609053566456887D+03 -.546043485368984D+03 0.153826299719802D+03 0.206526057581336D+03
 0.234727021170891D+03 0.186166156597390D+03 0.124103845532947D+03 -.709730380457987D+02
 0.722764887742374D+03 0.519065106687939D+03 0.490149638386334D+03 -.112755620534100D+03
 0.323330445841107D+03 -.309819963546257D+03 -.395882563445715D+02 -.227973990014371D+02
 0.796049237384434D+03 0.150632185629911D+03 -.728491527294512D+03 0.283380358622125D+03
0.520221156499D-03 0.000000000000D+00 0.000000000000D+00 0.147274881165D-04 0.000000000000D+00  7 -1 1 24 -11 11 -24 21 0 0.13783297D+00 0.12957288D+00 0.70083324D+06 0.70083324D+06 0.70083324D+06 0.10582981D+01  1  2  2  1  7  1       -1 0.556722939305D-03 0.100000000000D+01
-.288532443749D-04 0.000000000000D+00 -.199778621833D-05 0.147274881165D-04 0.000000000000D+00  7 -1 1 24 -11 11 -24 21 2 0.13783297D+00 0.12957288D+00 0.70083324D+06 0.70083324D+06 0.70083324D+06 0.10582981D+01  1  2  3  1  7  1       -1 -.345829325625D-04 0.100000000000D+01
0.328312518106D-04 0.000000000000D+00 0.000000000000D+00 0.147274881165D-04 0.000000000000D+00  7 -1 1 24 -11 11 -24 21 2 0.13783297D+00 0.12957288D+00 0.70083324D+06 0.70083324D+06 0.70083324D+06 0.10582981D+01  1  2 15  1  7  1       -1 0.393508942204D-04 0.100000000000D+01
-.144905490836D-03 0.000000000000D+00 -.147213411557D-03 0.147274881165D-04 0.000000000000D+00  7 -1 1 24 -11 11 -24 21 2 0.28329468D+00 0.12957288D+00 0.70083324D+06 0.70083324D+06 0.70083324D+06 0.10582981D+01  1  2  5  1  7  1       -1 -.106605838308D-04 0.100000000000D+01
-.228168408305D-05 0.000000000000D+00 -.114684157081D-04 0.147274881165D-04 0.000000000000D+00  7 21 1 24 -11 11 -24 1 2 0.28329468D+00 0.12957288D+00 0.70083324D+06 0.70083324D+06 0.70083324D+06 0.10582981D+01  1  2  5  3  7  1       -1 -.135620533238D-05 0.100000000000D+01
  </mgrwgt>
  </event>
  <event>
  9     66 -.29788925E-05 0.71492637E+03 0.75467711E-02 0.90421050E-01
       -1 -1    0    0    0  502 0.00000000E+00 0.00000000E+00 0.10845694E+04 0.10845694E+04 0.32000000E+00 0.0000E+00 0.9000E+01
        1 -1    0    0  501    0 0.00000000E+00 0.00000000E+00 -.64851167E+03 0.64851175E+03 0.32000000E+00 0.0000E+00 0.9000E+01
       25  2    1    2    0    0 -.54775391E+03 0.47370151E+03 0.57901705E+03 0.97464540E+03 0.30040879E+03 0.0000E+00 0.0000E+00
       23  2    1    2    0    0 0.52245857E+03 -.43850671E+03 -.16818826E+03 0.70828012E+03 0.90124039E+02 0.0000E+00 0.0000E+00
       24  1    3    3    0    0 -.31490280E+03 0.21780978E+03 0.15329834E+03 0.42020527E+03 0.80419002E+02 0.0000E+00 0.9000E+01
      -13  1    4    4    0    0 0.44736096E+03 -.40098309E+03 -.12407155E+03 0.61344358E+03 0.10565837E+00 0.0000E+00 0.9000E+01
       13  1    4    4    0    0 0.75097615E+02 -.37523613E+02 -.44116707E+02 0.94836535E+02 0.10565837E+00 0.0000E+00 0.9000E+01
      -24  1    3    3    0    0 -.23285111E+03 0.25589173E+03 0.42571872E+03 0.55444013E+03 0.80419002E+02 0.0000E+00 0.9000E+01
       21  1    1    2  501  502 0.25295337E+02 -.35194803E+02 0.25228894E+02 0.50155636E+02 0.75000000E+00 0.0000E+00 0.9000E+01
#aMCatNLO 2  0  0  1  2 0.43341992D+02 0.00000000D+00  -5  7  0 0.00000000D+00 0.00000000D+00 0.00000000D+00 0.00000000D+00 0.00000000D+00
  <mgrwgt>
 -.1635731231D-03    3    2    0
 0.815717392437561D+03 0.000000000000000D+00 0.000000000000000D+00 0.815717392437561D+03
 0.815717392437561D+03 0.000000000000000D+00 0.000000000000000D+00 -.815717392437561D+03
 0.385282609516868D+03 -.308856871568317D+03 0.209397747515932D+03 0.523019068681365D+02
 0.679636091399902D+03 0.457774711287571D+03 -.415472117562687D+03 -.282365808778071D+03
 0.110912320435594D+03 0.768008937249143D+02 -.398936917819674D+02 -.693661221596506D+02
 0.455603763522757D+03 -.225718733444168D+03 0.245968061828723D+03 0.299430024069585D+03
 0.000000000000000D+00 0.000000000000000D+00 -.000000000000000D+00 0.000000000000000D+00
 0.845381915189391D+03 0.000000000000000D+00 0.000000000000000D+00 0.845381915189391D+03
 0.831991750343952D+03 0.000000000000000D+00 0.000000000000000D+00 -.831991750343952D+03
 0.394724684956781D+03 -.314902797286548D+03 0.217809778841364D+03 0.523019068681365D+02
 0.663815166124306D+03 0.447361466992802D+03 -.400983594003288D+03 -.282365808778071D+03
 0.108900035926822D+03 0.750971030194527D+02 -.375231134033569D+02 -.693661221596506D+02
 0.464570525194987D+03 -.232851109560173D+03 0.255891731769238D+03 0.299430024069585D+03
 0.453632533304473D+02 0.252953368344656D+02 -.351948032039566D+02 0.133901648454390D+02
-.811577431763D-03 0.000000000000D+00 0.000000000000D+00 0.696364727240D-05 0.000000000000D+00  7 -1 1 24 -13 13 -24 21 2 0.16841668D+00 0.97819080D-01 0.54353966D+06 0.54353966D+06 0.54353966D+06 0.10659570D+01  1  2 13  1  7  1       -1 -.862331123742D-03 0.100000000000D+01
-.540051826285D-03 0.000000000000D+00 0.000000000000D+00 0.696364727240D-05 0.000000000000D+00  7 -1 1 24 -13 13 -24 21 2 0.16100122D+00 0.97819080D-01 0.51111971D+06 0.51111971D+06 0.51111971D+06 0.10678359D+01  1  2  8  1  7  1       -1 -.665251809185D-03 0.100000000000D+01
0.128375562710D-02 0.000000000000D+00 0.000000000000D+00 0.696364727240D-05 0.224926006032D-07  7 -1 1 24 -13 13 -24 21 2 0.16685622D+00 0.99770666D-01 0.54353966D+06 0.54353966D+06 0.54353966D+06 0.10659570D+01  1  2  1  1  7  1       -1 0.136400980983D-02 0.100000000000D+01
  </mgrwgt>
  </event>
  <event>
  8     66 0.29788925E-05 0.25703629E+03 0.75467711E-02 0.10216691E+00
       -1 -1    0    0    0  501 0.00000000E+00 0.00000000E+00 0.11543011E+03 0.11543055E+03 0.32000000E+00 0.0000E+00 0.9000E+01
        1 -1    0    0  501    0 0.00000000E+00 0.00000000E+00 -.62496892E+03 0.62496900E+03 0.32000000E+00 0.0000E+00 0.9000E+01
       25  2    1    2    0    0 0.56210966E+00 0.16393731E+03 -.38775219E+03 0.51649131E+03 0.29922526E+03 0.0000E+00 0.0000E+00
       23  2    1    2    0    0 -.56210966E+00 -.16393731E+03 -.12178662E+03 0.22390824E+03 0.91799584E+02 0.0000E+00 0.0000E+00
       24  1    3    3    0    0 0.51873031E+02 0.20233694E+03 -.18998041E+03 0.29358273E+03 0.80419002E+02 0.0000E+00 0.9000E+01
      -11  1    4    4    0    0 0.38618480E+02 -.12988034E+03 -.80772427E+02 0.15774814E+03 0.51099893E-03 0.0000E+00 0.9000E+01
       11  1    4    4    0    0 -.39180590E+02 -.34056968E+02 -.41014190E+02 0.66160105E+02 0.51099893E-03 0.0000E+00 0.9000E+01
      -24  1    3    3    0    0 -.51310921E+02 -.38399627E+02 -.19777178E+03 0.22290858E+03 0.80419002E+02 0.0000E+00 0.9000E+01
#aMCatNLO 1  0  0  2  2 0.26285642D+02 0.00000000D+00  -5  7  0 0.00000000D+00 0.00000000D+00 0.00000000D+00 0.00000000D+00 0.00000000D+00
  <mgrwgt>
 0.4563317202D-03    4    2    0
 0.268589696624135D+03 0.000000000000000D+00 0.000000000000000D+00 0.268589696624135D+03
 0.268589696624135D+03 0.000000000000000D+00 0.000000000000000D+00 -.268589696624135D+03
 0.224442953737399D+03 0.518730307210649D+02 0.202336935231307D+03 0.166245857996856D+02
 0.140809504455804D+03 0.386184799300183D+02 -.129880340650101D+03 0.383017841046280D+02
 0.522853086835623D+02 -.391805895923977D+02 -.340569679875186D+02 0.622557907544554D+01
 0.119641626371505D+03 -.513109210586855D+02 -.383996265936872D+02 -.611519489797591D+02
 0.000000000000000D+00 0.000000000000000D+00 -.000000000000000D+00 0.000000000000000D+00
 0.354275953107595D+03 0.000000000000000D+00 0.000000000000000D+00 0.354275953107595D+03
 0.270934536494835D+03 0.000000000000000D+00 0.000000000000000D+00 -.270934536494835D+03
 0.233140621226205D+03 0.480343882926017D+02 0.212846550358973D+03 0.166245857996856D+02
 0.134359998264970D+03 0.363100987162759D+02 -.123560346387421D+03 0.383017841046280D+02
 0.514402758918326D+02 -.400507375864552D+02 -.316746360323860D+02 0.622557907544554D+01
 0.118881227166562D+03 -.533118756292733D+02 -.329213194013079D+02 -.611519489797591D+02
 0.873883670528606D+02 0.901812620685089D+01 -.246902485378582D+02 0.833414166127597D+02
0.533340499725D-05 0.000000000000D+00 0.000000000000D+00 0.207524388263D-06 0.000000000000D+00  7 -1 1 24 -11 11 -24 21 0 0.17758519D-01 0.96149104D-01 0.66067653D+05 0.66067653D+05 0.66067653D+05 0.11368004D+01  1  2  2  2  7  2        1 0.482985095237D-03 0.100000000000D+01
-.295603843454D-06 0.000000000000D+00 -.204816795072D-07 0.207524388263D-06 0.000000000000D+00  7 -1 1 24 -11 11 -24 21 2 0.17758519D-01 0.96149104D-01 0.66067653D+05 0.66067653D+05 0.66067653D+05 0.11368004D+01  1  2  3  2  7  2        1 -.345945463018D-04 0.100000000000D+01
0.340713518961D-06 0.000000000000D+00 0.000000000000D+00 0.207524388263D-06 0.000000000000D+00  7 -1 1 24 -11 11 -24 21 2 0.17758519D-01 0.96149104D-01 0.66067653D+05 0.66067653D+05 0.66067653D+05 0.11368004D+01  1  2 15  2  7  2        1 0.398737359759D-04 0.100000000000D+01
-.272857715281D-06 0.000000000000D+00 0.000000000000D+00 0.207524388263D-06 0.000000000000D+00  7 -1 1 24 -11 11 -24 21 2 0.17758519D-01 0.96149104D-01 0.66067653D+05 0.66067653D+05 0.66067653D+05 0.11368004D+01  1  2  4  2  7  2        1 -.319325647286D-04 0.100000000000D+01
  </mgrwgt>
  </event>
  <event>
  8     66 0.29788925E-05 0.22608422E+03 0.75467711E-02 0.93400961E-01
       -1 -1    0    0    0  501 0.00000000E+00 0.00000000E+00 0.11646168E+03 0.11646212E+03 0.32000000E+00 0.0000E+00 0.9000E+01
        1 -1    0    0  501    0 0.00000000E+00 0.00000000E+00 -.50513422E+03 0.50513432E+03 0.32000000E+00 0.0000E+00 0.9000E+01
       25  2    1    2    0    0 0.78555081E+01 -.11404351E+03 -.18459165E+03 0.36999191E+03 0.29958689E+03 0.0000E+00 0.0000E+00
       23  2    1    2    0    0 -.78555081E+01 0.11404351E+03 -.20408089E+03 0.25160453E+03 0.92672537E+02 0.0000E+00 0.0000E+00
       24  1    3    3    0    0 0.11909140E+03 -.14526691E+02 -.12267052E+03 0.18949686E+03 0.80419002E+02 0.0000E+00 0.9000E+01
      -11  1    4    4    0    0 -.42205335E+02 0.76035736E+02 -.83363959E+02 0.12046690E+03 0.51099893E-03 0.0000E+00 0.9000E+01
       11  1    4    4    0    0 0.34349827E+02 0.38007771E+02 -.12071693E+03 0.13113763E+03 0.51099893E-03 0.0000E+00 0.9000E+01
      -24  1    3    3    0    0 -.11123589E+03 -.99516816E+02 -.61921138E+02 0.18049505E+03 0.80419002E+02 0.0000E+00 0.9000E+01
#aMCatNLO 1  0  0  2  2 0.46588391D+03 0.00000000D+00  -5  7  0 0.00000000D+00 0.00000000D+00 0.00000000D+00 0.00000000D+00 0.00000000D+00
  <mgrwgt>
 0.5295695225D-03    3    2    0
 0.242546792036786D+03 0.000000000000000D+00 0.000000000000000D+00 0.242546792036786D+03
 0.242546792036786D+03 0.000000000000000D+00 0.000000000000000D+00 -.242546792036786D+03
 0.144532748156407D+03 0.119091401888508D+03 -.145266914509586D+02 -.535841086435328D+01
 0.875717865500626D+02 -.422053353789109D+02 0.760357362531441D+02 -.103002076467271D+02
 0.713168142403046D+02 0.343498273223723D+02 0.380077712699511D+02 -.496143797643425D+02
 0.181672235126798D+03 -.111235893831970D+03 -.995168160721366D+02 0.652729982754229D+02
 0.000000000000000D+00 0.000000000000000D+00 -.000000000000000D+00 0.000000000000000D+00
 0.706189761302576D+03 0.000000000000000D+00 0.000000000000000D+00 0.706189761302576D+03
 0.482983544340986D+03 0.000000000000000D+00 0.000000000000000D+00 -.482983544340986D+03
 0.949542271378904D+02 0.362521867123171D+02 0.347297522099947D+02 -.535841086435328D+01
 0.193579676437245D+03 -.139456413484039D+03 0.133861516464410D+03 -.103002076467271D+02
 0.891805921855623D+02 -.211666748581519D+02 0.710180485413142D+02 -.496143797643425D+02
 0.294865317998485D+03 -.276071567481320D+03 -.150503439173647D+01 0.652729982754229D+02
 0.516593491884380D+03 0.400442469111194D+03 -.238104282823982D+03 0.223206216961590D+03
0.434644969467D-05 0.000000000000D+00 0.000000000000D+00 0.204109527321D-06 0.000000000000D+00  7 -1 1 24 -11 11 -24 21 0 0.17917223D-01 0.77712999D-01 0.51114076D+05 0.51114076D+05 0.51114076D+05 0.11464545D+01  1  2  2  2  7  2        1 0.523259227151D-03 0.100000000000D+01
-.240019005815D-06 0.000000000000D+00 -.166915112740D-07 0.204109527321D-06 0.000000000000D+00  7 -1 1 24 -11 11 -24 21 2 0.17917223D-01 0.77712999D-01 0.51114076D+05 0.51114076D+05 0.51114076D+05 0.11464545D+01  1  2  3  2  7  2        1 -.379788257800D-04 0.100000000000D+01
0.279898880275D-06 0.000000000000D+00 0.000000000000D+00 0.204109527321D-06 0.000000000000D+00  7 -1 1 24 -11 11 -24 21 2 0.17917223D-01 0.77712999D-01 0.51114076D+05 0.51114076D+05 0.51114076D+05 0.11464545D+01  1  2 15  2  7  2        1 0.442891210799D-04 0.100000000000D+01
  </mgrwgt>
  </event>
  <event>
  8     66 0.29788925E-05 0.30490460E+03 0.75467711E-02 0.97881056E-01
       -1 -1    0    0    0  501 0.00000000E+00 0.00000000E+00 0.18707070E+03 0.18707097E+03 0.32000000E+00 0.0000E+00 0.9000E+01
        1 -1    0    0  501    0 0.00000000E+00 0.00000000E+00 -.57622290E+03 0.57622299E+03 0.32000000E+00 0.0000E+00 0.9000E+01
       25  2    1    2    0    0 -.65007184E+02 0.22601912E+03 -.12938708E+03 0.40247942E+03 0.29989681E+03 0.0000E+00 0.0000E+00
       23  2    1    2    0    0 0.65007184E+02 -.22601912E+03 -.25976512E+03 0.36081454E+03 0.86015327E+02 0.0000E+00 0.0000E+00
       24  1    3    3    0    0 -.43444729E+01 -.34130484E+02 0.14376617E+02 0.88643485E+02 0.80419002E+02 0.0000E+00 0.9000E+01
      -13  1    4    4    0    0 -.12056868E+02 -.45861266E+02 -.20792819E+02 0.51778144E+02 0.10565837E+00 0.0000E+00 0.9000E+01
       13  1    4    4    0    0 0.77064052E+02 -.18015785E+03 -.23897230E+03 0.30903639E+03 0.10565837E+00 0.0000E+00 0.9000E+01
      -24  1    3    3    0    0 -.60662711E+02 0.26014960E+03 -.14376369E+03 0.31383594E+03 0.80419002E+02 0.0000E+00 0.9000E+01
#aMCatNLO 1  0  0  2  2 0.13706024D+03 0.00000000D+00  -5  7  0 0.00000000D+00 0.00000000D+00 0.00000000D+00 0.00000000D+00 0.00000000D+00
  <mgrwgt>
 0.9386995411D-03    4    2    0
 0.328320817197436D+03 0.000000000000000D+00 0.000000000000000D+00 0.328320817197436D+03
 0.328320817197436D+03 0.000000000000000D+00 0.000000000000000D+00 -.328320817197436D+03
 0.111561200519884D+03 -.434447293745350D+01 -.341304837685189D+02 0.692453690847970D+02
 0.478650810202908D+02 -.120570009842777D+02 -.458610627959189D+02 0.651595177797678D+01
 0.217606037220295D+03 0.770641852915451D+02 -.180158055452606D+03 -.946391770653494D+02
 0.279609315634403D+03 -.606627113698139D+02 0.260149602017044D+03 0.188778562025756D+02
 0.000000000000000D+00 -.000000000000000D+00 -.000000000000000D+00 0.000000000000000D+00
 0.512288701621466D+03 0.000000000000000D+00 0.000000000000000D+00 0.512288701621466D+03
 0.361946086708210D+03 0.000000000000000D+00 0.000000000000000D+00 -.361946086708210D+03
 0.107601707478052D+03 0.859029680099888D+01 -.155626848262965D+02 0.692453690847970D+02
 0.396035660899906D+02 -.689469126663101D+01 -.384505923466619D+02 0.651595177797678D+01
 0.200634883610996D+03 0.101748334884057D+03 -.144724078972067D+03 -.946391770653494D+02
 0.322953212602398D+03 -.251000898160054D+02 0.311199571998842D+03 0.188778562025756D+02
 0.203441418548241D+03 -.783438506024198D+02 -.112462215853817D+03 0.150342614913256D+03
0.228346708724D-04 0.000000000000D+00 0.000000000000D+00 0.136099885787D-06 0.000000000000D+00  7 -1 1 24 -13 13 -24 21 0 0.28780136D-01 0.88649704D-01 0.92966812D+05 0.92966812D+05 0.92966812D+05 0.11243304D+01  1  2  2  2  7  2        1 0.106145556598D-02 0.100000000000D+01
-.126014826905D-05 0.000000000000D+00 -.876911486568D-07 0.136099885787D-06 0.000000000000D+00  7 -1 1 24 -13 13 -24 21 2 0.28780136D-01 0.88649704D-01 0.92966812D+05 0.92966812D+05 0.92966812D+05 0.11243304D+01  1  2  3  2  7  2        1 -.740485604774D-04 0.100000000000D+01
0.147934425277D-05 0.000000000000D+00 0.000000000000D+00 0.136099885787D-06 0.000000000000D+00  7 -1 1 24 -13 13 -24 21 2 0.28780136D-01 0.88649704D-01 0.92966812D+05 0.92966812D+05 0.92966812D+05 0.11243304D+01  1  2 15  2  7  2        1 0.869289075407D-04 0.100000000000D+01
-.230824121724D-05 0.000000000000D+00 0.000000000000D+00 0.136099885787D-06 0.000000000000D+00  7 -1 1 24 -13 13 -24 21 2 0.28780136D-01 0.88649704D-01 0.92966812D+05 0.92966812D+05 0.92966812D+05 0.11243304D+01  1  2  4  2  7  2        1 -.135636371980D-03 0.100000000000D+01
  </mgrwgt>
  </event>
  <event>
  9     66 0.29788925E-05 0.42099603E+03 0.75467711E-02 0.95839589E-01
       -1 -1    0    0    0  502 0.00000000E+00 0.00000000E+00 0.25224036E+03 0.25224056E+03 0.32000000E+00 0.0000E+00 0.9000E+01
        1 -1    0    0  501    0 0.00000000E+00 0.00000000E+00 -.13380609E+04 0.13380610E+04 0.32000000E+00 0.0000E+00 0.9000E+01
       25  2    1    2    0    0 -.27733983E+03 -.22664492E+03 -.68557437E+02 0.47190276E+03 0.29951092E+03 0.0000E+00 0.0000E+00
       23  2    1    2    0    0 0.27469813E+03 0.28402063E+03 -.92081868E+03 0.10061444E+04 0.91064357E+02 0.0000E+00 0.0000E+00
       24  1    3    3    0    0 -.10742450E+03 0.15213967E+02 -.93970083E+02 0.16452684E+03 0.80419002E+02 0.0000E+00 0.9000E+01
      -13  1    4    4    0    0 0.10511841E+03 0.15742556E+03 -.36014220E+03 0.40686005E+03 0.10565837E+00 0.0000E+00 0.9000E+01
       13  1    4    4    0    0 0.16957972E+03 0.12659507E+03 -.56067649E+03 0.59928435E+03 0.10565837E+00 0.0000E+00 0.9000E+01
      -24  1    3    3    0    0 -.16991533E+03 -.24185888E+03 0.25412647E+02 0.30737592E+03 0.80419002E+02 0.0000E+00 0.9000E+01
       21  1    1    2  501  502 0.26416976E+01 -.57375715E+02 -.96444459E+02 0.11225439E+03 0.75000000E+00 0.0000E+00 0.9000E+01
#aMCatNLO 2  0  0  1  2 0.57436497D+02 0.00000000D+00  -5  7  0 0.00000000D+00 0.00000000D+00 0.00000000D+00 0.00000000D+00 0.00000000D+00
  <mgrwgt>
 0.2459949187D-03    1    2    0
 0.548283534245619D+03 0.000000000000000D+00 0.000000000000000D+00 0.548283534245619D+03
 0.548283534245619D+03 0.000000000000000D+00 0.000000000000000D+00 -.548283534245619D+03
 0.135924173107742D+03 -.107096228978577D+03 0.808419875459406D+01 0.217533526086723D+02
 0.215479222020408D+03 0.105646308352851D+03 0.145958074569737D+03 -.118179495352746D+03
 0.295682060738870D+03 0.170298621706771D+03 0.110982955774478D+03 -.214730165591887D+03
 0.449481612624217D+03 -.168848701081046D+03 -.265025229098809D+03 0.311156308335961D+03
 0.000000000000000D+00 0.000000000000000D+00 -.000000000000000D+00 -.000000000000000D+00
 0.566795849480105D+03 0.000000000000000D+00 0.000000000000000D+00 0.566795849480105D+03
 0.595471180989690D+03 0.000000000000000D+00 0.000000000000000D+00 -.595471180989690D+03
 0.136791490822903D+03 -.107424498398757D+03 0.152139673077045D+02 0.217533526086723D+02
 0.223157064233350D+03 0.105118319321040D+03 0.157425605091858D+03 -.118179495352746D+03
 0.301484090274506D+03 0.169579809360905D+03 0.126595027274558D+03 -.214730165591887D+03
 0.436637610584365D+03 -.169915327909226D+03 -.241858884779306D+03 0.311156308335961D+03
 0.641967745546703D+02 0.264169762603831D+01 -.573757148948155D+02 -.286753315095850D+02
0.306447310885D-04 0.000000000000D+00 0.000000000000D+00 0.424204870749D-05 0.830467407800D-08  7 -1 1 24 -13 13 -24 21 2 0.38806080D-01 0.20585476D+00 0.20237738D+06 0.20237738D+06 0.20237738D+06 0.10974315D+01  1  2  1  1  7  1       -1 0.245994918721D-03 0.100000000000D+01
  </mgrwgt>
  </event>
  <event>
  8     66 0.29788925E-05 0.41340384E+03 0.75467711E-02 0.96707171E-01
       -1 -1    0    0    0  501 0.00000000E+00 0.00000000E+00 0.76176225E+03 0.76176232E+03 0.32000000E+00 0.0000E+00 0.9000E+01
        1 -1    0    0  501    0 0.00000000E+00 0.00000000E+00 -.52491315E+03 0.52491325E+03 0.32000000E+00 0.0000E+00 0.9000E+01
       25  2    1    2    0    0 0.34237986E+03 -.13458675E+03 0.59808201E+03 0.76328946E+03 0.29928438E+03 0.0000E+00 0.0000E+00
       23  2    1    2    0    0 -.34237986E+03 0.13458675E+03 -.36123291E+03 0.52338611E+03 0.90034658E+02 0.0000E+00 0.0000E+00
       24  1    3    3    0    0 0.63530788E+02 0.39641228E+02 0.27166629E+03 0.29304842E+03 0.80419002E+02 0.0000E+00 0.9000E+01
      -11  1    4    4    0    0 -.18311854E+03 0.11903584E+03 -.19792374E+03 0.29474690E+03 0.51099893E-03 0.0000E+00 0.9000E+01
       11  1    4    4    0    0 -.15926132E+03 0.15550904E+02 -.16330917E+03 0.22863921E+03 0.51099893E-03 0.0000E+00 0.9000E+01
      -24  1    3    3    0    0 0.27884907E+03 -.17422798E+03 0.32641572E+03 0.47024104E+03 0.80419002E+02 0.0000E+00 0.9000E+01
#aMCatNLO 1  0  0  2  2 0.88159702D+01 0.00000000D+00  -5  7  0 0.00000000D+00 0.00000000D+00 0.00000000D+00 0.00000000D+00 0.00000000D+00
  <mgrwgt>
 0.6441840109D-03    6    2    0
 0.632344153027605D+03 0.000000000000000D+00 0.000000000000000D+00 0.632344153027605D+03
 0.632344153027605D+03 0.000000000000000D+00 0.000000000000000D+00 -.632344153027605D+03
 0.247265924749903D+03 0.635307877541905D+02 0.396412280245560D+02 0.221507637873034D+03
 0.336938117006056D+03 -.183118536205790D+03 0.119035843548606D+03 -.256564542250303D+03
 0.263198534787580D+03 -.159261323614390D+03 0.155509039841427D+02 -.208967626440551D+03
 0.417285729511671D+03 0.278849072065989D+03 -.174227975557304D+03 0.244024530817819D+03
 0.000000000000000D+00 0.000000000000000D+00 0.000000000000000D+00 0.000000000000000D+00
 0.790482834989819D+03 0.000000000000000D+00 0.000000000000000D+00 0.790482834989819D+03
 0.632482397453272D+03 0.000000000000000D+00 0.000000000000000D+00 -.632482397453272D+03
 0.246750320658057D+03 0.621064703671439D+02 0.386737313033993D+02 0.221507637873034D+03
 0.337535975809549D+03 -.185063138607916D+03 0.117714932587944D+03 -.256564542250303D+03
 0.264062374169013D+03 -.160781489979601D+03 0.145182998838700D+02 -.208967626440551D+03
 0.416370362509829D+03 0.276445525871465D+03 -.175860633477161D+03 0.244024530817819D+03
 0.158246199296642D+03 0.729263234890829D+01 0.495366970194726D+01 0.158000437536547D+03
0.179172758200D-03 0.000000000000D+00 0.000000000000D+00 0.157087189381D-05 0.000000000000D+00  7 -1 1 24 -11 11 -24 21 0 0.11719420D+00 0.80755882D-01 0.17090273D+06 0.17090273D+06 0.17090273D+06 0.11031084D+01  1  2  2  2  7  2        1 0.637840758946D-03 0.100000000000D+01
-.776790733481D-05 0.000000000000D+00 -.688070568760D-06 0.157087189381D-05 0.000000000000D+00  7 -1 1 24 -11 11 -24 21 2 0.11719420D+00 0.80755882D-01 0.17090273D+06 0.17090273D+06 0.17090273D+06 0.11031084D+01  1  2  3  2  7  2        1 -.336496599334D-04 0.100000000000D+01
0.109290760593D-04 0.000000000000D+00 0.000000000000D+00 0.157087189381D-05 0.000000000000D+00  7 -1 1 24 -11 11 -24 21 2 0.11719420D+00 0.80755882D-01 0.17090273D+06 0.17090273D+06 0.17090273D+06 0.11031084D+01  1  2 15  2  7  2        1 0.473434706323D-04 0.100000000000D+01
-.169899548780D-05 0.000000000000D+00 0.000000000000D+00 0.157087189381D-05 0.000000000000D+00  7 -1 1 24 -11 11 -24 21 2 0.11719420D+00 0.80755882D-01 0.17090273D+06 0.17090273D+06 0.17090273D+06 0.11031084D+01  1  2  4  2  7  2        1 -.735984840298D-05 0.100000000000D+01
0.716661884607D-09 0.000000000000D+00 0.000000000000D+00 0.157087189381D-05 0.134514610709D-06  7 -1 1 24 -11 11 -24 21 2 0.14650251D+00 0.80773537D-01 0.17458503D+06 0.17458503D+06 0.17458503D+06 0.11023875D+01  1  2 11  2  7  2        1 0.173546295794D-08 0.100000000000D+01
0.110793513204D-08 0.000000000000D+00 0.000000000000D+00 0.157087189381D-05 0.629440858648D-11  7 -1 21 24 -11 11 -24 -1 2 0.14650251D+00 0.80773537D-01 0.17458503D+06 0.17458503D+06 0.17458503D+06 0.11023875D+01  1  2 11  4  7  2        1 0.755418117368D-08 0.100000000000D+01
  </mgrwgt>
  </event>
  <event>
  8     66 0.29788925E-05 0.18014867E+03 0.75467711E-02 0.96276017E-01
       -1 -1    0    0    0  501 0.00000000E+00 0.00000000E+00 0.68571951E+03 0.68571958E+03 0.32000000E+00 0.0000E+00 0.9000E+01
        1 -1    0    0  501    0 0.00000000E+00 0.00000000E+00 -.79738627E+02 0.79739269E+02 0.32000000E+00 0.0000E+00 0.9000E+01
       25  2    1    2    0    0 -.37121880E+02 -.91346416E+01 0.24252764E+03 0.38789717E+03 0.30030499E+03 0.0000E+00 0.0000E+00
       23  2    1    2    0    0 0.37121880E+02 0.91346416E+01 0.36345324E+03 0.37756168E+03 0.94831889E+02 0.0000E+00 0.0000E+00
       24  1    3    3    0    0 0.55782929E+02 0.62325555E+02 0.21324293E+03 0.24276732E+03 0.80419002E+02 0.0000E+00 0.9000E+01
      -13  1    4    4    0    0 0.50631382E+02 0.42512494E+02 0.24414578E+03 0.25293878E+03 0.10565837E+00 0.0000E+00 0.9000E+01
       13  1    4    4    0    0 -.13509502E+02 -.33377852E+02 0.11930746E+03 0.12462291E+03 0.10565837E+00 0.0000E+00 0.9000E+01
      -24  1    3    3    0    0 -.92904809E+02 -.71460197E+02 0.29284711E+02 0.14512985E+03 0.80419002E+02 0.0000E+00 0.9000E+01
#aMCatNLO 1  0  0  1  2 0.37147623D+03 0.00000000D+00  -5  7  0 0.00000000D+00 0.00000000D+00 0.00000000D+00 0.00000000D+00 0.00000000D+00
  <mgrwgt>
 0.8509321413D-03    3    2    0
 0.233834571072066D+03 0.000000000000000D+00 0.000000000000000D+00 0.233834571072066D+03
 0.233834571072066D+03 0.000000000000000D+00 0.000000000000000D+00 -.233834571072066D+03
 0.121041240715031D+03 0.557829216447141D+02 0.623255514717529D+02 0.344609530626333D+02
 0.976471908555476D+02 0.506314568548742D+02 0.425125736578128D+02 0.718617460108075D+02
 0.493845612623517D+02 -.135095658956080D+02 -.333779294030780D+02 0.337970464560194D+02
 0.199596149311202D+03 -.929048126039803D+02 -.714601957264877D+02 -.140119745529460D+03
 0.000000000000000D+00 0.000000000000000D+00 0.000000000000000D+00 -.000000000000000D+00
 0.321630652519238D+03 0.000000000000000D+00 0.000000000000000D+00 0.321630652519238D+03
 0.179823794926561D+04 0.000000000000000D+00 0.000000000000000D+00 -.179823794926561D+04
 0.922101793692571D+02 -.989077882715877D+01 0.273882535614678D+02 0.344609530626333D+02
 0.733379780989764D+02 -.202577171886113D+01 0.144998186494593D+02 0.718617460108075D+02
 0.849936499250317D+02 -.548931796036816D+02 -.553933119737975D+02 0.337970464560194D+02
 0.346709410066733D+03 -.261147104535845D+03 -.160962249548628D+03 -.140119745529460D+03
 0.152261738432485D+04 0.327956834685547D+03 0.174467489311499D+03 -.147660729674637D+04
0.149081290070D-04 0.000000000000D+00 0.000000000000D+00 0.779715252580D-07 0.000000000000D+00  7 -1 1 24 -13 13 -24 21 0 0.10549536D+00 0.12267536D-01 0.32453542D+05 0.32453542D+05 0.32453542D+05 0.11641815D+01  1  2  2  1  7  1       -1 0.837305717841D-03 0.100000000000D+01
-.759719682704D-06 0.000000000000D+00 -.572511407873D-07 0.779715252580D-07 0.000000000000D+00  7 -1 1 24 -13 13 -24 21 2 0.10549536D+00 0.12267536D-01 0.32453542D+05 0.32453542D+05 0.32453542D+05 0.11641815D+01  1  2  3  1  7  1       -1 -.578303280965D-04 0.100000000000D+01
0.938730635110D-06 0.000000000000D+00 0.000000000000D+00 0.779715252580D-07 0.000000000000D+00  7 -1 1 24 -13 13 -24 21 2 0.10549536D+00 0.12267536D-01 0.32453542D+05 0.32453542D+05 0.32453542D+05 0.11641815D+01  1  2 15  1  7  1       -1 0.714567515606D-04 0.100000000000D+01
  </mgrwgt>
  </event>
  <event>
  7     66 0.29788925E-05 0.31253176E+03 0.75467711E-02 0.85795174E-01
       -1 -1    0    0    0  501 0.00000000E+00 0.00000000E+00 0.23657491E+03 0.23657513E+03 0.32000000E+00 0.0000E+00 0.9000E+01
        1 -1    0    0  501    0 0.00000000E+00 0.00000000E+00 -.12750147E+04 0.12750147E+04 0.32000000E+00 0.0000E+00 0.9000E+01
       23  2    1    2    0    0 0.20241420E+03 -.47301547E+02 0.12536223E+03 0.25924046E+03 0.90999912E+02 0.0000E+00 0.0000E+00
       24  1    1    2    0    0 -.82315355E+02 0.18207583E+03 -.88355336E+03 0.90942904E+03 0.80419002E+02 0.0000E+00 0.9000E+01
      -11  1    3    3    0    0 -.82002985E+00 0.26407969E+01 0.28495241E+02 0.28629094E+02 0.51099893E-03 0.0000E+00 0.9000E+01
       11  1    3    3    0    0 0.20323423E+03 -.49942344E+02 0.96866992E+02 0.23061137E+03 0.51099893E-03 0.0000E+00 0.9000E+01
      -24  1    1    2    0    0 -.12009885E+03 -.13477429E+03 -.28024861E+03 0.34292031E+03 0.80419002E+02 0.0000E+00 0.9000E+01
#aMCatNLO 1  0  0  2  2 0.10756944D+04 0.00000000D+00  -5  7  0 0.00000000D+00 0.00000000D+00 0.00000000D+00 0.00000000D+00 0.00000000D+00
  <mgrwgt>
 0.3225555489D-02    3    2    0
 0.549214596816744D+03 0.000000000000000D+00 0.000000000000000D+00 0.549214596816744D+03
 0.549214596816744D+03 0.000000000000000D+00 0.000000000000000D+00 -.549214596816744D+03
 0.416200483541698D+03 -.823153547121605D+02 0.182075832746887D+03 -.356129470914879D+03
 0.663365814465943D+02 -.820029857891583D+00 0.264079693153007D+01 0.662789241057761D+02
 0.408929712894964D+03 0.203234229999729D+03 -.499423439047234D+02 0.351319114381893D+03
 0.206962415750232D+03 -.120098845429677D+03 -.134774285773694D+03 -.614685675727907D+02
 0.000000000000000D+00 -.000000000000000D+00 -.000000000000000D+00 0.000000000000000D+00
 0.141797202031397D+04 0.000000000000000D+00 0.000000000000000D+00 0.141797202031397D+04
 0.121426274435370D+04 0.000000000000000D+00 0.000000000000000D+00 -.121426274435370D+04
 0.680013622535129D+03 0.179348509997932D+03 0.544937815522459D+03 -.356129470914879D+03
 0.944762359032564D+02 0.375656313458979D+02 0.558720566241535D+02 0.662789241057761D+02
 0.649101240373699D+03 0.455783861208159D+03 0.300280488854636D+03 0.351319114381893D+03
 0.113830484794457D+03 -.435262948095331D+02 -.285874128747836D+02 -.614685675727907D+02
 0.109481318106113D+04 -.629171707742455D+03 -.872502948126465D+03 0.203709275960274D+03
0.368762581866D-03 0.000000000000D+00 0.000000000000D+00 0.588522894013D-09 0.000000000000D+00  7 -1 1 24 -11 11 -24 21 0 0.36396160D-01 0.19615612D+00 0.97676099D+05 0.97676099D+05 0.97676099D+05 0.11225610D+01  1  2  2  2  7  2        1 0.311665718706D-02 0.100000000000D+01
-.125694563601D-04 0.000000000000D+00 -.141614541178D-05 0.588522894013D-09 0.000000000000D+00  7 -1 1 24 -11 11 -24 21 2 0.36396160D-01 0.19615612D+00 0.97676099D+05 0.97676099D+05 0.97676099D+05 0.11225610D+01  1  2  3  2  7  2        1 -.133868556093D-03 0.100000000000D+01
0.227943553047D-04 0.000000000000D+00 0.000000000000D+00 0.588522894013D-09 0.000000000000D+00  7 -1 1 24 -11 11 -24 21 2 0.36396160D-01 0.19615612D+00 0.97676099D+05 0.97676099D+05 0.97676099D+05 0.11225610D+01  1  2 15  2  7  2        1 0.242766858350D-03 0.100000000000D+01
  </mgrwgt>
  </event>
  <event>
  8     66 0.29788925E-05 0.14648683E+03 0.75467711E-02 0.97986632E-01
       -1 -1    0    0    0  501 0.00000000E+00 0.00000000E+00 0.61013087E+02 0.61013926E+02 0.32000000E+00 0.0000E+00 0.9000E+01
        1 -1    0    0  501    0 0.00000000E+00 0.00000000E+00 -.23972140E+04 0.23972141E+04 0.32000000E+00 0.0000E+00 0.9000E+01
       25  2    1    2    0    0 0.17549178E+03 -.25677839E+03 -.15144153E+04 0.15748897E+04 0.30015238E+03 0.0000E+00 0.0000E+00
       23  2    1    2    0    0 -.17549178E+03 0.25677839E+03 -.82178567E+03 0.88333828E+03 0.90676992E+02 0.0000E+00 0.0000E+00
       24  1    3    3    0    0 0.12415109E+03 -.14101606E+03 -.38802621E+03 0.43855510E+03 0.80419002E+02 0.0000E+00 0.9000E+01
      -11  1    4    4    0    0 0.91450155E+01 0.29024397E+02 -.89854664E+02 0.94867842E+02 0.51099893E-03 0.0000E+00 0.9000E+01
       11  1    4    4    0    0 -.18463679E+03 0.22775399E+03 -.73193101E+03 0.78847044E+03 0.51099893E-03 0.0000E+00 0.9000E+01
      -24  1    3    3    0    0 0.51340687E+02 -.11576232E+03 -.11263891E+04 0.11363346E+04 0.80419002E+02 0.0000E+00 0.9000E+01
#aMCatNLO 1  0  0  2  1 0.65135760D+02 0.00000000D+00  -5  7  0 0.00000000D+00 0.00000000D+00 0.00000000D+00 0.00000000D+00 0.00000000D+00
  <mgrwgt>
 0.9724422429D-03    9    2    0
 0.382442787105549D+03 0.000000000000000D+00 0.000000000000000D+00 0.382442787105549D+03
 0.382442787105549D+03 0.000000000000000D+00 0.000000000000000D+00 -.382442787105549D+03
 0.224296594750148D+03 0.124151090512418D+03 -.141016064856228D+03 0.924268502069782D+02
 0.304466900316593D+02 0.914501551332570D+01 0.290243966984108D+02 0.976740210216015D+00
 0.298478853042127D+03 -.184636792815584D+03 0.227753988978177D+03 0.559195936738379D+02
 0.211663436387164D+03 0.513406867898397D+02 -.115762320820360D+03 -.149323184091032D+03
 0.000000000000000D+00 -.000000000000000D+00 0.000000000000000D+00 -.000000000000000D+00
 0.404574984296804D+03 0.000000000000000D+00 0.000000000000000D+00 0.404574984296804D+03
 0.434948377630341D+03 0.000000000000000D+00 0.000000000000000D+00 -.434948377630341D+03
 0.240896149803566D+03 0.134637297128129D+03 -.157777738032525D+03 0.924268502069782D+02
 0.288745403987632D+02 0.104822132367949D+02 0.268869534804507D+02 0.976740210216015D+00
 0.274777641118387D+03 -.171714652236345D+03 0.207098598037962D+03 0.559195936738379D+02
 0.223105632993239D+03 0.611410939221929D+02 -.131427778060259D+03 -.149323184091032D+03
 0.718693976131901D+02 -.345459520507722D+02 0.552199645743711D+02 -.303733933335371D+02
0.354103084785D-04 0.000000000000D+00 0.000000000000D+00 0.233503180358D-05 0.000000000000D+00  7 -1 1 24 -11 11 -24 21 0 0.93866949D-02 0.36880223D+00 0.11492306D+06 0.11492306D+06 0.11492306D+06 0.11167984D+01  1  2  2  2  7  2        1 0.471367198954D-03 0.100000000000D+01
-.193246836091D-05 0.000000000000D+00 -.135984908306D-06 0.233503180358D-05 0.000000000000D+00  7 -1 1 24 -11 11 -24 21 2 0.93866949D-02 0.36880223D+00 0.11492306D+06 0.11492306D+06 0.11492306D+06 0.11167984D+01  1  2  3  2  7  2        1 -.320842282441D-04 0.100000000000D+01
0.223897007219D-05 0.000000000000D+00 0.000000000000D+00 0.233503180358D-05 0.000000000000D+00  7 -1 1 24 -11 11 -24 21 2 0.93866949D-02 0.36880223D+00 0.11492306D+06 0.11492306D+06 0.11492306D+06 0.11167984D+01  1  2 15  2  7  2        1 0.371729898823D-04 0.100000000000D+01
0.419820066871D-04 0.000000000000D+00 0.000000000000D+00 0.233503180358D-05 0.000000000000D+00  7 -1 1 24 -11 11 -24 21 2 0.93866949D-02 0.42900600D+00 0.14109329D+06 0.14109329D+06 0.14109329D+06 0.11096560D+01  1  2 12  2  7  2        1 0.365104931609D-03 0.100000000000D+01
-.410375847347D-04 0.000000000000D+00 0.000000000000D+00 0.233503180358D-05 0.000000000000D+00  7 -1 1 24 -11 11 -24 21 2 0.93866949D-02 0.36880223D+00 0.11492306D+06 0.11492306D+06 0.11492306D+06 0.11167984D+01  1  2  4  2  7  2        1 -.681335468072D-03 0.100000000000D+01
-.102169333530D-03 0.000000000000D+00 -.226072977404D-04 0.233503180358D-05 0.000000000000D+00  7 -1 1 24 -11 11 -24 21 2 0.93866949D-02 0.42765414D+00 0.11492306D+06 0.11492306D+06 0.11492306D+06 0.11167984D+01  1  2  5  2  7  2        1 -.921471195021D-03 0.100000000000D+01
0.104613312751D-03 0.000000000000D+00 0.223617640748D-04 0.233503180358D-05 0.000000000000D+00  7 -1 1 24 -11 11 -24 21 2 0.93866949D-02 0.36880223D+00 0.11492306D+06 0.11492306D+06 0.11492306D+06 0.11167984D+01  1  2  6  2  7  2        1 0.173686538499D-02 0.100000000000D+01
0.963896141199D-06 0.000000000000D+00 0.000000000000D+00 0.233503180358D-05 0.000000000000D+00  7 -1 21 24 -11 11 -24 -1 2 0.93866949D-02 0.42900600D+00 0.14109329D+06 0.14109329D+06 0.14109329D+06 0.11096560D+01  1  2 12  4  7  2        1 0.233398160367D-05 0.100000000000D+01
-.215278305583D-05 0.000000000000D+00 -.510266089165D-06 0.233503180358D-05 0.000000000000D+00  7 -1 21 24 -11 11 -24 -1 2 0.93866949D-02 0.42765414D+00 0.11492306D+06 0.11492306D+06 0.11492306D+06 0.11167984D+01  1  2  5  4  7  2        1 -.551135280788D-05 0.100000000000D+01
  </mgrwgt>
  </event>
  <event>
  9     66 0.29788925E-05 0.17450059E+03 0.75467711E-02 0.10283967E+00
       -3 -1    0    0    0  501 0.00000000E+00 0.00000000E+00 0.24601900E+03 0.24601951E+03 0.50000000E+00 0.0000E+00 0.9000E+01
        3 -1    0    0  502    0 0.00000000E+00 0.00000000E+00 -.39422416E+03 0.39422448E+03 0.50000000E+00 0.0000E+00 0.9000E+01
       25  2    1    2    0    0 -.18031670E+02 -.67967005E+02 0.81721161E+01 0.30526357E+03 0.29694176E+03 0.0000E+00 0.0000E+00
       23  2    1    2    0    0 -.41421060E+02 -.42636095E+02 -.17676104E+03 0.20776512E+03 0.91587892E+02 0.0000E+00 0.0000E+00
       24  1    3    3    0    0 0.11078678E+03 -.68831203E+02 0.96894493E+00 0.15323054E+03 0.80419002E+02 0.0000E+00 0.9000E+01
      -13  1    4    4    0    0 -.14985747E+02 0.14241323E+02 -.50252145E+00 0.20679738E+02 0.10565837E+00 0.0000E+00 0.9000E+01
       13  1    4    4    0    0 -.26435313E+02 -.56877418E+02 -.17625851E+03 0.18708539E+03 0.10565837E+00 0.0000E+00 0.9000E+01
      -24  1    3    3    0    0 -.12881845E+03 0.86419891E+00 0.72031712E+01 0.15203302E+03 0.80419002E+02 0.0000E+00 0.9000E+01
       21  1    1    2  502  501 0.59452730E+02 0.11060310E+03 0.20383762E+02 0.12721530E+03 0.75000000E+00 0.0000E+00 0.9000E+01
#aMCatNLO 2  0  0  2  1 0.12556939D+03 0.00000000D+00  -5  7  0 0.00000000D+00 0.00000000D+00 0.00000000D+00 0.00000000D+00 0.00000000D+00
  <mgrwgt>
 0.3771900916D-04    1    2    0
 0.233991742135054D+03 0.000000000000000D+00 0.000000000000000D+00 0.233991742135054D+03
 0.233991742135054D+03 0.000000000000000D+00 0.000000000000000D+00 -.233991742135054D+03
 0.166135460935156D+03 0.131303820570217D+03 -.306622496632080D+02 0.543406714627400D+02
 0.239510653781449D+02 -.121350671293778D+02 0.195446498194447D+02 0.666335815853729D+01
 0.124796139798692D+03 -.101100265618850D+02 -.265066623274052D+02 -.121528847290812D+03
 0.153100818158115D+03 -.109058726878955D+03 0.376242621711685D+02 0.605248176695349D+02
 0.000000000000000D+00 0.000000000000000D+00 0.000000000000000D+00 0.000000000000000D+00
 0.346084138098152D+03 0.000000000000000D+00 0.000000000000000D+00 0.346084138098152D+03
 0.280238947065427D+03 0.000000000000000D+00 0.000000000000000D+00 -.280238947065427D+03
 0.162577886820812D+03 0.110786777803493D+03 -.688312038079264D+02 0.543406714627400D+02
 0.217207325574076D+02 -.149857278581675D+02 0.142414129019007D+02 0.666335815853729D+01
 0.136759418146846D+03 -.264353343258612D+02 -.568775072160373D+02 -.121528847290812D+03
 0.163479075790626D+03 -.128818445392282D+03 0.864198919219348D+00 0.605248176695349D+02
 0.141785971847887D+03 0.594527297728178D+02 0.110603099202844D+03 0.658451910327244D+02
0.368772254440D-05 0.000000000000D+00 0.000000000000D+00 0.467521138574D-07 0.220342499036D-10  7 -3 3 24 -13 13 -24 21 2 0.37849015D-01 0.60649733D-01 0.66062674D+05 0.66062674D+05 0.66062674D+05 0.11368031D+01  1  2  1  2  7  2        3 0.377190091595D-04 0.100000000000D+01
  </mgrwgt>
  </event>
  <event>
  8     66 0.29788925E-05 0.20730048E+03 0.75467711E-02 0.95346036E-01
       -1 -1    0    0    0  501 0.00000000E+00 0.00000000E+00 0.53767284E+03 0.53767293E+03 0.32000000E+00 0.0000E+00 0.9000E+01
        1 -1    0    0  501    0 0.00000000E+00 0.00000000E+00 -.31102581E+03 0.31102598E+03 0.32000000E+00 0.0000E+00 0.9000E+01
       25  2    1    2    0    0 -.27194744E+03 0.21792306E+03 0.15407119E+03 0.48152646E+03 0.29442136E+03 0.0000E+00 0.0000E+00
       23  2    1    2    0    0 0.27194744E+03 -.21792306E+03 0.72575836E+02 0.36717245E+03 0.90013792E+02 0.0000E+00 0.0000E+00
       24  1    3    3    0    0 -.18900412E+03 0.23797225E+03 0.17886135E+03 0.36167934E+03 0.80419002E+02 0.0000E+00 0.9000E+01
      -13  1    4    4    0    0 0.40269356E+02 -.16490637E+02 0.38831892E+02 0.58322287E+02 0.10565837E+00 0.0000E+00 0.9000E+01
       13  1    4    4    0    0 0.23167809E+03 -.20143242E+03 0.33743944E+02 0.30885016E+03 0.10565837E+00 0.0000E+00 0.9000E+01
      -24  1    3    3    0    0 -.82943325E+02 -.20049195E+02 -.24790154E+02 0.11984712E+03 0.80419002E+02 0.0000E+00 0.9000E+01
#aMCatNLO 1  0  0  2  1 0.14303251D+03 0.00000000D+00  -5  7  0 0.00000000D+00 0.00000000D+00 0.00000000D+00 0.00000000D+00 0.00000000D+00
  <mgrwgt>
 0.1712786657D-02    9    2    0
 0.408937942859199D+03 0.000000000000000D+00 0.000000000000000D+00 0.408937942859199D+03
 0.408937942859199D+03 0.000000000000000D+00 0.000000000000000D+00 -.408937942859199D+03
 0.325744375930063D+03 -.189004116320251D+03 0.237972252061849D+03 0.853746669586956D+02
 0.497589356938427D+02 0.402690919589184D+02 -.164903819174082D+02 0.241333631805881D+02
 0.311139046177349D+03 0.231678349379821D+03 -.201432675910191D+03 -.505719839481488D+02
 0.131233527917143D+03 -.829433250184891D+02 -.200491942342498D+02 -.589360461911348D+02
 0.000000000000000D+00 0.000000000000000D+00 0.000000000000000D+00 -.000000000000000D+00
 0.445673477989400D+03 0.000000000000000D+00 0.000000000000000D+00 0.445673477989400D+03
 0.582675215644096D+03 0.000000000000000D+00 0.000000000000000D+00 -.582675215644096D+03
 0.361600472876117D+03 -.248577971383954D+03 0.234963495918390D+03 0.853746669586956D+02
 0.436261722358333D+02 0.321751768090872D+02 -.168991621936830D+02 0.241333631805881D+02
 0.277173016243633D+03 0.180687907537173D+03 -.204007929853179D+03 -.505719839481488D+02
 0.147889001716114D+03 -.107135555678640D+03 -.212710141508036D+02 -.589360461911348D+02
 0.198060030561798D+03 0.142850442716334D+03 0.721461027927620D+01 -.137001737654696D+03
0.925864427842D-04 0.000000000000D+00 0.000000000000D+00 0.227799147075D-07 0.000000000000D+00  7 -1 1 24 -13 13 -24 21 0 0.82718918D-01 0.47850145D-01 0.15293141D+06 0.15293141D+06 0.15293141D+06 0.11068892D+01  1  2  2  2  7  2        1 0.145422654073D-02 0.100000000000D+01
-.513120027698D-05 0.000000000000D+00 -.355556318862D-06 0.227799147075D-07 0.000000000000D+00  7 -1 1 24 -13 13 -24 21 2 0.82718918D-01 0.47850145D-01 0.15293141D+06 0.15293141D+06 0.15293141D+06 0.11068892D+01  1  2  3  2  7  2        1 -.987442770260D-04 0.100000000000D+01
0.593220691007D-05 0.000000000000D+00 0.000000000000D+00 0.227799147075D-07 0.000000000000D+00  7 -1 1 24 -13 13 -24 21 2 0.82718918D-01 0.47850145D-01 0.15293141D+06 0.15293141D+06 0.15293141D+06 0.11068892D+01  1  2 15  2  7  2        1 0.114158764204D-03 0.100000000000D+01
0.891278912933D-04 0.000000000000D+00 0.000000000000D+00 0.227799147075D-07 0.000000000000D+00  7 -1 1 24 -13 13 -24 21 2 0.82718918D-01 0.69615197D-01 0.22038872D+06 0.22038872D+06 0.22038872D+06 0.10946020D+01  1  2 12  2  7  2        1 0.100325665017D-02 0.100000000000D+01
-.102254814216D-03 0.000000000000D+00 0.000000000000D+00 0.227799147075D-07 0.000000000000D+00  7 -1 1 24 -13 13 -24 21 2 0.82718918D-01 0.47850145D-01 0.15293141D+06 0.15293141D+06 0.15293141D+06 0.11068892D+01  1  2  4  2  7  2        1 -.196778086161D-02 0.100000000000D+01
-.133682869287D-03 0.000000000000D+00 -.386300934473D-04 0.227799147075D-07 0.000000000000D+00  7 -1 1 24 -13 13 -24 21 2 0.82718918D-01 0.72738021D-01 0.15293141D+06 0.15293141D+06 0.15293141D+06 0.11068892D+01  1  2  5  2  7  2        1 -.146545712814D-02 0.100000000000D+01
0.140514082793D-03 0.000000000000D+00 0.354735912292D-04 0.227799147075D-07 0.000000000000D+00  7 -1 1 24 -13 13 -24 21 2 0.82718918D-01 0.47850145D-01 0.15293141D+06 0.15293141D+06 0.15293141D+06 0.11068892D+01  1  2  6  2  7  2        1 0.270403819154D-02 0.100000000000D+01
0.404657477935D-05 0.000000000000D+00 0.000000000000D+00 0.227799147075D-07 0.000000000000D+00  7 -1 21 24 -13 13 -24 -1 2 0.82718918D-01 0.69615197D-01 0.22038872D+06 0.22038872D+06 0.22038872D+06 0.10946020D+01  1  2 12  4  7  2        1 0.147339980053D-03 0.100000000000D+01
-.518052251616D-05 0.000000000000D+00 -.190212104362D-05 0.227799147075D-07 0.000000000000D+00  7 -1 21 24 -13 13 -24 -1 2 0.82718918D-01 0.72738021D-01 0.15293141D+06 0.15293141D+06 0.15293141D+06 0.11068892D+01  1  2  5  4  7  2        1 -.178251203114D-03 0.100000000000D+01
  </mgrwgt>
  </event>
  <event>
  8     66 0.29788925E-05 0.15991635E+03 0.75467711E-02 0.99760345E-01
       -1 -1    0    0    0  501 0.00000000E+00 0.00000000E+00 0.82386145E+03 0.82386152E+03 0.32000000E+00 0.0000E+00 0.9000E+01
        1 -1    0    0  501    0 0.00000000E+00 0.00000000E+00 -.16855210E+03 0.16855240E+03 0.32000000E+00 0.0000E+00 0.9000E+01
       25  2    1    2    0    0 -.14940069E+03 0.21993038E+03 0.18103267E+03 0.43982804E+03 0.29997656E+03 0.0000E+00 0.0000E+00
       23  2    1    2    0    0 0.14940069E+03 -.21993038E+03 0.47427668E+03 0.55258588E+03 0.98604462E+02 0.0000E+00 0.0000E+00
       24  1    3    3    0    0 -.86700202E+02 0.23943421E+03 0.48404012E+02 0.27139607E+03 0.80419002E+02 0.0000E+00 0.9000E+01
      -13  1    4    4    0    0 0.82501351E+02 -.86994106E+02 0.30201386E+03 0.32494127E+03 0.10565837E+00 0.0000E+00 0.9000E+01
       13  1    4    4    0    0 0.66899342E+02 -.13293628E+03 0.17226283E+03 0.22764461E+03 0.10565837E+00 0.0000E+00 0.9000E+01
      -24  1    3    3    0    0 -.62700492E+02 -.19503825E+02 0.13262866E+03 0.16843197E+03 0.80419002E+02 0.0000E+00 0.9000E+01
#aMCatNLO 1  0  0  1  2 0.11480933D+02 0.00000000D+00  -5  7  0 0.00000000D+00 0.00000000D+00 0.00000000D+00 0.00000000D+00 0.00000000D+00
  <mgrwgt>
 0.5844278835D-03    9    2    0
 0.372644280679544D+03 0.000000000000000D+00 0.000000000000000D+00 0.372644280679544D+03
 0.372644280679544D+03 0.000000000000000D+00 0.000000000000000D+00 -.372644280679544D+03
 0.318826363670155D+03 -.867002031979100D+02 0.239434209307011D+03 -.174176256693417D+03
 0.167134921616749D+03 0.825013695095471D+02 -.869940612682502D+02 0.116445864490509D+03
 0.151662361297894D+03 0.668993262252759D+02 -.132936324015970D+03 0.292213234159215D+02
 0.107664914774290D+03 -.627004925369129D+02 -.195038240227908D+02 0.285090687869858D+02
 0.000000000000000D+00 0.000000000000000D+00 -.000000000000000D+00 0.000000000000000D+00
 0.381348962876095D+03 0.000000000000000D+00 0.000000000000000D+00 0.381348962876095D+03
 0.376493477714646D+03 0.000000000000000D+00 0.000000000000000D+00 -.376493477714646D+03
 0.322663386738198D+03 -.894862052140959D+02 0.243514467470914D+03 -.174176256693417D+03
 0.165331364765170D+03 0.810574621928919D+02 -.848793770065471D+02 0.116445864490509D+03
 0.149408021513516D+03 0.655917719066098D+02 -.131021336463022D+03 0.292213234159215D+02
 0.107974213152186D+03 -.636370173134807D+02 -.181322303042335D+02 0.285090687869858D+02
 0.124654544216722D+02 0.647398842807497D+01 -.948152369711136D+01 0.485548516144921D+01
0.148167157689D-04 0.000000000000D+00 0.000000000000D+00 0.120246415097D-06 0.000000000000D+00  7 -1 1 24 -13 13 -24 21 0 0.12674794D+00 0.25931120D-01 0.10226585D+06 0.10226585D+06 0.10226585D+06 0.11209244D+01  1  2  2  1  7  1       -1 0.199954948015D-03 0.100000000000D+01
-.799735038459D-06 0.000000000000D+00 -.569000898834D-07 0.120246415097D-06 0.000000000000D+00  7 -1 1 24 -13 13 -24 21 2 0.12674794D+00 0.25931120D-01 0.10226585D+06 0.10226585D+06 0.10226585D+06 0.11209244D+01  1  2  3  1  7  1       -1 -.135606023713D-04 0.100000000000D+01
0.953006355121D-06 0.000000000000D+00 0.000000000000D+00 0.120246415097D-06 0.000000000000D+00  7 -1 1 24 -13 13 -24 21 2 0.12674794D+00 0.25931120D-01 0.10226585D+06 0.10226585D+06 0.10226585D+06 0.11209244D+01  1  2 15  1  7  1       -1 0.161595273655D-04 0.100000000000D+01
0.212591791321D-04 0.000000000000D+00 0.000000000000D+00 0.120246415097D-06 0.000000000000D+00  7 -1 1 24 -13 13 -24 21 2 0.13035216D+00 0.25931120D-01 0.10599142D+06 0.10599142D+06 0.10599142D+06 0.11196542D+01  1  2 12  1  7  1       -1 0.334651847441D-03 0.100000000000D+01
-.201531637294D-04 0.000000000000D+00 0.000000000000D+00 0.120246415097D-06 0.000000000000D+00  7 -1 1 24 -13 13 -24 21 2 0.12674794D+00 0.25931120D-01 0.10226585D+06 0.10226585D+06 0.10226585D+06 0.11209244D+01  1  2  4  1  7  1       -1 -.341724479630D-03 0.100000000000D+01
-.441423753072D-03 0.000000000000D+00 -.578585605288D-04 0.120246415097D-06 0.000000000000D+00  7 -1 1 24 -13 13 -24 21 2 0.13062314D+00 0.25931120D-01 0.10226585D+06 0.10226585D+06 0.10226585D+06 0.11209244D+01  1  2  5  1  7  1       -1 -.693448631597D-02 0.100000000000D+01
0.442991541618D-03 0.000000000000D+00 0.578323324294D-04 0.120246415097D-06 0.000000000000D+00  7 -1 1 24 -13 13 -24 21 2 0.12674794D+00 0.25931120D-01 0.10226585D+06 0.10226585D+06 0.10226585D+06 0.11209244D+01  1  2  6  1  7  1       -1 0.751152801973D-02 0.100000000000D+01
0.556562067330D-06 0.000000000000D+00 0.000000000000D+00 0.120246415097D-06 0.000000000000D+00  7 21 1 24 -13 13 -24 1 2 0.13035216D+00 0.25931120D-01 0.10599142D+06 0.10599142D+06 0.10599142D+06 0.11196542D+01  1  2 12  3  7  1       -1 0.580036214273D-04 0.100000000000D+01
-.236480079300D-05 0.000000000000D+00 -.312443879434D-06 0.120246415097D-06 0.000000000000D+00  7 21 1 24 -13 13 -24 1 2 0.13062314D+00 0.25931120D-01 0.10226585D+06 0.10226585D+06 0.10226585D+06 0.11209244D+01  1  2  5  3  7  1       -1 -.246098682528D-03 0.100000000000D+01
  </mgrwgt>
  </event>
  <event>
  8     66 -.29788925E-05 0.11230431E+03 0.75467711E-02 0.10998420E+00
       -1 -1    0    0    0  501 0.00000000E+00 0.00000000E+00 0.93620394E+02 0.93620940E+02 0.32000000E+00 0.0000E+00 0.9000E+01
        1 -1    0    0  501    0 0.00000000E+00 0.00000000E+00 -.22860954E+04 0.22860954E+04 0.32000000E+00 0.0000E+00 0.9000E+01
       25  2    1    2    0    0 -.87706930E+02 -.35352847E+02 -.22256403E+04 0.22475770E+04 0.29863908E+03 0.0000E+00 0.0000E+00
       23  2    1    2    0    0 0.87706930E+02 0.35352847E+02 0.33165256E+02 0.13213940E+03 0.86131048E+02 0.0000E+00 0.0000E+00
       24  1    3    3    0    0 -.11836558E+02 -.20535524E+02 -.17647403E+03 0.19537684E+03 0.80419002E+02 0.0000E+00 0.9000E+01
      -13  1    4    4    0    0 0.35341504E+02 0.49693046E+02 0.45959093E+02 0.76358825E+02 0.10565837E+00 0.0000E+00 0.9000E+01
       13  1    4    4    0    0 0.52365425E+02 -.14340199E+02 -.12793837E+02 0.55780574E+02 0.10565837E+00 0.0000E+00 0.9000E+01
      -24  1    3    3    0    0 -.75870372E+02 -.14817323E+02 -.20491663E+04 0.20522001E+04 0.80419002E+02 0.0000E+00 0.9000E+01
#aMCatNLO 1  0  0  1  2 0.19347345D+01 0.00000000D+00  -5  7  0 0.00000000D+00 0.00000000D+00 0.00000000D+00 0.00000000D+00 0.00000000D+00
  <mgrwgt>
 -.1219367514D-02    9    2    0
 0.462629257956047D+03 0.000000000000000D+00 0.000000000000000D+00 0.462629257956047D+03
 0.462629257956047D+03 0.000000000000000D+00 0.000000000000000D+00 -.462629257956047D+03
 0.843294829619188D+02 -.118365580267229D+02 -.205355239724673D+02 0.907931118038429D+01
 0.305294978633483D+03 0.353414789711676D+02 0.496931422192518D+02 0.299143101975170D+03
 0.113148389516445D+03 0.523654505714298D+02 -.143402953920029D+02 0.992712121648886D+02
 0.422485664800248D+03 -.758703715158745D+02 -.148173228547816D+02 -.407493625320443D+03
 0.000000000000000D+00 0.000000000000000D+00 -.000000000000000D+00 0.000000000000000D+00
 0.101796781746282D+04 0.000000000000000D+00 0.000000000000000D+00 0.101796781746282D+04
 0.462631954447542D+03 0.000000000000000D+00 0.000000000000000D+00 -.462631954447542D+03
 0.842994273697551D+02 -.119038604862340D+02 -.203725726041682D+02 0.907931118038429D+01
 0.305363475515842D+03 0.350977555443564D+02 0.502832405035338D+02 0.299143101975170D+03
 0.113079122099564D+03 0.522751596010921D+02 -.141216847012724D+02 0.992712121648886D+02
 0.422518513709499D+03 -.762076260198559D+02 -.140007689979381D+02 -.407493625320443D+03
 0.555339233215699D+03 0.738571360641292D+00 -.178821420015507D+01 0.555335863015275D+03
0.320203128166D-05 0.000000000000D+00 0.000000000000D+00 0.639773240628D-07 0.000000000000D+00  7 -1 1 24 -13 13 -24 21 0 0.14403181D-01 0.35170703D+00 0.24127453D+05 0.24127453D+05 0.24127453D+05 0.11762171D+01  1  2  2  1  7  1       -1 0.278300341676D-04 0.100000000000D+01
0.797302959245D-07 0.000000000000D+00 -.122966432358D-07 0.639773240628D-07 0.000000000000D+00  7 -1 1 24 -13 13 -24 21 2 0.14403181D-01 0.35170703D+00 0.24127453D+05 0.24127453D+05 0.24127453D+05 0.11762171D+01  1  2  3  1  7  1       -1 0.958708331557D-06 0.100000000000D+01
0.198453755988D-06 0.000000000000D+00 0.000000000000D+00 0.639773240628D-07 0.000000000000D+00  7 -1 1 24 -13 13 -24 21 2 0.14403181D-01 0.35170703D+00 0.24127453D+05 0.24127453D+05 0.24127453D+05 0.11762171D+01  1  2 15  1  7  1       -1 0.238628575360D-05 0.100000000000D+01
0.762862533873D-04 0.000000000000D+00 0.000000000000D+00 0.639773240628D-07 0.000000000000D+00  7 -1 1 24 -13 13 -24 21 2 0.31692699D-01 0.35170703D+00 0.24474514D+05 0.24474514D+05 0.24474514D+05 0.11756284D+01  1  2 12  1  7  1       -1 0.261956064809D-03 0.100000000000D+01
-.762527169124D-01 0.000000000000D+00 -.101827525173D-05 0.639773240628D-07 0.000000000000D+00  7 -1 1 24 -13 13 -24 21 2 0.31692766D-01 0.35170703D+00 0.24127453D+05 0.24127453D+05 0.24127453D+05 0.11762171D+01  1  2  5  1  7  1       -1 -.262324969623D+00 0.100000000000D+01
0.761541622465D-01 0.000000000000D+00 0.000000000000D+00 0.639773240628D-07 0.167181726518D-06  7 -1 1 24 -13 13 -24 21 2 0.31692710D-01 0.35170908D+00 0.24474514D+05 0.24474514D+05 0.24474514D+05 0.11756284D+01  1  2 11  1  7  1       -1 0.261497071895D+00 0.100000000000D+01
0.652110733358D-05 0.000000000000D+00 0.000000000000D+00 0.639773240628D-07 0.000000000000D+00  7 21 1 24 -13 13 -24 1 2 0.31692699D-01 0.35170703D+00 0.24474514D+05 0.24474514D+05 0.24474514D+05 0.11756284D+01  1  2 12  3  7  1       -1 0.249420265022D-03 0.100000000000D+01
-.651814093284D-02 0.000000000000D+00 -.870438088125D-07 0.639773240628D-07 0.000000000000D+00  7 21 1 24 -13 13 -24 1 2 0.31692766D-01 0.35170703D+00 0.24127453D+05 0.24127453D+05 0.24127453D+05 0.11762171D+01  1  2  5  3  7  1       -1 -.249852851531D+00 0.100000000000D+01
0.650813262307D-02 0.000000000000D+00 0.000000000000D+00 0.639773240628D-07 0.142873455300D-07  7 21 1 24 -13 13 -24 1 2 0.31692710D-01 0.35170908D+00 0.24474514D+05 0.24474514D+05 0.24474514D+05 0.11756284D+01  1  2 11  3  7  1       -1 0.248918830387D+00 0.100000000000D+01
  </mgrwgt>
  </event>
  <event>
  8     66 0.29788925E-05 0.25245502E+03 0.75467711E-02 0.99045875E-01
       -3 -1    0    0    0  501 0.00000000E+00 0.00000000E+00 0.78954729E+02 0.78956312E+02 0.50000000E+00 0.0000E+00 0.9000E+01
        3 -1    0    0  501    0 0.00000000E+00 0.00000000E+00 -.98900666E+03 0.98900679E+03 0.50000000E+00 0.0000E+00 0.9000E+01
       25  2    1    2    0    0 0.17393163E+03 -.58650478E+02 -.53928987E+03 0.64421829E+03 0.30081813E+03 0.0000E+00 0.0000E+00
       23  2    1    2    0    0 -.17393163E+03 0.58650478E+02 -.37076206E+03 0.42374481E+03 0.91668274E+02 0.0000E+00 0.0000E+00
       24  1    3    3    0    0 0.74717772E+02 -.12853141E+03 -.14086771E+03 0.22003181E+03 0.80419002E+02 0.0000E+00 0.9000E+01
      -11  1    4    4    0    0 -.23484559E+02 0.28383906E+02 -.22492152E+02 0.43163266E+02 0.51099893E-03 0.0000E+00 0.9000E+01
       11  1    4    4    0    0 -.15044707E+03 0.30266572E+02 -.34826990E+03 0.38058154E+03 0.51099893E-03 0.0000E+00 0.9000E+01
      -24  1    3    3    0    0 0.99213855E+02 0.69880932E+02 -.39842216E+03 0.42418648E+03 0.80419002E+02 0.0000E+00 0.9000E+01
#aMCatNLO 1  0  0  2  2 0.15916281D+03 0.00000000D+00  -5  7  0 0.00000000D+00 0.00000000D+00 0.00000000D+00 0.00000000D+00 0.00000000D+00
  <mgrwgt>
 0.4617702031D-04    4    2    0
 0.279441703738609D+03 0.000000000000000D+00 0.000000000000000D+00 0.279441703738609D+03
 0.279441703738609D+03 0.000000000000000D+00 0.000000000000000D+00 -.279441703738609D+03
 0.191075486592938D+03 0.747177718684173D+02 -.128531409379900D+03 0.891041917767803D+02
 0.458552692469944D+02 -.234845593581820D+02 0.283839059533442D+02 0.273044881347021D+02
 0.160146723319762D+03 -.150447067837629D+03 0.302665715744280D+02 -.457885074472433D+02
 0.161805928317525D+03 0.992138553273933D+02 0.698809318521275D+02 -.706201724642391D+02
 0.000000000000000D+00 -.000000000000000D+00 -.000000000000000D+00 0.000000000000000D+00
 0.388034793758536D+03 0.000000000000000D+00 0.000000000000000D+00 0.388034793758536D+03
 0.355520513399566D+03 0.000000000000000D+00 0.000000000000000D+00 -.355520513399566D+03
 0.212262084217522D+03 0.129910283000629D+03 -.117353047768258D+03 0.891041917767803D+02
 0.427281080052302D+02 -.113628543920462D+02 0.308389636900090D+02 0.273044881347021D+02
 0.126232611203276D+03 -.111259063167154D+03 0.382034760214083D+02 -.457885074472433D+02
 0.199882577175685D+03 0.148707129226263D+03 0.799050039886585D+02 -.706201724642391D+02
 0.162449926556389D+03 -.155995494667692D+03 -.315943959318175D+02 0.325142803589705D+02
0.991425707951D-05 0.000000000000D+00 0.000000000000D+00 0.481497294164D-06 0.000000000000D+00  7 -3 3 24 -11 11 -24 21 0 0.12147013D-01 0.15215500D+00 0.63733535D+05 0.63733535D+05 0.63733535D+05 0.11381384D+01  1  2  2  2  7  2        3 0.663921105048D-04 0.100000000000D+01
-.543884576617D-06 0.000000000000D+00 -.380733576691D-07 0.481497294164D-06 0.000000000000D+00  7 -3 3 24 -11 11 -24 21 2 0.12147013D-01 0.15215500D+00 0.63733535D+05 0.63733535D+05 0.63733535D+05 0.11381384D+01  1  2  3  2  7  2        3 -.471794873620D-05 0.100000000000D+01
0.641564734700D-06 0.000000000000D+00 0.000000000000D+00 0.481497294164D-06 0.000000000000D+00  7 -3 3 24 -11 11 -24 21 2 0.12147013D-01 0.15215500D+00 0.63733535D+05 0.63733535D+05 0.63733535D+05 0.11381384D+01  1  2 15  2  7  2        3 0.556527921438D-05 0.100000000000D+01
-.242807338365D-05 0.000000000000D+00 0.000000000000D+00 0.481497294164D-06 0.000000000000D+00  7 -3 3 24 -11 11 -24 21 2 0.12147013D-01 0.15215500D+00 0.63733535D+05 0.63733535D+05 0.63733535D+05 0.11381384D+01  1  2  4  2  7  2        3 -.210624206758D-04 0.100000000000D+01
  </mgrwgt>
  </event>
  <event>
  8     66 0.29788925E-05 0.16029938E+03 0.75467711E-02 0.10196780E+00
       -1 -1    0    0    0  501 0.00000000E+00 0.00000000E+00 0.80558355E+02 0.80558990E+02 0.32000000E+00 0.0000E+00 0.9000E+01
        1 -1    0    0  501    0 0.00000000E+00 0.00000000E+00 -.11074232E+04 0.11074232E+04 0.32000000E+00 0.0000E+00 0.9000E+01
       25  2    1    2    0    0 0.17717364E+03 0.85201040E+02 -.50111371E+03 0.61639050E+03 0.30028750E+03 0.0000E+00 0.0000E+00
       23  2    1    2    0    0 -.17717364E+03 -.85201040E+02 -.52575112E+03 0.57159172E+03 0.10794972E+03 0.0000E+00 0.0000E+00
       24  1    3    3    0    0 0.18565058E+03 0.98832916E+02 -.18990729E+03 0.29456082E+03 0.80419002E+02 0.0000E+00 0.9000E+01
      -11  1    4    4    0    0 -.33603840E+02 -.55120283E+02 -.82849782E+02 0.10503119E+03 0.51099893E-03 0.0000E+00 0.9000E+01
       11  1    4    4    0    0 -.14356980E+03 -.30080758E+02 -.44290134E+03 0.46656053E+03 0.51099893E-03 0.0000E+00 0.9000E+01
      -24  1    3    3    0    0 -.84769471E+01 -.13631875E+02 -.31120642E+03 0.32182968E+03 0.80419002E+02 0.0000E+00 0.9000E+01
#aMCatNLO 1  0  0  2  1 0.29584007D+02 0.00000000D+00  -5  7  0 0.00000000D+00 0.00000000D+00 0.00000000D+00 0.00000000D+00 0.00000000D+00
  <mgrwgt>
 0.9089225347D-03    9    2    0
 0.298684774855499D+03 0.000000000000000D+00 0.000000000000000D+00 0.298684774855499D+03
 0.298684774855499D+03 0.000000000000000D+00 0.000000000000000D+00 -.298684774855499D+03
 0.259343496361258D+03 0.185650585699876D+03 0.988329164428337D+02 0.128676912487082D+03
 0.664574445650668D+02 -.336038414461537D+02 -.551202813908276D+02 0.157838004795004D+02
 0.166506335649772D+03 -.143569797501802D+03 -.300807597356764D+02 -.787859184786877D+02
 0.105062273134901D+03 -.847694675192056D+01 -.136318753163297D+02 -.656747944878944D+02
 0.000000000000000D+00 -.000000000000000D+00 0.000000000000000D+00 -.000000000000000D+00
 0.312443191724516D+03 0.000000000000000D+00 0.000000000000000D+00 0.312443191724516D+03
 0.315388749277446D+03 0.000000000000000D+00 0.000000000000000D+00 -.315388749277446D+03
 0.262712388942150D+03 0.194795741367276D+03 0.897076066300183D+02 0.128676912487082D+03
 0.672889921263891D+02 -.312609275590849D+02 -.574581109326980D+02 0.157838004795004D+02
 0.162729566383791D+03 -.137802381291862D+03 -.358356601058003D+02 -.787859184786877D+02
 0.105370709781263D+03 -.479067016640689D+01 -.173101523322643D+02 -.656747944878944D+02
 0.297302837683693D+02 -.209417623499225D+02 0.208963167407443D+02 -.294555755292955D+01
0.574433817176D-05 0.000000000000D+00 0.000000000000D+00 0.103503223847D-07 0.000000000000D+00  7 -1 1 24 -11 11 -24 21 0 0.12393645D-01 0.17037285D+00 0.67189334D+05 0.67189334D+05 0.67189334D+05 0.11361757D+01  1  2  2  2  7  2        1 0.364934575546D-03 0.100000000000D+01
-.311333055656D-06 0.000000000000D+00 -.220597710985D-07 0.103503223847D-07 0.000000000000D+00  7 -1 1 24 -11 11 -24 21 2 0.12393645D-01 0.17037285D+00 0.67189334D+05 0.67189334D+05 0.67189334D+05 0.11361757D+01  1  2  3  2  7  2        1 -.255323772251D-04 0.100000000000D+01
0.373208081331D-06 0.000000000000D+00 0.000000000000D+00 0.103503223847D-07 0.000000000000D+00  7 -1 1 24 -11 11 -24 21 2 0.12393645D-01 0.17037285D+00 0.67189334D+05 0.67189334D+05 0.67189334D+05 0.11361757D+01  1  2 15  2  7  2        1 0.306067388056D-04 0.100000000000D+01
0.111821103211D-04 0.000000000000D+00 0.000000000000D+00 0.103503223847D-07 0.000000000000D+00  7 -1 1 24 -11 11 -24 21 2 0.12393645D-01 0.18362726D+00 0.75301732D+05 0.75301732D+05 0.75301732D+05 0.11319740D+01  1  2 12  2  7  2        1 0.790266711352D-03 0.100000000000D+01
-.925678430147D-05 0.000000000000D+00 0.000000000000D+00 0.103503223847D-07 0.000000000000D+00  7 -1 1 24 -11 11 -24 21 2 0.12393645D-01 0.17037285D+00 0.67189334D+05 0.67189334D+05 0.67189334D+05 0.11361757D+01  1  2  4  2  7  2        1 -.759147492960D-03 0.100000000000D+01
-.409330790101D-04 0.000000000000D+00 -.809428182580D-05 0.103503223847D-07 0.000000000000D+00  7 -1 1 24 -11 11 -24 21 2 0.12393645D-01 0.18546107D+00 0.67189334D+05 0.67189334D+05 0.67189334D+05 0.11361757D+01  1  2  5  2  7  2        1 -.286348851602D-02 0.100000000000D+01
0.414994812225D-04 0.000000000000D+00 0.806522760259D-05 0.103503223847D-07 0.000000000000D+00  7 -1 1 24 -11 11 -24 21 2 0.12393645D-01 0.17037285D+00 0.67189334D+05 0.67189334D+05 0.67189334D+05 0.11361757D+01  1  2  6  2  7  2        1 0.340336623423D-02 0.100000000000D+01
0.141315923218D-06 0.000000000000D+00 0.000000000000D+00 0.103503223847D-07 0.000000000000D+00  7 -1 21 24 -11 11 -24 -1 2 0.12393645D-01 0.18362726D+00 0.75301732D+05 0.75301732D+05 0.75301732D+05 0.11319740D+01  1  2 12  4  7  2        1 0.111903506789D-04 0.100000000000D+01
-.556413669122D-06 0.000000000000D+00 -.113905186968D-06 0.103503223847D-07 0.000000000000D+00  7 -1 21 24 -11 11 -24 -1 2 0.12393645D-01 0.18546107D+00 0.67189334D+05 0.67189334D+05 0.67189334D+05 0.11361757D+01  1  2  5  4  7  2        1 -.432736896745D-04 0.100000000000D+01
  </mgrwgt>
  </event>
  <event>
  8     66 0.29788925E-05 0.10681621E+03 0.75467711E-02 0.10513062E+00
       -1 -1    0    0    0  501 0.00000000E+00 0.00000000E+00 0.58216941E+02 0.58217821E+02 0.32000000E+00 0.0000E+00 0.9000E+01
        1 -1    0    0  501    0 0.00000000E+00 0.00000000E+00 -.11272121E+04 0.11272121E+04 0.32000000E+00 0.0000E+00 0.9000E+01
       25  2    1    2    0    0 -.12325585E+03 -.51718494E+02 -.85959855E+03 0.92097481E+03 0.30235431E+03 0.0000E+00 0.0000E+00
       23  2    1    2    0    0 0.12325585E+03 0.51718494E+02 -.20939659E+03 0.26445513E+03 0.90679540E+02 0.0000E+00 0.0000E+00
       24  1    3    3    0    0 -.32318731E+02 0.60847294E+02 -.10760462E+03 0.15097305E+03 0.80419002E+02 0.0000E+00 0.9000E+01
      -13  1    4    4    0    0 0.57023832E+02 -.58062885E+01 -.29855241E+02 0.64627989E+02 0.10565837E+00 0.0000E+00 0.9000E+01
       13  1    4    4    0    0 0.66232019E+02 0.57524783E+02 -.17954135E+03 0.19982715E+03 0.10565837E+00 0.0000E+00 0.9000E+01
      -24  1    3    3    0    0 -.90937120E+02 -.11256579E+03 -.75199393E+03 0.77000176E+03 0.80419002E+02 0.0000E+00 0.9000E+01
#aMCatNLO 1  0  0  1  2 0.18852440D+02 0.00000000D+00  -5  7  0 0.00000000D+00 0.00000000D+00 0.00000000D+00 0.00000000D+00 0.00000000D+00
  <mgrwgt>
 0.2548963228D-03    9    2    0
 0.256170622238786D+03 0.000000000000000D+00 0.000000000000000D+00 0.256170622238786D+03
 0.256170622238786D+03 0.000000000000000D+00 0.000000000000000D+00 -.256170622238786D+03
 0.124797976203312D+03 -.323187530938156D+02 0.608472588015292D+02 0.660335384851715D+02
 0.872404036340547D+02 0.570238410433507D+02 -.580636498276346D+01 0.657681967563533D+02
 0.877389149332939D+02 0.662320529337439D+02 0.575248773269523D+02 0.152343243126064D+01
 0.212563949706912D+03 -.909371408832790D+02 -.112565771145718D+03 -.133325167672785D+03
 0.000000000000000D+00 -.000000000000000D+00 -.000000000000000D+00 0.000000000000000D+00
 0.270721488583393D+03 0.000000000000000D+00 0.000000000000000D+00 0.270721488583393D+03
 0.262524037756564D+03 0.000000000000000D+00 0.000000000000000D+00 -.262524037756564D+03
 0.125248059865031D+03 -.286108182838376D+02 0.635677073508272D+02 0.660335384851715D+02
 0.888648446226693D+02 0.596353072777223D+02 -.389037673245257D+01 0.657681967563533D+02
 0.910154106575293D+02 0.688828023585866D+02 0.594696869843283D+02 0.152343243126064D+01
 0.207559665293413D+03 -.847071241989605D+02 -.107994914127049D+03 -.133325167672785D+03
 0.205575459013143D+02 -.152001671535108D+02 -.111521034756541D+02 0.819745082682899D+01
0.269472129065D-05 0.000000000000D+00 0.000000000000D+00 0.523408683443D-07 0.000000000000D+00  7 -1 1 24 -13 13 -24 21 0 0.89565237D-02 0.17341731D+00 0.43366848D+05 0.43366848D+05 0.43366848D+05 0.11527724D+01  1  2  2  1  7  1       -1 0.273088255245D-03 0.100000000000D+01
-.141898368732D-06 0.000000000000D+00 -.103484392925D-07 0.523408683443D-07 0.000000000000D+00  7 -1 1 24 -13 13 -24 21 2 0.89565237D-02 0.17341731D+00 0.43366848D+05 0.43366848D+05 0.43366848D+05 0.11527724D+01  1  2  3  1  7  1       -1 -.191096920443D-04 0.100000000000D+01
0.174409891660D-06 0.000000000000D+00 0.000000000000D+00 0.523408683443D-07 0.000000000000D+00  7 -1 1 24 -13 13 -24 21 2 0.89565237D-02 0.17341731D+00 0.43366848D+05 0.43366848D+05 0.43366848D+05 0.11527724D+01  1  2 15  1  7  1       -1 0.234880735337D-04 0.100000000000D+01
0.799676444804D-05 0.000000000000D+00 0.000000000000D+00 0.523408683443D-07 0.000000000000D+00  7 -1 1 24 -13 13 -24 21 2 0.95716935D-02 0.17341731D+00 0.47332496D+05 0.47332496D+05 0.47332496D+05 0.11493957D+01  1  2 12  1  7  1       -1 0.967744628346D-03 0.100000000000D+01
-.763365984908D-05 0.000000000000D+00 0.000000000000D+00 0.523408683443D-07 0.000000000000D+00  7 -1 1 24 -13 13 -24 21 2 0.89565237D-02 0.17341731D+00 0.43366848D+05 0.43366848D+05 0.43366848D+05 0.11527724D+01  1  2  4  1  7  1       -1 -.102803781460D-02 0.100000000000D+01
-.256702321274D-04 0.000000000000D+00 -.461296987797D-05 0.523408683443D-07 0.000000000000D+00  7 -1 1 24 -13 13 -24 21 2 0.97038603D-02 0.17341731D+00 0.43366848D+05 0.43366848D+05 0.43366848D+05 0.11527724D+01  1  2  5  1  7  1       -1 -.306186900340D-02 0.100000000000D+01
0.259712500796D-04 0.000000000000D+00 0.459819561111D-05 0.523408683443D-07 0.000000000000D+00  7 -1 1 24 -13 13 -24 21 2 0.89565237D-02 0.17341731D+00 0.43366848D+05 0.43366848D+05 0.43366848D+05 0.11527724D+01  1  2  6  1  7  1       -1 0.349759194175D-02 0.100000000000D+01
0.987879794911D-07 0.000000000000D+00 0.000000000000D+00 0.523408683443D-07 0.000000000000D+00  7 21 1 24 -13 13 -24 1 2 0.95716935D-02 0.17341731D+00 0.47332496D+05 0.47332496D+05 0.47332496D+05 0.11493957D+01  1  2 12  3  7  1       -1 0.171270280439D-03 0.100000000000D+01
-.333384142880D-06 0.000000000000D+00 -.617118538500D-07 0.523408683443D-07 0.000000000000D+00  7 21 1 24 -13 13 -24 1 2 0.97038603D-02 0.17341731D+00 0.43366848D+05 0.43366848D+05 0.43366848D+05 0.11527724D+01  1  2  5  3  7  1       -1 -.569270346443D-03 0.100000000000D+01
  </mgrwgt>
  </event>
  <event>
  8     66 0.29788925E-05 0.17016401E+03 0.75467711E-02 0.99971097E-01
       -1 -1    0    0    0  501 0.00000000E+00 0.00000000E+00 0.97037871E+02 0.97038398E+02 0.32000000E+00 0.0000E+00 0.9000E+01
        1 -1    0    0  501    0 0.00000000E+00 0.00000000E+00 -.10642355E+04 0.10642355E+04 0.32000000E+00 0.0000E+00 0.9000E+01
       25  2    1    2    0    0 -.24186211E+02 -.23706975E+03 -.51861330E+03 0.64505995E+03 0.30059199E+03 0.0000E+00 0.0000E+00
       23  2    1    2    0    0 0.24186211E+02 0.23706975E+03 -.44858428E+03 0.51621395E+03 0.91988836E+02 0.0000E+00 0.0000E+00
       24  1    3    3    0    0 0.76760100E+02 -.17347517E+03 -.42802946E+03 0.47503914E+03 0.80419002E+02 0.0000E+00 0.9000E+01
      -13  1    4    4    0    0 0.21022916E+02 0.11457406E+03 -.31033017E+03 0.33147248E+03 0.10565837E+00 0.0000E+00 0.9000E+01
       13  1    4    4    0    0 0.31632952E+01 0.12249569E+03 -.13825411E+03 0.18474147E+03 0.10565837E+00 0.0000E+00 0.9000E+01
      -24  1    3    3    0    0 -.10094631E+03 -.63594580E+02 -.90583839E+02 0.17002081E+03 0.80419002E+02 0.0000E+00 0.9000E+01
#aMCatNLO 1  0  0  2  1 0.48541033D+02 0.00000000D+00  -5  7  0 0.00000000D+00 0.00000000D+00 0.00000000D+00 0.00000000D+00 0.00000000D+00
  <mgrwgt>
 0.6746635636D-03    9    2    0
 0.321358797793546D+03 0.000000000000000D+00 0.000000000000000D+00 0.321358797793546D+03
 0.321358797793546D+03 0.000000000000000D+00 0.000000000000000D+00 -.321358797793546D+03
 0.214186593876976D+03 0.767600993550755D+02 -.173475169418986D+03 -.585058440183820D+02
 0.131908247249446D+03 0.210229392638346D+02 0.114574046110688D+03 -.618919193025712D+02
 0.125741700855422D+03 0.316327174241985D+01 0.122495704184901D+03 0.282094222227845D+02
 0.170881053605248D+03 -.100946310361330D+03 -.635945808766030D+02 0.921883410981686D+02
 0.000000000000000D+00 0.000000000000000D+00 0.000000000000000D+00 -.000000000000000D+00
 0.328723777019246D+03 0.000000000000000D+00 0.000000000000000D+00 0.328723777019246D+03
 0.413604063270970D+03 0.000000000000000D+00 0.000000000000000D+00 -.413604063270970D+03
 0.209867308652922D+03 0.608037405552330D+02 -.174519462058072D+03 -.585058440183820D+02
 0.130134438916727D+03 0.111627608846315D+02 0.113928728978462D+03 -.618919193025712D+02
 0.125257224609563D+03 -.628135048414218D+01 0.121877583873502D+03 0.282094222227845D+02
 0.179289039639190D+03 -.114122558983140D+03 -.644569241981046D+02 0.921883410981686D+02
 0.977798284718129D+02 0.484374080274174D+02 0.317007340421242D+01 -.848802862517236D+02
0.939093095989D-05 0.000000000000D+00 0.000000000000D+00 0.776745556160D-06 0.000000000000D+00  7 -1 1 24 -13 13 -24 21 0 0.14928947D-01 0.16372858D+00 0.86714105D+05 0.86714105D+05 0.86714105D+05 0.11268382D+01  1  2  2  2  7  2        1 0.478439279941D-03 0.100000000000D+01
-.516875932839D-06 0.000000000000D+00 -.360636475749D-07 0.776745556160D-06 0.000000000000D+00  7 -1 1 24 -13 13 -24 21 2 0.14928947D-01 0.16372858D+00 0.86714105D+05 0.86714105D+05 0.86714105D+05 0.11268382D+01  1  2  3  2  7  2        1 -.334370224513D-04 0.100000000000D+01
0.605479853682D-06 0.000000000000D+00 0.000000000000D+00 0.776745556160D-06 0.000000000000D+00  7 -1 1 24 -13 13 -24 21 2 0.14928947D-01 0.16372858D+00 0.86714105D+05 0.86714105D+05 0.86714105D+05 0.11268382D+01  1  2 15  2  7  2        1 0.391688646639D-04 0.100000000000D+01
0.305270374001D-04 0.000000000000D+00 0.000000000000D+00 0.776745556160D-06 0.000000000000D+00  7 -1 1 24 -13 13 -24 21 2 0.14928947D-01 0.21222185D+00 0.10251978D+06 0.10251978D+06 0.10251978D+06 0.11208362D+01  1  2 12  2  7  2        1 0.117483208879D-02 0.100000000000D+01
-.305436360111D-04 0.000000000000D+00 0.000000000000D+00 0.776745556160D-06 0.000000000000D+00  7 -1 1 24 -13 13 -24 21 2 0.14928947D-01 0.16372858D+00 0.86714105D+05 0.86714105D+05 0.86714105D+05 0.11268382D+01  1  2  4  2  7  2        1 -.197588662610D-02 0.100000000000D+01
-.384173050175D-04 0.000000000000D+00 -.486102354457D-05 0.776745556160D-06 0.000000000000D+00  7 -1 1 24 -13 13 -24 21 2 0.14928947D-01 0.21265779D+00 0.86714105D+05 0.86714105D+05 0.86714105D+05 0.11268382D+01  1  2  5  2  7  2        1 -.149320036071D-02 0.100000000000D+01
0.385254148496D-04 0.000000000000D+00 0.469945810817D-05 0.776745556160D-06 0.000000000000D+00  7 -1 1 24 -13 13 -24 21 2 0.14928947D-01 0.16372858D+00 0.86714105D+05 0.86714105D+05 0.86714105D+05 0.11268382D+01  1  2  6  2  7  2        1 0.249223281533D-02 0.100000000000D+01
0.106163963879D-05 0.000000000000D+00 0.000000000000D+00 0.776745556160D-06 0.000000000000D+00  7 -1 21 24 -13 13 -24 -1 2 0.14928947D-01 0.21222185D+00 0.10251978D+06 0.10251978D+06 0.10251978D+06 0.11208362D+01  1  2 12  4  7  2        1 0.372582957251D-04 0.100000000000D+01
-.125613945590D-05 0.000000000000D+00 -.170031597289D-06 0.776745556160D-06 0.000000000000D+00  7 -1 21 24 -13 13 -24 -1 2 0.14928947D-01 0.21265779D+00 0.86714105D+05 0.86714105D+05 0.86714105D+05 0.11268382D+01  1  2  5  4  7  2        1 -.447437716230D-04 0.100000000000D+01
  </mgrwgt>
  </event>
  <event>
  8     66 0.29788925E-05 0.29464037E+03 0.75467711E-02 0.91459748E-01
       -1 -1    0    0    0  501 0.00000000E+00 0.00000000E+00 0.17858528E+03 0.17858557E+03 0.32000000E+00 0.0000E+00 0.9000E+01
        1 -1    0    0  501    0 0.00000000E+00 0.00000000E+00 -.18113178E+04 0.18113178E+04 0.32000000E+00 0.0000E+00 0.9000E+01
       25  2    1    2    0    0 0.47559034E+03 -.16658870E+03 -.11248355E+04 0.12686223E+04 0.30034940E+03 0.0000E+00 0.0000E+00
       23  2    1    2    0    0 -.47559034E+03 0.16658870E+03 -.50789701E+03 0.72128105E+03 0.91372965E+02 0.0000E+00 0.0000E+00
       24  1    3    3    0    0 0.43393467E+03 -.19464781E+03 -.10132219E+04 0.11221733E+04 0.80419002E+02 0.0000E+00 0.9000E+01
      -13  1    4    4    0    0 -.45267908E+03 0.13717200E+03 -.45314122E+03 0.65503548E+03 0.10565837E+00 0.0000E+00 0.9000E+01
       13  1    4    4    0    0 -.22911259E+02 0.29416698E+02 -.54755785E+02 0.66245566E+02 0.10565837E+00 0.0000E+00 0.9000E+01
      -24  1    3    3    0    0 0.41655670E+02 0.28059114E+02 -.11161357E+03 0.14644902E+03 0.80419002E+02 0.0000E+00 0.9000E+01
#aMCatNLO 1  0  0  1  2 0.22449201D+03 0.00000000D+00  -5  7  0 0.00000000D+00 0.00000000D+00 0.00000000D+00 0.00000000D+00 0.00000000D+00
  <mgrwgt>
 0.1106597282D-02    9    2    0
 0.568748633176898D+03 0.000000000000000D+00 0.000000000000000D+00 0.568748633176898D+03
 0.568748633176898D+03 0.000000000000000D+00 0.000000000000000D+00 -.568748633176898D+03
 0.508745049158799D+03 0.433934666142117D+03 -.194647811337392D+03 -.161762925761470D+03
 0.495473379332440D+03 -.452679651985086D+03 0.137172143692413D+03 0.147508661781597D+03
 0.372924234633607D+02 -.229106845169112D+02 0.294165539619020D+02 -.701238720896065D+00
 0.959864143991956D+02 0.416556703598803D+02 0.280591136830774D+02 0.149555027007685D+02
 0.000000000000000D+00 -.000000000000000D+00 0.000000000000000D+00 0.000000000000000D+00
 0.695491637685146D+03 0.000000000000000D+00 0.000000000000000D+00 0.695491637685146D+03
 0.688545888554714D+03 0.000000000000000D+00 0.000000000000000D+00 -.688545888554714D+03
 0.577355558828508D+03 0.460742319382222D+03 -.297357522748606D+03 -.161762925761470D+03
 0.456274142768582D+03 -.429188165692767D+03 0.471678543913640D+02 0.147508661781597D+03
 0.312525005385522D+02 -.212188260090536D+02 0.229344386669049D+02 -.701238720896065D+00
 0.945558913858624D+02 0.463587264335913D+02 0.100400230989394D+02 0.149555027007685D+02
 0.224599432718355D+03 -.566940541139927D+02 0.217215206591398D+03 0.694574913043224D+01
0.139738629879D-03 0.000000000000D+00 0.000000000000D+00 0.770276180312D-05 0.000000000000D+00  7 -1 1 24 -13 13 -24 21 0 0.27474683D-01 0.27866430D+00 0.29563627D+06 0.29563627D+06 0.29563627D+06 0.10850230D+01  1  2  2  1  7  1       -1 0.796015190296D-03 0.100000000000D+01
-.774414667675D-05 0.000000000000D+00 -.536633132762D-06 0.770276180312D-05 0.000000000000D+00  7 -1 1 24 -13 13 -24 21 2 0.27474683D-01 0.27866430D+00 0.29563627D+06 0.29563627D+06 0.29563627D+06 0.10850230D+01  1  2  3  1  7  1       -1 -.519345435772D-04 0.100000000000D+01
0.894078775114D-05 0.000000000000D+00 0.000000000000D+00 0.770276180312D-05 0.000000000000D+00  7 -1 1 24 -13 13 -24 21 2 0.27474683D-01 0.27866430D+00 0.29563627D+06 0.29563627D+06 0.29563627D+06 0.10850230D+01  1  2 15  1  7  1       -1 0.599595733989D-04 0.100000000000D+01
0.512997552472D-04 0.000000000000D+00 0.000000000000D+00 0.770276180312D-05 0.000000000000D+00  7 -1 1 24 -13 13 -24 21 2 0.35911764D-01 0.27866430D+00 0.44562685D+06 0.44562685D+06 0.44562685D+06 0.10720621D+01  1  2 12  1  7  1       -1 0.208958043449D-03 0.100000000000D+01
-.549502377142D-04 0.000000000000D+00 0.000000000000D+00 0.770276180312D-05 0.000000000000D+00  7 -1 1 24 -13 13 -24 21 2 0.27474683D-01 0.27866430D+00 0.29563627D+06 0.29563627D+06 0.29563627D+06 0.10850230D+01  1  2  4  1  7  1       -1 -.368512585604D-03 0.100000000000D+01
-.109160009351D-03 0.000000000000D+00 -.575201346562D-04 0.770276180312D-05 0.000000000000D+00  7 -1 1 24 -13 13 -24 21 2 0.41686145D-01 0.27866430D+00 0.29563627D+06 0.29563627D+06 0.29563627D+06 0.10850230D+01  1  2  5  1  7  1       -1 -.358017702061D-03 0.100000000000D+01
0.126635510178D-03 0.000000000000D+00 0.528594889688D-04 0.770276180312D-05 0.000000000000D+00  7 -1 1 24 -13 13 -24 21 2 0.27474683D-01 0.27866430D+00 0.29563627D+06 0.29563627D+06 0.29563627D+06 0.10850230D+01  1  2  6  1  7  1       -1 0.849255275792D-03 0.100000000000D+01
0.182605809733D-05 0.000000000000D+00 0.000000000000D+00 0.770276180312D-05 0.000000000000D+00  7 21 1 24 -13 13 -24 1 2 0.35911764D-01 0.27866430D+00 0.44562685D+06 0.44562685D+06 0.44562685D+06 0.10720621D+01  1  2 12  3  7  1       -1 0.738382081023D-04 0.100000000000D+01
-.328191242678D-05 0.000000000000D+00 -.282279175804D-05 0.770276180312D-05 0.000000000000D+00  7 21 1 24 -13 13 -24 1 2 0.41686145D-01 0.27866430D+00 0.29563627D+06 0.29563627D+06 0.29563627D+06 0.10850230D+01  1  2  5  3  7  1       -1 -.102964177697D-03 0.100000000000D+01
  </mgrwgt>
  </event>
  <event>
  9     66 0.29788925E-05 0.32249868E+03 0.75467711E-02 0.96242625E-01
       21 -1    0    0  502  501 0.00000000E+00 0.00000000E+00 0.30796188E+03 0.30796279E+03 0.75000000E+00 0.0000E+00 0.9000E+01
        1 -1    0    0  501    0 0.00000000E+00 0.00000000E+00 -.13401589E+04 0.13401589E+04 0.32000000E+00 0.0000E+00 0.9000E+01
       25  2    1    2    0    0 -.28318350E+03 -.10765025E+03 -.12033064E+03 0.44301280E+03 0.29999901E+03 0.0000E+00 0.0000E+00
       23  2    1    2    0    0 0.13142056E+03 0.24475783E+03 -.95255131E+03 0.99657631E+03 0.92911747E+02 0.0000E+00 0.0000E+00
       24  1    3    3    0    0 -.18887211E+03 0.15019683E+02 -.16407890E+03 0.26322493E+03 0.80419002E+02 0.0000E+00 0.9000E+01
      -11  1    4    4    0    0 0.30135266E+02 0.15560754E+02 -.54239844E+02 0.63970556E+02 0.51099893E-03 0.0000E+00 0.9000E+01
       11  1    4    4    0    0 0.10128529E+03 0.22919707E+03 -.89831146E+03 0.93260575E+03 0.51099893E-03 0.0000E+00 0.9000E+01
      -24  1    3    3    0    0 -.94311392E+02 -.12266993E+03 0.43748255E+02 0.17978786E+03 0.80419002E+02 0.0000E+00 0.9000E+01
        1  1    1    2  502    0 0.15176294E+03 -.13710758E+03 0.40684947E+02 0.20853260E+03 0.32000000E+00 0.0000E+00 0.9000E+01
#aMCatNLO 2  0  0  1  2 0.20452501D+03 0.00000000D+00  -5  7  0 0.00000000D+00 0.00000000D+00 0.00000000D+00 0.00000000D+00 0.00000000D+00
  <mgrwgt>
 0.1559451014D-03    2    2    0
 0.468911142902428D+03 0.000000000000000D+00 0.000000000000000D+00 0.468911142902428D+03
 0.468911142902428D+03 0.000000000000000D+00 0.000000000000000D+00 -.468911142902428D+03
 0.183590601713872D+03 -.157285114062247D+03 -.135170354441995D+02 0.481349740886717D+02
 0.387475174598361D+02 0.360582969681324D+02 0.102096957421053D+02 -.984537667699487D+01
 0.386782905878775D+03 0.163776501358394D+03 0.172740481411084D+03 -.304858983736252D+03
 0.328701260752373D+03 -.425496842642795D+02 -.169433141708989D+03 0.266569386324575D+03
 0.000000000000000D+00 0.000000000000000D+00 -.000000000000000D+00 0.000000000000000D+00
 0.806099058261858D+03 0.000000000000000D+00 0.000000000000000D+00 0.806099058261858D+03
 0.511994793985512D+03 0.000000000000000D+00 0.000000000000000D+00 -.511994793985512D+03
 0.211382250843255D+03 -.188872108606399D+03 0.150196829941840D+02 0.481349740886717D+02
 0.353157584436173D+02 0.301352663680837D+02 0.155607542702999D+02 -.984537667699487D+01
 0.394625149942521D+03 0.101285290035424D+03 0.229197074642974D+03 -.304858983736252D+03
 0.318541997756462D+03 -.943113917915095D+02 -.122669931251286D+03 0.266569386324575D+03
 0.358228695261515D+03 0.151762943994401D+03 -.137107580656172D+03 0.294104264276346D+03
-.116651780546D-05 0.000000000000D+00 0.000000000000D+00 0.412398954499D-05 0.000000000000D+00  7 21 1 24 -11 11 -24 1 2 0.47857540D-01 0.18882871D+00 0.18889139D+06 0.18889139D+06 0.18889139D+06 0.10997366D+01  1  2 13  3  7  1       -1 -.718153956192D-04 0.100000000000D+01
0.433366070677D-05 0.000000000000D+00 0.000000000000D+00 0.412398954499D-05 0.476006823607D-10  7 21 1 24 -11 11 -24 1 2 0.47378817D-01 0.20617834D+00 0.18889139D+06 0.18889139D+06 0.18889139D+06 0.10997366D+01  1  2  1  3  7  1       -1 0.227760496987D-03 0.100000000000D+01
  </mgrwgt>
  </event>
  <event>
  8     66 0.29788925E-05 0.69625343E+03 0.75467711E-02 0.84538180E-01
       -1 -1    0    0    0  501 0.00000000E+00 0.00000000E+00 0.37094536E+03 0.37094550E+03 0.32000000E+00 0.0000E+00 0.9000E+01
        1 -1    0    0  501    0 0.00000000E+00 0.00000000E+00 -.13572092E+04 0.13572092E+04 0.32000000E+00 0.0000E+00 0.9000E+01
       25  2    1    2    0    0 0.65252303E+03 0.12112785E+03 -.36521885E+03 0.81453359E+03 0.29936917E+03 0.0000E+00 0.0000E+00
       23  2    1    2    0    0 -.65252303E+03 -.12112785E+03 -.62104496E+03 0.91362113E+03 0.92457827E+02 0.0000E+00 0.0000E+00
       24  1    3    3    0    0 0.16003822E+03 -.69102391E+02 -.12403751E+03 0.22856048E+03 0.80419002E+02 0.0000E+00 0.9000E+01
      -13  1    4    4    0    0 -.59794683E+02 0.66052744E+01 -.31430979E+02 0.67874526E+02 0.10565837E+00 0.0000E+00 0.9000E+01
       13  1    4    4    0    0 -.59272835E+03 -.12773312E+03 -.58961399E+03 0.84574660E+03 0.10565837E+00 0.0000E+00 0.9000E+01
      -24  1    3    3    0    0 0.49248481E+03 0.19023024E+03 -.24118134E+03 0.58597311E+03 0.80419002E+02 0.0000E+00 0.9000E+01
#aMCatNLO 1  0  0  1  1 0.10064411D+04 0.00000000D+00  -5  7  0 0.00000000D+00 0.00000000D+00 0.00000000D+00 0.00000000D+00 0.00000000D+00
  <mgrwgt>
 0.1100113545D-02    3    2    0
 0.709542532998611D+03 0.000000000000000D+00 0.000000000000000D+00 0.709542532998611D+03
 0.709542532998611D+03 0.000000000000000D+00 0.000000000000000D+00 -.709542532998611D+03
 0.192133769925381D+03 0.160038221673390D+03 -.691023914669539D+02 0.779722312977238D+01
 0.608120056423106D+02 -.597939865401263D+02 0.660544979948168D+01 0.889647328024685D+01
 0.620165132928233D+03 -.592729048138624D+03 -.127733298001372D+03 -.130235448992453D+03
 0.545974157501298D+03 0.492484813005361D+03 0.190230239668844D+03 0.113541752582434D+03
 0.000000000000000D+00 -.000000000000000D+00 -.000000000000000D+00 -.000000000000000D+00
 0.137217386382630D+04 0.000000000000000D+00 0.000000000000000D+00 0.137217386382630D+04
 0.137401782638528D+04 0.000000000000000D+00 0.000000000000000D+00 -.137401782638528D+04
 0.335110528684538D+03 0.323715172970783D+03 -.312976130211316D+02 0.779722312977238D+01
 0.342885179012358D+02 -.302711186752052D+02 0.134244030477660D+02 0.889647328024685D+01
 0.330322853549273D+03 -.297660943501733D+03 -.595808536052251D+02 -.130235448992453D+03
 0.104002697788107D+04 0.984840692960828D+03 0.303950618810038D+03 0.113541752582434D+03
 0.100644281219546D+04 -.980623803754673D+03 -.226496555231447D+03 -.184396255897173D+01
0.351241184817D-03 0.000000000000D+00 0.000000000000D+00 0.357894137418D-05 0.000000000000D+00  7 -1 1 24 -13 13 -24 21 0 0.57068531D-01 0.20880143D+00 0.48476884D+06 0.48476884D+06 0.48476884D+06 0.10694612D+01  1  2  2  1  7  1       -1 0.109030858230D-02 0.100000000000D+01
-.195049181613D-04 0.000000000000D+00 -.134885863363D-05 0.357894137418D-05 0.000000000000D+00  7 -1 1 24 -13 13 -24 21 2 0.57068531D-01 0.20880143D+00 0.48476884D+06 0.48476884D+06 0.48476884D+06 0.10694612D+01  1  2  3  1  7  1       -1 -.692497513182D-04 0.100000000000D+01
0.222665886996D-04 0.000000000000D+00 0.000000000000D+00 0.357894137418D-05 0.000000000000D+00  7 -1 1 24 -13 13 -24 21 2 0.57068531D-01 0.20880143D+00 0.48476884D+06 0.48476884D+06 0.48476884D+06 0.10694612D+01  1  2 15  1  7  1       -1 0.790547141699D-04 0.100000000000D+01
  </mgrwgt>
  </event>
  <event>
  8     66 0.29788925E-05 0.23814726E+03 0.75467711E-02 0.10303480E+00
       -1 -1    0    0    0  501 0.00000000E+00 0.00000000E+00 0.27303416E+02 0.27305291E+02 0.32000000E+00 0.0000E+00 0.9000E+01
        1 -1    0    0  501    0 0.00000000E+00 0.00000000E+00 -.24602485E+04 0.24602486E+04 0.32000000E+00 0.0000E+00 0.9000E+01
       25  2    1    2    0    0 0.71755194E+02 0.12397089E+03 -.13335994E+04 0.13743317E+04 0.29963768E+03 0.0000E+00 0.0000E+00
       23  2    1    2    0    0 -.71755194E+02 -.12397089E+03 -.10993458E+04 0.11132222E+04 0.10092023E+03 0.0000E+00 0.0000E+00
       24  1    3    3    0    0 0.99026562E+02 -.51161534E+02 -.54192861E+03 0.55908640E+03 0.80419002E+02 0.0000E+00 0.9000E+01
      -13  1    4    4    0    0 -.24943961E+02 -.59729444E+02 -.82657897E+03 0.82910953E+03 0.10565837E+00 0.0000E+00 0.9000E+01
       13  1    4    4    0    0 -.46811233E+02 -.64241444E+02 -.27276679E+03 0.28411263E+03 0.10565837E+00 0.0000E+00 0.9000E+01
      -24  1    3    3    0    0 -.27271368E+02 0.17513242E+03 -.79167074E+03 0.81524528E+03 0.80419002E+02 0.0000E+00 0.9000E+01
#aMCatNLO 1  0  0  2  1 0.30785117D+02 0.00000000D+00  -5  7  0 0.00000000D+00 0.00000000D+00 0.00000000D+00 0.00000000D+00 0.00000000D+00
  <mgrwgt>
 0.7067407074D-03    4    2    0
 0.259182459362786D+03 0.000000000000000D+00 0.000000000000000D+00 0.259182459362786D+03
 0.259182459362786D+03 0.000000000000000D+00 0.000000000000000D+00 -.259182459362786D+03
 0.139428699676879D+03 0.990265769538194D+02 -.511615061057917D+02 0.234389353216211D+02
 0.992222479807892D+02 -.249439816345638D+02 -.597294871257201D+02 -.752013340458412D+02
 0.831823652535096D+02 -.468112490317826D+02 -.642414646467494D+02 0.245162614053034D+02
 0.196531605814393D+03 -.272713462874730D+02 0.175132457878261D+03 0.272461373189167D+02
 0.000000000000000D+00 0.000000000000000D+00 -.000000000000000D+00 0.000000000000000D+00
 0.321392656507510D+03 0.000000000000000D+00 0.000000000000000D+00 0.321392656507510D+03
 0.263475848353822D+03 0.000000000000000D+00 0.000000000000000D+00 -.263475848353822D+03
 0.134231918850395D+03 0.952174261335623D+02 -.439914782131365D+02 0.234389353216211D+02
 0.969594544836579D+02 -.276746839799851D+02 -.545894407198158D+02 -.752013340458412D+02
 0.812639584028692D+02 -.491002186760631D+02 -.599328990452895D+02 0.245162614053034D+02
 0.206822929298353D+03 -.328857392774019D+02 0.185700523107929D+03 0.272461373189167D+02
 0.655902438260579D+02 0.144432157998878D+02 -.271867051296868D+02 0.579168081536876D+02
0.195761108466D-04 0.000000000000D+00 0.000000000000D+00 0.158410624931D-07 0.000000000000D+00  7 -1 1 24 -13 13 -24 21 0 0.42006714D-02 0.37849992D+00 0.56714116D+05 0.56714116D+05 0.56714116D+05 0.11425130D+01  1  2  2  2  7  2        1 0.804764058930D-03 0.100000000000D+01
-.107808804188D-05 0.000000000000D+00 -.751774201594D-07 0.158410624931D-07 0.000000000000D+00  7 -1 1 24 -13 13 -24 21 2 0.42006714D-02 0.37849992D+00 0.56714116D+05 0.56714116D+05 0.56714116D+05 0.11425130D+01  1  2  3  2  7  2        1 -.578520434616D-04 0.100000000000D+01
0.126035936121D-05 0.000000000000D+00 0.000000000000D+00 0.158410624931D-07 0.000000000000D+00  7 -1 1 24 -13 13 -24 21 2 0.42006714D-02 0.37849992D+00 0.56714116D+05 0.56714116D+05 0.56714116D+05 0.11425130D+01  1  2 15  2  7  2        1 0.676330333974D-04 0.100000000000D+01
-.200896225007D-05 0.000000000000D+00 0.000000000000D+00 0.158410624931D-07 0.000000000000D+00  7 -1 1 24 -13 13 -24 21 2 0.42006714D-02 0.37849992D+00 0.56714116D+05 0.56714116D+05 0.56714116D+05 0.11425130D+01  1  2  4  2  7  2        1 -.107804341471D-03 0.100000000000D+01
  </mgrwgt>
  </event>
  <event>
  8     66 0.29788925E-05 0.22544775E+03 0.75467711E-02 0.10255746E+00
       -1 -1    0    0    0  501 0.00000000E+00 0.00000000E+00 0.10266142E+03 0.10266192E+03 0.32000000E+00 0.0000E+00 0.9000E+01
        1 -1    0    0  501    0 0.00000000E+00 0.00000000E+00 -.73527992E+03 0.73527999E+03 0.32000000E+00 0.0000E+00 0.9000E+01
       25  2    1    2    0    0 0.55130526E+02 -.15958197E+03 -.33131234E+03 0.47800697E+03 0.30036147E+03 0.0000E+00 0.0000E+00
       23  2    1    2    0    0 -.55130526E+02 0.15958197E+03 -.30130617E+03 0.35993494E+03 0.10130142E+03 0.0000E+00 0.0000E+00
       24  1    3    3    0    0 0.21955856E+02 0.54368115E+02 -.42542032E+02 0.10823582E+03 0.80419002E+02 0.0000E+00 0.9000E+01
      -13  1    4    4    0    0 0.93390507E+01 0.15047995E+02 -.11108032E+03 0.11248338E+03 0.10565837E+00 0.0000E+00 0.9000E+01
       13  1    4    4    0    0 -.64469577E+02 0.14453398E+03 -.19022584E+03 0.24745157E+03 0.10565837E+00 0.0000E+00 0.9000E+01
      -24  1    3    3    0    0 0.33174670E+02 -.21395009E+03 -.28877031E+03 0.36977115E+03 0.80419002E+02 0.0000E+00 0.9000E+01
#aMCatNLO 1  0  0  2  1 0.17619657D+02 0.00000000D+00  -5  7  0 0.00000000D+00 0.00000000D+00 0.00000000D+00 0.00000000D+00 0.00000000D+00
  <mgrwgt>
 0.9427142209D-03    9    2    0
 0.274745551300168D+03 0.000000000000000D+00 0.000000000000000D+00 0.274745551300168D+03
 0.274745551300168D+03 0.000000000000000D+00 0.000000000000000D+00 -.274745551300168D+03
 0.116075486464329D+03 0.219558620287626D+02 0.543680961701806D+02 0.597356915500609D+02
 0.436458017991170D+02 0.933909634261459D+01 0.150478929747263D+02 -.398910793437876D+02
 0.158346010054088D+03 -.644696400828794D+02 0.144534128500522D+03 -.519712480395279D+01
 0.231423804282801D+03 0.331746817115023D+02 -.213950117645429D+03 -.146474874023206D+02
 0.000000000000000D+00 0.000000000000000D+00 -.000000000000000D+00 -.000000000000000D+00
 0.281996123277431D+03 0.000000000000000D+00 0.000000000000000D+00 0.281996123277431D+03
 0.285803783592233D+03 0.000000000000000D+00 0.000000000000000D+00 -.285803783592233D+03
 0.117346311826996D+03 0.202049112147168D+02 0.576745148472830D+02 0.597356915500609D+02
 0.439545049106950D+02 0.868198621208268D+01 0.162887509080703D+02 -.398910793437876D+02
 0.163490548693541D+03 -.668838104330948D+02 0.149092941844465D+03 -.519712480395279D+01
 0.224982155352710D+03 0.297510752085579D+02 -.207485129369586D+03 -.146474874023206D+02
 0.180263860857225D+02 0.824583779773736D+01 -.155710782302322D+02 -.380766031480271D+01
0.439030486677D-05 0.000000000000D+00 0.000000000000D+00 0.159564237526D-07 0.000000000000D+00  7 -1 1 24 -13 13 -24 21 0 0.15794108D-01 0.11312003D+00 0.64124314D+05 0.64124314D+05 0.64124314D+05 0.11379107D+01  1  2  2  2  7  2        1 0.376089971185D-03 0.100000000000D+01
-.241933334859D-06 0.000000000000D+00 -.168599266822D-07 0.159564237526D-07 0.000000000000D+00  7 -1 1 24 -13 13 -24 21 2 0.15794108D-01 0.11312003D+00 0.64124314D+05 0.64124314D+05 0.64124314D+05 0.11379107D+01  1  2  3  2  7  2        1 -.268354657099D-04 0.100000000000D+01
0.286769864142D-06 0.000000000000D+00 0.000000000000D+00 0.159564237526D-07 0.000000000000D+00  7 -1 1 24 -13 13 -24 21 2 0.15794108D-01 0.11312003D+00 0.64124314D+05 0.64124314D+05 0.64124314D+05 0.11379107D+01  1  2 15  2  7  2        1 0.318087743481D-04 0.100000000000D+01
0.108503098294D-04 0.000000000000D+00 0.000000000000D+00 0.159564237526D-07 0.000000000000D+00  7 -1 1 24 -13 13 -24 21 2 0.15794108D-01 0.11911580D+00 0.68904797D+05 0.68904797D+05 0.68904797D+05 0.11352423D+01  1  2 12  2  7  2        1 0.110655284998D-02 0.100000000000D+01
-.953272053800D-05 0.000000000000D+00 0.000000000000D+00 0.159564237526D-07 0.000000000000D+00  7 -1 1 24 -13 13 -24 21 2 0.15794108D-01 0.11312003D+00 0.64124314D+05 0.64124314D+05 0.64124314D+05 0.11379107D+01  1  2  4  2  7  2        1 -.105737803874D-02 0.100000000000D+01
-.567510931828D-04 0.000000000000D+00 -.936733609428D-05 0.159564237526D-07 0.000000000000D+00  7 -1 1 24 -13 13 -24 21 2 0.15794108D-01 0.11999955D+00 0.64124314D+05 0.64124314D+05 0.64124314D+05 0.11379107D+01  1  2  5  2  7  2        1 -.575093947800D-02 0.100000000000D+01
0.572206768394D-04 0.000000000000D+00 0.935103461100D-05 0.159564237526D-07 0.000000000000D+00  7 -1 1 24 -13 13 -24 21 2 0.15794108D-01 0.11312003D+00 0.64124314D+05 0.64124314D+05 0.64124314D+05 0.11379107D+01  1  2  6  2  7  2        1 0.634696955718D-02 0.100000000000D+01
0.129826764126D-06 0.000000000000D+00 0.000000000000D+00 0.159564237526D-07 0.000000000000D+00  7 -1 21 24 -13 13 -24 -1 2 0.15794108D-01 0.11911580D+00 0.68904797D+05 0.68904797D+05 0.68904797D+05 0.11352423D+01  1  2 12  4  7  2        1 0.253291035939D-04 0.100000000000D+01
-.564823973089D-06 0.000000000000D+00 -.951048818470D-07 0.159564237526D-07 0.000000000000D+00  7 -1 21 24 -13 13 -24 -1 2 0.15794108D-01 0.11999955D+00 0.64124314D+05 0.64124314D+05 0.64124314D+05 0.11379107D+01  1  2  5  4  7  2        1 -.108883052974D-03 0.100000000000D+01
  </mgrwgt>
  </event>
  <event>
  8     66 0.29788925E-05 0.72997919E+02 0.75467711E-02 0.10021165E+00
       -1 -1    0    0    0  501 0.00000000E+00 0.00000000E+00 0.34953818E+03 0.34953833E+03 0.32000000E+00 0.0000E+00 0.9000E+01
        1 -1    0    0  501    0 0.00000000E+00 0.00000000E+00 -.20544357E+03 0.20544381E+03 0.32000000E+00 0.0000E+00 0.9000E+01
       25  2    1    2    0    0 0.11987911E+03 -.11657215E+03 0.12329529E+03 0.36488640E+03 0.29996714E+03 0.0000E+00 0.0000E+00
       23  2    1    2    0    0 -.11987911E+03 0.11657215E+03 0.20799321E+02 0.19009574E+03 0.87998366E+02 0.0000E+00 0.0000E+00
       24  1    3    3    0    0 0.31263024E+02 0.62671331E+02 -.16628171E+02 0.10792953E+03 0.80419002E+02 0.0000E+00 0.9000E+01
      -11  1    4    4    0    0 -.10844954E+03 0.11193069E+03 -.10748320E+02 0.15622198E+03 0.51099893E-03 0.0000E+00 0.9000E+01
       11  1    4    4    0    0 -.11429576E+02 0.46414656E+01 0.31547640E+02 0.33873766E+02 0.51099893E-03 0.0000E+00 0.9000E+01
      -24  1    3    3    0    0 0.88616087E+02 -.17924348E+03 0.13992347E+03 0.25695686E+03 0.80419002E+02 0.0000E+00 0.9000E+01
#aMCatNLO 1  0  0  2  1 0.12159354D+03 0.00000000D+00  -5  7  0 0.00000000D+00 0.00000000D+00 0.00000000D+00 0.00000000D+00 0.00000000D+00
  <mgrwgt>
 0.6858734110D-03    9    2    0
 0.267974774376656D+03 0.000000000000000D+00 0.000000000000000D+00 0.267974774376656D+03
 0.267974774376656D+03 0.000000000000000D+00 0.000000000000000D+00 -.267974774376656D+03
 0.116232944650032D+03 0.312630241827501D+02 0.626713312520663D+02 -.462364469405841D+02
 0.164659496671492D+03 -.108449535172778D+03 0.111930685872325D+03 -.531316264109087D+02
 0.265948353181928D+02 -.114295755432091D+02 0.464146555697265D+01 0.235607059738733D+02
 0.228462272113595D+03 0.886160865332371D+02 -.179243482681364D+03 0.758073673776195D+02
 0.000000000000000D+00 0.000000000000000D+00 -.000000000000000D+00 -.000000000000000D+00
 0.325553772839912D+03 0.000000000000000D+00 0.000000000000000D+00 0.325553772839912D+03
 0.347590224101796D+03 0.000000000000000D+00 0.000000000000000D+00 -.347590224101796D+03
 0.114632148554812D+03 0.578442632639052D+01 0.670972794851405D+02 -.462364469405841D+02
 0.197431684529939D+03 -.148410429498971D+03 0.118872388497885D+03 -.531316264109087D+02
 0.300057452961172D+02 -.176760955861023D+02 0.572656350869548D+01 0.235607059738733D+02
 0.207500170146051D+03 0.405026554700397D+02 -.170885583380867D+03 0.758073673776195D+02
 0.123574248414789D+03 0.119799443288643D+03 -.208106481108532D+02 -.220364512618835D+02
0.880576842705D-05 0.000000000000D+00 0.000000000000D+00 0.172524383915D-06 0.000000000000D+00  7 -1 1 24 -11 11 -24 21 0 0.53775135D-01 0.31606733D-01 0.60110131D+05 0.60110131D+05 0.60110131D+05 0.11403263D+01  1  2  2  2  7  2        1 0.549687940693D-03 0.100000000000D+01
-.484505718739D-06 0.000000000000D+00 -.338164693720D-07 0.172524383915D-06 0.000000000000D+00  7 -1 1 24 -11 11 -24 21 2 0.53775135D-01 0.31606733D-01 0.60110131D+05 0.60110131D+05 0.60110131D+05 0.11403263D+01  1  2  3  2  7  2        1 -.393283898772D-04 0.100000000000D+01
0.573643174984D-06 0.000000000000D+00 0.000000000000D+00 0.172524383915D-06 0.000000000000D+00  7 -1 1 24 -11 11 -24 21 2 0.53775135D-01 0.31606733D-01 0.60110131D+05 0.60110131D+05 0.60110131D+05 0.11403263D+01  1  2 15  2  7  2        1 0.465638723416D-04 0.100000000000D+01
0.285334624800D-05 0.000000000000D+00 0.000000000000D+00 0.172524383915D-06 0.000000000000D+00  7 -1 1 24 -11 11 -24 21 2 0.53775135D-01 0.43546617D-01 0.98713129D+05 0.98713129D+05 0.98713129D+05 0.11221839D+01  1  2 12  2  7  2        1 0.147433610384D-03 0.100000000000D+01
-.411999644921D-05 0.000000000000D+00 0.000000000000D+00 0.172524383915D-06 0.000000000000D+00  7 -1 1 24 -11 11 -24 21 2 0.53775135D-01 0.31606733D-01 0.60110131D+05 0.60110131D+05 0.60110131D+05 0.11403263D+01  1  2  4  2  7  2        1 -.334429131340D-03 0.100000000000D+01
-.671195566032D-05 0.000000000000D+00 -.363338472200D-05 0.172524383915D-06 0.000000000000D+00  7 -1 1 24 -11 11 -24 21 2 0.53775135D-01 0.48973754D-01 0.60110131D+05 0.60110131D+05 0.60110131D+05 0.11403263D+01  1  2  5  2  7  2        1 -.308985265203D-03 0.100000000000D+01
0.785986876447D-05 0.000000000000D+00 0.331082245340D-05 0.172524383915D-06 0.000000000000D+00  7 -1 1 24 -11 11 -24 21 2 0.53775135D-01 0.31606733D-01 0.60110131D+05 0.60110131D+05 0.60110131D+05 0.11403263D+01  1  2  6  2  7  2        1 0.638002754554D-03 0.100000000000D+01
0.115673110340D-06 0.000000000000D+00 0.000000000000D+00 0.172524383915D-06 0.000000000000D+00  7 -1 21 24 -11 11 -24 -1 2 0.53775135D-01 0.43546617D-01 0.98713129D+05 0.98713129D+05 0.98713129D+05 0.11221839D+01  1  2 12  4  7  2        1 0.297546645792D-04 0.100000000000D+01
-.201983281821D-06 0.000000000000D+00 -.184969240345D-06 0.172524383915D-06 0.000000000000D+00  7 -1 21 24 -11 11 -24 -1 2 0.53775135D-01 0.48973754D-01 0.60110131D+05 0.60110131D+05 0.60110131D+05 0.11403263D+01  1  2  5  4  7  2        1 -.428266451120D-04 0.100000000000D+01
  </mgrwgt>
  </event>
  <event>
  8     66 0.29788925E-05 0.12236100E+03 0.75467711E-02 0.10653368E+00
       -3 -1    0    0    0  501 0.00000000E+00 0.00000000E+00 0.37796955E+03 0.37796988E+03 0.50000000E+00 0.0000E+00 0.9000E+01
        3 -1    0    0  501    0 0.00000000E+00 0.00000000E+00 -.11288777E+03 0.11288888E+03 0.50000000E+00 0.0000E+00 0.9000E+01
       25  2    1    2    0    0 0.70600757E+02 -.11625132E+02 0.23392576E+03 0.38640190E+03 0.29910793E+03 0.0000E+00 0.0000E+00
       23  2    1    2    0    0 -.70600757E+02 0.11625132E+02 0.31156020E+02 0.10445687E+03 0.69432910E+02 0.0000E+00 0.0000E+00
       24  1    3    3    0    0 -.54682702E+02 0.73486378E+02 0.41761397E+02 0.12884749E+03 0.80419002E+02 0.0000E+00 0.9000E+01
      -11  1    4    4    0    0 -.55116475E+02 -.20003894E+02 0.18853370E+01 0.58664606E+02 0.51099893E-03 0.0000E+00 0.9000E+01
       11  1    4    4    0    0 -.15484283E+02 0.31629026E+02 0.29270683E+02 0.45792262E+02 0.51099893E-03 0.0000E+00 0.9000E+01
      -24  1    3    3    0    0 0.12528346E+03 -.85111510E+02 0.19216436E+03 0.25755441E+03 0.80419002E+02 0.0000E+00 0.9000E+01
#aMCatNLO 1  0  0  1  2 0.71306934D+01 0.00000000D+00  -5  7  0 0.00000000D+00 0.00000000D+00 0.00000000D+00 0.00000000D+00 0.00000000D+00
  <mgrwgt>
 0.7345843321D-03    8    2    0
 0.206563535953643D+03 0.000000000000000D+00 0.000000000000000D+00 0.206563535953643D+03
 0.206563535953643D+03 0.000000000000000D+00 0.000000000000000D+00 -.206563535953643D+03
 0.126294639671015D+03 -.546827016751464D+02 0.734863778017799D+02 -.330556269089259D+02
 0.684928916522383D+02 -.551164746932896D+02 -.200038936350546D+02 -.354019019786598D+02
 0.356268303590621D+02 -.154842829156832D+02 0.316290261188326D+02 0.539562144656965D+01
 0.182712710224970D+03 0.125283459284119D+03 -.851115102855578D+02 0.630619074410161D+02
 0.000000000000000D+00 -.000000000000000D+00 -.000000000000000D+00 -.000000000000000D+00
 0.209902238810233D+03 0.000000000000000D+00 0.000000000000000D+00 0.209902238810233D+03
 0.210437091557114D+03 0.000000000000000D+00 0.000000000000000D+00 -.210437091557114D+03
 0.127361745734887D+03 -.542345574589500D+02 0.756289404206969D+02 -.330556269089259D+02
 0.679703668839908D+02 -.548753799542849D+02 -.188512276923957D+02 -.354019019786598D+02
 0.361117818850288D+02 -.153575396282879D+02 0.322349815678989D+02 0.539562144656965D+01
 0.181744711741111D+03 0.125927359832661D+03 -.820330431409526D+02 0.630619074410161D+02
 0.715072412232873D+01 -.145988279113785D+01 -.697965115524742D+01 -.534852746881714D+00
0.122272152772D-04 0.000000000000D+00 0.000000000000D+00 0.160940394181D-09 0.000000000000D+00  7 -3 3 24 -11 11 -24 21 0 0.58149273D-01 0.17367460D-01 0.37486239D+05 0.37486239D+05 0.37486239D+05 0.11584643D+01  1  2  2  1  7  1       -3 0.415002928074D-03 0.100000000000D+01
-.675827727789D-06 0.000000000000D+00 -.469557261642D-07 0.160940394181D-09 0.000000000000D+00  7 -3 3 24 -11 11 -24 21 2 0.58149273D-01 0.17367460D-01 0.37486239D+05 0.37486239D+05 0.37486239D+05 0.11584643D+01  1  2  3  1  7  1       -3 -.307839889957D-04 0.100000000000D+01
0.789105907265D-06 0.000000000000D+00 0.000000000000D+00 0.160940394181D-09 0.000000000000D+00  7 -3 3 24 -11 11 -24 21 2 0.58149273D-01 0.17367460D-01 0.37486239D+05 0.37486239D+05 0.37486239D+05 0.11584643D+01  1  2 15  1  7  1       -3 0.359438161040D-04 0.100000000000D+01
0.121265652851D-04 0.000000000000D+00 0.000000000000D+00 0.160940394181D-09 0.000000000000D+00  7 -3 3 24 -11 11 -24 21 2 0.59624954D-01 0.17367460D-01 0.38870255D+05 0.38870255D+05 0.38870255D+05 0.11570400D+01  1  2 12  1  7  1       -3 0.522847771602D-03 0.100000000000D+01
-.100681559907D-04 0.000000000000D+00 0.000000000000D+00 0.160940394181D-09 0.000000000000D+00  7 -3 3 24 -11 11 -24 21 2 0.58149273D-01 0.17367460D-01 0.37486239D+05 0.37486239D+05 0.37486239D+05 0.11584643D+01  1  2  4  1  7  1       -3 -.458605041610D-03 0.100000000000D+01
0.144125406742D-05 0.000000000000D+00 0.000000000000D+00 0.160940394181D-09 0.226121596713D-10  7 -3 3 24 -11 11 -24 21 2 0.59089144D-01 0.17693141D-01 0.38870255D+05 0.38870255D+05 0.38870255D+05 0.11570400D+01  1  2 11  1  7  1       -3 0.613693848502D-04 0.100000000000D+01
0.261391076441D-06 0.000000000000D+00 0.000000000000D+00 0.160940394181D-09 0.000000000000D+00  7 21 3 24 -11 11 -24 3 2 0.59624954D-01 0.17367460D-01 0.38870255D+05 0.38870255D+05 0.38870255D+05 0.11570400D+01  1  2 12  3  7  1       -3 0.182090127514D-03 0.100000000000D+01
0.976219110272D-08 0.000000000000D+00 0.000000000000D+00 0.160940394181D-09 0.681529671368D-13  7 21 3 24 -11 11 -24 3 2 0.59089144D-01 0.17693141D-01 0.38870255D+05 0.38870255D+05 0.38870255D+05 0.11570400D+01  1  2 11  3  7  1       -3 0.671933457425D-05 0.100000000000D+01
  </mgrwgt>
  </event>
  <event>
  9     66 0.29788925E-05 0.26825344E+03 0.75467711E-02 0.10038343E+00
       -1 -1    0    0    0  501 0.00000000E+00 0.00000000E+00 0.14413103E+03 0.14413139E+03 0.32000000E+00 0.0000E+00 0.9000E+01
        1 -1    0    0  502    0 0.00000000E+00 0.00000000E+00 -.23267861E+04 0.23267861E+04 0.32000000E+00 0.0000E+00 0.9000E+01
       25  2    1    2    0    0 -.16388011E+03 -.20760850E+03 -.15922280E+03 0.42677276E+03 0.29466101E+03 0.0000E+00 0.0000E+00
       23  2    1    2    0    0 0.11155989E+03 0.13768463E+03 -.12584988E+04 0.12742418E+04 0.92034275E+02 0.0000E+00 0.0000E+00
       24  1    3    3    0    0 -.94888972E+02 -.18772475E+03 -.20972088E+03 0.30772482E+03 0.80419002E+02 0.0000E+00 0.9000E+01
      -11  1    4    4    0    0 0.75284326E+02 0.22039443E+02 -.50651018E+03 0.51254857E+03 0.51099893E-03 0.0000E+00 0.9000E+01
       11  1    4    4    0    0 0.36275560E+02 0.11564519E+03 -.75198863E+03 0.76169326E+03 0.51099893E-03 0.0000E+00 0.9000E+01
      -24  1    3    3    0    0 -.68991137E+02 -.19883750E+02 0.50498080E+02 0.11904794E+03 0.80419002E+02 0.0000E+00 0.9000E+01
       21  1    1    2  502  501 0.52320224E+02 0.69923872E+02 -.76493348E+03 0.76990294E+03 0.75000000E+00 0.0000E+00 0.9000E+01
#aMCatNLO 2  0  0  2  1 0.87331287D+02 0.00000000D+00  -5  7  0 0.00000000D+00 0.00000000D+00 0.00000000D+00 0.00000000D+00 0.00000000D+00
  <mgrwgt>
 0.2064556378D-03    2    2    0
 0.467944789740992D+03 0.000000000000000D+00 0.000000000000000D+00 0.467944789740992D+03
 0.467944789740992D+03 0.000000000000000D+00 0.000000000000000D+00 -.467944789740992D+03
 0.222277853349778D+03 -.819796202815402D+02 -.170471924951122D+03 0.846102404994122D+02
 0.170150553500844D+03 0.845927151388790D+02 0.344797298732861D+02 -.143549404840080D+03
 0.255933100781029D+03 0.502251579761027D+02 0.134288265140585D+03 -.212004357094848D+03
 0.287528071850333D+03 -.528382528334415D+02 0.170392993725133D+01 0.270943521435516D+03
 0.000000000000000D+00 0.000000000000000D+00 0.000000000000000D+00 -.000000000000000D+00
 0.478221345501716D+03 0.000000000000000D+00 0.000000000000000D+00 0.478221345501716D+03
 0.701268865061730D+03 0.000000000000000D+00 0.000000000000000D+00 -.701268865061730D+03
 0.240563108566134D+03 -.948889724169980D+02 -.187724754267808D+03 0.846102404994122D+02
 0.163584529933618D+03 0.752843261532158D+02 0.220394428086967D+02 -.143549404840080D+03
 0.244203958598512D+03 0.362755598489260D+02 0.115645188942865D+03 -.212004357094848D+03
 0.291603752237303D+03 -.689911374421196D+02 -.198837499247142D+02 0.270943521435516D+03
 0.239534861227878D+03 0.523202238569759D+02 0.699238724409607D+02 -.223047519560014D+03
-.276846794923D-03 0.000000000000D+00 0.000000000000D+00 0.379756163224D-07 0.000000000000D+00  7 -1 1 24 -11 11 -24 21 2 0.21697507D-01 0.35954400D+00 0.96092609D+05 0.96092609D+05 0.96092609D+05 0.11231453D+01  1  2 13  2  7  2        1 -.138184428233D-02 0.100000000000D+01
0.324396337285D-03 0.000000000000D+00 0.000000000000D+00 0.379756163224D-07 0.374261513377D-10  7 -1 1 24 -11 11 -24 21 2 0.22174007D-01 0.35796669D+00 0.96092609D+05 0.96092609D+05 0.96092609D+05 0.11231453D+01  1  2  1  2  7  2        1 0.158829992017D-02 0.100000000000D+01
  </mgrwgt>
  </event>
  <event>
  8     66 0.29788925E-05 0.46429652E+03 0.75467711E-02 0.89110439E-01
       -1 -1    0    0    0  501 0.00000000E+00 0.00000000E+00 0.44339134E+03 0.44339146E+03 0.32000000E+00 0.0000E+00 0.9000E+01
        1 -1    0    0  501    0 0.00000000E+00 0.00000000E+00 -.12041564E+04 0.12041564E+04 0.32000000E+00 0.0000E+00 0.9000E+01
       25  2    1    2    0    0 -.87155923E+02 -.43451656E+03 -.10008881E+04 0.11350352E+04 0.30021171E+03 0.0000E+00 0.0000E+00
       23  2    1    2    0    0 0.87155923E+02 0.43451656E+03 0.24012302E+03 0.51251274E+03 0.92787116E+02 0.0000E+00 0.0000E+00
       24  1    3    3    0    0 0.11621197E+02 -.13182210E+03 -.58484032E+03 0.60499383E+03 0.80419002E+02 0.0000E+00 0.9000E+01
      -11  1    4    4    0    0 0.57613132E+02 0.36897682E+03 0.23322524E+03 0.44029215E+03 0.51099893E-03 0.0000E+00 0.9000E+01
       11  1    4    4    0    0 0.29542791E+02 0.65539747E+02 0.68977805E+01 0.72220595E+02 0.51099893E-03 0.0000E+00 0.9000E+01
      -24  1    3    3    0    0 -.98777121E+02 -.30269447E+03 -.41604776E+03 0.53004133E+03 0.80419002E+02 0.0000E+00 0.9000E+01
#aMCatNLO 1  0  0  2  1 0.65368567D+03 0.00000000D+00  -5  7  0 0.00000000D+00 0.00000000D+00 0.00000000D+00 0.00000000D+00 0.00000000D+00
  <mgrwgt>
 0.9749224254D-03    5    2    0
 0.730693270367274D+03 0.000000000000000D+00 0.000000000000000D+00 0.730693270367274D+03
 0.730693270367274D+03 0.000000000000000D+00 0.000000000000000D+00 -.730693270367274D+03
 0.377607306337279D+03 0.116211973174743D+02 -.131822096383139D+03 -.344395041373983D+03
 0.617791387848507D+03 0.576131322565420D+02 0.368976815605780D+03 0.492141275892190D+03
 0.850113757451936D+02 0.295427910816109D+02 0.655397470324128D+02 0.453728890431954D+02
 0.380976470803569D+03 -.987771206556273D+02 -.302694466255054D+03 -.193119123561402D+03
 0.000000000000000D+00 0.000000000000000D+00 0.000000000000000D+00 -.000000000000000D+00
 0.926314373238603D+03 0.000000000000000D+00 0.000000000000000D+00 0.926314373238603D+03
 0.164928129530100D+04 0.000000000000000D+00 0.000000000000000D+00 -.164928129530100D+04
 0.468504342387050D+03 -.413885787034440D+02 -.304480120715742D+03 -.344395041373983D+03
 0.511439490612379D+03 -.131343583770724D+02 0.138545320206348D+03 0.492141275892190D+03
 0.612248259367172D+02 0.203809407407068D+02 0.356987045336242D+02 0.453728890431954D+02
 0.559754692421959D+03 -.157714907806612D+03 -.494660602539215D+03 -.193119123561402D+03
 0.974672317181499D+03 0.191856904146422D+03 0.624896698514984D+03 -.722966922062398D+03
0.329366576276D-03 0.000000000000D+00 0.000000000000D+00 0.100843372656D-04 0.000000000000D+00  7 -1 1 24 -11 11 -24 21 0 0.68214065D-01 0.18525484D+00 0.21557126D+06 0.21557126D+06 0.21557126D+06 0.10953333D+01  1  2  2  2  7  2        1 0.966663467737D-03 0.100000000000D+01
-.137231930186D-04 0.000000000000D+00 -.126485437711D-05 0.100843372656D-04 0.000000000000D+00  7 -1 1 24 -11 11 -24 21 2 0.68214065D-01 0.18525484D+00 0.21557126D+06 0.21557126D+06 0.21557126D+06 0.10953333D+01  1  2  3  2  7  2        1 -.483218521481D-04 0.100000000000D+01
0.201928320588D-04 0.000000000000D+00 0.000000000000D+00 0.100843372656D-04 0.000000000000D+00  7 -1 1 24 -11 11 -24 21 2 0.68214065D-01 0.18525484D+00 0.21557126D+06 0.21557126D+06 0.21557126D+06 0.10953333D+01  1  2 15  2  7  2        1 0.711026248684D-04 0.100000000000D+01
-.605895165970D-04 0.000000000000D+00 -.891990408218D-04 0.100843372656D-04 0.000000000000D+00  7 -1 1 24 -11 11 -24 21 2 0.68214065D-01 0.44878613D+00 0.21557126D+06 0.21557126D+06 0.21557126D+06 0.10953333D+01  1  2  5  2  7  2        1 -.145052625094D-04 0.100000000000D+01
-.284661573886D-06 0.000000000000D+00 -.864641840705D-05 0.100843372656D-04 0.000000000000D+00  7 -1 21 24 -11 11 -24 -1 2 0.68214065D-01 0.44878613D+00 0.21557126D+06 0.21557126D+06 0.21557126D+06 0.10953333D+01  1  2  5  4  7  2        1 -.165525872116D-07 0.100000000000D+01
  </mgrwgt>
  </event>
  <event>
  8     66 0.29788925E-05 0.18147818E+03 0.75467711E-02 0.97432674E-01
       -1 -1    0    0    0  501 0.00000000E+00 0.00000000E+00 0.12236899E+03 0.12236941E+03 0.32000000E+00 0.0000E+00 0.9000E+01
        1 -1    0    0  501    0 0.00000000E+00 0.00000000E+00 -.10564967E+04 0.10564968E+04 0.32000000E+00 0.0000E+00 0.9000E+01
       25  2    1    2    0    0 -.21164915E+03 0.18686690E+03 -.59439549E+03 0.72319171E+03 0.29997609E+03 0.0000E+00 0.0000E+00
       23  2    1    2    0    0 0.21164915E+03 -.18686690E+03 -.33973225E+03 0.45567448E+03 0.11183306E+03 0.0000E+00 0.0000E+00
       24  1    3    3    0    0 -.20276492E+03 0.83385952E+02 -.19988969E+03 0.30739215E+03 0.80419002E+02 0.0000E+00 0.9000E+01
      -13  1    4    4    0    0 0.17366633E+03 -.18151026E+03 -.33235562E+03 0.41661281E+03 0.10565837E+00 0.0000E+00 0.9000E+01
       13  1    4    4    0    0 0.37982818E+02 -.53566408E+01 -.73766277E+01 0.39061667E+02 0.10565837E+00 0.0000E+00 0.9000E+01
      -24  1    3    3    0    0 -.88842302E+01 0.10348095E+03 -.39450580E+03 0.41579956E+03 0.80419002E+02 0.0000E+00 0.9000E+01
#aMCatNLO 1  0  0  2  1 0.12103368D+03 0.00000000D+00  -5  7  0 0.00000000D+00 0.00000000D+00 0.00000000D+00 0.00000000D+00 0.00000000D+00
  <mgrwgt>
 0.7830969401D-03    9    2    0
 0.359559059972560D+03 0.000000000000000D+00 0.000000000000000D+00 0.359559059972560D+03
 0.359559059972560D+03 0.000000000000000D+00 0.000000000000000D+00 -.359559059972560D+03
 0.244259934654991D+03 -.202764965497488D+03 0.833859953610691D+02 0.716159498138235D+02
 0.251235895335697D+03 0.173666519179726D+03 -.181510351686997D+03 -.366161871173281D+01
 0.544522298823958D+02 0.379827101450786D+02 -.535661871453063D+01 0.386479715528170D+02
 0.169170060072036D+03 -.888426382731623D+01 0.103480975040458D+03 -.106602302654908D+03
 0.000000000000000D+00 0.000000000000000D+00 -.000000000000000D+00 -.000000000000000D+00
 0.389774742130960D+03 0.000000000000000D+00 0.000000000000000D+00 0.389774742130960D+03
 0.510184865982797D+03 0.000000000000000D+00 0.000000000000000D+00 -.510184865982797D+03
 0.284218563245970D+03 -.245586920475184D+03 0.941870265111527D+02 0.716159498138235D+02
 0.218956047231473D+03 0.135567451241374D+03 -.171900579788315D+03 -.366161871173281D+01
 0.487989305887979D+02 0.296163971112399D+02 -.324637391751217D+01 0.386479715528170D+02
 0.177258947208802D+03 -.369549751460729D+02 0.110561282969342D+03 -.106602302654908D+03
 0.170727119838713D+03 0.117358047268643D+03 -.296013557746678D+02 -.120410123851837D+03
0.177861895067D-04 0.000000000000D+00 0.000000000000D+00 0.130115391679D-07 0.000000000000D+00  7 -1 1 24 -13 13 -24 21 0 0.18826035D-01 0.16253799D+00 0.10707598D+06 0.10707598D+06 0.10707598D+06 0.11192936D+01  1  2  2  2  7  2        1 0.634024922953D-03 0.100000000000D+01
-.977453615511D-06 0.000000000000D+00 -.683036509169D-07 0.130115391679D-07 0.000000000000D+00  7 -1 1 24 -13 13 -24 21 2 0.18826035D-01 0.16253799D+00 0.10707598D+06 0.10707598D+06 0.10707598D+06 0.11192936D+01  1  2  3  2  7  2        1 -.436523470802D-04 0.100000000000D+01
0.113958700581D-05 0.000000000000D+00 0.000000000000D+00 0.130115391679D-07 0.000000000000D+00  7 -1 1 24 -13 13 -24 21 2 0.18826035D-01 0.16253799D+00 0.10707598D+06 0.10707598D+06 0.10707598D+06 0.11192936D+01  1  2 15  2  7  2        1 0.508931029733D-04 0.100000000000D+01
0.165912562930D-04 0.000000000000D+00 0.000000000000D+00 0.130115391679D-07 0.000000000000D+00  7 -1 1 24 -13 13 -24 21 2 0.18826035D-01 0.23523031D+00 0.15461506D+06 0.15461506D+06 0.15461506D+06 0.11065148D+01  1  2 12  2  7  2        1 0.338509184041D-03 0.100000000000D+01
-.191908849727D-04 0.000000000000D+00 0.000000000000D+00 0.130115391679D-07 0.000000000000D+00  7 -1 1 24 -13 13 -24 21 2 0.18826035D-01 0.16253799D+00 0.10707598D+06 0.10707598D+06 0.10707598D+06 0.11192936D+01  1  2  4  2  7  2        1 -.857050563128D-03 0.100000000000D+01
-.250874214807D-04 0.000000000000D+00 -.687986243704D-05 0.130115391679D-07 0.000000000000D+00  7 -1 1 24 -13 13 -24 21 2 0.18826035D-01 0.23925389D+00 0.10707598D+06 0.10707598D+06 0.10707598D+06 0.11192936D+01  1  2  5  2  7  2        1 -.508821062974D-03 0.100000000000D+01
0.262452564037D-04 0.000000000000D+00 0.639588255057D-05 0.130115391679D-07 0.000000000000D+00  7 -1 1 24 -13 13 -24 21 2 0.18826035D-01 0.16253799D+00 0.10707598D+06 0.10707598D+06 0.10707598D+06 0.11192936D+01  1  2  6  2  7  2        1 0.117209351274D-02 0.100000000000D+01
0.745598752806D-06 0.000000000000D+00 0.000000000000D+00 0.130115391679D-07 0.000000000000D+00  7 -1 21 24 -13 13 -24 -1 2 0.18826035D-01 0.23523031D+00 0.15461506D+06 0.15461506D+06 0.15461506D+06 0.11065148D+01  1  2 12  4  7  2        1 0.118145783488D-04 0.100000000000D+01
-.940660736213D-06 0.000000000000D+00 -.319425470381D-06 0.130115391679D-07 0.000000000000D+00  7 -1 21 24 -13 13 -24 -1 2 0.18826035D-01 0.23925389D+00 0.10707598D+06 0.10707598D+06 0.10707598D+06 0.11192936D+01  1  2  5  4  7  2        1 -.147143878048D-04 0.100000000000D+01
  </mgrwgt>
  </event>
  <event>
  8     66 0.29788925E-05 0.38440377E+03 0.75467711E-02 0.93221276E-01
       -1 -1    0    0    0  501 0.00000000E+00 0.00000000E+00 0.23055624E+03 0.23055646E+03 0.32000000E+00 0.0000E+00 0.9000E+01
        1 -1    0    0  501    0 0.00000000E+00 0.00000000E+00 -.84035830E+03 0.84035836E+03 0.32000000E+00 0.0000E+00 0.9000E+01
       25  2    1    2    0    0 0.26806499E+03 0.17862005E+03 -.59049637E+03 0.73671551E+03 0.30049929E+03 0.0000E+00 0.0000E+00
       23  2    1    2    0    0 -.26806499E+03 -.17862005E+03 -.19305692E+02 0.33419932E+03 0.86905208E+02 0.0000E+00 0.0000E+00
       24  1    3    3    0    0 0.11978239E+03 0.22336743E+03 -.34893398E+03 0.43870602E+03 0.80419002E+02 0.0000E+00 0.9000E+01
      -13  1    4    4    0    0 -.23140516E+03 -.12383023E+03 0.86419712E+01 0.26259659E+03 0.10565837E+00 0.0000E+00 0.9000E+01
       13  1    4    4    0    0 -.36659822E+02 -.54789825E+02 -.27947664E+02 0.71602727E+02 0.10565837E+00 0.0000E+00 0.9000E+01
      -24  1    3    3    0    0 0.14828259E+03 -.44747378E+02 -.24156239E+03 0.29800949E+03 0.80419002E+02 0.0000E+00 0.9000E+01
#aMCatNLO 1  0  0  1  2 0.30568321D+03 0.00000000D+00  -5  7  0 0.00000000D+00 0.00000000D+00 0.00000000D+00 0.00000000D+00 0.00000000D+00
  <mgrwgt>
 0.1373375403D-02    3    2    0
 0.440170424844319D+03 0.000000000000000D+00 0.000000000000000D+00 0.440170424844319D+03
 0.440170424844319D+03 0.000000000000000D+00 0.000000000000000D+00 -.440170424844319D+03
 0.291973407288255D+03 0.119782394326446D+03 0.223367428903845D+03 -.120583681829061D+03
 0.325429416431492D+03 -.231405451304635D+03 -.123830328188397D+03 0.192410685790040D+03
 0.677436967272435D+02 -.366595338124580D+02 -.547897226857876D+02 0.156004267550756D+02
 0.195194329241648D+03 0.148282590790647D+03 -.447473780296609D+02 -.874274307160547D+02
 0.000000000000000D+00 0.000000000000000D+00 0.000000000000000D+00 -.000000000000000D+00
 0.560839045796914D+03 0.000000000000000D+00 0.000000000000000D+00 0.560839045796914D+03
 0.712142591610713D+03 0.000000000000000D+00 0.000000000000000D+00 -.712142591610713D+03
 0.241122518511656D+03 0.366107388342264D+02 0.189187955371353D+03 -.120583681829061D+03
 0.435154232830724D+03 -.350068900391273D+03 -.172595189165709D+03 0.192410685790040D+03
 0.907168505959252D+02 -.613819625785294D+02 -.649494290745573D+02 0.156004267550756D+02
 0.164908881220591D+03 0.921006191928202D+02 -.678354144510443D+02 -.874274307160547D+02
 0.341079154248732D+03 0.282739504942756D+03 0.116192077319957D+03 -.151303545813799D+03
0.738299984880D-04 0.000000000000D+00 0.000000000000D+00 0.263427232663D-06 0.000000000000D+00  7 -1 1 24 -13 13 -24 21 0 0.35470213D-01 0.12928591D+00 0.14776626D+06 0.14776626D+06 0.14776626D+06 0.11080665D+01  1  2  2  1  7  1       -1 0.135597324076D-02 0.100000000000D+01
-.401014606303D-05 0.000000000000D+00 -.283526634079D-06 0.263427232663D-06 0.000000000000D+00  7 -1 1 24 -13 13 -24 21 2 0.35470213D-01 0.12928591D+00 0.14776626D+06 0.14776626D+06 0.14776626D+06 0.11080665D+01  1  2  3  1  7  1       -1 -.904294888468D-04 0.100000000000D+01
0.478185462669D-05 0.000000000000D+00 0.000000000000D+00 0.263427232663D-06 0.000000000000D+00  7 -1 1 24 -13 13 -24 21 2 0.35470213D-01 0.12928591D+00 0.14776626D+06 0.14776626D+06 0.14776626D+06 0.11080665D+01  1  2 15  1  7  1       -1 0.107831650727D-03 0.100000000000D+01
  </mgrwgt>
  </event>
  <event>
  8     66 0.29788925E-05 0.22755523E+03 0.75467711E-02 0.85310917E-01
       -1 -1    0    0    0  501 0.00000000E+00 0.00000000E+00 0.32191799E+03 0.32191815E+03 0.32000000E+00 0.0000E+00 0.9000E+01
        1 -1    0    0  501    0 0.00000000E+00 0.00000000E+00 -.87409571E+03 0.87409577E+03 0.32000000E+00 0.0000E+00 0.9000E+01
       25  2    1    2    0    0 -.77800467E+02 0.11270818E+03 0.22676068E+03 0.40010239E+03 0.29984241E+03 0.0000E+00 0.0000E+00
       23  2    1    2    0    0 0.77800467E+02 -.11270818E+03 -.77893839E+03 0.79591154E+03 0.89297872E+02 0.0000E+00 0.0000E+00
       24  1    3    3    0    0 -.14935151E+03 0.64840507E+02 0.21542351E+03 0.28175285E+03 0.80419002E+02 0.0000E+00 0.9000E+01
      -13  1    4    4    0    0 -.13671816E+02 -.27438087E+02 -.76237064E+02 0.82169752E+02 0.10565837E+00 0.0000E+00 0.9000E+01
       13  1    4    4    0    0 0.91472283E+02 -.85270091E+02 -.70270133E+03 0.71374179E+03 0.10565837E+00 0.0000E+00 0.9000E+01
      -24  1    3    3    0    0 0.71551039E+02 0.47867671E+02 0.11337162E+02 0.11834953E+03 0.80419002E+02 0.0000E+00 0.9000E+01
#aMCatNLO 1  0  0  1  2 0.12162910D+04 0.00000000D+00  -5  7  0 0.00000000D+00 0.00000000D+00 0.00000000D+00 0.00000000D+00 0.00000000D+00
  <mgrwgt>
 0.1213197093D-02    5    2    0
 0.530459488630251D+03 0.000000000000000D+00 0.000000000000000D+00 0.530459488630251D+03
 0.530459488630251D+03 0.000000000000000D+00 0.000000000000000D+00 -.530459488630251D+03
 0.429752326728619D+03 -.149351505643133D+03 0.648405067321218D+02 0.389499271916061D+03
 0.529533245722055D+02 -.136719628511753D+02 -.274380060263345D+02 -.431773996477817D+02
 0.438892772430431D+03 0.914724296728417D+02 -.852701715577295D+02 -.420700199838237D+03
 0.139320553529246D+03 0.715510388214671D+02 0.478676708519421D+02 0.743783275699578D+02
 0.000000000000000D+00 0.000000000000000D+00 -.000000000000000D+00 0.000000000000000D+00
 0.164704964957141D+04 0.000000000000000D+00 0.000000000000000D+00 0.164704964957141D+04
 0.124724118592671D+04 0.000000000000000D+00 0.000000000000000D+00 -.124724118592671D+04
 0.822048259708950D+03 -.521881546289409D+03 0.495203083750069D+03 0.389499271916061D+03
 0.670327213750611D+02 -.493792528604617D+02 0.138125769335376D+02 -.431773996477817D+02
 0.525139646486420D+03 -.195419140833171D+03 0.246159195570621D+03 -.420700199838237D+03
 0.199753613471942D+03 -.293558584779886D+02 0.164439618406404D+03 0.743783275699578D+02
 0.128031659445575D+04 0.796035798461029D+03 -.919614474660631D+03 0.399808463644697D+03
0.110459718463D-03 0.000000000000D+00 0.000000000000D+00 0.465123482620D-05 0.000000000000D+00  7 -1 1 24 -13 13 -24 21 0 0.49525862D-01 0.13447628D+00 0.51781381D+05 0.51781381D+05 0.51781381D+05 0.11459605D+01  1  2  2  1  7  1       -1 0.109612871796D-02 0.100000000000D+01
-.792071141595D-06 0.000000000000D+00 -.424194403608D-06 0.465123482620D-05 0.000000000000D+00  7 -1 1 24 -13 13 -24 21 2 0.49525862D-01 0.13447628D+00 0.51781381D+05 0.51781381D+05 0.51781381D+05 0.11459605D+01  1  2  3  1  7  1       -1 -.103219344628D-04 0.100000000000D+01
0.672072921648D-05 0.000000000000D+00 0.000000000000D+00 0.465123482620D-05 0.000000000000D+00  7 -1 1 24 -13 13 -24 21 2 0.49525862D-01 0.13447628D+00 0.51781381D+05 0.51781381D+05 0.51781381D+05 0.11459605D+01  1  2 15  1  7  1       -1 0.875816866338D-04 0.100000000000D+01
0.165022050734D-03 0.000000000000D+00 -.509312146196D-04 0.465123482620D-05 0.000000000000D+00  7 -1 1 24 -13 13 -24 21 2 0.29266548D+00 0.13447628D+00 0.51781381D+05 0.51781381D+05 0.51781381D+05 0.11459605D+01  1  2  5  1  7  1       -1 0.141445033456D-04 0.100000000000D+01
0.328241887158D-04 0.000000000000D+00 -.110882114870D-04 0.465123482620D-05 0.000000000000D+00  7 21 1 24 -13 13 -24 1 2 0.29266548D+00 0.13447628D+00 0.51781381D+05 0.51781381D+05 0.51781381D+05 0.11459605D+01  1  2  5  3  7  1       -1 0.256641195093D-04 0.100000000000D+01
  </mgrwgt>
  </event>
  <event>
  9     66 -.29788925E-05 0.21257043E+03 0.75467711E-02 0.10498569E+00
       -1 -1    0    0    0  502 0.00000000E+00 0.00000000E+00 0.70153745E+03 0.70153752E+03 0.32000000E+00 0.0000E+00 0.9000E+01
        1 -1    0    0  501    0 0.00000000E+00 0.00000000E+00 -.33628822E+03 0.33628838E+03 0.32000000E+00 0.0000E+00 0.9000E+01
       25  2    1    2    0    0 0.82276647E+02 -.16333862E+01 0.64330281E+03 0.71485377E+03 0.30067473E+03 0.0000E+00 0.0000E+00
       23  2    1    2    0    0 -.88513002E+02 0.14532397E+02 -.28066665E+03 0.30838901E+03 0.91017994E+02 0.0000E+00 0.0000E+00
       24  1    3    3    0    0 -.83239546E+02 -.57398187E+01 0.15896845E+03 0.19672303E+03 0.80419002E+02 0.0000E+00 0.9000E+01
      -11  1    4    4    0    0 -.10039901E+03 0.30978993E+02 -.20928520E+03 0.23417932E+03 0.51099893E-03 0.0000E+00 0.9000E+01
       11  1    4    4    0    0 0.11886008E+02 -.16446595E+02 -.71381446E+02 0.74209693E+02 0.51099893E-03 0.0000E+00 0.9000E+01
      -24  1    3    3    0    0 0.16551619E+03 0.41064326E+01 0.48433436E+03 0.51813073E+03 0.80419002E+02 0.0000E+00 0.9000E+01
       21  1    1    2  501  502 0.62363547E+01 -.12899011E+02 0.26130621E+01 0.14583114E+02 0.75000000E+00 0.0000E+00 0.9000E+01
#aMCatNLO 2  0  0  1  2 0.14327477D+02 0.00000000D+00  -5  7  0 0.00000000D+00 0.00000000D+00 0.00000000D+00 0.00000000D+00 0.00000000D+00
  <mgrwgt>
 -.2745955573D-03    3    2    0
 0.478360619460631D+03 0.000000000000000D+00 0.000000000000000D+00 0.478360619460631D+03
 0.478360619460631D+03 0.000000000000000D+00 0.000000000000000D+00 -.478360619460631D+03
 0.149680633789577D+03 -.822624512774659D+02 -.776079985186096D+01 0.954449331958530D+02
 0.328717443132217D+03 -.982530229513526D+02 0.265403244956747D+02 -.312565372483849D+03
 0.106725232080144D+03 0.125806394905485D+02 -.178833420551344D+02 -.104461422302726D+03
 0.371597929919324D+03 0.167934834738270D+03 -.896182588679356D+00 0.321581861590722D+03
 0.000000000000000D+00 0.000000000000000D+00 -.000000000000000D+00 -.000000000000000D+00
 0.484340873863773D+03 0.000000000000000D+00 0.000000000000000D+00 0.484340873863773D+03
 0.487073354572040D+03 0.000000000000000D+00 0.000000000000000D+00 -.487073354572040D+03
 0.150129007046694D+03 -.832395459528896D+02 -.573981874728441D+01 0.954449331958530D+02
 0.329752590953680D+03 -.100399009859701D+03 0.309789926222418D+02 -.312565372483849D+03
 0.106414080026259D+03 0.118860077688943D+02 -.164465953207466D+02 -.104461422302726D+03
 0.370532836186648D+03 0.165516193302966D+03 0.410643257486760D+01 0.321581861590722D+03
 0.145857142225319D+02 0.623635474073058D+01 -.128990111290784D+02 -.273248070826652D+01
-.437881702367D-04 0.000000000000D+00 0.000000000000D+00 0.286461298505D-05 0.000000000000D+00  7 -1 1 24 -11 11 -24 21 2 0.10888275D+00 0.50810197D-01 0.48320211D+05 0.48320211D+05 0.48320211D+05 0.11486031D+01  1  2 13  1  7  1       -1 -.479157428551D-03 0.100000000000D+01
-.151281440053D-03 0.000000000000D+00 0.000000000000D+00 0.286461298505D-05 0.000000000000D+00  7 -1 1 24 -11 11 -24 21 2 0.10659412D+00 0.50810197D-01 0.45186187D+05 0.45186187D+05 0.45186187D+05 0.11511827D+01  1  2  8  1  7  1       -1 -.174875317116D-02 0.100000000000D+01
0.179136077416D-03 0.000000000000D+00 0.000000000000D+00 0.286461298505D-05 0.982062379601D-07  7 -1 1 24 -11 11 -24 21 2 0.10792671D+00 0.51735640D-01 0.48320211D+05 0.48320211D+05 0.48320211D+05 0.11486031D+01  1  2  1  1  7  1       -1 0.195331504245D-02 0.100000000000D+01
  </mgrwgt>
  </event>
  <event>
  7     66 0.29788925E-05 0.90561945E+03 0.75467711E-02 0.81569631E-01
       -1 -1    0    0    0  501 0.00000000E+00 0.00000000E+00 0.47148664E+03 0.47148675E+03 0.32000000E+00 0.0000E+00 0.9000E+01
        1 -1    0    0  501    0 0.00000000E+00 0.00000000E+00 -.28186142E+04 0.28186142E+04 0.32000000E+00 0.0000E+00 0.9000E+01
       23  2    1    2    0    0 -.15199743E+02 0.86334805E+03 -.13045594E+03 0.87796988E+03 0.90617187E+02 0.0000E+00 0.0000E+00
       24  1    1    2    0    0 0.10358817E+03 -.83615729E+02 -.48320506E+03 0.50761841E+03 0.80419002E+02 0.0000E+00 0.9000E+01
      -13  1    3    3    0    0 0.31305008E+02 0.38484369E+03 -.33804403E+02 0.38759182E+03 0.10565837E+00 0.0000E+00 0.9000E+01
       13  1    3    3    0    0 -.46504751E+02 0.47850436E+03 -.96651537E+02 0.49037806E+03 0.10565837E+00 0.0000E+00 0.9000E+01
      -24  1    1    2    0    0 -.88388432E+02 -.77973232E+03 -.17334665E+04 0.19045126E+04 0.80419002E+02 0.0000E+00 0.9000E+01
#aMCatNLO 1  0  0  1  2 0.14746201D+04 0.00000000D+00  -5  7  0 0.00000000D+00 0.00000000D+00 0.00000000D+00 0.00000000D+00 0.00000000D+00
  <mgrwgt>
 0.1331388534D-02    5    2    0
 0.115279622378242D+04 0.000000000000000D+00 0.000000000000000D+00 0.115279622378242D+04
 0.115279622378242D+04 0.000000000000000D+00 0.000000000000000D+00 -.115279622378242D+04
 0.232466018787997D+03 0.103588174805146D+03 -.836157294422699D+02 -.172774806517463D+03
 0.518683477652933D+03 0.313051134168192D+02 0.384843564558345D+03 0.346335055520125D+03
 0.601381260773285D+03 -.465048563884350D+02 0.478504484585545D+03 0.361289603189849D+03
 0.953061690350620D+03 -.883884318335298D+02 -.779732319701620D+03 -.534849852192511D+03
 0.000000000000000D+00 -.000000000000000D+00 -.000000000000000D+00 0.000000000000000D+00
 0.247914021242302D+04 0.000000000000000D+00 0.000000000000000D+00 0.247914021242302D+04
 0.185785145773389D+04 0.000000000000000D+00 0.000000000000000D+00 -.185785145773389D+04
 0.329951845452658D+03 0.264632144578878D+03 -.501966000012053D+02 -.172774806517463D+03
 0.685315799262864D+03 0.376060917752821D+03 0.456385758077611D+03 0.346335055520125D+03
 0.746925319182901D+03 0.339572218886110D+03 0.558621484749882D+03 0.361289603189849D+03
 0.974641156388970D+03 0.463594246387785D+03 -.665187325569760D+03 -.534849852192511D+03
 0.160015754986952D+04 -.144385952760559D+04 -.299623317256528D+03 0.621288754689122D+03
0.694728855354D-02 0.000000000000D+00 0.000000000000D+00 0.163650729344D-08 0.000000000000D+00  7 -1 1 24 -13 13 -24 21 0 0.72536416D-01 0.43363296D+00 0.82014658D+06 0.82014658D+06 0.82014658D+06 0.10536445D+01  1  2  2  1  7  1       -1 0.129832620858D-02 0.100000000000D+01
-.358630786687D-03 0.000000000000D+00 -.266794173087D-04 0.163650729344D-08 0.000000000000D+00  7 -1 1 24 -13 13 -24 21 2 0.72536416D-01 0.43363296D+00 0.82014658D+06 0.82014658D+06 0.82014658D+06 0.10536445D+01  1  2  3  1  7  1       -1 -.744053619660D-04 0.100000000000D+01
0.437617053679D-03 0.000000000000D+00 0.000000000000D+00 0.163650729344D-08 0.000000000000D+00  7 -1 1 24 -13 13 -24 21 2 0.72536416D-01 0.43363296D+00 0.82014658D+06 0.82014658D+06 0.82014658D+06 0.10536445D+01  1  2 15  1  7  1       -1 0.907926940189D-04 0.100000000000D+01
0.292982021621D-02 0.000000000000D+00 -.244268723610D-02 0.163650729344D-08 0.000000000000D+00  7 -1 1 24 -13 13 -24 21 2 0.29489051D+00 0.43363296D+00 0.82014658D+06 0.82014658D+06 0.82014658D+06 0.10536445D+01  1  2  5  1  7  1       -1 0.669011505197D-05 0.100000000000D+01
0.513345782021D-03 0.000000000000D+00 -.409693755182D-03 0.163650729344D-08 0.000000000000D+00  7 21 1 24 -13 13 -24 1 2 0.29489051D+00 0.43363296D+00 0.82014658D+06 0.82014658D+06 0.82014658D+06 0.10536445D+01  1  2  5  3  7  1       -1 0.998487833919D-05 0.100000000000D+01
  </mgrwgt>
  </event>
  <event>
  8     66 0.29788925E-05 0.12606417E+03 0.75467711E-02 0.10065444E+00
       -1 -1    0    0    0  501 0.00000000E+00 0.00000000E+00 0.23689206E+03 0.23689227E+03 0.32000000E+00 0.0000E+00 0.9000E+01
        1 -1    0    0  501    0 0.00000000E+00 0.00000000E+00 -.35644062E+03 0.35644076E+03 0.32000000E+00 0.0000E+00 0.9000E+01
       25  2    1    2    0    0 0.12980868E+03 -.11201337E+03 0.30520959E+02 0.34813291E+03 0.30144270E+03 0.0000E+00 0.0000E+00
       23  2    1    2    0    0 -.12980868E+03 0.11201337E+03 -.15006952E+03 0.24520013E+03 0.90581191E+02 0.0000E+00 0.0000E+00
       24  1    3    3    0    0 0.14964058E+02 0.76077606E+02 0.18496670E+02 0.11323015E+03 0.80419002E+02 0.0000E+00 0.9000E+01
      -11  1    4    4    0    0 -.10243824E+03 0.67397199E+02 -.50306386E+02 0.13253946E+03 0.51099893E-03 0.0000E+00 0.9000E+01
       11  1    4    4    0    0 -.27370444E+02 0.44616174E+02 -.99763129E+02 0.11266067E+03 0.51099893E-03 0.0000E+00 0.9000E+01
      -24  1    3    3    0    0 0.11484462E+03 -.18809098E+03 0.12024289E+02 0.23490275E+03 0.80419002E+02 0.0000E+00 0.9000E+01
#aMCatNLO 1  0  0  2  1 0.77952430D+02 0.00000000D+00  -5  7  0 0.00000000D+00 0.00000000D+00 0.00000000D+00 0.00000000D+00 0.00000000D+00
  <mgrwgt>
 0.5553215409D-03    9    2    0
 0.290582273593399D+03 0.000000000000000D+00 0.000000000000000D+00 0.290582273593399D+03
 0.290582273593399D+03 0.000000000000000D+00 0.000000000000000D+00 -.290582273593399D+03
 0.119405840286954D+03 0.149640583322630D+02 0.760776054848596D+02 0.421759841874706D+02
 0.124966298713310D+03 -.102438238900353D+03 0.673971993322503D+02 -.240956541157792D+02
 0.944977771057315D+02 -.273704440060025D+02 0.446161738456832D+02 -.786770977109003D+02
 0.242294631080803D+03 0.114844624574092D+03 -.188090978662793D+03 0.605967676392090D+02
 0.000000000000000D+00 -.000000000000000D+00 -.000000000000000D+00 -.000000000000000D+00
 0.315687734033295D+03 0.000000000000000D+00 0.000000000000000D+00 0.315687734033295D+03
 0.360692722161200D+03 0.000000000000000D+00 0.000000000000000D+00 -.360692722161200D+03
 0.129486740019242D+03 0.258822537587969D+02 0.886052774084233D+02 0.421759841874706D+02
 0.123872931218270D+03 -.915223837999767D+02 0.799221859367523D+02 -.240956541157792D+02
 0.974434783488752D+02 -.189505379771064D+02 0.542772777402792D+02 -.786770977109003D+02
 0.235566027854944D+03 0.135806985342317D+03 -.164038507701384D+03 0.605967676392090D+02
 0.900112787531640D+02 -.512163173240305D+02 -.587662333840707D+02 -.450049881279058D+02
0.672401200290D-05 0.000000000000D+00 0.000000000000D+00 0.193590089718D-06 0.000000000000D+00  7 -1 1 24 -11 11 -24 21 0 0.36444960D-01 0.54837045D-01 0.67930033D+05 0.67930033D+05 0.67930033D+05 0.11357695D+01  1  2  2  2  7  2        1 0.405151361656D-03 0.100000000000D+01
-.368182742839D-06 0.000000000000D+00 -.258219765642D-07 0.193590089718D-06 0.000000000000D+00  7 -1 1 24 -11 11 -24 21 2 0.36444960D-01 0.54837045D-01 0.67930033D+05 0.67930033D+05 0.67930033D+05 0.11357695D+01  1  2  3  2  7  2        1 -.286175633741D-04 0.100000000000D+01
0.430689887905D-06 0.000000000000D+00 0.000000000000D+00 0.193590089718D-06 0.000000000000D+00  7 -1 1 24 -11 11 -24 21 2 0.36444960D-01 0.54837045D-01 0.67930033D+05 0.67930033D+05 0.67930033D+05 0.11357695D+01  1  2 15  2  7  2        1 0.334760262436D-04 0.100000000000D+01
0.681242485118D-05 0.000000000000D+00 0.000000000000D+00 0.193590089718D-06 0.000000000000D+00  7 -1 1 24 -11 11 -24 21 2 0.36444960D-01 0.70003731D-01 0.92116451D+05 0.92116451D+05 0.92116451D+05 0.11246604D+01  1  2 12  2  7  2        1 0.373672121214D-03 0.100000000000D+01
-.720403158237D-05 0.000000000000D+00 0.000000000000D+00 0.193590089718D-06 0.000000000000D+00  7 -1 1 24 -11 11 -24 21 2 0.36444960D-01 0.54837045D-01 0.67930033D+05 0.67930033D+05 0.67930033D+05 0.11357695D+01  1  2  4  2  7  2        1 -.559944305830D-03 0.100000000000D+01
-.125121380906D-04 0.000000000000D+00 -.369718895921D-05 0.193590089718D-06 0.000000000000D+00  7 -1 1 24 -11 11 -24 21 2 0.36444960D-01 0.72745887D-01 0.67930033D+05 0.67930033D+05 0.67930033D+05 0.11357695D+01  1  2  5  2  7  2        1 -.666603960835D-03 0.100000000000D+01
0.131704226280D-04 0.000000000000D+00 0.355430699096D-05 0.193590089718D-06 0.000000000000D+00  7 -1 1 24 -11 11 -24 21 2 0.36444960D-01 0.54837045D-01 0.67930033D+05 0.67930033D+05 0.67930033D+05 0.11357695D+01  1  2  6  2  7  2        1 0.102369111956D-02 0.100000000000D+01
0.226577413034D-06 0.000000000000D+00 0.000000000000D+00 0.193590089718D-06 0.000000000000D+00  7 -1 21 24 -11 11 -24 -1 2 0.36444960D-01 0.70003731D-01 0.92116451D+05 0.92116451D+05 0.92116451D+05 0.11246604D+01  1  2 12  4  7  2        1 0.411911911464D-04 0.100000000000D+01
-.387693218156D-06 0.000000000000D+00 -.136865394712D-06 0.193590089718D-06 0.000000000000D+00  7 -1 21 24 -11 11 -24 -1 2 0.36444960D-01 0.72745887D-01 0.67930033D+05 0.67930033D+05 0.67930033D+05 0.11357695D+01  1  2  5  4  7  2        1 -.666944488935D-04 0.100000000000D+01
  </mgrwgt>
  </event>
  <event>
  8     66 0.29788925E-05 0.68771535E+03 0.75467711E-02 0.87546159E-01
       -1 -1    0    0    0  501 0.00000000E+00 0.00000000E+00 0.95499404E+03 0.95499409E+03 0.32000000E+00 0.0000E+00 0.9000E+01
        1 -1    0    0  501    0 0.00000000E+00 0.00000000E+00 -.59130993E+03 0.59131001E+03 0.32000000E+00 0.0000E+00 0.9000E+01
       25  2    1    2    0    0 -.25170698E+03 0.61391203E+03 0.47245492E+03 0.86788465E+03 0.29960928E+03 0.0000E+00 0.0000E+00
       23  2    1    2    0    0 0.25170698E+03 -.61391203E+03 -.10877080E+03 0.67841946E+03 0.90429439E+02 0.0000E+00 0.0000E+00
       24  1    3    3    0    0 -.12974294E+03 0.49578711E+03 0.43345037E+03 0.67600631E+03 0.80419002E+02 0.0000E+00 0.9000E+01
      -11  1    4    4    0    0 0.99474294E+01 -.10410352E+03 -.29439499E+02 0.10864243E+03 0.51099893E-03 0.0000E+00 0.9000E+01
       11  1    4    4    0    0 0.24175955E+03 -.50980851E+03 -.79331304E+02 0.56977703E+03 0.51099893E-03 0.0000E+00 0.9000E+01
      -24  1    3    3    0    0 -.12196404E+03 0.11812493E+03 0.39004543E+02 0.19187834E+03 0.80419002E+02 0.0000E+00 0.9000E+01
#aMCatNLO 1  0  0  1  1 0.50718696D+03 0.00000000D+00  -5  7  0 0.00000000D+00 0.00000000D+00 0.00000000D+00 0.00000000D+00 0.00000000D+00
  <mgrwgt>
 0.8557531034D-03    3    2    0
 0.751463614413933D+03 0.000000000000000D+00 0.000000000000000D+00 0.751463614413933D+03
 0.751463614413933D+03 0.000000000000000D+00 0.000000000000000D+00 -.751463614413933D+03
 0.590628939993367D+03 -.129742940194968D+03 0.495787107682736D+03 0.282377835759944D+03
 0.118901910357244D+03 0.994742942710038D+01 -.104103519846790D+03 -.565788837810000D+02
 0.605418594723217D+03 0.241759554773014D+03 -.509808514528247D+03 -.219497769982045D+03
 0.187977783754037D+03 -.121964044005147D+03 0.118124926692301D+03 -.630118199689954D+01
 0.000000000000000D+00 -.000000000000000D+00 0.000000000000000D+00 -.000000000000000D+00
 0.898554822361090D+03 0.000000000000000D+00 0.000000000000000D+00 0.898554822361090D+03
 0.140292963053800D+04 0.000000000000000D+00 0.000000000000000D+00 -.140292963053800D+04
 0.511499683557800D+03 0.334011363541979D+02 0.417506685320292D+03 0.282377835759944D+03
 0.143714341366096D+03 0.488215544236538D+02 -.122756252989593D+03 -.565788837810000D+02
 0.786945434399961D+03 0.447866118832350D+03 -.608703363961379D+03 -.219497769982045D+03
 0.144040044602374D+03 -.728166569873457D+02 0.945428371972857D+02 -.630118199689954D+01
 0.715284948972857D+03 -.457272152622856D+03 0.219410094433394D+03 -.504374808176907D+03
0.535617915071D-03 0.000000000000D+00 0.000000000000D+00 0.719221418858D-05 0.000000000000D+00  7 -1 1 24 -11 11 -24 21 0 0.14692217D+00 0.90970769D-01 0.47295241D+06 0.47295241D+06 0.47295241D+06 0.10702216D+01  1  2  2  1  7  1       -1 0.847319037880D-03 0.100000000000D+01
-.294722358725D-04 0.000000000000D+00 -.205691382531D-05 0.719221418858D-05 0.000000000000D+00  7 -1 1 24 -11 11 -24 21 2 0.14692217D+00 0.90970769D-01 0.47295241D+06 0.47295241D+06 0.47295241D+06 0.10702216D+01  1  2  3  1  7  1       -1 -.534013640383D-04 0.100000000000D+01
0.341270002721D-04 0.000000000000D+00 0.000000000000D+00 0.719221418858D-05 0.000000000000D+00  7 -1 1 24 -11 11 -24 21 2 0.14692217D+00 0.90970769D-01 0.47295241D+06 0.47295241D+06 0.47295241D+06 0.10702216D+01  1  2 15  1  7  1       -1 0.618354295532D-04 0.100000000000D+01
  </mgrwgt>
  </event>
  <event>
  8     66 0.29788925E-05 0.21179139E+03 0.75467711E-02 0.10044307E+00
       -1 -1    0    0    0  501 0.00000000E+00 0.00000000E+00 0.21467068E+03 0.21467092E+03 0.32000000E+00 0.0000E+00 0.9000E+01
        1 -1    0    0  501    0 0.00000000E+00 0.00000000E+00 -.24876496E+03 0.24876517E+03 0.32000000E+00 0.0000E+00 0.9000E+01
       25  2    1    2    0    0 0.26548149E+02 -.99653666E+02 0.24584654E+02 0.31788732E+03 0.29968698E+03 0.0000E+00 0.0000E+00
       23  2    1    2    0    0 -.26548149E+02 0.99653666E+02 -.58678934E+02 0.14554876E+03 0.84294527E+02 0.0000E+00 0.0000E+00
       24  1    3    3    0    0 0.32281515E+02 0.76961607E+02 0.41264813E+02 0.12302514E+03 0.80419002E+02 0.0000E+00 0.9000E+01
      -13  1    4    4    0    0 -.55994954E+01 -.45709472E+01 -.36166793E+02 0.36882190E+02 0.10565837E+00 0.0000E+00 0.9000E+01
       13  1    4    4    0    0 -.20948653E+02 0.10422461E+03 -.22512142E+02 0.10866657E+03 0.10565837E+00 0.0000E+00 0.9000E+01
      -24  1    3    3    0    0 -.57333658E+01 -.17661527E+03 -.16680159E+02 0.19486218E+03 0.80419002E+02 0.0000E+00 0.9000E+01
#aMCatNLO 1  0  0  1  2 0.15975800D+03 0.00000000D+00  -5  7  0 0.00000000D+00 0.00000000D+00 0.00000000D+00 0.00000000D+00 0.00000000D+00
  <mgrwgt>
 0.1852977684D-02    3    2    0
 0.231090126448214D+03 0.000000000000000D+00 0.000000000000000D+00 0.231090126448214D+03
 0.231090126448214D+03 0.000000000000000D+00 0.000000000000000D+00 -.231090126448214D+03
 0.126403458929759D+03 0.322815186833694D+02 0.769615920242937D+02 0.504523079711747D+02
 0.343143046182596D+02 -.559947465034706D+01 -.457107960129404D+01 -.335443380670042D+02
 0.107301276564638D+03 -.209486844648654D+02 0.104224783886221D+03 -.145571630293410D+02
 0.194161212783772D+03 -.573335956815695D+01 -.176615296309221D+03 -.235080687482953D+01
 0.000000000000000D+00 0.000000000000000D+00 -.000000000000000D+00 -.000000000000000D+00
 0.293978482616826D+03 0.000000000000000D+00 0.000000000000000D+00 0.293978482616826D+03
 0.373480666700963D+03 0.000000000000000D+00 0.000000000000000D+00 -.373480666700963D+03
 0.141604942780307D+03 -.291082825210660D+01 0.105027784727242D+03 0.504523079711747D+02
 0.368345055104382D+02 -.149420683680029D+02 0.287971747415649D+01 -.335443380670042D+02
 0.141654767551307D+03 -.536392546869517D+02 0.130295788616442D+03 -.145571630293410D+02
 0.168918261976631D+03 -.534095471779074D+02 -.138593135660188D+03 -.235080687482953D+01
 0.178446671499106D+03 0.124901698484969D+03 -.996101551576527D+02 -.795021840841374D+02
0.160981784855D-04 0.000000000000D+00 0.000000000000D+00 0.155343739415D-07 0.000000000000D+00  7 -1 1 24 -13 13 -24 21 0 0.33026293D-01 0.38271567D-01 0.44855593D+05 0.44855593D+05 0.44855593D+05 0.11514662D+01  1  2  2  1  7  1       -1 0.182900911044D-02 0.100000000000D+01
-.886073761927D-06 0.000000000000D+00 -.618212441320D-07 0.155343739415D-07 0.000000000000D+00  7 -1 1 24 -13 13 -24 21 2 0.33026293D-01 0.38271567D-01 0.44855593D+05 0.44855593D+05 0.44855593D+05 0.11514662D+01  1  2  3  1  7  1       -1 -.133478528259D-03 0.100000000000D+01
0.104518492993D-05 0.000000000000D+00 0.000000000000D+00 0.155343739415D-07 0.000000000000D+00  7 -1 1 24 -13 13 -24 21 2 0.33026293D-01 0.38271567D-01 0.44855593D+05 0.44855593D+05 0.44855593D+05 0.11514662D+01  1  2 15  1  7  1       -1 0.157447102261D-03 0.100000000000D+01
  </mgrwgt>
  </event>
  <event>
  9     66 0.29788925E-05 0.18958268E+03 0.75467711E-02 0.10624786E+00
       -1 -1    0    0    0  501 0.00000000E+00 0.00000000E+00 0.19772837E+02 0.19775427E+02 0.32000000E+00 0.0000E+00 0.9000E+01
        1 -1    0    0  502    0 0.00000000E+00 0.00000000E+00 -.27910240E+04 0.27910240E+04 0.32000000E+00 0.0000E+00 0.9000E+01
       25  2    1    2    0    0 0.58097598E+02 -.31193614E+01 -.20034517E+04 0.20266255E+04 0.30001204E+03 0.0000E+00 0.0000E+00
       23  2    1    2    0    0 -.78007433E+02 0.10763878E+02 -.46259999E+03 0.47822929E+03 0.92214315E+02 0.0000E+00 0.0000E+00
       24  1    3    3    0    0 -.49485354E+02 -.88729947E+02 -.58040041E+03 0.59468787E+03 0.80419002E+02 0.0000E+00 0.9000E+01
      -13  1    4    4    0    0 -.59140409E+02 -.14123581E+02 -.42510488E+03 0.42943129E+03 0.10565837E+00 0.0000E+00 0.9000E+01
       13  1    4    4    0    0 -.18867024E+02 0.24887459E+02 -.37495119E+02 0.48798005E+02 0.10565837E+00 0.0000E+00 0.9000E+01
      -24  1    3    3    0    0 0.10758295E+03 0.85610585E+02 -.14230513E+04 0.14319377E+04 0.80419002E+02 0.0000E+00 0.9000E+01
       21  1    1    2  502  501 0.19909835E+02 -.76445168E+01 -.30519941E+03 0.30594457E+03 0.75000000E+00 0.0000E+00 0.9000E+01
#aMCatNLO 2  0  0  2  1 0.21326983D+02 0.00000000D+00  -5  7  0 0.00000000D+00 0.00000000D+00 0.00000000D+00 0.00000000D+00 0.00000000D+00
  <mgrwgt>
 0.3922405681D-04    2    2    0
 0.219335264332465D+03 0.000000000000000D+00 0.000000000000000D+00 0.219335264332465D+03
 0.219335264332465D+03 0.000000000000000D+00 0.000000000000000D+00 -.219335264332465D+03
 0.132223133533361D+03 -.434753900846264D+02 -.910375035886896D+02 0.289448524670521D+02
 0.598693421390999D+02 -.563711683216881D+02 -.151869206809249D+02 -.132660073288014D+02
 0.665673401453817D+02 -.158200468551290D+02 0.237176180130221D+02 0.601532333904076D+02
 0.180010712847088D+03 0.115666605261444D+03 0.825068062565925D+02 -.758320785286583D+02
 0.000000000000000D+00 0.000000000000000D+00 -.000000000000000D+00 -.000000000000000D+00
 0.223806910385167D+03 0.000000000000000D+00 0.000000000000000D+00 0.223806910385167D+03
 0.246587271715351D+03 0.000000000000000D+00 0.000000000000000D+00 -.246587271715351D+03
 0.132766042482510D+03 -.494853413426764D+02 -.887299419021360D+02 0.289448524670521D+02
 0.622339044001378D+02 -.591404684538056D+02 -.141236290485872D+02 -.132660073288014D+02
 0.677773015684508D+02 -.188669816794856D+02 0.248875093749019D+02 0.601532333904076D+02
 0.176411404526925D+03 0.107582956016161D+03 0.856105783980000D+02 -.758320785286583D+02
 0.312055291224945D+02 0.199098354598068D+02 -.764451682217870D+01 -.227803613301832D+02
-.233605227107D-04 0.000000000000D+00 0.000000000000D+00 0.375673078955D-06 0.000000000000D+00  7 -1 1 24 -13 13 -24 21 2 0.29813339D-02 0.43295789D+00 0.40444170D+05 0.40444170D+05 0.40444170D+05 0.11554869D+01  1  2 13  2  7  2        1 -.120975899511D-02 0.100000000000D+01
0.239075300353D-04 0.000000000000D+00 0.000000000000D+00 0.375673078955D-06 0.592182994641D-08  7 -1 1 24 -13 13 -24 21 2 0.30421152D-02 0.42937997D+00 0.40444170D+05 0.40444170D+05 0.40444170D+05 0.11554869D+01  1  2  1  2  7  2        1 0.124898305191D-02 0.100000000000D+01
  </mgrwgt>
  </event>
  <event>
  8     66 0.29788925E-05 0.22435425E+03 0.75467711E-02 0.98372797E-01
       -1 -1    0    0    0  501 0.00000000E+00 0.00000000E+00 0.18400879E+03 0.18400907E+03 0.32000000E+00 0.0000E+00 0.9000E+01
        1 -1    0    0  501    0 0.00000000E+00 0.00000000E+00 -.37978475E+03 0.37978489E+03 0.32000000E+00 0.0000E+00 0.9000E+01
       25  2    1    2    0    0 -.91947988E+02 0.61278211E+02 -.25561943E+03 0.40867744E+03 0.29910952E+03 0.0000E+00 0.0000E+00
       23  2    1    2    0    0 0.91947988E+02 -.61278211E+02 0.59843465E+02 0.15511652E+03 0.90941977E+02 0.0000E+00 0.0000E+00
       24  1    3    3    0    0 -.85434644E+02 0.15129288E+03 -.11540292E+03 0.22354790E+03 0.80419002E+02 0.0000E+00 0.9000E+01
      -13  1    4    4    0    0 0.27540307E+02 -.66274406E+02 0.78614859E+01 0.72198196E+02 0.10565837E+00 0.0000E+00 0.9000E+01
       13  1    4    4    0    0 0.64407681E+02 0.49961947E+01 0.51981979E+02 0.82918325E+02 0.10565837E+00 0.0000E+00 0.9000E+01
      -24  1    3    3    0    0 -.65133439E+01 -.90014665E+02 -.14021650E+03 0.18512954E+03 0.80419002E+02 0.0000E+00 0.9000E+01
#aMCatNLO 1  0  0  2  2 0.21945464D+03 0.00000000D+00  -5  7  0 0.00000000D+00 0.00000000D+00 0.00000000D+00 0.00000000D+00 0.00000000D+00
  <mgrwgt>
 0.4321431509D-03    3    2    0
 0.264355538514783D+03 0.000000000000000D+00 0.000000000000000D+00 0.264355538514783D+03
 0.264355538514783D+03 0.000000000000000D+00 0.000000000000000D+00 -.264355538514783D+03
 0.195649083497443D+03 -.854346445159715D+02 0.151292875823631D+03 -.402831870693446D+02
 0.798999270150179D+02 0.275402583177358D+02 -.662744994935586D+02 0.351172781644003D+02
 0.107668809566677D+03 0.644077306391883D+02 0.499628783434921D+01 0.861350909635063D+02
 0.145493256950428D+03 -.651334444095259D+01 -.900146641644215D+02 -.809691820585620D+02
 0.000000000000000D+00 -.000000000000000D+00 -.000000000000000D+00 0.000000000000000D+00
 0.403721752527824D+03 0.000000000000000D+00 0.000000000000000D+00 0.403721752527824D+03
 0.388693969498164D+03 0.000000000000000D+00 0.000000000000000D+00 -.388693969498164D+03
 0.187256192572671D+03 -.101765508900329D+02 0.163924886316756D+03 -.402831870693446D+02
 0.932293349467624D+02 0.615679383221333D+02 -.605629807696230D+02 0.351172781644003D+02
 0.143283891844754D+03 0.113731213700951D+03 0.132751948006946D+02 0.861350909635063D+02
 0.148677731801240D+03 0.513044742131162D+02 -.803099897999878D+02 -.809691820585620D+02
 0.219968570860560D+03 -.216427075346167D+03 -.363271105478398D+02 0.150277830296602D+02
0.504093204495D-05 0.000000000000D+00 0.000000000000D+00 0.234451055576D-06 0.000000000000D+00  7 -1 1 24 -13 13 -24 21 0 0.28309077D-01 0.58428456D-01 0.50334832D+05 0.50334832D+05 0.50334832D+05 0.11470405D+01  1  2  2  2  7  2        1 0.426436744344D-03 0.100000000000D+01
-.270885967693D-06 0.000000000000D+00 -.193585063605D-07 0.234451055576D-06 0.000000000000D+00  7 -1 1 24 -13 13 -24 21 2 0.28309077D-01 0.58428456D-01 0.50334832D+05 0.50334832D+05 0.50334832D+05 0.11470405D+01  1  2  3  2  7  2        1 -.301500335922D-04 0.100000000000D+01
0.322155743258D-06 0.000000000000D+00 0.000000000000D+00 0.234451055576D-06 0.000000000000D+00  7 -1 1 24 -13 13 -24 21 2 0.28309077D-01 0.58428456D-01 0.50334832D+05 0.50334832D+05 0.50334832D+05 0.11470405D+01  1  2 15  2  7  2        1 0.358564401244D-04 0.100000000000D+01
  </mgrwgt>
  </event>
  <event>
  7     66 0.29788925E-05 0.34701975E+03 0.75467711E-02 0.84648644E-01
       -3 -1    0    0    0  501 0.00000000E+00 0.00000000E+00 0.62579485E+03 0.62579505E+03 0.50000000E+00 0.0000E+00 0.9000E+01
        3 -1    0    0  501    0 0.00000000E+00 0.00000000E+00 -.68962821E+03 0.68962839E+03 0.50000000E+00 0.0000E+00 0.9000E+01
       23  2    1    2    0    0 0.21918217E+03 0.65218106E+02 -.57573959E+03 0.62632827E+03 0.92286487E+02 0.0000E+00 0.0000E+00
       24  1    1    2    0    0 -.86442203E+02 -.20670692E+03 0.18924715E+03 0.30410805E+03 0.80419002E+02 0.0000E+00 0.9000E+01
      -13  1    3    3    0    0 0.22254760E+03 0.47007838E+02 -.54296733E+03 0.58868558E+03 0.10565837E+00 0.0000E+00 0.9000E+01
       13  1    3    3    0    0 -.33654342E+01 0.18210268E+02 -.32772263E+02 0.37642694E+02 0.10565837E+00 0.0000E+00 0.9000E+01
      -24  1    1    2    0    0 -.13273997E+03 0.14148881E+03 0.32265908E+03 0.38498712E+03 0.80419002E+02 0.0000E+00 0.9000E+01
#aMCatNLO 1  0  0  1  1 0.12845716D+04 0.00000000D+00  -5  7  0 0.00000000D+00 0.00000000D+00 0.00000000D+00 0.00000000D+00 0.00000000D+00
  <mgrwgt>
 0.2061315003D-03    5    2    0
 0.656936853448654D+03 0.000000000000000D+00 0.000000000000000D+00 0.656936853448654D+03
 0.656936853448654D+03 0.000000000000000D+00 0.000000000000000D+00 -.656936853448654D+03
 0.313660895827344D+03 -.864423422229696D+02 -.206706082135812D+03 0.204245584275184D+03
 0.563001524997462D+03 0.222548075634638D+03 0.470079274817039D+02 -.515008083368273D+03
 0.360942168597515D+02 -.336571911730622D+01 0.182102336582926D+02 -.309814753627477D+02
 0.401117069212752D+03 -.132740014294362D+03 0.141487920995815D+03 0.341743974455836D+03
 0.000000000000000D+00 -.000000000000000D+00 0.000000000000000D+00 0.000000000000000D+00
 0.156197854640614D+04 0.000000000000000D+00 0.000000000000000D+00 0.156197854640614D+04
 0.156008950686095D+04 0.000000000000000D+00 0.000000000000000D+00 -.156008950686095D+04
 0.616935147311371D+03 -.217025797264631D+01 -.576559443004928D+03 0.204245584275184D+03
 0.790903259693898D+03 0.345153774341030D+03 -.491084017575316D+03 -.515008083368273D+03
 0.323886960206870D+02 0.283589526362621D+01 -.900741429721411D+01 -.309814753627477D+02
 0.397267993602400D+03 -.604405737650096D+02 -.175819895781426D+03 0.341743974455836D+03
 0.128457295663873D+04 -.285378837867001D+03 0.125247077065888D+04 0.188903954519080D+01
0.673112424169D-03 0.000000000000D+00 0.000000000000D+00 0.722684327174D-09 0.000000000000D+00  7 -3 3 24 -13 13 -24 21 0 0.96276160D-01 0.10609668D+00 0.12042271D+06 0.12042271D+06 0.12042271D+06 0.11151586D+01  1  2  2  1  7  1       -3 0.194845245040D-03 0.100000000000D+01
-.188760867295D-04 0.000000000000D+00 -.258492894338D-05 0.722684327174D-09 0.000000000000D+00  7 -3 3 24 -13 13 -24 21 2 0.96276160D-01 0.10609668D+00 0.12042271D+06 0.12042271D+06 0.12042271D+06 0.11151586D+01  1  2  3  1  7  1       -3 -.679496785485D-05 0.100000000000D+01
0.411246253261D-04 0.000000000000D+00 0.000000000000D+00 0.722684327174D-09 0.000000000000D+00  7 -3 3 24 -13 13 -24 21 2 0.96276160D-01 0.10609668D+00 0.12042271D+06 0.12042271D+06 0.12042271D+06 0.11151586D+01  1  2 15  1  7  1       -3 0.148039427418D-04 0.100000000000D+01
0.534283260958D-03 0.000000000000D+00 -.229625064200D-03 0.722684327174D-09 0.000000000000D+00  7 -3 3 24 -13 13 -24 21 2 0.38840580D+00 0.10609668D+00 0.12042271D+06 0.12042271D+06 0.12042271D+06 0.11151586D+01  1  2  5  1  7  1       -3 0.813536196828D-08 0.100000000000D+01
0.913916669188D-04 0.000000000000D+00 -.382652363071D-04 0.722684327174D-09 0.000000000000D+00  7 21 3 24 -13 13 -24 3 2 0.38840580D+00 0.10609668D+00 0.12042271D+06 0.12042271D+06 0.12042271D+06 0.11151586D+01  1  2  5  3  7  1       -3 0.326914496160D-05 0.100000000000D+01
  </mgrwgt>
  </event>
  <event>
  8     66 0.29788925E-05 0.53046912E+03 0.75467711E-02 0.92012254E-01
       -1 -1    0    0    0  501 0.00000000E+00 0.00000000E+00 0.11304168E+04 0.11304169E+04 0.32000000E+00 0.0000E+00 0.9000E+01
        1 -1    0    0  501    0 0.00000000E+00 0.00000000E+00 -.37740029E+03 0.37740043E+03 0.32000000E+00 0.0000E+00 0.9000E+01
       25  2    1    2    0    0 0.39943810E+03 -.32562894E+03 0.78217167E+03 0.98344503E+03 0.29964412E+03 0.0000E+00 0.0000E+00
       23  2    1    2    0    0 -.39943810E+03 0.32562894E+03 -.29155142E+02 0.52437226E+03 0.92364670E+02 0.0000E+00 0.0000E+00
       24  1    3    3    0    0 0.20788273E+03 -.12000093E+03 0.16960712E+03 0.30471173E+03 0.80419002E+02 0.0000E+00 0.9000E+01
      -11  1    4    4    0    0 -.17582305E+03 0.15093289E+03 0.32494233E+02 0.23398794E+03 0.51099893E-03 0.0000E+00 0.9000E+01
       11  1    4    4    0    0 -.22361506E+03 0.17469605E+03 -.61649375E+02 0.29038431E+03 0.51099893E-03 0.0000E+00 0.9000E+01
      -24  1    3    3    0    0 0.19155538E+03 -.20562802E+03 0.61256455E+03 0.67873330E+03 0.80419002E+02 0.0000E+00 0.9000E+01
#aMCatNLO 1  0  0  2  1 0.19320763D+03 0.00000000D+00  -5  7  0 0.00000000D+00 0.00000000D+00 0.00000000D+00 0.00000000D+00 0.00000000D+00
  <mgrwgt>
 0.4326982201D-03    4    2    0
 0.653161366208590D+03 0.000000000000000D+00 0.000000000000000D+00 0.653161366208590D+03
 0.653161366208590D+03 0.000000000000000D+00 0.000000000000000D+00 -.653161366208590D+03
 0.253943874587689D+03 0.207882725635568D+03 -.120000926150339D+03 0.201202781199784D+02
 0.251348587156143D+03 -.175823048206565D+03 0.150932894599896D+03 -.973736582060976D+02
 0.370711977882666D+03 -.223615056215966D+03 0.174696049838728D+03 -.238547620717443D+03
 0.430318292790681D+03 0.191555378786963D+03 -.205628018288285D+03 0.315801000803563D+03
 0.000000000000000D+00 -.000000000000000D+00 -.000000000000000D+00 0.000000000000000D+00
 0.818974087883697D+03 0.000000000000000D+00 0.000000000000000D+00 0.818974087883697D+03
 0.719068554261698D+03 0.000000000000000D+00 0.000000000000000D+00 -.719068554261698D+03
 0.252277459256013D+03 0.222328660233969D+03 -.856845478557364D+02 0.201202781199784D+02
 0.264567969859468D+03 -.161100443008775D+03 0.185906505065043D+03 -.973736582060976D+02
 0.385726633841480D+03 -.202028722369265D+03 0.225974476529028D+03 -.238547620717443D+03
 0.417961264055691D+03 0.215762558888043D+03 -.148123760316206D+03 0.315801000803563D+03
 0.217509315132743D+03 -.749620537439722D+02 -.178072673422129D+03 0.999055336219997D+02
0.326412185787D-03 0.000000000000D+00 0.000000000000D+00 0.612871467995D-05 0.000000000000D+00  7 -1 1 24 -11 11 -24 21 0 0.17391029D+00 0.58061597D-01 0.28139749D+06 0.28139749D+06 0.28139749D+06 0.10866147D+01  1  2  2  2  7  2        1 0.595061459833D-03 0.100000000000D+01
-.171795391340D-04 0.000000000000D+00 -.125350873973D-05 0.612871467995D-05 0.000000000000D+00  7 -1 1 24 -11 11 -24 21 2 0.17391029D+00 0.58061597D-01 0.28139749D+06 0.28139749D+06 0.28139749D+06 0.10866147D+01  1  2  3  2  7  2        1 -.369792532078D-04 0.100000000000D+01
0.204420048224D-04 0.000000000000D+00 0.000000000000D+00 0.612871467995D-05 0.000000000000D+00  7 -1 1 24 -11 11 -24 21 2 0.17391029D+00 0.58061597D-01 0.28139749D+06 0.28139749D+06 0.28139749D+06 0.10866147D+01  1  2 15  2  7  2        1 0.440017666659D-04 0.100000000000D+01
-.786919400475D-04 0.000000000000D+00 0.000000000000D+00 0.612871467995D-05 0.000000000000D+00  7 -1 1 24 -11 11 -24 21 2 0.17391029D+00 0.58061597D-01 0.28139749D+06 0.28139749D+06 0.28139749D+06 0.10866147D+01  1  2  4  2  7  2        1 -.169385753234D-03 0.100000000000D+01
  </mgrwgt>
  </event>
  <event>
  8     66 0.29788925E-05 0.44671302E+03 0.75467711E-02 0.81169035E-01
       -3 -1    0    0    0  501 0.00000000E+00 0.00000000E+00 0.66881885E+03 0.66881903E+03 0.50000000E+00 0.0000E+00 0.9000E+01
        3 -1    0    0  501    0 0.00000000E+00 0.00000000E+00 -.34224027E+03 0.34224063E+03 0.50000000E+00 0.0000E+00 0.9000E+01
       25  2    1    2    0    0 0.27937439E+03 -.31002687E+03 0.26015530E+03 0.57843325E+03 0.30452839E+03 0.0000E+00 0.0000E+00
       23  2    1    2    0    0 -.27937439E+03 0.31002687E+03 0.66423281E+02 0.43262641E+03 0.92665268E+02 0.0000E+00 0.0000E+00
       24  1    3    3    0    0 0.76129401E+02 -.20397931E+03 0.24122372E+03 0.33475266E+03 0.80419002E+02 0.0000E+00 0.9000E+01
      -11  1    4    4    0    0 -.74949453E+02 0.64404771E+02 0.54477327E+02 0.11284137E+03 0.51099893E-03 0.0000E+00 0.9000E+01
       11  1    4    4    0    0 -.20442494E+03 0.24562210E+03 0.11945955E+02 0.31978505E+03 0.51099893E-03 0.0000E+00 0.9000E+01
      -24  1    3    3    0    0 0.20324499E+03 -.10604756E+03 0.18931574E+02 0.24368059E+03 0.80419002E+02 0.0000E+00 0.9000E+01
#aMCatNLO 1  0  0  2  2 0.19258550D+04 0.00000000D+00  -5  7  0 0.00000000D+00 0.00000000D+00 0.00000000D+00 0.00000000D+00 0.00000000D+00
  <mgrwgt>
 0.1018046854D-03    3    2    0
 0.478431835872552D+03 0.000000000000000D+00 0.000000000000000D+00 0.478431835872552D+03
 0.478431835872552D+03 0.000000000000000D+00 0.000000000000000D+00 -.478431835872552D+03
 0.271382876645785D+03 0.761294013714568D+02 -.203979310592995D+03 0.140635005880473D+03
 0.100639443362790D+03 -.749494529136883D+02 0.644047707331815D+02 0.190500019715867D+02
 0.333820250510595D+03 -.204424939635869D+03 0.245622096670956D+03 -.965204088925813D+02
 0.251021101225935D+03 0.203244991178100D+03 -.106047556811142D+03 -.631645989594789D+02
 0.000000000000000D+00 0.000000000000000D+00 -.000000000000000D+00 0.000000000000000D+00
 0.212571130412107D+04 0.000000000000000D+00 0.000000000000000D+00 0.212571130412107D+04
 0.195790675936494D+04 0.000000000000000D+00 0.000000000000000D+00 -.195790675936494D+04
 0.219360959313297D+03 -.147887604184320D+03 0.175104714397611D+01 0.140635005880473D+03
 0.424962462865289D+03 -.314878630867622D+03 0.284748380315580D+03 0.190500019715867D+02
 0.138765573979095D+04 -.990252225127589D+03 0.967301810952429D+03 -.965204088925813D+02
 0.118487156922788D+03 0.345701603331341D+02 0.488582424377359D+02 -.631645989594789D+02
 0.193315174459369D+04 0.141844829984640D+04 -.130265948084972D+04 0.167804544756129D+03
0.885849611379D-04 0.000000000000D+00 0.000000000000D+00 0.477288833476D-07 0.000000000000D+00  7 -3 3 24 -11 11 -24 21 0 0.10289525D+00 0.52652392D-01 0.19955252D+06 0.19955252D+06 0.19955252D+06 0.10979001D+01  1  2  2  2  7  2        3 0.100847489374D-03 0.100000000000D+01
-.489322989227D-05 0.000000000000D+00 -.340189575725D-06 0.477288833476D-07 0.000000000000D+00  7 -3 3 24 -11 11 -24 21 2 0.10289525D+00 0.52652392D-01 0.19955252D+06 0.19955252D+06 0.19955252D+06 0.10979001D+01  1  2  3  2  7  2        3 -.671469611778D-05 0.100000000000D+01
0.559077150667D-05 0.000000000000D+00 0.000000000000D+00 0.477288833476D-07 0.000000000000D+00  7 -3 3 24 -11 11 -24 21 2 0.10289525D+00 0.52652392D-01 0.19955252D+06 0.19955252D+06 0.19955252D+06 0.10979001D+01  1  2 15  2  7  2        3 0.767189209536D-05 0.100000000000D+01
  </mgrwgt>
  </event>
  <event>
  8     66 0.29788925E-05 0.21560125E+03 0.75467711E-02 0.98278091E-01
       -1 -1    0    0    0  501 0.00000000E+00 0.00000000E+00 0.67456206E+03 0.67456214E+03 0.32000000E+00 0.0000E+00 0.9000E+01
        1 -1    0    0  501    0 0.00000000E+00 0.00000000E+00 -.12029344E+04 0.12029344E+04 0.32000000E+00 0.0000E+00 0.9000E+01
       25  2    1    2    0    0 0.91663748E+02 0.30964984E+03 0.57430310E+03 0.72449648E+03 0.30130687E+03 0.0000E+00 0.0000E+00
       23  2    1    2    0    0 -.91663748E+02 -.30964984E+03 -.11026754E+04 0.11530001E+04 0.96077359E+02 0.0000E+00 0.0000E+00
       24  1    3    3    0    0 0.30312391E+02 0.17438842E+03 0.95157868E+02 0.21645415E+03 0.80419002E+02 0.0000E+00 0.9000E+01
      -13  1    4    4    0    0 -.41382476E+02 -.18162561E+03 -.78548925E+03 0.80727550E+03 0.10565837E+00 0.0000E+00 0.9000E+01
       13  1    4    4    0    0 -.50281272E+02 -.12802423E+03 -.31718618E+03 0.34572460E+03 0.10565837E+00 0.0000E+00 0.9000E+01
      -24  1    3    3    0    0 0.61351357E+02 0.13526142E+03 0.47914523E+03 0.50804233E+03 0.80419002E+02 0.0000E+00 0.9000E+01
#aMCatNLO 1  0  0  1  2 0.46352351D+02 0.00000000D+00  -5  7  0 0.00000000D+00 0.00000000D+00 0.00000000D+00 0.00000000D+00 0.00000000D+00
  <mgrwgt>
 0.9564126582D-03    9    2    0
 0.900807425295244D+03 0.000000000000000D+00 0.000000000000000D+00 0.900807425295244D+03
 0.900807425295244D+03 0.000000000000000D+00 0.000000000000000D+00 -.900807425295244D+03
 0.253478540437505D+03 0.303123906062517D+02 0.174388418218827D+03 0.162646835428257D+03
 0.610911348301882D+03 -.413824655111442D+02 -.181625671880036D+03 -.581818083550493D+03
 0.267262224174467D+03 -.502812824582811D+02 -.128024163470699D+03 -.229152138704096D+03
 0.669962737676634D+03 0.613513573631735D+02 0.135261417131907D+03 0.648323386826331D+03
 0.000000000000000D+00 -.000000000000000D+00 -.000000000000000D+00 0.000000000000000D+00
 0.932494440983876D+03 0.000000000000000D+00 0.000000000000000D+00 0.932494440983876D+03
 0.918217766474773D+03 0.000000000000000D+00 0.000000000000000D+00 -.918217766474773D+03
 0.257354589437614D+03 0.348336090379893D+02 0.179155785161390D+03 0.162646835428257D+03
 0.606990245875079D+03 -.306032133178076D+02 -.170259565298827D+03 -.581818083550493D+03
 0.264070496808980D+03 -.455786287911572D+02 -.123065483421624D+03 -.229152138704096D+03
 0.673795701659132D+03 0.732445276930089D+02 0.147802086849324D+03 0.648323386826331D+03
 0.485011736778448D+02 -.318962946220335D+02 -.336328232902626D+02 0.142766745091031D+02
0.341955696576D-03 0.000000000000D+00 0.000000000000D+00 0.262574383931D-06 0.000000000000D+00  7 -1 1 24 -13 13 -24 21 0 0.10377879D+00 0.18506684D+00 0.11804000D+06 0.11804000D+06 0.11804000D+06 0.11158587D+01  1  2  2  1  7  1       -1 0.434421707425D-03 0.100000000000D+01
0.246320061927D-05 0.000000000000D+00 -.131319991386D-05 0.262574383931D-06 0.000000000000D+00  7 -1 1 24 -13 13 -24 21 2 0.10377879D+00 0.18506684D+00 0.11804000D+06 0.11804000D+06 0.11804000D+06 0.11158587D+01  1  2  3  1  7  1       -1 0.389636715919D-05 0.100000000000D+01
0.208148220808D-04 0.000000000000D+00 0.000000000000D+00 0.262574383931D-06 0.000000000000D+00  7 -1 1 24 -13 13 -24 21 2 0.10377879D+00 0.18506684D+00 0.11804000D+06 0.11804000D+06 0.11804000D+06 0.11158587D+01  1  2 15  1  7  1       -1 0.329255313373D-04 0.100000000000D+01
0.782768642195D-03 0.000000000000D+00 0.000000000000D+00 0.262574383931D-06 0.000000000000D+00  7 -1 1 24 -13 13 -24 21 2 0.10840468D+00 0.18506684D+00 0.13451725D+06 0.13451725D+06 0.13451725D+06 0.11113051D+01  1  2 12  1  7  1       -1 0.110290481978D-02 0.100000000000D+01
-.716513205007D-03 0.000000000000D+00 0.000000000000D+00 0.262574383931D-06 0.000000000000D+00  7 -1 1 24 -13 13 -24 21 2 0.10377879D+00 0.18506684D+00 0.11804000D+06 0.11804000D+06 0.11804000D+06 0.11158587D+01  1  2  4  1  7  1       -1 -.113340281716D-02 0.100000000000D+01
-.409738003142D-02 0.000000000000D+00 -.851226089000D-03 0.262574383931D-06 0.000000000000D+00  7 -1 1 24 -13 13 -24 21 2 0.10898825D+00 0.18506684D+00 0.11804000D+06 0.11804000D+06 0.11804000D+06 0.11158587D+01  1  2  5  1  7  1       -1 -.579587984588D-02 0.100000000000D+01
0.413513093618D-02 0.000000000000D+00 0.850206107713D-03 0.262574383931D-06 0.000000000000D+00  7 -1 1 24 -13 13 -24 21 2 0.10377879D+00 0.18506684D+00 0.11804000D+06 0.11804000D+06 0.11804000D+06 0.11158587D+01  1  2  6  1  7  1       -1 0.654107840531D-02 0.100000000000D+01
0.109954710011D-04 0.000000000000D+00 0.000000000000D+00 0.262574383931D-06 0.000000000000D+00  7 21 1 24 -13 13 -24 1 2 0.10840468D+00 0.18506684D+00 0.13451725D+06 0.13451725D+06 0.13451725D+06 0.11113051D+01  1  2 12  3  7  1       -1 0.107348651888D-03 0.100000000000D+01
-.342927144775D-04 0.000000000000D+00 -.727379073959D-05 0.262574383931D-06 0.000000000000D+00  7 21 1 24 -13 13 -24 1 2 0.10898825D+00 0.18506684D+00 0.11804000D+06 0.11804000D+06 0.11804000D+06 0.11158587D+01  1  2  5  3  7  1       -1 -.336880161640D-03 0.100000000000D+01
  </mgrwgt>
  </event>
  <event>
  8     66 0.29788925E-05 0.39608644E+03 0.75467711E-02 0.93936611E-01
       -1 -1    0    0    0  501 0.00000000E+00 0.00000000E+00 0.56223858E+02 0.56224768E+02 0.32000000E+00 0.0000E+00 0.9000E+01
        1 -1    0    0  501    0 0.00000000E+00 0.00000000E+00 -.31394468E+04 0.31394468E+04 0.32000000E+00 0.0000E+00 0.9000E+01
       25  2    1    2    0    0 0.32804754E+03 -.15048476E+03 -.17193237E+04 0.17819872E+04 0.29856867E+03 0.0000E+00 0.0000E+00
       23  2    1    2    0    0 -.32804754E+03 0.15048476E+03 -.13638992E+04 0.14136844E+04 0.89564379E+02 0.0000E+00 0.0000E+00
       24  1    3    3    0    0 0.28803347E+03 -.83992505E+02 -.84003787E+03 0.89562764E+03 0.80419002E+02 0.0000E+00 0.9000E+01
      -13  1    4    4    0    0 -.87153204E+01 0.25374191E+02 -.66220844E+02 0.71449407E+02 0.10565837E+00 0.0000E+00 0.9000E+01
       13  1    4    4    0    0 -.31933222E+03 0.12511057E+03 -.12976783E+04 0.13422350E+04 0.10565837E+00 0.0000E+00 0.9000E+01
      -24  1    3    3    0    0 0.40014070E+02 -.66492254E+02 -.87928586E+03 0.88635951E+03 0.80419002E+02 0.0000E+00 0.9000E+01
#aMCatNLO 1  0  0  2  1 0.23235875D+03 0.00000000D+00  -5  7  0 0.00000000D+00 0.00000000D+00 0.00000000D+00 0.00000000D+00 0.00000000D+00
  <mgrwgt>
 0.5166509240D-03    4    2    0
 0.420134846051457D+03 0.000000000000000D+00 0.000000000000000D+00 0.420134846051457D+03
 0.420134846051457D+03 0.000000000000000D+00 0.000000000000000D+00 -.420134846051457D+03
 0.323833818474623D+03 0.288033466889645D+03 -.839925052953964D+02 0.915593088616266D+02
 0.287465395402490D+02 -.871488824308804D+01 0.253740525223856D+02 0.103233578374867D+02
 0.343117213849932D+03 -.319332648554126D+03 0.125110706722802D+03 -.101682383365013D+02
 0.144572120238110D+03 0.400140699075690D+02 -.664922539497912D+02 -.917144283626120D+02
 0.000000000000000D+00 -.000000000000000D+00 0.000000000000000D+00 0.000000000000000D+00
 0.598127901067950D+03 0.000000000000000D+00 0.000000000000000D+00 0.598127901067950D+03
 0.519105449213209D+03 0.000000000000000D+00 0.000000000000000D+00 -.519105449213209D+03
 0.415904588902472D+03 0.388422078607613D+03 -.851738981536415D+02 0.915593088616266D+02
 0.273330743209380D+02 -.110442145501659D+01 0.252844910576191D+02 0.103233578374867D+02
 0.267288682526777D+03 -.236495526795107D+03 0.124135863238377D+03 -.101682383365013D+02
 0.161278531028608D+03 0.815205294444877D+02 -.669807101006314D+02 -.917144283626120D+02
 0.245428473502363D+03 -.232342659801977D+03 0.273425395827633D+01 0.790224518547408D+02
0.148358346187D-03 0.000000000000D+00 0.000000000000D+00 0.190797792481D-06 0.000000000000D+00  7 -1 1 24 -13 13 -24 21 0 0.86498956D-02 0.48299188D+00 0.15688447D+06 0.15688447D+06 0.15688447D+06 0.11060172D+01  1  2  2  2  7  2        1 0.652814909594D-03 0.100000000000D+01
-.820731352230D-05 0.000000000000D+00 -.569735113007D-06 0.190797792481D-06 0.000000000000D+00  7 -1 1 24 -13 13 -24 21 2 0.86498956D-02 0.48299188D+00 0.15688447D+06 0.15688447D+06 0.15688447D+06 0.11060172D+01  1  2  3  2  7  2        1 -.441776793871D-04 0.100000000000D+01
0.951015651506D-05 0.000000000000D+00 0.000000000000D+00 0.190797792481D-06 0.000000000000D+00  7 -1 1 24 -13 13 -24 21 2 0.86498956D-02 0.48299188D+00 0.15688447D+06 0.15688447D+06 0.15688447D+06 0.11060172D+01  1  2 15  2  7  2        1 0.511905198092D-04 0.100000000000D+01
-.265993396824D-04 0.000000000000D+00 0.000000000000D+00 0.190797792481D-06 0.000000000000D+00  7 -1 1 24 -13 13 -24 21 2 0.86498956D-02 0.48299188D+00 0.15688447D+06 0.15688447D+06 0.15688447D+06 0.11060172D+01  1  2  4  2  7  2        1 -.143176826035D-03 0.100000000000D+01
  </mgrwgt>
  </event>
  <event>
  8     66 0.29788925E-05 0.74490277E+02 0.75467711E-02 0.10319831E+00
       -1 -1    0    0    0  501 0.00000000E+00 0.00000000E+00 0.40373476E+03 0.40373489E+03 0.32000000E+00 0.0000E+00 0.9000E+01
        1 -1    0    0  501    0 0.00000000E+00 0.00000000E+00 -.20421994E+03 0.20422019E+03 0.32000000E+00 0.0000E+00 0.9000E+01
       25  2    1    2    0    0 -.15431079E+03 -.12830208E+02 -.47707962E+01 0.33696237E+03 0.29923978E+03 0.0000E+00 0.0000E+00
       23  2    1    2    0    0 0.15431079E+03 0.12830208E+02 0.20428562E+03 0.27099271E+03 0.87909055E+02 0.0000E+00 0.0000E+00
       24  1    3    3    0    0 -.15362564E+03 -.42233200E+01 -.10913178E+03 0.20492837E+03 0.80419002E+02 0.0000E+00 0.9000E+01
      -13  1    4    4    0    0 0.14805431E+03 0.34304097E+02 0.15606630E+03 0.21783836E+03 0.10565837E+00 0.0000E+00 0.9000E+01
       13  1    4    4    0    0 0.62564803E+01 -.21473889E+02 0.48219313E+02 0.53154349E+02 0.10565837E+00 0.0000E+00 0.9000E+01
      -24  1    3    3    0    0 -.68515203E+00 -.86068880E+01 0.10436098E+03 0.13203401E+03 0.80419002E+02 0.0000E+00 0.9000E+01
#aMCatNLO 1  0  0  2  1 0.68346210D+02 0.00000000D+00  -5  7  0 0.00000000D+00 0.00000000D+00 0.00000000D+00 0.00000000D+00 0.00000000D+00
  <mgrwgt>
 0.6988691944D-03    9    2    0
 0.287142481756573D+03 0.000000000000000D+00 0.000000000000000D+00 0.287142481756573D+03
 0.287142481756573D+03 0.000000000000000D+00 0.000000000000000D+00 -.287142481756573D+03
 0.254857184164919D+03 -.153625640440962D+03 -.422332009286063D+01 -.186725184516172D+03
 0.176390676815931D+03 0.148054516915586D+03 0.343041769902649D+02 0.895363296628539D+02
 0.395184910367522D+02 0.625627601433816D+01 -.214739688488798D+02 0.325797299886236D+02
 0.103518611495543D+03 -.685152488961975D+00 -.860688804852450D+01 0.646091248646943D+02
 0.000000000000000D+00 0.000000000000000D+00 -.000000000000000D+00 -.000000000000000D+00
 0.305626386080142D+03 0.000000000000000D+00 0.000000000000000D+00 0.305626386080142D+03
 0.360127126596789D+03 0.000000000000000D+00 0.000000000000000D+00 -.360127126596789D+03
 0.256842508412978D+03 -.154769216046365D+03 0.260969999290188D+02 -.186725184516172D+03
 0.181051025445572D+03 0.147255685849262D+03 0.554840740254469D+02 0.895363296628539D+02
 0.372154848228608D+02 0.608478655641695D+01 -.169271638803377D+02 0.325797299886236D+02
 0.103228619482724D+03 -.114720297142414D+01 0.364373921942952D+01 0.646091248646943D+02
 0.874158745127973D+02 0.257594661211092D+01 -.682976492935574D+02 -.545007405166473D+02
0.120256873255D-04 0.000000000000D+00 0.000000000000D+00 0.737372411137D-07 0.000000000000D+00  7 -1 1 24 -13 13 -24 21 0 0.62113069D-01 0.31418482D-01 0.45941096D+05 0.45941096D+05 0.45941096D+05 0.11505437D+01  1  2  2  2  7  2        1 0.581733261792D-03 0.100000000000D+01
-.598633600722D-06 0.000000000000D+00 -.461818057659D-07 0.737372411137D-07 0.000000000000D+00  7 -1 1 24 -13 13 -24 21 2 0.62113069D-01 0.31418482D-01 0.45941096D+05 0.45941096D+05 0.45941096D+05 0.11505437D+01  1  2  3  2  7  2        1 -.383337475893D-04 0.100000000000D+01
0.759792137501D-06 0.000000000000D+00 0.000000000000D+00 0.737372411137D-07 0.000000000000D+00  7 -1 1 24 -13 13 -24 21 2 0.62113069D-01 0.31418482D-01 0.45941096D+05 0.45941096D+05 0.45941096D+05 0.11505437D+01  1  2 15  2  7  2        1 0.486536004397D-04 0.100000000000D+01
0.155263158725D-04 0.000000000000D+00 0.000000000000D+00 0.737372411137D-07 0.000000000000D+00  7 -1 1 24 -13 13 -24 21 2 0.62113069D-01 0.40226567D-01 0.62640629D+05 0.62640629D+05 0.62640629D+05 0.11387836D+01  1  2 12  2  7  2        1 0.706065888225D-03 0.100000000000D+01
-.170672084437D-04 0.000000000000D+00 0.000000000000D+00 0.737372411137D-07 0.000000000000D+00  7 -1 1 24 -13 13 -24 21 2 0.62113069D-01 0.31418482D-01 0.45941096D+05 0.45941096D+05 0.45941096D+05 0.11505437D+01  1  2  4  2  7  2        1 -.109290567677D-02 0.100000000000D+01
-.243064388222D-04 0.000000000000D+00 -.683460154705D-05 0.737372411137D-07 0.000000000000D+00  7 -1 1 24 -13 13 -24 21 2 0.62113069D-01 0.41551879D-01 0.45941096D+05 0.45941096D+05 0.45941096D+05 0.11505437D+01  1  2  5  2  7  2        1 -.108626037493D-02 0.100000000000D+01
0.254738093455D-04 0.000000000000D+00 0.657597994856D-05 0.737372411137D-07 0.000000000000D+00  7 -1 1 24 -13 13 -24 21 2 0.62113069D-01 0.31418482D-01 0.45941096D+05 0.45941096D+05 0.45941096D+05 0.11505437D+01  1  2  6  2  7  2        1 0.163122580559D-02 0.100000000000D+01
0.521002142232D-06 0.000000000000D+00 0.000000000000D+00 0.737372411137D-07 0.000000000000D+00  7 -1 21 24 -13 13 -24 -1 2 0.62113069D-01 0.40226567D-01 0.62640629D+05 0.62640629D+05 0.62640629D+05 0.11387836D+01  1  2 12  4  7  2        1 0.126974344490D-03 0.100000000000D+01
-.755540329428D-06 0.000000000000D+00 -.251015067580D-06 0.737372411137D-07 0.000000000000D+00  7 -1 21 24 -13 13 -24 -1 2 0.62113069D-01 0.41551879D-01 0.45941096D+05 0.45941096D+05 0.45941096D+05 0.11505437D+01  1  2  5  4  7  2        1 -.178283906871D-03 0.100000000000D+01
  </mgrwgt>
  </event>
  <event>
  8     66 0.29788925E-05 0.38461578E+03 0.75467711E-02 0.93263393E-01
       -1 -1    0    0    0  501 0.00000000E+00 0.00000000E+00 0.11837712E+04 0.11837712E+04 0.32000000E+00 0.0000E+00 0.9000E+01
        1 -1    0    0  501    0 0.00000000E+00 0.00000000E+00 -.19891339E+03 0.19891365E+03 0.32000000E+00 0.0000E+00 0.9000E+01
       25  2    1    2    0    0 -.21747298E+03 0.29075063E+03 0.86951760E+03 0.99117926E+03 0.30748177E+03 0.0000E+00 0.0000E+00
       23  2    1    2    0    0 0.21747298E+03 -.29075063E+03 0.11534019E+03 0.39150562E+03 0.90237810E+02 0.0000E+00 0.0000E+00
       24  1    3    3    0    0 -.57006853E+02 0.84354084E+02 0.57410271E+03 0.58858009E+03 0.80419002E+02 0.0000E+00 0.9000E+01
      -11  1    4    4    0    0 0.17618747E+03 -.20173218E+03 0.47013198E+02 0.27193407E+03 0.51099893E-03 0.0000E+00 0.9000E+01
       11  1    4    4    0    0 0.41285516E+02 -.89018448E+02 0.68326987E+02 0.11957155E+03 0.51099893E-03 0.0000E+00 0.9000E+01
      -24  1    3    3    0    0 -.16046613E+03 0.20639654E+03 0.29541489E+03 0.40259916E+03 0.80419002E+02 0.0000E+00 0.9000E+01
#aMCatNLO 1  0  0  1  1 0.30752216D+03 0.00000000D+00  -5  7  0 0.00000000D+00 0.00000000D+00 0.00000000D+00 0.00000000D+00 0.00000000D+00
  <mgrwgt>
 0.5416321114D-03    3    2    0
 0.485250606119239D+03 0.000000000000000D+00 0.000000000000000D+00 0.485250606119239D+03
 0.485250606119239D+03 0.000000000000000D+00 0.000000000000000D+00 -.485250606119239D+03
 0.255961836822348D+03 -.570068525439893D+02 0.843540837439278D+02 0.220644177974063D+03
 0.339719108555540D+03 0.176187468378840D+03 -.201732179119401D+03 -.208976497749780D+03
 0.101017293018805D+03 0.412855158697276D+02 -.890184480211770D+02 -.239940738541516D+02
 0.273802973841785D+03 -.160466131704578D+03 0.206396543396650D+03 0.123263936298683D+02
 0.000000000000000D+00 0.000000000000000D+00 -.000000000000000D+00 -.000000000000000D+00
 0.548781958432168D+03 0.000000000000000D+00 0.000000000000000D+00 0.548781958432168D+03
 0.110376538899302D+04 0.000000000000000D+00 0.000000000000000D+00 -.110376538899302D+04
 0.294956306089450D+03 -.136530569326251D+03 0.114924135468414D+03 0.220644177974063D+03
 0.281318989520818D+03 0.865421037128854D+02 -.167271221488331D+03 -.208976497749780D+03
 0.836352420242656D+02 0.146313639075502D+02 -.787722115885026D+02 -.239940738541516D+02
 0.358147654611487D+03 -.251686694040525D+03 0.241463029493898D+03 0.123263936298683D+02
 0.634489155179166D+03 0.287043795746340D+03 -.110343731885478D+03 -.554983430560851D+03
0.141964636055D-03 0.000000000000D+00 0.000000000000D+00 0.216803166416D-07 0.000000000000D+00  7 -1 1 24 -11 11 -24 21 0 0.18211867D+00 0.30602084D-01 0.14792930D+06 0.14792930D+06 0.14792930D+06 0.11080286D+01  1  2  2  1  7  1       -1 0.533889863663D-03 0.100000000000D+01
-.736891387912D-05 0.000000000000D+00 -.545181582599D-06 0.216803166416D-07 0.000000000000D+00  7 -1 1 24 -11 11 -24 21 2 0.18211867D+00 0.30602084D-01 0.14792930D+06 0.14792930D+06 0.14792930D+06 0.11080286D+01  1  2  3  1  7  1       -1 -.340233396865D-04 0.100000000000D+01
0.904576151347D-05 0.000000000000D+00 0.000000000000D+00 0.216803166416D-07 0.000000000000D+00  7 -1 1 24 -11 11 -24 21 2 0.18211867D+00 0.30602084D-01 0.14792930D+06 0.14792930D+06 0.14792930D+06 0.11080286D+01  1  2 15  1  7  1       -1 0.417655874047D-04 0.100000000000D+01
  </mgrwgt>
  </event>
  <event>
  8     66 0.29788925E-05 0.21471471E+03 0.75467711E-02 0.96381131E-01
       -1 -1    0    0    0  501 0.00000000E+00 0.00000000E+00 0.10846357E+03 0.10846404E+03 0.32000000E+00 0.0000E+00 0.9000E+01
        1 -1    0    0  501    0 0.00000000E+00 0.00000000E+00 -.99928880E+03 0.99928885E+03 0.32000000E+00 0.0000E+00 0.9000E+01
       25  2    1    2    0    0 -.11768722E+03 -.21460430E+03 -.61760315E+03 0.72922666E+03 0.30072009E+03 0.0000E+00 0.0000E+00
       23  2    1    2    0    0 0.11768722E+03 0.21460430E+03 -.27322208E+03 0.37852624E+03 0.93415823E+02 0.0000E+00 0.0000E+00
       24  1    3    3    0    0 -.37814499E+02 -.25292554E+03 -.42541860E+03 0.50284139E+03 0.80419002E+02 0.0000E+00 0.9000E+01
      -13  1    4    4    0    0 0.52623424E+02 0.64711149E+02 -.36883285E+02 0.91198385E+02 0.10565837E+00 0.0000E+00 0.9000E+01
       13  1    4    4    0    0 0.65063796E+02 0.14989315E+03 -.23633880E+03 0.28732785E+03 0.10565837E+00 0.0000E+00 0.9000E+01
      -24  1    3    3    0    0 -.79872722E+02 0.38321240E+02 -.19218455E+03 0.22638526E+03 0.80419002E+02 0.0000E+00 0.9000E+01
#aMCatNLO 1  0  0  1  2 0.19326436D+03 0.00000000D+00  -5  7  0 0.00000000D+00 0.00000000D+00 0.00000000D+00 0.00000000D+00 0.00000000D+00
  <mgrwgt>
 0.5287290689D-03    9    2    0
 0.329221380479540D+03 0.000000000000000D+00 0.000000000000000D+00 0.329221380479540D+03
 0.329221380479540D+03 0.000000000000000D+00 0.000000000000000D+00 -.329221380479540D+03
 0.270411332388384D+03 -.378144993477975D+02 -.252925543000771D+03 -.354091240576621D+02
 0.103530127060722D+03 0.526234078520783D+02 0.647110428990358D+02 0.613330667924095D+02
 0.163646330856705D+03 0.650638136468665D+02 0.149893261012928D+03 -.887874199976384D+01
 0.120854970653268D+03 -.798727221511472D+02 0.383212390888077D+02 -.170452007349835D+02
 0.000000000000000D+00 -.000000000000000D+00 0.000000000000000D+00 0.000000000000000D+00
 0.557317200406479D+03 0.000000000000000D+00 0.000000000000000D+00 0.557317200406479D+03
 0.386702313744238D+03 0.000000000000000D+00 0.000000000000000D+00 -.386702313744238D+03
 0.274852944407383D+03 0.404341538533793D+02 -.257270671143579D+03 -.354091240576621D+02
 0.122266710974716D+03 0.850265914554212D+02 0.629117022173568D+02 0.613330667924095D+02
 0.187178612434582D+03 0.115409270868530D+03 0.147097590364463D+03 -.887874199976384D+01
 0.101921801570122D+03 -.479029358790220D+02 0.365459648525416D+02 -.170452007349835D+02
 0.257799444763915D+03 -.192967080298308D+03 0.107154137092178D+02 0.170614886662241D+03
0.115605263826D-04 0.000000000000D+00 0.000000000000D+00 0.252078723745D-06 0.000000000000D+00  7 -1 1 24 -13 13 -24 21 0 0.16686743D-01 0.15373678D+00 0.10066097D+06 0.10066097D+06 0.10066097D+06 0.11214873D+01  1  2  2  1  7  1       -1 0.551186280903D-03 0.100000000000D+01
-.641183955524D-06 0.000000000000D+00 -.443954652655D-07 0.252078723745D-06 0.000000000000D+00  7 -1 1 24 -13 13 -24 21 2 0.16686743D-01 0.15373678D+00 0.10066097D+06 0.10066097D+06 0.10066097D+06 0.11214873D+01  1  2  3  1  7  1       -1 -.384496313687D-04 0.100000000000D+01
0.753834632421D-06 0.000000000000D+00 0.000000000000D+00 0.252078723745D-06 0.000000000000D+00  7 -1 1 24 -13 13 -24 21 2 0.16686743D-01 0.15373678D+00 0.10066097D+06 0.10066097D+06 0.10066097D+06 0.11214873D+01  1  2 15  1  7  1       -1 0.452049111333D-04 0.100000000000D+01
0.301336035352D-05 0.000000000000D+00 0.000000000000D+00 0.252078723745D-06 0.000000000000D+00  7 -1 1 24 -13 13 -24 21 2 0.28860795D-01 0.15373678D+00 0.18449247D+06 0.18449247D+06 0.18449247D+06 0.11005276D+01  1  2 12  1  7  1       -1 0.706539839429D-04 0.100000000000D+01
-.753449341614D-05 0.000000000000D+00 0.000000000000D+00 0.252078723745D-06 0.000000000000D+00  7 -1 1 24 -13 13 -24 21 2 0.16686743D-01 0.15373678D+00 0.10066097D+06 0.10066097D+06 0.10066097D+06 0.11214873D+01  1  2  4  1  7  1       -1 -.451818065478D-03 0.100000000000D+01
-.752736679473D-05 0.000000000000D+00 -.379281758533D-05 0.252078723745D-06 0.000000000000D+00  7 -1 1 24 -13 13 -24 21 2 0.32865731D-01 0.15373678D+00 0.10066097D+06 0.10066097D+06 0.10066097D+06 0.11214873D+01  1  2  5  1  7  1       -1 -.149665031403D-03 0.100000000000D+01
0.874255957079D-05 0.000000000000D+00 0.306206240824D-05 0.252078723745D-06 0.000000000000D+00  7 -1 1 24 -13 13 -24 21 2 0.16686743D-01 0.15373678D+00 0.10066097D+06 0.10066097D+06 0.10066097D+06 0.11214873D+01  1  2  6  1  7  1       -1 0.524261703400D-03 0.100000000000D+01
0.182986214022D-06 0.000000000000D+00 0.000000000000D+00 0.252078723745D-06 0.000000000000D+00  7 21 1 24 -13 13 -24 1 2 0.28860795D-01 0.15373678D+00 0.18449247D+06 0.18449247D+06 0.18449247D+06 0.11005276D+01  1  2 12  3  7  1       -1 0.464905279169D-04 0.100000000000D+01
-.327894312220D-06 0.000000000000D+00 -.278399693990D-06 0.252078723745D-06 0.000000000000D+00  7 21 1 24 -13 13 -24 1 2 0.32865731D-01 0.15373678D+00 0.10066097D+06 0.10066097D+06 0.10066097D+06 0.11214873D+01  1  2  5  3  7  1       -1 -.691356101107D-04 0.100000000000D+01
  </mgrwgt>
  </event>
  <event>
  8     66 0.29788925E-05 0.13270372E+03 0.75467711E-02 0.10066972E+00
       -1 -1    0    0    0  501 0.00000000E+00 0.00000000E+00 0.43826340E+02 0.43827508E+02 0.32000000E+00 0.0000E+00 0.9000E+01
        1 -1    0    0  501    0 0.00000000E+00 0.00000000E+00 -.26251295E+04 0.26251295E+04 0.32000000E+00 0.0000E+00 0.9000E+01
       25  2    1    2    0    0 -.12539648E+03 -.18856985E+03 -.98457794E+03 0.10537835E+04 0.29963843E+03 0.0000E+00 0.0000E+00
       23  2    1    2    0    0 0.12539648E+03 0.18856985E+03 -.15967253E+04 0.16151735E+04 0.89280817E+02 0.0000E+00 0.0000E+00
       24  1    3    3    0    0 -.14594645E+03 -.65893177E+02 -.78531804E+03 0.80550227E+03 0.80419002E+02 0.0000E+00 0.9000E+01
      -11  1    4    4    0    0 0.10838446E+03 0.97375445E+02 -.81026542E+03 0.82326133E+03 0.51099893E-03 0.0000E+00 0.9000E+01
       11  1    4    4    0    0 0.17012019E+02 0.91194406E+02 -.78645984E+03 0.79191218E+03 0.51099893E-03 0.0000E+00 0.9000E+01
      -24  1    3    3    0    0 0.20549974E+02 -.12267667E+03 -.19925990E+03 0.24828127E+03 0.80419002E+02 0.0000E+00 0.9000E+01
#aMCatNLO 1  0  0  1  2 0.38432271D+02 0.00000000D+00  -5  7  0 0.00000000D+00 0.00000000D+00 0.00000000D+00 0.00000000D+00 0.00000000D+00
  <mgrwgt>
 0.3687723181D-03    9    2    0
 0.339192281047335D+03 0.000000000000000D+00 0.000000000000000D+00 0.339192281047335D+03
 0.339192281047335D+03 0.000000000000000D+00 0.000000000000000D+00 -.339192281047335D+03
 0.180881212979388D+03 -.145946449381852D+03 -.658931772478120D+02 -.246682054382416D+02
 0.155823747833376D+03 0.108384456428336D+03 0.973754454718013D+02 -.552437563236048D+02
 0.123069310304226D+03 0.170120189987961D+02 0.911944061362652D+02 -.808716677075246D+02
 0.218610290977680D+03 0.205499739547195D+02 -.122676674360254D+03 0.160783629469371D+03
 0.000000000000000D+00 -.000000000000000D+00 -.000000000000000D+00 0.000000000000000D+00
 0.372219218013454D+03 0.000000000000000D+00 0.000000000000000D+00 0.372219218013454D+03
 0.351103937544211D+03 0.000000000000000D+00 0.000000000000000D+00 -.351103937544211D+03
 0.172180041435126D+03 -.136372559964947D+03 -.630297964719440D+02 -.246682054382416D+02
 0.163537123805303D+03 0.117044499497139D+03 0.999655109887073D+02 -.552437563236048D+02
 0.125670398474852D+03 0.237570425199785D+02 0.932117232205035D+02 -.808716677075246D+02
 0.218084770906128D+03 0.323917441266328D+02 -.119135010613582D+03 0.160783629469371D+03
 0.438508209362568D+02 -.368207261788031D+02 -.110124271236847D+02 0.211152804692430D+02
0.233873893198D-04 0.000000000000D+00 0.000000000000D+00 0.347383113162D-06 0.000000000000D+00  7 -1 1 24 -11 11 -24 21 0 0.67426052D-02 0.40386617D+00 0.80026647D+05 0.80026647D+05 0.80026647D+05 0.11297503D+01  1  2  2  1  7  1       -1 0.364024450787D-03 0.100000000000D+01
-.124725305431D-05 0.000000000000D+00 -.898137330290D-07 0.347383113162D-06 0.000000000000D+00  7 -1 1 24 -11 11 -24 21 2 0.67426052D-02 0.40386617D+00 0.80026647D+05 0.80026647D+05 0.80026647D+05 0.11297503D+01  1  2  3  1  7  1       -1 -.247781190882D-04 0.100000000000D+01
0.148840159980D-05 0.000000000000D+00 0.000000000000D+00 0.347383113162D-06 0.000000000000D+00  7 -1 1 24 -11 11 -24 21 2 0.67426052D-02 0.40386617D+00 0.80026647D+05 0.80026647D+05 0.80026647D+05 0.11297503D+01  1  2 15  1  7  1       -1 0.295688128109D-04 0.100000000000D+01
0.507271809031D-04 0.000000000000D+00 0.000000000000D+00 0.347383113162D-06 0.000000000000D+00  7 -1 1 24 -11 11 -24 21 2 0.75092571D-02 0.40386617D+00 0.91897840D+05 0.91897840D+05 0.91897840D+05 0.11247458D+01  1  2 12  1  7  1       -1 0.844772099193D-03 0.100000000000D+01
-.498016435496D-04 0.000000000000D+00 0.000000000000D+00 0.347383113162D-06 0.000000000000D+00  7 -1 1 24 -11 11 -24 21 2 0.67426052D-02 0.40386617D+00 0.80026647D+05 0.80026647D+05 0.80026647D+05 0.11297503D+01  1  2  4  1  7  1       -1 -.989367033732D-03 0.100000000000D+01
-.115802956455D-03 0.000000000000D+00 -.243280609863D-04 0.347383113162D-06 0.000000000000D+00  7 -1 1 24 -11 11 -24 21 2 0.77305861D-02 0.40386617D+00 0.80026647D+05 0.80026647D+05 0.80026647D+05 0.11297503D+01  1  2  5  1  7  1       -1 -.187171751451D-02 0.100000000000D+01
0.118248024468D-03 0.000000000000D+00 0.241023841433D-04 0.347383113162D-06 0.000000000000D+00  7 -1 1 24 -11 11 -24 21 2 0.67426052D-02 0.40386617D+00 0.80026647D+05 0.80026647D+05 0.80026647D+05 0.11297503D+01  1  2  6  1  7  1       -1 0.234913325895D-02 0.100000000000D+01
0.878090525598D-06 0.000000000000D+00 0.000000000000D+00 0.347383113162D-06 0.000000000000D+00  7 21 1 24 -11 11 -24 1 2 0.75092571D-02 0.40386617D+00 0.91897840D+05 0.91897840D+05 0.91897840D+05 0.11247458D+01  1  2 12  3  7  1       -1 0.215695032107D-03 0.100000000000D+01
-.230649621811D-05 0.000000000000D+00 -.514562993708D-06 0.347383113162D-06 0.000000000000D+00  7 21 1 24 -11 11 -24 1 2 0.77305861D-02 0.40386617D+00 0.80026647D+05 0.80026647D+05 0.80026647D+05 0.11297503D+01  1  2  5  3  7  1       -1 -.548558668392D-03 0.100000000000D+01
  </mgrwgt>
  </event>
  <event>
  8     66 0.29788925E-05 0.22599510E+03 0.75467711E-02 0.98119017E-01
       -1 -1    0    0    0  501 0.00000000E+00 0.00000000E+00 0.14039501E+03 0.14039538E+03 0.32000000E+00 0.0000E+00 0.9000E+01
        1 -1    0    0  501    0 0.00000000E+00 0.00000000E+00 -.12560309E+04 0.12560309E+04 0.32000000E+00 0.0000E+00 0.9000E+01
       25  2    1    2    0    0 0.10581505E+03 -.27331509E+03 -.27480170E+03 0.50127900E+03 0.29977775E+03 0.0000E+00 0.0000E+00
       23  2    1    2    0    0 -.10581505E+03 0.27331509E+03 -.84083414E+03 0.89514728E+03 0.91589446E+02 0.0000E+00 0.0000E+00
       24  1    3    3    0    0 -.97027785E+01 -.75080763E+02 0.27032361E+02 0.11370677E+03 0.80419002E+02 0.0000E+00 0.9000E+01
      -11  1    4    4    0    0 -.86995937E+02 0.10974035E+03 -.44226848E+03 0.46391017E+03 0.51099893E-03 0.0000E+00 0.9000E+01
       11  1    4    4    0    0 -.18819118E+02 0.16357474E+03 -.39856567E+03 0.43123711E+03 0.51099893E-03 0.0000E+00 0.9000E+01
      -24  1    3    3    0    0 0.11551783E+03 -.19823432E+03 -.30183406E+03 0.38757223E+03 0.80419002E+02 0.0000E+00 0.9000E+01
#aMCatNLO 1  0  0  2  1 0.83902068D+02 0.00000000D+00  -5  7  0 0.00000000D+00 0.00000000D+00 0.00000000D+00 0.00000000D+00 0.00000000D+00
  <mgrwgt>
 0.5690956744D-03    9    2    0
 0.419929460845228D+03 0.000000000000000D+00 0.000000000000000D+00 0.419929460845228D+03
 0.419929460845228D+03 0.000000000000000D+00 0.000000000000000D+00 -.419929460845228D+03
 0.224968011179472D+03 -.970277847400227D+01 -.750807630587086D+02 0.195990115077478D+03
 0.183847284112788D+03 -.869959370208443D+02 0.109740351199443D+03 -.119115851741641D+03
 0.187575177936628D+03 -.188191176435595D+02 0.163574736364107D+03 -.898531792007859D+02
 0.243468448461568D+03 0.115517833138406D+03 -.198234324504841D+03 0.129789158649489D+02
 0.000000000000000D+00 -.000000000000000D+00 -.000000000000000D+00 -.000000000000000D+00
 0.455183943309007D+03 0.000000000000000D+00 0.000000000000000D+00 0.455183943309007D+03
 0.475085609122521D+03 0.000000000000000D+00 0.000000000000000D+00 -.475085609122521D+03
 0.220335144022746D+03 0.674518027029821D+01 -.601891773676292D+02 0.195990115077478D+03
 0.185677777458139D+03 -.733469590230494D+02 0.122097807137265D+03 -.119115851741641D+03
 0.198082755702702D+03 -.457424713723823D+01 0.176471699026827D+03 -.898531792007859D+02
 0.239943756396415D+03 0.133373408400128D+03 -.182068316721924D+03 0.129789158649489D+02
 0.862301188515263D+02 -.621973825101385D+02 -.563120120745392D+02 -.199016658135147D+02
0.154317949100D-04 0.000000000000D+00 0.000000000000D+00 0.190804169393D-05 0.000000000000D+00  7 -1 1 24 -11 11 -24 21 0 0.21599264D-01 0.19323555D+00 0.10832750D+06 0.10832750D+06 0.10832750D+06 0.11188824D+01  1  2  2  2  7  2        1 0.318205909532D-03 0.100000000000D+01
-.795451170248D-06 0.000000000000D+00 -.592621557392D-07 0.190804169393D-05 0.000000000000D+00  7 -1 1 24 -11 11 -24 21 2 0.21599264D-01 0.19323555D+00 0.10832750D+06 0.10832750D+06 0.10832750D+06 0.11188824D+01  1  2  3  2  7  2        1 -.205340318700D-04 0.100000000000D+01
0.977428045324D-06 0.000000000000D+00 0.000000000000D+00 0.190804169393D-05 0.000000000000D+00  7 -1 1 24 -11 11 -24 21 2 0.21599264D-01 0.19323555D+00 0.10832750D+06 0.10832750D+06 0.10832750D+06 0.11188824D+01  1  2 15  2  7  2        1 0.252316413427D-04 0.100000000000D+01
0.158780233369D-04 0.000000000000D+00 0.000000000000D+00 0.190804169393D-05 0.000000000000D+00  7 -1 1 24 -11 11 -24 21 2 0.21599264D-01 0.22584837D+00 0.13806249D+06 0.13806249D+06 0.13806249D+06 0.11104053D+01  1  2 12  2  7  2        1 0.288045022243D-03 0.100000000000D+01
-.149159515204D-04 0.000000000000D+00 0.000000000000D+00 0.190804169393D-05 0.000000000000D+00  7 -1 1 24 -11 11 -24 21 2 0.21599264D-01 0.19323555D+00 0.10832750D+06 0.10832750D+06 0.10832750D+06 0.11188824D+01  1  2  4  2  7  2        1 -.385045160970D-03 0.100000000000D+01
-.397187257883D-04 0.000000000000D+00 -.110429061008D-04 0.190804169393D-05 0.000000000000D+00  7 -1 1 24 -11 11 -24 21 2 0.21599264D-01 0.22936226D+00 0.10832750D+06 0.10832750D+06 0.10832750D+06 0.11188824D+01  1  2  5  2  7  2        1 -.711723858950D-03 0.100000000000D+01
0.411655234436D-04 0.000000000000D+00 0.108826725769D-04 0.190804169393D-05 0.000000000000D+00  7 -1 1 24 -11 11 -24 21 2 0.21599264D-01 0.19323555D+00 0.10832750D+06 0.10832750D+06 0.10832750D+06 0.11188824D+01  1  2  6  2  7  2        1 0.106266003741D-02 0.100000000000D+01
0.373746113220D-06 0.000000000000D+00 0.000000000000D+00 0.190804169393D-05 0.000000000000D+00  7 -1 21 24 -11 11 -24 -1 2 0.21599264D-01 0.22584837D+00 0.13806249D+06 0.13806249D+06 0.13806249D+06 0.11104053D+01  1  2 12  4  7  2        1 0.560228921057D-05 0.100000000000D+01
-.910774177213D-06 0.000000000000D+00 -.280239222075D-06 0.190804169393D-05 0.000000000000D+00  7 -1 21 24 -11 11 -24 -1 2 0.21599264D-01 0.22936226D+00 0.10832750D+06 0.10832750D+06 0.10832750D+06 0.11188824D+01  1  2  5  4  7  2        1 -.133461735681D-04 0.100000000000D+01
  </mgrwgt>
  </event>
  <event>
  8     66 0.29788925E-05 0.22472189E+03 0.75467711E-02 0.97819002E-01
       -1 -1    0    0    0  501 0.00000000E+00 0.00000000E+00 0.84077546E+02 0.84078155E+02 0.32000000E+00 0.0000E+00 0.9000E+01
        1 -1    0    0  501    0 0.00000000E+00 0.00000000E+00 -.15790998E+04 0.15790999E+04 0.32000000E+00 0.0000E+00 0.9000E+01
       25  2    1    2    0    0 -.28383989E+03 0.56987921E+02 -.98605136E+03 0.10699933E+04 0.29795251E+03 0.0000E+00 0.0000E+00
       23  2    1    2    0    0 0.28383989E+03 -.56987921E+02 -.50897092E+03 0.59318470E+03 0.94889341E+02 0.0000E+00 0.0000E+00
       24  1    3    3    0    0 0.10942980E+02 -.43827618E+02 -.25871083E+03 0.27466183E+03 0.80419002E+02 0.0000E+00 0.9000E+01
      -11  1    4    4    0    0 0.64777751E+01 0.13813482E+02 -.11031008E+02 0.18827029E+02 0.51099893E-03 0.0000E+00 0.9000E+01
       11  1    4    4    0    0 0.27736211E+03 -.70801403E+02 -.49793991E+03 0.57435767E+03 0.51099893E-03 0.0000E+00 0.9000E+01
      -24  1    3    3    0    0 -.29478287E+03 0.10081554E+03 -.72734053E+03 0.79533149E+03 0.80419002E+02 0.0000E+00 0.9000E+01
#aMCatNLO 1  0  0  1  2 0.44996078D+02 0.00000000D+00  -5  7  0 0.00000000D+00 0.00000000D+00 0.00000000D+00 0.00000000D+00 0.00000000D+00
  <mgrwgt>
 0.1033288539D-02    6    2    0
 0.364372571998457D+03 0.000000000000000D+00 0.000000000000000D+00 0.364372571998457D+03
 0.364372571998457D+03 0.000000000000000D+00 0.000000000000000D+00 -.364372571998457D+03
 0.961008868909867D+02 0.109429796624020D+02 -.438276184229666D+02 -.269732379654869D+02
 0.203378326272522D+02 0.647777511997472D+01 0.138134822437542D+02 0.134481810580705D+02
 0.289302496364233D+03 0.277362111328275D+03 -.708014034266806D+02 0.418730805519585D+02
 0.323003928114443D+03 -.294782866110652D+03 0.100815539605893D+03 -.283480236445422D+02
 0.000000000000000D+00 0.000000000000000D+00 -.000000000000000D+00 -.000000000000000D+00
 0.387248460523684D+03 0.000000000000000D+00 0.000000000000000D+00 0.387248460523684D+03
 0.387885075576127D+03 0.000000000000000D+00 0.000000000000000D+00 -.387885075576127D+03
 0.949142877469730D+02 0.526276917400296D+01 -.422640953815769D+02 -.269732379654869D+02
 0.202172894313396D+02 0.527178910283166D+01 0.141454394712633D+02 0.134481810580705D+02
 0.272181750748235D+03 0.260665277081656D+03 -.662054672168921D+02 0.418730805519585D+02
 0.342819627036458D+03 -.314582434121725D+03 0.106265527922013D+03 -.283480236445422D+02
 0.450005811368061D+02 0.433825987632349D+02 -.119414047948070D+02 -.636615052443467D+00
0.255239426036D-04 0.000000000000D+00 0.000000000000D+00 0.208691592999D-07 0.000000000000D+00  7 -1 1 24 -11 11 -24 21 0 0.12935056D-01 0.24293848D+00 0.12798810D+06 0.12798810D+06 0.12798810D+06 0.11130322D+01  1  2  2  1  7  1       -1 0.716947433422D-03 0.100000000000D+01
-.141741750302D-05 0.000000000000D+00 -.980186602063D-07 0.208691592999D-07 0.000000000000D+00  7 -1 1 24 -11 11 -24 21 2 0.12935056D-01 0.24293848D+00 0.12798810D+06 0.12798810D+06 0.12798810D+06 0.11130322D+01  1  2  3  1  7  1       -1 -.493233779725D-04 0.100000000000D+01
0.164892188592D-05 0.000000000000D+00 0.000000000000D+00 0.208691592999D-07 0.000000000000D+00  7 -1 1 24 -11 11 -24 21 2 0.12935056D-01 0.24293848D+00 0.12798810D+06 0.12798810D+06 0.12798810D+06 0.11130322D+01  1  2 15  1  7  1       -1 0.573792811597D-04 0.100000000000D+01
0.348535351170D-04 0.000000000000D+00 0.000000000000D+00 0.208691592999D-07 0.000000000000D+00  7 -1 1 24 -11 11 -24 21 2 0.14138745D-01 0.24293848D+00 0.14503909D+06 0.14503909D+06 0.14503909D+06 0.11087064D+01  1  2 12  1  7  1       -1 0.104363530189D-02 0.100000000000D+01
-.268455233382D-04 0.000000000000D+00 0.000000000000D+00 0.208691592999D-07 0.000000000000D+00  7 -1 1 24 -11 11 -24 21 2 0.12935056D-01 0.24293848D+00 0.12798810D+06 0.12798810D+06 0.12798810D+06 0.11130322D+01  1  2  4  1  7  1       -1 -.934172106424D-03 0.100000000000D+01
0.511371401178D-06 0.000000000000D+00 0.000000000000D+00 0.208691592999D-07 0.000000000000D+00  7 21 1 24 -11 11 -24 1 2 0.14138745D-01 0.24293848D+00 0.14503909D+06 0.14503909D+06 0.14503909D+06 0.11087064D+01  1  2 12  3  7  1       -1 0.198822006840D-03 0.100000000000D+01
  </mgrwgt>
  </event>
  <event>
  9     66 0.29788925E-05 0.14378366E+03 0.75467711E-02 0.10632364E+00
       -1 -1    0    0    0  502 0.00000000E+00 0.00000000E+00 0.21585309E+03 0.21585333E+03 0.32000000E+00 0.0000E+00 0.9000E+01
        1 -1    0    0  501    0 0.00000000E+00 0.00000000E+00 -.94558680E+03 0.94558685E+03 0.32000000E+00 0.0000E+00 0.9000E+01
       25  2    1    2    0    0 -.27347205E+02 0.15735458E+02 -.77242739E+03 0.82919796E+03 0.29988281E+03 0.0000E+00 0.0000E+00
       23  2    1    2    0    0 0.11284927E+03 0.10548998E+02 0.13876925E+03 0.20096941E+03 0.91025033E+02 0.0000E+00 0.0000E+00
       24  1    3    3    0    0 0.12111370E+02 -.62698683E+01 -.71691623E+03 0.72154147E+03 0.80419002E+02 0.0000E+00 0.9000E+01
      -13  1    4    4    0    0 0.57538675E+02 -.33100854E+02 0.33655276E+02 0.74424824E+02 0.10565837E+00 0.0000E+00 0.9000E+01
       13  1    4    4    0    0 0.55310599E+02 0.43649852E+02 0.10511398E+03 0.12654458E+03 0.10565837E+00 0.0000E+00 0.9000E+01
      -24  1    3    3    0    0 -.39458574E+02 0.22005326E+02 -.55511163E+02 0.10765648E+03 0.80419002E+02 0.0000E+00 0.9000E+01
       21  1    1    2  501  502 -.85502069E+02 -.26284456E+02 -.96075565E+02 0.13127282E+03 0.75000000E+00 0.0000E+00 0.9000E+01
#aMCatNLO 2  0  0  1  2 0.89450972D+02 0.00000000D+00  -5  7  0 0.00000000D+00 0.00000000D+00 0.00000000D+00 0.00000000D+00 0.00000000D+00
  <mgrwgt>
 0.2679097314D-03    1    2    0
 0.403646095568036D+03 0.000000000000000D+00 0.000000000000000D+00 0.403646095568036D+03
 0.403646095568036D+03 0.000000000000000D+00 0.000000000000000D+00 -.403646095568036D+03
 0.356943775744974D+03 -.255199610486759D+02 -.178382322132954D+02 -.346369993140697D+03
 0.116371985144199D+03 0.450252159224377D+02 -.369477592364374D+02 0.100747366938028D+03
 0.236707449929080D+03 0.300109255769782D+02 0.358725051831765D+02 0.232040782126384D+03
 0.972689803178203D+02 -.495161804507400D+02 0.189134862665563D+02 0.135818440762848D+02
 0.000000000000000D+00 -.000000000000000D+00 -.000000000000000D+00 -.000000000000000D+00
 0.442164964942382D+03 0.000000000000000D+00 0.000000000000000D+00 0.442164964942382D+03
 0.461607378969256D+03 0.000000000000000D+00 0.000000000000000D+00 -.461607378969256D+03
 0.355844607422926D+03 0.121113698877192D+02 -.626986832100393D+01 -.346369993140697D+03
 0.120649926313386D+03 0.575386774207802D+02 -.331009573146642D+02 0.100747366938028D+03
 0.242502588137480D+03 0.553105964980704D+02 0.436499553101758D+02 0.232040782126384D+03
 0.932357008696550D+02 -.394585744740028D+02 0.220053260428543D+02 0.135818440762848D+02
 0.915395211681899D+02 -.855020693325671D+02 -.262844557173620D+02 -.194424140268745D+02
0.114736312673D-04 0.000000000000D+00 0.000000000000D+00 0.434386252233D-05 0.388662090926D-08  7 -1 1 24 -13 13 -24 21 2 0.33208077D-01 0.14547442D+00 0.40019931D+05 0.40019931D+05 0.40019931D+05 0.11558989D+01  1  2  1  1  7  1       -1 0.267909731416D-03 0.100000000000D+01
  </mgrwgt>
  </event>
  <event>
  8     66 0.29788925E-05 0.43323091E+03 0.75467711E-02 0.92172753E-01
       -1 -1    0    0    0  501 0.00000000E+00 0.00000000E+00 0.47212944E+03 0.47212955E+03 0.32000000E+00 0.0000E+00 0.9000E+01
        1 -1    0    0  501    0 0.00000000E+00 0.00000000E+00 -.81122795E+03 0.81122801E+03 0.32000000E+00 0.0000E+00 0.9000E+01
       25  2    1    2    0    0 0.20983861E+03 -.51985447E+03 -.30327822E+02 0.63698790E+03 0.30092008E+03 0.0000E+00 0.0000E+00
       23  2    1    2    0    0 -.20983861E+03 0.51985447E+03 -.30877069E+03 0.64636966E+03 0.90407319E+02 0.0000E+00 0.0000E+00
       24  1    3    3    0    0 0.25102689E+03 -.43874917E+03 -.19575255E-02 0.51184231E+03 0.80419002E+02 0.0000E+00 0.9000E+01
      -11  1    4    4    0    0 -.19041424E+03 0.47344263E+03 -.30801235E+03 0.59605127E+03 0.51099893E-03 0.0000E+00 0.9000E+01
       11  1    4    4    0    0 -.19424369E+02 0.46411838E+02 -.75833533E+00 0.50318385E+02 0.51099893E-03 0.0000E+00 0.9000E+01
      -24  1    3    3    0    0 -.41188281E+02 -.81105298E+02 -.30325865E+02 0.12514559E+03 0.80419002E+02 0.0000E+00 0.9000E+01
#aMCatNLO 1  0  0  1  2 0.54048147D+02 0.00000000D+00  -5  7  0 0.00000000D+00 0.00000000D+00 0.00000000D+00 0.00000000D+00 0.00000000D+00
  <mgrwgt>
 0.8296867310D-03    9    2    0
 0.618873738912654D+03 0.000000000000000D+00 0.000000000000000D+00 0.618873738912654D+03
 0.618873738912654D+03 0.000000000000000D+00 0.000000000000000D+00 -.618873738912654D+03
 0.530702786791180D+03 0.251026890507194D+03 -.438749173223855D+03 0.140224445769014D+03
 0.533630959897386D+03 -.190414240432323D+03 0.473442632949191D+03 -.156065664730344D+03
 0.519648238868768D+02 -.194243692357908D+02 0.464118380366179D+02 0.129991573360944D+02
 0.121448907249866D+03 -.411882808390805D+02 -.811052977619544D+02 0.284206162523508D+01
 0.000000000000000D+00 0.000000000000000D+00 0.000000000000000D+00 0.000000000000000D+00
 0.715583630090944D+03 0.000000000000000D+00 0.000000000000000D+00 0.715583630090944D+03
 0.627061270101823D+03 0.000000000000000D+00 0.000000000000000D+00 -.627061270101823D+03
 0.550180124900126D+03 0.250630226570297D+03 -.462333806052339D+03 0.140224445769014D+03
 0.513608618839116D+03 -.190798557891396D+03 0.450592090415116D+03 -.156065664730344D+03
 0.500022485532934D+02 -.194617892559896D+02 0.441869384308558D+02 0.129991573360944D+02
 0.125135971263080D+03 -.412787729059199D+02 -.864857268147963D+02 0.284206162523508D+01
 0.103717936637152D+03 0.908893483008566D+00 0.540405040211634D+02 0.885223599891207D+02
0.116666997169D-03 0.000000000000D+00 0.000000000000D+00 0.226593345470D-05 0.000000000000D+00  7 -1 1 24 -11 11 -24 21 0 0.72635311D-01 0.12480431D+00 0.35633143D+06 0.35633143D+06 0.35633143D+06 0.10790657D+01  1  2  2  1  7  1       -1 0.594065528668D-03 0.100000000000D+01
-.647123380590D-05 0.000000000000D+00 -.448031988256D-06 0.226593345470D-05 0.000000000000D+00  7 -1 1 24 -11 11 -24 21 2 0.72635311D-01 0.12480431D+00 0.35633143D+06 0.35633143D+06 0.35633143D+06 0.10790657D+01  1  2  3  1  7  1       -1 -.383680052289D-04 0.100000000000D+01
0.741631690937D-05 0.000000000000D+00 0.000000000000D+00 0.226593345470D-05 0.000000000000D+00  7 -1 1 24 -11 11 -24 21 2 0.72635311D-01 0.12480431D+00 0.35633143D+06 0.35633143D+06 0.35633143D+06 0.10790657D+01  1  2 15  1  7  1       -1 0.439714117111D-04 0.100000000000D+01
0.642086165668D-03 0.000000000000D+00 0.000000000000D+00 0.226593345470D-05 0.000000000000D+00  7 -1 1 24 -11 11 -24 21 2 0.84418307D-01 0.12480431D+00 0.38985585D+06 0.38985585D+06 0.38985585D+06 0.10762328D+01  1  2 12  1  7  1       -1 0.277647396962D-02 0.100000000000D+01
-.650178091165D-03 0.000000000000D+00 0.000000000000D+00 0.226593345470D-05 0.000000000000D+00  7 -1 1 24 -11 11 -24 21 2 0.72635311D-01 0.12480431D+00 0.35633143D+06 0.35633143D+06 0.35633143D+06 0.10790657D+01  1  2  4  1  7  1       -1 -.385491193021D-02 0.100000000000D+01
-.925365073133D-03 0.000000000000D+00 -.102545719328D-03 0.226593345470D-05 0.000000000000D+00  7 -1 1 24 -11 11 -24 21 2 0.84610933D-01 0.12480431D+00 0.35633143D+06 0.35633143D+06 0.35633143D+06 0.10790657D+01  1  2  5  1  7  1       -1 -.401887262089D-02 0.100000000000D+01
0.931330848826D-03 0.000000000000D+00 0.101363027861D-03 0.226593345470D-05 0.000000000000D+00  7 -1 1 24 -11 11 -24 21 2 0.72635311D-01 0.12480431D+00 0.35633143D+06 0.35633143D+06 0.35633143D+06 0.10790657D+01  1  2  6  1  7  1       -1 0.552186923691D-02 0.100000000000D+01
0.146729242944D-04 0.000000000000D+00 0.000000000000D+00 0.226593345470D-05 0.000000000000D+00  7 21 1 24 -11 11 -24 1 2 0.84418307D-01 0.12480431D+00 0.38985585D+06 0.38985585D+06 0.38985585D+06 0.10762328D+01  1  2 12  3  7  1       -1 0.466117875879D-03 0.100000000000D+01
-.206709841115D-04 0.000000000000D+00 -.237203815236D-05 0.226593345470D-05 0.000000000000D+00  7 21 1 24 -11 11 -24 1 2 0.84610933D-01 0.12480431D+00 0.35633143D+06 0.35633143D+06 0.35633143D+06 0.10790657D+01  1  2  5  3  7  1       -1 -.660658735417D-03 0.100000000000D+01
  </mgrwgt>
  </event>
  <event>
  8     66 0.29788925E-05 0.84241722E+02 0.75467711E-02 0.10520792E+00
       -1 -1    0    0    0  501 0.00000000E+00 0.00000000E+00 0.18181189E+03 0.18181218E+03 0.32000000E+00 0.0000E+00 0.9000E+01
        1 -1    0    0  501    0 0.00000000E+00 0.00000000E+00 -.28201155E+03 0.28201174E+03 0.32000000E+00 0.0000E+00 0.9000E+01
       25  2    1    2    0    0 0.58772332E+02 0.42765602E+01 -.14049473E+03 0.33659869E+03 0.30014569E+03 0.0000E+00 0.0000E+00
       23  2    1    2    0    0 -.58772332E+02 -.42765602E+01 0.40295070E+02 0.12722522E+03 0.10530948E+03 0.0000E+00 0.0000E+00
       24  1    3    3    0    0 -.87247045E+02 0.34801863E+02 -.12622469E+02 0.12429706E+03 0.80419002E+02 0.0000E+00 0.9000E+01
      -11  1    4    4    0    0 -.48297228E+02 0.38115788E+02 0.53575642E+02 0.81582994E+02 0.51099893E-03 0.0000E+00 0.9000E+01
       11  1    4    4    0    0 -.10475104E+02 -.42392348E+02 -.13280572E+02 0.45642224E+02 0.51099893E-03 0.0000E+00 0.9000E+01
      -24  1    3    3    0    0 0.14601938E+03 -.30525303E+02 -.12787226E+03 0.21230163E+03 0.80419002E+02 0.0000E+00 0.9000E+01
#aMCatNLO 1  0  0  1  2 0.34462757D+02 0.00000000D+00  -5  7  0 0.00000000D+00 0.00000000D+00 0.00000000D+00 0.00000000D+00 0.00000000D+00
  <mgrwgt>
 0.4509615676D-03    9    2    0
 0.226435779839175D+03 0.000000000000000D+00 0.000000000000000D+00 0.226435779839175D+03
 0.226435779839175D+03 0.000000000000000D+00 0.000000000000000D+00 -.226435779839175D+03
 0.124510309174528D+03 -.872470349810184D+02 0.348018636288254D+02 0.145734797268073D+02
 0.954098490629670D+02 -.482972419413699D+02 0.381157672942688D+02 0.729219034491288D+02
 0.438076487471520D+02 -.104751161988392D+02 -.423923293214087D+02 -.350320482985046D+01
 0.189143752693703D+03 0.146019393121228D+03 -.305253016016855D+02 -.839921783460857D+02
 0.000000000000000D+00 -.000000000000000D+00 0.000000000000000D+00 0.000000000000000D+00
 0.255116896116083D+03 0.000000000000000D+00 0.000000000000000D+00 0.255116896116083D+03
 0.237684775364069D+03 0.000000000000000D+00 0.000000000000000D+00 -.237684775364069D+03
 0.121272178375386D+03 -.858704896030308D+02 0.255655627266258D+02 0.145734797268073D+02
 0.922750728882909D+02 -.472460815661723D+02 0.310627244545278D+02 0.729219034491288D+02
 0.470075475666698D+02 -.996649070650655D+01 -.458050886599944D+02 -.350320482985046D+01
 0.193626146620494D+03 0.148163159103036D+03 -.449094751919728D+02 -.839921783460857D+02
 0.386207260293112D+02 -.508009722732623D+01 0.340862766708136D+02 0.174321207520134D+02
0.258824916817D-05 0.000000000000D+00 0.000000000000D+00 0.851713866517D-08 0.000000000000D+00  7 -1 1 24 -11 11 -24 21 0 0.27971096D-01 0.43386429D-01 0.39664600D+05 0.39664600D+05 0.39664600D+05 0.11562477D+01  1  2  2  1  7  1       -1 0.328970581765D-03 0.100000000000D+01
-.140911337997D-06 0.000000000000D+00 -.993955830743D-08 0.851713866517D-08 0.000000000000D+00  7 -1 1 24 -11 11 -24 21 2 0.27971096D-01 0.43386429D-01 0.39664600D+05 0.39664600D+05 0.39664600D+05 0.11562477D+01  1  2  3  1  7  1       -1 -.239441084033D-04 0.100000000000D+01
0.162403602649D-06 0.000000000000D+00 0.000000000000D+00 0.851713866517D-08 0.000000000000D+00  7 -1 1 24 -11 11 -24 21 2 0.27971096D-01 0.43386429D-01 0.39664600D+05 0.39664600D+05 0.39664600D+05 0.11562477D+01  1  2 15  1  7  1       -1 0.275961432358D-04 0.100000000000D+01
0.437886739066D-05 0.000000000000D+00 0.000000000000D+00 0.851713866517D-08 0.000000000000D+00  7 -1 1 24 -11 11 -24 21 2 0.32143853D-01 0.43386429D-01 0.46815111D+05 0.46815111D+05 0.46815111D+05 0.11498181D+01  1  2 12  1  7  1       -1 0.585384065979D-03 0.100000000000D+01
-.429232742137D-05 0.000000000000D+00 0.000000000000D+00 0.851713866517D-08 0.000000000000D+00  7 -1 1 24 -11 11 -24 21 2 0.27971096D-01 0.43386429D-01 0.39664600D+05 0.39664600D+05 0.39664600D+05 0.11562477D+01  1  2  4  1  7  1       -1 -.729366100279D-03 0.100000000000D+01
-.987917592306D-05 0.000000000000D+00 -.224768281134D-05 0.851713866517D-08 0.000000000000D+00  7 -1 1 24 -11 11 -24 21 2 0.32922642D-01 0.43386429D-01 0.39664600D+05 0.39664600D+05 0.39664600D+05 0.11562477D+01  1  2  5  1  7  1       -1 -.128280002075D-02 0.100000000000D+01
0.101400658336D-04 0.000000000000D+00 0.221815446493D-05 0.851713866517D-08 0.000000000000D+00  7 -1 1 24 -11 11 -24 21 2 0.27971096D-01 0.43386429D-01 0.39664600D+05 0.39664600D+05 0.39664600D+05 0.11562477D+01  1  2  6  1  7  1       -1 0.172303264583D-02 0.100000000000D+01
0.939018051193D-07 0.000000000000D+00 0.000000000000D+00 0.851713866517D-08 0.000000000000D+00  7 21 1 24 -11 11 -24 1 2 0.32143853D-01 0.43386429D-01 0.46815111D+05 0.46815111D+05 0.46815111D+05 0.11498181D+01  1  2 12  3  7  1       -1 0.136870525859D-03 0.100000000000D+01
-.222806563458D-06 0.000000000000D+00 -.548093564786D-07 0.851713866517D-08 0.000000000000D+00  7 21 1 24 -11 11 -24 1 2 0.32922642D-01 0.43386429D-01 0.39664600D+05 0.39664600D+05 0.39664600D+05 0.11562477D+01  1  2  5  3  7  1       -1 -.314782165628D-03 0.100000000000D+01
  </mgrwgt>
  </event>
  <event>
  8     66 0.29788925E-05 0.39696149E+03 0.75467711E-02 0.82226669E-01
       -1 -1    0    0    0  501 0.00000000E+00 0.00000000E+00 0.47410874E+03 0.47410884E+03 0.32000000E+00 0.0000E+00 0.9000E+01
        1 -1    0    0  501    0 0.00000000E+00 0.00000000E+00 -.39177276E+03 0.39177289E+03 0.32000000E+00 0.0000E+00 0.9000E+01
       25  2    1    2    0    0 -.27588493E+03 -.23807174E+03 -.32366807E+02 0.47273805E+03 0.29940442E+03 0.0000E+00 0.0000E+00
       23  2    1    2    0    0 0.27588493E+03 0.23807174E+03 0.11470278E+03 0.39314369E+03 0.92814789E+02 0.0000E+00 0.0000E+00
       24  1    3    3    0    0 -.17168357E+03 -.64932165E+02 0.93841750E+02 0.22128019E+03 0.80419002E+02 0.0000E+00 0.9000E+01
      -11  1    4    4    0    0 0.34682980E+02 -.32559743E+01 0.10143139E+02 0.36282141E+02 0.51099893E-03 0.0000E+00 0.9000E+01
       11  1    4    4    0    0 0.24120194E+03 0.24132772E+03 0.10455964E+03 0.35686155E+03 0.51099893E-03 0.0000E+00 0.9000E+01
      -24  1    3    3    0    0 -.10420136E+03 -.17313958E+03 -.12620856E+03 0.25145785E+03 0.80419002E+02 0.0000E+00 0.9000E+01
#aMCatNLO 1  0  0  2  1 0.16785999D+04 0.00000000D+00  -5  7  0 0.00000000D+00 0.00000000D+00 0.00000000D+00 0.00000000D+00 0.00000000D+00
  <mgrwgt>
 0.8121701506D-03    3    2    0
 0.430979108501177D+03 0.000000000000000D+00 0.000000000000000D+00 0.430979108501177D+03
 0.430979108501177D+03 0.000000000000000D+00 0.000000000000000D+00 -.430979108501177D+03
 0.213323480000273D+03 -.171683570024122D+03 -.649321645132675D+02 0.731317780479216D+02
 0.354783993848571D+02 0.346829801752708D+02 -.325597434117908D+01 0.672356603022431D+01
 0.348498187673166D+03 0.241201944899658D+03 0.241327717330777D+03 0.709474554583866D+02
 0.264658149944059D+03 -.104201355050806D+03 -.173139578476331D+03 -.150802799536533D+03
 0.000000000000000D+00 0.000000000000000D+00 -.000000000000000D+00 0.000000000000000D+00
 0.220501582863866D+04 0.000000000000000D+00 0.000000000000000D+00 0.220501582863866D+04
 0.150187619712180D+04 0.000000000000000D+00 0.000000000000000D+00 -.150187619712180D+04
 0.570562865321354D+03 -.463464894049096D+03 0.314526314245650D+03 0.731317780479216D+02
 0.314700452657009D+02 0.976316120133826D+01 0.291519826464542D+02 0.672356603022431D+01
 0.849154495293408D+03 -.204593147263440D+03 0.821079447759973D+03 0.709474554583866D+02
 0.435786239409996D+03 -.364923579071350D+03 0.165926874238132D+03 -.150802799536533D+03
 0.181991838047000D+04 0.102321845918255D+04 -.133068461889021D+04 0.703139631516857D+03
0.540604540901D-04 0.000000000000D+00 0.000000000000D+00 0.645987569870D-06 0.000000000000D+00  7 -1 1 24 -11 11 -24 21 0 0.72939824D-01 0.60272751D-01 0.15757843D+06 0.15757843D+06 0.15757843D+06 0.11058667D+01  1  2  2  2  7  2        1 0.803582995913D-03 0.100000000000D+01
-.297867276290D-05 0.000000000000D+00 -.207606378151D-06 0.645987569870D-06 0.000000000000D+00  7 -1 1 24 -11 11 -24 21 2 0.72939824D-01 0.60272751D-01 0.15757843D+06 0.15757843D+06 0.15757843D+06 0.11058667D+01  1  2  3  2  7  2        1 -.541476193949D-04 0.100000000000D+01
0.345105408253D-05 0.000000000000D+00 0.000000000000D+00 0.645987569870D-06 0.000000000000D+00  7 -1 1 24 -11 11 -24 21 2 0.72939824D-01 0.60272751D-01 0.15757843D+06 0.15757843D+06 0.15757843D+06 0.11058667D+01  1  2 15  2  7  2        1 0.627347741248D-04 0.100000000000D+01
  </mgrwgt>
  </event>
  <event>
  8     66 0.29788925E-05 0.31631121E+03 0.75467711E-02 0.95075237E-01
       -1 -1    0    0    0  501 0.00000000E+00 0.00000000E+00 0.33196286E+03 0.33196301E+03 0.32000000E+00 0.0000E+00 0.9000E+01
        1 -1    0    0  501    0 0.00000000E+00 0.00000000E+00 -.59791466E+03 0.59791475E+03 0.32000000E+00 0.0000E+00 0.9000E+01
       25  2    1    2    0    0 -.34660412E+03 0.67088499E+01 -.33031481E+03 0.56498995E+03 0.29987720E+03 0.0000E+00 0.0000E+00
       23  2    1    2    0    0 0.34660412E+03 -.67088499E+01 0.64363013E+02 0.36488781E+03 0.93920654E+02 0.0000E+00 0.0000E+00
       24  1    3    3    0    0 -.14761038E+03 -.11973912E+03 -.11836320E+03 0.23791457E+03 0.80419002E+02 0.0000E+00 0.9000E+01
      -11  1    4    4    0    0 0.66253455E+02 -.14308411E+02 -.22290923E+02 0.71352198E+02 0.51099893E-03 0.0000E+00 0.9000E+01
       11  1    4    4    0    0 0.28035067E+03 0.75995611E+01 0.86653936E+02 0.29353561E+03 0.51099893E-03 0.0000E+00 0.9000E+01
      -24  1    3    3    0    0 -.19899375E+03 0.12644797E+03 -.21195161E+03 0.32707538E+03 0.80419002E+02 0.0000E+00 0.9000E+01
#aMCatNLO 1  0  0  2  1 0.14783485D+03 0.00000000D+00  -5  7  0 0.00000000D+00 0.00000000D+00 0.00000000D+00 0.00000000D+00 0.00000000D+00
  <mgrwgt>
 0.7744045141D-03    9    2    0
 0.445517195100571D+03 0.000000000000000D+00 0.000000000000000D+00 0.445517195100571D+03
 0.445517195100571D+03 0.000000000000000D+00 0.000000000000000D+00 -.445517195100571D+03
 0.212957617228715D+03 -.147610375237778D+03 -.119739118167882D+03 -.525114414570903D+02
 0.678094042778670D+02 0.662534553606133D+02 -.143084109806648D+02 -.196579157257888D+01
 0.332195940169873D+03 0.280350668675502D+03 0.759956112933026D+01 0.178044634598144D+03
 0.278071428524686D+03 -.198993748798337D+03 0.126447968019217D+03 -.123567401568475D+03
 0.000000000000000D+00 0.000000000000000D+00 -.000000000000000D+00 -.000000000000000D+00
 0.482696561868760D+03 0.000000000000000D+00 0.000000000000000D+00 0.482696561868760D+03
 0.627353910023467D+03 0.000000000000000D+00 0.000000000000000D+00 -.627353910023467D+03
 0.224706821439361D+03 -.177266179856610D+03 -.992229290141804D+02 -.525114414570903D+02
 0.583458137038458D+02 0.577052751440591D+02 -.839469241875493D+01 -.196579157257888D+01
 0.299202118120882D+03 0.237567623495126D+03 0.371973096569351D+02 0.178044634598144D+03
 0.320960297343450D+03 -.239583676270830D+03 0.154528495270597D+03 -.123567401568475D+03
 0.206835421284687D+03 0.121576957488255D+03 -.841081834945966D+02 -.144657348154708D+03
0.404657426743D-04 0.000000000000D+00 0.000000000000D+00 0.970954104986D-06 0.000000000000D+00  7 -1 1 24 -11 11 -24 21 0 0.51071227D-01 0.91986889D-01 0.16149327D+06 0.16149327D+06 0.16149327D+06 0.11050305D+01  1  2  2  2  7  2        1 0.655264988103D-03 0.100000000000D+01
-.221902737204D-05 0.000000000000D+00 -.155399106744D-06 0.970954104986D-06 0.000000000000D+00  7 -1 1 24 -11 11 -24 21 2 0.51071227D-01 0.91986889D-01 0.16149327D+06 0.16149327D+06 0.16149327D+06 0.11050305D+01  1  2  3  2  7  2        1 -.438773761265D-04 0.100000000000D+01
0.258374502218D-05 0.000000000000D+00 0.000000000000D+00 0.970954104986D-06 0.000000000000D+00  7 -1 1 24 -11 11 -24 21 2 0.51071227D-01 0.91986889D-01 0.16149327D+06 0.16149327D+06 0.16149327D+06 0.11050305D+01  1  2 15  2  7  2        1 0.510890282750D-04 0.100000000000D+01
0.401383117946D-04 0.000000000000D+00 0.000000000000D+00 0.970954104986D-06 0.000000000000D+00  7 -1 1 24 -11 11 -24 21 2 0.51071227D-01 0.13215428D+00 0.23103172D+06 0.23103172D+06 0.23103172D+06 0.10930465D+01  1  2 12  2  7  2        1 0.441237898153D-03 0.100000000000D+01
-.463571168554D-04 0.000000000000D+00 0.000000000000D+00 0.970954104986D-06 0.000000000000D+00  7 -1 1 24 -11 11 -24 21 2 0.51071227D-01 0.91986889D-01 0.16149327D+06 0.16149327D+06 0.16149327D+06 0.11050305D+01  1  2  4  2  7  2        1 -.916630717599D-03 0.100000000000D+01
-.601851177448D-04 0.000000000000D+00 -.168537856544D-04 0.970954104986D-06 0.000000000000D+00  7 -1 1 24 -11 11 -24 21 2 0.51071227D-01 0.13594610D+00 0.16149327D+06 0.16149327D+06 0.16149327D+06 0.11050305D+01  1  2  5  2  7  2        1 -.653165163062D-03 0.100000000000D+01
0.631017200101D-04 0.000000000000D+00 0.156449914344D-04 0.970954104986D-06 0.000000000000D+00  7 -1 1 24 -11 11 -24 21 2 0.51071227D-01 0.91986889D-01 0.16149327D+06 0.16149327D+06 0.16149327D+06 0.11050305D+01  1  2  6  2  7  2        1 0.124772589018D-02 0.100000000000D+01
0.177781624674D-05 0.000000000000D+00 0.000000000000D+00 0.970954104986D-06 0.000000000000D+00  7 -1 21 24 -11 11 -24 -1 2 0.51071227D-01 0.13215428D+00 0.23103172D+06 0.23103172D+06 0.23103172D+06 0.10930465D+01  1  2 12  4  7  2        1 0.315511414179D-04 0.100000000000D+01
-.225851364439D-05 0.000000000000D+00 -.788405675489D-06 0.970954104986D-06 0.000000000000D+00  7 -1 21 24 -11 11 -24 -1 2 0.51071227D-01 0.13594610D+00 0.16149327D+06 0.16149327D+06 0.16149327D+06 0.11050305D+01  1  2  5  4  7  2        1 -.387911752499D-04 0.100000000000D+01
  </mgrwgt>
  </event>
  <event>
  8     66 0.29788925E-05 0.22080689E+03 0.75467711E-02 0.96237474E-01
       -1 -1    0    0    0  501 0.00000000E+00 0.00000000E+00 0.42937228E+03 0.42937240E+03 0.32000000E+00 0.0000E+00 0.9000E+01
        1 -1    0    0  501    0 0.00000000E+00 0.00000000E+00 -.62698364E+03 0.62698372E+03 0.32000000E+00 0.0000E+00 0.9000E+01
       25  2    1    2    0    0 -.87248139E+02 -.26431275E+03 -.49334785E+03 0.64055596E+03 0.29907585E+03 0.0000E+00 0.0000E+00
       23  2    1    2    0    0 0.87248139E+02 0.26431275E+03 0.29573649E+03 0.41580017E+03 0.89197732E+02 0.0000E+00 0.0000E+00
       24  1    3    3    0    0 -.16418449E+03 -.16055064E+03 -.37832862E+03 0.44981420E+03 0.80419002E+02 0.0000E+00 0.9000E+01
      -11  1    4    4    0    0 0.18456643E+02 0.55645286E+02 0.12320052E+03 0.13643832E+03 0.51099893E-03 0.0000E+00 0.9000E+01
       11  1    4    4    0    0 0.68791496E+02 0.20866747E+03 0.17253597E+03 0.27936185E+03 0.51099893E-03 0.0000E+00 0.9000E+01
      -24  1    3    3    0    0 0.76936350E+02 -.10376212E+03 -.11501923E+03 0.19074176E+03 0.80419002E+02 0.0000E+00 0.9000E+01
#aMCatNLO 1  0  0  2  1 0.17787885D+03 0.00000000D+00  -5  7  0 0.00000000D+00 0.00000000D+00 0.00000000D+00 0.00000000D+00 0.00000000D+00
  <mgrwgt>
 0.5233709306D-03    9    2    0
 0.518854030100011D+03 0.000000000000000D+00 0.000000000000000D+00 0.518854030100011D+03
 0.518854030100011D+03 0.000000000000000D+00 0.000000000000000D+00 -.518854030100011D+03
 0.385852215748018D+03 -.164184489811758D+03 -.160550637940544D+03 -.299468967349577D+03
 0.162351319498441D+03 0.184566434517608D+02 0.556452856479921D+02 0.151396517266854D+03
 0.317238233734204D+03 0.687914958688957D+02 0.208667469076674D+03 0.228835561895550D+03
 0.172266291219360D+03 0.769363504911017D+02 -.103762116784122D+03 -.807631118128276D+02
 0.000000000000000D+00 -.000000000000000D+00 -.000000000000000D+00 -.000000000000000D+00
 0.564297400719923D+03 0.000000000000000D+00 0.000000000000000D+00 0.564297400719923D+03
 0.735268080131839D+03 0.000000000000000D+00 0.000000000000000D+00 -.735268080131839D+03
 0.355409150364573D+03 -.105207077342366D+03 -.138196442357077D+03 -.299468967349577D+03
 0.171058280359334D+03 0.449839068314636D+02 0.656999084104228D+02 0.151396517266854D+03
 0.345568982770412D+03 0.121526814856969D+03 0.228655725350679D+03 0.228835561895550D+03
 0.180806834624832D+03 0.105028114512171D+03 -.931145016901657D+02 -.807631118128276D+02
 0.246722232732610D+03 -.166331758858238D+03 -.630446897138585D+02 -.170970679411916D+03
0.665292075261D-04 0.000000000000D+00 0.000000000000D+00 0.559716908124D-06 0.000000000000D+00  7 -1 1 24 -11 11 -24 21 0 0.66057290D-01 0.96459037D-01 0.11350592D+06 0.11350592D+06 0.11350592D+06 0.11172349D+01  1  2  2  2  7  2        1 0.629384322105D-03 0.100000000000D+01
-.285811000697D-05 0.000000000000D+00 -.255489674443D-06 0.559716908124D-06 0.000000000000D+00  7 -1 1 24 -11 11 -24 21 2 0.66057290D-01 0.96459037D-01 0.11350592D+06 0.11350592D+06 0.11350592D+06 0.11172349D+01  1  2  3  2  7  2        1 -.337498234657D-04 0.100000000000D+01
0.405272048632D-05 0.000000000000D+00 0.000000000000D+00 0.559716908124D-06 0.000000000000D+00  7 -1 1 24 -11 11 -24 21 2 0.66057290D-01 0.96459037D-01 0.11350592D+06 0.11350592D+06 0.11350592D+06 0.11172349D+01  1  2 15  2  7  2        1 0.478563108612D-04 0.100000000000D+01
0.410197625195D-04 0.000000000000D+00 0.000000000000D+00 0.559716908124D-06 0.000000000000D+00  7 -1 1 24 -11 11 -24 21 2 0.66057290D-01 0.13954405D+00 0.18905725D+06 0.18905725D+06 0.18905725D+06 0.10997071D+01  1  2 12  2  7  2        1 0.259704482219D-03 0.100000000000D+01
-.730475211788D-04 0.000000000000D+00 0.000000000000D+00 0.559716908124D-06 0.000000000000D+00  7 -1 1 24 -11 11 -24 21 2 0.66057290D-01 0.96459037D-01 0.11350592D+06 0.11350592D+06 0.11350592D+06 0.11172349D+01  1  2  4  2  7  2        1 -.862577346002D-03 0.100000000000D+01
-.764960520603D-04 0.000000000000D+00 -.272074223768D-04 0.559716908124D-06 0.000000000000D+00  7 -1 1 24 -11 11 -24 21 2 0.66057290D-01 0.14368315D+00 0.11350592D+06 0.11350592D+06 0.11350592D+06 0.11172349D+01  1  2  5  2  7  2        1 -.485887802131D-03 0.100000000000D+01
0.827096124789D-04 0.000000000000D+00 0.251814668011D-04 0.559716908124D-06 0.000000000000D+00  7 -1 1 24 -11 11 -24 21 2 0.66057290D-01 0.96459037D-01 0.11350592D+06 0.11350592D+06 0.11350592D+06 0.11172349D+01  1  2  6  2  7  2        1 0.976671581316D-03 0.100000000000D+01
0.184198261135D-05 0.000000000000D+00 0.000000000000D+00 0.559716908124D-06 0.000000000000D+00  7 -1 21 24 -11 11 -24 -1 2 0.66057290D-01 0.13954405D+00 0.18905725D+06 0.18905725D+06 0.18905725D+06 0.10997071D+01  1  2 12  4  7  2        1 0.177710617265D-04 0.100000000000D+01
-.270722143561D-05 0.000000000000D+00 -.129148356753D-05 0.559716908124D-06 0.000000000000D+00  7 -1 21 24 -11 11 -24 -1 2 0.66057290D-01 0.14368315D+00 0.11350592D+06 0.11350592D+06 0.11350592D+06 0.11172349D+01  1  2  5  4  7  2        1 -.258018560728D-04 0.100000000000D+01
  </mgrwgt>
  </event>
  <event>
  8     66 0.29788925E-05 0.37132134E+03 0.75467711E-02 0.89732348E-01
       -1 -1    0    0    0  501 0.00000000E+00 0.00000000E+00 0.35795362E+03 0.35795376E+03 0.32000000E+00 0.0000E+00 0.9000E+01
        1 -1    0    0  501    0 0.00000000E+00 0.00000000E+00 -.67067223E+03 0.67067231E+03 0.32000000E+00 0.0000E+00 0.9000E+01
       25  2    1    2    0    0 0.74207465E+02 0.32196534E+03 0.13394971E+03 0.46553496E+03 0.29935238E+03 0.0000E+00 0.0000E+00
       23  2    1    2    0    0 -.74207465E+02 -.32196534E+03 -.44666833E+03 0.56309111E+03 0.91600074E+02 0.0000E+00 0.0000E+00
       24  1    3    3    0    0 0.21801920E+02 0.28567168E+03 0.98643779E+00 0.29757658E+03 0.80419002E+02 0.0000E+00 0.9000E+01
      -13  1    4    4    0    0 -.55058157E+02 -.31820454E+03 -.42722144E+03 0.53554057E+03 0.10565837E+00 0.0000E+00 0.9000E+01
       13  1    4    4    0    0 -.19149307E+02 -.37607971E+01 -.19446884E+02 0.27550536E+02 0.10565837E+00 0.0000E+00 0.9000E+01
      -24  1    3    3    0    0 0.52405545E+02 0.36293664E+02 0.13296327E+03 0.16795838E+03 0.80419002E+02 0.0000E+00 0.9000E+01
#aMCatNLO 1  0  0  1  2 0.62434166D+03 0.00000000D+00  -5  7  0 0.00000000D+00 0.00000000D+00 0.00000000D+00 0.00000000D+00 0.00000000D+00
  <mgrwgt>
 0.7327039855D-03    5    2    0
 0.489969043711234D+03 0.000000000000000D+00 0.000000000000000D+00 0.489969043711234D+03
 0.489969043711234D+03 0.000000000000000D+00 0.000000000000000D+00 -.489969043711234D+03
 0.312676388517381D+03 0.218019198234937D+02 0.285671676268657D+03 0.959983210882743D+02
 0.425814064199014D+03 -.550582051934006D+02 -.318204961724667D+03 -.277546056798447D+03
 0.227129360879528D+02 -.191492595996299D+02 -.376037873325763D+01 -.116207949084335D+02
 0.218734698618119D+03 0.524055449695368D+02 0.362936641892679D+02 0.193168530618606D+03
 0.000000000000000D+00 -.000000000000000D+00 -.000000000000000D+00 0.000000000000000D+00
 0.246355298529305D+04 0.000000000000000D+00 0.000000000000000D+00 0.246355298529305D+04
 0.632729148041958D+03 0.000000000000000D+00 0.000000000000000D+00 -.632729148041958D+03
 0.473524417176168D+03 0.220465021390375D+03 0.399922060405817D+03 0.959983210882743D+02
 0.373415749330484D+03 0.146897163550370D+03 -.202061207421256D+03 -.277546056798447D+03
 0.151605270481383D+02 -.957910958298446D+01 0.174337766150443D+01 -.116207949084335D+02
 0.299829239101877D+03 0.183440160403835D+03 0.111651166566696D+03 0.193168530618606D+03
 0.193435220067834D+04 -.541223235761595D+03 -.311255397212760D+03 0.183082383725109D+04
0.614929777138D-04 0.000000000000D+00 0.000000000000D+00 0.290121959568D-05 0.000000000000D+00  7 -1 1 24 -13 13 -24 21 0 0.55069804D-01 0.10318036D+00 0.13787954D+06 0.13787954D+06 0.13787954D+06 0.11104511D+01  1  2  2  1  7  1       -1 0.736311438883D-03 0.100000000000D+01
-.309693602286D-05 0.000000000000D+00 -.236149225894D-06 0.290121959568D-05 0.000000000000D+00  7 -1 1 24 -13 13 -24 21 2 0.55069804D-01 0.10318036D+00 0.13787954D+06 0.13787954D+06 0.13787954D+06 0.11104511D+01  1  2  3  1  7  1       -1 -.457264136575D-04 0.100000000000D+01
0.386077557603D-05 0.000000000000D+00 0.000000000000D+00 0.290121959568D-05 0.000000000000D+00  7 -1 1 24 -13 13 -24 21 2 0.55069804D-01 0.10318036D+00 0.13787954D+06 0.13787954D+06 0.13787954D+06 0.11104511D+01  1  2 15  1  7  1       -1 0.570045424656D-04 0.100000000000D+01
-.527226777101D-04 0.000000000000D+00 -.267856807399D-04 0.290121959568D-05 0.000000000000D+00  7 -1 1 24 -13 13 -24 21 2 0.30338958D+00 0.10318036D+00 0.13787954D+06 0.13787954D+06 0.13787954D+06 0.11104511D+01  1  2  5  1  7  1       -1 -.468254786030D-05 0.100000000000D+01
-.122743382260D-04 0.000000000000D+00 -.559420388655D-05 0.290121959568D-05 0.000000000000D+00  7 21 1 24 -13 13 -24 1 2 0.30338958D+00 0.10318036D+00 0.13787954D+06 0.13787954D+06 0.13787954D+06 0.11104511D+01  1  2  5  3  7  1       -1 -.102030343163D-04 0.100000000000D+01
  </mgrwgt>
  </event>
  <event>
  8     66 0.29788925E-05 0.40379428E+03 0.75467711E-02 0.94792216E-01
       -1 -1    0    0    0  501 0.00000000E+00 0.00000000E+00 0.16093389E+03 0.16093421E+03 0.32000000E+00 0.0000E+00 0.9000E+01
        1 -1    0    0  501    0 0.00000000E+00 0.00000000E+00 -.11305621E+04 0.11305621E+04 0.32000000E+00 0.0000E+00 0.9000E+01
       25  2    1    2    0    0 -.34216562E+03 0.73722014E+02 -.37139845E+03 0.59230191E+03 0.30062019E+03 0.0000E+00 0.0000E+00
       23  2    1    2    0    0 0.34216562E+03 -.73722014E+02 -.59822976E+03 0.69919445E+03 0.92096678E+02 0.0000E+00 0.0000E+00
       24  1    3    3    0    0 -.20924467E+03 0.15288746E+03 -.29827058E+03 0.40322508E+03 0.80419002E+02 0.0000E+00 0.9000E+01
      -13  1    4    4    0    0 0.30882065E+03 -.35018867E+02 -.50990118E+03 0.59715638E+03 0.10565837E+00 0.0000E+00 0.9000E+01
       13  1    4    4    0    0 0.33344966E+02 -.38703147E+02 -.88328575E+02 0.10203807E+03 0.10565837E+00 0.0000E+00 0.9000E+01
      -24  1    3    3    0    0 -.13292095E+03 -.79165449E+02 -.73127873E+02 0.18907683E+03 0.80419002E+02 0.0000E+00 0.9000E+01
#aMCatNLO 1  0  0  2  1 0.16524218D+03 0.00000000D+00  -5  7  0 0.00000000D+00 0.00000000D+00 0.00000000D+00 0.00000000D+00 0.00000000D+00
  <mgrwgt>
 0.5245225016D-03    4    2    0
 0.426551282944563D+03 0.000000000000000D+00 0.000000000000000D+00 0.426551282944563D+03
 0.426551282944563D+03 0.000000000000000D+00 0.000000000000000D+00 -.426551282944563D+03
 0.271423578008148D+03 -.209244667770803D+03 0.152887463379054D+03 0.675539009824102D+01
 0.324475667535741D+03 0.308821011999659D+03 -.350188626756358D+02 -.932079429403742D+02
 0.540798050434768D+02 0.333446035420148D+02 -.387031514997170D+02 -.177434154591577D+02
 0.203123515301760D+03 -.132920947770871D+03 -.791654492037010D+02 0.104195968301291D+03
 0.000000000000000D+00 -.000000000000000D+00 -.000000000000000D+00 0.000000000000000D+00
 0.611762314672790D+03 0.000000000000000D+00 0.000000000000000D+00 0.611762314672790D+03
 0.472984056443188D+03 0.000000000000000D+00 0.000000000000000D+00 -.472984056443188D+03
 0.280752050746465D+03 -.181750834623429D+03 0.198180465390217D+03 0.675539009824102D+01
 0.355747443928386D+03 0.342690563199814D+03 0.207774187087351D+02 -.932079429403742D+02
 0.520280133143128D+02 0.386279056322224D+02 -.299995047250143D+02 -.177434154591577D+02
 0.180431044358503D+03 -.113823065653187D+03 -.477038334832372D+02 0.104195968301291D+03
 0.215787818768311D+03 -.857445685554214D+02 -.141254545890700D+03 0.138778258229602D+03
0.311210778048D-04 0.000000000000D+00 0.000000000000D+00 0.889701211008D-06 0.000000000000D+00  7 -1 1 24 -13 13 -24 21 0 0.24759089D-01 0.17393266D+00 0.16304982D+06 0.16304982D+06 0.16304982D+06 0.11047042D+01  1  2  2  2  7  2        1 0.623157495040D-03 0.100000000000D+01
-.172262969045D-05 0.000000000000D+00 -.119513133139D-06 0.889701211008D-06 0.000000000000D+00  7 -1 1 24 -13 13 -24 21 2 0.24759089D-01 0.17393266D+00 0.16304982D+06 0.16304982D+06 0.16304982D+06 0.11047042D+01  1  2  3  2  7  2        1 -.420946730885D-04 0.100000000000D+01
0.201673626143D-05 0.000000000000D+00 0.000000000000D+00 0.889701211008D-06 0.000000000000D+00  7 -1 1 24 -13 13 -24 21 2 0.24759089D-01 0.17393266D+00 0.16304982D+06 0.16304982D+06 0.16304982D+06 0.11047042D+01  1  2 15  2  7  2        1 0.492815455935D-04 0.100000000000D+01
-.433052153074D-05 0.000000000000D+00 0.000000000000D+00 0.889701211008D-06 0.000000000000D+00  7 -1 1 24 -13 13 -24 21 2 0.24759089D-01 0.17393266D+00 0.16304982D+06 0.16304982D+06 0.16304982D+06 0.11047042D+01  1  2  4  2  7  2        1 -.105821865924D-03 0.100000000000D+01
  </mgrwgt>
  </event>
  <event>
  8     66 0.29788925E-05 0.59915846E+03 0.75467711E-02 0.88865201E-01
       -1 -1    0    0    0  501 0.00000000E+00 0.00000000E+00 0.30694516E+03 0.30694533E+03 0.32000000E+00 0.0000E+00 0.9000E+01
        1 -1    0    0  501    0 0.00000000E+00 0.00000000E+00 -.15032399E+04 0.15032399E+04 0.32000000E+00 0.0000E+00 0.9000E+01
       25  2    1    2    0    0 -.49002874E+02 -.56136668E+03 -.10370282E+04 0.12179631E+04 0.30078704E+03 0.0000E+00 0.0000E+00
       23  2    1    2    0    0 0.49002874E+02 0.56136668E+03 -.15926653E+03 0.59222213E+03 0.88472567E+02 0.0000E+00 0.0000E+00
       24  1    3    3    0    0 0.47007192E+02 -.48778034E+02 -.24085442E+03 0.26280609E+03 0.80419002E+02 0.0000E+00 0.9000E+01
      -11  1    4    4    0    0 0.30638192E+02 0.12327603E+03 -.40704078E+01 0.12709148E+03 0.51099893E-03 0.0000E+00 0.9000E+01
       11  1    4    4    0    0 0.18364682E+02 0.43809066E+03 -.15519612E+03 0.46513065E+03 0.51099893E-03 0.0000E+00 0.9000E+01
      -24  1    3    3    0    0 -.96010067E+02 -.51258865E+03 -.79617381E+03 0.95515706E+03 0.80419002E+02 0.0000E+00 0.9000E+01
#aMCatNLO 1  0  0  1  1 0.44226549D+03 0.00000000D+00  -5  7  0 0.00000000D+00 0.00000000D+00 0.00000000D+00 0.00000000D+00 0.00000000D+00
  <mgrwgt>
 0.1118949106D-02    3    2    0
 0.679273436496041D+03 0.000000000000000D+00 0.000000000000000D+00 0.679273436496041D+03
 0.679273436496041D+03 0.000000000000000D+00 0.000000000000000D+00 -.679273436496041D+03
 0.138084917661625D+03 0.470071924810155D+02 -.487780343295662D+02 -.895056185568464D+02
 0.165757789687642D+03 0.306381917637473D+02 0.123276025353847D+03 0.106489284064351D+03
 0.483098790618109D+03 0.183646824226775D+02 0.438090657259904D+03 0.202789930612393D+03
 0.571605375024707D+03 -.960100666674403D+02 -.512588648284184D+03 -.219773596119898D+03
 0.000000000000000D+00 -.000000000000000D+00 -.000000000000000D+00 -.000000000000000D+00
 0.757293177718874D+03 0.000000000000000D+00 0.000000000000000D+00 0.757293177718874D+03
 0.185336834797184D+04 0.000000000000000D+00 0.000000000000000D+00 -.185336834797184D+04
 0.140228061919652D+03 0.710474927127293D+02 -.117341987950732D+02 -.895056185568464D+02
 0.213413665851306D+03 0.633905112716854D+02 0.173744261005275D+03 0.106489284064351D+03
 0.630940791962490D+03 0.114593920726777D+03 0.586370838579938D+03 0.202789930612393D+03
 0.444140115426923D+03 -.827133961919137D+01 -.377391544111022D+03 -.219773596119898D+03
 0.118193889053034D+04 -.240760585092000D+03 -.370989356679118D+03 -.109607517025297D+04
0.311712247885D-03 0.000000000000D+00 0.000000000000D+00 0.676703808831D-06 0.000000000000D+00  7 -1 1 24 -11 11 -24 21 0 0.47222348D-01 0.23126769D+00 0.35899086D+06 0.35899086D+06 0.35899086D+06 0.10788306D+01  1  2  2  1  7  1       -1 0.110568164221D-02 0.100000000000D+01
-.169857322410D-04 0.000000000000D+00 -.119705710760D-05 0.676703808831D-06 0.000000000000D+00  7 -1 1 24 -11 11 -24 21 2 0.47222348D-01 0.23126769D+00 0.35899086D+06 0.35899086D+06 0.35899086D+06 0.10788306D+01  1  2  3  1  7  1       -1 -.701240522160D-04 0.100000000000D+01
0.201994311701D-04 0.000000000000D+00 0.000000000000D+00 0.676703808831D-06 0.000000000000D+00  7 -1 1 24 -11 11 -24 21 2 0.47222348D-01 0.23126769D+00 0.35899086D+06 0.35899086D+06 0.35899086D+06 0.10788306D+01  1  2 15  1  7  1       -1 0.833915162447D-04 0.100000000000D+01
  </mgrwgt>
  </event>
  <event>
  9     66 0.29788925E-05 0.26348151E+03 0.75467711E-02 0.98691532E-01
       -1 -1    0    0    0  502 0.00000000E+00 0.00000000E+00 0.13637962E+03 0.13638000E+03 0.32000000E+00 0.0000E+00 0.9000E+01
        1 -1    0    0  501    0 0.00000000E+00 0.00000000E+00 -.97043343E+03 0.97043348E+03 0.32000000E+00 0.0000E+00 0.9000E+01
       25  2    1    2    0    0 -.14949320E+03 0.15355500E+03 -.36293188E+03 0.51738814E+03 0.30007263E+03 0.0000E+00 0.0000E+00
       23  2    1    2    0    0 0.16888948E+03 0.45757662E+01 -.22042368E+03 0.29238708E+03 0.91427625E+02 0.0000E+00 0.0000E+00
       24  1    3    3    0    0 0.63421857E+02 0.64334503E+02 -.88525230E+02 0.14988393E+03 0.80419002E+02 0.0000E+00 0.9000E+01
      -11  1    4    4    0    0 0.14029025E+03 0.33134754E+02 -.20151638E+03 0.24776626E+03 0.51099893E-03 0.0000E+00 0.9000E+01
       11  1    4    4    0    0 0.28599233E+02 -.28558988E+02 -.18907300E+02 0.44620824E+02 0.51099893E-03 0.0000E+00 0.9000E+01
      -24  1    3    3    0    0 -.21291505E+03 0.89220497E+02 -.27440665E+03 0.36750421E+03 0.80419002E+02 0.0000E+00 0.9000E+01
       21  1    1    2  501  502 -.19396287E+02 -.15813077E+03 -.25069825E+03 0.29703827E+03 0.75000000E+00 0.0000E+00 0.9000E+01
#aMCatNLO 2  0  0  1  2 0.15931590D+03 0.00000000D+00  -5  7  0 0.00000000D+00 0.00000000D+00 0.00000000D+00 0.00000000D+00 0.00000000D+00
  <mgrwgt>
 0.5057040457D-04    1    2    0
 0.269281748448011D+03 0.000000000000000D+00 0.000000000000000D+00 0.269281748448011D+03
 0.269281748448011D+03 0.000000000000000D+00 0.000000000000000D+00 -.269281748448011D+03
 0.108301425590551D+03 0.593236582649526D+02 0.309234014666542D+02 0.280433529088510D+02
 0.139479448533928D+03 0.135223370083157D+03 -.817365097836987D+01 -.332016291221674D+02
 0.539667003403438D+02 0.268598145860543D+02 -.427398280446540D+02 0.190856544226456D+02
 0.236815922431199D+03 -.221406842934164D+03 0.199900775563697D+02 -.139273782093292D+02
 0.000000000000000D+00 -.000000000000000D+00 -.000000000000000D+00 -.000000000000000D+00
 0.338289113376139D+03 0.000000000000000D+00 0.000000000000000D+00 0.338289113376139D+03
 0.391224413739269D+03 0.000000000000000D+00 0.000000000000000D+00 -.391224413739269D+03
 0.124156779430263D+03 0.634218571049820D+02 0.643345033641310D+02 0.280433529088510D+02
 0.147924353996001D+03 0.140290250514599D+03 0.331347542516797D+02 -.332016291221674D+02
 0.446966906929209D+02 0.285992334835274D+02 -.285589880477701D+02 0.190856544226456D+02
 0.244855682286697D+03 -.212915054005684D+03 0.892204971275343D+02 -.139273782093292D+02
 0.167880020709526D+03 -.193962870974245D+02 -.158130766695575D+03 -.529353003631299D+02
0.117645300404D-05 0.000000000000D+00 0.000000000000D+00 0.770502613437D-06 0.220745905008D-09  7 -1 1 24 -11 11 -24 21 2 0.20981464D-01 0.14929713D+00 0.12577326D+06 0.12577326D+06 0.12577326D+06 0.11136401D+01  1  2  1  1  7  1       -1 0.505704045691D-04 0.100000000000D+01
  </mgrwgt>
  </event>
  <event>
  8     66 0.29788925E-05 0.19205082E+03 0.75467711E-02 0.98333638E-01
       -1 -1    0    0    0  501 0.00000000E+00 0.00000000E+00 0.30052966E+03 0.30052983E+03 0.32000000E+00 0.0000E+00 0.9000E+01
        1 -1    0    0  501    0 0.00000000E+00 0.00000000E+00 -.45576319E+03 0.45576330E+03 0.32000000E+00 0.0000E+00 0.9000E+01
       25  2    1    2    0    0 0.49764868E+02 -.27055856E+03 -.21467168E+03 0.46033117E+03 0.30023720E+03 0.0000E+00 0.0000E+00
       23  2    1    2    0    0 -.49764868E+02 0.27055856E+03 0.59438149E+02 0.29596197E+03 0.91553906E+02 0.0000E+00 0.0000E+00
       24  1    3    3    0    0 0.21764636E+02 -.87047450E+02 0.47208986E+02 0.12940967E+03 0.80419002E+02 0.0000E+00 0.9000E+01
      -13  1    4    4    0    0 0.23414873E+02 0.44087735E+02 -.26690337E+01 0.49991195E+02 0.10565837E+00 0.0000E+00 0.9000E+01
       13  1    4    4    0    0 -.73179740E+02 0.22647082E+03 0.62107183E+02 0.24597077E+03 0.10565837E+00 0.0000E+00 0.9000E+01
      -24  1    3    3    0    0 0.28000231E+02 -.18351111E+03 -.26188066E+03 0.33092150E+03 0.80419002E+02 0.0000E+00 0.9000E+01
#aMCatNLO 1  0  0  2  1 0.11596945D+03 0.00000000D+00  -5  7  0 0.00000000D+00 0.00000000D+00 0.00000000D+00 0.00000000D+00 0.00000000D+00
  <mgrwgt>
 0.4470805781D-03    9    2    0
 0.370095209930987D+03 0.000000000000000D+00 0.000000000000000D+00 0.370095209930987D+03
 0.370095209930987D+03 0.000000000000000D+00 0.000000000000000D+00 -.370095209930987D+03
 0.142125671878845D+03 0.217646363762973D+02 -.870474496761344D+02 0.753759428526824D+02
 0.505187072830903D+02 0.234150011826198D+02 0.440874923646560D+02 0.775696604149330D+01
 0.264347295981269D+03 -.731798687841916D+02 0.226471067151636D+03 0.115043710999499D+03
 0.283198744718771D+03 0.280002312252745D+02 -.183511109840157D+03 -.198176619893674D+03
 0.000000000000000D+00 0.000000000000000D+00 -.000000000000000D+00 -.000000000000000D+00
 0.402816109156969D+03 0.000000000000000D+00 0.000000000000000D+00 0.402816109156969D+03
 0.493812405569180D+03 0.000000000000000D+00 0.000000000000000D+00 -.493812405569180D+03
 0.133621443430986D+03 0.369780482519961D+01 -.754471183595075D+02 0.753759428526824D+02
 0.517800310500736D+02 0.167124321592651D+02 0.483910705058244D+02 0.775696604149330D+01
 0.296390950651315D+03 -.109919195811369D+03 0.250060613811204D+03 0.115043710999499D+03
 0.267427682776572D+03 -.807657379211748D+01 -.160346954583412D+03 -.198176619893674D+03
 0.147408406817203D+03 0.975855326190222D+02 -.626576113741087D+02 -.909962964122105D+02
0.132162143983D-04 0.000000000000D+00 0.000000000000D+00 0.185811078477D-05 0.000000000000D+00  7 -1 1 24 -13 13 -24 21 0 0.46235354D-01 0.70117436D-01 0.93243976D+05 0.93243976D+05 0.93243976D+05 0.11242236D+01  1  2  2  2  7  2        1 0.378145085598D-03 0.100000000000D+01
-.701231214732D-06 0.000000000000D+00 -.507537431986D-07 0.185811078477D-05 0.000000000000D+00  7 -1 1 24 -13 13 -24 21 2 0.46235354D-01 0.70117436D-01 0.93243976D+05 0.93243976D+05 0.93243976D+05 0.11242236D+01  1  2  3  2  7  2        1 -.253581750357D-04 0.100000000000D+01
0.833995318441D-06 0.000000000000D+00 0.000000000000D+00 0.185811078477D-05 0.000000000000D+00  7 -1 1 24 -13 13 -24 21 2 0.46235354D-01 0.70117436D-01 0.93243976D+05 0.93243976D+05 0.93243976D+05 0.11242236D+01  1  2 15  2  7  2        1 0.301592382365D-04 0.100000000000D+01
0.120284637079D-04 0.000000000000D+00 0.000000000000D+00 0.185811078477D-05 0.000000000000D+00  7 -1 1 24 -13 13 -24 21 2 0.46235354D-01 0.95866359D-01 0.13330355D+06 0.13330355D+06 0.13330355D+06 0.11116191D+01  1  2 12  2  7  2        1 0.272303749013D-03 0.100000000000D+01
-.142635704373D-04 0.000000000000D+00 0.000000000000D+00 0.185811078477D-05 0.000000000000D+00  7 -1 1 24 -13 13 -24 21 2 0.46235354D-01 0.70117436D-01 0.93243976D+05 0.93243976D+05 0.93243976D+05 0.11242236D+01  1  2  4  2  7  2        1 -.515804356944D-03 0.100000000000D+01
-.194383300932D-04 0.000000000000D+00 -.610176621709D-05 0.185811078477D-05 0.000000000000D+00  7 -1 1 24 -13 13 -24 21 2 0.46235354D-01 0.99362415D-01 0.93243976D+05 0.93243976D+05 0.93243976D+05 0.11242236D+01  1  2  5  2  7  2        1 -.430747773038D-03 0.100000000000D+01
0.206507501974D-04 0.000000000000D+00 0.574890063742D-05 0.185811078477D-05 0.000000000000D+00  7 -1 1 24 -13 13 -24 21 2 0.46235354D-01 0.70117436D-01 0.93243976D+05 0.93243976D+05 0.93243976D+05 0.11242236D+01  1  2  6  2  7  2        1 0.746779845395D-03 0.100000000000D+01
0.479178864790D-06 0.000000000000D+00 0.000000000000D+00 0.185811078477D-05 0.000000000000D+00  7 -1 21 24 -13 13 -24 -1 2 0.46235354D-01 0.95866359D-01 0.13330355D+06 0.13330355D+06 0.13330355D+06 0.11116191D+01  1  2 12  4  7  2        1 0.257745230402D-04 0.100000000000D+01
-.665733656357D-06 0.000000000000D+00 -.262828601060D-06 0.185811078477D-05 0.000000000000D+00  7 -1 21 24 -13 13 -24 -1 2 0.46235354D-01 0.99362415D-01 0.93243976D+05 0.93243976D+05 0.93243976D+05 0.11242236D+01  1  2  5  4  7  2        1 -.341715581460D-04 0.100000000000D+01
  </mgrwgt>
  </event>
  <event>
  8     66 0.29788925E-05 0.91042945E+02 0.75467711E-02 0.10275527E+00
       -1 -1    0    0    0  501 0.00000000E+00 0.00000000E+00 0.73998588E+02 0.73999280E+02 0.32000000E+00 0.0000E+00 0.9000E+01
        1 -1    0    0  501    0 0.00000000E+00 0.00000000E+00 -.85882320E+03 0.85882326E+03 0.32000000E+00 0.0000E+00 0.9000E+01
       25  2    1    2    0    0 -.79303336E+02 -.77235399E+02 -.34358238E+03 0.46911352E+03 0.29960694E+03 0.0000E+00 0.0000E+00
       23  2    1    2    0    0 0.79303336E+02 0.77235399E+02 -.44124223E+03 0.46370902E+03 0.89872234E+02 0.0000E+00 0.0000E+00
       24  1    3    3    0    0 -.61159330E+02 0.50569127E+02 -.28421870E+03 0.30585157E+03 0.80419002E+02 0.0000E+00 0.9000E+01
      -13  1    4    4    0    0 0.77247319E+02 0.90264453E+02 -.31298408E+03 0.33477435E+03 0.10565837E+00 0.0000E+00 0.9000E+01
       13  1    4    4    0    0 0.20560168E+01 -.13029054E+02 -.12825815E+03 0.12893467E+03 0.10565837E+00 0.0000E+00 0.9000E+01
      -24  1    3    3    0    0 -.18144006E+02 -.12780453E+03 -.59363681E+02 0.16326195E+03 0.80419002E+02 0.0000E+00 0.9000E+01
#aMCatNLO 1  0  0  2  1 0.10594426D+03 0.00000000D+00  -5  7  0 0.00000000D+00 0.00000000D+00 0.00000000D+00 0.00000000D+00 0.00000000D+00
  <mgrwgt>
 0.5327416226D-03    9    2    0
 0.252095328604541D+03 0.000000000000000D+00 0.000000000000000D+00 0.252095328604541D+03
 0.252095328604541D+03 0.000000000000000D+00 0.000000000000000D+00 -.252095328604541D+03
 0.123452131273793D+03 -.611593306761717D+02 0.505691265933504D+02 -.497545220909591D+02
 0.132187128655176D+03 0.772474227336898D+02 0.902645938974138D+02 -.579532203733119D+02
 0.388998528291022D+02 0.205591522239794D+01 -.130291931374955D+02 -.365952440750156D+02
 0.209651544451011D+03 -.181440072799160D+02 -.127804527353269D+03 0.144302986539287D+03
 0.000000000000000D+00 -.000000000000000D+00 0.000000000000000D+00 -.000000000000000D+00
 0.293513135902060D+03 0.000000000000000D+00 0.000000000000000D+00 0.293513135902060D+03
 0.335736374400756D+03 0.000000000000000D+00 0.000000000000000D+00 -.335736374400756D+03
 0.113237793303185D+03 -.365607957690845D+02 0.504319107513879D+02 -.497545220909591D+02
 0.151199616530357D+03 0.106699030173723D+03 0.901003065881372D+02 -.579532203733119D+02
 0.401966286694595D+02 0.102761956785581D+02 -.130750476043660D+02 -.365952440750156D+02
 0.210567286685094D+03 0.255281836880398D+02 -.128048140091859D+03 0.144302986539287D+03
 0.114048185114721D+03 -.105942613771236D+03 0.590970356699434D+00 -.422232384986958D+02
0.410765626591D-05 0.000000000000D+00 0.000000000000D+00 0.314124138592D-06 0.000000000000D+00  7 -1 1 24 -13 13 -24 21 0 0.11384456D-01 0.13212670D+00 0.39415191D+05 0.39415191D+05 0.39415191D+05 0.11564946D+01  1  2  2  2  7  2        1 0.459296537284D-03 0.100000000000D+01
-.212373589780D-06 0.000000000000D+00 -.157744816318D-07 0.314124138592D-06 0.000000000000D+00  7 -1 1 24 -13 13 -24 21 2 0.11384456D-01 0.13212670D+00 0.39415191D+05 0.39415191D+05 0.39415191D+05 0.11564946D+01  1  2  3  2  7  2        1 -.317604596039D-04 0.100000000000D+01
0.264971034100D-06 0.000000000000D+00 0.000000000000D+00 0.314124138592D-06 0.000000000000D+00  7 -1 1 24 -13 13 -24 21 2 0.11384456D-01 0.13212670D+00 0.39415191D+05 0.39415191D+05 0.39415191D+05 0.11564946D+01  1  2 15  2  7  2        1 0.396264047401D-04 0.100000000000D+01
0.140486687283D-05 0.000000000000D+00 0.000000000000D+00 0.314124138592D-06 0.000000000000D+00  7 -1 1 24 -13 13 -24 21 2 0.11384456D-01 0.18393753D+00 0.66898498D+05 0.66898498D+05 0.66898498D+05 0.11363366D+01  1  2 12  2  7  2        1 0.113847796569D-03 0.100000000000D+01
-.247171405936D-05 0.000000000000D+00 0.000000000000D+00 0.314124138592D-06 0.000000000000D+00  7 -1 1 24 -13 13 -24 21 2 0.11384456D-01 0.13212670D+00 0.39415191D+05 0.39415191D+05 0.39415191D+05 0.11564946D+01  1  2  4  2  7  2        1 -.369644712490D-03 0.100000000000D+01
-.350769063136D-05 0.000000000000D+00 -.165661794635D-05 0.314124138592D-06 0.000000000000D+00  7 -1 1 24 -13 13 -24 21 2 0.11384456D-01 0.19381944D+00 0.39415191D+05 0.39415191D+05 0.39415191D+05 0.11564946D+01  1  2  5  2  7  2        1 -.267630559171D-03 0.100000000000D+01
0.396257758177D-05 0.000000000000D+00 0.154202902243D-05 0.314124138592D-06 0.000000000000D+00  7 -1 1 24 -13 13 -24 21 2 0.11384456D-01 0.13212670D+00 0.39415191D+05 0.39415191D+05 0.39415191D+05 0.11564946D+01  1  2  6  2  7  2        1 0.592603276817D-03 0.100000000000D+01
0.582745187689D-07 0.000000000000D+00 0.000000000000D+00 0.314124138592D-06 0.000000000000D+00  7 -1 21 24 -13 13 -24 -1 2 0.11384456D-01 0.18393753D+00 0.66898498D+05 0.66898498D+05 0.66898498D+05 0.11363366D+01  1  2 12  4  7  2        1 0.530784116530D-05 0.100000000000D+01
-.108498023736D-06 0.000000000000D+00 -.764146257871D-07 0.314124138592D-06 0.000000000000D+00  7 -1 21 24 -13 13 -24 -1 2 0.11384456D-01 0.19381944D+00 0.39415191D+05 0.39415191D+05 0.39415191D+05 0.11564946D+01  1  2  5  4  7  2        1 -.890450273273D-05 0.100000000000D+01
  </mgrwgt>
  </event>
  <event>
  7     66 0.29788925E-05 0.19117412E+03 0.75467711E-02 0.95094169E-01
       -1 -1    0    0    0  501 0.00000000E+00 0.00000000E+00 0.38479440E+02 0.38480770E+02 0.32000000E+00 0.0000E+00 0.9000E+01
        1 -1    0    0  501    0 0.00000000E+00 0.00000000E+00 -.17424102E+04 0.17424102E+04 0.32000000E+00 0.0000E+00 0.9000E+01
       25  2    1    2    0    0 -.56809194E+02 0.14583058E+02 -.13285131E+04 0.13634205E+04 0.30087926E+03 0.0000E+00 0.0000E+00
       24  1    3    3    0    0 -.41281424E+02 0.13252952E+03 -.61324772E+03 0.63388344E+03 0.80419002E+02 0.0000E+00 0.9000E+01
      -11  1    1    2    0    0 -.70565957E+01 -.12590387E+02 0.15608089E+02 0.21258547E+02 0.51099893E-03 0.0000E+00 0.9000E+01
       11  1    1    2    0    0 0.63865790E+02 -.19926709E+01 -.39102575E+03 0.39621200E+03 0.51099893E-03 0.0000E+00 0.9000E+01
      -24  1    3    3    0    0 -.15527770E+02 -.11794646E+03 -.71526538E+03 0.72953702E+03 0.80419002E+02 0.0000E+00 0.9000E+01
#aMCatNLO 1  0  0  2  1 0.40022008D+03 0.00000000D+00  -5  7  0 0.00000000D+00 0.00000000D+00 0.00000000D+00 0.00000000D+00 0.00000000D+00
  <mgrwgt>
 0.1471519563D-02    5    2    0
 0.258936631727185D+03 0.000000000000000D+00 0.000000000000000D+00 0.258936631727185D+03
 0.258936631727185D+03 0.000000000000000D+00 0.000000000000000D+00 -.258936631727185D+03
 0.162096922257655D+03 -.412814449108157D+02 0.132529527771407D+03 -.232371002019825D+02
 0.124459529066692D+03 -.705655339612546D+01 -.125903921906258D+02 0.123619826298845D+03
 0.759443760682524D+02 0.638657881457331D+02 -.199267623293017D+01 -.410455673898071D+02
 0.155372436061770D+03 -.155277898387920D+02 -.117946459347851D+03 -.593371587070555D+02
 0.000000000000000D+00 0.000000000000000D+00 -.000000000000000D+00 -.000000000000000D+00
 0.400158587979124D+03 0.000000000000000D+00 0.000000000000000D+00 0.400158587979124D+03
 0.876481448071453D+03 0.000000000000000D+00 0.000000000000000D+00 -.876481448071453D+03
 0.311376364464714D+03 -.706787249062432D+02 0.291466257760178D+03 -.232371002019825D+02
 0.148718615485428D+03 -.240177941445165D+02 0.791107495993921D+02 0.123619826298845D+03
 0.854889758823789D+02 0.538426219376766D+02 0.521976863274915D+02 -.410455673898071D+02
 0.108914957099643D+03 -.319370165341586D+02 -.292297878390697D+02 -.593371587070555D+02
 0.622141123118414D+03 0.727909136472417D+02 -.393544905847992D+03 -.476322860092329D+03
0.195977992513D-04 0.000000000000D+00 0.000000000000D+00 0.329066320796D-09 0.000000000000D+00  7 -1 1 24 -11 11 -24 21 0 0.59200184D-02 0.26806321D+00 0.36547543D+05 0.36547543D+05 0.36547543D+05 0.11594637D+01  1  2  2  2  7  2        1 0.144574076636D-02 0.100000000000D+01
-.966911483641D-06 0.000000000000D+00 -.752607093442D-07 0.329066320796D-09 0.000000000000D+00  7 -1 1 24 -11 11 -24 21 2 0.59200184D-02 0.26806321D+00 0.36547543D+05 0.36547543D+05 0.36547543D+05 0.11594637D+01  1  2  3  2  7  2        1 -.958923940688D-04 0.100000000000D+01
0.122683742533D-05 0.000000000000D+00 0.000000000000D+00 0.329066320796D-09 0.000000000000D+00  7 -1 1 24 -11 11 -24 21 2 0.59200184D-02 0.26806321D+00 0.36547543D+05 0.36547543D+05 0.36547543D+05 0.11594637D+01  1  2 15  2  7  2        1 0.121670266450D-03 0.100000000000D+01
0.475372695169D-06 0.000000000000D+00 -.519264142975D-05 0.329066320796D-09 0.000000000000D+00  7 -1 1 24 -11 11 -24 21 2 0.59200184D-02 0.92164829D+00 0.36547543D+05 0.36547543D+05 0.36547543D+05 0.11594637D+01  1  2  5  2  7  2        1 0.918124359010D-09 0.100000000000D+01
0.246868038603D-06 0.000000000000D+00 -.747973723061D-06 0.329066320796D-09 0.000000000000D+00  7 -1 21 24 -11 11 -24 -1 2 0.59200184D-02 0.92164829D+00 0.36547543D+05 0.36547543D+05 0.36547543D+05 0.11594637D+01  1  2  5  4  7  2        1 0.569666857825D-11 0.100000000000D+01
  </mgrwgt>
  </event>
  <event>
  8     66 0.29788925E-05 0.13458500E+03 0.75467711E-02 0.10375827E+00
       -1 -1    0    0    0  501 0.00000000E+00 0.00000000E+00 0.12502377E+03 0.12502418E+03 0.32000000E+00 0.0000E+00 0.9000E+01
        1 -1    0    0  501    0 0.00000000E+00 0.00000000E+00 -.49600982E+03 0.49600992E+03 0.32000000E+00 0.0000E+00 0.9000E+01
       25  2    1    2    0    0 -.60838925E+02 -.11633674E+03 -.30676133E+03 0.44922511E+03 0.30077413E+03 0.0000E+00 0.0000E+00
       23  2    1    2    0    0 0.60838925E+02 0.11633674E+03 -.64224721E+02 0.17180900E+03 0.90321122E+02 0.0000E+00 0.0000E+00
       24  1    3    3    0    0 0.18398370E+01 0.24900121E+02 0.12894434E+02 0.85187343E+02 0.80419002E+02 0.0000E+00 0.9000E+01
      -11  1    4    4    0    0 -.16601829E+02 0.25022407E+01 0.52546766E+01 0.17592429E+02 0.51099893E-03 0.0000E+00 0.9000E+01
       11  1    4    4    0    0 0.77440754E+02 0.11383450E+03 -.69479398E+02 0.15421657E+03 0.51099893E-03 0.0000E+00 0.9000E+01
      -24  1    3    3    0    0 -.62678762E+02 -.14123686E+03 -.31965576E+03 0.36403777E+03 0.80419002E+02 0.0000E+00 0.9000E+01
#aMCatNLO 1  0  0  1  2 0.66610919D+02 0.00000000D+00  -5  7  0 0.00000000D+00 0.00000000D+00 0.00000000D+00 0.00000000D+00 0.00000000D+00
  <mgrwgt>
 0.7411158713D-03    9    2    0
 0.249024454917373D+03 0.000000000000000D+00 0.000000000000000D+00 0.249024454917373D+03
 0.249024454917373D+03 0.000000000000000D+00 0.000000000000000D+00 -.249024454917373D+03
 0.115827781912740D+03 0.183983700145352D+01 0.249001205959219D+02 0.795327486169778D+02
 0.258506939840856D+02 -.166018285614135D+02 0.250224069603160D+01 0.196564610084166D+02
 0.140544150945811D+03 0.774407540249654D+02 0.113834496167362D+03 0.282364208682090D+02
 0.215826282992110D+03 -.626787624650054D+02 -.141236857459315D+03 -.127425630493603D+03
 0.000000000000000D+00 -.000000000000000D+00 -.000000000000000D+00 0.000000000000000D+00
 0.296583072387697D+03 0.000000000000000D+00 0.000000000000000D+00 0.296583072387697D+03
 0.275706316974521D+03 0.000000000000000D+00 0.000000000000000D+00 -.275706316974521D+03
 0.118866615045895D+03 0.149842318299938D+02 0.333477272387814D+02 0.795327486169778D+02
 0.243939062032501D+02 -.137878079822136D+02 0.431074837159049D+01 0.196564610084166D+02
 0.158739758697569D+03 0.942025767406355D+02 0.124606942275864D+03 0.282364208682090D+02
 0.200483283035755D+03 -.393627507592255D+02 -.126252181638176D+03 -.127425630493603D+03
 0.698058263797484D+02 -.560362498291901D+02 -.360132362480602D+02 0.208767554131762D+02
0.496257261430D-05 0.000000000000D+00 0.000000000000D+00 0.206420029149D-06 0.000000000000D+00  7 -1 1 24 -11 11 -24 21 0 0.19234466D-01 0.76309243D-01 0.42615002D+05 0.42615002D+05 0.42615002D+05 0.11534509D+01  1  2  2  1  7  1       -1 0.547286102723D-03 0.100000000000D+01
-.263904945032D-06 0.000000000000D+00 -.190575855143D-07 0.206420029149D-06 0.000000000000D+00  7 -1 1 24 -11 11 -24 21 2 0.19234466D-01 0.76309243D-01 0.42615002D+05 0.42615002D+05 0.42615002D+05 0.11534509D+01  1  2  3  1  7  1       -1 -.387216031306D-04 0.100000000000D+01
0.316223578716D-06 0.000000000000D+00 0.000000000000D+00 0.206420029149D-06 0.000000000000D+00  7 -1 1 24 -11 11 -24 21 2 0.19234466D-01 0.76309243D-01 0.42615002D+05 0.42615002D+05 0.42615002D+05 0.11534509D+01  1  2 15  1  7  1       -1 0.463980844092D-04 0.100000000000D+01
0.393787236632D-05 0.000000000000D+00 0.000000000000D+00 0.206420029149D-06 0.000000000000D+00  7 -1 1 24 -11 11 -24 21 2 0.23780097D-01 0.76309243D-01 0.57691818D+05 0.57691818D+05 0.57691818D+05 0.11418690D+01  1  2 12  1  7  1       -1 0.403296185673D-03 0.100000000000D+01
-.404959666230D-05 0.000000000000D+00 0.000000000000D+00 0.206420029149D-06 0.000000000000D+00  7 -1 1 24 -11 11 -24 21 2 0.19234466D-01 0.76309243D-01 0.42615002D+05 0.42615002D+05 0.42615002D+05 0.11534509D+01  1  2  4  1  7  1       -1 -.594179373098D-03 0.100000000000D+01
-.804742932846D-05 0.000000000000D+00 -.281499723955D-05 0.206420029149D-06 0.000000000000D+00  7 -1 1 24 -11 11 -24 21 2 0.25234544D-01 0.76309243D-01 0.42615002D+05 0.42615002D+05 0.42615002D+05 0.11534509D+01  1  2  5  1  7  1       -1 -.764663408972D-03 0.100000000000D+01
0.859368856472D-05 0.000000000000D+00 0.271433388657D-05 0.206420029149D-06 0.000000000000D+00  7 -1 1 24 -11 11 -24 21 2 0.19234466D-01 0.76309243D-01 0.42615002D+05 0.42615002D+05 0.42615002D+05 0.11534509D+01  1  2  6  1  7  1       -1 0.126091384150D-02 0.100000000000D+01
0.117872384755D-06 0.000000000000D+00 0.000000000000D+00 0.206420029149D-06 0.000000000000D+00  7 21 1 24 -11 11 -24 1 2 0.23780097D-01 0.76309243D-01 0.57691818D+05 0.57691818D+05 0.57691818D+05 0.11418690D+01  1  2 12  3  7  1       -1 0.141961497472D-03 0.100000000000D+01
-.235419957992D-06 0.000000000000D+00 -.101213770487D-06 0.206420029149D-06 0.000000000000D+00  7 21 1 24 -11 11 -24 1 2 0.25234544D-01 0.76309243D-01 0.42615002D+05 0.42615002D+05 0.42615002D+05 0.11534509D+01  1  2  5  3  7  1       -1 -.261175455257D-03 0.100000000000D+01
  </mgrwgt>
  </event>
  <event>
  8     66 0.29788925E-05 0.23705748E+03 0.75467711E-02 0.10220099E+00
       -1 -1    0    0    0  501 0.00000000E+00 0.00000000E+00 0.12559661E+04 0.12559662E+04 0.32000000E+00 0.0000E+00 0.9000E+01
        1 -1    0    0  501    0 0.00000000E+00 0.00000000E+00 -.65457682E+02 0.65458464E+02 0.32000000E+00 0.0000E+00 0.9000E+01
       25  2    1    2    0    0 0.23131139E+02 0.19189650E+03 0.78636584E+03 0.86345092E+03 0.29969474E+03 0.0000E+00 0.0000E+00
       23  2    1    2    0    0 -.23131139E+02 -.19189650E+03 0.40414260E+03 0.45797370E+03 0.95128118E+02 0.0000E+00 0.0000E+00
       24  1    3    3    0    0 0.52424862E+02 0.11670412E+03 0.71093144E+03 0.72681424E+03 0.80419002E+02 0.0000E+00 0.9000E+01
      -11  1    4    4    0    0 -.49525011E+02 -.79850753E+02 0.23774692E+03 0.25564129E+03 0.51099893E-03 0.0000E+00 0.9000E+01
       11  1    4    4    0    0 0.26393872E+02 -.11204575E+03 0.16639568E+03 0.20233242E+03 0.51099893E-03 0.0000E+00 0.9000E+01
      -24  1    3    3    0    0 -.29293724E+02 0.75192383E+02 0.75434404E+02 0.13663668E+03 0.80419002E+02 0.0000E+00 0.9000E+01
#aMCatNLO 1  0  0  1  2 0.63121665D+02 0.00000000D+00  -5  7  0 0.00000000D+00 0.00000000D+00 0.00000000D+00 0.00000000D+00 0.00000000D+00
  <mgrwgt>
 0.7092406623D-03    4    2    0
 0.286728398619615D+03 0.000000000000000D+00 0.000000000000000D+00 0.286728398619615D+03
 0.286728398619615D+03 0.000000000000000D+00 0.000000000000000D+00 -.286728398619615D+03
 0.198899659727241D+03 0.524248623053207D+02 0.116704118410562D+03 0.129327650730707D+03
 0.955102060121878D+02 -.495250108401155D+02 -.798507530700343D+02 0.171268791064049D+02
 0.120796514259079D+03 0.263938721994972D+02 -.112045748046742D+03 -.366184613563512D+02
 0.158250417240722D+03 -.292937236647024D+02 0.751923827062145D+02 -.109836068480761D+03
 0.000000000000000D+00 0.000000000000000D+00 0.000000000000000D+00 -.000000000000000D+00
 0.306210469780484D+03 0.000000000000000D+00 0.000000000000000D+00 0.306210469780484D+03
 0.344576686515714D+03 0.000000000000000D+00 0.000000000000000D+00 -.344576686515714D+03
 0.191566713159297D+03 0.315584005457181D+02 0.111843711257084D+03 0.129327650730707D+03
 0.103390181355729D+03 -.601542163624789D+02 -.823266048532384D+02 0.171268791064049D+02
 0.121494448975916D+03 0.134458811044756D+02 -.115061712577117D+03 -.366184613563512D+02
 0.160468965436934D+03 -.463260375142230D+02 0.712250603576433D+02 -.109836068480761D+03
 0.738668473683217D+02 0.614759722265081D+02 0.143195458156282D+02 -.383662167352302D+02
0.784251074558D-04 0.000000000000D+00 0.000000000000D+00 0.730180732594D-07 0.000000000000D+00  7 -1 1 24 -11 11 -24 21 0 0.19322562D+00 0.10070476D-01 0.56196251D+05 0.56196251D+05 0.56196251D+05 0.11428591D+01  1  2  2  1  7  1       -1 0.106851567813D-02 0.100000000000D+01
-.416524483723D-05 0.000000000000D+00 -.301173062435D-06 0.730180732594D-07 0.000000000000D+00  7 -1 1 24 -11 11 -24 21 2 0.19322562D+00 0.10070476D-01 0.56196251D+05 0.56196251D+05 0.56196251D+05 0.11428591D+01  1  2  3  1  7  1       -1 -.741227813888D-04 0.100000000000D+01
0.498818037861D-05 0.000000000000D+00 0.000000000000D+00 0.730180732594D-07 0.000000000000D+00  7 -1 1 24 -11 11 -24 21 2 0.19322562D+00 0.10070476D-01 0.56196251D+05 0.56196251D+05 0.56196251D+05 0.11428591D+01  1  2 15  1  7  1       -1 0.887673637877D-04 0.100000000000D+01
-.210119837253D-04 0.000000000000D+00 0.000000000000D+00 0.730180732594D-07 0.000000000000D+00  7 -1 1 24 -11 11 -24 21 2 0.19322562D+00 0.10070476D-01 0.56196251D+05 0.56196251D+05 0.56196251D+05 0.11428591D+01  1  2  4  1  7  1       -1 -.373919598265D-03 0.100000000000D+01
  </mgrwgt>
  </event>
  <event>
  8     66 0.29788925E-05 0.22823612E+03 0.75467711E-02 0.94836969E-01
       -1 -1    0    0    0  501 0.00000000E+00 0.00000000E+00 0.17061987E+03 0.17062017E+03 0.32000000E+00 0.0000E+00 0.9000E+01
        1 -1    0    0  501    0 0.00000000E+00 0.00000000E+00 -.67806178E+03 0.67806186E+03 0.32000000E+00 0.0000E+00 0.9000E+01
       25  2    1    2    0    0 -.16320843E+03 0.52225667E+02 -.54992097E+03 0.64945655E+03 0.30002703E+03 0.0000E+00 0.0000E+00
       23  2    1    2    0    0 0.16320843E+03 -.52225667E+02 0.42479061E+02 0.19922549E+03 0.92313652E+02 0.0000E+00 0.0000E+00
       24  1    3    3    0    0 -.37203581E+02 0.74248228E+02 -.47801192E+02 0.12509627E+03 0.80419002E+02 0.0000E+00 0.9000E+01
      -11  1    4    4    0    0 0.16466088E+02 -.39125099E+02 -.85709284E+01 0.43305499E+02 0.51099893E-03 0.0000E+00 0.9000E+01
       11  1    4    4    0    0 0.14674235E+03 -.13100568E+02 0.51049989E+02 0.15591999E+03 0.51099893E-03 0.0000E+00 0.9000E+01
      -24  1    3    3    0    0 -.12600485E+03 -.22022561E+02 -.50211978E+03 0.52436028E+03 0.80419002E+02 0.0000E+00 0.9000E+01
#aMCatNLO 1  0  0  1  2 0.39711169D+03 0.00000000D+00  -5  7  0 0.00000000D+00 0.00000000D+00 0.00000000D+00 0.00000000D+00 0.00000000D+00
  <mgrwgt>
 0.5339114653D-03    5    2    0
 0.340133761084399D+03 0.000000000000000D+00 0.000000000000000D+00 0.340133761084399D+03
 0.340133761084399D+03 0.000000000000000D+00 0.000000000000000D+00 -.340133761084399D+03
 0.120409430861361D+03 -.372035808074585D+02 0.742482281836115D+02 0.336795082013321D+02
 0.476332460454750D+02 0.164660878026270D+02 -.391250985930410D+02 0.216106626781727D+02
 0.232601720490242D+03 0.146742346322617D+03 -.131005681657563D+02 0.179996164638273D+03
 0.279623124771720D+03 -.126004853317785D+03 -.220225614248142D+02 -.235286335517777D+03
 0.000000000000000D+00 0.000000000000000D+00 -.000000000000000D+00 0.000000000000000D+00
 0.891621903026299D+03 0.000000000000000D+00 0.000000000000000D+00 0.891621903026299D+03
 0.473048222117670D+03 0.000000000000000D+00 0.000000000000000D+00 -.473048222117670D+03
 0.186245596426571D+03 -.923273051348289D+02 0.136240837078224D+03 0.336795082013321D+02
 0.317002309995590D+02 0.220525289234171D+01 -.230872424450487D+02 0.216106626781727D+02
 0.206696857934478D+03 0.677748695828578D+02 0.757069273483230D+02 0.179996164638273D+03
 0.363051163217607D+03 -.241530760708663D+03 0.107898855922560D+03 -.235286335517777D+03
 0.576976276565755D+03 0.263877943368293D+03 -.296759377904058D+03 0.418573680908629D+03
0.116154051251D-04 0.000000000000D+00 0.000000000000D+00 0.152241201148D-05 0.000000000000D+00  7 -1 1 24 -11 11 -24 21 0 0.26249240D-01 0.10431723D+00 0.52091726D+05 0.52091726D+05 0.52091726D+05 0.11457331D+01  1  2  2  1  7  1       -1 0.499808492548D-03 0.100000000000D+01
-.520418738140D-06 0.000000000000D+00 -.446062140866D-07 0.152241201148D-05 0.000000000000D+00  7 -1 1 24 -11 11 -24 21 2 0.26249240D-01 0.10431723D+00 0.52091726D+05 0.52091726D+05 0.52091726D+05 0.11457331D+01  1  2  3  1  7  1       -1 -.293960594485D-04 0.100000000000D+01
0.712503571171D-06 0.000000000000D+00 0.000000000000D+00 0.152241201148D-05 0.000000000000D+00  7 -1 1 24 -11 11 -24 21 2 0.26249240D-01 0.10431723D+00 0.52091726D+05 0.52091726D+05 0.52091726D+05 0.11457331D+01  1  2 15  1  7  1       -1 0.402460476544D-04 0.100000000000D+01
0.131625449102D-05 0.000000000000D+00 -.394243641749D-05 0.152241201148D-05 0.000000000000D+00  7 -1 1 24 -11 11 -24 21 2 0.90202192D-01 0.10431723D+00 0.52091726D+05 0.52091726D+05 0.52091726D+05 0.11457331D+01  1  2  5  1  7  1       -1 0.806441499689D-05 0.100000000000D+01
0.325219513027D-06 0.000000000000D+00 -.567596204593D-06 0.152241201148D-05 0.000000000000D+00  7 21 1 24 -11 11 -24 1 2 0.90202192D-01 0.10431723D+00 0.52091726D+05 0.52091726D+05 0.52091726D+05 0.11457331D+01  1  2  5  3  7  1       -1 0.151885695308D-04 0.100000000000D+01
  </mgrwgt>
  </event>
</LesHouchesEvents>
