<event>
12    6  0.1569942E-007  0.1617904E+04  0.7818608E-02  0.8809624E-01
         -3   -1    0    0    0  501 -0.00000000000E+00  0.00000000000E+00  0.19851298275E+04  0.19851298275E+04  0.00000000000E+00 0.  1.
          4   -1    0    0  501    0  0.00000000000E+00 -0.00000000000E+00 -0.32965250678E+03  0.32965250678E+03  0.00000000000E+00 0. -1.
         24    2    1    2    0    0 -0.17958449888E+03 -0.27301488490E+02 -0.17551214735E+03  0.26482743897E+03  0.79580745502E+02 0.  0.
        254    2    1    2    0    0  0.17958449888E+03  0.27301488490E+02  0.18309894681E+04  0.20499548954E+04  0.90376804388E+03 0.  0.
         23    2    4    4    0    0 -0.90754237269E+02  0.23120549178E+03  0.16186918680E+04  0.16408177913E+04  0.10211439594E+03 0.  0.
         23    2    4    4    0    0  0.27033873614E+03 -0.20390400329E+03  0.21229760014E+03  0.40913710404E+03  0.87538700355E+02 0.  0.
          2    1    3    3  502    0 -0.10385777125E+03 -0.50709699051E+02 -0.12781287171E+03  0.17231958798E+03  0.00000000000E+00 0. -1.
         -1    1    3    3    0  502 -0.75726727627E+02  0.23408210561E+02 -0.47699275643E+02  0.92507850994E+02  0.00000000000E+00 0.  1.
         11    1    5    5    0    0 -0.51675089355E+02  0.23615194191E+02  0.30392527706E+03  0.30919017819E+03  0.00000000000E+00 0.  1.
        -11    1    5    5    0    0 -0.39079147914E+02  0.20759029759E+03  0.13147665909E+04  0.13316276131E+04  0.00000000000E+00 0. -1.
          4    1    6    6  503    0  0.56033353969E+02 -0.73360927050E+02  0.93887114043E+02  0.13166758355E+03  0.00000000000E+00 0.  1.
         -4    1    6    6    0  503  0.21430538218E+03 -0.13054307624E+03  0.11841048610E+03  0.27746952049E+03  0.00000000000E+00 0. -1.
<mgrwt>
<rscale>  0 0.16179036E+04</rscale>
<asrwt>0</asrwt>
<pdfrwt beam="1">  1        4 0.50715771E-01 0.16179036E+04</pdfrwt>
<pdfrwt beam="2">  1       -3 0.30540458E+00 0.16179036E+04</pdfrwt>
<totfact> 0.29252927E-01</totfact>
</mgrwt>
</event>
<event>
12    6  0.1569942E-007  0.3699657E+04  0.7818608E-02  0.8068038E-01
         -1   -1    0    0    0  501 -0.00000000000E+00  0.00000000000E+00  0.14633575590E+04  0.14633575590E+04  0.00000000000E+00 0.  1.
          2   -1    0    0  501    0  0.00000000000E+00 -0.00000000000E+00 -0.23383662690E+04  0.23383662690E+04  0.00000000000E+00 0. -1.
         24    2    1    2    0    0  0.26645551307E+03  0.13428154194E+04 -0.15131491075E+04  0.20420326311E+04  0.78264000287E+02 0.  0.
        254    2    1    2    0    0 -0.26645551307E+03 -0.13428154194E+04  0.63814039754E+03  0.17596911969E+04  0.90285001549E+03 0.  0.
         23    2    4    4    0    0 -0.48746527799E+03 -0.81049771929E+03  0.81798477129E+02  0.95368803152E+03  0.91109386950E+02 0.  0.
         23    2    4    4    0    0  0.22100976493E+03 -0.53231770010E+03  0.55634192041E+03  0.80600316537E+03  0.88979324269E+02 0.  0.
          4    1    3    3  502    0  0.15476554218E+03  0.89637888312E+03 -0.10477981384E+04  0.13875620397E+04  0.00000000000E+00 0. -1.
         -3    1    3    3    0  502  0.11168997088E+03  0.44643653628E+03 -0.46535096913E+03  0.65447059138E+03  0.00000000000E+00 0.  1.
         11    1    5    5    0    0 -0.25367626326E+03 -0.34918640103E+03  0.11468429202E+02  0.43175723975E+03  0.00000000000E+00 0.  1.
        -11    1    5    5    0    0 -0.23378901473E+03 -0.46131131826E+03  0.70330047926E+02  0.52193079177E+03  0.00000000000E+00 0. -1.
          3    1    6    6  503    0  0.23485184002E+01 -0.12917372304E+02 -0.12948687067E+01  0.13192828767E+02  0.00000000000E+00 0. -1.
         -3    1    6    6    0  503  0.21866124653E+03 -0.51940032780E+03  0.55763678912E+03  0.79281033661E+03  0.00000000000E+00 0.  1.
<mgrwt>
<rscale>  0 0.36996573E+04</rscale>
<asrwt>0</asrwt>
<pdfrwt beam="1">  1        2 0.35974865E+00 0.36996573E+04</pdfrwt>
<pdfrwt beam="2">  1       -1 0.22513193E+00 0.36996573E+04</pdfrwt>
<totfact> 0.40293777E-01</totfact>
</mgrwt>
</event>
<event>
12    6  0.1569942E-007  0.2266425E+04  0.7818608E-02  0.8491278E-01
         -1   -1    0    0    0  501 -0.00000000000E+00  0.00000000000E+00  0.15460893618E+04  0.15460893618E+04  0.00000000000E+00 0.  1.
          2   -1    0    0  501    0  0.00000000000E+00 -0.00000000000E+00 -0.83059306810E+03  0.83059306810E+03  0.00000000000E+00 0. -1.
         24    2    1    2    0    0 -0.49731441580E+03 -0.41395850724E+03 -0.41484456306E+03  0.77240637986E+03  0.76369694714E+02 0.  0.
        254    2    1    2    0    0  0.49731441580E+03  0.41395850724E+03  0.11303408567E+04  0.16042760500E+04  0.93666852107E+03 0.  0.
         23    2    4    4    0    0  0.84368192911E+02  0.25107166724E+02  0.10093766915E+04  0.10171198172E+04  0.89123819908E+02 0.  0.
         23    2    4    4    0    0  0.41294622289E+03  0.38885134051E+03  0.12096416519E+03  0.58715623283E+03  0.91597840997E+02 0.  0.
          2    1    3    3  502    0 -0.49127106128E+03 -0.39142923600E+03 -0.40218773462E+03  0.74586800194E+03  0.00000000000E+00 0. -1.
         -3    1    3    3    0  502 -0.60433545237E+01 -0.22529271233E+02 -0.12656828443E+02  0.26538377917E+02  0.00000000000E+00 0.  1.
         11    1    5    5    0    0  0.28742983226E+02 -0.14931146120E+02  0.98932924115E+02  0.10410005612E+03  0.00000000000E+00 0. -1.
        -11    1    5    5    0    0  0.55625209685E+02  0.40038312844E+02  0.91044376742E+03  0.91301976105E+03  0.00000000000E+00 0.  1.
          3    1    6    6  503    0  0.25558980947E+03  0.26382017889E+03  0.11915053615E+03  0.38616588114E+03  0.00000000000E+00 0. -1.
         -3    1    6    6    0  503  0.15735641342E+03  0.12503116162E+03  0.18136290387E+01  0.20099035169E+03  0.00000000000E+00 0.  1.
<mgrwt>
<rscale>  0 0.22664255E+04</rscale>
<asrwt>0</asrwt>
<pdfrwt beam="1">  1        2 0.12778355E+00 0.22664255E+04</pdfrwt>
<pdfrwt beam="2">  1       -1 0.23785990E+00 0.22664255E+04</pdfrwt>
<totfact> 0.28444291E+00</totfact>
</mgrwt>
</event>
<event>
12    6  0.1569942E-007  0.2296782E+04  0.7818608E-02  0.8479191E-01
          2   -1    0    0  501    0  0.00000000000E+00  0.00000000000E+00  0.12382532335E+04  0.12382532335E+04  0.00000000000E+00 0. -1.
         -1   -1    0    0    0  501 -0.00000000000E+00 -0.00000000000E+00 -0.10650501654E+04  0.10650501654E+04  0.00000000000E+00 0.  1.
         24    2    1    2    0    0 -0.17567555394E+03 -0.92550955674E+03  0.29433342151E+03  0.98979674191E+03  0.75070549533E+02 0.  0.
        254    2    1    2    0    0  0.17567555394E+03  0.92550955674E+03 -0.12113035338E+03  0.13135066570E+04  0.90730222954E+03 0.  0.
         23    2    4    4    0    0 -0.12400808199E+03  0.94534050482E+03 -0.22382663292E+03  0.98342108416E+03  0.89286016319E+02 0.  0.
         23    2    4    4    0    0  0.29968363592E+03 -0.19830948081E+02  0.10269627954E+03  0.33008557289E+03  0.90589245816E+02 0.  0.
          2    1    3    3  502    0 -0.63877644717E+02 -0.43710762115E+03  0.17191992581E+03  0.47402519643E+03  0.00000000000E+00 0. -1.
         -1    1    3    3    0  502 -0.11179790922E+03 -0.48840193559E+03  0.12241349570E+03  0.51577154548E+03  0.00000000000E+00 0.  1.
         11    1    5    5    0    0 -0.39548502936E+02  0.55367473876E+03 -0.16012897760E+03  0.57772059847E+03  0.00000000000E+00 0. -1.
        -11    1    5    5    0    0 -0.84459579051E+02  0.39166576606E+03 -0.63697655322E+02  0.40570048569E+03  0.00000000000E+00 0.  1.
          4    1    6    6  503    0  0.18027848189E+03 -0.56016369516E+02  0.56739157371E+02  0.19712304955E+03  0.00000000000E+00 0. -1.
         -4    1    6    6    0  503  0.11940515404E+03  0.36185421435E+02  0.45957122166E+02  0.13296252334E+03  0.00000000000E+00 0.  1.
<mgrwt>
<rscale>  0 0.22967819E+04</rscale>
<asrwt>0</asrwt>
<pdfrwt beam="1">  1        2 0.19050050E+00 0.22967819E+04</pdfrwt>
<pdfrwt beam="2">  1       -1 0.16385387E+00 0.22967819E+04</pdfrwt>
<totfact> 0.50780000E+00</totfact>
</mgrwt>
</event>
<event>
12    6  0.1569942E-007  0.2265042E+04  0.7818608E-02  0.8491834E-01
          2   -1    0    0  501    0  0.00000000000E+00  0.00000000000E+00  0.84489744933E+03  0.84489744933E+03  0.00000000000E+00 0. -1.
         -1   -1    0    0    0  501 -0.00000000000E+00 -0.00000000000E+00 -0.15180580157E+04  0.15180580157E+04  0.00000000000E+00 0.  1.
         24    2    1    2    0    0 -0.16595853990E+03 -0.48428044120E+03 -0.11200594799E+04  0.12340386425E+04  0.79046504866E+02 0.  0.
        254    2    1    2    0    0  0.16595853990E+03  0.48428044120E+03  0.44689891356E+03  0.11289168225E+04  0.90147921248E+03 0.  0.
         23    2    4    4    0    0 -0.18315366426E+03  0.16839448682E+03  0.57486509934E+03  0.63242996997E+03  0.87153981895E+02 0.  0.
         23    2    4    4    0    0  0.34911220415E+03  0.31588595438E+03 -0.12796618577E+03  0.49648685255E+03  0.91981426332E+02 0.  0.
          4    1    3    3  502    0 -0.25131813372E+02 -0.57046493578E+02 -0.20693764999E+03  0.21612288508E+03  0.00000000000E+00 0. -1.
         -3    1    3    3    0  502 -0.14082672653E+03 -0.42723394762E+03 -0.91312182991E+03  0.10179157574E+04  0.00000000000E+00 0.  1.
         11    1    5    5    0    0 -0.83788621344E+02  0.96083331919E+02  0.19322544131E+03  0.23149214006E+03  0.00000000000E+00 0. -1.
        -11    1    5    5    0    0 -0.99365042912E+02  0.72311154902E+02  0.38163965803E+03  0.40093782992E+03  0.00000000000E+00 0.  1.
          3    1    6    6  503    0  0.16884530451E+02 -0.15564108453E+01 -0.16491649752E+02  0.23653420362E+02  0.00000000000E+00 0. -1.
         -3    1    6    6    0  503  0.33222767370E+03  0.31744236522E+03 -0.11147453602E+03  0.47283343218E+03  0.00000000000E+00 0.  1.
<mgrwt>
<rscale>  0 0.22650416E+04</rscale>
<asrwt>0</asrwt>
<pdfrwt beam="1">  1        2 0.12998423E+00 0.22650416E+04</pdfrwt>
<pdfrwt beam="2">  1       -1 0.23354738E+00 0.22650416E+04</pdfrwt>
<totfact> 0.29676654E+00</totfact>
</mgrwt>
</event>
<event>
12    6  0.1569942E-007  0.1596772E+04  0.7818608E-02  0.8822533E-01
         -1   -1    0    0    0  501 -0.00000000000E+00  0.00000000000E+00  0.71491136515E+03  0.71491136515E+03  0.00000000000E+00 0.  1.
          2   -1    0    0  501    0  0.00000000000E+00 -0.00000000000E+00 -0.89160766179E+03  0.89160766179E+03  0.00000000000E+00 0. -1.
         24    2    1    2    0    0  0.28156258492E+03 -0.40625402246E+03 -0.27719249866E+03  0.57241486271E+03  0.80642877828E+02 0.  0.
        254    2    1    2    0    0 -0.28156258492E+03  0.40625402246E+03  0.10049620202E+03  0.10341041642E+04  0.90274698331E+03 0.  0.
         23    2    4    4    0    0 -0.30669701717E+03  0.43599875634E+03 -0.30228047111E+03  0.62079921091E+03  0.99298545688E+02 0.  0.
         23    2    4    4    0    0  0.25134432245E+02 -0.29744733886E+02  0.40277667313E+03  0.41330495333E+03  0.84115677179E+02 0.  0.
          4    1    3    3  502    0  0.21502176243E+03 -0.26157349867E+03 -0.15889683601E+03  0.37403643942E+03  0.00000000000E+00 0. -1.
         -3    1    3    3    0  502  0.66540822493E+02 -0.14468052379E+03 -0.11829566266E+03  0.19837842328E+03  0.00000000000E+00 0.  1.
         11    1    5    5    0    0 -0.20466411405E+03  0.30317924331E+03 -0.15321793946E+03  0.39658642201E+03  0.00000000000E+00 0. -1.
        -11    1    5    5    0    0 -0.10203290312E+03  0.13281951303E+03 -0.14906253165E+03  0.22421278890E+03  0.00000000000E+00 0.  1.
          3    1    6    6  503    0  0.46016382250E+02 -0.44285483395E+02  0.33215173082E+03  0.33823584045E+03  0.00000000000E+00 0. -1.
         -3    1    6    6    0  503 -0.20881950005E+02  0.14540749509E+02  0.70624942310E+02  0.75069112880E+02  0.00000000000E+00 0.  1.
<mgrwt>
<rscale>  0 0.15967723E+04</rscale>
<asrwt>0</asrwt>
<pdfrwt beam="1">  1        2 0.13717041E+00 0.15967723E+04</pdfrwt>
<pdfrwt beam="2">  1       -1 0.10998636E+00 0.15967723E+04</pdfrwt>
<totfact> 0.24834607E+01</totfact>
</mgrwt>
</event>
<event>
12    6  0.1569942E-007  0.1474816E+04  0.7818608E-02  0.8901375E-01
          2   -1    0    0  501    0  0.00000000000E+00  0.00000000000E+00  0.40519199753E+04  0.40519199753E+04  0.00000000000E+00 0. -1.
         -1   -1    0    0    0  501 -0.00000000000E+00 -0.00000000000E+00 -0.13420076300E+03  0.13420076300E+03  0.00000000000E+00 0.  1.
         24    2    1    2    0    0  0.19614001696E+03 -0.28529740902E+03  0.37391789420E+03  0.51580125509E+03  0.79817449854E+02 0.  0.
        254    2    1    2    0    0 -0.19614001696E+03  0.28529740902E+03  0.35438013181E+04  0.36703194832E+04  0.89042226428E+03 0.  0.
         23    2    4    4    0    0 -0.43144699509E+03  0.11024470030E+03  0.30828809129E+04  0.31162626479E+04  0.92939570604E+02 0.  0.
         23    2    4    4    0    0  0.23530697813E+03  0.17505270872E+03  0.46092040512E+03  0.55405683526E+03  0.92295894072E+02 0.  0.
          4    1    3    3  502    0  0.98459843191E+02 -0.94232632967E+02  0.10669401013E+03  0.17308304838E+03  0.00000000000E+00 0. -1.
         -3    1    3    3    0  502  0.97680173773E+02 -0.19106477606E+03  0.26722388407E+03  0.34271820672E+03  0.00000000000E+00 0.  1.
         11    1    5    5    0    0 -0.43398615082E+03  0.11104344493E+03  0.30797234416E+04  0.31121328864E+04  0.00000000000E+00 0.  1.
        -11    1    5    5    0    0  0.25391557347E+01 -0.79874462673E+00  0.31574713067E+01  0.41297614793E+01  0.00000000000E+00 0. -1.
          1    1    6    6  503    0  0.18335538469E+03  0.12256465970E+03  0.40595400546E+03  0.46199561410E+03  0.00000000000E+00 0. -1.
         -1    1    6    6    0  503  0.51951593434E+02  0.52488049016E+02  0.54966399663E+02  0.92061221162E+02  0.00000000000E+00 0.  1.
<mgrwt>
<rscale>  0 0.14748163E+04</rscale>
<asrwt>0</asrwt>
<pdfrwt beam="1">  1        2 0.62337221E+00 0.14748163E+04</pdfrwt>
<pdfrwt beam="2">  1       -1 0.20646274E-01 0.14748163E+04</pdfrwt>
<totfact> 0.68066818E+00</totfact>
</mgrwt>
</event>
<event>
12    6  0.1569942E-007  0.1293178E+04  0.7818608E-02  0.9034992E-01
          2   -1    0    0  501    0  0.00000000000E+00  0.00000000000E+00  0.19719995528E+04  0.19719995528E+04  0.00000000000E+00 0. -1.
         -1   -1    0    0    0  501 -0.00000000000E+00 -0.00000000000E+00 -0.21200694479E+03  0.21200694479E+03  0.00000000000E+00 0.  1.
         24    2    1    2    0    0  0.20684089546E+03  0.18224873726E+03  0.72556831956E+03  0.78046116080E+03  0.81685242775E+02 0.  0.
        254    2    1    2    0    0 -0.20684089546E+03 -0.18224873726E+03  0.10344242884E+04  0.14035453368E+04  0.90769386117E+03 0.  0.
         23    2    4    4    0    0 -0.14799356965E+03 -0.49743046360E+03  0.32550037600E+03  0.61928776355E+03  0.90706540726E+02 0.  0.
         23    2    4    4    0    0 -0.58847325813E+02  0.31518172634E+03  0.70892391242E+03  0.78425757321E+03  0.98408836826E+02 0.  0.
          2    1    3    3  502    0  0.17237218597E+03  0.14374319343E+03  0.65909731187E+03  0.69626398921E+03  0.00000000000E+00 0. -1.
         -3    1    3    3    0  502  0.34468709492E+02  0.38505543828E+02  0.66471007698E+02  0.84197171591E+02  0.00000000000E+00 0.  1.
         11    1    5    5    0    0 -0.92114883353E+02 -0.19666698339E+03  0.17195880697E+03  0.27700701324E+03  0.00000000000E+00 0. -1.
        -11    1    5    5    0    0 -0.55878686295E+02 -0.30076348021E+03  0.15354156903E+03  0.34228075031E+03  0.00000000000E+00 0.  1.
          4    1    6    6  503    0  0.22337360795E+02  0.47789907383E+02  0.15694487739E+03  0.16557332959E+03  0.00000000000E+00 0. -1.
         -4    1    6    6    0  503 -0.81184686608E+02  0.26739181896E+03  0.55197903503E+03  0.61868424361E+03  0.00000000000E+00 0.  1.
<mgrwt>
<rscale>  0 0.12931784E+04</rscale>
<asrwt>0</asrwt>
<pdfrwt beam="1">  1        2 0.30338454E+00 0.12931784E+04</pdfrwt>
<pdfrwt beam="2">  1       -1 0.32616454E-01 0.12931784E+04</pdfrwt>
<totfact> 0.68143879E+01</totfact>
</mgrwt>
</event>
<event>
12    6  0.1569942E-007  0.2064721E+04  0.7818608E-02  0.8576945E-01
         -1   -1    0    0    0  501 -0.00000000000E+00  0.00000000000E+00  0.11753988134E+04  0.11753988134E+04  0.00000000000E+00 0.  1.
          2   -1    0    0  501    0  0.00000000000E+00 -0.00000000000E+00 -0.90672896752E+03  0.90672896752E+03  0.00000000000E+00 0. -1.
         24    2    1    2    0    0 -0.52630415927E+03 -0.31415469374E+03 -0.38038877940E+03  0.72637994472E+03  0.85105587004E+02 0.  0.
        254    2    1    2    0    0  0.52630415927E+03  0.31415469374E+03  0.64905862525E+03  0.13557478362E+04  0.10203361488E+04 0.  0.
         23    2    4    4    0    0  0.81833707189E+03  0.14921647824E+03  0.51879060971E+03  0.98427596439E+03  0.87831411003E+02 0.  0.
         23    2    4    4    0    0 -0.29203291262E+03  0.16493821550E+03  0.13026801555E+03  0.37147187177E+03  0.92378345184E+02 0.  0.
          2    1    3    3  502    0 -0.43428701842E+03 -0.28962033045E+03 -0.33982316245E+03  0.62286831025E+03  0.00000000000E+00 0. -1.
         -1    1    3    3    0  502 -0.92017140853E+02 -0.24534363287E+02 -0.40565616949E+02  0.10351163447E+03  0.00000000000E+00 0.  1.
         11    1    5    5    0    0  0.48029431148E+03  0.10010481833E+03  0.35411219307E+03  0.60506119159E+03  0.00000000000E+00 0.  1.
        -11    1    5    5    0    0  0.33804276041E+03  0.49111659910E+02  0.16467841664E+03  0.37921477280E+03  0.00000000000E+00 0. -1.
          4    1    6    6  503    0 -0.18581855794E+03  0.89881760360E+02  0.12498757533E+03  0.24130719282E+03  0.00000000000E+00 0. -1.
         -4    1    6    6    0  503 -0.10621435468E+03  0.75056455136E+02  0.52804402181E+01  0.13016467895E+03  0.00000000000E+00 0.  1.
<mgrwt>
<rscale>  0 0.20647210E+04</rscale>
<asrwt>0</asrwt>
<pdfrwt beam="1">  1        2 0.13949676E+00 0.20647210E+04</pdfrwt>
<pdfrwt beam="2">  1       -1 0.18083059E+00 0.20647210E+04</pdfrwt>
<totfact> 0.62799089E+00</totfact>
</mgrwt>
</event>
<event>
12    6  0.1569942E-007  0.1882254E+04  0.7818608E-02  0.8663740E-01
          2   -1    0    0  501    0  0.00000000000E+00  0.00000000000E+00  0.19606969111E+04  0.19606969111E+04  0.00000000000E+00 0. -1.
         -1   -1    0    0    0  501 -0.00000000000E+00 -0.00000000000E+00 -0.45173758625E+03  0.45173758625E+03  0.00000000000E+00 0.  1.
         24    2    1    2    0    0  0.62301823702E+03 -0.32668756189E+03  0.36670531453E+03  0.79729719598E+03  0.79583567748E+02 0.  0.
        254    2    1    2    0    0 -0.62301823702E+03  0.32668756189E+03  0.11422540103E+04  0.16151373014E+04  0.89947083967E+03 0.  0.
         23    2    4    4    0    0 -0.71469894939E+03  0.49276367950E+03  0.10924702977E+04  0.13983213360E+04  0.90557027279E+02 0.  0.
         23    2    4    4    0    0  0.91680712367E+02 -0.16607611761E+03  0.49783712614E+02  0.21681596539E+03  0.92434381842E+02 0.  0.
          2    1    3    3  502    0  0.16672385860E+03 -0.85245238647E+02  0.59068013570E+02  0.19634822629E+03  0.00000000000E+00 0. -1.
         -1    1    3    3    0  502  0.45629437842E+03 -0.24144232325E+03  0.30763730096E+03  0.60094896970E+03  0.00000000000E+00 0.  1.
         11    1    5    5    0    0 -0.55437894445E+03  0.42256106100E+03  0.89573971175E+03  0.11350081478E+04  0.00000000000E+00 0.  1.
        -11    1    5    5    0    0 -0.16032000494E+03  0.70202618499E+02  0.19673058597E+03  0.26331318821E+03  0.00000000000E+00 0. -1.
          2    1    6    6  503    0  0.59121577444E+02 -0.28330462081E+02  0.35505785260E+02  0.74556265921E+02  0.00000000000E+00 0. -1.
         -2    1    6    6    0  503  0.32559134923E+02 -0.13774565553E+03  0.14277927355E+02  0.14225969947E+03  0.00000000000E+00 0.  1.
<mgrwt>
<rscale>  0 0.18822545E+04</rscale>
<asrwt>0</asrwt>
<pdfrwt beam="1">  1        2 0.30164567E+00 0.18822545E+04</pdfrwt>
<pdfrwt beam="2">  1       -1 0.69498091E-01 0.18822545E+04</pdfrwt>
<totfact> 0.15712857E+01</totfact>
</mgrwt>
</event>
<event>
12    6  0.1569942E-007  0.1095289E+04  0.7818608E-02  0.9209796E-01
          2   -1    0    0  501    0  0.00000000000E+00  0.00000000000E+00  0.18471438739E+04  0.18471438739E+04  0.00000000000E+00 0. -1.
         -1   -1    0    0    0  501 -0.00000000000E+00 -0.00000000000E+00 -0.16236647467E+03  0.16236647467E+03  0.00000000000E+00 0.  1.
         24    2    1    2    0    0  0.11926570555E+03  0.84339420318E+02  0.15440082991E+03  0.22936430111E+03  0.86202784205E+02 0.  0.
        254    2    1    2    0    0 -0.11926570555E+03 -0.84339420318E+02  0.15303765694E+04  0.17801460475E+04  0.89751326455E+03 0.  0.
         23    2    4    4    0    0 -0.38421095945E+03 -0.20218394170E+03  0.13603270186E+04  0.14309512812E+04  0.92927735501E+02 0.  0.
         23    2    4    4    0    0  0.26494525390E+03  0.11784452138E+03  0.17004955077E+03  0.34919476629E+03  0.94534735958E+02 0.  0.
          2    1    3    3  502    0  0.37777720053E+02  0.12983756717E+00  0.85384909681E+02  0.93368923050E+02  0.00000000000E+00 0. -1.
         -1    1    3    3    0  502  0.81487985497E+02  0.84209582751E+02  0.69015920230E+02  0.13599537806E+03  0.00000000000E+00 0.  1.
         11    1    5    5    0    0 -0.20922244720E+03 -0.16138386801E+03  0.82308047294E+03  0.86445372936E+03  0.00000000000E+00 0. -1.
        -11    1    5    5    0    0 -0.17498851226E+03 -0.40800073695E+02  0.53724654566E+03  0.56649755185E+03  0.00000000000E+00 0.  1.
          1    1    6    6  503    0  0.54399887099E+02  0.65033880377E+02  0.71036525159E+02  0.11061166855E+03  0.00000000000E+00 0. -1.
         -1    1    6    6    0  503  0.21054536681E+03  0.52810641007E+02  0.99013025611E+02  0.23858309774E+03  0.00000000000E+00 0.  1.
<mgrwt>
<rscale>  0 0.10952885E+04</rscale>
<asrwt>0</asrwt>
<pdfrwt beam="1">  1        2 0.28417597E+00 0.10952885E+04</pdfrwt>
<pdfrwt beam="2">  1       -1 0.24979459E-01 0.10952885E+04</pdfrwt>
<totfact> 0.12905118E+02</totfact>
</mgrwt>
</event>
<event>
12    6  0.1569942E-007  0.1214669E+04  0.7818608E-02  0.9100113E-01
         -1   -1    0    0    0  501 -0.00000000000E+00  0.00000000000E+00  0.45046657028E+03  0.45046657028E+03  0.00000000000E+00 0.  1.
          2   -1    0    0  501    0  0.00000000000E+00 -0.00000000000E+00 -0.81882970785E+03  0.81882970785E+03  0.00000000000E+00 0. -1.
         24    2    1    2    0    0  0.17600558834E+02 -0.12758288773E+02  0.19402241139E+03  0.20879743651E+03  0.74021076511E+02 0.  0.
        254    2    1    2    0    0 -0.17600558834E+02  0.12758288773E+02 -0.56238554897E+03  0.10604988416E+04  0.89883687830E+03 0.  0.
         23    2    4    4    0    0 -0.31925595365E+03 -0.29841690392E+03 -0.35772991912E+03  0.57211295492E+03  0.91463247609E+02 0.  0.
         23    2    4    4    0    0  0.30165539482E+03  0.31117519269E+03 -0.20465562985E+03  0.48838588670E+03  0.93866233201E+02 0.  0.
          4    1    3    3  502    0 -0.16384295872E+02  0.13096735705E+02  0.13101299533E+03  0.13268147792E+03  0.00000000000E+00 0. -1.
         -3    1    3    3    0  502  0.33984854706E+02 -0.25855024478E+02  0.63009416064E+02  0.76115958595E+02  0.00000000000E+00 0.  1.
         11    1    5    5    0    0 -0.29573353971E+03 -0.25302031412E+03 -0.34333682272E+03  0.51899689759E+03  0.00000000000E+00 0.  1.
        -11    1    5    5    0    0 -0.23522413944E+02 -0.45396589792E+02 -0.14393096404E+02  0.53116057333E+02  0.00000000000E+00 0. -1.
          1    1    6    6  503    0  0.59421592390E+02  0.22998296511E+02 -0.97384957806E+01  0.64456850564E+02  0.00000000000E+00 0. -1.
         -1    1    6    6    0  503  0.24223380243E+03  0.28817689618E+03 -0.19491713406E+03  0.42392903614E+03  0.00000000000E+00 0.  1.
<mgrwt>
<rscale>  0 0.12146694E+04</rscale>
<asrwt>0</asrwt>
<pdfrwt beam="1">  1        2 0.12597380E+00 0.12146694E+04</pdfrwt>
<pdfrwt beam="2">  1       -1 0.69302550E-01 0.12146694E+04</pdfrwt>
<totfact> 0.79158205E+01</totfact>
</mgrwt>
</event>
<event>
12    6  0.1569942E-007  0.1508562E+04  0.7818608E-02  0.8878779E-01
          2   -1    0    0  501    0  0.00000000000E+00  0.00000000000E+00  0.70484953570E+03  0.70484953570E+03  0.00000000000E+00 0. -1.
         -1   -1    0    0    0  501 -0.00000000000E+00 -0.00000000000E+00 -0.80717871057E+03  0.80717871057E+03  0.00000000000E+00 0.  1.
         24    2    1    2    0    0 -0.20255724141E+01 -0.45183887202E+03 -0.18517570286E+03  0.49476103252E+03  0.79598801260E+02 0.  0.
        254    2    1    2    0    0  0.20255724141E+01  0.45183887202E+03  0.82846527985E+02  0.10172672138E+04  0.90763790564E+03 0.  0.
         23    2    4    4    0    0 -0.94145392142E+02  0.83921568055E+02 -0.38034596639E+03  0.41135026520E+03  0.92950535652E+02 0.  0.
         23    2    4    4    0    0  0.96170964556E+02  0.36791730396E+03  0.46319249438E+03  0.60591694855E+03  0.89308816577E+02 0.  0.
          2    1    3    3  502    0  0.31598057898E+02 -0.89715948670E+02 -0.39085767715E+02  0.10283523689E+03  0.00000000000E+00 0. -1.
         -3    1    3    3    0  502 -0.33623630312E+02 -0.36212292335E+03 -0.14608993514E+03  0.39192579563E+03  0.00000000000E+00 0.  1.
         11    1    5    5    0    0 -0.97668329746E+02  0.29877897415E+02 -0.26184572263E+03  0.28106044519E+03  0.00000000000E+00 0. -1.
        -11    1    5    5    0    0  0.35229376039E+01  0.54043670641E+02 -0.11850024376E+03  0.13028982001E+03  0.00000000000E+00 0.  1.
          3    1    6    6  503    0  0.11289042938E+03  0.33336698484E+03  0.42421069304E+03  0.55121003956E+03  0.00000000000E+00 0. -1.
         -3    1    6    6    0  503 -0.16719464828E+02  0.34550319129E+02  0.38981801339E+02  0.54706908994E+02  0.00000000000E+00 0.  1.
<mgrwt>
<rscale>  0 0.15085616E+04</rscale>
<asrwt>0</asrwt>
<pdfrwt beam="1">  1        2 0.10843839E+00 0.15085616E+04</pdfrwt>
<pdfrwt beam="2">  1       -1 0.12418134E+00 0.15085616E+04</pdfrwt>
<totfact> 0.25486859E+01</totfact>
</mgrwt>
</event>
<event>
12    6  0.1569942E-007  0.1749700E+04  0.7818608E-02  0.8733516E-01
          2   -1    0    0  501    0  0.00000000000E+00  0.00000000000E+00  0.31387111620E+04  0.31387111620E+04  0.00000000000E+00 0. -1.
         -1   -1    0    0    0  501 -0.00000000000E+00 -0.00000000000E+00 -0.24384598578E+03  0.24384598578E+03  0.00000000000E+00 0.  1.
         24    2    1    2    0    0 -0.12437744718E+03 -0.39701497618E+03  0.19508920132E+04  0.19964619014E+04  0.82400460612E+02 0.  0.
        254    2    1    2    0    0  0.12437744718E+03  0.39701497618E+03  0.94397316303E+03  0.13860952464E+04  0.92578834452E+03 0.  0.
         23    2    4    4    0    0  0.14443380900E+03  0.13696197372E+03  0.10629399357E+04  0.10853752203E+04  0.92619406172E+02 0.  0.
         23    2    4    4    0    0 -0.20056361818E+02  0.26005300246E+03 -0.11896677270E+03  0.30072002611E+03  0.90827415259E+02 0.  0.
          2    1    3    3  502    0 -0.11594970008E+03 -0.39633594343E+03  0.18658415739E+04  0.19109922271E+04  0.00000000000E+00 0. -1.
         -1    1    3    3    0  502 -0.84277471032E+01 -0.67903274712E+00  0.85050439258E+02  0.85469674298E+02  0.00000000000E+00 0.  1.
         11    1    5    5    0    0  0.67546061541E+02  0.12303777883E+03  0.73204505004E+03  0.74537958165E+03  0.00000000000E+00 0.  1.
        -11    1    5    5    0    0  0.76887747462E+02  0.13924194890E+02  0.33089488568E+03  0.33999563862E+03  0.00000000000E+00 0. -1.
          2    1    6    6  503    0 -0.27686094291E+02  0.25074421712E+03 -0.87470543916E+02  0.26700239379E+03  0.00000000000E+00 0. -1.
         -2    1    6    6    0  503  0.76297324729E+01  0.93087853380E+01 -0.31496228781E+02  0.33717632324E+02  0.00000000000E+00 0.  1.
<mgrwt>
<rscale>  0 0.17496995E+04</rscale>
<asrwt>0</asrwt>
<pdfrwt beam="1">  1        2 0.48287861E+00 0.17496995E+04</pdfrwt>
<pdfrwt beam="2">  1       -1 0.37514769E-01 0.17496995E+04</pdfrwt>
<totfact> 0.10557439E+01</totfact>
</mgrwt>
</event>
<event>
12    6  0.1569942E-007  0.1678749E+04  0.7818608E-02  0.8773578E-01
          2   -1    0    0  501    0  0.00000000000E+00  0.00000000000E+00  0.14685621862E+04  0.14685621862E+04  0.00000000000E+00 0. -1.
         -1   -1    0    0    0  501 -0.00000000000E+00 -0.00000000000E+00 -0.47975440430E+03  0.47975440430E+03  0.00000000000E+00 0.  1.
         24    2    1    2    0    0 -0.47011209777E+03  0.86468284265E+02 -0.63179964563E+02  0.48933306748E+03  0.83504457123E+02 0.  0.
        254    2    1    2    0    0  0.47011209777E+03 -0.86468284265E+02  0.10519877464E+04  0.14589835230E+04  0.89077076346E+03 0.  0.
         23    2    4    4    0    0  0.69216890390E+03 -0.11321462316E+03  0.52987180202E+03  0.88334928521E+03  0.87329781155E+02 0.  0.
         23    2    4    4    0    0 -0.22205680614E+03  0.26746338898E+02  0.52211594442E+03  0.57563423777E+03  0.93408374813E+02 0.  0.
          2    1    3    3  502    0 -0.19856161192E+01  0.77622072072E+01  0.54652138531E+01  0.96986130225E+01  0.00000000000E+00 0. -1.
         -1    1    3    3    0  502 -0.46812648165E+03  0.78706077058E+02 -0.68645178416E+02  0.47963445446E+03  0.00000000000E+00 0.  1.
         11    1    5    5    0    0  0.32681395510E+03 -0.39118276966E+02  0.19716905613E+03  0.38368377284E+03  0.00000000000E+00 0. -1.
        -11    1    5    5    0    0  0.36535494880E+03 -0.74096346197E+02  0.33270274589E+03  0.49966551238E+03  0.00000000000E+00 0.  1.
          3    1    6    6  503    0 -0.16153896217E+03  0.53548123751E+02  0.42783746741E+03  0.46044232688E+03  0.00000000000E+00 0. -1.
         -3    1    6    6    0  503 -0.60517843970E+02 -0.26801784853E+02  0.94278477002E+02  0.11519191090E+03  0.00000000000E+00 0.  1.
<mgrwt>
<rscale>  0 0.16787486E+04</rscale>
<asrwt>0</asrwt>
<pdfrwt beam="1">  1        2 0.22593264E+00 0.16787486E+04</pdfrwt>
<pdfrwt beam="2">  1       -1 0.73808370E-01 0.16787486E+04</pdfrwt>
<totfact> 0.26556721E+01</totfact>
</mgrwt>
</event>
<event>
12    6  0.1569942E-007  0.1660773E+04  0.7818608E-02  0.8784059E-01
          2   -1    0    0  501    0  0.00000000000E+00  0.00000000000E+00  0.53466579055E+03  0.53466579055E+03  0.00000000000E+00 0. -1.
         -1   -1    0    0    0  501 -0.00000000000E+00 -0.00000000000E+00 -0.12896684521E+04  0.12896684521E+04  0.00000000000E+00 0.  1.
         24    2    1    2    0    0  0.17695444907E+03 -0.34065582181E+02 -0.86627036953E+03  0.88848787833E+03  0.80703258081E+02 0.  0.
        254    2    1    2    0    0 -0.17695444907E+03  0.34065582181E+02  0.11126770795E+03  0.93584636435E+03  0.91156709786E+03 0.  0.
         23    2    4    4    0    0  0.27143855687E+03 -0.25735318044E+03  0.53439017297E+02  0.38990809005E+03  0.96244690651E+02 0.  0.
         23    2    4    4    0    0 -0.44839300594E+03  0.29141876262E+03  0.57828690656E+02  0.54593827430E+03  0.93398388093E+02 0.  0.
          4    1    3    3  502    0  0.41191005495E+02 -0.30056421817E+02 -0.12718431996E+03  0.13702532127E+03  0.00000000000E+00 0. -1.
         -3    1    3    3    0  502  0.13576344357E+03 -0.40091603631E+01 -0.73908604958E+03  0.75146255706E+03  0.00000000000E+00 0.  1.
         11    1    5    5    0    0  0.19457868801E+03 -0.23636598022E+03  0.35169585051E+02  0.30816658181E+03  0.00000000000E+00 0. -1.
        -11    1    5    5    0    0  0.76859868862E+02 -0.20987200219E+02  0.18269432245E+02  0.81741508239E+02  0.00000000000E+00 0.  1.
          3    1    6    6  503    0 -0.14209078242E+03  0.66572535992E+02 -0.19684859118E+02  0.15814293116E+03  0.00000000000E+00 0.  1.
         -3    1    6    6    0  503 -0.30630222352E+03  0.22484622663E+03  0.77513549774E+02  0.38779534314E+03  0.00000000000E+00 0. -1.
<mgrwt>
<rscale>  0 0.16607728E+04</rscale>
<asrwt>0</asrwt>
<pdfrwt beam="1">  1        2 0.82256275E-01 0.16607728E+04</pdfrwt>
<pdfrwt beam="2">  1       -1 0.19841053E+00 0.16607728E+04</pdfrwt>
<totfact> 0.95830248E+00</totfact>
</mgrwt>
</event>
<event>
12    6  0.1569942E-007  0.1869281E+04  0.7818608E-02  0.8670300E-01
         -1   -1    0    0    0  501 -0.00000000000E+00  0.00000000000E+00  0.27436939187E+03  0.27436939187E+03  0.00000000000E+00 0.  1.
          2   -1    0    0  501    0  0.00000000000E+00 -0.00000000000E+00 -0.31838565346E+04  0.31838565346E+04  0.00000000000E+00 0. -1.
         24    2    1    2    0    0 -0.48845497807E+03 -0.37750836124E+03 -0.18004130245E+04  0.19049832956E+04  0.79834012072E+02 0.  0.
        254    2    1    2    0    0  0.48845497807E+03  0.37750836124E+03 -0.11090741183E+04  0.15532426309E+04  0.89521865605E+03 0.  0.
         23    2    4    4    0    0 -0.35906530008E+02 -0.24715164683E+03 -0.23843870641E+03  0.35713434950E+03  0.91206970411E+02 0.  0.
         23    2    4    4    0    0  0.52436150808E+03  0.62466000807E+03 -0.87063541185E+03  0.11961082814E+04  0.86682660004E+02 0.  0.
          2    1    3    3  502    0 -0.42374076642E+03 -0.29813266472E+03 -0.14434223149E+04  0.15335929388E+04  0.00000000000E+00 0. -1.
         -1    1    3    3    0  502 -0.64714211648E+02 -0.79375696515E+02 -0.35699070963E+03  0.37139035683E+03  0.00000000000E+00 0.  1.
         11    1    5    5    0    0 -0.52393218035E+02 -0.23725938993E+03 -0.23414736524E+03  0.33743452113E+03  0.00000000000E+00 0.  1.
        -11    1    5    5    0    0  0.16486688027E+02 -0.98922569034E+01 -0.42913411755E+01  0.19699828371E+02  0.00000000000E+00 0. -1.
          2    1    6    6  503    0  0.44437927642E+03  0.52443483725E+03 -0.68445297000E+03  0.97004160116E+03  0.00000000000E+00 0.  1.
         -2    1    6    6    0  503  0.79982231657E+02  0.10022517082E+03 -0.18618244184E+03  0.22606668020E+03  0.00000000000E+00 0. -1.
<mgrwt>
<rscale>  0 0.18692809E+04</rscale>
<asrwt>0</asrwt>
<pdfrwt beam="1">  1        2 0.48982407E+00 0.18692809E+04</pdfrwt>
<pdfrwt beam="2">  1       -1 0.42210677E-01 0.18692809E+04</pdfrwt>
<totfact> 0.78687473E+00</totfact>
</mgrwt>
</event>
<event>
12    6  0.1569942E-007  0.1401192E+04  0.7818608E-02  0.8952956E-01
         -1   -1    0    0    0  501 -0.00000000000E+00  0.00000000000E+00  0.11329152841E+03  0.11329152841E+03  0.00000000000E+00 0.  1.
          2   -1    0    0  501    0  0.00000000000E+00 -0.00000000000E+00 -0.43324905424E+04  0.43324905424E+04  0.00000000000E+00 0. -1.
         24    2    1    2    0    0 -0.68483574063E+02  0.92752437491E+02 -0.26953338702E+02  0.14315232834E+03  0.80455528497E+02 0.  0.
        254    2    1    2    0    0  0.68483574063E+02 -0.92752437491E+02 -0.41922456753E+04  0.43026297425E+04  0.96146028739E+03 0.  0.
         23    2    4    4    0    0  0.23538296301E+03  0.31053834515E+03 -0.96367419661E+03  0.10434805066E+04  0.91347728131E+02 0.  0.
         23    2    4    4    0    0 -0.16689938894E+03 -0.40329078264E+03 -0.32285714787E+04  0.32591492358E+04  0.88775487066E+02 0.  0.
          4    1    3    3  502    0 -0.73992185776E+02  0.10134505931E+03 -0.34868400524E+02  0.13023620832E+03  0.00000000000E+00 0. -1.
         -3    1    3    3    0  502  0.55086117125E+01 -0.85926218204E+01  0.79150618227E+01  0.12916120021E+02  0.00000000000E+00 0.  1.
         11    1    5    5    0    0  0.98247090938E+01 -0.47144387991E+01 -0.14002983613E+02  0.17743573260E+02  0.00000000000E+00 0. -1.
        -11    1    5    5    0    0  0.22555825391E+03  0.31525278395E+03 -0.94967121299E+03  0.10257369334E+04  0.00000000000E+00 0.  1.
          3    1    6    6  503    0 -0.59373133406E+02 -0.59874564486E+02 -0.71311087836E+03  0.71807886564E+03  0.00000000000E+00 0. -1.
         -3    1    6    6    0  503 -0.10752625554E+03 -0.34341621816E+03 -0.25154606003E+04  0.25410703702E+04  0.00000000000E+00 0.  1.
<mgrwt>
<rscale>  0 0.14011916E+04</rscale>
<asrwt>0</asrwt>
<pdfrwt beam="1">  1        2 0.66653705E+00 0.14011916E+04</pdfrwt>
<pdfrwt beam="2">  1       -1 0.17429465E-01 0.14011916E+04</pdfrwt>
<totfact> 0.52414599E+00</totfact>
</mgrwt>
</event>
<event>
12    6  0.1569942E-007  0.1728863E+04  0.7818608E-02  0.8745072E-01
          2   -1    0    0  501    0  0.00000000000E+00  0.00000000000E+00  0.61842975854E+03  0.61842975854E+03  0.00000000000E+00 0. -1.
         -1   -1    0    0    0  501 -0.00000000000E+00 -0.00000000000E+00 -0.12082883889E+04  0.12082883889E+04  0.00000000000E+00 0.  1.
         24    2    1    2    0    0  0.31470270473E+03  0.53522501883E+03 -0.17598978886E+03  0.64987936695E+03  0.76597471611E+02 0.  0.
        254    2    1    2    0    0 -0.31470270473E+03 -0.53522501883E+03 -0.41386884149E+03  0.11768387805E+04  0.91003213356E+03 0.  0.
         23    2    4    4    0    0  0.22353887925E+03 -0.11401769373E+03  0.13181092182E+03  0.29748483147E+03  0.90296405375E+02 0.  0.
         23    2    4    4    0    0 -0.53824158399E+03 -0.42120732510E+03 -0.54567976331E+03  0.87935394900E+03  0.91527865087E+02 0.  0.
          2    1    3    3  502    0  0.29893872042E+03  0.49498238647E+03 -0.18206611430E+03  0.60623427111E+03  0.00000000000E+00 0. -1.
         -1    1    3    3    0  502  0.15763984313E+02  0.40242632356E+02  0.60763254442E+01  0.43645095844E+02  0.00000000000E+00 0.  1.
         11    1    5    5    0    0  0.22752757582E+03 -0.95472964245E+02  0.11538449132E+03  0.27239211717E+03  0.00000000000E+00 0.  1.
        -11    1    5    5    0    0 -0.39886965670E+01 -0.18544729486E+02  0.16426430498E+02  0.25092714299E+02  0.00000000000E+00 0. -1.
          4    1    6    6  503    0 -0.18037058235E+03 -0.14840416673E+03 -0.13302515255E+03  0.26879924645E+03  0.00000000000E+00 0. -1.
         -4    1    6    6    0  503 -0.35787100164E+03 -0.27280315837E+03 -0.41265461075E+03  0.61055470255E+03  0.00000000000E+00 0.  1.
<mgrwt>
<rscale>  0 0.17288626E+04</rscale>
<asrwt>0</asrwt>
<pdfrwt beam="1">  1        2 0.95143040E-01 0.17288626E+04</pdfrwt>
<pdfrwt beam="2">  1       -1 0.18589052E+00 0.17288626E+04</pdfrwt>
<totfact> 0.97917489E+00</totfact>
</mgrwt>
</event>
<event>
12    6  0.1569942E-007  0.2167106E+04  0.7818608E-02  0.8532245E-01
         -1   -1    0    0    0  501 -0.00000000000E+00  0.00000000000E+00  0.16041868040E+04  0.16041868040E+04  0.00000000000E+00 0.  1.
          2   -1    0    0  501    0  0.00000000000E+00 -0.00000000000E+00 -0.73188933945E+03  0.73188933945E+03  0.00000000000E+00 0. -1.
         24    2    1    2    0    0  0.76291863614E+03 -0.21131091810E+03 -0.81477589475E+02  0.79988839139E+03  0.80533791769E+02 0.  0.
        254    2    1    2    0    0 -0.76291863614E+03  0.21131091810E+03  0.95377505401E+03  0.15361877520E+04  0.90746284023E+03 0.  0.
         23    2    4    4    0    0 -0.61679135225E+03  0.51587968968E+03  0.84404600962E+03  0.11695645606E+04  0.94361902831E+02 0.  0.
         23    2    4    4    0    0 -0.14612728389E+03 -0.30456877158E+03  0.10972904438E+03  0.36662319141E+03  0.90866834315E+02 0.  0.
          2    1    3    3  502    0  0.72133226790E+03 -0.21268853852E+03 -0.63986094769E+02  0.75475219473E+03  0.00000000000E+00 0. -1.
         -1    1    3    3    0  502  0.41586368241E+02  0.13776204271E+01 -0.17491494705E+02  0.45136196656E+02  0.00000000000E+00 0.  1.
         11    1    5    5    0    0 -0.36035754170E+03  0.24200019035E+03  0.46967796500E+03  0.63954596456E+03  0.00000000000E+00 0. -1.
        -11    1    5    5    0    0 -0.25643381056E+03  0.27387949932E+03  0.37436804463E+03  0.53001859607E+03  0.00000000000E+00 0.  1.
          2    1    6    6  503    0 -0.30034930845E+02 -0.16348546875E+03  0.39243338575E+02  0.17079120348E+03  0.00000000000E+00 0. -1.
         -2    1    6    6    0  503 -0.11609235304E+03 -0.14108330282E+03  0.70485705809E+02  0.19583198792E+03  0.00000000000E+00 0.  1.
<mgrwt>
<rscale>  0 0.21671061E+04</rscale>
<asrwt>0</asrwt>
<pdfrwt beam="1">  1        2 0.11259836E+00 0.21671061E+04</pdfrwt>
<pdfrwt beam="2">  1       -1 0.24679797E+00 0.21671061E+04</pdfrwt>
<totfact> 0.29617731E+00</totfact>
</mgrwt>
</event>
<event>
12    6  0.1569942E-007  0.2455478E+04  0.7818608E-02  0.8419021E-01
          2   -1    0    0  501    0  0.00000000000E+00  0.00000000000E+00  0.33391138316E+04  0.33391138316E+04  0.00000000000E+00 0. -1.
         -1   -1    0    0    0  501 -0.00000000000E+00 -0.00000000000E+00 -0.45142006258E+03  0.45142006258E+03  0.00000000000E+00 0.  1.
         24    2    1    2    0    0  0.43853525207E+02 -0.32590103342E+03 -0.30638619203E+03  0.45650971528E+03  0.79962530092E+02 0.  0.
        254    2    1    2    0    0 -0.43853525207E+02  0.32590103342E+03  0.31940799610E+04  0.33340241789E+04  0.89746075828E+03 0.  0.
         23    2    4    4    0    0  0.29106498515E+03  0.31257190204E+02  0.23963541414E+04  0.24158709841E+04  0.90684084715E+02 0.  0.
         23    2    4    4    0    0 -0.33491851036E+03  0.29464384322E+03  0.79772581961E+03  0.91815319478E+03  0.87483729201E+02 0.  0.
          2    1    3    3  502    0  0.58982205977E+02 -0.14676354071E+03 -0.13138327853E+03  0.20562101882E+03  0.00000000000E+00 0. -1.
         -1    1    3    3    0  502 -0.15128680770E+02 -0.17913749271E+03 -0.17500291349E+03  0.25088869645E+03  0.00000000000E+00 0.  1.
         11    1    5    5    0    0  0.14006431672E+02  0.11001955120E+02  0.38640070554E+03  0.38681097242E+03  0.00000000000E+00 0. -1.
        -11    1    5    5    0    0  0.27705855348E+03  0.20255235084E+02  0.20099534359E+04  0.20290600117E+04  0.00000000000E+00 0.  1.
          2    1    6    6  503    0 -0.70440155756E+02  0.53715627838E+02  0.96886383710E+02  0.13127892278E+03  0.00000000000E+00 0. -1.
         -2    1    6    6    0  503 -0.26447835460E+03  0.24092821538E+03  0.70083943590E+03  0.78687427200E+03  0.00000000000E+00 0.  1.
<mgrwt>
<rscale>  0 0.24554779E+04</rscale>
<asrwt>0</asrwt>
<pdfrwt beam="1">  1        2 0.51370980E+00 0.24554779E+04</pdfrwt>
<pdfrwt beam="2">  1       -1 0.69449243E-01 0.24554779E+04</pdfrwt>
<totfact> 0.22409664E+00</totfact>
</mgrwt>
</event>
<event>
12    6  0.1569942E-007  0.2061539E+04  0.7818608E-02  0.8578377E-01
          2   -1    0    0  501    0  0.00000000000E+00  0.00000000000E+00  0.58083027957E+03  0.58083027957E+03  0.00000000000E+00 0. -1.
         -1   -1    0    0    0  501 -0.00000000000E+00 -0.00000000000E+00 -0.18292539403E+04  0.18292539403E+04  0.00000000000E+00 0.  1.
         24    2    1    2    0    0 -0.22318132521E+03 -0.56562429262E+02 -0.14480963848E+04  0.14697457209E+04  0.10079748051E+03 0.  0.
        254    2    1    2    0    0  0.22318132521E+03  0.56562429262E+02  0.19967272406E+03  0.94033849899E+03  0.88958309540E+03 0.  0.
         23    2    4    4    0    0 -0.11642715561E+03  0.38309724761E+03  0.20609490337E+03  0.45991685399E+03  0.93432433894E+02 0.  0.
         23    2    4    4    0    0  0.33960848082E+03 -0.32653481835E+03 -0.64221793067E+01  0.48042164500E+03  0.93833921138E+02 0.  0.
          4    1    3    3  502    0 -0.58952078086E+02 -0.62084144361E+02 -0.57209966465E+03  0.57847023673E+03  0.00000000000E+00 0. -1.
         -3    1    3    3    0  502 -0.16422924712E+03  0.55217150994E+01 -0.87599672016E+03  0.89127548417E+03  0.00000000000E+00 0.  1.
         11    1    5    5    0    0 -0.80015971782E+02  0.35220973866E+03  0.16572390329E+03  0.39738981853E+03  0.00000000000E+00 0.  1.
        -11    1    5    5    0    0 -0.36411183824E+02  0.30887508948E+02  0.40371000082E+02  0.62527035466E+02  0.00000000000E+00 0. -1.
          1    1    6    6  503    0  0.97144926919E+02 -0.78218475688E+02  0.38358311962E+02  0.13048611750E+03  0.00000000000E+00 0. -1.
         -1    1    6    6    0  503  0.24246355390E+03 -0.24831634266E+03 -0.44780491269E+02  0.34993552749E+03  0.00000000000E+00 0.  1.
<mgrwt>
<rscale>  0 0.20615393E+04</rscale>
<asrwt>0</asrwt>
<pdfrwt beam="1">  1        2 0.89358506E-01 0.20615393E+04</pdfrwt>
<pdfrwt beam="2">  1       -1 0.28142368E+00 0.20615393E+04</pdfrwt>
<totfact> 0.23731664E+00</totfact>
</mgrwt>
</event>
<event>
12    6  0.1569942E-007  0.1841142E+04  0.7818608E-02  0.8684722E-01
          2   -1    0    0  501    0  0.00000000000E+00  0.00000000000E+00  0.13591091956E+04  0.13591091956E+04  0.00000000000E+00 0. -1.
         -1   -1    0    0    0  501 -0.00000000000E+00 -0.00000000000E+00 -0.62353408772E+03  0.62353408772E+03  0.00000000000E+00 0.  1.
         24    2    1    2    0    0  0.44926661931E+02 -0.68150863423E+03  0.12214758245E+03  0.69835942540E+03  0.79457105829E+02 0.  0.
        254    2    1    2    0    0 -0.44926661931E+02  0.68150863423E+03  0.61342752539E+03  0.12842838579E+04  0.89811985571E+03 0.  0.
         23    2    4    4    0    0 -0.36275299058E+02  0.84936154336E+03  0.66897084250E+03  0.10855888410E+04  0.90830694327E+02 0.  0.
         23    2    4    4    0    0 -0.86513628732E+01 -0.16785290913E+03 -0.55543317111E+02  0.19869501684E+03  0.90250786465E+02 0.  0.
          2    1    3    3  502    0 -0.12674158773E+02 -0.30514146740E+03  0.31942581399E+02  0.30707047714E+03  0.00000000000E+00 0. -1.
         -1    1    3    3    0  502  0.57600820704E+02 -0.37636716683E+03  0.90205001048E+02  0.39128894826E+03  0.00000000000E+00 0.  1.
         11    1    5    5    0    0 -0.64862144834E+02  0.60522096562E+03  0.49282348259E+03  0.78318229044E+03  0.00000000000E+00 0. -1.
        -11    1    5    5    0    0  0.28586845776E+02  0.24414057773E+03  0.17614735991E+03  0.30240655061E+03  0.00000000000E+00 0.  1.
          3    1    6    6  503    0  0.38197586248E+02 -0.48079343613E+02 -0.26307455347E+02  0.66803900217E+02  0.00000000000E+00 0. -1.
         -3    1    6    6    0  503 -0.46848949121E+02 -0.11977356551E+03 -0.29235861765E+02  0.13189111662E+03  0.00000000000E+00 0.  1.
<mgrwt>
<rscale>  0 0.18411419E+04</rscale>
<asrwt>0</asrwt>
<pdfrwt beam="1">  1        2 0.20909372E+00 0.18411419E+04</pdfrwt>
<pdfrwt beam="2">  1       -1 0.95928321E-01 0.18411419E+04</pdfrwt>
<totfact> 0.17163395E+01</totfact>
</mgrwt>
</event>
<event>
12    6  0.1569942E-007  0.1559683E+04  0.7818608E-02  0.8845707E-01
         -1   -1    0    0    0  501 -0.00000000000E+00  0.00000000000E+00  0.33100209162E+03  0.33100209162E+03  0.00000000000E+00 0.  1.
          2   -1    0    0  501    0  0.00000000000E+00 -0.00000000000E+00 -0.18373067496E+04  0.18373067496E+04  0.00000000000E+00 0. -1.
         24    2    1    2    0    0  0.50103862982E+03 -0.11843417986E+03 -0.56670116744E+03  0.76972412255E+03  0.79111618140E+02 0.  0.
        254    2    1    2    0    0 -0.50103862982E+03  0.11843417986E+03 -0.93960349054E+03  0.13985847187E+04  0.89895391000E+03 0.  0.
         23    2    4    4    0    0 -0.30183097049E+03 -0.32108875565E+03 -0.16210184346E+03  0.47890658338E+03  0.94205011559E+02 0.  0.
         23    2    4    4    0    0 -0.19920765933E+03  0.43952293551E+03 -0.77750164708E+03  0.91967813528E+03  0.91842032472E+02 0.  0.
          2    1    3    3  502    0  0.24496845257E+03 -0.54726693945E+02 -0.21817561060E+03  0.33257352698E+03  0.00000000000E+00 0. -1.
         -1    1    3    3    0  502  0.25607017725E+03 -0.63707485919E+02 -0.34852555684E+03  0.43715059557E+03  0.00000000000E+00 0.  1.
         11    1    5    5    0    0 -0.22024462509E+03 -0.26402554275E+03 -0.88330241235E+02  0.35499213178E+03  0.00000000000E+00 0. -1.
        -11    1    5    5    0    0 -0.81586345395E+02 -0.57063212895E+02 -0.73771602227E+02  0.12391445160E+03  0.00000000000E+00 0.  1.
          1    1    6    6  503    0 -0.17933684606E+03  0.35140990532E+03 -0.68432993667E+03  0.78991017726E+03  0.00000000000E+00 0. -1.
         -1    1    6    6    0  503 -0.19870813276E+02  0.88113030188E+02 -0.93171710406E+02  0.12976795802E+03  0.00000000000E+00 0.  1.
<mgrwt>
<rscale>  0 0.15596825E+04</rscale>
<asrwt>0</asrwt>
<pdfrwt beam="1">  1        2 0.28266257E+00 0.15596825E+04</pdfrwt>
<pdfrwt beam="2">  1       -1 0.50923400E-01 0.15596825E+04</pdfrwt>
<totfact> 0.34940611E+01</totfact>
</mgrwt>
</event>
<event>
12    6  0.1569942E-007  0.2156004E+04  0.7818608E-02  0.8536966E-01
         -1   -1    0    0    0  501 -0.00000000000E+00  0.00000000000E+00  0.52348283619E+03  0.52348283619E+03  0.00000000000E+00 0.  1.
          2   -1    0    0  501    0  0.00000000000E+00 -0.00000000000E+00 -0.22199173868E+04  0.22199173868E+04  0.00000000000E+00 0. -1.
         24    2    1    2    0    0  0.29405872490E+02 -0.73030072213E+03 -0.58450751697E+02  0.73750713144E+03  0.79350037627E+02 0.  0.
        254    2    1    2    0    0 -0.29405872490E+02  0.73030072213E+03 -0.16379837989E+04  0.20058930915E+04  0.89800463200E+03 0.  0.
         23    2    4    4    0    0 -0.26348592196E+03  0.73197863103E+03 -0.75500283831E+03  0.10879201823E+04  0.91233161532E+02 0.  0.
         23    2    4    4    0    0  0.23408004947E+03 -0.16779088983E+01 -0.88298096057E+03  0.91797290925E+03  0.90678555587E+02 0.  0.
          2    1    3    3  502    0  0.98488962026E+01 -0.15533691304E+03 -0.45118778652E+02  0.16205635284E+03  0.00000000000E+00 0. -1.
         -1    1    3    3    0  502  0.19556976288E+02 -0.57496380910E+03 -0.13331973044E+02  0.57545077861E+03  0.00000000000E+00 0.  1.
         11    1    5    5    0    0 -0.14480586077E+03  0.52061997445E+03 -0.50293799253E+03  0.73821441292E+03  0.00000000000E+00 0. -1.
        -11    1    5    5    0    0 -0.11868006119E+03  0.21135865658E+03 -0.25206484578E+03  0.34970576935E+03  0.00000000000E+00 0.  1.
          4    1    6    6  503    0  0.17284910329E+03  0.34143358925E+01 -0.77197923224E+03  0.79110075541E+03  0.00000000000E+00 0. -1.
         -4    1    6    6    0  503  0.61230946182E+02 -0.50922447909E+01 -0.11100172833E+03  0.12687215384E+03  0.00000000000E+00 0.  1.
<mgrwt>
<rscale>  0 0.21560043E+04</rscale>
<asrwt>0</asrwt>
<pdfrwt beam="1">  1        2 0.34152575E+00 0.21560043E+04</pdfrwt>
<pdfrwt beam="2">  1       -1 0.80535822E-01 0.21560043E+04</pdfrwt>
<totfact> 0.80790834E+00</totfact>
</mgrwt>
</event>
<event>
12    6  0.1569942E-007  0.2905189E+04  0.7818608E-02  0.8271335E-01
          2   -1    0    0  501    0  0.00000000000E+00  0.00000000000E+00  0.71355162903E+03  0.71355162903E+03  0.00000000000E+00 0. -1.
         -1   -1    0    0    0  501 -0.00000000000E+00 -0.00000000000E+00 -0.29570818759E+04  0.29570818759E+04  0.00000000000E+00 0.  1.
         24    2    1    2    0    0 -0.95304282522E+03 -0.88100703776E+03 -0.91682067322E+03  0.15911364752E+04  0.81799196281E+02 0.  0.
        254    2    1    2    0    0  0.95304282522E+03  0.88100703776E+03 -0.13267095737E+04  0.20794970298E+04  0.93791554878E+03 0.  0.
         23    2    4    4    0    0 -0.15599770524E+03  0.42057067427E+02 -0.27862238881E+03  0.33578844565E+03  0.94970330771E+02 0.  0.
         23    2    4    4    0    0  0.11090405305E+04  0.83894997033E+03 -0.10480871849E+04  0.17437085841E+04  0.90691390408E+02 0.  0.
          2    1    3    3  502    0 -0.22788650542E+03 -0.17183217604E+03 -0.22394697919E+03  0.36278203589E+03  0.00000000000E+00 0. -1.
         -1    1    3    3    0  502 -0.72515631980E+03 -0.70917486173E+03 -0.69287369403E+03  0.12283544393E+04  0.00000000000E+00 0.  1.
         11    1    5    5    0    0 -0.35278891031E+02  0.84588871086E+01 -0.74103095507E+01  0.37027903143E+02  0.00000000000E+00 0.  1.
        -11    1    5    5    0    0 -0.12071881421E+03  0.33598180319E+02 -0.27121207926E+03  0.29876054251E+03  0.00000000000E+00 0. -1.
          3    1    6    6  503    0  0.10668136192E+04  0.82133372250E+03 -0.10269264581E+04  0.16932980636E+04  0.00000000000E+00 0. -1.
         -3    1    6    6    0  503  0.42226911249E+02  0.17616247830E+02 -0.21160726801E+02  0.50410520529E+02  0.00000000000E+00 0.  1.
<mgrwt>
<rscale>  0 0.29051889E+04</rscale>
<asrwt>0</asrwt>
<pdfrwt beam="1">  1        2 0.10977717E+00 0.29051889E+04</pdfrwt>
<pdfrwt beam="2">  1       -1 0.45493568E+00 0.29051889E+04</pdfrwt>
<totfact> 0.11753881E-01</totfact>
</mgrwt>
</event>
<event>
12    6  0.1569942E-007  0.2212498E+04  0.7818608E-02  0.8513244E-01
          2   -1    0    0  501    0  0.00000000000E+00  0.00000000000E+00  0.13898575062E+04  0.13898575062E+04  0.00000000000E+00 0. -1.
         -1   -1    0    0    0  501 -0.00000000000E+00 -0.00000000000E+00 -0.88051253972E+03  0.88051253972E+03  0.00000000000E+00 0.  1.
         24    2    1    2    0    0  0.12792404772E+03 -0.85915482072E+03  0.55411307225E+03  0.10332208640E+04  0.77411169097E+02 0.  0.
        254    2    1    2    0    0 -0.12792404772E+03  0.85915482072E+03 -0.44768105726E+02  0.12371491819E+04  0.87978539830E+03 0.  0.
         23    2    4    4    0    0  0.22307511765E+03 -0.14364269938E+01  0.14864359751E+03  0.28346596718E+03  0.92159991479E+02 0.  0.
         23    2    4    4    0    0 -0.35099916537E+03  0.86059124772E+03 -0.19341170324E+03  0.95368321473E+03  0.91026794803E+02 0.  0.
          2    1    3    3  502    0  0.11552458374E+03 -0.52016279807E+03  0.34133153250E+03  0.63278944447E+03  0.00000000000E+00 0. -1.
         -1    1    3    3    0  502  0.12399463976E+02 -0.33899202265E+03  0.21278153975E+03  0.40043141958E+03  0.00000000000E+00 0.  1.
         11    1    5    5    0    0  0.21522161137E+03 -0.18582421193E+02  0.11457592200E+03  0.24452666578E+03  0.00000000000E+00 0.  1.
        -11    1    5    5    0    0  0.78535062821E+01  0.17145994199E+02  0.34067675519E+02  0.38939301397E+02  0.00000000000E+00 0. -1.
          2    1    6    6  503    0 -0.57614068633E+02  0.76149965720E+02 -0.32400715640E+02  0.10083652393E+03  0.00000000000E+00 0. -1.
         -2    1    6    6    0  503 -0.29338509674E+03  0.78444128200E+03 -0.16101098760E+03  0.85284669081E+03  0.00000000000E+00 0.  1.
<mgrwt>
<rscale>  0 0.22124981E+04</rscale>
<asrwt>0</asrwt>
<pdfrwt beam="1">  1        2 0.21382423E+00 0.22124981E+04</pdfrwt>
<pdfrwt beam="2">  1       -1 0.13546347E+00 0.22124981E+04</pdfrwt>
<totfact> 0.69678408E+00</totfact>
</mgrwt>
</event>
<event>
12    6  0.1569942E-007  0.1484982E+04  0.7818608E-02  0.8894501E-01
          2   -1    0    0  501    0  0.00000000000E+00  0.00000000000E+00  0.87143106226E+03  0.87143106226E+03  0.00000000000E+00 0. -1.
         -1   -1    0    0    0  501 -0.00000000000E+00 -0.00000000000E+00 -0.63262947145E+03  0.63262947145E+03  0.00000000000E+00 0.  1.
         24    2    1    2    0    0 -0.13833736178E+03  0.22436152524E+03 -0.30302940866E+03  0.40944708276E+03  0.79654073302E+02 0.  0.
        254    2    1    2    0    0  0.13833736178E+03 -0.22436152524E+03  0.54183099947E+03  0.10946134510E+04  0.91385034625E+03 0.  0.
         23    2    4    4    0    0  0.97059411764E+02  0.31891793974E+03  0.38873250889E+03  0.52064511898E+03  0.93963794840E+02 0.  0.
         23    2    4    4    0    0  0.41277950019E+02 -0.54327946498E+03  0.15309849058E+03  0.57396833198E+03  0.95624536971E+02 0.  0.
          4    1    3    3  502    0 -0.23049763456E+02  0.68344929544E+02 -0.39557950006E+02  0.82262703569E+02  0.00000000000E+00 0. -1.
         -3    1    3    3    0  502 -0.11528759833E+03  0.15601659569E+03 -0.26347145865E+03  0.32718437919E+03  0.00000000000E+00 0.  1.
         11    1    5    5    0    0 -0.80010296668E+01  0.12401729886E+03  0.15539282408E+03  0.19897546750E+03  0.00000000000E+00 0. -1.
        -11    1    5    5    0    0  0.10506044143E+03  0.19490064089E+03  0.23333968482E+03  0.32166965148E+03  0.00000000000E+00 0.  1.
          4    1    6    6  503    0  0.52178440523E+02 -0.13873061622E+03  0.48850698347E+02  0.15606141182E+03  0.00000000000E+00 0. -1.
         -4    1    6    6    0  503 -0.10900490504E+02 -0.40454884876E+03  0.10424779223E+03  0.41790692016E+03  0.00000000000E+00 0.  1.
<mgrwt>
<rscale>  0 0.14849821E+04</rscale>
<asrwt>0</asrwt>
<pdfrwt beam="1">  1        2 0.13406632E+00 0.14849821E+04</pdfrwt>
<pdfrwt beam="2">  1       -1 0.97327610E-01 0.14849821E+04</pdfrwt>
<totfact> 0.34340174E+01</totfact>
</mgrwt>
</event>
<event>
12    6  0.1569942E-007  0.2123016E+04  0.7818608E-02  0.8551172E-01
          2   -1    0    0  501    0  0.00000000000E+00  0.00000000000E+00  0.10775946821E+04  0.10775946821E+04  0.00000000000E+00 0. -1.
         -1   -1    0    0    0  501 -0.00000000000E+00 -0.00000000000E+00 -0.10456617410E+04  0.10456617410E+04  0.00000000000E+00 0.  1.
         24    2    1    2    0    0 -0.64133508919E+03 -0.58502372214E+03 -0.21291334426E+02  0.87208694536E+03  0.80739502478E+02 0.  0.
        254    2    1    2    0    0  0.64133508919E+03  0.58502372214E+03  0.53224275494E+02  0.12511694778E+04  0.89946027512E+03 0.  0.
         23    2    4    4    0    0  0.15971676484E+03  0.34418238397E+03 -0.38721305040E+03  0.54968402301E+03  0.90816410079E+02 0.  0.
         23    2    4    4    0    0  0.48161832435E+03  0.24084133816E+03  0.44043732590E+03  0.70148545477E+03  0.90200025991E+02 0.  0.
          4    1    3    3  502    0 -0.47584328028E+03 -0.47158813290E+03 -0.36024619894E+02  0.67090980595E+03  0.00000000000E+00 0. -1.
         -3    1    3    3    0  502 -0.16549180891E+03 -0.11343558924E+03  0.14733285468E+02  0.20117713942E+03  0.00000000000E+00 0.  1.
         11    1    5    5    0    0  0.60803318997E+02  0.21244230099E+03 -0.18028129265E+03  0.28518436025E+03  0.00000000000E+00 0.  1.
        -11    1    5    5    0    0  0.98913445841E+02  0.13174008298E+03 -0.20693175775E+03  0.26449966275E+03  0.00000000000E+00 0. -1.
          4    1    6    6  503    0  0.45457442856E+03  0.24801091379E+03  0.42165405892E+03  0.66778699438E+03  0.00000000000E+00 0. -1.
         -4    1    6    6    0  503  0.27043895789E+02 -0.71695756257E+01  0.18783266976E+02  0.33698460386E+02  0.00000000000E+00 0.  1.
<mgrwt>
<rscale>  0 0.21230163E+04</rscale>
<asrwt>0</asrwt>
<pdfrwt beam="1">  1        2 0.16578380E+00 0.21230163E+04</pdfrwt>
<pdfrwt beam="2">  1       -1 0.16087104E+00 0.21230163E+04</pdfrwt>
<totfact> 0.67919354E+00</totfact>
</mgrwt>
</event>
<event>
12    6  0.1569942E-007  0.1122011E+04  0.7818608E-02  0.9184000E-01
         -1   -1    0    0    0  501 -0.00000000000E+00  0.00000000000E+00  0.70918773807E+03  0.70918773807E+03  0.00000000000E+00 0.  1.
          2   -1    0    0  501    0  0.00000000000E+00 -0.00000000000E+00 -0.44378558712E+03  0.44378558712E+03  0.00000000000E+00 0. -1.
         24    2    1    2    0    0 -0.10553966572E+03 -0.69220901875E+01  0.21206801686E+03  0.25077548555E+03  0.82030262766E+02 0.  0.
        254    2    1    2    0    0  0.10553966572E+03  0.69220901875E+01  0.53334134095E+02  0.90219783964E+03  0.89438798942E+03 0.  0.
         23    2    4    4    0    0 -0.23016108645E+03  0.17305494950E+03  0.31466153218E+03  0.43624537252E+03  0.91520511079E+02 0.  0.
         23    2    4    4    0    0  0.33570075217E+03 -0.16613285931E+03 -0.26132739809E+03  0.46595246711E+03  0.92328601559E+02 0.  0.
          4    1    3    3  502    0 -0.32957090740E+02  0.29415125653E+02  0.36321839094E+02  0.57189994251E+02  0.00000000000E+00 0. -1.
         -3    1    3    3    0  502 -0.72582574977E+02 -0.36337215840E+02  0.17574617776E+03  0.19358549130E+03  0.00000000000E+00 0.  1.
         11    1    5    5    0    0 -0.20083537169E+01  0.61053913745E+01 -0.59724305163E+01  0.87737799585E+01  0.00000000000E+00 0. -1.
        -11    1    5    5    0    0 -0.22815273274E+03  0.16694955812E+03  0.32063396270E+03  0.42747159256E+03  0.00000000000E+00 0.  1.
          3    1    6    6  503    0  0.44559153420E+02  0.18452884456E+01 -0.86081126960E+01  0.45420511304E+02  0.00000000000E+00 0. -1.
         -3    1    6    6    0  503  0.29114159875E+03 -0.16797814776E+03 -0.25271928539E+03  0.42053195581E+03  0.00000000000E+00 0.  1.
<mgrwt>
<rscale>  0 0.11220112E+04</rscale>
<asrwt>0</asrwt>
<pdfrwt beam="1">  1        2 0.68274705E-01 0.11220112E+04</pdfrwt>
<pdfrwt beam="2">  1       -1 0.10910581E+00 0.11220112E+04</pdfrwt>
<totfact> 0.62407838E+01</totfact>
</mgrwt>
</event>
<event>
12    6  0.1569942E-007  0.1276637E+04  0.7818608E-02  0.9048300E-01
         -1   -1    0    0    0  501 -0.00000000000E+00  0.00000000000E+00  0.65877745571E+03  0.65877745571E+03  0.00000000000E+00 0.  1.
          2   -1    0    0  501    0  0.00000000000E+00 -0.00000000000E+00 -0.61849495635E+03  0.61849495635E+03  0.00000000000E+00 0. -1.
         24    2    1    2    0    0 -0.10305942615E+03  0.17734903508E+03  0.23096122630E+03  0.31897972725E+03  0.79567913010E+02 0.  0.
        254    2    1    2    0    0  0.10305942615E+03 -0.17734903508E+03 -0.19067872694E+03  0.95829268482E+03  0.91645652778E+03 0.  0.
         23    2    4    4    0    0  0.11163098434E+02 -0.28871319655E+03 -0.51122152713E+03  0.59475239128E+03  0.94355882198E+02 0.  0.
         23    2    4    4    0    0  0.91896327716E+02  0.11136416147E+03  0.32054280019E+03  0.36354029354E+03  0.92557802288E+02 0.  0.
          4    1    3    3  502    0 -0.78920380531E+00  0.68872122021E+02  0.53549215505E+02  0.87243971227E+02  0.00000000000E+00 0. -1.
         -3    1    3    3    0  502 -0.10227022234E+03  0.10847691306E+03  0.17741201079E+03  0.23173575602E+03  0.00000000000E+00 0.  1.
         11    1    5    5    0    0  0.13336087784E+02 -0.21776731341E+03 -0.45355019155E+03  0.50329735772E+03  0.00000000000E+00 0. -1.
        -11    1    5    5    0    0 -0.21729893503E+01 -0.70945883138E+02 -0.57671335578E+02  0.91455033564E+02  0.00000000000E+00 0.  1.
          2    1    6    6  503    0  0.10943949707E+03  0.10673518009E+03  0.27731280857E+03  0.31665722159E+03  0.00000000000E+00 0. -1.
         -2    1    6    6    0  503 -0.17543169359E+02  0.46289813845E+01  0.43229991623E+02  0.46883071951E+02  0.00000000000E+00 0.  1.
<mgrwt>
<rscale>  0 0.12766370E+04</rscale>
<asrwt>0</asrwt>
<pdfrwt beam="1">  1        2 0.95153069E-01 0.12766370E+04</pdfrwt>
<pdfrwt beam="2">  1       -1 0.10135038E+00 0.12766370E+04</pdfrwt>
<totfact> 0.49580203E+01</totfact>
</mgrwt>
</event>
<event>
12    6  0.1569942E-007  0.2195151E+04  0.7818608E-02  0.8520449E-01
          2   -1    0    0  501    0  0.00000000000E+00  0.00000000000E+00  0.14842882096E+04  0.14842882096E+04  0.00000000000E+00 0. -1.
         -1   -1    0    0    0  501 -0.00000000000E+00 -0.00000000000E+00 -0.81161563411E+03  0.81161563411E+03  0.00000000000E+00 0.  1.
         24    2    1    2    0    0  0.75011934420E+03 -0.25359833886E+03 -0.19024215269E+03  0.81858739849E+03  0.83078904030E+02 0.  0.
        254    2    1    2    0    0 -0.75011934420E+03  0.25359833886E+03  0.86291472813E+03  0.14773164452E+04  0.90047259989E+03 0.  0.
         23    2    4    4    0    0 -0.65333809621E+02  0.40651685017E+03  0.92649357453E+02  0.43173080569E+03  0.91011697030E+02 0.  0.
         23    2    4    4    0    0 -0.68478553458E+03 -0.15291851130E+03  0.77026537068E+03  0.10455856395E+04  0.87322899467E+02 0.  0.
          4    1    3    3  502    0  0.43966053984E+02 -0.15960668442E+02  0.83392935370E+01  0.47511058257E+02  0.00000000000E+00 0. -1.
         -1    1    3    3    0  502  0.70615329021E+03 -0.23763767042E+03 -0.19858144623E+03  0.77107634023E+03  0.00000000000E+00 0.  1.
         11    1    5    5    0    0 -0.76348870459E+02  0.24200169128E+03  0.81266335707E+02  0.26645484781E+03  0.00000000000E+00 0.  1.
        -11    1    5    5    0    0  0.11015060838E+02  0.16451515889E+03  0.11383021746E+02  0.16527595788E+03  0.00000000000E+00 0. -1.
          2    1    6    6  503    0 -0.10394479526E+03  0.60603901615E+01  0.97154196119E+02  0.14240852016E+03  0.00000000000E+00 0. -1.
         -2    1    6    6    0  503 -0.58084073932E+03 -0.15897890146E+03  0.67311117456E+03  0.90317711933E+03  0.00000000000E+00 0.  1.
<mgrwt>
<rscale>  0 0.21951506E+04</rscale>
<asrwt>0</asrwt>
<pdfrwt beam="1">  1        2 0.22835203E+00 0.21951506E+04</pdfrwt>
<pdfrwt beam="2">  1       -1 0.12486394E+00 0.21951506E+04</pdfrwt>
<totfact> 0.75742534E+00</totfact>
</mgrwt>
</event>
<event>
12    6  0.1569942E-007  0.1517812E+04  0.7818608E-02  0.8872694E-01
         -1   -1    0    0    0  501 -0.00000000000E+00  0.00000000000E+00  0.19727538771E+03  0.19727538771E+03  0.00000000000E+00 0.  1.
          2   -1    0    0  501    0  0.00000000000E+00 -0.00000000000E+00 -0.29194650938E+04  0.29194650938E+04  0.00000000000E+00 0. -1.
         24    2    1    2    0    0  0.45247013741E+03  0.62019239571E+02 -0.12386879232E+04  0.13225927325E+04  0.79549692169E+02 0.  0.
        254    2    1    2    0    0 -0.45247013741E+03 -0.62019239571E+02 -0.14835017829E+04  0.17941477491E+04  0.89978497115E+03 0.  0.
         23    2    4    4    0    0 -0.16292815140E+03  0.28239814778E+03 -0.12769170351E+03  0.36272028979E+03  0.94691821656E+02 0.  0.
         23    2    4    4    0    0 -0.28954198601E+03 -0.34441738736E+03 -0.13558100794E+04  0.14314274593E+04  0.91135621146E+02 0.  0.
          4    1    3    3  502    0  0.41271479201E+03  0.78501086213E+02 -0.11391568914E+04  0.12141558151E+04  0.00000000000E+00 0. -1.
         -3    1    3    3    0  502  0.39755345401E+02 -0.16481846642E+02 -0.99531031821E+02  0.10843691739E+03  0.00000000000E+00 0.  1.
         11    1    5    5    0    0 -0.82410178844E+02  0.22771679379E+03 -0.91332985245E+02  0.25882057481E+03  0.00000000000E+00 0. -1.
        -11    1    5    5    0    0 -0.80517972553E+02  0.54681353996E+02 -0.36358718265E+02  0.10389971498E+03  0.00000000000E+00 0.  1.
          2    1    6    6  503    0 -0.14392367955E+03 -0.13412383490E+03 -0.71159001820E+03  0.73828421534E+03  0.00000000000E+00 0. -1.
         -2    1    6    6    0  503 -0.14561830646E+03 -0.21029355246E+03 -0.64422006118E+03  0.69314324393E+03  0.00000000000E+00 0.  1.
<mgrwt>
<rscale>  0 0.15178124E+04</rscale>
<asrwt>0</asrwt>
<pdfrwt beam="1">  1        2 0.44914845E+00 0.15178124E+04</pdfrwt>
<pdfrwt beam="2">  1       -1 0.30350061E-01 0.15178124E+04</pdfrwt>
<totfact> 0.21601822E+01</totfact>
</mgrwt>
</event>
<event>
12    6  0.1569942E-007  0.1818728E+04  0.7818608E-02  0.8696403E-01
         -1   -1    0    0    0  501 -0.00000000000E+00  0.00000000000E+00  0.30996680402E+03  0.30996680402E+03  0.00000000000E+00 0.  1.
          2   -1    0    0  501    0  0.00000000000E+00 -0.00000000000E+00 -0.26678441749E+04  0.26678441749E+04  0.00000000000E+00 0. -1.
         24    2    1    2    0    0 -0.20565896601E+03  0.61502178627E+03 -0.11122649675E+04  0.12899642608E+04  0.79542619776E+02 0.  0.
        254    2    1    2    0    0  0.20565896601E+03 -0.61502178627E+03 -0.12456124034E+04  0.16878467181E+04  0.93633801401E+03 0.  0.
         23    2    4    4    0    0 -0.60940806783E+02 -0.55054916458E+03 -0.12803368896E+04  0.13981932679E+04  0.94147218981E+02 0.  0.
         23    2    4    4    0    0  0.26659977279E+03 -0.64472621685E+02  0.34724486285E+02  0.28965345019E+03  0.86378084397E+02 0.  0.
          4    1    3    3  502    0 -0.14799058171E+03  0.36277026895E+03 -0.72730172522E+03  0.82611819967E+03  0.00000000000E+00 0. -1.
         -3    1    3    3    0  502 -0.57668384292E+02  0.25225151731E+03 -0.38496324232E+03  0.46384606117E+03  0.00000000000E+00 0.  1.
         11    1    5    5    0    0  0.23729072754E+02 -0.10022082025E+03 -0.26184192543E+03  0.28136893151E+03  0.00000000000E+00 0. -1.
        -11    1    5    5    0    0 -0.84669879536E+02 -0.45032834433E+03 -0.10184949642E+04  0.11168243364E+04  0.00000000000E+00 0.  1.
          2    1    6    6  503    0  0.59804304776E+02  0.40978783696E+01  0.39403728103E+02  0.71735634557E+02  0.00000000000E+00 0. -1.
         -2    1    6    6    0  503  0.20679546801E+03 -0.68570500054E+02 -0.46792418188E+01  0.21791781564E+03  0.00000000000E+00 0.  1.
<mgrwt>
<rscale>  0 0.18187283E+04</rscale>
<asrwt>0</asrwt>
<pdfrwt beam="1">  1        2 0.41043758E+00 0.18187283E+04</pdfrwt>
<pdfrwt beam="2">  1       -1 0.47687199E-01 0.18187283E+04</pdfrwt>
<totfact> 0.13102799E+01</totfact>
</mgrwt>
</event>
<event>
12    6  0.1569942E-007  0.1924429E+04  0.7818608E-02  0.8642791E-01
         -1   -1    0    0    0  501 -0.00000000000E+00  0.00000000000E+00  0.67502454881E+03  0.67502454881E+03  0.00000000000E+00 0.  1.
          2   -1    0    0  501    0  0.00000000000E+00 -0.00000000000E+00 -0.13715895513E+04  0.13715895513E+04  0.00000000000E+00 0. -1.
         24    2    1    2    0    0 -0.68380409348E+03  0.15642174166E+02 -0.58893743218E+03  0.90610185473E+03  0.79627609810E+02 0.  0.
        254    2    1    2    0    0  0.68380409348E+03 -0.15642174166E+02 -0.10762757034E+03  0.11405122454E+04  0.90628459776E+03 0.  0.
         23    2    4    4    0    0  0.86053110236E+03 -0.13231755686E+03 -0.19178223322E+03  0.89638796425E+03  0.93323327685E+02 0.  0.
         23    2    4    4    0    0 -0.17672700888E+03  0.11667538269E+03  0.84154662878E+02  0.24412428116E+03  0.87573265174E+02 0.  0.
          4    1    3    3  502    0 -0.53010179825E+03  0.21784016246E+02 -0.41261710653E+03  0.67211259210E+03  0.00000000000E+00 0. -1.
         -3    1    3    3    0  502 -0.15370229524E+03 -0.61418420802E+01 -0.17632032565E+03  0.23398926262E+03  0.00000000000E+00 0.  1.
         11    1    5    5    0    0  0.78241643755E+03 -0.14412744288E+03 -0.16166578514E+03  0.81183990270E+03  0.00000000000E+00 0. -1.
        -11    1    5    5    0    0  0.78114664812E+02  0.11809886017E+02 -0.30116448078E+02  0.84548061546E+02  0.00000000000E+00 0.  1.
          1    1    6    6  503    0 -0.13205992124E+03  0.12660689518E+03  0.73389765130E+02  0.19711718934E+03  0.00000000000E+00 0. -1.
         -1    1    6    6    0  503 -0.44667087633E+02 -0.99315124870E+01  0.10764897749E+02  0.47007091821E+02  0.00000000000E+00 0.  1.
<mgrwt>
<rscale>  0 0.19244289E+04</rscale>
<asrwt>0</asrwt>
<pdfrwt beam="1">  1        2 0.21101377E+00 0.19244289E+04</pdfrwt>
<pdfrwt beam="2">  1       -1 0.10384993E+00 0.19244289E+04</pdfrwt>
<totfact> 0.13982085E+01</totfact>
</mgrwt>
</event>
<event>
12    6  0.1569942E-007  0.1411901E+04  0.7818608E-02  0.8945249E-01
         -1   -1    0    0    0  501 -0.00000000000E+00  0.00000000000E+00  0.25928452254E+03  0.25928452254E+03  0.00000000000E+00 0.  1.
          2   -1    0    0  501    0  0.00000000000E+00 -0.00000000000E+00 -0.19220810873E+04  0.19220810873E+04  0.00000000000E+00 0. -1.
         24    2    1    2    0    0 -0.15879401617E+03  0.51278723697E+02  0.89033634611E+02  0.21140460128E+03  0.94445064855E+02 0.  0.
        254    2    1    2    0    0  0.15879401617E+03 -0.51278723697E+02 -0.17518301994E+04  0.19699610085E+04  0.88543338581E+03 0.  0.
         23    2    4    4    0    0  0.32888600175E+02 -0.87944584654E+02  0.64377542550E+02  0.14642339616E+03  0.92083836616E+02 0.  0.
         23    2    4    4    0    0  0.12590541600E+03  0.36665860957E+02 -0.18162077419E+04  0.18235376124E+04  0.97377116734E+02 0.  0.
          4    1    3    3  502    0 -0.24529564684E+02  0.50047245780E+01  0.61967496621E+02  0.66833505438E+02  0.00000000000E+00 0. -1.
         -3    1    3    3    0  502 -0.13426445149E+03  0.46273999119E+02  0.27066137990E+02  0.14457109585E+03  0.00000000000E+00 0.  1.
         11    1    5    5    0    0  0.32289912444E+02 -0.43319678745E+02 -0.14370390287E+02  0.55908327905E+02  0.00000000000E+00 0.  1.
        -11    1    5    5    0    0  0.59868773154E+00 -0.44624905909E+02  0.78747932838E+02  0.90515068252E+02  0.00000000000E+00 0. -1.
          3    1    6    6  503    0  0.13138090635E+03  0.11530020498E+02 -0.16594910490E+04  0.16647235283E+04  0.00000000000E+00 0. -1.
         -3    1    6    6    0  503 -0.54754903470E+01  0.25135840459E+02 -0.15671669289E+03  0.15881408408E+03  0.00000000000E+00 0.  1.
<mgrwt>
<rscale>  0 0.14119007E+04</rscale>
<asrwt>0</asrwt>
<pdfrwt beam="1">  1        2 0.29570478E+00 0.14119007E+04</pdfrwt>
<pdfrwt beam="2">  1       -1 0.39889927E-01 0.14119007E+04</pdfrwt>
<totfact> 0.50079521E+01</totfact>
</mgrwt>
</event>
<event>
12    6  0.1569942E-007  0.2217534E+04  0.7818608E-02  0.8511165E-01
         -1   -1    0    0    0  501 -0.00000000000E+00  0.00000000000E+00  0.67621249257E+03  0.67621249257E+03  0.00000000000E+00 0.  1.
          2   -1    0    0  501    0  0.00000000000E+00 -0.00000000000E+00 -0.18180150140E+04  0.18180150140E+04  0.00000000000E+00 0. -1.
         24    2    1    2    0    0 -0.87904819066E+03  0.12892546659E+03 -0.75733667597E+03  0.11701604140E+04  0.79806367187E+02 0.  0.
        254    2    1    2    0    0  0.87904819066E+03 -0.12892546659E+03 -0.38446584550E+03  0.13240670926E+04  0.90332285589E+03 0.  0.
         23    2    4    4    0    0  0.71908816505E+03  0.28467384389E+03 -0.90192693224E+02  0.78352972591E+03  0.87504988250E+02 0.  0.
         23    2    4    4    0    0  0.15996002561E+03 -0.41359931048E+03 -0.29427315228E+03  0.54053736671E+03  0.94511148741E+02 0.  0.
          4    1    3    3  502    0 -0.43564034857E+03  0.57257921178E+02 -0.42616327682E+03  0.61210793276E+03  0.00000000000E+00 0. -1.
         -3    1    3    3    0  502 -0.44340784209E+03  0.71667545414E+02 -0.33117339916E+03  0.55805248122E+03  0.00000000000E+00 0.  1.
         11    1    5    5    0    0  0.39581494167E+03  0.19984079684E+03 -0.67863915528E+02  0.44856585154E+03  0.00000000000E+00 0.  1.
        -11    1    5    5    0    0  0.32327322338E+03  0.84833047046E+02 -0.22328777695E+02  0.33496387438E+03  0.00000000000E+00 0. -1.
          3    1    6    6  503    0  0.16492993515E+03 -0.38255515787E+03 -0.29254396318E+03  0.50905039310E+03  0.00000000000E+00 0. -1.
         -3    1    6    6    0  503 -0.49699095428E+01 -0.31044152610E+02 -0.17291890959E+01  0.31486973610E+02  0.00000000000E+00 0.  1.
<mgrwt>
<rscale>  0 0.22175342E+04</rscale>
<asrwt>0</asrwt>
<pdfrwt beam="1">  1        2 0.27969462E+00 0.22175342E+04</pdfrwt>
<pdfrwt beam="2">  1       -1 0.10403269E+00 0.22175342E+04</pdfrwt>
<totfact> 0.76222235E+00</totfact>
</mgrwt>
</event>
<event>
12    6  0.1569942E-007  0.2515796E+04  0.7818608E-02  0.8397380E-01
         -1   -1    0    0    0  501 -0.00000000000E+00  0.00000000000E+00  0.48254462406E+03  0.48254462406E+03  0.00000000000E+00 0.  1.
          2   -1    0    0  501    0  0.00000000000E+00 -0.00000000000E+00 -0.32790893428E+04  0.32790893428E+04  0.00000000000E+00 0. -1.
         24    2    1    2    0    0 -0.41715910032E+03  0.45740293483E+03 -0.25615625067E+04  0.26364658866E+04  0.78171194582E+02 0.  0.
        254    2    1    2    0    0  0.41715910032E+03 -0.45740293483E+03 -0.23498221205E+03  0.11251680803E+04  0.90969632797E+03 0.  0.
         23    2    4    4    0    0 -0.24454938448E+03  0.45344513832E+02 -0.65521254355E+02  0.27216913843E+03  0.89008307229E+02 0.  0.
         23    2    4    4    0    0  0.66170848481E+03 -0.50274744866E+03 -0.16946095769E+03  0.85299894184E+03  0.90978363365E+02 0.  0.
          4    1    3    3  502    0 -0.38383504016E+03  0.39412109640E+03 -0.21868128092E+04  0.22549525580E+04  0.00000000000E+00 0. -1.
         -3    1    3    3    0  502 -0.33324060163E+02  0.63281838432E+02 -0.37474969755E+03  0.38151332857E+03  0.00000000000E+00 0.  1.
         11    1    5    5    0    0 -0.27218952980E+02 -0.22768271548E+02 -0.16800990364E+02  0.39262435837E+02  0.00000000000E+00 0. -1.
        -11    1    5    5    0    0 -0.21733043150E+03  0.68112785380E+02 -0.48720263991E+02  0.23290670259E+03  0.00000000000E+00 0.  1.
          1    1    6    6  503    0  0.27329119548E+03 -0.23604617992E+03 -0.33824354662E+02  0.36269817142E+03  0.00000000000E+00 0. -1.
         -1    1    6    6    0  503  0.38841728933E+03 -0.26670126874E+03 -0.13563660303E+03  0.49030077042E+03  0.00000000000E+00 0.  1.
<mgrwt>
<rscale>  0 0.25157956E+04</rscale>
<asrwt>0</asrwt>
<pdfrwt beam="1">  1        2 0.50447528E+00 0.25157956E+04</pdfrwt>
<pdfrwt beam="2">  1       -1 0.74237635E-01 0.25157956E+04</pdfrwt>
<totfact> 0.21292502E+00</totfact>
</mgrwt>
</event>
<event>
12    6  0.1569942E-007  0.2566386E+04  0.7818608E-02  0.8379710E-01
          2   -1    0    0  501    0  0.00000000000E+00  0.00000000000E+00  0.12756983206E+04  0.12756983206E+04  0.00000000000E+00 0. -1.
         -1   -1    0    0    0  501 -0.00000000000E+00 -0.00000000000E+00 -0.12907313360E+04  0.12907313360E+04  0.00000000000E+00 0.  1.
         24    2    1    2    0    0  0.45606389259E+03 -0.27030393434E+03  0.97093964785E+03  0.11090914333E+04  0.79382091869E+02 0.  0.
        254    2    1    2    0    0 -0.45606389259E+03  0.27030393434E+03 -0.98597266331E+03  0.14573382234E+04  0.93307776388E+03 0.  0.
         23    2    4    4    0    0 -0.14644223820E+03 -0.22229604175E+03 -0.78765410530E+03  0.83610195918E+03  0.88355176660E+02 0.  0.
         23    2    4    4    0    0 -0.30962165438E+03  0.49259997610E+03 -0.19831855801E+03  0.62123626418E+03  0.89910734457E+02 0.  0.
          2    1    3    3  502    0  0.27227089027E+03 -0.13693145391E+03  0.48664445502E+03  0.57419899544E+03  0.00000000000E+00 0. -1.
         -1    1    3    3    0  502  0.18379300232E+03 -0.13337248043E+03  0.48429519284E+03  0.53489243782E+03  0.00000000000E+00 0.  1.
         11    1    5    5    0    0 -0.37102996682E+02 -0.96269068985E+02 -0.41789652600E+03  0.43044380870E+03  0.00000000000E+00 0.  1.
        -11    1    5    5    0    0 -0.10933924152E+03 -0.12602697277E+03 -0.36975757930E+03  0.40565815048E+03  0.00000000000E+00 0. -1.
          1    1    6    6  503    0 -0.25165401656E+03  0.34867831923E+03 -0.11498065162E+03  0.44511443989E+03  0.00000000000E+00 0. -1.
         -1    1    6    6    0  503 -0.57967637820E+02  0.14392165687E+03 -0.83337906391E+02  0.17612182429E+03  0.00000000000E+00 0.  1.
<mgrwt>
<rscale>  0 0.25663856E+04</rscale>
<asrwt>0</asrwt>
<pdfrwt beam="1">  1        2 0.19626128E+00 0.25663856E+04</pdfrwt>
<pdfrwt beam="2">  1       -1 0.19857405E+00 0.25663856E+04</pdfrwt>
<totfact> 0.26581758E+00</totfact>
</mgrwt>
</event>
<event>
12    6  0.1569942E-007  0.1180915E+04  0.7818608E-02  0.9129727E-01
          2   -1    0    0  501    0  0.00000000000E+00  0.00000000000E+00  0.17764957941E+04  0.17764957941E+04  0.00000000000E+00 0. -1.
         -1   -1    0    0    0  501 -0.00000000000E+00 -0.00000000000E+00 -0.19625157816E+03  0.19625157816E+03  0.00000000000E+00 0.  1.
         24    2    1    2    0    0 -0.23180762338E+03 -0.77306313524E+02  0.27604227620E+03  0.37722527977E+03  0.79928299615E+02 0.  0.
        254    2    1    2    0    0  0.23180762338E+03  0.77306313524E+02  0.13042019398E+04  0.15955220925E+04  0.88602314173E+03 0.  0.
         23    2    4    4    0    0  0.97349012802E+01  0.38345289031E+03  0.10710145246E+04  0.11414039387E+04  0.92735926355E+02 0.  0.
         23    2    4    4    0    0  0.22207272210E+03 -0.30614657678E+03  0.23318741518E+03  0.45411815382E+03  0.93834464083E+02 0.  0.
          4    1    3    3  502    0 -0.17211066960E+03 -0.51087199804E+02  0.14468718758E+03  0.23057833121E+03  0.00000000000E+00 0. -1.
         -3    1    3    3    0  502 -0.59696953778E+02 -0.26219113720E+02  0.13135508862E+03  0.14664694856E+03  0.00000000000E+00 0.  1.
         11    1    5    5    0    0 -0.27093116343E+02  0.30841768097E+03  0.88097578839E+03  0.93379539655E+03  0.00000000000E+00 0.  1.
        -11    1    5    5    0    0  0.36828017623E+02  0.75035209333E+02  0.19003873620E+03  0.20760854216E+03  0.00000000000E+00 0. -1.
          3    1    6    6  503    0 -0.54344087988E+01 -0.18248253506E+02 -0.56570732070E+00  0.19048663464E+02  0.00000000000E+00 0. -1.
         -3    1    6    6    0  503  0.22750713090E+03 -0.28789832328E+03  0.23375312250E+03  0.43506949035E+03  0.00000000000E+00 0.  1.
<mgrwt>
<rscale>  0 0.11809151E+04</rscale>
<asrwt>0</asrwt>
<pdfrwt beam="1">  1        2 0.27330704E+00 0.11809151E+04</pdfrwt>
<pdfrwt beam="2">  1       -1 0.30192552E-01 0.11809151E+04</pdfrwt>
<totfact> 0.10099780E+02</totfact>
</mgrwt>
</event>
<event>
12    6  0.1569942E-007  0.2049214E+04  0.7818608E-02  0.8583951E-01
          2   -1    0    0  501    0  0.00000000000E+00  0.00000000000E+00  0.29630908780E+04  0.29630908780E+04  0.00000000000E+00 0. -1.
         -1   -1    0    0    0  501 -0.00000000000E+00 -0.00000000000E+00 -0.35429880713E+03  0.35429880713E+03  0.00000000000E+00 0.  1.
         24    2    1    2    0    0 -0.24837972196E+03 -0.64588099571E+03  0.32560981544E+03  0.76890179485E+03  0.79583109437E+02 0.  0.
        254    2    1    2    0    0  0.24837972196E+03  0.64588099571E+03  0.22831822554E+04  0.25484878902E+04  0.89611080142E+03 0.  0.
         23    2    4    4    0    0 -0.90230663972E+02  0.63285920443E+03  0.81847119223E+03  0.10424413198E+04  0.90202369200E+02 0.  0.
         23    2    4    4    0    0  0.33861038593E+03  0.13021791281E+02  0.14647110632E+04  0.15060465704E+04  0.89281650847E+02 0.  0.
          4    1    3    3  502    0 -0.95904428284E+02 -0.16892338107E+03  0.68175573306E+02  0.20586567667E+03  0.00000000000E+00 0. -1.
         -3    1    3    3    0  502 -0.15247529368E+03 -0.47695761465E+03  0.25743424213E+03  0.56303611818E+03  0.00000000000E+00 0.  1.
         11    1    5    5    0    0 -0.40724974734E+02  0.26013865469E+03  0.40997156413E+03  0.48724462709E+03  0.00000000000E+00 0. -1.
        -11    1    5    5    0    0 -0.49505689238E+02  0.37272054974E+03  0.40849962810E+03  0.55519669274E+03  0.00000000000E+00 0.  1.
          3    1    6    6  503    0  0.17839200883E+02  0.18069348873E+02  0.59710274069E+02  0.64884938825E+02  0.00000000000E+00 0. -1.
         -3    1    6    6    0  503  0.32077118505E+03 -0.50475575926E+01  0.14050007891E+04  0.14411616316E+04  0.00000000000E+00 0.  1.
<mgrwt>
<rscale>  0 0.20492141E+04</rscale>
<asrwt>0</asrwt>
<pdfrwt beam="1">  1        2 0.45586012E+00 0.20492141E+04</pdfrwt>
<pdfrwt beam="2">  1       -1 0.54507511E-01 0.20492141E+04</pdfrwt>
<totfact> 0.65876223E+00</totfact>
</mgrwt>
</event>
<event>
12    6  0.1569942E-007  0.2339049E+04  0.7818608E-02  0.8462682E-01
         -1   -1    0    0    0  501 -0.00000000000E+00  0.00000000000E+00  0.13022306419E+04  0.13022306419E+04  0.00000000000E+00 0.  1.
          2   -1    0    0  501    0  0.00000000000E+00 -0.00000000000E+00 -0.10503424371E+04  0.10503424371E+04  0.00000000000E+00 0. -1.
         24    2    1    2    0    0  0.64001899076E+03  0.48693004055E+03  0.69680908407E+03  0.10670972836E+04  0.80178176600E+02 0.  0.
        254    2    1    2    0    0 -0.64001899076E+03 -0.48693004055E+03 -0.44492087933E+03  0.12854757954E+04  0.89875928858E+03 0.  0.
         23    2    4    4    0    0 -0.22242785987E+03 -0.68943914883E+03 -0.22508711400E+03  0.76411999137E+03  0.91731453352E+02 0.  0.
         23    2    4    4    0    0 -0.41759113090E+03  0.20250910828E+03 -0.21983376533E+03  0.52135580405E+03  0.89959426952E+02 0.  0.
          2    1    3    3  502    0  0.17422571993E+03  0.17905928209E+03  0.21434336712E+03  0.32918066015E+03  0.00000000000E+00 0. -1.
         -1    1    3    3    0  502  0.46579327083E+03  0.30787075846E+03  0.48246571695E+03  0.73791662340E+03  0.00000000000E+00 0.  1.
         11    1    5    5    0    0 -0.17193810551E+03 -0.59630364655E+03 -0.16429571520E+03  0.64197650506E+03  0.00000000000E+00 0.  1.
        -11    1    5    5    0    0 -0.50489754353E+02 -0.93135502282E+02 -0.60791398794E+02  0.12214348631E+03  0.00000000000E+00 0. -1.
          1    1    6    6  503    0 -0.14360335520E+03  0.32520366250E+02 -0.96974439717E+02  0.17630524610E+03  0.00000000000E+00 0. -1.
         -1    1    6    6    0  503 -0.27398777570E+03  0.16998874203E+03 -0.12285932562E+03  0.34505055795E+03  0.00000000000E+00 0.  1.
<mgrwt>
<rscale>  0 0.23390495E+04</rscale>
<asrwt>0</asrwt>
<pdfrwt beam="1">  1        2 0.16159114E+00 0.23390495E+04</pdfrwt>
<pdfrwt beam="2">  1       -1 0.20034318E+00 0.23390495E+04</pdfrwt>
<totfact> 0.36085925E+00</totfact>
</mgrwt>
</event>
<event>
12    6  0.1700780E-007  0.2062471E+04  0.7818608E-02  0.8577958E-01
          2   -1    0    0  501    0  0.00000000000E+00  0.00000000000E+00  0.12033737380E+04  0.12033737380E+04  0.00000000000E+00 0. -1.
         -1   -1    0    0    0  501 -0.00000000000E+00 -0.00000000000E+00 -0.88372138219E+03  0.88372138219E+03  0.00000000000E+00 0.  1.
         24    2    1    2    0    0 -0.25745585710E+03 -0.16277584032E+02  0.92450234612E+03  0.96321925417E+03  0.80859541888E+02 0.  0.
        254    2    1    2    0    0  0.25745585710E+03  0.16277584032E+02 -0.60484999028E+03  0.11238758661E+04  0.91143018025E+03 0.  0.
         23    2    4    4    0    0  0.76946909138E+02 -0.33906947979E+03 -0.61810791916E+03  0.71510045355E+03  0.91773198673E+02 0.  0.
         23    2    4    4    0    0  0.18050894797E+03  0.35534706382E+03  0.13257928878E+02  0.40877541251E+03  0.89813969549E+02 0.  0.
          2    1    3    3  502    0 -0.24122939937E+03 -0.35144785262E+02  0.86569326490E+03  0.89936177812E+03  0.00000000000E+00 0. -1.
         -1    1    3    3    0  502 -0.16226457736E+02  0.18867201229E+02  0.58809081220E+02  0.63857476045E+02  0.00000000000E+00 0.  1.
         11    1    5    5    0    0  0.69386683840E+02 -0.26953067512E+03 -0.40991571561E+03  0.49547168499E+03  0.00000000000E+00 0. -1.
        -11    1    5    5    0    0  0.75602252983E+01 -0.69538804674E+02 -0.20819220355E+03  0.21962876857E+03  0.00000000000E+00 0.  1.
          1    1    6    6  503    0  0.17764147025E+03  0.33564220679E+03 -0.77475011822E+01  0.37983181371E+03  0.00000000000E+00 0. -1.
         -1    1    6    6    0  503  0.28674777167E+01  0.19704857033E+02  0.21005430061E+02  0.28943598795E+02  0.00000000000E+00 0.  1.
<mgrwt>
<rscale>  0 0.20624714E+04</rscale>
<asrwt>0</asrwt>
<pdfrwt beam="1">  1        2 0.18513442E+00 0.20624714E+04</pdfrwt>
<pdfrwt beam="2">  1       -1 0.13595714E+00 0.20624714E+04</pdfrwt>
<totfact> 0.89882943E+00</totfact>
</mgrwt>
</event>
<event>
12    6  0.1569942E-007  0.9963251E+03  0.7818608E-02  0.9312585E-01
         -1   -1    0    0    0  501 -0.00000000000E+00  0.00000000000E+00  0.94753880989E+02  0.94753880989E+02  0.00000000000E+00 0.  1.
          2   -1    0    0  501    0  0.00000000000E+00 -0.00000000000E+00 -0.26190579761E+04  0.26190579761E+04  0.00000000000E+00 0. -1.
         24    2    1    2    0    0  0.11044501896E+02 -0.63009607865E+01 -0.41054280215E+03  0.41910747839E+03  0.83330684139E+02 0.  0.
        254    2    1    2    0    0 -0.11044501896E+02  0.63009607865E+01 -0.21137612930E+04  0.22947043787E+04  0.89303958415E+03 0.  0.
         23    2    4    4    0    0  0.26433120550E+03 -0.15525341260E+03 -0.26151126211E+03  0.41285237090E+03  0.89912911334E+02 0.  0.
         23    2    4    4    0    0 -0.27537570739E+03  0.16155437339E+03 -0.18522500308E+04  0.18818520078E+04  0.92764253180E+02 0.  0.
          2    1    3    3  502    0  0.48997389423E+01 -0.43278554336E+02 -0.27700771912E+03  0.28041097903E+03  0.00000000000E+00 0. -1.
         -1    1    3    3    0  502  0.61447629533E+01  0.36977593550E+02 -0.13353508303E+03  0.13869649937E+03  0.00000000000E+00 0.  1.
         11    1    5    5    0    0  0.77408296331E+02 -0.18810847391E+02 -0.11160742231E+03  0.13712078265E+03  0.00000000000E+00 0.  1.
        -11    1    5    5    0    0  0.18692290917E+03 -0.13644256521E+03 -0.14990383980E+03  0.27573158825E+03  0.00000000000E+00 0. -1.
          4    1    6    6  503    0 -0.13611058477E+03  0.12987637038E+03 -0.11406634102E+04  0.11560739501E+04  0.00000000000E+00 0. -1.
         -4    1    6    6    0  503 -0.13926512262E+03  0.31678003009E+02 -0.71158662069E+03  0.72577805768E+03  0.00000000000E+00 0.  1.
<mgrwt>
<rscale>  0 0.99632506E+03</rscale>
<asrwt>0</asrwt>
<pdfrwt beam="1">  1        2 0.40293195E+00 0.99632506E+03</pdfrwt>
<pdfrwt beam="2">  1       -1 0.14577522E-01 0.99632506E+03</pdfrwt>
<totfact> 0.11805153E+02</totfact>
</mgrwt>
</event>
<event>
12    6  0.1569942E-007  0.2334034E+04  0.7818608E-02  0.8464622E-01
          2   -1    0    0  501    0  0.00000000000E+00  0.00000000000E+00  0.17404714593E+04  0.17404714593E+04  0.00000000000E+00 0. -1.
         -1   -1    0    0    0  501 -0.00000000000E+00 -0.00000000000E+00 -0.78250555602E+03  0.78250555602E+03  0.00000000000E+00 0.  1.
         24    2    1    2    0    0 -0.84951926781E+01  0.55162196780E+03  0.13002209043E+04  0.14146986042E+04  0.80241990520E+02 0.  0.
        254    2    1    2    0    0  0.84951926781E+01 -0.55162196780E+03 -0.34225500108E+03  0.11082784111E+04  0.89821132651E+03 0.  0.
         23    2    4    4    0    0 -0.39409563430E+03 -0.98393914526E+02 -0.22208888649E+02  0.41676249580E+03  0.90581520080E+02 0.  0.
         23    2    4    4    0    0  0.40259082697E+03 -0.45322805327E+03 -0.32004611243E+03  0.69151591529E+03  0.90937917196E+02 0.  0.
          4    1    3    3  502    0  0.13942730466E+02  0.40571838107E+03  0.87509120015E+03  0.96466906919E+03  0.00000000000E+00 0. -1.
         -1    1    3    3    0  502 -0.22437923144E+02  0.14590358673E+03  0.42512970417E+03  0.45002953501E+03  0.00000000000E+00 0.  1.
         11    1    5    5    0    0 -0.62316192811E+02 -0.45239539223E+02  0.15796758634E+02  0.78609550176E+02  0.00000000000E+00 0. -1.
        -11    1    5    5    0    0 -0.33177944148E+03 -0.53154375303E+02 -0.38005647283E+02  0.33815294562E+03  0.00000000000E+00 0.  1.
          1    1    6    6  503    0  0.15282100432E+02 -0.28487348394E+02 -0.41954691488E+02  0.52964778391E+02  0.00000000000E+00 0. -1.
         -1    1    6    6    0  503  0.38730872654E+03 -0.42474070488E+03 -0.27809142094E+03  0.63855113690E+03  0.00000000000E+00 0.  1.
<mgrwt>
<rscale>  0 0.23340339E+04</rscale>
<asrwt>0</asrwt>
<pdfrwt beam="1">  1        2 0.26776484E+00 0.23340339E+04</pdfrwt>
<pdfrwt beam="2">  1       -1 0.12038547E+00 0.23340339E+04</pdfrwt>
<totfact> 0.58872687E+00</totfact>
</mgrwt>
</event>
<event>
12    6  0.1569942E-007  0.2117360E+04  0.7818608E-02  0.8553635E-01
          2   -1    0    0  501    0  0.00000000000E+00  0.00000000000E+00  0.31269895629E+04  0.31269895629E+04  0.00000000000E+00 0. -1.
         -1   -1    0    0    0  501 -0.00000000000E+00 -0.00000000000E+00 -0.35842881752E+03  0.35842881752E+03  0.00000000000E+00 0.  1.
         24    2    1    2    0    0 -0.60874179239E+03  0.10969648882E+03  0.13740370900E+03  0.63686789965E+03  0.64195427447E+02 0.  0.
        254    2    1    2    0    0  0.60874179239E+03 -0.10969648882E+03  0.26311570364E+04  0.28485504807E+04  0.89925113395E+03 0.  0.
         23    2    4    4    0    0  0.57668963203E+03 -0.66915812110E+02  0.69808210475E+03  0.91251631850E+03  0.91207175963E+02 0.  0.
         23    2    4    4    0    0  0.32052160358E+02 -0.42780676706E+02  0.19330749316E+04  0.19360341622E+04  0.92693359580E+02 0.  0.
          4    1    3    3  502    0 -0.17532475714E+03  0.51842134059E+02  0.62634584177E+02  0.19326010572E+03  0.00000000000E+00 0. -1.
         -3    1    3    3    0  502 -0.43341703525E+03  0.57854354757E+02  0.74769124818E+02  0.44360779393E+03  0.00000000000E+00 0.  1.
         11    1    5    5    0    0  0.34389031939E+03 -0.81712814392E+02  0.39498969660E+03  0.53005131471E+03  0.00000000000E+00 0.  1.
        -11    1    5    5    0    0  0.23279931264E+03  0.14797002282E+02  0.30309240816E+03  0.38246500379E+03  0.00000000000E+00 0. -1.
          2    1    6    6  503    0  0.28330053216E+02  0.17134512592E+02  0.29365993230E+03  0.29552045492E+03  0.00000000000E+00 0.  1.
         -2    1    6    6    0  503  0.37221071425E+01 -0.59915189299E+02  0.16394149993E+04  0.16405137073E+04  0.00000000000E+00 0. -1.
<mgrwt>
<rscale>  0 0.21173598E+04</rscale>
<asrwt>0</asrwt>
<pdfrwt beam="1">  1        2 0.48107530E+00 0.21173598E+04</pdfrwt>
<pdfrwt beam="2">  1       -1 0.55142897E-01 0.21173598E+04</pdfrwt>
<totfact> 0.50454405E+00</totfact>
</mgrwt>
</event>
<event>
12    6  0.1569942E-007  0.1787749E+04  0.7818608E-02  0.8712842E-01
          2   -1    0    0  501    0  0.00000000000E+00  0.00000000000E+00  0.10031393840E+04  0.10031393840E+04  0.00000000000E+00 0. -1.
         -1   -1    0    0    0  501 -0.00000000000E+00 -0.00000000000E+00 -0.79651076999E+03  0.79651076999E+03  0.00000000000E+00 0.  1.
         24    2    1    2    0    0  0.29182585812E+03  0.41415074945E+03  0.50806499653E+03  0.72195602327E+03  0.80045512719E+02 0.  0.
        254    2    1    2    0    0 -0.29182585812E+03 -0.41415074945E+03 -0.30143638254E+03  0.10776941307E+04  0.90215163464E+03 0.  0.
         23    2    4    4    0    0 -0.21608428991E+03 -0.67324878991E+03 -0.81843065157E+02  0.71777800450E+03  0.92469578603E+02 0.  0.
         23    2    4    4    0    0 -0.75741568211E+02  0.25909804046E+03 -0.21959331738E+03  0.35991612620E+03  0.91922865122E+02 0.  0.
          2    1    3    3  502    0  0.26439719995E+03  0.32835722766E+03  0.43724009161E+03  0.60737405773E+03  0.00000000000E+00 0. -1.
         -1    1    3    3    0  502  0.27428658172E+02  0.85793521791E+02  0.70824904917E+02  0.11458196554E+03  0.00000000000E+00 0.  1.
         11    1    5    5    0    0 -0.15426485235E+03 -0.51847306888E+03 -0.10008702996E+03  0.55011760687E+03  0.00000000000E+00 0. -1.
        -11    1    5    5    0    0 -0.61819437562E+02 -0.15477572102E+03  0.18243964802E+02  0.16766039762E+03  0.00000000000E+00 0.  1.
          4    1    6    6  503    0 -0.77387863080E+02  0.21462559059E+03 -0.13707611357E+03  0.26616327019E+03  0.00000000000E+00 0. -1.
         -4    1    6    6    0  503  0.16462948696E+01  0.44472449874E+02 -0.82517203811E+02  0.93752856006E+02  0.00000000000E+00 0.  1.
<mgrwt>
<rscale>  0 0.17877487E+04</rscale>
<asrwt>0</asrwt>
<pdfrwt beam="1">  1        2 0.15432914E+00 0.17877487E+04</pdfrwt>
<pdfrwt beam="2">  1       -1 0.12254012E+00 0.17877487E+04</pdfrwt>
<totfact> 0.15894032E+01</totfact>
</mgrwt>
</event>
<event>
12    6  0.1569942E-007  0.2672656E+04  0.7818608E-02  0.8343932E-01
          2   -1    0    0  501    0  0.00000000000E+00  0.00000000000E+00  0.32263760130E+04  0.32263760130E+04  0.00000000000E+00 0. -1.
         -1   -1    0    0    0  501 -0.00000000000E+00 -0.00000000000E+00 -0.55349188395E+03  0.55349188395E+03  0.00000000000E+00 0.  1.
         24    2    1    2    0    0 -0.42365137720E+03 -0.88342276282E+03  0.24620093537E+03  0.10135010030E+04  0.81566630410E+02 0.  0.
        254    2    1    2    0    0  0.42365137720E+03  0.88342276282E+03  0.24266831937E+04  0.27663668940E+04  0.89670407735E+03 0.  0.
         23    2    4    4    0    0  0.51368533563E+03  0.30333098968E+03  0.62518235260E+03  0.86942749511E+03  0.95754278781E+02 0.  0.
         23    2    4    4    0    0 -0.90033958425E+02  0.58009177314E+03  0.18015008411E+04  0.18969393989E+04  0.91439726858E+02 0.  0.
          4    1    3    3  502    0 -0.13295319869E+03 -0.28755782219E+03  0.11898140516E+03  0.33841192195E+03  0.00000000000E+00 0. -1.
         -3    1    3    3    0  502 -0.29069817851E+03 -0.59586494062E+03  0.12721953021E+03  0.67508908103E+03  0.00000000000E+00 0.  1.
         11    1    5    5    0    0  0.47233942401E+03  0.30018176914E+03  0.55680066532E+03  0.78945589294E+03  0.00000000000E+00 0. -1.
        -11    1    5    5    0    0  0.41345911620E+02  0.31492205371E+01  0.68381687280E+02  0.79971602166E+02  0.00000000000E+00 0.  1.
          2    1    6    6  503    0 -0.49663900849E+02  0.21113220843E+03  0.53876380482E+03  0.58078373761E+03  0.00000000000E+00 0.  1.
         -2    1    6    6    0  503 -0.40370057576E+02  0.36895956471E+03  0.12627370363E+04  0.13161556613E+04  0.00000000000E+00 0. -1.
<mgrwt>
<rscale>  0 0.26726563E+04</rscale>
<asrwt>0</asrwt>
<pdfrwt beam="1">  1        2 0.49636553E+00 0.26726563E+04</pdfrwt>
<pdfrwt beam="2">  1       -1 0.85152599E-01 0.26726563E+04</pdfrwt>
<totfact> 0.16986506E+00</totfact>
</mgrwt>
</event>
<event>
12    6  0.1569942E-007  0.1523535E+04  0.7818608E-02  0.8868951E-01
         -1   -1    0    0    0  501 -0.00000000000E+00  0.00000000000E+00  0.24906605191E+03  0.24906605191E+03  0.00000000000E+00 0.  1.
          2   -1    0    0  501    0  0.00000000000E+00 -0.00000000000E+00 -0.23298629639E+04  0.23298629639E+04  0.00000000000E+00 0. -1.
         24    2    1    2    0    0  0.40170856886E+02  0.11873314375E+03 -0.14749540031E+04  0.14824461027E+04  0.80286231030E+02 0.  0.
        254    2    1    2    0    0 -0.40170856886E+02 -0.11873314375E+03 -0.60584290889E+03  0.10964829131E+04  0.90527227472E+03 0.  0.
         23    2    4    4    0    0  0.20845045168E+02 -0.25325823410E+02  0.22957612526E+03  0.24890588742E+03  0.90404813293E+02 0.  0.
         23    2    4    4    0    0 -0.61015902054E+02 -0.93407320341E+02 -0.83541903415E+03  0.84757702571E+03  0.89520858411E+02 0.  0.
          2    1    3    3  502    0  0.40273425984E+02  0.11140460229E+03 -0.14664191669E+04  0.14711961485E+04  0.00000000000E+00 0. -1.
         -1    1    3    3    0  502 -0.10256909766E+00  0.73285414608E+01 -0.85348362103E+01  0.11249954200E+02  0.00000000000E+00 0.  1.
         11    1    5    5    0    0  0.11511706861E+02  0.29685351808E+02  0.13836943675E+03  0.14198535323E+03  0.00000000000E+00 0. -1.
        -11    1    5    5    0    0  0.93333383076E+01 -0.55011175218E+02  0.91206688513E+02  0.10692053419E+03  0.00000000000E+00 0.  1.
          4    1    6    6  503    0 -0.30171541055E+02 -0.81108531460E+02 -0.33296854914E+03  0.34403047900E+03  0.00000000000E+00 0. -1.
         -4    1    6    6    0  503 -0.30844360999E+02 -0.12298788881E+02 -0.50245048501E+03  0.50354654671E+03  0.00000000000E+00 0.  1.
<mgrwt>
<rscale>  0 0.15235351E+04</rscale>
<asrwt>0</asrwt>
<pdfrwt beam="1">  1        2 0.35844046E+00 0.15235351E+04</pdfrwt>
<pdfrwt beam="2">  1       -1 0.38317853E-01 0.15235351E+04</pdfrwt>
<totfact> 0.31601341E+01</totfact>
</mgrwt>
</event>
<event>
12    6  0.1569942E-007  0.2324441E+04  0.7818608E-02  0.8468346E-01
         -1   -1    0    0    0  501 -0.00000000000E+00  0.00000000000E+00  0.10393818267E+04  0.10393818267E+04  0.00000000000E+00 0.  1.
          2   -1    0    0  501    0  0.00000000000E+00 -0.00000000000E+00 -0.12995763018E+04  0.12995763018E+04  0.00000000000E+00 0. -1.
         24    2    1    2    0    0  0.43098973787E+03 -0.87737877303E+03  0.47951251876E+02  0.98212681458E+03  0.82024946520E+02 0.  0.
        254    2    1    2    0    0 -0.43098973787E+03  0.87737877303E+03 -0.30814572698E+03  0.13568313139E+04  0.88909603520E+03 0.  0.
         23    2    4    4    0    0 -0.22569826917E+03  0.51522938641E+03 -0.61102805958E+03  0.83515615986E+03  0.87917531915E+02 0.  0.
         23    2    4    4    0    0 -0.20529146870E+03  0.36214938661E+03  0.30288233260E+03  0.52167515404E+03  0.84323742788E+02 0.  0.
          4    1    3    3  502    0  0.92284897871E+02 -0.26300399545E+03 -0.28117324415E+01  0.27873914299E+03  0.00000000000E+00 0. -1.
         -3    1    3    3    0  502  0.33870484000E+03 -0.61437477758E+03  0.50762984317E+02  0.70338767159E+03  0.00000000000E+00 0.  1.
         11    1    5    5    0    0 -0.20730190768E+03  0.41215553587E+03 -0.46097074488E+03  0.65218118212E+03  0.00000000000E+00 0.  1.
        -11    1    5    5    0    0 -0.18396361491E+02  0.10307385054E+03 -0.15005731470E+03  0.18297497774E+03  0.00000000000E+00 0. -1.
          3    1    6    6  503    0 -0.12113316087E+03  0.19338711679E+03  0.11522925644E+03  0.25563568049E+03  0.00000000000E+00 0. -1.
         -3    1    6    6    0  503 -0.84158307837E+02  0.16876226982E+03  0.18765307616E+03  0.26603947355E+03  0.00000000000E+00 0.  1.
<mgrwt>
<rscale>  0 0.23244406E+04</rscale>
<asrwt>0</asrwt>
<pdfrwt beam="1">  1        2 0.19993482E+00 0.23244406E+04</pdfrwt>
<pdfrwt beam="2">  1       -1 0.15990490E+00 0.23244406E+04</pdfrwt>
<totfact> 0.49929765E+00</totfact>
</mgrwt>
</event>
<event>
12    6  0.1569942E-007  0.1250452E+04  0.7818608E-02  0.9069807E-01
          2   -1    0    0  501    0  0.00000000000E+00  0.00000000000E+00  0.14174887257E+03  0.14174887257E+03  0.00000000000E+00 0. -1.
         -1   -1    0    0    0  501 -0.00000000000E+00 -0.00000000000E+00 -0.27577453371E+04  0.27577453371E+04  0.00000000000E+00 0.  1.
         24    2    1    2    0    0  0.26599660857E+03 -0.83056682879E+02 -0.78806030058E+03  0.83968937220E+03  0.79916181682E+02 0.  0.
        254    2    1    2    0    0 -0.26599660857E+03  0.83056682879E+02 -0.18279361640E+04  0.20598048375E+04  0.90763028855E+03 0.  0.
         23    2    4    4    0    0 -0.11391739456E+03  0.19860496716E+03 -0.18324107558E+04  0.18488729907E+04  0.90449168778E+02 0.  0.
         23    2    4    4    0    0 -0.15207921401E+03 -0.11554828428E+03  0.44745917693E+01  0.21093184682E+03  0.89402062045E+02 0.  0.
          4    1    3    3  502    0  0.13936895146E+03 -0.66017692702E+02 -0.52600665199E+03  0.54814691308E+03  0.00000000000E+00 0. -1.
         -3    1    3    3    0  502  0.12662765711E+03 -0.17038990178E+02 -0.26205364859E+03  0.29154245913E+03  0.00000000000E+00 0.  1.
         11    1    5    5    0    0 -0.34532987085E+02  0.27149676936E+01 -0.23492364648E+03  0.23746371917E+03  0.00000000000E+00 0. -1.
        -11    1    5    5    0    0 -0.79384407480E+02  0.19588999947E+03 -0.15974871093E+04  0.16114092715E+04  0.00000000000E+00 0.  1.
          3    1    6    6  503    0  0.83113229111E+01 -0.17112668750E+01  0.11299506720E+02  0.14131007571E+02  0.00000000000E+00 0. -1.
         -3    1    6    6    0  503 -0.16039053692E+03 -0.11383701741E+03 -0.68249149508E+01  0.19680083925E+03  0.00000000000E+00 0.  1.
<mgrwt>
<rscale>  0 0.12504516E+04</rscale>
<asrwt>0</asrwt>
<pdfrwt beam="1">  1        2 0.21807520E-01 0.12504516E+04</pdfrwt>
<pdfrwt beam="2">  1       -1 0.42426849E+00 0.12504516E+04</pdfrwt>
<totfact> 0.14346579E+00</totfact>
</mgrwt>
</event>
<event>
12    6  0.1569942E-007  0.1488930E+04  0.7818608E-02  0.8891848E-01
         -1   -1    0    0    0  501 -0.00000000000E+00  0.00000000000E+00  0.39028595727E+03  0.39028595727E+03  0.00000000000E+00 0.  1.
          2   -1    0    0  501    0  0.00000000000E+00 -0.00000000000E+00 -0.14200565978E+04  0.14200565978E+04  0.00000000000E+00 0. -1.
         24    2    1    2    0    0  0.72472924938E+02 -0.25615714873E+03 -0.80580232216E+03  0.85233967756E+03  0.79351961839E+02 0.  0.
        254    2    1    2    0    0 -0.72472924938E+02  0.25615714873E+03 -0.22396831835E+03  0.95800287750E+03  0.89260231681E+03 0.  0.
         23    2    4    4    0    0 -0.31286824743E+03 -0.13223321578E+03  0.12821608413E+03  0.37477309147E+03  0.92969577043E+02 0.  0.
         23    2    4    4    0    0  0.24039532249E+03  0.38839036452E+03 -0.35218440248E+03  0.58322978603E+03  0.86522503614E+02 0.  0.
          2    1    3    3  502    0  0.83369905845E+02 -0.22422025673E+03 -0.64252730327E+03  0.68561403150E+03  0.00000000000E+00 0. -1.
         -3    1    3    3    0  502 -0.10896980908E+02 -0.31936892002E+02 -0.16327501889E+03  0.16672564607E+03  0.00000000000E+00 0.  1.
         11    1    5    5    0    0 -0.27336503393E+03 -0.81501769452E+02  0.12174834969E+03  0.31015099686E+03  0.00000000000E+00 0.  1.
        -11    1    5    5    0    0 -0.39503213497E+02 -0.50731446330E+02  0.64677344436E+01  0.64622094613E+02  0.00000000000E+00 0. -1.
          4    1    6    6  503    0 -0.66022343094E+01  0.21189555769E+02 -0.20122063997E+02  0.29958041175E+02  0.00000000000E+00 0. -1.
         -4    1    6    6    0  503  0.24699755680E+03  0.36720080875E+03 -0.33206233849E+03  0.55327174485E+03  0.00000000000E+00 0.  1.
<mgrwt>
<rscale>  0 0.14889300E+04</rscale>
<asrwt>0</asrwt>
<pdfrwt beam="1">  1        2 0.21847025E+00 0.14889300E+04</pdfrwt>
<pdfrwt beam="2">  1       -1 0.60043992E-01 0.14889300E+04</pdfrwt>
<totfact> 0.43679002E+01</totfact>
</mgrwt>
</event>
<event>
12    6  0.1569942E-007  0.1899170E+04  0.7818608E-02  0.8655270E-01
         -1   -1    0    0    0  501 -0.00000000000E+00  0.00000000000E+00  0.99071321534E+03  0.99071321534E+03  0.00000000000E+00 0.  1.
          2   -1    0    0  501    0  0.00000000000E+00 -0.00000000000E+00 -0.91016372654E+03  0.91016372654E+03  0.00000000000E+00 0. -1.
         24    2    1    2    0    0  0.40216653897E+03  0.51967323469E+03  0.29604937218E+03  0.72514238734E+03  0.79925310358E+02 0.  0.
        254    2    1    2    0    0 -0.40216653897E+03 -0.51967323469E+03 -0.21549988338E+03  0.11757345545E+04  0.95084875089E+03 0.  0.
         23    2    4    4    0    0 -0.48681981618E+03 -0.11131157409E+03 -0.45705588686E+03  0.68301184657E+03  0.90671378584E+02 0.  0.
         23    2    4    4    0    0  0.84653277216E+02 -0.40836166060E+03  0.24155600347E+03  0.49272270796E+03  0.10247409885E+03 0.  0.
          2    1    3    3  502    0  0.16566001860E+03  0.23553819294E+03  0.88881917275E+02  0.30136601884E+03  0.00000000000E+00 0. -1.
         -1    1    3    3    0  502  0.23650652037E+03  0.28413504176E+03  0.20716745490E+03  0.42377636850E+03  0.00000000000E+00 0.  1.
         11    1    5    5    0    0 -0.11441095947E+03 -0.43223142991E+02 -0.16225679518E+03  0.20318802947E+03  0.00000000000E+00 0. -1.
        -11    1    5    5    0    0 -0.37240885672E+03 -0.68088431101E+02 -0.29479909167E+03  0.47982381711E+03  0.00000000000E+00 0.  1.
          1    1    6    6  503    0 -0.21599377310E+02 -0.12359933896E+03  0.73531872577E+02  0.14543131017E+03  0.00000000000E+00 0. -1.
         -1    1    6    6    0  503  0.10625265453E+03 -0.28476232164E+03  0.16802413089E+03  0.34729139780E+03  0.00000000000E+00 0.  1.
<mgrwt>
<rscale>  0 0.18991695E+04</rscale>
<asrwt>0</asrwt>
<pdfrwt beam="1">  1        2 0.14002519E+00 0.18991695E+04</pdfrwt>
<pdfrwt beam="2">  1       -1 0.15241742E+00 0.18991695E+04</pdfrwt>
<totfact> 0.10306204E+01</totfact>
</mgrwt>
</event>
<event>
12    6  0.1569942E-007  0.2502824E+04  0.7818608E-02  0.8401980E-01
         -1   -1    0    0    0  501 -0.00000000000E+00  0.00000000000E+00  0.68193815876E+03  0.68193815876E+03  0.00000000000E+00 0.  1.
          2   -1    0    0  501    0  0.00000000000E+00 -0.00000000000E+00 -0.22964433810E+04  0.22964433810E+04  0.00000000000E+00 0. -1.
         24    2    1    2    0    0 -0.50303648942E+03  0.87140789464E+03 -0.23216214263E+03  0.10356759555E+04  0.79548700140E+02 0.  0.
        254    2    1    2    0    0  0.50303648942E+03 -0.87140789464E+03 -0.13823430796E+04  0.19427055843E+04  0.92240726851E+03 0.  0.
         23    2    4    4    0    0  0.23323963181E+03 -0.77888275913E+03 -0.14214150068E+04  0.16400712311E+04  0.91399908681E+02 0.  0.
         23    2    4    4    0    0  0.26979685761E+03 -0.92525135510E+02  0.39071927258E+02  0.30263435312E+03  0.93325725886E+02 0.  0.
          4    1    3    3  502    0 -0.54477332290E+02  0.11857691386E+03 -0.55025011617E+02  0.14161926471E+03  0.00000000000E+00 0. -1.
         -3    1    3    3    0  502 -0.44855915713E+03  0.75283098078E+03 -0.17713713102E+03  0.89405669074E+03  0.00000000000E+00 0.  1.
         11    1    5    5    0    0  0.22977880223E+03 -0.77337636813E+03 -0.14203311791E+04  0.16334778734E+04  0.00000000000E+00 0.  1.
        -11    1    5    5    0    0  0.34608295883E+01 -0.55063910042E+01 -0.10838277338E+01  0.65933577096E+01  0.00000000000E+00 0. -1.
          4    1    6    6  503    0  0.85053975986E+02 -0.18762991248E+02 -0.29906424862E+02  0.92090297641E+02  0.00000000000E+00 0. -1.
         -4    1    6    6    0  503  0.18474288162E+03 -0.73762144262E+02  0.68978352120E+02  0.21054405548E+03  0.00000000000E+00 0.  1.
<mgrwt>
<rscale>  0 0.25028243E+04</rscale>
<asrwt>0</asrwt>
<pdfrwt beam="1">  1        2 0.35329898E+00 0.25028243E+04</pdfrwt>
<pdfrwt beam="2">  1       -1 0.10491356E+00 0.25028243E+04</pdfrwt>
<totfact> 0.39399988E+00</totfact>
</mgrwt>
</event>
<event>
12    6  0.1569942E-007  0.1675626E+04  0.7818608E-02  0.8775389E-01
         -1   -1    0    0    0  501 -0.00000000000E+00  0.00000000000E+00  0.52588133035E+03  0.52588133035E+03  0.00000000000E+00 0.  1.
          2   -1    0    0  501    0  0.00000000000E+00 -0.00000000000E+00 -0.13347702874E+04  0.13347702874E+04  0.00000000000E+00 0. -1.
         24    2    1    2    0    0  0.27503843459E+03  0.26896055778E+03 -0.78437976161E+03  0.87709023935E+03  0.77780173521E+02 0.  0.
        254    2    1    2    0    0 -0.27503843459E+03 -0.26896055778E+03 -0.24509195473E+02  0.98356137843E+03  0.90487919765E+03 0.  0.
         23    2    4    4    0    0  0.76214714431E+02  0.27029083546E+03  0.12022585468E+03  0.31780780693E+03  0.87645465295E+02 0.  0.
         23    2    4    4    0    0 -0.35125314903E+03 -0.53925139324E+03 -0.14473505015E+03  0.66575357150E+03  0.90048561418E+02 0.  0.
          2    1    3    3  502    0  0.21247843434E+03  0.16855214409E+03 -0.49435292825E+03  0.56386321746E+03  0.00000000000E+00 0. -1.
         -1    1    3    3    0  502  0.62560000252E+02  0.10040841369E+03 -0.29002683336E+03  0.31322702188E+03  0.00000000000E+00 0.  1.
         11    1    5    5    0    0  0.50822687491E+02  0.26041445682E+03  0.98720208690E+02  0.28309771191E+03  0.00000000000E+00 0. -1.
        -11    1    5    5    0    0  0.25392026940E+02  0.98763786351E+01  0.21505645988E+02  0.34710095022E+02  0.00000000000E+00 0.  1.
          1    1    6    6  503    0 -0.28182039577E+03 -0.42594080559E+03 -0.76705127489E+02  0.51646101685E+03  0.00000000000E+00 0. -1.
         -1    1    6    6    0  503 -0.69432753254E+02 -0.11331058765E+03 -0.68029922661E+02  0.14929255465E+03  0.00000000000E+00 0.  1.
<mgrwt>
<rscale>  0 0.16756262E+04</rscale>
<asrwt>0</asrwt>
<pdfrwt beam="1">  1        2 0.20534927E+00 0.16756262E+04</pdfrwt>
<pdfrwt beam="2">  1       -1 0.80904820E-01 0.16756262E+04</pdfrwt>
<totfact> 0.26114800E+01</totfact>
</mgrwt>
</event>
<event>
12    6  0.1569942E-007  0.2384852E+04  0.7818608E-02  0.8445197E-01
         -1   -1    0    0    0  501 -0.00000000000E+00  0.00000000000E+00  0.61763235062E+03  0.61763235062E+03  0.00000000000E+00 0.  1.
          2   -1    0    0  501    0  0.00000000000E+00 -0.00000000000E+00 -0.23021450252E+04  0.23021450252E+04  0.00000000000E+00 0. -1.
         24    2    1    2    0    0 -0.23611604452E+03  0.91097876045E+03 -0.24303753597E+03  0.97525653449E+03  0.80155946130E+02 0.  0.
        254    2    1    2    0    0  0.23611604452E+03 -0.91097876045E+03 -0.14414751386E+04  0.19445208413E+04  0.90425529509E+03 0.  0.
         23    2    4    4    0    0 -0.13519052656E+03 -0.11330704947E+01 -0.67609147002E+03  0.69553388878E+03  0.91596682759E+02 0.  0.
         23    2    4    4    0    0  0.37130657109E+03 -0.90984568996E+03 -0.76538366860E+03  0.12489869526E+04  0.92024443735E+02 0.  0.
          4    1    3    3  502    0 -0.53207049760E+02  0.12624565716E+03 -0.56406110953E+02  0.14815736718E+03  0.00000000000E+00 0. -1.
         -3    1    3    3    0  502 -0.18290899476E+03  0.78473310329E+03 -0.18663142502E+03  0.82709916731E+03  0.00000000000E+00 0.  1.
         11    1    5    5    0    0 -0.10965668457E+03  0.37670646387E+02 -0.51418745413E+03  0.52709809718E+03  0.00000000000E+00 0.  1.
        -11    1    5    5    0    0 -0.25533841991E+02 -0.38803716882E+02 -0.16190401589E+03  0.16843579160E+03  0.00000000000E+00 0. -1.
          1    1    6    6  503    0  0.34944454001E+02 -0.12657167912E+03 -0.13854553305E+03  0.19088313061E+03  0.00000000000E+00 0. -1.
         -1    1    6    6    0  503  0.33636211709E+03 -0.78327401084E+03 -0.62683813555E+03  0.10581038220E+04  0.00000000000E+00 0.  1.
<mgrwt>
<rscale>  0 0.23848516E+04</rscale>
<asrwt>0</asrwt>
<pdfrwt beam="1">  1        2 0.35417616E+00 0.23848516E+04</pdfrwt>
<pdfrwt beam="2">  1       -1 0.95020362E-01 0.23848516E+04</pdfrwt>
<totfact> 0.49554712E+00</totfact>
</mgrwt>
</event>
<event>
12    6  0.1569942E-007  0.2182769E+04  0.7818608E-02  0.8525634E-01
         -1   -1    0    0    0  501 -0.00000000000E+00  0.00000000000E+00  0.44157200208E+03  0.44157200208E+03  0.00000000000E+00 0.  1.
          2   -1    0    0  501    0  0.00000000000E+00 -0.00000000000E+00 -0.26974548128E+04  0.26974548128E+04  0.00000000000E+00 0. -1.
         24    2    1    2    0    0 -0.27207039609E+03  0.79334725841E+02  0.29583863510E+03  0.41785175670E+03  0.82239244900E+02 0.  0.
        254    2    1    2    0    0  0.27207039609E+03 -0.79334725841E+02 -0.25517214459E+04  0.27211750582E+04  0.90177328695E+03 0.  0.
         23    2    4    4    0    0  0.47194922071E+03  0.25228764522E+03 -0.15988698686E+04  0.16885236670E+04  0.91335615023E+02 0.  0.
         23    2    4    4    0    0 -0.19987882462E+03 -0.33162237106E+03 -0.95285157728E+03  0.10326513912E+04  0.92292068482E+02 0.  0.
          2    1    3    3  502    0 -0.76481931856E+02 -0.11456298019E+02  0.10119652756E+03  0.12736353424E+03  0.00000000000E+00 0. -1.
         -1    1    3    3    0  502 -0.19558846424E+03  0.90791023861E+02  0.19464210754E+03  0.29048822245E+03  0.00000000000E+00 0.  1.
         11    1    5    5    0    0  0.26240371936E+02  0.70258843503E+01 -0.16177162827E+03  0.16403651997E+03  0.00000000000E+00 0. -1.
        -11    1    5    5    0    0  0.44570884877E+03  0.24526176087E+03 -0.14370982403E+04  0.15244871470E+04  0.00000000000E+00 0.  1.
          1    1    6    6  503    0 -0.10871491060E+03 -0.97138974744E+02 -0.37902518312E+03  0.40609728101E+03  0.00000000000E+00 0. -1.
         -1    1    6    6    0  503 -0.91163914019E+02 -0.23448339632E+03 -0.57382639416E+03  0.62655411019E+03  0.00000000000E+00 0.  1.
<mgrwt>
<rscale>  0 0.21827694E+04</rscale>
<asrwt>0</asrwt>
<pdfrwt beam="1">  1        2 0.41499305E+00 0.21827694E+04</pdfrwt>
<pdfrwt beam="2">  1       -1 0.67934154E-01 0.21827694E+04</pdfrwt>
<totfact> 0.60923980E+00</totfact>
</mgrwt>
</event>
<event>
12    6  0.1569942E-007  0.1651057E+04  0.7818608E-02  0.8789782E-01
         -1   -1    0    0    0  501 -0.00000000000E+00  0.00000000000E+00  0.10261580098E+04  0.10261580098E+04  0.00000000000E+00 0.  1.
          2   -1    0    0  501    0  0.00000000000E+00 -0.00000000000E+00 -0.66412476662E+03  0.66412476662E+03  0.00000000000E+00 0. -1.
         24    2    1    2    0    0  0.42150684724E+03 -0.15221345159E+03  0.50614743044E+03  0.68077803278E+03  0.80228121436E+02 0.  0.
        254    2    1    2    0    0 -0.42150684724E+03  0.15221345159E+03 -0.14411418723E+03  0.10095047437E+04  0.89302517962E+03 0.  0.
         23    2    4    4    0    0 -0.39217372328E+03 -0.31499638410E+03 -0.14841498090E+03  0.53228138962E+03  0.90958891579E+02 0.  0.
         23    2    4    4    0    0 -0.29333123957E+02  0.46720983569E+03  0.43007936701E+01  0.47722335405E+03  0.92618411251E+02 0.  0.
          2    1    3    3  502    0  0.83986382774E+01 -0.63352895127E+01 -0.10391301018E+01  0.10571320140E+02  0.00000000000E+00 0. -1.
         -1    1    3    3    0  502  0.41310820896E+03 -0.14587816207E+03  0.50718656054E+03  0.67020671264E+03  0.00000000000E+00 0.  1.
         11    1    5    5    0    0 -0.26972343209E+03 -0.26556067720E+03 -0.12127866268E+03  0.39746913983E+03  0.00000000000E+00 0.  1.
        -11    1    5    5    0    0 -0.12245029119E+03 -0.49435706900E+02 -0.27136318226E+02  0.13481224980E+03  0.00000000000E+00 0. -1.
          2    1    6    6  503    0 -0.60673646680E+02  0.30448023990E+03  0.17639624834E+02  0.31096730416E+03  0.00000000000E+00 0.  1.
         -2    1    6    6    0  503  0.31340522723E+02  0.16272959578E+03 -0.13338831163E+02  0.16625604989E+03  0.00000000000E+00 0. -1.
<mgrwt>
<rscale>  0 0.16510566E+04</rscale>
<asrwt>0</asrwt>
<pdfrwt beam="1">  1        2 0.10217304E+00 0.16510566E+04</pdfrwt>
<pdfrwt beam="2">  1       -1 0.15787046E+00 0.16510566E+04</pdfrwt>
<totfact> 0.14488116E+01</totfact>
</mgrwt>
</event>
<event>
12    6  0.1569942E-007  0.1132379E+04  0.7818608E-02  0.9174196E-01
          2   -1    0    0  501    0  0.00000000000E+00  0.00000000000E+00  0.21721813931E+04  0.21721813931E+04  0.00000000000E+00 0. -1.
         -1   -1    0    0    0  501 -0.00000000000E+00 -0.00000000000E+00 -0.14757991250E+03  0.14757991250E+03  0.00000000000E+00 0.  1.
         24    2    1    2    0    0 -0.10348705889E+03 -0.12025868147E+03  0.64844441204E+03  0.67248521098E+03  0.81144819075E+02 0.  0.
        254    2    1    2    0    0  0.10348705889E+03  0.12025868147E+03  0.13761570686E+04  0.16472760947E+04  0.89136890946E+03 0.  0.
         23    2    4    4    0    0  0.32859978364E+01  0.34196004697E+03  0.13516708453E+03  0.37935604471E+03  0.93238384864E+02 0.  0.
         23    2    4    4    0    0  0.10020106105E+03 -0.22170136550E+03  0.12409899841E+04  0.12679200500E+04  0.91506089441E+02 0.  0.
          2    1    3    3  502    0  0.43872184790E+01 -0.41652697520E+02  0.21156138582E+03  0.21566737089E+03  0.00000000000E+00 0. -1.
         -1    1    3    3    0  502 -0.10787427737E+03 -0.78605983948E+02  0.43688302622E+03  0.45681784009E+03  0.00000000000E+00 0.  1.
         11    1    5    5    0    0 -0.21877440386E+02  0.16949306862E+03  0.23868248991E+02  0.17255786281E+03  0.00000000000E+00 0.  1.
        -11    1    5    5    0    0  0.25163438222E+02  0.17246697834E+03  0.11129883553E+03  0.20679818189E+03  0.00000000000E+00 0. -1.
          2    1    6    6  503    0  0.21512420139E+02 -0.15583804652E+03  0.75340242470E+03  0.76965154096E+03  0.00000000000E+00 0. -1.
         -2    1    6    6    0  503  0.78688640916E+02 -0.65863318976E+02  0.48758755938E+03  0.49826850900E+03  0.00000000000E+00 0.  1.
<mgrwt>
<rscale>  0 0.11323786E+04</rscale>
<asrwt>0</asrwt>
<pdfrwt beam="1">  1        2 0.33418173E+00 0.11323786E+04</pdfrwt>
<pdfrwt beam="2">  1       -1 0.22704603E-01 0.11323786E+04</pdfrwt>
<totfact> 0.10013661E+02</totfact>
</mgrwt>
</event>
<event>
12    6  0.1569942E-007  0.2989275E+04  0.7818608E-02  0.8246800E-01
         -1   -1    0    0    0  501 -0.00000000000E+00  0.00000000000E+00  0.94112869885E+03  0.94112869885E+03  0.00000000000E+00 0.  1.
          2   -1    0    0  501    0  0.00000000000E+00 -0.00000000000E+00 -0.23736826493E+04  0.23736826493E+04  0.00000000000E+00 0. -1.
         24    2    1    2    0    0  0.13837917092E+02  0.12086078780E+04  0.35648203857E+02  0.12118483467E+04  0.79881976083E+02 0.  0.
        254    2    1    2    0    0 -0.13837917092E+02 -0.12086078780E+04 -0.14682021543E+04  0.21029630014E+04  0.89772564227E+03 0.  0.
         23    2    4    4    0    0 -0.19301931806E+03 -0.12129889588E+04 -0.97431244413E+03  0.15703586356E+04  0.90237654071E+02 0.  0.
         23    2    4    4    0    0  0.17918140097E+03  0.43810807888E+01 -0.49388971014E+03  0.53260436584E+03  0.87265092727E+02 0.  0.
          2    1    3    3  502    0 -0.80447431304E+01  0.86637919982E+03  0.56742383614E+02  0.86827261495E+03  0.00000000000E+00 0. -1.
         -1    1    3    3    0  502  0.21882660223E+02  0.34222867823E+03 -0.21094179757E+02  0.34357573174E+03  0.00000000000E+00 0.  1.
         11    1    5    5    0    0 -0.19896308434E+03 -0.10668357876E+04 -0.86340970517E+03  0.13867953078E+04  0.00000000000E+00 0. -1.
        -11    1    5    5    0    0  0.59437662807E+01 -0.14615317122E+03 -0.11090273896E+03  0.18356332784E+03  0.00000000000E+00 0.  1.
          2    1    6    6  503    0  0.18157070844E+03  0.18882250779E+02 -0.43186563068E+03  0.46886286324E+03  0.00000000000E+00 0. -1.
         -2    1    6    6    0  503 -0.23893074791E+01 -0.14501169990E+02 -0.62024079454E+02  0.63741502598E+02  0.00000000000E+00 0.  1.
<mgrwt>
<rscale>  0 0.29892747E+04</rscale>
<asrwt>0</asrwt>
<pdfrwt beam="1">  1        2 0.36518194E+00 0.29892747E+04</pdfrwt>
<pdfrwt beam="2">  1       -1 0.14478903E+00 0.29892747E+04</pdfrwt>
<totfact> 0.15373942E+00</totfact>
</mgrwt>
</event>
<event>
12    6  0.1569942E-007  0.1638481E+04  0.7818608E-02  0.8797250E-01
         -1   -1    0    0    0  501 -0.00000000000E+00  0.00000000000E+00  0.58589342671E+03  0.58589342671E+03  0.00000000000E+00 0.  1.
          2   -1    0    0  501    0  0.00000000000E+00 -0.00000000000E+00 -0.11455240605E+04  0.11455240605E+04  0.00000000000E+00 0. -1.
         24    2    1    2    0    0  0.12946076758E+03 -0.45155502327E+03 -0.24300101949E+03  0.53502672682E+03  0.80883085737E+02 0.  0.
        254    2    1    2    0    0 -0.12946076758E+03  0.45155502327E+03 -0.31662961431E+03  0.11963907604E+04  0.10537715642E+04 0.  0.
         23    2    4    4    0    0 -0.46249065649E+03  0.39382440977E+02 -0.44061361022E+03  0.64499342632E+03  0.80172205236E+02 0.  0.
         23    2    4    4    0    0  0.33302988891E+03  0.41217258230E+03  0.12398399591E+03  0.55139733408E+03  0.88723414547E+02 0.  0.
          4    1    3    3  502    0  0.83182009561E+02 -0.38213661053E+03 -0.18021231595E+03  0.43060900437E+03  0.00000000000E+00 0. -1.
         -3    1    3    3    0  502  0.46278758015E+02 -0.69418412746E+02 -0.62788703534E+02  0.10441772246E+03  0.00000000000E+00 0.  1.
         11    1    5    5    0    0 -0.37665307360E+03  0.56092676966E+02 -0.32932227435E+03  0.50345514859E+03  0.00000000000E+00 0. -1.
        -11    1    5    5    0    0 -0.85837582888E+02 -0.16710235989E+02 -0.11129133588E+03  0.14153827773E+03  0.00000000000E+00 0.  1.
          4    1    6    6  503    0  0.15836151267E+03  0.12858404566E+03  0.39398538871E+02  0.20776060829E+03  0.00000000000E+00 0. -1.
         -4    1    6    6    0  503  0.17466837624E+03  0.28358853664E+03  0.84585457037E+02  0.34363672579E+03  0.00000000000E+00 0.  1.
<mgrwt>
<rscale>  0 0.16384810E+04</rscale>
<asrwt>0</asrwt>
<pdfrwt beam="1">  1        2 0.17623447E+00 0.16384810E+04</pdfrwt>
<pdfrwt beam="2">  1       -1 0.90137451E-01 0.16384810E+04</pdfrwt>
<totfact> 0.26822217E+01</totfact>
</mgrwt>
</event>
<event>
12    6  0.1569942E-007  0.1242835E+04  0.7818608E-02  0.9076168E-01
          2   -1    0    0  501    0  0.00000000000E+00  0.00000000000E+00  0.70278662784E+03  0.70278662784E+03  0.00000000000E+00 0. -1.
         -1   -1    0    0    0  501 -0.00000000000E+00 -0.00000000000E+00 -0.54946892059E+03  0.54946892059E+03  0.00000000000E+00 0.  1.
         24    2    1    2    0    0  0.82317966564E+02 -0.27772028930E+03 -0.30527180222E+02  0.30213024184E+03  0.80286783410E+02 0.  0.
        254    2    1    2    0    0 -0.82317966564E+02  0.27772028930E+03  0.18384488747E+03  0.95012530659E+03  0.88602164131E+03 0.  0.
         23    2    4    4    0    0  0.18898998083E+03  0.51145315060E+03  0.17677627122E+03  0.58029797660E+03  0.90522668254E+02 0.  0.
         23    2    4    4    0    0 -0.27130794739E+03 -0.23373286129E+03  0.70686162445E+01  0.36982732999E+03  0.92104483624E+02 0.  0.
          4    1    3    3  502    0  0.36147153392E+02 -0.10064098487E+03 -0.50094431123E+02  0.11808758006E+03  0.00000000000E+00 0. -1.
         -3    1    3    3    0  502  0.46170813172E+02 -0.17707930443E+03  0.19567250901E+02  0.18404266178E+03  0.00000000000E+00 0.  1.
         11    1    5    5    0    0 -0.54699967944E+01  0.64435795035E+02  0.12382123296E+02  0.65842308010E+02  0.00000000000E+00 0. -1.
        -11    1    5    5    0    0  0.19445997762E+03  0.44701735556E+03  0.16439414792E+03  0.51445566859E+03  0.00000000000E+00 0.  1.
          1    1    6    6  503    0 -0.11808767716E+03 -0.88609484003E+02  0.47219627250E+02  0.15500333335E+03  0.00000000000E+00 0. -1.
         -1    1    6    6    0  503 -0.15322027023E+03 -0.14512337729E+03 -0.40151011005E+02  0.21482399664E+03  0.00000000000E+00 0.  1.
<mgrwt>
<rscale>  0 0.12428345E+04</rscale>
<asrwt>0</asrwt>
<pdfrwt beam="1">  1        2 0.10812102E+00 0.12428345E+04</pdfrwt>
<pdfrwt beam="2">  1       -1 0.84533680E-01 0.12428345E+04</pdfrwt>
<totfact> 0.63513222E+01</totfact>
</mgrwt>
</event>
<event>
12    6  0.1569942E-007  0.2067803E+04  0.7818608E-02  0.8575560E-01
          2   -1    0    0  501    0  0.00000000000E+00  0.00000000000E+00  0.13882110847E+04  0.13882110847E+04  0.00000000000E+00 0. -1.
         -1   -1    0    0    0  501 -0.00000000000E+00 -0.00000000000E+00 -0.77002162093E+03  0.77002162093E+03  0.00000000000E+00 0.  1.
         24    2    1    2    0    0  0.15553867645E+03 -0.70900742181E+03 -0.13867437193E+03  0.74342381957E+03  0.81022157514E+02 0.  0.
        254    2    1    2    0    0 -0.15553867645E+03  0.70900742181E+03  0.75686383571E+03  0.14148088861E+04  0.94971443827E+03 0.  0.
         23    2    4    4    0    0 -0.29314720022E+03  0.50453291451E+03  0.92881932934E+03  0.11007451065E+04  0.91900489746E+02 0.  0.
         23    2    4    4    0    0  0.13760852377E+03  0.20447450731E+03 -0.17195549363E+03  0.31406377962E+03  0.91221904875E+02 0.  0.
          4    1    3    3  502    0  0.48941482529E+02 -0.12668658754E+03 -0.50498575365E+02  0.14489605339E+03  0.00000000000E+00 0. -1.
         -3    1    3    3    0  502  0.10659719392E+03 -0.58232083427E+03 -0.88175796565E+02  0.59852776617E+03  0.00000000000E+00 0.  1.
         11    1    5    5    0    0 -0.26618035808E+03  0.40308545000E+03  0.71995088967E+03  0.86698278332E+03  0.00000000000E+00 0. -1.
        -11    1    5    5    0    0 -0.26966842136E+02  0.10144746451E+03  0.20886843967E+03  0.23376232314E+03  0.00000000000E+00 0.  1.
          2    1    6    6  503    0  0.33700613772E+02  0.22711762571E+02  0.36491516174E+01  0.40802841019E+02  0.00000000000E+00 0. -1.
         -2    1    6    6    0  503  0.10390790999E+03  0.18176274474E+03 -0.17560464525E+03  0.27326093860E+03  0.00000000000E+00 0.  1.
<mgrwt>
<rscale>  0 0.20678032E+04</rscale>
<asrwt>0</asrwt>
<pdfrwt beam="1">  1        2 0.21357093E+00 0.20678032E+04</pdfrwt>
<pdfrwt beam="2">  1       -1 0.11846487E+00 0.20678032E+04</pdfrwt>
<totfact> 0.98883592E+00</totfact>
</mgrwt>
</event>
<event>
12    6  0.1569942E-007  0.1165236E+04  0.7818608E-02  0.9143842E-01
         -1   -1    0    0    0  501 -0.00000000000E+00  0.00000000000E+00  0.10860964977E+04  0.10860964977E+04  0.00000000000E+00 0.  1.
          2   -1    0    0  501    0  0.00000000000E+00 -0.00000000000E+00 -0.31253528955E+03  0.31253528955E+03  0.00000000000E+00 0. -1.
         24    2    1    2    0    0  0.92734426388E+02  0.17169305676E+03  0.29541827309E+03  0.36329184972E+03  0.81429923366E+02 0.  0.
        254    2    1    2    0    0 -0.92734426388E+02 -0.17169305676E+03  0.47814293508E+03  0.10353399376E+04  0.89734605384E+03 0.  0.
         23    2    4    4    0    0 -0.53311242274E+01  0.27778349472E+03  0.48684028381E+03  0.56790436075E+03  0.91158160348E+02 0.  0.
         23    2    4    4    0    0 -0.87403302160E+02 -0.44947655149E+03 -0.86973487214E+01  0.46743557680E+03  0.93551413795E+02 0.  0.
          4    1    3    3  502    0 -0.70039208297E+01  0.42611533443E+00 -0.61024773696E+00  0.70433574074E+01  0.00000000000E+00 0. -1.
         -3    1    3    3    0  502  0.99738347217E+02  0.17126694143E+03  0.29602852083E+03  0.35624849231E+03  0.00000000000E+00 0.  1.
         11    1    5    5    0    0 -0.11353591143E+02  0.26681292269E+03  0.48696883159E+03  0.55538876716E+03  0.00000000000E+00 0. -1.
        -11    1    5    5    0    0  0.60224669160E+01  0.10970572030E+02 -0.12854778314E+00  0.12515593592E+02  0.00000000000E+00 0.  1.
          1    1    6    6  503    0 -0.10369806348E+03 -0.41342815019E+03 -0.18650066612E+02  0.42664264757E+03  0.00000000000E+00 0. -1.
         -1    1    6    6    0  503  0.16294761316E+02 -0.36048401294E+02  0.99527178904E+01  0.40792929235E+02  0.00000000000E+00 0.  1.
<mgrwt>
<rscale>  0 0.11652356E+04</rscale>
<asrwt>0</asrwt>
<pdfrwt beam="1">  1        2 0.48082353E-01 0.11652356E+04</pdfrwt>
<pdfrwt beam="2">  1       -1 0.16709177E+00 0.11652356E+04</pdfrwt>
<totfact> 0.30726026E+01</totfact>
</mgrwt>
</event>
<event>
12    6  0.1569942E-007  0.1885766E+04  0.7818608E-02  0.8661974E-01
          2   -1    0    0  501    0  0.00000000000E+00  0.00000000000E+00  0.31969805027E+04  0.31969805027E+04  0.00000000000E+00 0. -1.
         -1   -1    0    0    0  501 -0.00000000000E+00 -0.00000000000E+00 -0.27808381005E+03  0.27808381005E+03  0.00000000000E+00 0.  1.
         24    2    1    2    0    0 -0.86174547722E+02  0.27155920087E+03  0.23592907365E+04  0.23777568376E+04  0.79399919777E+02 0.  0.
        254    2    1    2    0    0  0.86174547722E+02 -0.27155920087E+03  0.55960595621E+03  0.10973074752E+04  0.89986355444E+03 0.  0.
         23    2    4    4    0    0 -0.13762415962E+03  0.28788353468E+03  0.23187865581E+03  0.40527173286E+03  0.93059806491E+02 0.  0.
         23    2    4    4    0    0  0.22379870734E+03 -0.55944273555E+03  0.32772730039E+03  0.69203574232E+03  0.91903478957E+02 0.  0.
          4    1    3    3  502    0 -0.55512497992E+02  0.24835855149E+03  0.21450202211E+04  0.21600637390E+04  0.00000000000E+00 0. -1.
         -3    1    3    3    0  502 -0.30662049730E+02  0.23200649387E+02  0.21427051539E+03  0.21769309863E+03  0.00000000000E+00 0.  1.
         11    1    5    5    0    0 -0.10763043783E+03  0.11999340026E+03  0.10010210889E+03  0.18974498533E+03  0.00000000000E+00 0. -1.
        -11    1    5    5    0    0 -0.29993721788E+02  0.16789013442E+03  0.13177654692E+03  0.21552674753E+03  0.00000000000E+00 0.  1.
          2    1    6    6  503    0  0.22489291807E+03 -0.52878242762E+03  0.29075616139E+03  0.64399287709E+03  0.00000000000E+00 0. -1.
         -2    1    6    6    0  503 -0.10942107229E+01 -0.30660307933E+02  0.36971139004E+02  0.48042865224E+02  0.00000000000E+00 0.  1.
<mgrwt>
<rscale>  0 0.18857662E+04</rscale>
<asrwt>0</asrwt>
<pdfrwt beam="1">  1        2 0.49184313E+00 0.18857662E+04</pdfrwt>
<pdfrwt beam="2">  1       -1 0.42782127E-01 0.18857662E+04</pdfrwt>
<totfact> 0.75150714E+00</totfact>
</mgrwt>
</event>
<event>
12    6  0.1569942E-007  0.1328542E+04  0.7818608E-02  0.9007232E-01
          2   -1    0    0  501    0  0.00000000000E+00  0.00000000000E+00  0.37024256196E+04  0.37024256196E+04  0.00000000000E+00 0. -1.
         -1   -1    0    0    0  501 -0.00000000000E+00 -0.00000000000E+00 -0.11918029937E+03  0.11918029937E+03  0.00000000000E+00 0.  1.
         24    2    1    2    0    0  0.29530728977E+03 -0.18907505133E+03  0.10596085211E+04  0.11192819112E+04  0.84059551966E+02 0.  0.
        254    2    1    2    0    0 -0.29530728977E+03  0.18907505133E+03  0.25236367991E+04  0.27023240078E+04  0.90047575131E+03 0.  0.
         23    2    4    4    0    0 -0.50189441746E+03  0.40634570992E+03  0.17481448229E+04  0.18658743936E+04  0.91989610950E+02 0.  0.
         23    2    4    4    0    0  0.20658712769E+03 -0.21727065859E+03  0.77549197621E+03  0.83644961420E+03  0.91517055828E+02 0.  0.
          4    1    3    3  502    0  0.12764213550E+03 -0.67952486217E+02  0.31733110262E+03  0.34872494007E+03  0.00000000000E+00 0. -1.
         -3    1    3    3    0  502  0.16766515428E+03 -0.12112256512E+03  0.74227741851E+03  0.77055697114E+03  0.00000000000E+00 0.  1.
         11    1    5    5    0    0 -0.48591156131E+03  0.40789932116E+03  0.17224725571E+04  0.18355935311E+04  0.00000000000E+00 0. -1.
        -11    1    5    5    0    0 -0.15982856146E+02 -0.15536112382E+01  0.25672265841E+02  0.30280862469E+02  0.00000000000E+00 0.  1.
          3    1    6    6  503    0  0.20262602473E+03 -0.17125001790E+03  0.69058497772E+03  0.73979151521E+03  0.00000000000E+00 0. -1.
         -3    1    6    6    0  503  0.39611029571E+01 -0.46020640684E+02  0.84906998494E+02  0.96658098982E+02  0.00000000000E+00 0.  1.
<mgrwt>
<rscale>  0 0.13285423E+04</rscale>
<asrwt>0</asrwt>
<pdfrwt beam="1">  1        2 0.56960386E+00 0.13285423E+04</pdfrwt>
<pdfrwt beam="2">  1       -1 0.18335433E-01 0.13285423E+04</pdfrwt>
<totfact> 0.15690857E+01</totfact>
</mgrwt>
</event>
<event>
12    6  0.1569942E-007  0.3229182E+04  0.7818608E-02  0.8181153E-01
         -1   -1    0    0    0  501 -0.00000000000E+00  0.00000000000E+00  0.21171663192E+04  0.21171663192E+04  0.00000000000E+00 0.  1.
          2   -1    0    0  501    0  0.00000000000E+00 -0.00000000000E+00 -0.12313174038E+04  0.12313174038E+04  0.00000000000E+00 0. -1.
         24    2    1    2    0    0 -0.69122998725E+03  0.12560651759E+04  0.81925435225E+01  0.14359562949E+04  0.80029629988E+02 0.  0.
        254    2    1    2    0    0  0.69122998725E+03 -0.12560651759E+04  0.87765637189E+03  0.19125274281E+04  0.91213038250E+03 0.  0.
         23    2    4    4    0    0  0.29438289203E+03 -0.54149775368E+03 -0.10447800255E+03  0.63149149838E+03  0.89357457173E+02 0.  0.
         23    2    4    4    0    0  0.39684709522E+03 -0.71456742220E+03  0.98213437444E+03  0.12810359297E+04  0.91492654569E+02 0.  0.
          4    1    3    3  502    0 -0.65207370046E+03  0.11985533260E+04 -0.81925511939E+01  0.13644769342E+04  0.00000000000E+00 0. -1.
         -3    1    3    3    0  502 -0.39156286797E+02  0.57511849918E+02  0.16385094716E+02  0.71479360697E+02  0.00000000000E+00 0.  1.
         11    1    5    5    0    0  0.29693961522E+03 -0.51914237445E+03 -0.90164447919E+02  0.60482358395E+03  0.00000000000E+00 0.  1.
        -11    1    5    5    0    0 -0.25567231851E+01 -0.22355379227E+02 -0.14313554633E+02  0.26667914430E+02  0.00000000000E+00 0. -1.
          4    1    6    6  503    0  0.20437002533E+03 -0.32016722532E+03  0.51716404442E+03  0.64166409301E+03  0.00000000000E+00 0. -1.
         -4    1    6    6    0  503  0.19247706989E+03 -0.39440019688E+03  0.46497033002E+03  0.63937183668E+03  0.00000000000E+00 0.  1.
<mgrwt>
<rscale>  0 0.32291818E+04</rscale>
<asrwt>0</asrwt>
<pdfrwt beam="1">  1        2 0.18943345E+00 0.32291818E+04</pdfrwt>
<pdfrwt beam="2">  1       -1 0.32571790E+00 0.32291818E+04</pdfrwt>
<totfact> 0.38978320E-01</totfact>
</mgrwt>
</event>
<event>
12    6  0.1569942E-007  0.1793626E+04  0.7818608E-02  0.8709696E-01
          2   -1    0    0  501    0  0.00000000000E+00  0.00000000000E+00  0.21907689971E+04  0.21907689971E+04  0.00000000000E+00 0. -1.
         -1   -1    0    0    0  501 -0.00000000000E+00 -0.00000000000E+00 -0.36711942094E+03  0.36711942094E+03  0.00000000000E+00 0.  1.
         24    2    1    2    0    0  0.26225988909E+03  0.47054708102E+03  0.12470488102E+04  0.13607399656E+04  0.79295107479E+02 0.  0.
        254    2    1    2    0    0 -0.26225988909E+03 -0.47054708102E+03  0.57660076595E+03  0.11971484524E+04  0.90027838416E+03 0.  0.
         23    2    4    4    0    0  0.10154809410E+03 -0.35305016303E+03  0.69099088256E+03  0.78761760656E+03  0.88975622248E+02 0.  0.
         23    2    4    4    0    0 -0.36380798318E+03 -0.11749691799E+03 -0.11439011662E+03  0.40953084587E+03  0.92025217032E+02 0.  0.
          2    1    3    3  502    0  0.26595894811E+02  0.61688605009E+02  0.22865630022E+03  0.23832022415E+03  0.00000000000E+00 0. -1.
         -1    1    3    3    0  502  0.23566399427E+03  0.40885847601E+03  0.10183925099E+04  0.11224197414E+04  0.00000000000E+00 0.  1.
         11    1    5    5    0    0 -0.38164291789E+01 -0.85786432182E+01  0.62590103247E+02  0.63290435894E+02  0.00000000000E+00 0.  1.
        -11    1    5    5    0    0  0.10536452328E+03 -0.34447151981E+03  0.62840077932E+03  0.72432717067E+03  0.00000000000E+00 0. -1.
          4    1    6    6  503    0 -0.31790218255E+03 -0.66972430501E+02 -0.91268092611E+02  0.33745661772E+03  0.00000000000E+00 0. -1.
         -4    1    6    6    0  503 -0.45905800636E+02 -0.50524487491E+02 -0.23122024005E+02  0.72074228142E+02  0.00000000000E+00 0.  1.
<mgrwt>
<rscale>  0 0.17936263E+04</rscale>
<asrwt>0</asrwt>
<pdfrwt beam="1">  1        2 0.33704138E+00 0.17936263E+04</pdfrwt>
<pdfrwt beam="2">  1       -1 0.56479912E-01 0.17936263E+04</pdfrwt>
<totfact> 0.17838246E+01</totfact>
</mgrwt>
</event>
<event>
12    6  0.1569942E-007  0.1208554E+04  0.7818608E-02  0.9105402E-01
         -1   -1    0    0    0  501 -0.00000000000E+00  0.00000000000E+00  0.56670182734E+03  0.56670182734E+03  0.00000000000E+00 0.  1.
          2   -1    0    0  501    0  0.00000000000E+00 -0.00000000000E+00 -0.64434384215E+03  0.64434384215E+03  0.00000000000E+00 0. -1.
         24    2    1    2    0    0  0.12309851679E+03  0.23029197682E+03  0.29669404933E+02  0.27505105891E+03  0.81149072672E+02 0.  0.
        254    2    1    2    0    0 -0.12309851679E+03 -0.23029197682E+03 -0.10731141974E+03  0.93599461058E+03  0.89240267302E+03 0.  0.
         23    2    4    4    0    0  0.14662541321E+03 -0.49651792041E+03 -0.14256915033E+03  0.54519388213E+03  0.94240911476E+02 0.  0.
         23    2    4    4    0    0 -0.26972393000E+03  0.26622594359E+03  0.35257730581E+02  0.39080072846E+03  0.88627593550E+02 0.  0.
          4    1    3    3  502    0 -0.97424388354E+01  0.23251091345E+02  0.13327147402E+02  0.28515631171E+02  0.00000000000E+00 0. -1.
         -3    1    3    3    0  502  0.13284095563E+03  0.20704088548E+03  0.16342257531E+02  0.24653542774E+03  0.00000000000E+00 0.  1.
         11    1    5    5    0    0  0.49069725983E+02 -0.32636952300E+03 -0.85663878503E+02  0.34097390462E+03  0.00000000000E+00 0.  1.
        -11    1    5    5    0    0  0.97555687228E+02 -0.17014839741E+03 -0.56905271823E+02  0.20421997751E+03  0.00000000000E+00 0. -1.
          3    1    6    6  503    0 -0.19626155011E+03  0.15590389731E+03  0.55503728192E+02  0.25672024675E+03  0.00000000000E+00 0. -1.
         -3    1    6    6    0  503 -0.73462379895E+02  0.11032204628E+03 -0.20245997611E+02  0.13408048171E+03  0.00000000000E+00 0.  1.
<mgrwt>
<rscale>  0 0.12085542E+04</rscale>
<asrwt>0</asrwt>
<pdfrwt beam="1">  1        2 0.99129821E-01 0.12085542E+04</pdfrwt>
<pdfrwt beam="2">  1       -1 0.87184897E-01 0.12085542E+04</pdfrwt>
<totfact> 0.66377595E+01</totfact>
</mgrwt>
</event>
<event>
12    6  0.1569942E-007  0.1062201E+04  0.7818608E-02  0.9242837E-01
          2   -1    0    0  501    0  0.00000000000E+00  0.00000000000E+00  0.10128985516E+04  0.10128985516E+04  0.00000000000E+00 0. -1.
         -1   -1    0    0    0  501 -0.00000000000E+00 -0.00000000000E+00 -0.27847577568E+03  0.27847577568E+03  0.00000000000E+00 0.  1.
         24    2    1    2    0    0 -0.13614078484E+03 -0.70584039402E+02  0.23660504047E+03  0.29308070565E+03  0.79987092308E+02 0.  0.
        254    2    1    2    0    0  0.13614078484E+03  0.70584039402E+02  0.49781773542E+03  0.99829362159E+03  0.85161683713E+03 0.  0.
         23    2    4    4    0    0  0.18282354644E+03  0.43769742927E+03  0.25136385048E+03  0.54432991078E+03  0.90043199219E+02 0.  0.
         23    2    4    4    0    0 -0.46682761599E+02 -0.36711338986E+03  0.24645388494E+03  0.45396371080E+03  0.91607925854E+02 0.  0.
          4    1    3    3  502    0 -0.13030766303E+03 -0.32511378313E+02  0.17888365704E+03  0.22368826415E+03  0.00000000000E+00 0. -1.
         -3    1    3    3    0  502 -0.58331218118E+01 -0.38072661089E+02  0.57721383427E+02  0.69392441499E+02  0.00000000000E+00 0.  1.
         11    1    5    5    0    0  0.82383328700E+02  0.95314478357E+02  0.63364560749E+02  0.14102102748E+03  0.00000000000E+00 0. -1.
        -11    1    5    5    0    0  0.10044021774E+03  0.34238295091E+03  0.18799928973E+03  0.40330888330E+03  0.00000000000E+00 0.  1.
          3    1    6    6  503    0 -0.68000937087E+02 -0.32439795024E+03  0.19872878063E+03  0.38645994077E+03  0.00000000000E+00 0.  1.
         -3    1    6    6    0  503  0.21318175488E+02 -0.42715439619E+02  0.47725104310E+02  0.67503770039E+02  0.00000000000E+00 0. -1.
<mgrwt>
<rscale>  0 0.10622009E+04</rscale>
<asrwt>0</asrwt>
<pdfrwt beam="1">  1        2 0.15583054E+00 0.10622009E+04</pdfrwt>
<pdfrwt beam="2">  1       -1 0.42842428E-01 0.10622009E+04</pdfrwt>
<totfact> 0.15037993E+02</totfact>
</mgrwt>
</event>
<event>
12    6  0.1569942E-007  0.1551954E+04  0.7818608E-02  0.8850621E-01
          2   -1    0    0  501    0  0.00000000000E+00  0.00000000000E+00  0.26915079667E+04  0.26915079667E+04  0.00000000000E+00 0. -1.
         -1   -1    0    0    0  501 -0.00000000000E+00 -0.00000000000E+00 -0.22371843867E+03  0.22371843867E+03  0.00000000000E+00 0.  1.
         24    2    1    2    0    0 -0.23478596221E+03  0.44573267898E+03  0.11023007262E+04  0.12150060934E+04  0.85853635805E+02 0.  0.
        254    2    1    2    0    0  0.23478596221E+03 -0.44573267898E+03  0.13654888018E+04  0.17002203120E+04  0.87885571757E+03 0.  0.
         23    2    4    4    0    0 -0.51644639660E+02  0.10676096115E+03 -0.45459441508E+02  0.15539750388E+03  0.89536315308E+02 0.  0.
         23    2    4    4    0    0  0.28643060188E+03 -0.55249364012E+03  0.14109482434E+04  0.15448228081E+04  0.91710692312E+02 0.  0.
          2    1    3    3  502    0 -0.18185669946E+03  0.33409139977E+03  0.73691719881E+03  0.82929842665E+03  0.00000000000E+00 0. -1.
         -1    1    3    3    0  502 -0.52929262757E+02  0.11164127921E+03  0.36538352741E+03  0.38570766674E+03  0.00000000000E+00 0.  1.
         11    1    5    5    0    0 -0.45046598717E+01 -0.15618655869E+02 -0.11546753071E+02  0.19938953789E+02  0.00000000000E+00 0.  1.
        -11    1    5    5    0    0 -0.47139979789E+02  0.12237961702E+03 -0.33912688437E+02  0.13545855009E+03  0.00000000000E+00 0. -1.
          4    1    6    6  503    0  0.24132079877E+03 -0.47114676050E+03  0.11087689523E+04  0.12286511251E+04  0.00000000000E+00 0. -1.
         -4    1    6    6    0  503  0.45109803107E+02 -0.81346879623E+02  0.30217929110E+03  0.31617168300E+03  0.00000000000E+00 0.  1.
<mgrwt>
<rscale>  0 0.15519536E+04</rscale>
<asrwt>0</asrwt>
<pdfrwt beam="1">  1        2 0.41407813E+00 0.15519536E+04</pdfrwt>
<pdfrwt beam="2">  1       -1 0.34418223E-01 0.15519536E+04</pdfrwt>
<totfact> 0.23635229E+01</totfact>
</mgrwt>
</event>
<event>
12    6  0.1569942E-007  0.2814394E+04  0.7818608E-02  0.8298814E-01
          2   -1    0    0  501    0  0.00000000000E+00  0.00000000000E+00  0.13049314703E+04  0.13049314703E+04  0.00000000000E+00 0. -1.
         -1   -1    0    0    0  501 -0.00000000000E+00 -0.00000000000E+00 -0.15174765027E+04  0.15174765027E+04  0.00000000000E+00 0.  1.
         24    2    1    2    0    0  0.29759015245E+03 -0.12274071216E+04 -0.11501703324E+03  0.12706120918E+04  0.78345572345E+02 0.  0.
        254    2    1    2    0    0 -0.29759015245E+03  0.12274071216E+04 -0.97527999238E+02  0.15517958812E+04  0.89636521867E+03 0.  0.
         23    2    4    4    0    0 -0.19051095030E+03  0.30667793361E+03  0.35675406171E+03  0.51573438006E+03  0.91447870834E+02 0.  0.
         23    2    4    4    0    0 -0.10707920215E+03  0.92072918803E+03 -0.45428206095E+03  0.10360615012E+04  0.88560996318E+02 0.  0.
          2    1    3    3  502    0  0.49129096746E+02 -0.34302460026E+03 -0.42760698069E+02  0.34915329274E+03  0.00000000000E+00 0. -1.
         -1    1    3    3    0  502  0.24846105570E+03 -0.88438252138E+03 -0.72256335170E+02  0.92145879902E+03  0.00000000000E+00 0.  1.
         11    1    5    5    0    0 -0.14103802551E+03  0.27064859584E+03  0.32828915147E+03  0.44823671653E+03  0.00000000000E+00 0. -1.
        -11    1    5    5    0    0 -0.49472924784E+02  0.36029337776E+02  0.28464910236E+02  0.67497663530E+02  0.00000000000E+00 0.  1.
          4    1    6    6  503    0 -0.11345817234E+03  0.85838154541E+03 -0.44221412752E+03  0.97223709503E+03  0.00000000000E+00 0. -1.
         -4    1    6    6    0  503  0.63789701895E+01  0.62347642622E+02 -0.12067933422E+02  0.63824406133E+02  0.00000000000E+00 0.  1.
<mgrwt>
<rscale>  0 0.28143936E+04</rscale>
<asrwt>0</asrwt>
<pdfrwt beam="1">  1        2 0.20075869E+00 0.28143936E+04</pdfrwt>
<pdfrwt beam="2">  1       -1 0.23345792E+00 0.28143936E+04</pdfrwt>
<totfact> 0.14559024E+00</totfact>
</mgrwt>
</event>
<event>
12    6  0.1569942E-007  0.2966139E+04  0.7818608E-02  0.8253467E-01
         -1   -1    0    0    0  501 -0.00000000000E+00  0.00000000000E+00  0.14999424651E+04  0.14999424651E+04  0.00000000000E+00 0.  1.
          2   -1    0    0  501    0  0.00000000000E+00 -0.00000000000E+00 -0.14663864250E+04  0.14663864250E+04  0.00000000000E+00 0. -1.
         24    2    1    2    0    0  0.49993583526E+03  0.11069565730E+04  0.60392770782E+03  0.13586910013E+04  0.77613574463E+02 0.  0.
        254    2    1    2    0    0 -0.49993583526E+03 -0.11069565730E+04 -0.57037166770E+03  0.16076378887E+04  0.88537395940E+03 0.  0.
         23    2    4    4    0    0 -0.52762173112E+03 -0.33200982444E+03  0.17166622301E+02  0.63036704725E+03  0.91938602709E+02 0.  0.
         23    2    4    4    0    0  0.27685895861E+02 -0.77494674858E+03 -0.58753829000E+03  0.97727084146E+03  0.92455845605E+02 0.  0.
          4    1    3    3  502    0  0.22248303132E+03  0.51614106888E+03  0.32133908148E+03  0.64742498213E+03  0.00000000000E+00 0. -1.
         -3    1    3    3    0  502  0.27745280393E+03  0.59081550414E+03  0.28258862635E+03  0.71126601921E+03  0.00000000000E+00 0.  1.
         11    1    5    5    0    0 -0.23671689232E+03 -0.10218935597E+03  0.28908610752E+02  0.25944798970E+03  0.00000000000E+00 0. -1.
        -11    1    5    5    0    0 -0.29090483880E+03 -0.22982046847E+03 -0.11741988451E+02  0.37091905755E+03  0.00000000000E+00 0.  1.
          4    1    6    6  503    0  0.13966559798E+02 -0.74984823563E+03 -0.57883089059E+03  0.94737143780E+03  0.00000000000E+00 0. -1.
         -4    1    6    6    0  503  0.13719336063E+02 -0.25098512957E+02 -0.87073994098E+01  0.29899403658E+02  0.00000000000E+00 0.  1.
<mgrwt>
<rscale>  0 0.29661391E+04</rscale>
<asrwt>0</asrwt>
<pdfrwt beam="1">  1        2 0.22559791E+00 0.29661391E+04</pdfrwt>
<pdfrwt beam="2">  1       -1 0.23076038E+00 0.29661391E+04</pdfrwt>
<totfact> 0.12095909E+00</totfact>
</mgrwt>
</event>
<event>
12    6  0.1569942E-007  0.3505597E+04  0.7818608E-02  0.8112465E-01
          2   -1    0    0  501    0  0.00000000000E+00  0.00000000000E+00  0.83201535591E+03  0.83201535591E+03  0.00000000000E+00 0. -1.
         -1   -1    0    0    0  501 -0.00000000000E+00 -0.00000000000E+00 -0.36926028860E+04  0.36926028860E+04  0.00000000000E+00 0.  1.
         24    2    1    2    0    0  0.11293226022E+04  0.10872779865E+04 -0.19344238317E+04  0.24911347203E+04  0.78826860648E+02 0.  0.
        254    2    1    2    0    0 -0.11293226022E+04 -0.10872779865E+04 -0.92616369833E+03  0.20334835216E+04  0.90539111808E+03 0.  0.
         23    2    4    4    0    0 -0.48412067050E+03 -0.47538468844E+03  0.77804930646E+02  0.68932558510E+03  0.93556022916E+02 0.  0.
         23    2    4    4    0    0 -0.64520193169E+03 -0.61189329810E+03 -0.10039686290E+04  0.13441579365E+04  0.90047817251E+02 0.  0.
          2    1    3    3  502    0  0.37294644617E+03  0.40850048834E+03 -0.66245538452E+03  0.86302308032E+03  0.00000000000E+00 0. -1.
         -1    1    3    3    0  502  0.75637615602E+03  0.67877749820E+03 -0.12719684472E+04  0.16281116400E+04  0.00000000000E+00 0.  1.
         11    1    5    5    0    0 -0.16825601849E+03 -0.13521214958E+03  0.63097483240E+02  0.22488598343E+03  0.00000000000E+00 0. -1.
        -11    1    5    5    0    0 -0.31586465201E+03 -0.34017253887E+03  0.14707447406E+02  0.46443960167E+03  0.00000000000E+00 0.  1.
          3    1    6    6  503    0 -0.19610543762E+03 -0.20782471761E+03 -0.26534475646E+03  0.38994396481E+03  0.00000000000E+00 0. -1.
         -3    1    6    6    0  503 -0.44909649407E+03 -0.40406858049E+03 -0.73862387252E+03  0.95421397170E+03  0.00000000000E+00 0.  1.
<mgrwt>
<rscale>  0 0.35055968E+04</rscale>
<asrwt>0</asrwt>
<pdfrwt beam="1">  1        2 0.12800236E+00 0.35055968E+04</pdfrwt>
<pdfrwt beam="2">  1       -1 0.56809275E+00 0.35055968E+04</pdfrwt>
<totfact> 0.18524462E-02</totfact>
</mgrwt>
</event>
<event>
12    6  0.1569942E-007  0.2532236E+04  0.7818608E-02  0.8391590E-01
         -1   -1    0    0    0  501 -0.00000000000E+00  0.00000000000E+00  0.21891537646E+04  0.21891537646E+04  0.00000000000E+00 0.  1.
          2   -1    0    0  501    0  0.00000000000E+00 -0.00000000000E+00 -0.73227150795E+03  0.73227150795E+03  0.00000000000E+00 0. -1.
         24    2    1    2    0    0  0.16555890327E+03 -0.26468810071E+03  0.18603249724E+04  0.18879898462E+04  0.78912074793E+02 0.  0.
        254    2    1    2    0    0 -0.16555890327E+03  0.26468810071E+03 -0.40344271571E+03  0.10334354263E+04  0.89875091902E+03 0.  0.
         23    2    4    4    0    0 -0.49566829001E+03  0.14235148097E+03 -0.50921508772E+02  0.52627142056E+03  0.91747535046E+02 0.  0.
         23    2    4    4    0    0  0.33010938674E+03  0.12233661975E+03 -0.35252120693E+03  0.50716400578E+03  0.94898217448E+02 0.  0.
          2    1    3    3  502    0 -0.23280844588E+01 -0.10142789631E+02  0.17449780921E+03  0.17480784186E+03  0.00000000000E+00 0. -1.
         -1    1    3    3    0  502  0.16788698773E+03 -0.25454531108E+03  0.16858271632E+04  0.17131820044E+04  0.00000000000E+00 0.  1.
         11    1    5    5    0    0 -0.46129424714E+03  0.13903258668E+03 -0.23831384683E+02  0.48237990993E+03  0.00000000000E+00 0. -1.
        -11    1    5    5    0    0 -0.34374042867E+02  0.33188942842E+01 -0.27090124089E+02  0.43891510631E+02  0.00000000000E+00 0.  1.
          3    1    6    6  503    0  0.10280977308E+03  0.81751260186E+02 -0.15621807185E+03  0.20410096510E+03  0.00000000000E+00 0. -1.
         -3    1    6    6    0  503  0.22729961366E+03  0.40585359559E+02 -0.19630313508E+03  0.30306304068E+03  0.00000000000E+00 0.  1.
<mgrwt>
<rscale>  0 0.25322361E+04</rscale>
<asrwt>0</asrwt>
<pdfrwt beam="1">  1        2 0.11265716E+00 0.25322361E+04</pdfrwt>
<pdfrwt beam="2">  1       -1 0.33679288E+00 0.25322361E+04</pdfrwt>
<totfact> 0.74564729E-01</totfact>
</mgrwt>
</event>
<event>
12    6  0.1569942E-007  0.1410512E+04  0.7818608E-02  0.8946244E-01
         -1   -1    0    0    0  501 -0.00000000000E+00  0.00000000000E+00  0.26188020353E+03  0.26188020353E+03  0.00000000000E+00 0.  1.
          2   -1    0    0  501    0  0.00000000000E+00 -0.00000000000E+00 -0.18992883263E+04  0.18992883263E+04  0.00000000000E+00 0. -1.
         24    2    1    2    0    0  0.68483944398E+02  0.28042063490E+03 -0.35774428325E+02  0.30750055246E+03  0.99754683732E+02 0.  0.
        254    2    1    2    0    0 -0.68483944398E+02 -0.28042063490E+03 -0.16016336944E+04  0.18536679773E+04  0.88742813566E+03 0.  0.
         23    2    4    4    0    0 -0.23878870398E+03 -0.15324089838E+02 -0.14840533478E+04  0.15059247483E+04  0.90222699913E+02 0.  0.
         23    2    4    4    0    0  0.17030475958E+03 -0.26509654506E+03 -0.11758034658E+03  0.34774322898E+03  0.88432607454E+02 0.  0.
          4    1    3    3  502    0  0.49152170528E+02  0.37828915353E+02 -0.55977596156E+01  0.62275979455E+02  0.00000000000E+00 0. -1.
         -3    1    3    3    0  502  0.19331773870E+02  0.24259171955E+03 -0.30176668709E+02  0.24522457301E+03  0.00000000000E+00 0.  1.
         11    1    5    5    0    0 -0.13987192840E+03 -0.47967091143E+02 -0.99262930521E+03  0.10035825505E+04  0.00000000000E+00 0. -1.
        -11    1    5    5    0    0 -0.98916775581E+02  0.32643001305E+02 -0.49142404262E+03  0.50234219780E+03  0.00000000000E+00 0.  1.
          2    1    6    6  503    0  0.14859531612E+01  0.35441806938E+01  0.60983619504E+01  0.72082794109E+01  0.00000000000E+00 0. -1.
         -2    1    6    6    0  503  0.16881880642E+03 -0.26864072575E+03 -0.12367870853E+03  0.34053494957E+03  0.00000000000E+00 0.  1.
<mgrwt>
<rscale>  0 0.14105120E+04</rscale>
<asrwt>0</asrwt>
<pdfrwt beam="1">  1        2 0.29219820E+00 0.14105120E+04</pdfrwt>
<pdfrwt beam="2">  1       -1 0.40289263E-01 0.14105120E+04</pdfrwt>
<totfact> 0.50629717E+01</totfact>
</mgrwt>
</event>
<event>
12    6  0.1569942E-007  0.1229623E+04  0.7818608E-02  0.9087316E-01
          2   -1    0    0  501    0  0.00000000000E+00  0.00000000000E+00  0.11935070159E+04  0.11935070159E+04  0.00000000000E+00 0. -1.
         -1   -1    0    0    0  501 -0.00000000000E+00 -0.00000000000E+00 -0.31670778582E+03  0.31670778582E+03  0.00000000000E+00 0.  1.
         24    2    1    2    0    0 -0.75895767543E+02 -0.22646298650E+01 -0.11996489735E+03  0.16277853501E+03  0.79623983721E+02 0.  0.
        254    2    1    2    0    0  0.75895767543E+02  0.22646298650E+01  0.99676412743E+03  0.13474362667E+04  0.90348241324E+03 0.  0.
         23    2    4    4    0    0  0.43978831973E+03  0.18900965669E+03  0.54661856156E+03  0.73224575468E+03  0.90849198764E+02 0.  0.
         23    2    4    4    0    0 -0.36389255218E+03 -0.18674502682E+03  0.45014556587E+03  0.61519051203E+03  0.92395027118E+02 0.  0.
          4    1    3    3  502    0  0.16929878475E+02 -0.24865660270E+01 -0.21079104458E+02  0.27150183066E+02  0.00000000000E+00 0. -1.
         -3    1    3    3    0  502 -0.92825646019E+02  0.22193616195E+00 -0.98885792895E+02  0.13562835194E+03  0.00000000000E+00 0.  1.
         11    1    5    5    0    0  0.10878242052E+03  0.11814595133E+02  0.15493377204E+03  0.18967781470E+03  0.00000000000E+00 0. -1.
        -11    1    5    5    0    0  0.33100589920E+03  0.17719506156E+03  0.39168478952E+03  0.54256793997E+03  0.00000000000E+00 0.  1.
          1    1    6    6  503    0 -0.40788197979E+02  0.15284060059E+01  0.20764805355E+02  0.45795089919E+02  0.00000000000E+00 0. -1.
         -1    1    6    6    0  503 -0.32310435421E+03 -0.18827343283E+03  0.42938076052E+03  0.56939542211E+03  0.00000000000E+00 0.  1.
<mgrwt>
<rscale>  0 0.12296226E+04</rscale>
<asrwt>0</asrwt>
<pdfrwt beam="1">  1        2 0.18361646E+00 0.12296226E+04</pdfrwt>
<pdfrwt beam="2">  1       -1 0.48724275E-01 0.12296226E+04</pdfrwt>
<totfact> 0.90438804E+01</totfact>
</mgrwt>
</event>
<event>
12    6  0.1569942E-007  0.1131181E+04  0.7818608E-02  0.9175322E-01
         -1   -1    0    0    0  501 -0.00000000000E+00  0.00000000000E+00  0.26395580345E+03  0.26395580345E+03  0.00000000000E+00 0.  1.
          2   -1    0    0  501    0  0.00000000000E+00 -0.00000000000E+00 -0.12119183986E+04  0.12119183986E+04  0.00000000000E+00 0. -1.
         24    2    1    2    0    0 -0.16839387620E+03 -0.61353209097E+02 -0.63690471001E+02  0.20718985314E+03  0.82161093821E+02 0.  0.
        254    2    1    2    0    0  0.16839387620E+03  0.61353209097E+02 -0.88427212418E+03  0.12686843489E+04  0.89190922960E+03 0.  0.
         23    2    4    4    0    0 -0.28821802157E+03  0.17327702177E+03 -0.12336742263E+03  0.36971227582E+03  0.91504599312E+02 0.  0.
         23    2    4    4    0    0  0.45661189777E+03 -0.11192381267E+03 -0.76090470155E+03  0.89897207312E+03  0.90296502646E+02 0.  0.
          2    1    3    3  502    0 -0.16341646281E+03 -0.67518778845E+02 -0.76075470567E+02  0.19248689056E+03  0.00000000000E+00 0. -1.
         -1    1    3    3    0  502 -0.49774133919E+01  0.61655697481E+01  0.12384999566E+02  0.14702962581E+02  0.00000000000E+00 0.  1.
         11    1    5    5    0    0 -0.15610249673E+03  0.67024858174E+02 -0.10370490762E+03  0.19903524553E+03  0.00000000000E+00 0. -1.
        -11    1    5    5    0    0 -0.13211552484E+03  0.10625216359E+03 -0.19662515009E+02  0.17067703029E+03  0.00000000000E+00 0.  1.
          2    1    6    6  503    0  0.40608888820E+03 -0.11358770230E+03 -0.71800717642E+03  0.83267319917E+03  0.00000000000E+00 0. -1.
         -2    1    6    6    0  503  0.50523009572E+02  0.16638896298E+01 -0.42897525129E+02  0.66298873951E+02  0.00000000000E+00 0.  1.
<mgrwt>
<rscale>  0 0.11311815E+04</rscale>
<asrwt>0</asrwt>
<pdfrwt beam="1">  1        2 0.18644898E+00 0.11311815E+04</pdfrwt>
<pdfrwt beam="2">  1       -1 0.40608585E-01 0.11311815E+04</pdfrwt>
<totfact> 0.12460849E+02</totfact>
</mgrwt>
</event>
<event>
12    6  0.1569942E-007  0.3036097E+04  0.7818608E-02  0.8233498E-01
         -1   -1    0    0    0  501 -0.00000000000E+00  0.00000000000E+00  0.95753385458E+03  0.95753385458E+03  0.00000000000E+00 0.  1.
          2   -1    0    0  501    0  0.00000000000E+00 -0.00000000000E+00 -0.24066734962E+04  0.24066734962E+04  0.00000000000E+00 0. -1.
         24    2    1    2    0    0 -0.10830109876E+04  0.63958882573E+03 -0.10905432365E+04  0.16664815994E+04  0.76744415369E+02 0.  0.
        254    2    1    2    0    0  0.10830109876E+04 -0.63958882573E+03 -0.35859640517E+03  0.16977257514E+04  0.10824484652E+04 0.  0.
         23    2    4    4    0    0 -0.12211079552E+03 -0.39811437230E+03 -0.98999048180E+02  0.43830714154E+03  0.94372872005E+02 0.  0.
         23    2    4    4    0    0  0.12051217831E+04 -0.24147445343E+03 -0.25959735699E+03  0.12594186099E+04  0.90088974462E+02 0.  0.
          2    1    3    3  502    0 -0.10034408539E+04  0.59542446415E+03 -0.10361619000E+04  0.15604663800E+04  0.00000000000E+00 0. -1.
         -1    1    3    3    0  502 -0.79570133648E+02  0.44164361586E+02 -0.54381336428E+02  0.10601521945E+03  0.00000000000E+00 0.  1.
         11    1    5    5    0    0 -0.30541102709E+02 -0.21942934048E+03 -0.19649152606E+02  0.22241421631E+03  0.00000000000E+00 0.  1.
        -11    1    5    5    0    0 -0.91569692807E+02 -0.17868503183E+03 -0.79349895574E+02  0.21589292524E+03  0.00000000000E+00 0. -1.
          4    1    6    6  503    0  0.27760195695E+03 -0.88517191797E+02 -0.40474511097E+02  0.29417057262E+03  0.00000000000E+00 0. -1.
         -4    1    6    6    0  503  0.92751982615E+03 -0.15295726163E+03 -0.21912284590E+03  0.96524803723E+03  0.00000000000E+00 0.  1.
<mgrwt>
<rscale>  0 0.30360971E+04</rscale>
<asrwt>0</asrwt>
<pdfrwt beam="1">  1        2 0.37025745E+00 0.30360971E+04</pdfrwt>
<pdfrwt beam="2">  1       -1 0.14731290E+00 0.30360971E+04</pdfrwt>
<totfact> 0.14000818E+00</totfact>
</mgrwt>
</event>
<event>
12    6  0.1569942E-007  0.3448765E+04  0.7818608E-02  0.8126040E-01
         -1   -1    0    0    0  501 -0.00000000000E+00  0.00000000000E+00  0.13470650126E+04  0.13470650126E+04  0.00000000000E+00 0.  1.
          2   -1    0    0  501    0  0.00000000000E+00 -0.00000000000E+00 -0.22073876821E+04  0.22073876821E+04  0.00000000000E+00 0. -1.
         24    2    1    2    0    0  0.86753783070E+03 -0.13268477710E+04 -0.27759762367E+03  0.16113991356E+04  0.79998990608E+02 0.  0.
        254    2    1    2    0    0 -0.86753783070E+03  0.13268477710E+04 -0.58272504584E+03  0.19430535591E+04  0.96059448220E+03 0.  0.
         23    2    4    4    0    0 -0.22986248151E+03 -0.33945010483E+02 -0.33435967301E+03  0.41727245985E+03  0.91273712924E+02 0.  0.
         23    2    4    4    0    0 -0.63767534919E+03  0.13607927815E+04 -0.24836537283E+03  0.15257810992E+04  0.89082878154E+02 0.  0.
          4    1    3    3  502    0  0.29458579724E+03 -0.48837574523E+03 -0.67079248935E+02  0.57427457379E+03  0.00000000000E+00 0. -1.
         -3    1    3    3    0  502  0.57295203346E+03 -0.83847202579E+03 -0.21051837474E+03  0.10371245618E+04  0.00000000000E+00 0.  1.
         11    1    5    5    0    0 -0.95901904704E+02 -0.21075359023E+02 -0.21905251938E+03  0.24005281155E+03  0.00000000000E+00 0.  1.
        -11    1    5    5    0    0 -0.13396057681E+03 -0.12869651460E+02 -0.11530715363E+03  0.17721964830E+03  0.00000000000E+00 0. -1.
          4    1    6    6  503    0 -0.51999670628E+03  0.11132400929E+04 -0.16791637053E+03  0.12401193437E+04  0.00000000000E+00 0.  1.
         -4    1    6    6    0  503 -0.11767864291E+03  0.24755268855E+03 -0.80449002301E+02  0.28566175554E+03  0.00000000000E+00 0. -1.
<mgrwt>
<rscale>  0 0.34487648E+04</rscale>
<asrwt>0</asrwt>
<pdfrwt beam="1">  1        2 0.33959810E+00 0.34487648E+04</pdfrwt>
<pdfrwt beam="2">  1       -1 0.20724077E+00 0.34487648E+04</pdfrwt>
<totfact> 0.64413907E-01</totfact>
</mgrwt>
</event>
<event>
12    6  0.1569942E-007  0.1787179E+04  0.7818608E-02  0.8713147E-01
          2   -1    0    0  501    0  0.00000000000E+00  0.00000000000E+00  0.23003617371E+04  0.23003617371E+04  0.00000000000E+00 0. -1.
         -1   -1    0    0    0  501 -0.00000000000E+00 -0.00000000000E+00 -0.34712021889E+03  0.34712021889E+03  0.00000000000E+00 0.  1.
         24    2    1    2    0    0 -0.53486761007E+03  0.19227948925E+03  0.23547369539E+03  0.62042614682E+03  0.80162211461E+02 0.  0.
        254    2    1    2    0    0  0.53486761007E+03 -0.19227948925E+03  0.17177678228E+04  0.20270558092E+04  0.91387865612E+03 0.  0.
         23    2    4    4    0    0  0.45681527781E+03  0.13025296714E+03  0.30251405812E+03  0.57046114975E+03  0.90912785234E+02 0.  0.
         23    2    4    4    0    0  0.78052332258E+02 -0.32253245639E+03  0.14152537647E+04  0.14565946594E+04  0.92765464445E+02 0.  0.
          4    1    3    3  502    0 -0.91367342529E+02  0.46102128660E+02  0.12976652590E+02  0.10315905709E+03  0.00000000000E+00 0. -1.
         -3    1    3    3    0  502 -0.44350026754E+03  0.14617736059E+03  0.22249704280E+03  0.51726708972E+03  0.00000000000E+00 0.  1.
         11    1    5    5    0    0  0.73170237827E+02  0.22574067935E+02  0.92343082281E+02  0.11996131498E+03  0.00000000000E+00 0. -1.
        -11    1    5    5    0    0  0.38364503999E+03  0.10767889920E+03  0.21017097584E+03  0.45049983477E+03  0.00000000000E+00 0.  1.
          3    1    6    6  503    0 -0.15797928597E+02 -0.31999677981E+02  0.22466360696E+03  0.22748030735E+03  0.00000000000E+00 0. -1.
         -3    1    6    6    0  503  0.93850260854E+02 -0.29053277840E+03  0.11905901577E+04  0.12291143521E+04  0.00000000000E+00 0.  1.
<mgrwt>
<rscale>  0 0.17871789E+04</rscale>
<asrwt>0</asrwt>
<pdfrwt beam="1">  1        2 0.35390180E+00 0.17871789E+04</pdfrwt>
<pdfrwt beam="2">  1       -1 0.53403112E-01 0.17871789E+04</pdfrwt>
<totfact> 0.17259134E+01</totfact>
</mgrwt>
</event>
<event>
12    6  0.1569942E-007  0.1226643E+04  0.7818608E-02  0.9089851E-01
          2   -1    0    0  501    0  0.00000000000E+00  0.00000000000E+00  0.29934118105E+03  0.29934118105E+03  0.00000000000E+00 0. -1.
         -1   -1    0    0    0  501 -0.00000000000E+00 -0.00000000000E+00 -0.12566365053E+04  0.12566365053E+04  0.00000000000E+00 0.  1.
         24    2    1    2    0    0  0.90787988398E+02  0.25388745637E+03 -0.25608960960E+03  0.38040538233E+03  0.80156518253E+02 0.  0.
        254    2    1    2    0    0 -0.90787988398E+02 -0.25388745637E+03 -0.70120571461E+03  0.11755723040E+04  0.90420102211E+03 0.  0.
         23    2    4    4    0    0 -0.35302704333E+03 -0.23329643429E+03 -0.13983941001E+02  0.43276085901E+03  0.89616354020E+02 0.  0.
         23    2    4    4    0    0  0.26223905493E+03 -0.20591022072E+02 -0.68722177361E+03  0.74281144499E+03  0.10149760867E+03 0.  0.
          2    1    3    3  502    0  0.65692100883E+02  0.17453426363E+03 -0.22335382560E+03  0.29097180741E+03  0.00000000000E+00 0. -1.
         -1    1    3    3    0  502  0.25095887515E+02  0.79353192733E+02 -0.32735784004E+02  0.89433574911E+02  0.00000000000E+00 0.  1.
         11    1    5    5    0    0 -0.26749745757E+03 -0.12720227267E+03 -0.12838152679E+02  0.29647955434E+03  0.00000000000E+00 0.  1.
        -11    1    5    5    0    0 -0.85529585760E+02 -0.10609416162E+03 -0.11457883222E+01  0.13628130467E+03  0.00000000000E+00 0. -1.
          1    1    6    6  503    0  0.11980434356E+03 -0.56540583032E+02 -0.27621222709E+03  0.30633823245E+03  0.00000000000E+00 0.  1.
         -1    1    6    6    0  503  0.14243471137E+03  0.35949560961E+02 -0.41100954652E+03  0.43647321254E+03  0.00000000000E+00 0. -1.
<mgrwt>
<rscale>  0 0.12266427E+04</rscale>
<asrwt>0</asrwt>
<pdfrwt beam="1">  1        2 0.46052490E-01 0.12266427E+04</pdfrwt>
<pdfrwt beam="2">  1       -1 0.19332869E+00 0.12266427E+04</pdfrwt>
<totfact> 0.20803032E+01</totfact>
</mgrwt>
</event>
<event>
12    6  0.1569942E-007  0.1028617E+04  0.7818608E-02  0.9277704E-01
          2   -1    0    0  501    0  0.00000000000E+00  0.00000000000E+00  0.13652098161E+04  0.13652098161E+04  0.00000000000E+00 0. -1.
         -1   -1    0    0    0  501 -0.00000000000E+00 -0.00000000000E+00 -0.19375263788E+03  0.19375263788E+03  0.00000000000E+00 0.  1.
         24    2    1    2    0    0 -0.71340151453E+00 -0.70054658031E+02  0.68160917931E+02  0.13779990334E+03  0.97132582446E+02 0.  0.
        254    2    1    2    0    0  0.71340151453E+00  0.70054658031E+02  0.11032962603E+04  0.14211625507E+04  0.89304657961E+03 0.  0.
         23    2    4    4    0    0  0.34244998348E+03 -0.49454294772E+02  0.95447134762E+03  0.10191807932E+04  0.89421570558E+02 0.  0.
         23    2    4    4    0    0 -0.34173658196E+03  0.11950895280E+03  0.14882491268E+03  0.40198175749E+03  0.91510641297E+02 0.  0.
          4    1    3    3  502    0  0.25814738666E+02 -0.16022276039E+02  0.71321777991E+02  0.77523609808E+02  0.00000000000E+00 0. -1.
         -3    1    3    3    0  502 -0.26528140180E+02 -0.54032381992E+02 -0.31608600598E+01  0.60276293528E+02  0.00000000000E+00 0.  1.
         11    1    5    5    0    0  0.11815893810E+03 -0.20285866341E+02  0.46117911786E+03  0.47650732394E+03  0.00000000000E+00 0.  1.
        -11    1    5    5    0    0  0.22429104538E+03 -0.29168428431E+02  0.49329222976E+03  0.54267346922E+03  0.00000000000E+00 0. -1.
          3    1    6    6  503    0 -0.13532029593E+03  0.86871332058E+02  0.92635765897E+02  0.18557908273E+03  0.00000000000E+00 0. -1.
         -3    1    6    6    0  503 -0.20641628603E+03  0.32637620746E+02  0.56189146786E+02  0.21640267476E+03  0.00000000000E+00 0.  1.
<mgrwt>
<rscale>  0 0.10286166E+04</rscale>
<asrwt>0</asrwt>
<pdfrwt beam="1">  1        2 0.21003227E+00 0.10286166E+04</pdfrwt>
<pdfrwt beam="2">  1       -1 0.29808099E-01 0.10286166E+04</pdfrwt>
<totfact> 0.17741512E+02</totfact>
</mgrwt>
</event>
<event>
12    6  0.1569942E-007  0.1751491E+04  0.7818608E-02  0.8732530E-01
         -1   -1    0    0    0  501 -0.00000000000E+00  0.00000000000E+00  0.26691155811E+03  0.26691155811E+03  0.00000000000E+00 0.  1.
          2   -1    0    0  501    0  0.00000000000E+00 -0.00000000000E+00 -0.28733494147E+04  0.28733494147E+04  0.00000000000E+00 0. -1.
         24    2    1    2    0    0 -0.51125644979E+03  0.38778190651E+03 -0.99345861680E+03  0.11856233106E+04  0.83574199378E+02 0.  0.
        254    2    1    2    0    0  0.51125644979E+03 -0.38778190651E+03 -0.16129792398E+04  0.19546376623E+04  0.89841438002E+03 0.  0.
         23    2    4    4    0    0  0.47825678242E+03 -0.27745679016E+03 -0.30557960876E+03  0.63906228806E+03  0.96487773270E+02 0.  0.
         23    2    4    4    0    0  0.32999667375E+02 -0.11032511635E+03 -0.13073996310E+04  0.13155753742E+04  0.90466350785E+02 0.  0.
          4    1    3    3  502    0 -0.45825395046E+03  0.31106843854E+03 -0.85104630570E+03  0.10154014334E+04  0.00000000000E+00 0. -1.
         -3    1    3    3    0  502 -0.53002499327E+02  0.76713467973E+02 -0.14241231110E+03  0.17022187714E+03  0.00000000000E+00 0.  1.
         11    1    5    5    0    0  0.26020786109E+03 -0.14737753840E+03 -0.21953595174E+03  0.37097749784E+03  0.00000000000E+00 0. -1.
        -11    1    5    5    0    0  0.21804892133E+03 -0.13007925176E+03 -0.86043657016E+02  0.26808479021E+03  0.00000000000E+00 0.  1.
          3    1    6    6  503    0 -0.16246596326E+02 -0.82260360728E+01 -0.49169871676E+03  0.49203581945E+03  0.00000000000E+00 0. -1.
         -3    1    6    6    0  503  0.49246263700E+02 -0.10209908028E+03 -0.81570091428E+03  0.82353955475E+03  0.00000000000E+00 0.  1.
<mgrwt>
<rscale>  0 0.17514910E+04</rscale>
<asrwt>0</asrwt>
<pdfrwt beam="1">  1        2 0.44205373E+00 0.17514910E+04</pdfrwt>
<pdfrwt beam="2">  1       -1 0.41063319E-01 0.17514910E+04</pdfrwt>
<totfact> 0.13111063E+01</totfact>
</mgrwt>
</event>
<event>
12    6  0.1569942E-007  0.2252670E+04  0.7818608E-02  0.8496820E-01
         -1   -1    0    0    0  501 -0.00000000000E+00  0.00000000000E+00  0.10681299841E+04  0.10681299841E+04  0.00000000000E+00 0.  1.
          2   -1    0    0  501    0  0.00000000000E+00 -0.00000000000E+00 -0.11877112511E+04  0.11877112511E+04  0.00000000000E+00 0. -1.
         24    2    1    2    0    0  0.32630828008E+03 -0.22541967862E+03 -0.90145909664E+03  0.98812164111E+03  0.80403666353E+02 0.  0.
        254    2    1    2    0    0 -0.32630828008E+03  0.22541967862E+03  0.78187782958E+03  0.12677195941E+04  0.91569039733E+03 0.  0.
         23    2    4    4    0    0  0.51070355998E+02  0.47573820841E+03  0.20431879272E+03  0.52816717431E+03  0.90991047679E+02 0.  0.
         23    2    4    4    0    0 -0.37737863608E+03 -0.25031852979E+03  0.57755903686E+03  0.73955241981E+03  0.91045808598E+02 0.  0.
          4    1    3    3  502    0  0.29534696597E+03 -0.20938907181E+03 -0.75148547791E+03  0.83414869011E+03  0.00000000000E+00 0. -1.
         -3    1    3    3    0  502  0.30961314116E+02 -0.16030606807E+02 -0.14997361873E+03  0.15397295100E+03  0.00000000000E+00 0.  1.
         11    1    5    5    0    0  0.53148934895E+02  0.37781727460E+03  0.12302296602E+03  0.40088072095E+03  0.00000000000E+00 0. -1.
        -11    1    5    5    0    0 -0.20785788977E+01  0.97920933812E+02  0.81295826703E+02  0.12728645336E+03  0.00000000000E+00 0.  1.
          2    1    6    6  503    0 -0.28751583210E+02  0.36544266907E+01  0.22996039277E+02  0.36997651195E+02  0.00000000000E+00 0.  1.
         -2    1    6    6    0  503 -0.34862705287E+03 -0.25397295648E+03  0.55456299758E+03  0.70255476861E+03  0.00000000000E+00 0. -1.
<mgrwt>
<rscale>  0 0.22526695E+04</rscale>
<asrwt>0</asrwt>
<pdfrwt beam="1">  1        2 0.18272481E+00 0.22526695E+04</pdfrwt>
<pdfrwt beam="2">  1       -1 0.16432769E+00 0.22526695E+04</pdfrwt>
<totfact> 0.54189310E+00</totfact>
</mgrwt>
</event>
<event>
12    6  0.2542608E-007  0.2550179E+04  0.7818608E-02  0.8385324E-01
          2   -1    0    0  501    0  0.00000000000E+00  0.00000000000E+00  0.18990180461E+04  0.18990180461E+04  0.00000000000E+00 0. -1.
         -1   -1    0    0    0  501 -0.00000000000E+00 -0.00000000000E+00 -0.85615454605E+03  0.85615454605E+03  0.00000000000E+00 0.  1.
         24    2    1    2    0    0 -0.93743628708E+03  0.44338131622E+03  0.89944964305E+03  0.13751870061E+04  0.82194023119E+02 0.  0.
        254    2    1    2    0    0  0.93743628708E+03 -0.44338131622E+03  0.14341385703E+03  0.13799855861E+04  0.89912118178E+03 0.  0.
         23    2    4    4    0    0  0.45827612570E+03  0.44976230373E+01  0.45140458854E+03  0.64969501442E+03  0.91105835164E+02 0.  0.
         23    2    4    4    0    0  0.47916016138E+03 -0.44787893925E+03 -0.30799073151E+03  0.73029057167E+03  0.90972654715E+02 0.  0.
          4    1    3    3  502    0 -0.66855005613E+03  0.32266364298E+03  0.59421145335E+03  0.95087236544E+03  0.00000000000E+00 0. -1.
         -3    1    3    3    0  502 -0.26888623095E+03  0.12071767324E+03  0.30523818969E+03  0.42431464065E+03  0.00000000000E+00 0.  1.
         11    1    5    5    0    0  0.41966423849E+03 -0.21640731372E+02  0.39775662644E+03  0.57861621840E+03  0.00000000000E+00 0. -1.
        -11    1    5    5    0    0  0.38611887215E+02  0.26138354410E+02  0.53647962101E+02  0.71078796017E+02  0.00000000000E+00 0.  1.
          4    1    6    6  503    0  0.44128235839E+03 -0.42263296891E+03 -0.30910064890E+03  0.68475686005E+03  0.00000000000E+00 0. -1.
         -4    1    6    6    0  503  0.37877802990E+02 -0.25245970343E+02  0.11099173917E+01  0.45533711626E+02  0.00000000000E+00 0.  1.
<mgrwt>
<rscale>  0 0.25501788E+04</rscale>
<asrwt>0</asrwt>
<pdfrwt beam="1">  1        2 0.29215662E+00 0.25501788E+04</pdfrwt>
<pdfrwt beam="2">  1       -1 0.13171608E+00 0.25501788E+04</pdfrwt>
<totfact> 0.37699007E+00</totfact>
</mgrwt>
</event>
<event>
12    6  0.1569942E-007  0.1319594E+04  0.7818608E-02  0.9014170E-01
         -1   -1    0    0    0  501 -0.00000000000E+00  0.00000000000E+00  0.38442422647E+03  0.38442422647E+03  0.00000000000E+00 0.  1.
          2   -1    0    0  501    0  0.00000000000E+00 -0.00000000000E+00 -0.11324264276E+04  0.11324264276E+04  0.00000000000E+00 0. -1.
         24    2    1    2    0    0  0.28795945255E+02  0.31941443707E+03 -0.34866053762E+03  0.48042506978E+03  0.79933022631E+02 0.  0.
        254    2    1    2    0    0 -0.28795945255E+02 -0.31941443707E+03 -0.39934166352E+03  0.10364255843E+04  0.90102688000E+03 0.  0.
         23    2    4    4    0    0 -0.41718318368E+03  0.26482815469E+02 -0.20944776538E+03  0.47545493996E+03  0.86289543083E+02 0.  0.
         23    2    4    4    0    0  0.38838723843E+03 -0.34589725254E+03 -0.18989389814E+03  0.56097064433E+03  0.90215380991E+02 0.  0.
          4    1    3    3  502    0  0.16089414630E+02  0.17890468220E+03 -0.25175278526E+03  0.30926561312E+03  0.00000000000E+00 0. -1.
         -3    1    3    3    0  502  0.12706530625E+02  0.14050975487E+03 -0.96907752361E+02  0.17115945665E+03  0.00000000000E+00 0.  1.
         11    1    5    5    0    0 -0.37781667646E+03  0.36418958831E+02 -0.16115428763E+03  0.41236208118E+03  0.00000000000E+00 0. -1.
        -11    1    5    5    0    0 -0.39366507225E+02 -0.99361433614E+01 -0.48293477748E+02  0.63092858779E+02  0.00000000000E+00 0.  1.
          4    1    6    6  503    0  0.34941496263E+03 -0.32820935808E+03 -0.19567301714E+03  0.51778386270E+03  0.00000000000E+00 0. -1.
         -4    1    6    6    0  503  0.38972275801E+02 -0.17687894460E+02  0.57791189967E+01  0.43186781634E+02  0.00000000000E+00 0.  1.
<mgrwt>
<rscale>  0 0.13195941E+04</rscale>
<asrwt>0</asrwt>
<pdfrwt beam="1">  1        2 0.17421945E+00 0.13195941E+04</pdfrwt>
<pdfrwt beam="2">  1       -1 0.59142189E-01 0.13195941E+04</pdfrwt>
<totfact> 0.67311416E+01</totfact>
</mgrwt>
</event>
<event>
12    6  0.1569942E-007  0.2681317E+04  0.7818608E-02  0.8341093E-01
          2   -1    0    0  501    0  0.00000000000E+00  0.00000000000E+00  0.12428107952E+04  0.12428107952E+04  0.00000000000E+00 0. -1.
         -1   -1    0    0    0  501 -0.00000000000E+00 -0.00000000000E+00 -0.14462093184E+04  0.14462093184E+04  0.00000000000E+00 0.  1.
         24    2    1    2    0    0 -0.34868125029E+03  0.40261167896E+03 -0.11537197046E+04  0.12732548026E+04  0.80211328228E+02 0.  0.
        254    2    1    2    0    0  0.34868125029E+03 -0.40261167896E+03  0.95032118139E+03  0.14157653111E+04  0.90421584253E+03 0.  0.
         23    2    4    4    0    0  0.11860708772E+03  0.94528622825E+02 -0.11720494650E+03  0.21245959118E+03  0.91644839523E+02 0.  0.
         23    2    4    4    0    0  0.23007416257E+03 -0.49714030179E+03  0.10675261279E+04  0.12033057199E+04  0.90829630818E+02 0.  0.
          2    1    3    3  502    0 -0.59570821786E+02  0.29226641008E+02 -0.13755441671E+03  0.15272228687E+03  0.00000000000E+00 0. -1.
         -1    1    3    3    0  502 -0.28911042851E+03  0.37338503795E+03 -0.10161652879E+04  0.11205325157E+04  0.00000000000E+00 0.  1.
         11    1    5    5    0    0  0.10733338608E+02  0.20962855975E+01  0.14891069239E+02  0.18475467898E+02  0.00000000000E+00 0.  1.
        -11    1    5    5    0    0  0.10787374911E+03  0.92432337228E+02 -0.13209601574E+03  0.19398412329E+03  0.00000000000E+00 0. -1.
          2    1    6    6  503    0  0.12506557699E+03 -0.36755292155E+03  0.73044133132E+03  0.82721284273E+03  0.00000000000E+00 0. -1.
         -2    1    6    6    0  503  0.10500858558E+03 -0.12958738024E+03  0.33708479657E+03  0.37609287715E+03  0.00000000000E+00 0.  1.
<mgrwt>
<rscale>  0 0.26813165E+04</rscale>
<asrwt>0</asrwt>
<pdfrwt beam="1">  1        2 0.19120166E+00 0.26813165E+04</pdfrwt>
<pdfrwt beam="2">  1       -1 0.22249374E+00 0.26813165E+04</pdfrwt>
<totfact> 0.18937021E+00</totfact>
</mgrwt>
</event>
<event>
12    6  0.1569942E-007  0.1679483E+04  0.7818608E-02  0.8773153E-01
         -1   -1    0    0    0  501 -0.00000000000E+00  0.00000000000E+00  0.23007903236E+03  0.23007903236E+03  0.00000000000E+00 0.  1.
          2   -1    0    0  501    0  0.00000000000E+00 -0.00000000000E+00 -0.30648855829E+04  0.30648855829E+04  0.00000000000E+00 0. -1.
         24    2    1    2    0    0  0.24265604851E+03  0.31356521209E+03 -0.14196928611E+03  0.42841650682E+03  0.78615043119E+02 0.  0.
        254    2    1    2    0    0 -0.24265604851E+03 -0.31356521209E+03 -0.26928372645E+04  0.28665481085E+04  0.89917763829E+03 0.  0.
         23    2    4    4    0    0 -0.77265844675E+02  0.27880505078E+03 -0.47032205273E+03  0.55873414133E+03  0.85315533769E+02 0.  0.
         23    2    4    4    0    0 -0.16539020384E+03 -0.59237026287E+03 -0.22225152117E+04  0.23078139671E+04  0.90415666508E+02 0.  0.
          4    1    3    3  502    0  0.32321849577E+01 -0.46964033499E+01 -0.38621298695E+01  0.68861651995E+01  0.00000000000E+00 0. -1.
         -3    1    3    3    0  502  0.23942386355E+03  0.31826161544E+03 -0.13810715624E+03  0.42153034162E+03  0.00000000000E+00 0.  1.
         11    1    5    5    0    0 -0.35247396484E+02  0.13506976138E+03 -0.30644125072E+03  0.33673796867E+03  0.00000000000E+00 0. -1.
        -11    1    5    5    0    0 -0.42018448190E+02  0.14373528940E+03 -0.16388080201E+03  0.22199617266E+03  0.00000000000E+00 0.  1.
          1    1    6    6  503    0 -0.74629430448E+02 -0.13249350515E+03 -0.49483031027E+03  0.51766892582E+03  0.00000000000E+00 0. -1.
         -1    1    6    6    0  503 -0.90760773390E+02 -0.45987675771E+03 -0.17276849015E+04  0.17901450413E+04  0.00000000000E+00 0.  1.
<mgrwt>
<rscale>  0 0.16794831E+04</rscale>
<asrwt>0</asrwt>
<pdfrwt beam="1">  1        2 0.47152084E+00 0.16794831E+04</pdfrwt>
<pdfrwt beam="2">  1       -1 0.35396775E-01 0.16794831E+04</pdfrwt>
<totfact> 0.13148532E+01</totfact>
</mgrwt>
</event>
<event>
12    6  0.1569942E-007  0.1760648E+04  0.7818608E-02  0.8727511E-01
          2   -1    0    0  501    0  0.00000000000E+00  0.00000000000E+00  0.28723992430E+04  0.28723992430E+04  0.00000000000E+00 0. -1.
         -1   -1    0    0    0  501 -0.00000000000E+00 -0.00000000000E+00 -0.26979907487E+03  0.26979907487E+03  0.00000000000E+00 0.  1.
         24    2    1    2    0    0  0.60636990975E+03 -0.21024176705E+03  0.74573245628E+03  0.98705918644E+03  0.79264576758E+02 0.  0.
        254    2    1    2    0    0 -0.60636990975E+03  0.21024176705E+03  0.18568677119E+04  0.21551391315E+04  0.88587860821E+03 0.  0.
         23    2    4    4    0    0 -0.44100817957E+03 -0.10104936988E+03  0.16979454477E+04  0.17595755078E+04  0.91586216207E+02 0.  0.
         23    2    4    4    0    0 -0.16536173017E+03  0.31129113694E+03  0.15892226425E+03  0.39556362364E+03  0.83472274017E+02 0.  0.
          2    1    3    3  502    0  0.74187077359E+02 -0.50965040950E+01  0.11227408561E+03  0.13466687455E+03  0.00000000000E+00 0. -1.
         -1    1    3    3    0  502  0.53218283239E+03 -0.20514526296E+03  0.63345837067E+03  0.85239231189E+03  0.00000000000E+00 0.  1.
         11    1    5    5    0    0 -0.42532219098E+03 -0.10958452200E+03  0.15659851623E+04  0.16264123899E+04  0.00000000000E+00 0. -1.
        -11    1    5    5    0    0 -0.15685988590E+02  0.85351521150E+01  0.13196028539E+03  0.13316311795E+03  0.00000000000E+00 0.  1.
          3    1    6    6  503    0 -0.16801338460E+03  0.29277949737E+03  0.16522528671E+03  0.37582938530E+03  0.00000000000E+00 0. -1.
         -3    1    6    6    0  503  0.26516544235E+01  0.18511639564E+02 -0.63030224653E+01  0.19734238336E+02  0.00000000000E+00 0.  1.
<mgrwt>
<rscale>  0 0.17606484E+04</rscale>
<asrwt>0</asrwt>
<pdfrwt beam="1">  1        2 0.44190755E+00 0.17606484E+04</pdfrwt>
<pdfrwt beam="2">  1       -1 0.41507552E-01 0.17606484E+04</pdfrwt>
<totfact> 0.12860387E+01</totfact>
</mgrwt>
</event>
<event>
12    6  0.1569942E-007  0.1019266E+04  0.7818608E-02  0.9287662E-01
          2   -1    0    0  501    0  0.00000000000E+00  0.00000000000E+00  0.58716963774E+03  0.58716963774E+03  0.00000000000E+00 0. -1.
         -1   -1    0    0    0  501 -0.00000000000E+00 -0.00000000000E+00 -0.44233562516E+03  0.44233562516E+03  0.00000000000E+00 0.  1.
         24    2    1    2    0    0  0.11612847947E+02  0.65067391099E+02 -0.28100489110E+02  0.10449087054E+03  0.75895196930E+02 0.  0.
        254    2    1    2    0    0 -0.11612847947E+02 -0.65067391099E+02  0.17293450169E+03  0.92501439235E+03  0.90629832867E+03 0.  0.
         23    2    4    4    0    0 -0.44546350982E+03  0.27860253127E+02  0.65263354238E+02  0.46016968586E+03  0.91010450436E+02 0.  0.
         23    2    4    4    0    0  0.43385066188E+03 -0.92927644226E+02  0.10767114746E+03  0.46484470649E+03  0.87324574335E+02 0.  0.
          2    1    3    3  502    0 -0.17693636239E+02  0.41984648164E+02  0.14549838049E+02  0.47827536337E+02  0.00000000000E+00 0. -1.
         -1    1    3    3    0  502  0.29306484186E+02  0.23082742935E+02 -0.42650327160E+02  0.56663334208E+02  0.00000000000E+00 0.  1.
         11    1    5    5    0    0 -0.31866935433E+03  0.56944216840E+02  0.28400642390E+02  0.32496060947E+03  0.00000000000E+00 0.  1.
        -11    1    5    5    0    0 -0.12679415550E+03 -0.29083963712E+02  0.36862711848E+02  0.13520907639E+03  0.00000000000E+00 0. -1.
          4    1    6    6  503    0  0.41287104042E+02  0.12310457609E+02  0.25919745210E+02  0.50279275238E+02  0.00000000000E+00 0. -1.
         -4    1    6    6    0  503  0.39256355784E+03 -0.10523810184E+03  0.81751402245E+02  0.41456543125E+03  0.00000000000E+00 0.  1.
<mgrwt>
<rscale>  0 0.10192665E+04</rscale>
<asrwt>0</asrwt>
<pdfrwt beam="1">  1        2 0.90333791E-01 0.10192665E+04</pdfrwt>
<pdfrwt beam="2">  1       -1 0.68051634E-01 0.10192665E+04</pdfrwt>
<totfact> 0.12690382E+02</totfact>
</mgrwt>
</event>
<event>
12    6  0.1569942E-007  0.2530067E+04  0.7818608E-02  0.8392352E-01
          2   -1    0    0  501    0  0.00000000000E+00  0.00000000000E+00  0.12951169239E+04  0.12951169239E+04  0.00000000000E+00 0. -1.
         -1   -1    0    0    0  501 -0.00000000000E+00 -0.00000000000E+00 -0.12356486058E+04  0.12356486058E+04  0.00000000000E+00 0.  1.
         24    2    1    2    0    0 -0.40879950810E+03  0.10082078923E+04 -0.20273055969E+03  0.11093857875E+04  0.77697835792E+02 0.  0.
        254    2    1    2    0    0  0.40879950810E+03 -0.10082078923E+04  0.26219887782E+03  0.14213797422E+04  0.87634007564E+03 0.  0.
         23    2    4    4    0    0  0.49324324907E+03 -0.11156573408E+04  0.28425581987E+03  0.12555879268E+04  0.87860492201E+02 0.  0.
         23    2    4    4    0    0 -0.84443740974E+02  0.10744944846E+03 -0.22056942046E+02  0.16579181541E+03  0.91237536140E+02 0.  0.
          4    1    3    3  502    0 -0.26948016248E+03  0.59241083954E+03 -0.93856491122E+02  0.65755547424E+03  0.00000000000E+00 0. -1.
         -3    1    3    3    0  502 -0.13931934562E+03  0.41579705278E+03 -0.10887406856E+03  0.45183031325E+03  0.00000000000E+00 0.  1.
         11    1    5    5    0    0  0.38517894107E+03 -0.85328437538E+03  0.18035023511E+03  0.95340613026E+03  0.00000000000E+00 0.  1.
        -11    1    5    5    0    0  0.10806430800E+03 -0.26237296540E+03  0.10390558476E+03  0.30218179658E+03  0.00000000000E+00 0. -1.
          2    1    6    6  503    0 -0.26954851354E+02  0.71640957435E+02  0.28072246098E+02  0.81529392213E+02  0.00000000000E+00 0. -1.
         -2    1    6    6    0  503 -0.57488889620E+02  0.35808491026E+02 -0.50129188144E+02  0.84262423198E+02  0.00000000000E+00 0.  1.
<mgrwt>
<rscale>  0 0.25300667E+04</rscale>
<asrwt>0</asrwt>
<pdfrwt beam="1">  1        2 0.19924876E+00 0.25300667E+04</pdfrwt>
<pdfrwt beam="2">  1       -1 0.19009979E+00 0.25300667E+04</pdfrwt>
<totfact> 0.29760103E+00</totfact>
</mgrwt>
</event>
<event>
12    6  0.1569942E-007  0.3102811E+04  0.7818608E-02  0.8214967E-01
         -1   -1    0    0    0  501 -0.00000000000E+00  0.00000000000E+00  0.14703396315E+04  0.14703396315E+04  0.00000000000E+00 0.  1.
          2   -1    0    0  501    0  0.00000000000E+00 -0.00000000000E+00 -0.16369413023E+04  0.16369413023E+04  0.00000000000E+00 0. -1.
         24    2    1    2    0    0  0.27499659338E+03 -0.11337889998E+04  0.73293608667E+03  0.13800184235E+04  0.78453295459E+02 0.  0.
        254    2    1    2    0    0 -0.27499659338E+03  0.11337889998E+04 -0.89953775741E+03  0.17272625103E+04  0.90175771698E+03 0.  0.
         23    2    4    4    0    0  0.15166167434E+03  0.88090375058E+03 -0.30757078912E+03  0.94954260316E+03  0.89658706421E+02 0.  0.
         23    2    4    4    0    0 -0.42665826772E+03  0.25288524922E+03 -0.59196696829E+03  0.77771990717E+03  0.91842995240E+02 0.  0.
          2    1    3    3  502    0  0.37241343488E+02 -0.70398138907E+02  0.48520147880E+02  0.93257816705E+02  0.00000000000E+00 0. -1.
         -1    1    3    3    0  502  0.23775524989E+03 -0.10633908609E+04  0.68441593879E+03  0.12867606068E+04  0.00000000000E+00 0.  1.
         11    1    5    5    0    0  0.72903370197E+02  0.61872509637E+03 -0.23949072205E+03  0.66745146057E+03  0.00000000000E+00 0. -1.
        -11    1    5    5    0    0  0.78758304145E+02  0.26217865421E+03 -0.68080067074E+02  0.28209114259E+03  0.00000000000E+00 0.  1.
          1    1    6    6  503    0 -0.33128671940E+03  0.17064896072E+03 -0.38772607786E+03  0.53777641237E+03  0.00000000000E+00 0. -1.
         -1    1    6    6    0  503 -0.95371548324E+02  0.82236288493E+02 -0.20424089042E+03  0.23994349480E+03  0.00000000000E+00 0.  1.
<mgrwt>
<rscale>  0 0.31028114E+04</rscale>
<asrwt>0</asrwt>
<pdfrwt beam="1">  1        2 0.25183712E+00 0.31028114E+04</pdfrwt>
<pdfrwt beam="2">  1       -1 0.22620610E+00 0.31028114E+04</pdfrwt>
<totfact> 0.10278167E+00</totfact>
</mgrwt>
</event>
<event>
12    6  0.1569942E-007  0.2218321E+04  0.7818608E-02  0.8510841E-01
         -1   -1    0    0    0  501 -0.00000000000E+00  0.00000000000E+00  0.22893011062E+03  0.22893011062E+03  0.00000000000E+00 0.  1.
          2   -1    0    0  501    0  0.00000000000E+00 -0.00000000000E+00 -0.53738519554E+04  0.53738519554E+04  0.00000000000E+00 0. -1.
         24    2    1    2    0    0  0.76979896149E+03  0.73715708305E+02 -0.84911088904E+03  0.11513481160E+04  0.81171026789E+02 0.  0.
        254    2    1    2    0    0 -0.76979896149E+03 -0.73715708305E+02 -0.42958109557E+04  0.44514339500E+04  0.87364065674E+03 0.  0.
         23    2    4    4    0    0 -0.71161616386E+03 -0.33977267191E+03 -0.37611426730E+04  0.38439918677E+04  0.90753728539E+02 0.  0.
         23    2    4    4    0    0 -0.58182797635E+02  0.26605696361E+03 -0.53466828271E+03  0.60744208226E+03  0.94573595349E+02 0.  0.
          2    1    3    3  502    0  0.17172663482E+02  0.13608917035E+02 -0.16848983381E+02  0.27640391367E+02  0.00000000000E+00 0. -1.
         -1    1    3    3    0  502  0.75262629801E+03  0.60106791269E+02 -0.83226190566E+03  0.11237077246E+04  0.00000000000E+00 0.  1.
         11    1    5    5    0    0 -0.14134968179E+03 -0.44473702821E+02 -0.57599598342E+03  0.59475122169E+03  0.00000000000E+00 0. -1.
        -11    1    5    5    0    0 -0.57026648206E+03 -0.29529896909E+03 -0.31851466896E+04  0.32492406461E+04  0.00000000000E+00 0.  1.
          2    1    6    6  503    0 -0.19139392814E+02  0.22316655526E+03 -0.36619908614E+03  0.42926844565E+03  0.00000000000E+00 0. -1.
         -2    1    6    6    0  503 -0.39043404822E+02  0.42890408353E+02 -0.16846919658E+03  0.17817363661E+03  0.00000000000E+00 0.  1.
<mgrwt>
<rscale>  0 0.22183206E+04</rscale>
<asrwt>0</asrwt>
<pdfrwt beam="1">  1        2 0.82674631E+00 0.22183206E+04</pdfrwt>
<pdfrwt beam="2">  1       -1 0.35220023E-01 0.22183206E+04</pdfrwt>
<totfact> 0.81100455E-02</totfact>
</mgrwt>
</event>
<event>
12    6  0.1569942E-007  0.1411810E+04  0.7818608E-02  0.8945314E-01
          2   -1    0    0  501    0  0.00000000000E+00  0.00000000000E+00  0.14400529209E+04  0.14400529209E+04  0.00000000000E+00 0. -1.
         -1   -1    0    0    0  501 -0.00000000000E+00 -0.00000000000E+00 -0.34603026231E+03  0.34603026231E+03  0.00000000000E+00 0.  1.
         24    2    1    2    0    0  0.26703597517E+02 -0.41200198257E+03  0.16840879204E+03  0.45245085813E+03  0.76756381032E+02 0.  0.
        254    2    1    2    0    0 -0.26703597517E+02  0.41200198257E+03  0.92561386650E+03  0.13336323250E+04  0.86680760999E+03 0.  0.
         23    2    4    4    0    0 -0.27172225560E+03  0.28179629607E+02  0.80330934745E+03  0.85329869327E+03  0.90474728694E+02 0.  0.
         23    2    4    4    0    0  0.24501865808E+03  0.38382235296E+03  0.12230451905E+03  0.48033363175E+03  0.91696570110E+02 0.  0.
          4    1    3    3  502    0 -0.21519341799E+02 -0.92824713977E+02  0.56637472822E+02  0.11084815255E+03  0.00000000000E+00 0. -1.
         -3    1    3    3    0  502  0.48222939316E+02 -0.31917726859E+03  0.11177131922E+03  0.34160270558E+03  0.00000000000E+00 0.  1.
         11    1    5    5    0    0 -0.21830573002E+03 -0.10303324331E+02  0.66762104913E+03  0.70248232397E+03  0.00000000000E+00 0.  1.
        -11    1    5    5    0    0 -0.53416525580E+02  0.38482953939E+02  0.13568829832E+03  0.15081636930E+03  0.00000000000E+00 0. -1.
          4    1    6    6  503    0  0.52804650233E+02  0.83321139190E+02  0.67263876442E+02  0.11939502668E+03  0.00000000000E+00 0. -1.
         -4    1    6    6    0  503  0.19221400785E+03  0.30050121377E+03  0.55040642613E+02  0.36093860507E+03  0.00000000000E+00 0.  1.
<mgrwt>
<rscale>  0 0.14118100E+04</rscale>
<asrwt>0</asrwt>
<pdfrwt beam="1">  1        2 0.22154660E+00 0.14118100E+04</pdfrwt>
<pdfrwt beam="2">  1       -1 0.53235426E-01 0.14118100E+04</pdfrwt>
<totfact> 0.54138734E+01</totfact>
</mgrwt>
</event>
<event>
12    6  0.1569942E-007  0.1822706E+04  0.7818608E-02  0.8694317E-01
          2   -1    0    0  501    0  0.00000000000E+00  0.00000000000E+00  0.26986700181E+04  0.26986700181E+04  0.00000000000E+00 0. -1.
         -1   -1    0    0    0  501 -0.00000000000E+00 -0.00000000000E+00 -0.30776804788E+03  0.30776804788E+03  0.00000000000E+00 0.  1.
         24    2    1    2    0    0 -0.52713865086E+03 -0.33332784670E+03  0.43735618296E+03  0.76602672443E+03  0.80832550064E+02 0.  0.
        254    2    1    2    0    0  0.52713865086E+03  0.33332784670E+03  0.19535457872E+04  0.22404113415E+04  0.90228555668E+03 0.  0.
         23    2    4    4    0    0  0.15335871136E+03  0.19059590133E+03  0.17730620143E+04  0.17919258353E+04  0.86044178825E+02 0.  0.
         23    2    4    4    0    0  0.37377993950E+03  0.14273194537E+03  0.18048377294E+03  0.44848550623E+03  0.92092375364E+02 0.  0.
          2    1    3    3  502    0 -0.19121325371E+03 -0.12721972578E+03  0.20903223262E+03  0.31055086748E+03  0.00000000000E+00 0. -1.
         -1    1    3    3    0  502 -0.33592539716E+03 -0.20610812092E+03  0.22832395034E+03  0.45547585695E+03  0.00000000000E+00 0.  1.
         11    1    5    5    0    0  0.19254964049E+02  0.25030374273E+02  0.88946392792E+02  0.94386090434E+02  0.00000000000E+00 0.  1.
        -11    1    5    5    0    0  0.13410374731E+03  0.16556552706E+03  0.16841156215E+04  0.16975397449E+04  0.00000000000E+00 0. -1.
          1    1    6    6  503    0  0.23716607896E+02  0.92795593357E+01  0.41908067286E+02  0.49039512795E+02  0.00000000000E+00 0.  1.
         -1    1    6    6    0  503  0.35006333161E+03  0.13345238604E+03  0.13857570565E+03  0.39944599344E+03  0.00000000000E+00 0. -1.
<mgrwt>
<rscale>  0 0.18227061E+04</rscale>
<asrwt>0</asrwt>
<pdfrwt beam="1">  1        2 0.41517999E+00 0.18227061E+04</pdfrwt>
<pdfrwt beam="2">  1       -1 0.47348932E-01 0.18227061E+04</pdfrwt>
<totfact> 0.12728631E+01</totfact>
</mgrwt>
</event>
<event>
12    6  0.1569942E-007  0.3190337E+04  0.7818608E-02  0.8191374E-01
          2   -1    0    0  501    0  0.00000000000E+00  0.00000000000E+00  0.21011973558E+04  0.21011973558E+04  0.00000000000E+00 0. -1.
         -1   -1    0    0    0  501 -0.00000000000E+00 -0.00000000000E+00 -0.12110063216E+04  0.12110063216E+04  0.00000000000E+00 0.  1.
         24    2    1    2    0    0  0.52164988044E+03  0.48780366610E+03  0.17238595350E+04  0.18676553869E+04  0.79836916115E+02 0.  0.
        254    2    1    2    0    0 -0.52164988044E+03 -0.48780366610E+03 -0.83366850082E+03  0.14445482906E+04  0.93895983944E+03 0.  0.
         23    2    4    4    0    0  0.26334019170E+03 -0.95809578794E+02 -0.16368844396E+03  0.33710562381E+03  0.91207252807E+02 0.  0.
         23    2    4    4    0    0 -0.78499007214E+03 -0.39199408730E+03 -0.66998005686E+03  0.11074426667E+04  0.87676711287E+02 0.  0.
          4    1    3    3  502    0  0.49676791187E+03  0.47505334228E+03  0.16848351602E+04  0.18196492941E+04  0.00000000000E+00 0. -1.
         -3    1    3    3    0  502  0.24881968573E+02  0.12750323818E+02  0.39024374824E+02  0.48006092822E+02  0.00000000000E+00 0.  1.
         11    1    5    5    0    0  0.22089940671E+03 -0.69544881604E+02 -0.16931241618E+03  0.28687929991E+03  0.00000000000E+00 0. -1.
        -11    1    5    5    0    0  0.42440784995E+02 -0.26264697190E+02  0.56239722226E+01  0.50226323905E+02  0.00000000000E+00 0.  1.
          1    1    6    6  503    0 -0.58895626417E+03 -0.32624506270E+03 -0.48231320559E+03  0.82820972605E+03  0.00000000000E+00 0. -1.
         -1    1    6    6    0  503 -0.19603380798E+03 -0.65749024605E+02 -0.18766685127E+03  0.27923294070E+03  0.00000000000E+00 0.  1.
<mgrwt>
<rscale>  0 0.31903375E+04</rscale>
<asrwt>0</asrwt>
<pdfrwt beam="1">  1        2 0.32326113E+00 0.31903375E+04</pdfrwt>
<pdfrwt beam="2">  1       -1 0.18630866E+00 0.31903375E+04</pdfrwt>
<totfact> 0.10549071E+00</totfact>
</mgrwt>
</event>
<event>
12    6  0.1569942E-007  0.2082598E+04  0.7818608E-02  0.8568948E-01
          2   -1    0    0  501    0  0.00000000000E+00  0.00000000000E+00  0.24435673000E+04  0.24435673000E+04  0.00000000000E+00 0. -1.
         -1   -1    0    0    0  501 -0.00000000000E+00 -0.00000000000E+00 -0.44373780327E+03  0.44373780327E+03  0.00000000000E+00 0.  1.
         24    2    1    2    0    0  0.64593694415E+03  0.49805856232E+03  0.50998774107E+03  0.96546150676E+03  0.82046070448E+02 0.  0.
        254    2    1    2    0    0 -0.64593694415E+03 -0.49805856232E+03  0.14898417557E+04  0.19218435966E+04  0.89919824582E+03 0.  0.
         23    2    4    4    0    0 -0.10446553782E+03 -0.57921817891E+03  0.10719478543E+04  0.12267617732E+04  0.97290793578E+02 0.  0.
         23    2    4    4    0    0 -0.54147140633E+03  0.81159616592E+02  0.41789390142E+03  0.69508182336E+03  0.93409105999E+02 0.  0.
          4    1    3    3  502    0  0.43445777484E+03  0.36149705866E+03  0.31499278121E+03  0.64703487831E+03  0.00000000000E+00 0. -1.
         -3    1    3    3    0  502  0.21147916931E+03  0.13656150367E+03  0.19499495986E+03  0.31842662845E+03  0.00000000000E+00 0.  1.
         11    1    5    5    0    0 -0.43149234088E+02 -0.46148981660E+03  0.84941325480E+03  0.96764538167E+03  0.00000000000E+00 0. -1.
        -11    1    5    5    0    0 -0.61316303735E+02 -0.11772836231E+03  0.22253459948E+03  0.25911639153E+03  0.00000000000E+00 0.  1.
          2    1    6    6  503    0 -0.47418989245E+03  0.77032619108E+02  0.40053522351E+03  0.62547465479E+03  0.00000000000E+00 0. -1.
         -2    1    6    6    0  503 -0.67281513872E+02  0.41269974843E+01  0.17358677909E+02  0.69607168567E+02  0.00000000000E+00 0.  1.
<mgrwt>
<rscale>  0 0.20825976E+04</rscale>
<asrwt>0</asrwt>
<pdfrwt beam="1">  1        2 0.37593342E+00 0.20825976E+04</pdfrwt>
<pdfrwt beam="2">  1       -1 0.68267356E-01 0.20825976E+04</pdfrwt>
<totfact> 0.85640574E+00</totfact>
</mgrwt>
</event>
<event>
12    6  0.1569942E-007  0.3316480E+04  0.7818608E-02  0.8158715E-01
          2   -1    0    0  501    0  0.00000000000E+00  0.00000000000E+00  0.18894397657E+04  0.18894397657E+04  0.00000000000E+00 0. -1.
         -1   -1    0    0    0  501 -0.00000000000E+00 -0.00000000000E+00 -0.14553309812E+04  0.14553309812E+04  0.00000000000E+00 0.  1.
         24    2    1    2    0    0  0.32099436901E+03  0.25900821110E+03  0.16920659109E+04  0.17434584209E+04  0.80234532058E+02 0.  0.
        254    2    1    2    0    0 -0.32099436901E+03 -0.25900821110E+03 -0.12579571265E+04  0.16013123259E+04  0.90090087958E+03 0.  0.
         23    2    4    4    0    0 -0.43699477865E+03 -0.51847327330E+03 -0.96894879321E+03  0.11861238041E+04  0.90823692868E+02 0.  0.
         23    2    4    4    0    0  0.11600040964E+03  0.25946506220E+03 -0.28900833325E+03  0.41518852180E+03  0.89874792932E+02 0.  0.
          4    1    3    3  502    0  0.21617792927E+03  0.15397655651E+03  0.12236037821E+04  0.12520574638E+04  0.00000000000E+00 0. -1.
         -3    1    3    3    0  502  0.10481643974E+03  0.10503165459E+03  0.46846212883E+03  0.49140095712E+03  0.00000000000E+00 0.  1.
         11    1    5    5    0    0 -0.34232744348E+03 -0.45629190360E+03 -0.79232460681E+03  0.97630357082E+03  0.00000000000E+00 0. -1.
        -11    1    5    5    0    0 -0.94667335173E+02 -0.62181369704E+02 -0.17662418640E+03  0.20982023332E+03  0.00000000000E+00 0.  1.
          2    1    6    6  503    0  0.46131432469E+02  0.13586412247E+03 -0.20497016501E+03  0.25019979493E+03  0.00000000000E+00 0. -1.
         -2    1    6    6    0  503  0.69868977170E+02  0.12360093973E+03 -0.84038168236E+02  0.16498872687E+03  0.00000000000E+00 0.  1.
<mgrwt>
<rscale>  0 0.33164802E+04</rscale>
<asrwt>0</asrwt>
<pdfrwt beam="1">  1        2 0.29068304E+00 0.33164802E+04</pdfrwt>
<pdfrwt beam="2">  1       -1 0.22389707E+00 0.33164802E+04</pdfrwt>
<totfact> 0.75697305E-01</totfact>
</mgrwt>
</event>
<event>
12    6  0.1569942E-007  0.1407361E+04  0.7818608E-02  0.8948507E-01
         -1   -1    0    0    0  501 -0.00000000000E+00  0.00000000000E+00  0.36974357672E+03  0.36974357672E+03  0.00000000000E+00 0.  1.
          2   -1    0    0  501    0  0.00000000000E+00 -0.00000000000E+00 -0.13392153243E+04  0.13392153243E+04  0.00000000000E+00 0. -1.
         24    2    1    2    0    0 -0.40728360614E+03 -0.63638212299E+02 -0.29229289748E+03  0.51154066681E+03  0.79428949295E+02 0.  0.
        254    2    1    2    0    0  0.40728360614E+03  0.63638212299E+02 -0.67717885007E+03  0.11974182342E+04  0.89739036917E+03 0.  0.
         23    2    4    4    0    0  0.17209703297E+03  0.42114639117E+03 -0.10459372753E+03  0.47602836052E+03  0.93174463372E+02 0.  0.
         23    2    4    4    0    0  0.23518657317E+03 -0.35750817887E+03 -0.57258512253E+03  0.72138987366E+03  0.97081435500E+02 0.  0.
          4    1    3    3  502    0 -0.39297792273E+03 -0.45799223771E+02 -0.28477841442E+03  0.48747098577E+03  0.00000000000E+00 0. -1.
         -3    1    3    3    0  502 -0.14305683412E+02 -0.17838988528E+02 -0.75144830644E+01  0.24069681039E+02  0.00000000000E+00 0.  1.
         11    1    5    5    0    0  0.18268204038E+03  0.39157674086E+03 -0.10479694333E+03  0.44462059240E+03  0.00000000000E+00 0.  1.
        -11    1    5    5    0    0 -0.10585007404E+02  0.29569650313E+02  0.20321579636E+00  0.31407768116E+02  0.00000000000E+00 0. -1.
          1    1    6    6  503    0  0.14709132633E+03 -0.13995928800E+03 -0.29064305800E+03  0.35453892275E+03  0.00000000000E+00 0. -1.
         -1    1    6    6    0  503  0.88095246834E+02 -0.21754889087E+03 -0.28194206453E+03  0.36685095091E+03  0.00000000000E+00 0.  1.
<mgrwt>
<rscale>  0 0.14073610E+04</rscale>
<asrwt>0</asrwt>
<pdfrwt beam="1">  1        2 0.20603313E+00 0.14073610E+04</pdfrwt>
<pdfrwt beam="2">  1       -1 0.56883627E-01 0.14073610E+04</pdfrwt>
<totfact> 0.54411216E+01</totfact>
</mgrwt>
</event>
<event>
12    6  0.1569942E-007  0.2517590E+04  0.7818608E-02  0.8396746E-01
         -1   -1    0    0    0  501 -0.00000000000E+00  0.00000000000E+00  0.96272423535E+03  0.96272423535E+03  0.00000000000E+00 0.  1.
          2   -1    0    0  501    0  0.00000000000E+00 -0.00000000000E+00 -0.16459172837E+04  0.16459172837E+04  0.00000000000E+00 0. -1.
         24    2    1    2    0    0 -0.72114427890E+03 -0.51551199219E+03 -0.96706087255E+03  0.13143749557E+04  0.81074706025E+02 0.  0.
        254    2    1    2    0    0  0.72114427890E+03  0.51551199219E+03  0.28386782423E+03  0.12942665633E+04  0.89930156795E+03 0.  0.
         23    2    4    4    0    0  0.74125047606E+03  0.11366462143E+02  0.11626329511E+03  0.75585871101E+03  0.90685018069E+02 0.  0.
         23    2    4    4    0    0 -0.20106197159E+02  0.50414553005E+03  0.16760452912E+03  0.53840785227E+03  0.84998603376E+02 0.  0.
          2    1    3    3  502    0 -0.63244691755E+03 -0.46740262012E+03 -0.88812564562E+03  0.11862636618E+04  0.00000000000E+00 0. -1.
         -1    1    3    3    0  502 -0.88697361353E+02 -0.48109372071E+02 -0.78935226923E+02  0.12811129397E+03  0.00000000000E+00 0.  1.
         11    1    5    5    0    0  0.46134407389E+03  0.46553337305E+02  0.91835507523E+02  0.47269369381E+03  0.00000000000E+00 0.  1.
        -11    1    5    5    0    0  0.27990640217E+03 -0.35186875162E+02  0.24427787585E+02  0.28316501720E+03  0.00000000000E+00 0. -1.
          4    1    6    6  503    0  0.95395263527E+01  0.53248310870E+02  0.44556246586E+02  0.70083124098E+02  0.00000000000E+00 0.  1.
         -4    1    6    6    0  503 -0.29645723511E+02  0.45089721918E+03  0.12304828253E+03  0.46832472817E+03  0.00000000000E+00 0. -1.
<mgrwt>
<rscale>  0 0.25175897E+04</rscale>
<asrwt>0</asrwt>
<pdfrwt beam="1">  1        2 0.25321804E+00 0.25175897E+04</pdfrwt>
<pdfrwt beam="2">  1       -1 0.14811142E+00 0.25175897E+04</pdfrwt>
<totfact> 0.38482976E+00</totfact>
</mgrwt>
</event>
<event>
12    6  0.1569942E-007  0.1340908E+04  0.7818608E-02  0.8997739E-01
          2   -1    0    0  501    0  0.00000000000E+00  0.00000000000E+00  0.15753965666E+04  0.15753965666E+04  0.00000000000E+00 0. -1.
         -3   -1    0    0    0  501 -0.00000000000E+00 -0.00000000000E+00 -0.28533035496E+03  0.28533035496E+03  0.00000000000E+00 0.  1.
         24    2    1    2    0    0 -0.36840547834E+03 -0.17398600242E+03  0.39098220078E+03  0.57063526864E+03  0.82242342926E+02 0.  0.
        254    2    1    2    0    0  0.36840547834E+03  0.17398600242E+03  0.89908401089E+03  0.12900916530E+04  0.83065678164E+03 0.  0.
         23    2    4    4    0    0 -0.13776431060E+03  0.22117967014E+03  0.29631228513E+02  0.27895384011E+03  0.95067257499E+02 0.  0.
         23    2    4    4    0    0  0.50616978894E+03 -0.47193667722E+02  0.86945278238E+03  0.10111378129E+04  0.89534564676E+02 0.  0.
          4    1    3    3  502    0 -0.21159939204E+03 -0.11120387706E+03  0.17401148327E+03  0.29566975038E+03  0.00000000000E+00 0. -1.
         -1    1    3    3    0  502 -0.15680608631E+03 -0.62782125362E+02  0.21697071752E+03  0.27496551825E+03  0.00000000000E+00 0.  1.
         11    1    5    5    0    0 -0.12472791515E+03  0.20283820397E+03  0.55669648498E+02  0.24453936200E+03  0.00000000000E+00 0. -1.
        -11    1    5    5    0    0 -0.13036395455E+02  0.18341466178E+02 -0.26038419985E+02  0.34414478107E+02  0.00000000000E+00 0.  1.
          3    1    6    6  503    0  0.47394805233E+03 -0.60740970491E+02  0.83504887224E+03  0.96209294813E+03  0.00000000000E+00 0. -1.
         -3    1    6    6    0  503  0.32221736617E+02  0.13547302769E+02  0.34403910140E+02  0.49044864725E+02  0.00000000000E+00 0.  1.
<mgrwt>
<rscale>  0 0.13409078E+04</rscale>
<asrwt>0</asrwt>
<pdfrwt beam="1">  1        2 0.24236870E+00 0.13409078E+04</pdfrwt>
<pdfrwt beam="2">  1       -3 0.43896978E-01 0.13409078E+04</pdfrwt>
<totfact> 0.37287739E+01</totfact>
</mgrwt>
</event>
<event>
12    6  0.1569942E-007  0.1771969E+04  0.7818608E-02  0.8721350E-01
          2   -1    0    0  501    0  0.00000000000E+00  0.00000000000E+00  0.34435974371E+04  0.34435974371E+04  0.00000000000E+00 0. -1.
         -1   -1    0    0    0  501 -0.00000000000E+00 -0.00000000000E+00 -0.22795017926E+03  0.22795017926E+03  0.00000000000E+00 0.  1.
         24    2    1    2    0    0  0.58190303310E+03 -0.28628904143E+03  0.10553930374E+04  0.12412149287E+04  0.78660540747E+02 0.  0.
        254    2    1    2    0    0 -0.58190303310E+03  0.28628904143E+03  0.21602542204E+04  0.24303326876E+04  0.90512215781E+03 0.  0.
         23    2    4    4    0    0 -0.72623689673E+03  0.41969115767E+03  0.13532864187E+04  0.15947558589E+04  0.91112132030E+02 0.  0.
         23    2    4    4    0    0  0.14433386363E+03 -0.13340211623E+03  0.80696780173E+03  0.83557682870E+03  0.91450614127E+02 0.  0.
          4    1    3    3  502    0  0.12125597150E+03 -0.55520034731E+02  0.28167207434E+03  0.31164826704E+03  0.00000000000E+00 0. -1.
         -3    1    3    3    0  502  0.46064706160E+03 -0.23076900670E+03  0.77372096309E+03  0.92956666170E+03  0.00000000000E+00 0.  1.
         11    1    5    5    0    0 -0.42839914257E+03  0.25043287287E+03  0.88369149976E+03  0.10134856269E+04  0.00000000000E+00 0. -1.
        -11    1    5    5    0    0 -0.29783775416E+03  0.16925828480E+03  0.46959491894E+03  0.58127023206E+03  0.00000000000E+00 0.  1.
          4    1    6    6  503    0  0.99602623725E+02 -0.12039053144E+03  0.72162193644E+03  0.73834462270E+03  0.00000000000E+00 0. -1.
         -4    1    6    6    0  503  0.44731239901E+02 -0.13011584791E+02  0.85345865290E+02  0.97232206002E+02  0.00000000000E+00 0.  1.
<mgrwt>
<rscale>  0 0.17719691E+04</rscale>
<asrwt>0</asrwt>
<pdfrwt beam="1">  1        2 0.52978418E+00 0.17719691E+04</pdfrwt>
<pdfrwt beam="2">  1       -1 0.35069261E-01 0.17719691E+04</pdfrwt>
<totfact> 0.74719859E+00</totfact>
</mgrwt>
</event>
<event>
12    6  0.1569942E-007  0.1609050E+04  0.7818608E-02  0.8815008E-01
          2   -1    0    0  501    0  0.00000000000E+00  0.00000000000E+00  0.12363921144E+04  0.12363921144E+04  0.00000000000E+00 0. -1.
         -1   -1    0    0    0  501 -0.00000000000E+00 -0.00000000000E+00 -0.52350734336E+03  0.52350734336E+03  0.00000000000E+00 0.  1.
         24    2    1    2    0    0  0.25107391399E+03  0.32695385053E+03  0.64128383932E+03  0.76743349748E+03  0.88160534409E+02 0.  0.
        254    2    1    2    0    0 -0.25107391399E+03 -0.32695385053E+03  0.71600931708E+02  0.99246596026E+03  0.89995836470E+03 0.  0.
         23    2    4    4    0    0 -0.33671753412E+03 -0.55260298820E+03  0.22566319635E+03  0.69252736037E+03  0.99606758410E+02 0.  0.
         23    2    4    4    0    0  0.85643620132E+02  0.22564913767E+03 -0.15406226464E+03  0.29993859990E+03  0.89306322953E+02 0.  0.
          2    1    3    3  502    0  0.21370742840E+03  0.26307920301E+03  0.57806487922E+03  0.67010486985E+03  0.00000000000E+00 0. -1.
         -1    1    3    3    0  502  0.37366485583E+02  0.63874647524E+02  0.63218960101E+02  0.97328627635E+02  0.00000000000E+00 0.  1.
         11    1    5    5    0    0 -0.76728777118E+02 -0.97358246908E+02  0.83096021871E+02  0.14923432021E+03  0.00000000000E+00 0.  1.
        -11    1    5    5    0    0 -0.25998875700E+03 -0.45524474129E+03  0.14256717448E+03  0.54329304015E+03  0.00000000000E+00 0. -1.
          4    1    6    6  503    0  0.80482954972E+02  0.13523704130E+03 -0.13511384517E+03  0.20741821168E+03  0.00000000000E+00 0. -1.
         -4    1    6    6    0  503  0.51606651596E+01  0.90412096370E+02 -0.18948419478E+02  0.92520388216E+02  0.00000000000E+00 0.  1.
<mgrwt>
<rscale>  0 0.16090498E+04</rscale>
<asrwt>0</asrwt>
<pdfrwt beam="1">  1        2 0.19021417E+00 0.16090498E+04</pdfrwt>
<pdfrwt beam="2">  1       -1 0.80539592E-01 0.16090498E+04</pdfrwt>
<totfact> 0.30275018E+01</totfact>
</mgrwt>
</event>
<event>
12    6  0.1569942E-007  0.1316160E+04  0.7818608E-02  0.9016847E-01
          2   -1    0    0  501    0  0.00000000000E+00  0.00000000000E+00  0.27915486662E+04  0.27915486662E+04  0.00000000000E+00 0. -1.
         -1   -1    0    0    0  501 -0.00000000000E+00 -0.00000000000E+00 -0.15513585140E+03  0.15513585140E+03  0.00000000000E+00 0.  1.
         24    2    1    2    0    0 -0.35183920466E+02 -0.15469076468E+03  0.15782845776E+03  0.23712245581E+03  0.78422547978E+02 0.  0.
        254    2    1    2    0    0  0.35183920466E+02  0.15469076468E+03  0.24785843571E+04  0.27095620618E+04  0.10831338841E+04 0.  0.
         23    2    4    4    0    0 -0.23336187739E+03  0.53765425163E+03  0.10773843095E+04  0.12298148770E+04  0.90320657920E+02 0.  0.
         23    2    4    4    0    0  0.26854579786E+03 -0.38296348695E+03  0.14012000476E+04  0.14797471848E+04  0.86673408583E+02 0.  0.
          4    1    3    3  502    0 -0.14320049138E+02  0.55600364857E+01  0.13391021240E+02  0.20378843512E+02  0.00000000000E+00 0. -1.
         -3    1    3    3    0  502 -0.20863871328E+02 -0.16025080117E+03  0.14443743652E+03  0.21674361230E+03  0.00000000000E+00 0.  1.
         11    1    5    5    0    0 -0.34494010162E+02  0.29190844307E+02  0.59067279376E+02  0.74369924171E+02  0.00000000000E+00 0.  1.
        -11    1    5    5    0    0 -0.19886786723E+03  0.50846340732E+03  0.10183170301E+04  0.11554449529E+04  0.00000000000E+00 0. -1.
          4    1    6    6  503    0  0.72793156481E+02 -0.61090065545E+02  0.21255209733E+03  0.23282876502E+03  0.00000000000E+00 0.  1.
         -4    1    6    6    0  503  0.19575264138E+03 -0.32187342140E+03  0.11886479502E+04  0.12469184198E+04  0.00000000000E+00 0. -1.
<mgrwt>
<rscale>  0 0.13161600E+04</rscale>
<asrwt>0</asrwt>
<pdfrwt beam="1">  1        2 0.42946899E+00 0.13161600E+04</pdfrwt>
<pdfrwt beam="2">  1       -1 0.23867056E-01 0.13161600E+04</pdfrwt>
<totfact> 0.39886863E+01</totfact>
</mgrwt>
</event>
<event>
12    6  0.1569942E-007  0.1310602E+04  0.7818608E-02  0.9021200E-01
          2   -1    0    0  501    0  0.00000000000E+00  0.00000000000E+00  0.40243511249E+04  0.40243511249E+04  0.00000000000E+00 0. -1.
         -1   -1    0    0    0  501 -0.00000000000E+00 -0.00000000000E+00 -0.10670517175E+03  0.10670517175E+03  0.00000000000E+00 0.  1.
         24    2    1    2    0    0 -0.25157873160E+03 -0.67115407573E+02  0.11144992323E+04  0.11473085428E+04  0.80075074123E+02 0.  0.
        254    2    1    2    0    0  0.25157873160E+03  0.67115407573E+02  0.28031467209E+04  0.29837477539E+04  0.98859637051E+03 0.  0.
         23    2    4    4    0    0 -0.10053239313E+03  0.11991323295E+03  0.25014304225E+04  0.25080669937E+04  0.93594553113E+02 0.  0.
         23    2    4    4    0    0  0.35211112473E+03 -0.52797825374E+02  0.30171629833E+03  0.47568076020E+03  0.92030464617E+02 0.  0.
          4    1    3    3  502    0 -0.16908768423E+03 -0.77148308883E+02  0.84915423501E+03  0.86925567088E+03  0.00000000000E+00 0. -1.
         -3    1    3    3    0  502 -0.82491047372E+02  0.10032901310E+02  0.26534499724E+03  0.27805287189E+03  0.00000000000E+00 0.  1.
         11    1    5    5    0    0 -0.37336014566E+02  0.73292684338E+02  0.68197201256E+03  0.68691456635E+03  0.00000000000E+00 0.  1.
        -11    1    5    5    0    0 -0.63196378567E+02  0.46620548610E+02  0.18194584100E+04  0.18211524273E+04  0.00000000000E+00 0. -1.
          3    1    6    6  503    0  0.33392603419E+03 -0.45039225589E+02  0.30632564283E+03  0.45537954236E+03  0.00000000000E+00 0. -1.
         -3    1    6    6    0  503  0.18185090547E+02 -0.77585997855E+01 -0.46093444970E+01  0.20301217834E+02  0.00000000000E+00 0.  1.
<mgrwt>
<rscale>  0 0.13106015E+04</rscale>
<asrwt>0</asrwt>
<pdfrwt beam="1">  1        2 0.61913082E+00 0.13106015E+04</pdfrwt>
<pdfrwt beam="2">  1       -1 0.16416183E-01 0.13106015E+04</pdfrwt>
<totfact> 0.10703849E+01</totfact>
</mgrwt>
</event>
<event>
12    6  0.1569942E-007  0.1504142E+04  0.7818608E-02  0.8881703E-01
         -1   -1    0    0    0  501 -0.00000000000E+00  0.00000000000E+00  0.41118462950E+03  0.41118462950E+03  0.00000000000E+00 0.  1.
          2   -1    0    0  501    0  0.00000000000E+00 -0.00000000000E+00 -0.13755648463E+04  0.13755648463E+04  0.00000000000E+00 0. -1.
         24    2    1    2    0    0 -0.13590518785E+03  0.10847842942E+03  0.21907967884E+03  0.29268552384E+03  0.86203946836E+02 0.  0.
        254    2    1    2    0    0  0.13590518785E+03 -0.10847842942E+03 -0.11834598957E+04  0.14940639520E+04  0.89521616288E+03 0.  0.
         23    2    4    4    0    0 -0.20368436506E+03 -0.39206684624E+03 -0.70392913069E+03  0.83516178411E+03  0.82311919640E+02 0.  0.
         23    2    4    4    0    0  0.33958955291E+03  0.28358841682E+03 -0.47953076499E+03  0.65890216790E+03  0.91972048386E+02 0.  0.
          2    1    3    3  502    0  0.23130596012E+01  0.16001983808E+02  0.61479016092E+02  0.63569514314E+02  0.00000000000E+00 0. -1.
         -1    1    3    3    0  502 -0.13821824746E+03  0.92476445611E+02  0.15760066274E+03  0.22911600952E+03  0.00000000000E+00 0.  1.
         11    1    5    5    0    0 -0.17389860665E+03 -0.35912745858E+03 -0.66773594687E+03  0.77787180926E+03  0.00000000000E+00 0.  1.
        -11    1    5    5    0    0 -0.29785758406E+02 -0.32939387658E+02 -0.36193183822E+02  0.57289974850E+02  0.00000000000E+00 0. -1.
          3    1    6    6  503    0  0.13617217910E+03  0.59910652224E+02 -0.14025705687E+03  0.20446073122E+03  0.00000000000E+00 0. -1.
         -3    1    6    6    0  503  0.20341737382E+03  0.22367776460E+03 -0.33927370812E+03  0.45444143668E+03  0.00000000000E+00 0.  1.
<mgrwt>
<rscale>  0 0.15041424E+04</rscale>
<asrwt>0</asrwt>
<pdfrwt beam="1">  1        2 0.21162536E+00 0.15041424E+04</pdfrwt>
<pdfrwt beam="2">  1       -1 0.63259173E-01 0.15041424E+04</pdfrwt>
<totfact> 0.41701088E+01</totfact>
</mgrwt>
</event>
<event>
12    6  0.1569942E-007  0.1356054E+04  0.7818608E-02  0.8986258E-01
         -1   -1    0    0    0  501 -0.00000000000E+00  0.00000000000E+00  0.27685101334E+03  0.27685101334E+03  0.00000000000E+00 0.  1.
          2   -1    0    0  501    0  0.00000000000E+00 -0.00000000000E+00 -0.16605335872E+04  0.16605335872E+04  0.00000000000E+00 0. -1.
         24    2    1    2    0    0  0.16164282731E+03  0.22504000553E+03 -0.28288854208E+02  0.28691405744E+03  0.68905800723E+02 0.  0.
        254    2    1    2    0    0 -0.16164282731E+03 -0.22504000553E+03 -0.13553937197E+04  0.16504705431E+04  0.90010525534E+03 0.  0.
         23    2    4    4    0    0  0.96783454874E+01  0.24726152743E+03 -0.98457328529E+03  0.10192901755E+04  0.91301557737E+02 0.  0.
         23    2    4    4    0    0 -0.17132117280E+03 -0.47230153296E+03 -0.37082043440E+03  0.63118036764E+03  0.91984670700E+02 0.  0.
          4    1    3    3  502    0 -0.62443234916E+01  0.45759833076E+01 -0.40715241674E+01  0.87469142070E+01  0.00000000000E+00 0. -1.
         -3    1    3    3    0  502  0.16788715080E+03  0.22046402222E+03 -0.24217330040E+02  0.27816714323E+03  0.00000000000E+00 0.  1.
         11    1    5    5    0    0  0.42483597545E+02  0.15753502290E+03 -0.52007098003E+03  0.54506510049E+03  0.00000000000E+00 0.  1.
        -11    1    5    5    0    0 -0.32805252058E+02  0.89726504525E+02 -0.46450230526E+03  0.47422507501E+03  0.00000000000E+00 0. -1.
          1    1    6    6  503    0 -0.12880555943E+03 -0.41830411346E+03 -0.34663269082E+03  0.55832197326E+03  0.00000000000E+00 0. -1.
         -1    1    6    6    0  503 -0.42515613368E+02 -0.53997419501E+02 -0.24187743576E+02  0.72858394383E+02  0.00000000000E+00 0.  1.
<mgrwt>
<rscale>  0 0.13560537E+04</rscale>
<asrwt>0</asrwt>
<pdfrwt beam="1">  1        2 0.25546671E+00 0.13560537E+04</pdfrwt>
<pdfrwt beam="2">  1       -1 0.42592463E-01 0.13560537E+04</pdfrwt>
<totfact> 0.62250522E+01</totfact>
</mgrwt>
</event>
<event>
12    6  0.1569942E-007  0.1662879E+04  0.7818608E-02  0.8782824E-01
         -1   -1    0    0    0  501 -0.00000000000E+00  0.00000000000E+00  0.58687480308E+03  0.58687480308E+03  0.00000000000E+00 0.  1.
          2   -1    0    0  501    0  0.00000000000E+00 -0.00000000000E+00 -0.11779195370E+04  0.11779195370E+04  0.00000000000E+00 0. -1.
         24    2    1    2    0    0  0.21205982997E+03 -0.18364704150E+03 -0.74800727443E+03  0.80436089387E+03  0.93733439286E+02 0.  0.
        254    2    1    2    0    0 -0.21205982997E+03  0.18364704150E+03  0.15696254049E+03  0.96043344623E+03  0.90504119143E+03 0.  0.
         23    2    4    4    0    0 -0.32302752136E+03 -0.41556149747E+02 -0.28652772299E+03  0.44255629666E+03  0.87659834207E+02 0.  0.
         23    2    4    4    0    0  0.11096769139E+03  0.22520319125E+03  0.44349026348E+03  0.51787714957E+03  0.92102238669E+02 0.  0.
          4    1    3    3  502    0  0.21266660212E+03 -0.17004761919E+03 -0.74013934258E+03  0.78863776405E+03  0.00000000000E+00 0. -1.
         -3    1    3    3    0  502 -0.60677214786E+00 -0.13599422312E+02 -0.78679318506E+01  0.15723129817E+02  0.00000000000E+00 0.  1.
         11    1    5    5    0    0  0.38743836184E+01  0.31658056037E+01 -0.13151963792E+02  0.14071507564E+02  0.00000000000E+00 0. -1.
        -11    1    5    5    0    0 -0.32690190498E+03 -0.44721955350E+02 -0.27337575919E+03  0.42848478909E+03  0.00000000000E+00 0.  1.
          4    1    6    6  503    0  0.35867760597E+02  0.25756342047E+02  0.32200745317E+02  0.54651380631E+02  0.00000000000E+00 0. -1.
         -4    1    6    6    0  503  0.75099930790E+02  0.19944684920E+03  0.41128951816E+03  0.46322576894E+03  0.00000000000E+00 0.  1.
<mgrwt>
<rscale>  0 0.16628786E+04</rscale>
<asrwt>0</asrwt>
<pdfrwt beam="1">  1        2 0.18121839E+00 0.16628786E+04</pdfrwt>
<pdfrwt beam="2">  1       -1 0.90288432E-01 0.16628786E+04</pdfrwt>
<totfact> 0.25492409E+01</totfact>
</mgrwt>
</event>
<event>
12    6  0.1569942E-007  0.1451717E+04  0.7818608E-02  0.8917211E-01
         -1   -1    0    0    0  501 -0.00000000000E+00  0.00000000000E+00  0.72293853327E+03  0.72293853327E+03  0.00000000000E+00 0.  1.
          2   -1    0    0  501    0  0.00000000000E+00 -0.00000000000E+00 -0.72879048574E+03  0.72879048574E+03  0.00000000000E+00 0. -1.
         24    2    1    2    0    0  0.48313408924E+02 -0.43333152776E+03 -0.85233998144E+02  0.45106888534E+03  0.78025037323E+02 0.  0.
        254    2    1    2    0    0 -0.48313408924E+02  0.43333152776E+03  0.79382045674E+02  0.10006601337E+04  0.89716709454E+03 0.  0.
         23    2    4    4    0    0 -0.11119760006E+03  0.68482030550E+03  0.15302757661E+03  0.71619927063E+03  0.90444452378E+02 0.  0.
         23    2    4    4    0    0  0.62884191135E+02 -0.25148877774E+03 -0.73645530941E+02  0.28446086305E+03  0.91067510981E+02 0.  0.
          2    1    3    3  502    0  0.76821290776E+01 -0.38201049815E+01 -0.99201185405E+01  0.13115527481E+02  0.00000000000E+00 0. -1.
         -1    1    3    3    0  502  0.40631279846E+02 -0.42951142278E+03 -0.75313879604E+02  0.43795335786E+03  0.00000000000E+00 0.  1.
         11    1    5    5    0    0 -0.70154536358E+02  0.26178608180E+03  0.95228772766E+02  0.28726665444E+03  0.00000000000E+00 0.  1.
        -11    1    5    5    0    0 -0.41043063701E+02  0.42303422370E+03  0.57798803849E+02  0.42893261619E+03  0.00000000000E+00 0. -1.
          3    1    6    6  503    0  0.44761943360E+02 -0.21499499615E+03 -0.25028069915E+02  0.22102688575E+03  0.00000000000E+00 0. -1.
         -3    1    6    6    0  503  0.18122247775E+02 -0.36493781593E+02 -0.48617461026E+02  0.63433977299E+02  0.00000000000E+00 0.  1.
<mgrwt>
<rscale>  0 0.14517172E+04</rscale>
<asrwt>0</asrwt>
<pdfrwt beam="1">  1        2 0.11212161E+00 0.14517172E+04</pdfrwt>
<pdfrwt beam="2">  1       -1 0.11122131E+00 0.14517172E+04</pdfrwt>
<totfact> 0.32052119E+01</totfact>
</mgrwt>
</event>
<event>
12    6  0.1569942E-007  0.1997468E+04  0.7818608E-02  0.8607806E-01
         -1   -1    0    0    0  501 -0.00000000000E+00  0.00000000000E+00  0.86514744650E+03  0.86514744650E+03  0.00000000000E+00 0.  1.
          2   -1    0    0  501    0  0.00000000000E+00 -0.00000000000E+00 -0.11529470849E+04  0.11529470849E+04  0.00000000000E+00 0. -1.
         24    2    1    2    0    0 -0.25109578811E+03 -0.28921163332E+03  0.58223105431E+03  0.70146097576E+03  0.79762373714E+02 0.  0.
        254    2    1    2    0    0  0.25109578811E+03  0.28921163332E+03 -0.87003069271E+03  0.13166335556E+04  0.91097642667E+03 0.  0.
         23    2    4    4    0    0  0.22592948737E+03  0.60436639650E+03 -0.49158222360E+03  0.81643723467E+03  0.92810565713E+02 0.  0.
         23    2    4    4    0    0  0.25166300743E+02 -0.31515476318E+03 -0.37844846911E+03  0.50019632098E+03  0.83769017560E+02 0.  0.
          4    1    3    3  502    0 -0.18880055751E+03 -0.24574944812E+03  0.41642376537E+03  0.51908303202E+03  0.00000000000E+00 0. -1.
         -3    1    3    3    0  502 -0.62295230598E+02 -0.43462185201E+02  0.16580728894E+03  0.18237794374E+03  0.00000000000E+00 0.  1.
         11    1    5    5    0    0  0.19173296374E+03  0.56120456361E+03 -0.47212851689E+03  0.75803524196E+03  0.00000000000E+00 0. -1.
        -11    1    5    5    0    0  0.34196523625E+02  0.43161832893E+02 -0.19453706710E+02  0.58401992701E+02  0.00000000000E+00 0.  1.
          3    1    6    6  503    0  0.54829670650E+02 -0.22120063922E+03 -0.24948019546E+03  0.33789996079E+03  0.00000000000E+00 0. -1.
         -3    1    6    6    0  503 -0.29663369906E+02 -0.93954123966E+02 -0.12896827365E+03  0.16229636019E+03  0.00000000000E+00 0.  1.
<mgrwt>
<rscale>  0 0.19974676E+04</rscale>
<asrwt>0</asrwt>
<pdfrwt beam="1">  1        2 0.17737647E+00 0.19974676E+04</pdfrwt>
<pdfrwt beam="2">  1       -1 0.13309961E+00 0.19974676E+04</pdfrwt>
<totfact> 0.10234559E+01</totfact>
</mgrwt>
</event>
<event>
12    6  0.1569942E-007  0.1033351E+04  0.7818608E-02  0.9272703E-01
          2   -1    0    0  501    0  0.00000000000E+00  0.00000000000E+00  0.17132012168E+04  0.17132012168E+04  0.00000000000E+00 0. -1.
         -1   -1    0    0    0  501 -0.00000000000E+00 -0.00000000000E+00 -0.15582163260E+03  0.15582163260E+03  0.00000000000E+00 0.  1.
         24    2    1    2    0    0  0.74255146714E+02 -0.31981471583E+02  0.18914859222E+03  0.22063091588E+03  0.79775746727E+02 0.  0.
        254    2    1    2    0    0 -0.74255146714E+02  0.31981471583E+02  0.13682309920E+04  0.16483919335E+04  0.91575284752E+03 0.  0.
         23    2    4    4    0    0 -0.12909647697E+03 -0.37668588543E+03  0.32273732064E+03  0.52090593538E+03  0.92873347794E+02 0.  0.
         23    2    4    4    0    0  0.54841330251E+02  0.40866735701E+03  0.10454936713E+04  0.11274859982E+04  0.90283326286E+02 0.  0.
          2    1    3    3  502    0  0.50234516669E+02  0.17340745753E+02  0.12735656693E+03  0.13799964952E+03  0.00000000000E+00 0. -1.
         -1    1    3    3    0  502  0.24020630045E+02 -0.49322217336E+02  0.61792025293E+02  0.82631266361E+02  0.00000000000E+00 0.  1.
         11    1    5    5    0    0 -0.83503158911E+02 -0.33836814987E+03  0.28674200622E+03  0.45131669648E+03  0.00000000000E+00 0.  1.
        -11    1    5    5    0    0 -0.45593318055E+02 -0.38317735562E+02  0.35995314426E+02  0.69589238898E+02  0.00000000000E+00 0. -1.
          2    1    6    6  503    0 -0.22203918388E+02  0.76430758370E+02  0.16333565044E+03  0.18169537562E+03  0.00000000000E+00 0. -1.
         -2    1    6    6    0  503  0.77045248639E+02  0.33223659864E+03  0.88215802091E+03  0.94579062253E+03  0.00000000000E+00 0.  1.
<mgrwt>
<rscale>  0 0.10333515E+04</rscale>
<asrwt>0</asrwt>
<pdfrwt beam="1">  1        2 0.26356940E+00 0.10333515E+04</pdfrwt>
<pdfrwt beam="2">  1       -1 0.23972560E-01 0.10333515E+04</pdfrwt>
<totfact> 0.16484279E+02</totfact>
</mgrwt>
</event>
<event>
12    6  0.1569942E-007  0.1583434E+04  0.7818608E-02  0.8830790E-01
          2   -1    0    0  501    0  0.00000000000E+00  0.00000000000E+00  0.13495677857E+04  0.13495677857E+04  0.00000000000E+00 0. -1.
         -1   -1    0    0    0  501 -0.00000000000E+00 -0.00000000000E+00 -0.46445664511E+03  0.46445664511E+03  0.00000000000E+00 0.  1.
         24    2    1    2    0    0  0.10480257705E+03 -0.50382928705E+03  0.15859252947E+03  0.54434749293E+03  0.79593165599E+02 0.  0.
        254    2    1    2    0    0 -0.10480257705E+03  0.50382928705E+03  0.72651861115E+03  0.12696769379E+04  0.90521969912E+03 0.  0.
         23    2    4    4    0    0 -0.15341841454E+03 -0.29425395576E+02 -0.15225217500E+03  0.23653370302E+03  0.91457115904E+02 0.  0.
         23    2    4    4    0    0  0.48615837485E+02  0.53325468262E+03  0.87877078615E+03  0.10331432349E+04  0.91775775705E+02 0.  0.
          2    1    3    3  502    0  0.47723274622E+02 -0.12765631052E+03  0.72016984748E+02  0.15414308499E+03  0.00000000000E+00 0. -1.
         -1    1    3    3    0  502  0.57079302431E+02 -0.37617297652E+03  0.86575544723E+02  0.39020440794E+03  0.00000000000E+00 0.  1.
         11    1    5    5    0    0 -0.74181347609E+02 -0.47604194436E+02 -0.37229730117E+02  0.95682205585E+02  0.00000000000E+00 0. -1.
        -11    1    5    5    0    0 -0.79237066928E+02  0.18178798860E+02 -0.11502244489E+03  0.14085149744E+03  0.00000000000E+00 0.  1.
          3    1    6    6  503    0  0.41623211488E+02  0.12004880121E+03  0.25485622613E+03  0.28477342292E+03  0.00000000000E+00 0. -1.
         -3    1    6    6    0  503  0.69926259965E+01  0.41320588141E+03  0.62391456002E+03  0.74836981196E+03  0.00000000000E+00 0.  1.
<mgrwt>
<rscale>  0 0.15834339E+04</rscale>
<asrwt>0</asrwt>
<pdfrwt beam="1">  1        2 0.20762581E+00 0.15834339E+04</pdfrwt>
<pdfrwt beam="2">  1       -1 0.71454869E-01 0.15834339E+04</pdfrwt>
<totfact> 0.33483227E+01</totfact>
</mgrwt>
</event>
<event>
12    6  0.1569942E-007  0.2125286E+04  0.7818608E-02  0.8550186E-01
         -1   -1    0    0    0  501 -0.00000000000E+00  0.00000000000E+00  0.50173173630E+03  0.50173173630E+03  0.00000000000E+00 0.  1.
          2   -1    0    0  501    0  0.00000000000E+00 -0.00000000000E+00 -0.22506244016E+04  0.22506244016E+04  0.00000000000E+00 0. -1.
         24    2    1    2    0    0  0.72504929073E+03  0.32148425482E+02 -0.13151516604E+04  0.15043279497E+04  0.81539530066E+02 0.  0.
        254    2    1    2    0    0 -0.72504929073E+03 -0.32148425482E+02 -0.43374100485E+03  0.12480281882E+04  0.91799406536E+03 0.  0.
         23    2    4    4    0    0 -0.76043398741E+03 -0.24309924902E+03 -0.56401191617E+03  0.98165793834E+03  0.90475257680E+02 0.  0.
         23    2    4    4    0    0  0.35384696680E+02  0.21095082353E+03  0.13027091132E+03  0.26637024987E+03  0.90720851910E+02 0.  0.
          4    1    3    3  502    0  0.45468864756E+03  0.23151355012E+01 -0.74871717852E+03  0.87597062707E+03  0.00000000000E+00 0. -1.
         -3    1    3    3    0  502  0.27036064317E+03  0.29833289980E+02 -0.56643448192E+03  0.62835732261E+03  0.00000000000E+00 0.  1.
         11    1    5    5    0    0 -0.54129270670E+03 -0.13585150595E+03 -0.41871201408E+03  0.69769131909E+03  0.00000000000E+00 0. -1.
        -11    1    5    5    0    0 -0.21914128071E+03 -0.10724774307E+03 -0.14529990209E+03  0.28396661925E+03  0.00000000000E+00 0.  1.
          1    1    6    6  503    0  0.22711528013E+02  0.93062583774E+02  0.11037084171E+03  0.14614438307E+03  0.00000000000E+00 0. -1.
         -1    1    6    6    0  503  0.12673168667E+02  0.11788823976E+03  0.19900069613E+02  0.12022586680E+03  0.00000000000E+00 0.  1.
<mgrwt>
<rscale>  0 0.21252856E+04</rscale>
<asrwt>0</asrwt>
<pdfrwt beam="1">  1        2 0.34624990E+00 0.21252856E+04</pdfrwt>
<pdfrwt beam="2">  1       -1 0.77189499E-01 0.21252856E+04</pdfrwt>
<totfact> 0.85173152E+00</totfact>
</mgrwt>
</event>
<event>
12    6  0.1569942E-007  0.2103588E+04  0.7818608E-02  0.8559665E-01
          2   -1    0    0  501    0  0.00000000000E+00  0.00000000000E+00  0.27671518981E+04  0.27671518981E+04  0.00000000000E+00 0. -1.
         -1   -1    0    0    0  501 -0.00000000000E+00 -0.00000000000E+00 -0.39978657506E+03  0.39978657506E+03  0.00000000000E+00 0.  1.
         24    2    1    2    0    0  0.25144267661E+03  0.81343377052E+03  0.97749260104E+03  0.12987485725E+04  0.79738014009E+02 0.  0.
        254    2    1    2    0    0 -0.25144267661E+03 -0.81343377052E+03  0.13898727220E+04  0.18681899006E+04  0.91295640798E+03 0.  0.
         23    2    4    4    0    0 -0.43501775326E+03 -0.11142885333E+03  0.27297300223E+03  0.53326945617E+03  0.90582658024E+02 0.  0.
         23    2    4    4    0    0  0.18357507665E+03 -0.70200491719E+03  0.11168997198E+04  0.13349204445E+04  0.89648739656E+02 0.  0.
          4    1    3    3  502    0  0.12162121108E+03  0.36993027898E+03  0.50677123299E+03  0.63910657396E+03  0.00000000000E+00 0. -1.
         -3    1    3    3    0  502  0.12982146553E+03  0.44350349154E+03  0.47072136805E+03  0.65964199855E+03  0.00000000000E+00 0.  1.
         11    1    5    5    0    0 -0.36204489242E+03 -0.10385817418E+03  0.18784626808E+03  0.42089101310E+03  0.00000000000E+00 0.  1.
        -11    1    5    5    0    0 -0.72972860836E+02 -0.75706791516E+01  0.85126734147E+02  0.11237844307E+03  0.00000000000E+00 0. -1.
          4    1    6    6  503    0  0.12137213308E+02 -0.17380469853E+03  0.30534524705E+03  0.35155526603E+03  0.00000000000E+00 0. -1.
         -4    1    6    6    0  503  0.17143786334E+03 -0.52820021866E+03  0.81155447272E+03  0.98336517844E+03  0.00000000000E+00 0.  1.
<mgrwt>
<rscale>  0 0.21035876E+04</rscale>
<asrwt>0</asrwt>
<pdfrwt beam="1">  1        2 0.42571566E+00 0.21035876E+04</pdfrwt>
<pdfrwt beam="2">  1       -1 0.61505629E-01 0.21035876E+04</pdfrwt>
<totfact> 0.68107164E+00</totfact>
</mgrwt>
</event>
<event>
12    6  0.1569942E-007  0.1671769E+04  0.7818608E-02  0.8777631E-01
         -1   -1    0    0    0  501 -0.00000000000E+00  0.00000000000E+00  0.91685732729E+03  0.91685732729E+03  0.00000000000E+00 0.  1.
          2   -1    0    0  501    0  0.00000000000E+00 -0.00000000000E+00 -0.76206316946E+03  0.76206316946E+03  0.00000000000E+00 0. -1.
         24    2    1    2    0    0 -0.14554520381E+03  0.32132514344E+03 -0.40957641963E+03  0.54676261493E+03  0.82239038255E+02 0.  0.
        254    2    1    2    0    0  0.14554520381E+03 -0.32132514344E+03  0.56437057746E+03  0.11321578818E+04  0.91587884925E+03 0.  0.
         23    2    4    4    0    0  0.93121903751E+02 -0.33691818469E+00  0.74049517294E+03  0.75150540844E+03  0.88065176399E+02 0.  0.
         23    2    4    4    0    0  0.52423300063E+02 -0.32098822525E+03 -0.17612459549E+03  0.38065247338E+03  0.89971046521E+02 0.  0.
          2    1    3    3  502    0 -0.11264282235E+03  0.25418000718E+03 -0.26545386236E+03  0.38439775561E+03  0.00000000000E+00 0. -1.
         -1    1    3    3    0  502 -0.32902381462E+02  0.67145136263E+02 -0.14412255727E+03  0.16236485932E+03  0.00000000000E+00 0.  1.
         11    1    5    5    0    0  0.98150009156E+02 -0.11388260720E+02  0.44838083688E+03  0.45913885880E+03  0.00000000000E+00 0. -1.
        -11    1    5    5    0    0 -0.50281054059E+01  0.11051342535E+02  0.29211433606E+03  0.29236654964E+03  0.00000000000E+00 0.  1.
          1    1    6    6  503    0 -0.10787922605E+02 -0.20464449995E+03 -0.10201335870E+03  0.22891587098E+03  0.00000000000E+00 0. -1.
         -1    1    6    6    0  503  0.63211222667E+02 -0.11634372531E+03 -0.74111236791E+02  0.15173660240E+03  0.00000000000E+00 0.  1.
<mgrwt>
<rscale>  0 0.16717694E+04</rscale>
<asrwt>0</asrwt>
<pdfrwt beam="1">  1        2 0.11724049E+00 0.16717694E+04</pdfrwt>
<pdfrwt beam="2">  1       -1 0.14105497E+00 0.16717694E+04</pdfrwt>
<totfact> 0.16437647E+01</totfact>
</mgrwt>
</event>
<event>
12    6  0.1569942E-007  0.1837445E+04  0.7818608E-02  0.8686636E-01
          2   -1    0    0  501    0  0.00000000000E+00  0.00000000000E+00  0.94147023233E+03  0.94147023233E+03  0.00000000000E+00 0. -1.
         -1   -1    0    0    0  501 -0.00000000000E+00 -0.00000000000E+00 -0.89652452904E+03  0.89652452904E+03  0.00000000000E+00 0.  1.
         24    2    1    2    0    0  0.46671248121E+03  0.31904999726E+03  0.42731610810E+03  0.71220061995E+03  0.70832379258E+02 0.  0.
        254    2    1    2    0    0 -0.46671248121E+03 -0.31904999726E+03 -0.38237040481E+03  0.11257941414E+04  0.89531663757E+03 0.  0.
         23    2    4    4    0    0 -0.59099615116E+03 -0.18084953004E+03  0.69832940865E+02  0.62864456666E+03  0.91292652293E+02 0.  0.
         23    2    4    4    0    0  0.12428366995E+03 -0.13820046722E+03 -0.45220334568E+03  0.49714957476E+03  0.90133423791E+02 0.  0.
          4    1    3    3  502    0  0.42302665730E+03  0.30941448209E+03  0.38219524609E+03  0.64866176135E+03  0.00000000000E+00 0. -1.
         -3    1    3    3    0  502  0.43685823909E+02  0.96355151742E+01  0.45120862012E+02  0.63538858598E+02  0.00000000000E+00 0.  1.
         11    1    5    5    0    0 -0.48041539162E+03 -0.10822415042E+03  0.54371421443E+02  0.49544693632E+03  0.00000000000E+00 0.  1.
        -11    1    5    5    0    0 -0.11058075954E+03 -0.72625379626E+02  0.15461519422E+02  0.13319763034E+03  0.00000000000E+00 0. -1.
          1    1    6    6  503    0 -0.12552758134E+02 -0.27787958008E+02 -0.75868280268E+02  0.81766364099E+02  0.00000000000E+00 0. -1.
         -1    1    6    6    0  503  0.13683642808E+03 -0.11041250921E+03 -0.37633506541E+03  0.41538321066E+03  0.00000000000E+00 0.  1.
<mgrwt>
<rscale>  0 0.18374451E+04</rscale>
<asrwt>0</asrwt>
<pdfrwt beam="1">  1        2 0.14484157E+00 0.18374451E+04</pdfrwt>
<pdfrwt beam="2">  1       -1 0.13792685E+00 0.18374451E+04</pdfrwt>
<totfact> 0.12874750E+01</totfact>
</mgrwt>
</event>
<event>
12    6  0.1569942E-007  0.2328770E+04  0.7818608E-02  0.8466663E-01
          2   -1    0    0  501    0  0.00000000000E+00  0.00000000000E+00  0.15152679269E+04  0.15152679269E+04  0.00000000000E+00 0. -1.
         -1   -1    0    0    0  501 -0.00000000000E+00 -0.00000000000E+00 -0.89475405849E+03  0.89475405849E+03  0.00000000000E+00 0.  1.
         24    2    1    2    0    0  0.18857245922E+03  0.78233752494E+03  0.85768744014E+03  0.11792796596E+04  0.86378210933E+02 0.  0.
        254    2    1    2    0    0 -0.18857245922E+03 -0.78233752494E+03 -0.23717357173E+03  0.12307423258E+04  0.90047975769E+03 0.  0.
         23    2    4    4    0    0 -0.46164792680E+03 -0.63021549430E+03  0.59994057394E+02  0.78992740158E+03  0.10047703856E+03 0.  0.
         23    2    4    4    0    0  0.27307546758E+03 -0.15212203064E+03 -0.29716762913E+03  0.44081492419E+03  0.91092669228E+02 0.  0.
          4    1    3    3  502    0  0.17140502877E+03  0.54505133104E+03  0.59741175334E+03  0.82665678512E+03  0.00000000000E+00 0. -1.
         -3    1    3    3    0  502  0.17167430443E+02  0.23728619390E+03  0.26027568680E+03  0.35262287451E+03  0.00000000000E+00 0.  1.
         11    1    5    5    0    0 -0.24880481554E+03 -0.42145435205E+03  0.43296668441E+02  0.49132698746E+03  0.00000000000E+00 0.  1.
        -11    1    5    5    0    0 -0.21284311125E+03 -0.20876114224E+03  0.16697388953E+02  0.29860041413E+03  0.00000000000E+00 0. -1.
          2    1    6    6  503    0  0.41446407778E+02 -0.43180436261E+02 -0.18997919955E+02  0.62795507451E+02  0.00000000000E+00 0. -1.
         -2    1    6    6    0  503  0.23162905980E+03 -0.10894159438E+03 -0.27816970917E+03  0.37801941674E+03  0.00000000000E+00 0.  1.
<mgrwt>
<rscale>  0 0.23287697E+04</rscale>
<asrwt>0</asrwt>
<pdfrwt beam="1">  1        2 0.23311814E+00 0.23287697E+04</pdfrwt>
<pdfrwt beam="2">  1       -1 0.13765447E+00 0.23287697E+04</pdfrwt>
<totfact> 0.56166254E+00</totfact>
</mgrwt>
</event>
<event>
12    6  0.1569942E-007  0.1515900E+04  0.7818608E-02  0.8873948E-01
         -1   -1    0    0    0  501 -0.00000000000E+00  0.00000000000E+00  0.34498978423E+03  0.34498978423E+03  0.00000000000E+00 0.  1.
          2   -1    0    0  501    0  0.00000000000E+00 -0.00000000000E+00 -0.16652326028E+04  0.16652326028E+04  0.00000000000E+00 0. -1.
         24    2    1    2    0    0 -0.33873298260E+03  0.24816502776E+03 -0.76025292197E+03  0.87216538096E+03  0.79762346150E+02 0.  0.
        254    2    1    2    0    0  0.33873298260E+03 -0.24816502776E+03 -0.55998989661E+03  0.11380570061E+04  0.89736232943E+03 0.  0.
         23    2    4    4    0    0  0.50725537693E+03 -0.39998502904E+03 -0.16387634325E+03  0.67258464224E+03  0.90656517846E+02 0.  0.
         23    2    4    4    0    0 -0.16852239433E+03  0.15182000128E+03 -0.39611355336E+03  0.46547236383E+03  0.91156262298E+02 0.  0.
          4    1    3    3  502    0 -0.16543161686E+03  0.11755329680E+03 -0.44894983948E+03  0.49268890368E+03  0.00000000000E+00 0. -1.
         -3    1    3    3    0  502 -0.17330136573E+03  0.13061173097E+03 -0.31130308250E+03  0.37947647727E+03  0.00000000000E+00 0.  1.
         11    1    5    5    0    0  0.44543736606E+02 -0.49820566956E+02 -0.44127127704E+02  0.80083935731E+02  0.00000000000E+00 0. -1.
        -11    1    5    5    0    0  0.46271164032E+03 -0.35016446208E+03 -0.11974921554E+03  0.59250070651E+03  0.00000000000E+00 0.  1.
          3    1    6    6  503    0 -0.82571097773E+02  0.27782124917E+02 -0.96549126213E+02  0.13004447864E+03  0.00000000000E+00 0. -1.
         -3    1    6    6    0  503 -0.85951296561E+02  0.12403787636E+03 -0.29956442715E+03  0.33542788519E+03  0.00000000000E+00 0.  1.
<mgrwt>
<rscale>  0 0.15159000E+04</rscale>
<asrwt>0</asrwt>
<pdfrwt beam="1">  1        2 0.25618963E+00 0.15159000E+04</pdfrwt>
<pdfrwt beam="2">  1       -1 0.53075351E-01 0.15159000E+04</pdfrwt>
<totfact> 0.40354925E+01</totfact>
</mgrwt>
</event>
<event>
12    6  0.1569942E-007  0.2140150E+04  0.7818608E-02  0.8543761E-01
         -1   -1    0    0    0  501 -0.00000000000E+00  0.00000000000E+00  0.10313974002E+04  0.10313974002E+04  0.00000000000E+00 0.  1.
          2   -1    0    0  501    0  0.00000000000E+00 -0.00000000000E+00 -0.11102025219E+04  0.11102025219E+04  0.00000000000E+00 0. -1.
         24    2    1    2    0    0  0.45540451575E+03 -0.64375682631E+03  0.17454090045E+03  0.81118478044E+03  0.75763432470E+02 0.  0.
        254    2    1    2    0    0 -0.45540451575E+03  0.64375682631E+03 -0.25334602218E+03  0.13304151417E+04  0.10411551843E+04 0.  0.
         23    2    4    4    0    0  0.28838757746E+03  0.25145755537E+03  0.11274446544E+03  0.40875119864E+03  0.89263267454E+02 0.  0.
         23    2    4    4    0    0 -0.74379209321E+03  0.39229927094E+03 -0.36609048761E+03  0.92166394303E+03  0.91196397194E+02 0.  0.
          4    1    3    3  502    0  0.39131807387E+03 -0.50693981847E+03  0.15450997291E+03  0.65878004388E+03  0.00000000000E+00 0. -1.
         -3    1    3    3    0  502  0.64086441879E+02 -0.13681700784E+03  0.20030927540E+02  0.15240473655E+03  0.00000000000E+00 0.  1.
         11    1    5    5    0    0  0.80889693478E+02  0.11437679818E+03  0.12600572676E+02  0.14065549725E+03  0.00000000000E+00 0. -1.
        -11    1    5    5    0    0  0.20749788398E+03  0.13708075718E+03  0.10014389276E+03  0.26809570139E+03  0.00000000000E+00 0.  1.
          2    1    6    6  503    0 -0.36086059710E+03  0.14700651558E+03 -0.14232511613E+03  0.41483457528E+03  0.00000000000E+00 0. -1.
         -2    1    6    6    0  503 -0.38293149611E+03  0.24529275536E+03 -0.22376537149E+03  0.50682936776E+03  0.00000000000E+00 0.  1.
<mgrwt>
<rscale>  0 0.21401495E+04</rscale>
<asrwt>0</asrwt>
<pdfrwt beam="1">  1        2 0.17080039E+00 0.21401495E+04</pdfrwt>
<pdfrwt beam="2">  1       -1 0.15867652E+00 0.21401495E+04</pdfrwt>
<totfact> 0.67268137E+00</totfact>
</mgrwt>
</event>
<event>
12    6  0.1569942E-007  0.2515771E+04  0.7818608E-02  0.8397388E-01
         -1   -1    0    0    0  501 -0.00000000000E+00  0.00000000000E+00  0.75065702751E+03  0.75065702751E+03  0.00000000000E+00 0.  1.
          2   -1    0    0  501    0  0.00000000000E+00 -0.00000000000E+00 -0.21078553642E+04  0.21078553642E+04  0.00000000000E+00 0. -1.
         24    2    1    2    0    0 -0.63543911197E+03 -0.10260948437E+03  0.41446607620E+03  0.76971480931E+03  0.79794661737E+02 0.  0.
        254    2    1    2    0    0  0.63543911197E+03  0.10260948437E+03 -0.17716644129E+04  0.20887975824E+04  0.89998276488E+03 0.  0.
         23    2    4    4    0    0  0.28063798729E+03 -0.41311174374E+02 -0.16517786709E+04  0.16784003550E+04  0.90502380903E+02 0.  0.
         23    2    4    4    0    0  0.35480112468E+03  0.14392065875E+03 -0.11988574202E+03  0.41039722745E+03  0.86349864322E+02 0.  0.
          4    1    3    3  502    0 -0.15461724622E+03  0.80792612027E+01  0.88013430949E+02  0.17809584868E+03  0.00000000000E+00 0. -1.
         -3    1    3    3    0  502 -0.48082186575E+03 -0.11068874558E+03  0.32645264525E+03  0.59161896063E+03  0.00000000000E+00 0.  1.
         11    1    5    5    0    0  0.18782447259E+03 -0.34004722710E+02 -0.13228348782E+04  0.13365352478E+04  0.00000000000E+00 0. -1.
        -11    1    5    5    0    0  0.92813514698E+02 -0.73064516637E+01 -0.32894379268E+03  0.34186510715E+03  0.00000000000E+00 0.  1.
          2    1    6    6  503    0  0.33959244743E+03  0.11889249760E+03 -0.12453061857E+03  0.38074444356E+03  0.00000000000E+00 0. -1.
         -2    1    6    6    0  503  0.15208677247E+02  0.25028161150E+02  0.46448765546E+01  0.29652783889E+02  0.00000000000E+00 0.  1.
<mgrwt>
<rscale>  0 0.25157714E+04</rscale>
<asrwt>0</asrwt>
<pdfrwt beam="1">  1        2 0.32428544E+00 0.25157714E+04</pdfrwt>
<pdfrwt beam="2">  1       -1 0.11548570E+00 0.25157714E+04</pdfrwt>
<totfact> 0.40048312E+00</totfact>
</mgrwt>
</event>
<event>
12    6  0.1569942E-007  0.2357593E+04  0.7818608E-02  0.8455553E-01
         -1   -1    0    0    0  501 -0.00000000000E+00  0.00000000000E+00  0.67406825653E+03  0.67406825653E+03  0.00000000000E+00 0.  1.
          2   -1    0    0  501    0  0.00000000000E+00 -0.00000000000E+00 -0.20614544679E+04  0.20614544679E+04  0.00000000000E+00 0. -1.
         24    2    1    2    0    0  0.46669238937E+03 -0.70147434106E+03 -0.11373069006E+04  0.14176628942E+04  0.80206346734E+02 0.  0.
        254    2    1    2    0    0 -0.46669238937E+03  0.70147434106E+03 -0.25007931082E+03  0.13178598303E+04  0.98201162572E+03 0.  0.
         23    2    4    4    0    0 -0.37643860034E+03  0.31518545043E+03  0.33816460862E+03  0.60306901616E+03  0.91044207636E+02 0.  0.
         23    2    4    4    0    0 -0.90253789029E+02  0.38628889063E+03 -0.58824391945E+03  0.71479081409E+03  0.86776412039E+02 0.  0.
          2    1    3    3  502    0  0.44272858689E+03 -0.68937185364E+03 -0.10954780549E+04  0.13679599128E+04  0.00000000000E+00 0. -1.
         -1    1    3    3    0  502  0.23963802480E+02 -0.12102487424E+02 -0.41828845696E+02  0.49702981434E+02  0.00000000000E+00 0.  1.
         11    1    5    5    0    0 -0.74044383617E+02  0.39581656479E+02  0.24306219251E+02  0.87407497214E+02  0.00000000000E+00 0. -1.
        -11    1    5    5    0    0 -0.30239421672E+03  0.27560379395E+03  0.31385838937E+03  0.51566151895E+03  0.00000000000E+00 0.  1.
          3    1    6    6  503    0 -0.50120932999E+02  0.79641809315E+02 -0.17427697425E+03  0.19805905551E+03  0.00000000000E+00 0. -1.
         -3    1    6    6    0  503 -0.40132856030E+02  0.30664708132E+03 -0.41396694520E+03  0.51673175858E+03  0.00000000000E+00 0.  1.
<mgrwt>
<rscale>  0 0.23575929E+04</rscale>
<asrwt>0</asrwt>
<pdfrwt beam="1">  1        2 0.31714683E+00 0.23575929E+04</pdfrwt>
<pdfrwt beam="2">  1       -1 0.10370281E+00 0.23575929E+04</pdfrwt>
<totfact> 0.55559166E+00</totfact>
</mgrwt>
</event>
<event>
12    6  0.1569942E-007  0.1970259E+04  0.7818608E-02  0.8620653E-01
          2   -1    0    0  501    0  0.00000000000E+00  0.00000000000E+00  0.29444637990E+04  0.29444637990E+04  0.00000000000E+00 0. -1.
         -1   -1    0    0    0  501 -0.00000000000E+00 -0.00000000000E+00 -0.32959493108E+03  0.32959493108E+03  0.00000000000E+00 0.  1.
         24    2    1    2    0    0 -0.52968770883E+03 -0.33884167182E+03  0.18004315961E+04  0.19087341534E+04  0.79557454512E+02 0.  0.
        254    2    1    2    0    0  0.52968770883E+03  0.33884167182E+03  0.81443727178E+03  0.13653245767E+04  0.89745216170E+03 0.  0.
         23    2    4    4    0    0  0.28348991337E+03  0.15830757214E+03  0.95824915249E+03  0.10160890692E+04  0.93636210876E+02 0.  0.
         23    2    4    4    0    0  0.24619779546E+03  0.18053409967E+03 -0.14381188071E+03  0.34923550743E+03  0.89875842060E+02 0.  0.
          4    1    3    3  502    0 -0.48926057921E+03 -0.28642163957E+03  0.16376838858E+04  0.17330383088E+04  0.00000000000E+00 0. -1.
         -3    1    3    3    0  502 -0.40427129620E+02 -0.52420032244E+02  0.16274771035E+03  0.17569584461E+03  0.00000000000E+00 0.  1.
         11    1    5    5    0    0  0.18578290531E+02 -0.79669205196E+01  0.11373217892E+03  0.11551464506E+03  0.00000000000E+00 0. -1.
        -11    1    5    5    0    0  0.26491162284E+03  0.16627449266E+03  0.84451697357E+03  0.90057442417E+03  0.00000000000E+00 0.  1.
          4    1    6    6  503    0  0.10714061224E+02  0.41441082404E+02 -0.33406521053E+02  0.54296869777E+02  0.00000000000E+00 0. -1.
         -4    1    6    6    0  503  0.23548373423E+03  0.13909301727E+03 -0.11040535966E+03  0.29493863765E+03  0.00000000000E+00 0.  1.
<mgrwt>
<rscale>  0 0.19702592E+04</rscale>
<asrwt>0</asrwt>
<pdfrwt beam="1">  1        2 0.45299441E+00 0.19702592E+04</pdfrwt>
<pdfrwt beam="2">  1       -1 0.50706914E-01 0.19702592E+04</pdfrwt>
<totfact> 0.78298160E+00</totfact>
</mgrwt>
</event>
<event>
12    6  0.1569942E-007  0.1749490E+04  0.7818608E-02  0.8733631E-01
          2   -1    0    0  501    0  0.00000000000E+00  0.00000000000E+00  0.18517670874E+04  0.18517670874E+04  0.00000000000E+00 0. -1.
         -1   -1    0    0    0  501 -0.00000000000E+00 -0.00000000000E+00 -0.41321538998E+03  0.41321538998E+03  0.00000000000E+00 0.  1.
         24    2    1    2    0    0  0.20712433840E+03 -0.16195791580E+03  0.13205237639E+04  0.13488651980E+04  0.80767897465E+02 0.  0.
        254    2    1    2    0    0 -0.20712433840E+03  0.16195791580E+03  0.11802793347E+03  0.91611727935E+03  0.86960302346E+03 0.  0.
         23    2    4    4    0    0 -0.36749467384E+03 -0.12784671114E+03  0.32192690479E+03  0.51469652643E+03  0.99390469562E+02 0.  0.
         23    2    4    4    0    0  0.16037033544E+03  0.28980462694E+03 -0.20389897132E+03  0.40142075293E+03  0.99289798513E+02 0.  0.
          4    1    3    3  502    0  0.16495651840E+03 -0.16427478170E+03  0.11118738612E+04  0.11359843045E+04  0.00000000000E+00 0. -1.
         -3    1    3    3    0  502  0.42167819998E+02  0.23168659010E+01  0.20864990275E+03  0.21288089353E+03  0.00000000000E+00 0.  1.
         11    1    5    5    0    0  0.13915332449E+01  0.37653698376E+01  0.19373682063E+02  0.19785194754E+02  0.00000000000E+00 0. -1.
        -11    1    5    5    0    0 -0.36888620709E+03 -0.13161208098E+03  0.30255322272E+03  0.49491133167E+03  0.00000000000E+00 0.  1.
          1    1    6    6  503    0  0.36448632810E+00  0.23592777392E+02  0.85712067086E+01  0.25104134715E+02  0.00000000000E+00 0. -1.
         -1    1    6    6    0  503  0.16000584912E+03  0.26621184955E+03 -0.21247017802E+03  0.37631661821E+03  0.00000000000E+00 0.  1.
<mgrwt>
<rscale>  0 0.17494898E+04</rscale>
<asrwt>0</asrwt>
<pdfrwt beam="1">  1        2 0.28488724E+00 0.17494898E+04</pdfrwt>
<pdfrwt beam="2">  1       -1 0.63571599E-01 0.17494898E+04</pdfrwt>
<totfact> 0.21880519E+01</totfact>
</mgrwt>
</event>
<event>
12    6  0.1569942E-007  0.1938960E+04  0.7818608E-02  0.8635703E-01
         -1   -1    0    0    0  501 -0.00000000000E+00  0.00000000000E+00  0.73723199418E+03  0.73723199418E+03  0.00000000000E+00 0.  1.
          2   -1    0    0  501    0  0.00000000000E+00 -0.00000000000E+00 -0.12748929422E+04  0.12748929422E+04  0.00000000000E+00 0. -1.
         24    2    1    2    0    0 -0.14265848729E+03  0.27017388423E+02  0.56543439315E+03  0.58926666598E+03  0.80235699069E+02 0.  0.
        254    2    1    2    0    0  0.14265848729E+03 -0.27017388423E+02 -0.11030953411E+04  0.14228582704E+04  0.88691879143E+03 0.  0.
         23    2    4    4    0    0  0.48432230430E+03 -0.14625964176E+03 -0.75623556906E+03  0.91467081264E+03  0.93650853334E+02 0.  0.
         23    2    4    4    0    0 -0.34166381701E+03  0.11924225334E+03 -0.34685977208E+03  0.50818745771E+03  0.83605692703E+02 0.  0.
          2    1    3    3  502    0 -0.85939464698E+01  0.90210243301E+01  0.18645210346E+03  0.18686792577E+03  0.00000000000E+00 0. -1.
         -1    1    3    3    0  502 -0.13406454082E+03  0.17996364093E+02  0.37898228969E+03  0.40239874022E+03  0.00000000000E+00 0.  1.
         11    1    5    5    0    0  0.34799556435E+03 -0.59956103467E+02 -0.52487187307E+03  0.63260266383E+03  0.00000000000E+00 0.  1.
        -11    1    5    5    0    0  0.13632673995E+03 -0.86303538295E+02 -0.23136369599E+03  0.28206814881E+03  0.00000000000E+00 0. -1.
          1    1    6    6  503    0 -0.19961508154E+03  0.39669267444E+02 -0.15058741294E+03  0.25317266933E+03  0.00000000000E+00 0.  1.
         -1    1    6    6    0  503 -0.14204873547E+03  0.79572985895E+02 -0.19627235914E+03  0.25501478839E+03  0.00000000000E+00 0. -1.
<mgrwt>
<rscale>  0 0.19389604E+04</rscale>
<asrwt>0</asrwt>
<pdfrwt beam="1">  1        2 0.19613738E+00 0.19389604E+04</pdfrwt>
<pdfrwt beam="2">  1       -1 0.11342031E+00 0.19389604E+04</pdfrwt>
<totfact> 0.12915362E+01</totfact>
</mgrwt>
</event>
<event>
12    6  0.1569942E-007  0.2227015E+04  0.7818608E-02  0.8507267E-01
         -1   -1    0    0    0  501 -0.00000000000E+00  0.00000000000E+00  0.52931239380E+03  0.52931239380E+03  0.00000000000E+00 0.  1.
          2   -1    0    0  501    0  0.00000000000E+00 -0.00000000000E+00 -0.23424717084E+04  0.23424717084E+04  0.00000000000E+00 0. -1.
         24    2    1    2    0    0  0.16089335500E+03 -0.89617411075E+03 -0.97917798048E+03  0.13395204757E+04  0.80690018076E+02 0.  0.
        254    2    1    2    0    0 -0.16089335500E+03  0.89617411075E+03 -0.83398133409E+03  0.15322636264E+04  0.90735453202E+03 0.  0.
         23    2    4    4    0    0  0.34823089381E+02  0.10064636986E+04 -0.79378194687E+03  0.12856089053E+04  0.92296555513E+02 0.  0.
         23    2    4    4    0    0 -0.19571644438E+03 -0.11028958781E+03 -0.40199387217E+02  0.24665472111E+03  0.93561963061E+02 0.  0.
          4    1    3    3  502    0  0.47007483937E+02 -0.13458033676E+03 -0.12655102090E+03  0.19062195959E+03  0.00000000000E+00 0. -1.
         -3    1    3    3    0  502  0.11388587107E+03 -0.76159377399E+03 -0.85262695958E+03  0.11488985162E+04  0.00000000000E+00 0.  1.
         11    1    5    5    0    0  0.41388672128E+02  0.33366539901E+03 -0.22481242234E+03  0.40445796557E+03  0.00000000000E+00 0. -1.
        -11    1    5    5    0    0 -0.65655827467E+01  0.67279829955E+03 -0.56896952453E+03  0.88115093974E+03  0.00000000000E+00 0.  1.
          3    1    6    6  503    0 -0.50498005969E+02  0.89343854537E+01  0.98344025729E+01  0.52216734140E+02  0.00000000000E+00 0. -1.
         -3    1    6    6    0  503 -0.14521843841E+03 -0.11922397326E+03 -0.50033789790E+02  0.19443798697E+03  0.00000000000E+00 0.  1.
<mgrwt>
<rscale>  0 0.22270153E+04</rscale>
<asrwt>0</asrwt>
<pdfrwt beam="1">  1        2 0.36038027E+00 0.22270153E+04</pdfrwt>
<pdfrwt beam="2">  1       -1 0.81432675E-01 0.22270153E+04</pdfrwt>
<totfact> 0.66833786E+00</totfact>
</mgrwt>
</event>
<event>
12    6  0.1569942E-007  0.1826572E+04  0.7818608E-02  0.8692295E-01
         -1   -1    0    0    0  501 -0.00000000000E+00  0.00000000000E+00  0.88289523235E+03  0.88289523235E+03  0.00000000000E+00 0.  1.
          2   -1    0    0  501    0  0.00000000000E+00 -0.00000000000E+00 -0.94472296639E+03  0.94472296639E+03  0.00000000000E+00 0. -1.
         24    2    1    2    0    0 -0.46422455106E+03  0.38084883310E+03  0.30960950479E+03  0.68079993208E+03  0.84144129824E+02 0.  0.
        254    2    1    2    0    0  0.46422455106E+03 -0.38084883310E+03 -0.37143723884E+03  0.11468182667E+04  0.90370141467E+03 0.  0.
         23    2    4    4    0    0  0.19790117045E+03 -0.25246269119E+03  0.27437927219E+03  0.43134016281E+03  0.88702127024E+02 0.  0.
         23    2    4    4    0    0  0.26632338061E+03 -0.12838614191E+03 -0.64581651103E+03  0.71547810385E+03  0.86132494890E+02 0.  0.
          2    1    3    3  502    0 -0.12595430056E+02  0.23490878485E+02 -0.59047170346E+00  0.26661111888E+02  0.00000000000E+00 0. -1.
         -1    1    3    3    0  502 -0.45162912100E+03  0.35735795461E+03  0.31019997650E+03  0.65413882019E+03  0.00000000000E+00 0.  1.
         11    1    5    5    0    0  0.18308924609E+03 -0.25275334034E+03  0.27574475063E+03  0.41646259206E+03  0.00000000000E+00 0. -1.
        -11    1    5    5    0    0  0.14811924358E+02  0.29064915064E+00 -0.13654784351E+01  0.14877570752E+02  0.00000000000E+00 0.  1.
          3    1    6    6  503    0  0.24622494274E+03 -0.13832188797E+03 -0.56562568190E+03  0.63221205235E+03  0.00000000000E+00 0. -1.
         -3    1    6    6    0  503  0.20098437870E+02  0.99357460668E+01 -0.80190829131E+02  0.83266051494E+02  0.00000000000E+00 0.  1.
<mgrwt>
<rscale>  0 0.18265721E+04</rscale>
<asrwt>0</asrwt>
<pdfrwt beam="1">  1        2 0.14534199E+00 0.18265721E+04</pdfrwt>
<pdfrwt beam="2">  1       -1 0.13583004E+00 0.18265721E+04</pdfrwt>
<totfact> 0.13341067E+01</totfact>
</mgrwt>
</event>
<event>
12    6  0.1569942E-007  0.2451239E+04  0.7818608E-02  0.8420566E-01
         -1   -1    0    0    0  501 -0.00000000000E+00  0.00000000000E+00  0.11768089807E+04  0.11768089807E+04  0.00000000000E+00 0.  1.
          2   -1    0    0  501    0  0.00000000000E+00 -0.00000000000E+00 -0.12764544052E+04  0.12764544052E+04  0.00000000000E+00 0. -1.
         24    2    1    2    0    0  0.39013613051E+03 -0.35934336982E+03  0.87727377591E+03  0.10282731704E+04  0.80016107179E+02 0.  0.
        254    2    1    2    0    0 -0.39013613051E+03  0.35934336982E+03 -0.97691920042E+03  0.14249902154E+04  0.89156723368E+03 0.  0.
         23    2    4    4    0    0 -0.59085342874E+03  0.53609731726E+02 -0.82189495094E+03  0.10175863589E+04  0.89380702128E+02 0.  0.
         23    2    4    4    0    0  0.20071729823E+03  0.30573363809E+03 -0.15502424948E+03  0.40740385651E+03  0.90470399023E+02 0.  0.
          4    1    3    3  502    0  0.96918592559E+02 -0.96830259055E+02  0.16463213806E+03  0.21417995596E+03  0.00000000000E+00 0. -1.
         -3    1    3    3    0  502  0.29321753795E+03 -0.26251311077E+03  0.71264163785E+03  0.81409321449E+03  0.00000000000E+00 0.  1.
         11    1    5    5    0    0 -0.11005447869E+03  0.11518801599E+02 -0.21841291108E+03  0.24484458499E+03  0.00000000000E+00 0. -1.
        -11    1    5    5    0    0 -0.48079895005E+03  0.42090930127E+02 -0.60348203986E+03  0.77274177394E+03  0.00000000000E+00 0.  1.
          1    1    6    6  503    0  0.37203250808E+02  0.92629455302E+02 -0.81631695314E+02  0.12894972485E+03  0.00000000000E+00 0. -1.
         -1    1    6    6    0  503  0.16351404742E+03  0.21310418279E+03 -0.73392554168E+02  0.27845413165E+03  0.00000000000E+00 0.  1.
<mgrwt>
<rscale>  0 0.24512389E+04</rscale>
<asrwt>0</asrwt>
<pdfrwt beam="1">  1        2 0.19637760E+00 0.24512389E+04</pdfrwt>
<pdfrwt beam="2">  1       -1 0.18104753E+00 0.24512389E+04</pdfrwt>
<totfact> 0.35617712E+00</totfact>
</mgrwt>
</event>
<event>
12    6  0.1569942E-007  0.2386711E+04  0.7818608E-02  0.8444496E-01
          2   -1    0    0  501    0  0.00000000000E+00  0.00000000000E+00  0.27148438911E+04  0.27148438911E+04  0.00000000000E+00 0. -1.
         -1   -1    0    0    0  501 -0.00000000000E+00 -0.00000000000E+00 -0.52455957868E+03  0.52455957868E+03  0.00000000000E+00 0.  1.
         24    2    1    2    0    0 -0.85811577101E+03 -0.48029915410E+03  0.13135762744E+04  0.16429310705E+04  0.81791930029E+02 0.  0.
        254    2    1    2    0    0  0.85811577101E+03  0.48029915410E+03  0.87670803802E+03  0.15964723993E+04  0.90169683593E+03 0.  0.
         23    2    4    4    0    0  0.60639928536E+03 -0.11860385694E+03  0.65373101511E+03  0.90358023751E+03  0.85475361008E+02 0.  0.
         23    2    4    4    0    0  0.25171648565E+03  0.59890301104E+03  0.22297702291E+03  0.69289216180E+03  0.91295067495E+02 0.  0.
          4    1    3    3  502    0 -0.66264509004E+03 -0.35694567004E+03  0.10569885221E+04  0.12975875548E+04  0.00000000000E+00 0. -1.
         -3    1    3    3    0  502 -0.19547068097E+03 -0.12335348406E+03  0.25658775239E+03  0.34534351568E+03  0.00000000000E+00 0.  1.
         11    1    5    5    0    0  0.54782113103E+03 -0.11245929271E+03  0.62284846984E+03  0.83707544493E+03  0.00000000000E+00 0. -1.
        -11    1    5    5    0    0  0.58578154324E+02 -0.61445642321E+01  0.30882545265E+02  0.66504792576E+02  0.00000000000E+00 0.  1.
          3    1    6    6  503    0  0.14815911838E+03  0.23855772428E+03  0.85453440862E+02  0.29353569243E+03  0.00000000000E+00 0. -1.
         -3    1    6    6    0  503  0.10355736727E+03  0.36034528676E+03  0.13752358205E+03  0.39935646937E+03  0.00000000000E+00 0.  1.
<mgrwt>
<rscale>  0 0.23867110E+04</rscale>
<asrwt>0</asrwt>
<pdfrwt beam="1">  1        2 0.41766828E+00 0.23867110E+04</pdfrwt>
<pdfrwt beam="2">  1       -1 0.80701475E-01 0.23867110E+04</pdfrwt>
<totfact> 0.40796353E+00</totfact>
</mgrwt>
</event>
<event>
12    6  0.1569942E-007  0.1425667E+04  0.7818608E-02  0.8935446E-01
         -1   -1    0    0    0  501 -0.00000000000E+00  0.00000000000E+00  0.25849994586E+03  0.25849994586E+03  0.00000000000E+00 0.  1.
          2   -1    0    0  501    0  0.00000000000E+00 -0.00000000000E+00 -0.19656941264E+04  0.19656941264E+04  0.00000000000E+00 0. -1.
         24    2    1    2    0    0 -0.39412966134E+03 -0.67316908853E+02 -0.71347197629E+03  0.82180403289E+03  0.80310966608E+02 0.  0.
        254    2    1    2    0    0  0.39412966134E+03  0.67316908853E+02 -0.99372220425E+03  0.14023900394E+04  0.90517636244E+03 0.  0.
         23    2    4    4    0    0  0.19636522961E+03  0.69823458537E+02 -0.11247936891E+04  0.11481202864E+04  0.97901634570E+02 0.  0.
         23    2    4    4    0    0  0.19776443172E+03 -0.25065496840E+01  0.13107148489E+03  0.25426975301E+03  0.91412908820E+02 0.  0.
          4    1    3    3  502    0 -0.32228842133E+03 -0.85929317938E+02 -0.57798421263E+03  0.66732257885E+03  0.00000000000E+00 0. -1.
         -3    1    3    3    0  502 -0.71841240009E+02  0.18612409085E+02 -0.13548776366E+03  0.15448145403E+03  0.00000000000E+00 0.  1.
         11    1    5    5    0    0  0.12889645469E+03 -0.51412237575E+01 -0.66480711629E+03  0.67720693299E+03  0.00000000000E+00 0.  1.
        -11    1    5    5    0    0  0.67468774918E+02  0.74964682294E+02 -0.45998657285E+03  0.47091335337E+03  0.00000000000E+00 0. -1.
          2    1    6    6  503    0  0.11374593349E+03 -0.45542220465E+02  0.62133993585E+02  0.13737854413E+03  0.00000000000E+00 0. -1.
         -2    1    6    6    0  503  0.84018498239E+02  0.43035670781E+02  0.68937491300E+02  0.11689120888E+03  0.00000000000E+00 0.  1.
<mgrwt>
<rscale>  0 0.14256673E+04</rscale>
<asrwt>0</asrwt>
<pdfrwt beam="1">  1        2 0.30241448E+00 0.14256673E+04</pdfrwt>
<pdfrwt beam="2">  1       -1 0.39769223E-01 0.14256673E+04</pdfrwt>
<totfact> 0.47581259E+01</totfact>
</mgrwt>
</event>
<event>
12    6  0.1569942E-007  0.3699623E+04  0.7818608E-02  0.8068045E-01
          2   -1    0    0  501    0  0.00000000000E+00  0.00000000000E+00  0.19898737651E+04  0.19898737651E+04  0.00000000000E+00 0. -1.
         -1   -1    0    0    0  501 -0.00000000000E+00 -0.00000000000E+00 -0.17196076141E+04  0.17196076141E+04  0.00000000000E+00 0.  1.
         24    2    1    2    0    0 -0.52880092976E+03  0.95227403483E+03  0.14834650743E+04  0.18424235036E+04  0.86020226038E+02 0.  0.
        254    2    1    2    0    0  0.52880092976E+03 -0.95227403483E+03 -0.12131989232E+04  0.18670578756E+04  0.90972370683E+03 0.  0.
         23    2    4    4    0    0  0.24270485738E+03 -0.81032539374E+03 -0.31124262289E+03  0.90605621203E+03  0.92374225304E+02 0.  0.
         23    2    4    4    0    0  0.28609607238E+03 -0.14194864108E+03 -0.90195630032E+03  0.96100166355E+03  0.89435173929E+02 0.  0.
          4    1    3    3  502    0 -0.44118605390E+03  0.85217530677E+03  0.13040320205E+04  0.16190575648E+04  0.00000000000E+00 0. -1.
         -1    1    3    3    0  502 -0.87614875856E+02  0.10009872806E+03  0.17943305382E+03  0.22336593884E+03  0.00000000000E+00 0.  1.
         11    1    5    5    0    0  0.23254324542E+03 -0.69499035969E+03 -0.29097400868E+03  0.78851368712E+03  0.00000000000E+00 0.  1.
        -11    1    5    5    0    0  0.10161611959E+02 -0.11533503406E+03 -0.20268614209E+02  0.11754252490E+03  0.00000000000E+00 0. -1.
          3    1    6    6  503    0  0.28665563245E+03 -0.13252238473E+03 -0.82348727268E+03  0.88196650863E+03  0.00000000000E+00 0. -1.
         -3    1    6    6    0  503 -0.55956007267E+00 -0.94262563548E+01 -0.78469027634E+02  0.79035154926E+02  0.00000000000E+00 0.  1.
<mgrwt>
<rscale>  0 0.36996227E+04</rscale>
<asrwt>0</asrwt>
<pdfrwt beam="1">  1        2 0.30613443E+00 0.36996227E+04</pdfrwt>
<pdfrwt beam="2">  1       -1 0.26455502E+00 0.36996227E+04</pdfrwt>
<totfact> 0.34889039E-01</totfact>
</mgrwt>
</event>
<event>
12    6  0.1569942E-007  0.3274415E+04  0.7818608E-02  0.8169436E-01
         -1   -1    0    0    0  501 -0.00000000000E+00  0.00000000000E+00  0.13693405211E+04  0.13693405211E+04  0.00000000000E+00 0.  1.
          2   -1    0    0  501    0  0.00000000000E+00 -0.00000000000E+00 -0.19574736247E+04  0.19574736247E+04  0.00000000000E+00 0. -1.
         24    2    1    2    0    0  0.54196791446E+03  0.76783803624E+03  0.92903800096E+03  0.13239450256E+04  0.80089658645E+02 0.  0.
        254    2    1    2    0    0 -0.54196791446E+03 -0.76783803624E+03 -0.15171711046E+04  0.20028691202E+04  0.90905009861E+03 0.  0.
         23    2    4    4    0    0 -0.71244890777E+02  0.14216999447E+03 -0.59290814773E+03  0.62055234936E+03  0.90868062917E+02 0.  0.
         23    2    4    4    0    0 -0.47072302368E+03 -0.91000803071E+03 -0.92426295688E+03  0.13823167708E+04  0.82721584315E+02 0.  0.
          4    1    3    3  502    0  0.16025789778E+03  0.29321195350E+03  0.32456082819E+03  0.46582783802E+03  0.00000000000E+00 0. -1.
         -3    1    3    3    0  502  0.38171001668E+03  0.47462608273E+03  0.60447717276E+03  0.85811718759E+03  0.00000000000E+00 0.  1.
         11    1    5    5    0    0 -0.27351547411E+02  0.94814715226E+00 -0.41919635663E+02  0.50062580665E+02  0.00000000000E+00 0. -1.
        -11    1    5    5    0    0 -0.43893343367E+02  0.14122184732E+03 -0.55098851207E+03  0.57048976870E+03  0.00000000000E+00 0.  1.
          4    1    6    6  503    0 -0.11738707769E+03 -0.15886043934E+03 -0.18987791063E+03  0.27398902559E+03  0.00000000000E+00 0. -1.
         -4    1    6    6    0  503 -0.35333594599E+03 -0.75114759137E+03 -0.73438504624E+03  0.11083277453E+04  0.00000000000E+00 0.  1.
<mgrwt>
<rscale>  0 0.32744147E+04</rscale>
<asrwt>0</asrwt>
<pdfrwt beam="1">  1        2 0.30114979E+00 0.32744147E+04</pdfrwt>
<pdfrwt beam="2">  1       -1 0.21066777E+00 0.32744147E+04</pdfrwt>
<totfact> 0.85459175E-01</totfact>
</mgrwt>
</event>
<event>
12    6  0.1569942E-007  0.1535243E+04  0.7818608E-02  0.8861349E-01
         -1   -1    0    0    0  501 -0.00000000000E+00  0.00000000000E+00  0.17619747574E+04  0.17619747574E+04  0.00000000000E+00 0.  1.
          2   -1    0    0  501    0  0.00000000000E+00 -0.00000000000E+00 -0.33442165856E+03  0.33442165856E+03  0.00000000000E+00 0. -1.
         24    2    1    2    0    0 -0.47440954446E+03  0.11762174464E+02  0.26189580884E+03  0.54834174072E+03  0.82984849859E+02 0.  0.
        254    2    1    2    0    0  0.47440954446E+03 -0.11762174464E+02  0.11656572899E+04  0.15480546752E+04  0.90139536009E+03 0.  0.
         23    2    4    4    0    0  0.10717665945E+03  0.41389147417E+03  0.62805509956E+03  0.76524481621E+03  0.91397111201E+02 0.  0.
         23    2    4    4    0    0  0.36723288501E+03 -0.42565364864E+03  0.53760219039E+03  0.78280985899E+03  0.87943958224E+02 0.  0.
          2    1    3    3  502    0 -0.22759815998E+03  0.74891322217E+01  0.78683253380E+02  0.24093165813E+03  0.00000000000E+00 0. -1.
         -1    1    3    3    0  502 -0.24681138448E+03  0.42730422419E+01  0.18321255546E+03  0.30741008259E+03  0.00000000000E+00 0.  1.
         11    1    5    5    0    0 -0.22954304975E+01  0.16825709606E+03  0.23983265897E+03  0.29297683131E+03  0.00000000000E+00 0. -1.
        -11    1    5    5    0    0  0.10947208995E+03  0.24563437812E+03  0.38822244058E+03  0.47226798490E+03  0.00000000000E+00 0.  1.
          4    1    6    6  503    0  0.26524196775E+03 -0.32403161480E+03  0.44798291901E+03  0.61321976857E+03  0.00000000000E+00 0.  1.
         -4    1    6    6    0  503  0.10199091726E+03 -0.10162203384E+03  0.89619271388E+02  0.16959009042E+03  0.00000000000E+00 0. -1.
<mgrwt>
<rscale>  0 0.15352427E+04</rscale>
<asrwt>0</asrwt>
<pdfrwt beam="1">  1        2 0.51449487E-01 0.15352427E+04</pdfrwt>
<pdfrwt beam="2">  1       -1 0.27107303E+00 0.15352427E+04</pdfrwt>
<totfact> 0.54601916E+00</totfact>
</mgrwt>
</event>
<event>
12    6  0.1569942E-007  0.2273238E+04  0.7818608E-02  0.8488548E-01
         -1   -1    0    0    0  501 -0.00000000000E+00  0.00000000000E+00  0.36933438379E+03  0.36933438379E+03  0.00000000000E+00 0.  1.
          2   -1    0    0  501    0  0.00000000000E+00 -0.00000000000E+00 -0.34979228587E+04  0.34979228587E+04  0.00000000000E+00 0. -1.
         24    2    1    2    0    0  0.10794595253E+03 -0.17445478551E+03 -0.28852403505E+04  0.28937138022E+04  0.82951120408E+02 0.  0.
        254    2    1    2    0    0 -0.10794595253E+03  0.17445478551E+03 -0.24334812441E+03  0.97354344024E+03  0.92004441171E+03 0.  0.
         23    2    4    4    0    0 -0.49439195172E+03  0.20911268877E+03 -0.15005789098E+03  0.56442579073E+03  0.88924597644E+02 0.  0.
         23    2    4    4    0    0  0.38644599919E+03 -0.34657903257E+02 -0.93290233433E+02  0.40911764951E+03  0.90180391108E+02 0.  0.
          4    1    3    3  502    0  0.33507490250E+02 -0.12381338819E+03 -0.14551320020E+04  0.14607743324E+04  0.00000000000E+00 0. -1.
         -3    1    3    3    0  502  0.74438462279E+02 -0.50641397329E+02 -0.14301083484E+04  0.14329394698E+04  0.00000000000E+00 0.  1.
         11    1    5    5    0    0 -0.18782452998E+03  0.12683150734E+03 -0.58419020252E+02  0.23404501115E+03  0.00000000000E+00 0. -1.
        -11    1    5    5    0    0 -0.30656742174E+03  0.82281181435E+02 -0.91638870728E+02  0.33038077958E+03  0.00000000000E+00 0.  1.
          4    1    6    6  503    0  0.40930230601E+02 -0.32777915086E+02 -0.63000803508E+01  0.52814453579E+02  0.00000000000E+00 0. -1.
         -4    1    6    6    0  503  0.34551576859E+03 -0.18799881709E+01 -0.86990153082E+02  0.35630319593E+03  0.00000000000E+00 0.  1.
<mgrwt>
<rscale>  0 0.22732384E+04</rscale>
<asrwt>0</asrwt>
<pdfrwt beam="1">  1        2 0.53814198E+00 0.22732384E+04</pdfrwt>
<pdfrwt beam="2">  1       -1 0.56820674E-01 0.22732384E+04</pdfrwt>
<totfact> 0.26514995E+00</totfact>
</mgrwt>
</event>
<event>
12    6  0.1569942E-007  0.1889938E+04  0.7818608E-02  0.8659881E-01
         -1   -1    0    0    0  501 -0.00000000000E+00  0.00000000000E+00  0.20009418526E+04  0.20009418526E+04  0.00000000000E+00 0.  1.
          2   -1    0    0  501    0  0.00000000000E+00 -0.00000000000E+00 -0.44627319092E+03  0.44627319092E+03  0.00000000000E+00 0. -1.
         24    2    1    2    0    0  0.33273280395E+03  0.37096339327E+03  0.12470592039E+04  0.13454203550E+04  0.81696484576E+02 0.  0.
        254    2    1    2    0    0 -0.33273280395E+03 -0.37096339327E+03  0.30760945772E+03  0.11017946885E+04  0.93327541441E+03 0.  0.
         23    2    4    4    0    0 -0.64250383139E+03 -0.14870565766E+03  0.17935856385E+03  0.68926318850E+03  0.89385136488E+02 0.  0.
         23    2    4    4    0    0  0.30977102745E+03 -0.22225773561E+03  0.12825089387E+03  0.41253149999E+03  0.91527898597E+02 0.  0.
          4    1    3    3  502    0  0.26316054552E+03  0.30878539676E+03  0.10856561037E+04  0.11589870877E+04  0.00000000000E+00 0. -1.
         -3    1    3    3    0  502  0.69572258424E+02  0.62177996505E+02  0.16140310023E+03  0.18643326730E+03  0.00000000000E+00 0.  1.
         11    1    5    5    0    0 -0.78611002836E+02 -0.19763599792E+02  0.53972736552E+02  0.97382472420E+02  0.00000000000E+00 0. -1.
        -11    1    5    5    0    0 -0.56389282855E+03 -0.12894205787E+03  0.12538582730E+03  0.59188071608E+03  0.00000000000E+00 0.  1.
          2    1    6    6  503    0  0.42532548889E+02 -0.20714873318E+02  0.49908973936E+02  0.68767938539E+02  0.00000000000E+00 0. -1.
         -2    1    6    6    0  503  0.26723847856E+03 -0.20154286229E+03  0.78341919938E+02  0.34376356145E+03  0.00000000000E+00 0.  1.
<mgrwt>
<rscale>  0 0.18899383E+04</rscale>
<asrwt>0</asrwt>
<pdfrwt beam="1">  1        2 0.68657415E-01 0.18899383E+04</pdfrwt>
<pdfrwt beam="2">  1       -1 0.30783720E+00 0.18899383E+04</pdfrwt>
<totfact> 0.22117086E+00</totfact>
</mgrwt>
</event>
<event>
12    6  0.2111300E-007  0.1405489E+04  0.7818608E-02  0.8949855E-01
          2   -1    0    0  501    0  0.00000000000E+00  0.00000000000E+00  0.90755148164E+03  0.90755148164E+03  0.00000000000E+00 0. -1.
         -1   -1    0    0    0  501 -0.00000000000E+00 -0.00000000000E+00 -0.54415637328E+03  0.54415637328E+03  0.00000000000E+00 0.  1.
         24    2    1    2    0    0 -0.19933104992E+03 -0.13813161491E+03  0.44335981994E+03  0.51180350547E+03  0.81004245385E+02 0.  0.
        254    2    1    2    0    0  0.19933104992E+03  0.13813161491E+03 -0.79964711583E+02  0.93990434946E+03  0.90455106021E+03 0.  0.
         23    2    4    4    0    0 -0.27391568172E+03 -0.17701787959E+03  0.68383483674E+02  0.34519040373E+03  0.90083203753E+02 0.  0.
         23    2    4    4    0    0  0.47324673165E+03  0.31514949450E+03 -0.14834819526E+03  0.59471394572E+03  0.91628692578E+02 0.  0.
          4    1    3    3  502    0 -0.18406019880E+03 -0.13926235338E+03  0.43884392138E+03  0.49583883186E+03  0.00000000000E+00 0. -1.
         -1    1    3    3    0  502 -0.15270851127E+02  0.11307384689E+01  0.45158985641E+01  0.15964673609E+02  0.00000000000E+00 0.  1.
         11    1    5    5    0    0 -0.21504909305E+03 -0.12097862891E+03  0.87320613392E+02  0.26173809543E+03  0.00000000000E+00 0. -1.
        -11    1    5    5    0    0 -0.58866588675E+02 -0.56039250684E+02 -0.18937129718E+02  0.83452308305E+02  0.00000000000E+00 0.  1.
          4    1    6    6  503    0  0.30355725112E+03  0.16169482848E+03 -0.11955759057E+03  0.36412393458E+03  0.00000000000E+00 0. -1.
         -4    1    6    6    0  503  0.16968948052E+03  0.15345466602E+03 -0.28790604684E+02  0.23059001115E+03  0.00000000000E+00 0.  1.
<mgrwt>
<rscale>  0 0.14054891E+04</rscale>
<asrwt>0</asrwt>
<pdfrwt beam="1">  1        2 0.13962330E+00 0.14054891E+04</pdfrwt>
<pdfrwt beam="2">  1       -1 0.83716365E-01 0.14054891E+04</pdfrwt>
<totfact> 0.45544350E+01</totfact>
</mgrwt>
</event>
<event>
12    6  0.1569942E-007  0.1388703E+04  0.7818608E-02  0.8962037E-01
          2   -1    0    0  501    0  0.00000000000E+00  0.00000000000E+00  0.10485064422E+04  0.10485064422E+04  0.00000000000E+00 0. -1.
         -1   -1    0    0    0  501 -0.00000000000E+00 -0.00000000000E+00 -0.45981995085E+03  0.45981995085E+03  0.00000000000E+00 0.  1.
         24    2    1    2    0    0 -0.13419261938E+03 -0.34625340113E+03  0.20665968381E+02  0.37966852069E+03  0.76302204800E+02 0.  0.
        254    2    1    2    0    0  0.13419261938E+03  0.34625340113E+03  0.56802052299E+03  0.11286578724E+04  0.90184377886E+03 0.  0.
         23    2    4    4    0    0 -0.30481719484E+03  0.27765152262E+03  0.52494611927E+03  0.67349790782E+03  0.89594159550E+02 0.  0.
         23    2    4    4    0    0  0.43900981422E+03  0.68601878516E+02  0.43074403727E+02  0.45515996457E+03  0.88765727455E+02 0.  0.
          4    1    3    3  502    0 -0.85928178685E+02 -0.16608257572E+03  0.42817564949E+02  0.19183434968E+03  0.00000000000E+00 0. -1.
         -3    1    3    3    0  502 -0.48264440695E+02 -0.18017082541E+03 -0.22151596568E+02  0.18783417100E+03  0.00000000000E+00 0.  1.
         11    1    5    5    0    0 -0.13571912760E+03  0.10993558048E+03  0.15500215830E+03  0.23351912669E+03  0.00000000000E+00 0.  1.
        -11    1    5    5    0    0 -0.16909806724E+03  0.16771594213E+03  0.36994396096E+03  0.43997878113E+03  0.00000000000E+00 0. -1.
          2    1    6    6  503    0  0.18730559166E+03  0.40824220321E+02 -0.23988738584E+02  0.19319798449E+03  0.00000000000E+00 0. -1.
         -2    1    6    6    0  503  0.25170422256E+03  0.27777658195E+02  0.67063142311E+02  0.26196198007E+03  0.00000000000E+00 0.  1.
<mgrwt>
<rscale>  0 0.13887033E+04</rscale>
<asrwt>0</asrwt>
<pdfrwt beam="1">  1        2 0.16130868E+00 0.13887033E+04</pdfrwt>
<pdfrwt beam="2">  1       -1 0.70741531E-01 0.13887033E+04</pdfrwt>
<totfact> 0.52634912E+01</totfact>
</mgrwt>
</event>
<event>
12    6  0.1569942E-007  0.3908557E+04  0.7818608E-02  0.8023252E-01
         -1   -1    0    0    0  501 -0.00000000000E+00  0.00000000000E+00  0.25743825552E+04  0.25743825552E+04  0.00000000000E+00 0.  1.
          2   -1    0    0  501    0  0.00000000000E+00 -0.00000000000E+00 -0.14835419659E+04  0.14835419659E+04  0.00000000000E+00 0. -1.
         24    2    1    2    0    0  0.57777358398E+03  0.17714932413E+03  0.23348266546E+04  0.24130615985E+04  0.79035270964E+02 0.  0.
        254    2    1    2    0    0 -0.57777358398E+03 -0.17714932413E+03 -0.12439860653E+04  0.16448629225E+04  0.89043164017E+03 0.  0.
         23    2    4    4    0    0 -0.56306418916E+03 -0.46255976134E+03 -0.65316468302E+03  0.98237798697E+03  0.86253070817E+02 0.  0.
         23    2    4    4    0    0 -0.14709394814E+02  0.28541043720E+03 -0.59082138227E+03  0.66248493552E+03  0.90226936629E+02 0.  0.
          4    1    3    3  502    0  0.37797826857E+03  0.11638824779E+03  0.13730070802E+04  0.14288324738E+04  0.00000000000E+00 0. -1.
         -3    1    3    3    0  502  0.19979531541E+03  0.60761076346E+02  0.96181957432E+03  0.98422912475E+03  0.00000000000E+00 0.  1.
         11    1    5    5    0    0 -0.52378630295E+03 -0.45400337443E+03 -0.60937871872E+03  0.92293747241E+03  0.00000000000E+00 0. -1.
        -11    1    5    5    0    0 -0.39277886211E+02 -0.85563869096E+01 -0.43785964297E+02  0.59440514563E+02  0.00000000000E+00 0.  1.
          2    1    6    6  503    0  0.23252115329E+02  0.18639457547E+02 -0.48813997850E+02  0.57191753173E+02  0.00000000000E+00 0.  1.
         -2    1    6    6    0  503 -0.37961510143E+02  0.26677097966E+03 -0.54200738442E+03  0.60529318235E+03  0.00000000000E+00 0. -1.
<mgrwt>
<rscale>  0 0.39085571E+04</rscale>
<asrwt>0</asrwt>
<pdfrwt beam="1">  1        2 0.22823723E+00 0.39085571E+04</pdfrwt>
<pdfrwt beam="2">  1       -1 0.39605885E+00 0.39085571E+04</pdfrwt>
<totfact> 0.89278451E-02</totfact>
</mgrwt>
</event>
<event>
12    6  0.1569942E-007  0.3155617E+04  0.7818608E-02  0.8200638E-01
          2   -1    0    0  501    0  0.00000000000E+00  0.00000000000E+00  0.29579914200E+04  0.29579914200E+04  0.00000000000E+00 0. -1.
         -1   -1    0    0    0  501 -0.00000000000E+00 -0.00000000000E+00 -0.84161165747E+03  0.84161165747E+03  0.00000000000E+00 0.  1.
         24    2    1    2    0    0 -0.80339412785E+03  0.13273496839E+03 -0.46828006077E+03  0.94293442754E+03  0.82331177743E+02 0.  0.
        254    2    1    2    0    0  0.80339412785E+03 -0.13273496839E+03  0.25846598233E+04  0.28566686499E+04  0.90389638614E+03 0.  0.
         23    2    4    4    0    0  0.93326011327E+03 -0.14411505199E+03  0.25067840677E+04  0.26802876180E+04  0.90729079917E+02 0.  0.
         23    2    4    4    0    0 -0.12986598542E+03  0.11380083599E+02  0.77875755624E+02  0.17638103196E+03  0.89727112113E+02 0.  0.
          4    1    3    3  502    0 -0.24279125765E+03  0.72454939109E+02 -0.12154213519E+03  0.28101566437E+03  0.00000000000E+00 0. -1.
         -3    1    3    3    0  502 -0.56060287020E+03  0.60280029278E+02 -0.34673792557E+03  0.66191876317E+03  0.00000000000E+00 0.  1.
         11    1    5    5    0    0  0.65357742237E+03 -0.62136175007E+02  0.16880008323E+04  0.18111794944E+04  0.00000000000E+00 0.  1.
        -11    1    5    5    0    0  0.27968269090E+03 -0.81978876978E+02  0.81878323540E+03  0.86910812355E+03  0.00000000000E+00 0. -1.
          3    1    6    6  503    0 -0.63145461463E+02 -0.36766378331E+02  0.53521317864E+02  0.90573988236E+02  0.00000000000E+00 0.  1.
         -3    1    6    6    0  503 -0.66720523957E+02  0.48146461930E+02  0.24354437760E+02  0.85807043721E+02  0.00000000000E+00 0. -1.
<mgrwt>
<rscale>  0 0.31556173E+04</rscale>
<asrwt>0</asrwt>
<pdfrwt beam="1">  1        2 0.45507560E+00 0.31556173E+04</pdfrwt>
<pdfrwt beam="2">  1       -1 0.12947872E+00 0.31556173E+04</pdfrwt>
<totfact> 0.90916308E-01</totfact>
</mgrwt>
</event>
<event>
12    6  0.1569942E-007  0.2934057E+04  0.7818608E-02  0.8262816E-01
          2   -1    0    0  501    0  0.00000000000E+00  0.00000000000E+00  0.20478962586E+04  0.20478962586E+04  0.00000000000E+00 0. -1.
         -1   -1    0    0    0  501 -0.00000000000E+00 -0.00000000000E+00 -0.10509185783E+04  0.10509185783E+04  0.00000000000E+00 0.  1.
         24    2    1    2    0    0  0.11859623393E+04 -0.51393523088E+03  0.78305259232E+03  0.15134066667E+04  0.81192885213E+02 0.  0.
        254    2    1    2    0    0 -0.11859623393E+04  0.51393523088E+03  0.21392508791E+03  0.15854081702E+04  0.89281522797E+03 0.  0.
         23    2    4    4    0    0 -0.26280189351E+03  0.50288654417E+01 -0.29969786076E+03  0.40916046572E+03  0.92213633727E+02 0.  0.
         23    2    4    4    0    0 -0.92316044578E+03  0.50890636544E+03  0.51362294868E+03  0.11762477045E+04  0.92407962574E+02 0.  0.
          2    1    3    3  502    0  0.11118729302E+04 -0.48061102426E+03  0.75563080251E+03  0.14276646242E+04  0.00000000000E+00 0. -1.
         -1    1    3    3    0  502  0.74089409047E+02 -0.33324206621E+02  0.27421789803E+02  0.85742042405E+02  0.00000000000E+00 0.  1.
         11    1    5    5    0    0 -0.21843482285E+03 -0.14192414776E+02 -0.19224602686E+03  0.29133096525E+03  0.00000000000E+00 0. -1.
        -11    1    5    5    0    0 -0.44367070656E+02  0.19221280217E+02 -0.10745183391E+03  0.11782950047E+03  0.00000000000E+00 0.  1.
          4    1    6    6  503    0 -0.89045816399E+01  0.82154117004E+00  0.15143082988E+02  0.17586343181E+02  0.00000000000E+00 0. -1.
         -4    1    6    6    0  503 -0.91425586414E+03  0.50808482427E+03  0.49847986569E+03  0.11586613613E+04  0.00000000000E+00 0.  1.
<mgrwt>
<rscale>  0 0.29340567E+04</rscale>
<asrwt>0</asrwt>
<pdfrwt beam="1">  1        2 0.31506096E+00 0.29340567E+04</pdfrwt>
<pdfrwt beam="2">  1       -1 0.16167978E+00 0.29340567E+04</pdfrwt>
<totfact> 0.17456680E+00</totfact>
</mgrwt>
</event>
<event>
12    6  0.1569942E-007  0.1936740E+04  0.7818608E-02  0.8636782E-01
          2   -1    0    0  501    0  0.00000000000E+00  0.00000000000E+00  0.22386911407E+04  0.22386911407E+04  0.00000000000E+00 0. -1.
         -1   -1    0    0    0  501 -0.00000000000E+00 -0.00000000000E+00 -0.41887870076E+03  0.41887870076E+03  0.00000000000E+00 0.  1.
         24    2    1    2    0    0  0.24394071051E+03 -0.68394406078E+03  0.10175616674E+04  0.12526899209E+04  0.80707759491E+02 0.  0.
        254    2    1    2    0    0 -0.24394071051E+03  0.68394406078E+03  0.80225077255E+03  0.14048799206E+04  0.89598813644E+03 0.  0.
         23    2    4    4    0    0 -0.15614232659E+02 -0.41543293100E+02  0.60513845794E+03  0.61418621047E+03  0.95197155350E+02 0.  0.
         23    2    4    4    0    0 -0.22832647785E+03  0.72548735388E+03  0.19711231461E+03  0.79069371010E+03  0.88760337402E+02 0.  0.
          2    1    3    3  502    0  0.18555346307E+03 -0.46863366903E+03  0.64697243846E+03  0.82013470817E+03  0.00000000000E+00 0. -1.
         -1    1    3    3    0  502  0.58387247434E+02 -0.21531039175E+03  0.37058922895E+03  0.43255521275E+03  0.00000000000E+00 0.  1.
         11    1    5    5    0    0 -0.51673108209E+02 -0.39989674936E+02  0.30735384993E+03  0.31422233097E+03  0.00000000000E+00 0. -1.
        -11    1    5    5    0    0  0.36058875550E+02 -0.15536181647E+01  0.29778460801E+03  0.29996387950E+03  0.00000000000E+00 0.  1.
          3    1    6    6  503    0 -0.10804097452E+03  0.25109332721E+03  0.37462645927E+02  0.27590607275E+03  0.00000000000E+00 0. -1.
         -3    1    6    6    0  503 -0.12028550333E+03  0.47439402668E+03  0.15964966868E+03  0.51478763735E+03  0.00000000000E+00 0.  1.
<mgrwt>
<rscale>  0 0.19367396E+04</rscale>
<asrwt>0</asrwt>
<pdfrwt beam="1">  1        2 0.34441401E+00 0.19367396E+04</pdfrwt>
<pdfrwt beam="2">  1       -1 0.64442878E-01 0.19367396E+04</pdfrwt>
<totfact> 0.12750368E+01</totfact>
</mgrwt>
</event>
<event>
12    6  0.1569942E-007  0.2035218E+04  0.7818608E-02  0.8590330E-01
          2   -1    0    0  501    0  0.00000000000E+00  0.00000000000E+00  0.17264188420E+04  0.17264188420E+04  0.00000000000E+00 0. -1.
         -1   -1    0    0    0  501 -0.00000000000E+00 -0.00000000000E+00 -0.59981300753E+03  0.59981300753E+03  0.00000000000E+00 0.  1.
         24    2    1    2    0    0 -0.38207212469E+03  0.60194553376E+03  0.12775791094E+01  0.71738516443E+03  0.79512941441E+02 0.  0.
        254    2    1    2    0    0  0.38207212469E+03 -0.60194553376E+03  0.11253282554E+04  0.16088466851E+04  0.90205678303E+03 0.  0.
         23    2    4    4    0    0  0.21148335349E+03 -0.21279125842E+03  0.11316498935E+04  0.11743152232E+04  0.91539245466E+02 0.  0.
         23    2    4    4    0    0  0.17058877120E+03 -0.38915427534E+03 -0.63216381334E+01  0.43453146194E+03  0.90752682801E+02 0.  0.
          2    1    3    3  502    0 -0.23982315448E+01 -0.18783987665E+01  0.27628297278E+01  0.41125569385E+01  0.00000000000E+00 0. -1.
         -1    1    3    3    0  502 -0.37967389314E+03  0.60382393252E+03 -0.14852506184E+01  0.71327260749E+03  0.00000000000E+00 0.  1.
         11    1    5    5    0    0  0.19247141439E+03 -0.18280162449E+03  0.10763356385E+04  0.11085847220E+04  0.00000000000E+00 0. -1.
        -11    1    5    5    0    0  0.19011939104E+02 -0.29989633928E+02  0.55314255030E+02  0.65730501148E+02  0.00000000000E+00 0.  1.
          4    1    6    6  503    0  0.12635458198E+03 -0.30337454051E+03  0.33055715296E+02  0.33029422116E+03  0.00000000000E+00 0. -1.
         -4    1    6    6    0  503  0.44234189212E+02 -0.85779734825E+02 -0.39377353429E+02  0.10423724078E+03  0.00000000000E+00 0.  1.
<mgrwt>
<rscale>  0 0.20352184E+04</rscale>
<asrwt>0</asrwt>
<pdfrwt beam="1">  1        2 0.26560290E+00 0.20352184E+04</pdfrwt>
<pdfrwt beam="2">  1       -1 0.92278925E-01 0.20352184E+04</pdfrwt>
<totfact> 0.11429911E+01</totfact>
</mgrwt>
</event>
<event>
12    6  0.1569942E-007  0.1561000E+04  0.7818608E-02  0.8844872E-01
         -1   -1    0    0    0  501 -0.00000000000E+00  0.00000000000E+00  0.59532224209E+03  0.59532224209E+03  0.00000000000E+00 0.  1.
          2   -1    0    0  501    0  0.00000000000E+00 -0.00000000000E+00 -0.10232780491E+04  0.10232780491E+04  0.00000000000E+00 0. -1.
         24    2    1    2    0    0 -0.39212389872E+02 -0.27959060890E+03  0.28583522951E+03  0.40963165520E+03  0.79923678655E+02 0.  0.
        254    2    1    2    0    0  0.39212389872E+02  0.27959060890E+03 -0.71379103656E+03  0.12089686360E+04  0.93402301841E+03 0.  0.
         23    2    4    4    0    0  0.38662625739E+03  0.43088195522E+03 -0.40970307409E+03  0.71469236886E+03  0.88257866255E+02 0.  0.
         23    2    4    4    0    0 -0.34741386751E+03 -0.15129134631E+03 -0.30408796247E+03  0.49427626717E+03  0.90851926558E+02 0.  0.
          4    1    3    3  502    0  0.15551280170E+02 -0.11251388281E+03  0.80018092164E+02  0.13893923569E+03  0.00000000000E+00 0. -1.
         -3    1    3    3    0  502 -0.54763670042E+02 -0.16707672610E+03  0.20581713734E+03  0.27069241952E+03  0.00000000000E+00 0.  1.
         11    1    5    5    0    0  0.27516051875E+03  0.35846986505E+03 -0.30083230635E+03  0.54287570564E+03  0.00000000000E+00 0. -1.
        -11    1    5    5    0    0  0.11146573864E+03  0.72412090162E+02 -0.10887076774E+03  0.17181666322E+03  0.00000000000E+00 0.  1.
          3    1    6    6  503    0 -0.17746154326E+03 -0.89692973174E+02 -0.21463190514E+03  0.29258209699E+03  0.00000000000E+00 0. -1.
         -3    1    6    6    0  503 -0.16995232426E+03 -0.61598373136E+02 -0.89456057327E+02  0.20169417018E+03  0.00000000000E+00 0.  1.
<mgrwt>
<rscale>  0 0.15609999E+04</rscale>
<asrwt>0</asrwt>
<pdfrwt beam="1">  1        2 0.15742739E+00 0.15609999E+04</pdfrwt>
<pdfrwt beam="2">  1       -1 0.91588039E-01 0.15609999E+04</pdfrwt>
<totfact> 0.31038694E+01</totfact>
</mgrwt>
</event>
<event>
12    6  0.1569942E-007  0.1655045E+04  0.7818608E-02  0.8787427E-01
         -1   -1    0    0    0  501 -0.00000000000E+00  0.00000000000E+00  0.20639995533E+03  0.20639995533E+03  0.00000000000E+00 0.  1.
          2   -1    0    0  501    0  0.00000000000E+00 -0.00000000000E+00 -0.33178005819E+04  0.33178005819E+04  0.00000000000E+00 0. -1.
         24    2    1    2    0    0 -0.36143743415E+02 -0.41880349275E+03 -0.19152720058E+04  0.19624975953E+04  0.80169941821E+02 0.  0.
        254    2    1    2    0    0  0.36143743415E+02  0.41880349275E+03 -0.11961286208E+04  0.15617029419E+04  0.91186055169E+03 0.  0.
         23    2    4    4    0    0 -0.39542057251E+03  0.15770728092E+02 -0.51787849085E+03  0.65797701590E+03  0.90163613140E+02 0.  0.
         23    2    4    4    0    0  0.43156431593E+03  0.40303276466E+03 -0.67825012991E+03  0.90372592604E+03  0.89521743142E+02 0.  0.
          4    1    3    3  502    0 -0.61576566948E+02 -0.30044077386E+03 -0.13467375648E+04  0.13812162758E+04  0.00000000000E+00 0. -1.
         -3    1    3    3    0  502  0.25432823533E+02 -0.11836271889E+03 -0.56853444100E+03  0.58128131945E+03  0.00000000000E+00 0.  1.
         11    1    5    5    0    0 -0.67118023209E+02  0.31162131059E+02 -0.65582814000E+02  0.98878779036E+02  0.00000000000E+00 0. -1.
        -11    1    5    5    0    0 -0.32830254931E+03 -0.15391402967E+02 -0.45229567685E+03  0.55909823686E+03  0.00000000000E+00 0.  1.
          1    1    6    6  503    0  0.14274144522E+03  0.17440046604E+03 -0.30590472853E+03  0.37995834729E+03  0.00000000000E+00 0. -1.
         -1    1    6    6    0  503  0.28882287071E+03  0.22863229862E+03 -0.37234540138E+03  0.52376757875E+03  0.00000000000E+00 0.  1.
<mgrwt>
<rscale>  0 0.16550455E+04</rscale>
<asrwt>0</asrwt>
<pdfrwt beam="1">  1        2 0.51043086E+00 0.16550455E+04</pdfrwt>
<pdfrwt beam="2">  1       -1 0.31753839E-01 0.16550455E+04</pdfrwt>
<totfact> 0.10969284E+01</totfact>
</mgrwt>
</event>
<event>
12    6  0.1569942E-007  0.1068612E+04  0.7818608E-02  0.9236336E-01
         -1   -1    0    0    0  501 -0.00000000000E+00  0.00000000000E+00  0.18436904840E+03  0.18436904840E+03  0.00000000000E+00 0.  1.
          2   -1    0    0  501    0  0.00000000000E+00 -0.00000000000E+00 -0.15484323799E+04  0.15484323799E+04  0.00000000000E+00 0. -1.
         24    2    1    2    0    0  0.12333746856E+03 -0.73032793699E+01 -0.16875382696E+03  0.22384207315E+03  0.79761836450E+02 0.  0.
        254    2    1    2    0    0 -0.12333746856E+03  0.73032793699E+01 -0.11953095046E+04  0.15089593552E+04  0.91264892201E+03 0.  0.
         23    2    4    4    0    0  0.41069194003E+02 -0.12872428838E+03 -0.12564590954E+04  0.12668763765E+04  0.89608447077E+02 0.  0.
         23    2    4    4    0    0 -0.16440666257E+03  0.13602756775E+03  0.61149590802E+02  0.24208297872E+03  0.96601481598E+02 0.  0.
          2    1    3    3  502    0  0.13181890245E+03 -0.17361581066E+02 -0.14530857420E+03  0.19695743011E+03  0.00000000000E+00 0. -1.
         -1    1    3    3    0  502 -0.84814338881E+01  0.10058301696E+02 -0.23445252766E+02  0.26884643035E+02  0.00000000000E+00 0.  1.
         11    1    5    5    0    0 -0.71091979840E+01 -0.71548327058E+01 -0.43144936651E+03  0.43156724642E+03  0.00000000000E+00 0. -1.
        -11    1    5    5    0    0  0.48178391987E+02 -0.12156945568E+03 -0.82500972886E+03  0.83530913003E+03  0.00000000000E+00 0.  1.
          1    1    6    6  503    0 -0.10605623010E+03  0.50681998267E+02  0.72454963827E+02  0.13808081211E+03  0.00000000000E+00 0. -1.
         -1    1    6    6    0  503 -0.58350432470E+02  0.85345569485E+02 -0.11305373025E+02  0.10400216661E+03  0.00000000000E+00 0.  1.
<mgrwt>
<rscale>  0 0.10686122E+04</rscale>
<asrwt>0</asrwt>
<pdfrwt beam="1">  1        2 0.23822036E+00 0.10686122E+04</pdfrwt>
<pdfrwt beam="2">  1       -1 0.28364470E-01 0.10686122E+04</pdfrwt>
<totfact> 0.15197107E+02</totfact>
</mgrwt>
</event>
<event>
12    6  0.1569942E-007  0.1306968E+04  0.7818608E-02  0.9024058E-01
         -1   -1    0    0    0  501 -0.00000000000E+00  0.00000000000E+00  0.27918198072E+03  0.27918198072E+03  0.00000000000E+00 0.  1.
          2   -1    0    0  501    0  0.00000000000E+00 -0.00000000000E+00 -0.15296161406E+04  0.15296161406E+04  0.00000000000E+00 0. -1.
         24    2    1    2    0    0  0.12118874454E+03 -0.29859041819E+03 -0.47507449984E+03  0.57963061910E+03  0.80205514518E+02 0.  0.
        254    2    1    2    0    0 -0.12118874454E+03  0.29859041819E+03 -0.77535966001E+03  0.12291675022E+04  0.89767878245E+03 0.  0.
         23    2    4    4    0    0  0.87083873126E+02 -0.17133866691E+03 -0.66118718593E+03  0.69480312377E+03  0.92964220124E+02 0.  0.
         23    2    4    4    0    0 -0.20827261767E+03  0.46992908510E+03 -0.11417247408E+03  0.53436437843E+03  0.91099433631E+02 0.  0.
          2    1    3    3  502    0  0.83870124654E+02 -0.27543923004E+03 -0.41936930779E+03  0.50869596378E+03  0.00000000000E+00 0. -1.
         -1    1    3    3    0  502  0.37318619890E+02 -0.23151188152E+02 -0.55705192056E+02  0.70934655319E+02  0.00000000000E+00 0.  1.
         11    1    5    5    0    0  0.57319320869E+02 -0.22354657385E+02 -0.19738828841E+03  0.20675437517E+03  0.00000000000E+00 0. -1.
        -11    1    5    5    0    0  0.29764552257E+02 -0.14898400952E+03 -0.46379889752E+03  0.48804874859E+03  0.00000000000E+00 0.  1.
          2    1    6    6  503    0 -0.66943280903E+02  0.72550688552E+02 -0.38002477717E+02  0.10577898459E+03  0.00000000000E+00 0. -1.
         -2    1    6    6    0  503 -0.14132933677E+03  0.39737839655E+03 -0.76169996361E+02  0.42858539385E+03  0.00000000000E+00 0.  1.
<mgrwt>
<rscale>  0 0.13069679E+04</rscale>
<asrwt>0</asrwt>
<pdfrwt beam="1">  1        2 0.23532556E+00 0.13069679E+04</pdfrwt>
<pdfrwt beam="2">  1       -1 0.42951074E-01 0.13069679E+04</pdfrwt>
<totfact> 0.72813928E+01</totfact>
</mgrwt>
</event>
<event>
12    6  0.1569942E-007  0.1241739E+04  0.7818608E-02  0.9077087E-01
          2   -1    0    0  501    0  0.00000000000E+00  0.00000000000E+00  0.10701263503E+04  0.10701263503E+04  0.00000000000E+00 0. -1.
         -1   -1    0    0    0  501 -0.00000000000E+00 -0.00000000000E+00 -0.36021789228E+03  0.36021789228E+03  0.00000000000E+00 0.  1.
         24    2    1    2    0    0  0.14446506418E+02 -0.19342629143E+03  0.42630136829E+03  0.47514694999E+03  0.80058326958E+02 0.  0.
        254    2    1    2    0    0 -0.14446506418E+02  0.19342629143E+03  0.28360708977E+03  0.95519729262E+03  0.89126115965E+03 0.  0.
         23    2    4    4    0    0  0.51167694671E+02  0.52405741360E+03  0.54478325695E+02  0.53749526433E+03  0.93160965416E+02 0.  0.
         23    2    4    4    0    0 -0.65614201089E+02 -0.33063112217E+03  0.22912876407E+03  0.41770202829E+03  0.91393826842E+02 0.  0.
          2    1    3    3  502    0  0.27593733517E+02 -0.16749289323E+03  0.40490175344E+03  0.43904522928E+03  0.00000000000E+00 0. -1.
         -1    1    3    3    0  502 -0.13147227099E+02 -0.25933398205E+02  0.21399614848E+02  0.36101720714E+02  0.00000000000E+00 0.  1.
         11    1    5    5    0    0 -0.14717685885E+02  0.30957023647E+03  0.20967923033E+02  0.31062838792E+03  0.00000000000E+00 0.  1.
        -11    1    5    5    0    0  0.65885380556E+02  0.21448717713E+03  0.33510402662E+02  0.22686687641E+03  0.00000000000E+00 0. -1.
          1    1    6    6  503    0 -0.65917428485E+02 -0.29875611732E+03  0.23437279568E+03  0.38539710997E+03  0.00000000000E+00 0. -1.
         -1    1    6    6    0  503  0.30322739552E+00 -0.31875004845E+02 -0.52440316054E+01  0.32304918328E+02  0.00000000000E+00 0.  1.
<mgrwt>
<rscale>  0 0.12417386E+04</rscale>
<asrwt>0</asrwt>
<pdfrwt beam="1">  1        2 0.16463482E+00 0.12417386E+04</pdfrwt>
<pdfrwt beam="2">  1       -1 0.55418138E-01 0.12417386E+04</pdfrwt>
<totfact> 0.84000461E+01</totfact>
</mgrwt>
</event>
<event>
12    6  0.1569942E-007  0.2808488E+04  0.7818608E-02  0.8300638E-01
          2   -1    0    0  501    0  0.00000000000E+00  0.00000000000E+00  0.15312508760E+04  0.15312508760E+04  0.00000000000E+00 0. -1.
         -1   -1    0    0    0  501 -0.00000000000E+00 -0.00000000000E+00 -0.12877716794E+04  0.12877716794E+04  0.00000000000E+00 0.  1.
         24    2    1    2    0    0 -0.39652073037E+02  0.92522452245E+03 -0.74275931893E+03  0.11898131233E+04  0.79694156505E+02 0.  0.
        254    2    1    2    0    0  0.39652073037E+02 -0.92522452245E+03  0.98623851561E+03  0.16292094321E+04  0.90776883635E+03 0.  0.
         23    2    4    4    0    0  0.10434403567E+03 -0.85448659622E+03  0.27776607687E+03  0.90913383067E+03  0.91297906371E+02 0.  0.
         23    2    4    4    0    0 -0.64691962634E+02 -0.70737926226E+02  0.70847243875E+03  0.72007560147E+03  0.85946327016E+02 0.  0.
          2    1    3    3  502    0  0.97700207993E+01  0.46886795770E+03 -0.34154301289E+03  0.58015880992E+03  0.00000000000E+00 0. -1.
         -1    1    3    3    0  502 -0.49422093837E+02  0.45635656475E+03 -0.40121630604E+03  0.60965431334E+03  0.00000000000E+00 0.  1.
         11    1    5    5    0    0  0.54777293679E+02 -0.45167634666E+03  0.19458490356E+03  0.49484882411E+03  0.00000000000E+00 0.  1.
        -11    1    5    5    0    0  0.49566741993E+02 -0.40281024956E+03  0.83181173311E+02  0.41428500656E+03  0.00000000000E+00 0. -1.
          1    1    6    6  503    0 -0.19566245586E+02 -0.26260549984E+02  0.58666265848E+02  0.67187686374E+02  0.00000000000E+00 0. -1.
         -1    1    6    6    0  503 -0.45125717049E+02 -0.44477376243E+02  0.64980617290E+03  0.65288791509E+03  0.00000000000E+00 0.  1.
<mgrwt>
<rscale>  0 0.28084882E+04</rscale>
<asrwt>0</asrwt>
<pdfrwt beam="1">  1        2 0.23557706E+00 0.28084882E+04</pdfrwt>
<pdfrwt beam="2">  1       -1 0.19811872E+00 0.28084882E+04</pdfrwt>
<totfact> 0.18717052E+00</totfact>
</mgrwt>
</event>
<event>
12    6  0.1569942E-007  0.1557765E+04  0.7818608E-02  0.8846923E-01
          2   -1    0    0  501    0  0.00000000000E+00  0.00000000000E+00  0.11453813722E+04  0.11453813722E+04  0.00000000000E+00 0. -1.
         -1   -1    0    0    0  501 -0.00000000000E+00 -0.00000000000E+00 -0.52965556090E+03  0.52965556090E+03  0.00000000000E+00 0.  1.
         24    2    1    2    0    0  0.47432157735E+03  0.20865074765E+03  0.28542584103E+03  0.59706894662E+03  0.80667980335E+02 0.  0.
        254    2    1    2    0    0 -0.47432157735E+03 -0.20865074765E+03  0.33029997027E+03  0.10779679865E+04  0.88566405383E+03 0.  0.
         23    2    4    4    0    0 -0.47432916632E+03 -0.10451726169E+03  0.59865525892E+03  0.77634094011E+03  0.91679442837E+02 0.  0.
         23    2    4    4    0    0  0.75889644270E-02 -0.10413348596E+03 -0.26835528865E+03  0.30162704636E+03  0.90113990011E+02 0.  0.
          4    1    3    3  502    0  0.74759818273E+02  0.15536111449E+02  0.16360497915E+02  0.78090121522E+02  0.00000000000E+00 0. -1.
         -3    1    3    3    0  502  0.39956175908E+03  0.19311463620E+03  0.26906534312E+03  0.51897882510E+03  0.00000000000E+00 0.  1.
         11    1    5    5    0    0 -0.33687525948E+03 -0.77293649829E+02  0.35631902097E+03  0.49640960250E+03  0.00000000000E+00 0.  1.
        -11    1    5    5    0    0 -0.13745390684E+03 -0.27223611863E+02  0.24233623795E+03  0.27993133760E+03  0.00000000000E+00 0. -1.
          4    1    6    6  503    0  0.77663364074E+01 -0.85327986129E+02 -0.26791176247E+03  0.28127903169E+03  0.00000000000E+00 0. -1.
         -4    1    6    6    0  503 -0.77587474430E+01 -0.18805499829E+02 -0.44352618035E+00  0.20348014674E+02  0.00000000000E+00 0.  1.
<mgrwt>
<rscale>  0 0.15577646E+04</rscale>
<asrwt>0</asrwt>
<pdfrwt beam="1">  1        2 0.17621252E+00 0.15577646E+04</pdfrwt>
<pdfrwt beam="2">  1       -1 0.81485471E-01 0.15577646E+04</pdfrwt>
<totfact> 0.33626156E+01</totfact>
</mgrwt>
</event>
<event>
12    6  0.1569942E-007  0.1943795E+04  0.7818608E-02  0.8633359E-01
         -1   -1    0    0    0  501 -0.00000000000E+00  0.00000000000E+00  0.85088773198E+03  0.85088773198E+03  0.00000000000E+00 0.  1.
          2   -1    0    0  501    0  0.00000000000E+00 -0.00000000000E+00 -0.11101166113E+04  0.11101166113E+04  0.00000000000E+00 0. -1.
         24    2    1    2    0    0  0.47373756916E+03  0.34871121721E+02  0.49865379603E+03  0.69353839976E+03  0.81832903470E+02 0.  0.
        254    2    1    2    0    0 -0.47373756916E+03 -0.34871121721E+02 -0.75788267530E+03  0.12674659435E+04  0.89802031645E+03 0.  0.
         23    2    4    4    0    0 -0.61121836476E+02  0.15125961068E+03  0.15506261268E+03  0.24426624990E+03  0.94901202689E+02 0.  0.
         23    2    4    4    0    0 -0.41261573268E+03 -0.18613073241E+03 -0.91294528798E+03  0.10231996936E+04  0.92585753050E+02 0.  0.
          4    1    3    3  502    0  0.12229935803E+03 -0.62992858805E+01  0.17776169448E+03  0.21586114519E+03  0.00000000000E+00 0. -1.
         -3    1    3    3    0  502  0.35143821113E+03  0.41170407602E+02  0.32089210155E+03  0.47767725457E+03  0.00000000000E+00 0.  1.
         11    1    5    5    0    0 -0.23947355045E+02  0.14291240344E+03  0.14470092905E+03  0.20478229840E+03  0.00000000000E+00 0.  1.
        -11    1    5    5    0    0 -0.37174481431E+02  0.83472072410E+01  0.10361683632E+02  0.39483951500E+02  0.00000000000E+00 0. -1.
          1    1    6    6  503    0 -0.37483197736E+03 -0.17917027396E+03 -0.87770909404E+03  0.97106861348E+03  0.00000000000E+00 0. -1.
         -1    1    6    6    0  503 -0.37783755319E+02 -0.69604584504E+01 -0.35236193943E+02  0.52131080091E+02  0.00000000000E+00 0.  1.
<mgrwt>
<rscale>  0 0.19437949E+04</rscale>
<asrwt>0</asrwt>
<pdfrwt beam="1">  1        2 0.17078717E+00 0.19437949E+04</pdfrwt>
<pdfrwt beam="2">  1       -1 0.13090581E+00 0.19437949E+04</pdfrwt>
<totfact> 0.11390966E+01</totfact>
</mgrwt>
</event>
<event>
12    6  0.1569942E-007  0.3899255E+04  0.7818608E-02  0.8025184E-01
         -1   -1    0    0    0  501 -0.00000000000E+00  0.00000000000E+00  0.14744052467E+04  0.14744052467E+04  0.00000000000E+00 0.  1.
          2   -1    0    0  501    0  0.00000000000E+00 -0.00000000000E+00 -0.25780208407E+04  0.25780208407E+04  0.00000000000E+00 0. -1.
         24    2    1    2    0    0  0.99697203108E+02 -0.18469690274E+04 -0.53500287519E+03  0.19269825915E+04  0.76155833505E+02 0.  0.
        254    2    1    2    0    0 -0.99697203108E+02  0.18469690274E+04 -0.56861271882E+03  0.21254434959E+04  0.87917888399E+03 0.  0.
         23    2    4    4    0    0  0.32819598872E+03  0.13133460876E+04 -0.41607693965E+03  0.14190940365E+04  0.90096125667E+02 0.  0.
         23    2    4    4    0    0 -0.42789319183E+03  0.53362293975E+03 -0.15253577917E+03  0.70634945944E+03  0.88410234014E+02 0.  0.
          4    1    3    3  502    0 -0.26246356157E+01 -0.28538650090E+01  0.63320623451E+00  0.39286394261E+01  0.00000000000E+00 0. -1.
         -3    1    3    3    0  502  0.10232183872E+03 -0.18441151624E+04 -0.53563608142E+03  0.19230539520E+04  0.00000000000E+00 0.  1.
         11    1    5    5    0    0  0.24722677548E+03  0.10557023854E+04 -0.29895191600E+03  0.11247225672E+04  0.00000000000E+00 0.  1.
        -11    1    5    5    0    0  0.80969213237E+02  0.25764370224E+03 -0.11712502365E+03  0.29437146934E+03  0.00000000000E+00 0. -1.
          3    1    6    6  503    0 -0.85793187290E+02  0.15985675706E+03 -0.61382584433E+02  0.19152669640E+03  0.00000000000E+00 0. -1.
         -3    1    6    6    0  503 -0.34210000454E+03  0.37376618270E+03 -0.91153194739E+02  0.51482276304E+03  0.00000000000E+00 0.  1.
<mgrwt>
<rscale>  0 0.38992550E+04</rscale>
<asrwt>0</asrwt>
<pdfrwt beam="1">  1        2 0.39661858E+00 0.38992550E+04</pdfrwt>
<pdfrwt beam="2">  1       -1 0.22683158E+00 0.38992550E+04</pdfrwt>
<totfact> 0.28070777E-01</totfact>
</mgrwt>
</event>
<event>
12    6  0.1569942E-007  0.1306190E+04  0.7818608E-02  0.9024671E-01
         -1   -1    0    0    0  501 -0.00000000000E+00  0.00000000000E+00  0.24362397510E+03  0.24362397510E+03  0.00000000000E+00 0.  1.
          2   -1    0    0  501    0  0.00000000000E+00 -0.00000000000E+00 -0.17507835696E+04  0.17507835696E+04  0.00000000000E+00 0. -1.
         24    2    1    2    0    0 -0.24166839776E+03 -0.13567494744E+03 -0.11797795559E+03  0.31115677123E+03  0.78028407914E+02 0.  0.
        254    2    1    2    0    0  0.24166839776E+03  0.13567494744E+03 -0.13891816389E+04  0.16832507735E+04  0.90922837322E+03 0.  0.
         23    2    4    4    0    0  0.48490226340E+03  0.35691185785E+03 -0.87333488588E+03  0.10647125606E+04  0.91557273891E+02 0.  0.
         23    2    4    4    0    0 -0.24323386565E+03 -0.22123691041E+03 -0.51584675304E+03  0.61853821291E+03  0.91559621496E+02 0.  0.
          2    1    3    3  502    0 -0.24572425668E+02 -0.30511085954E+02 -0.43842996745E+02  0.58795738220E+02  0.00000000000E+00 0. -1.
         -1    1    3    3    0  502 -0.21709597209E+03 -0.10516386148E+03 -0.74134958845E+02  0.25236103301E+03  0.00000000000E+00 0.  1.
         11    1    5    5    0    0  0.26942508710E+03  0.14162310284E+03 -0.43059703887E+03  0.52731469798E+03  0.00000000000E+00 0.  1.
        -11    1    5    5    0    0  0.21547717630E+03  0.21528875500E+03 -0.44273784701E+03  0.53739786258E+03  0.00000000000E+00 0. -1.
          4    1    6    6  503    0 -0.33110104933E+02 -0.74301374626E+02 -0.16527032427E+03  0.18420437944E+03  0.00000000000E+00 0. -1.
         -4    1    6    6    0  503 -0.21012376071E+03 -0.14693553578E+03 -0.35057642876E+03  0.43433383347E+03  0.00000000000E+00 0.  1.
<mgrwt>
<rscale>  0 0.13061897E+04</rscale>
<asrwt>0</asrwt>
<pdfrwt beam="1">  1        2 0.26935133E+00 0.13061897E+04</pdfrwt>
<pdfrwt beam="2">  1       -1 0.37480610E-01 0.13061897E+04</pdfrwt>
<totfact> 0.70342322E+01</totfact>
</mgrwt>
</event>
<event>
12    6  0.1569942E-007  0.1440803E+04  0.7818608E-02  0.8924801E-01
          2   -1    0    0  501    0  0.00000000000E+00  0.00000000000E+00  0.73504661168E+03  0.73504661168E+03  0.00000000000E+00 0. -1.
         -1   -1    0    0    0  501 -0.00000000000E+00 -0.00000000000E+00 -0.70604858351E+03  0.70604858351E+03  0.00000000000E+00 0.  1.
         24    2    1    2    0    0  0.14914419681E+03  0.45688765250E+02 -0.39771690073E+03  0.43528718376E+03  0.83455044822E+02 0.  0.
        254    2    1    2    0    0 -0.14914419681E+03 -0.45688765250E+02  0.42671492890E+03  0.10058080114E+04  0.89734757514E+03 0.  0.
         23    2    4    4    0    0  0.11545411562E+03 -0.14695115971E+03  0.61955255236E+03  0.65235907636E+03  0.82478501563E+02 0.  0.
         23    2    4    4    0    0 -0.26459831243E+03  0.10126239446E+03 -0.19283762346E+03  0.35344893508E+03  0.86449182857E+02 0.  0.
          4    1    3    3  502    0  0.76712980426E+02  0.39187136266E+02 -0.11692399331E+03  0.14522993227E+03  0.00000000000E+00 0. -1.
         -3    1    3    3    0  502  0.72431216388E+02  0.65016289839E+01 -0.28079290742E+03  0.29005725149E+03  0.00000000000E+00 0.  1.
         11    1    5    5    0    0  0.11937270353E+03 -0.12840046578E+03  0.60014027718E+03  0.62522385932E+03  0.00000000000E+00 0.  1.
        -11    1    5    5    0    0 -0.39185879126E+01 -0.18550693927E+02  0.19412275174E+02  0.27135217041E+02  0.00000000000E+00 0. -1.
          4    1    6    6  503    0 -0.77054604122E+02 -0.65467812077E+01 -0.31115813697E+02  0.83357460509E+02  0.00000000000E+00 0. -1.
         -4    1    6    6    0  503 -0.18754370831E+03  0.10780917567E+03 -0.16172180976E+03  0.27009147457E+03  0.00000000000E+00 0.  1.
<mgrwt>
<rscale>  0 0.14408034E+04</rscale>
<asrwt>0</asrwt>
<pdfrwt beam="1">  1        2 0.11308409E+00 0.14408034E+04</pdfrwt>
<pdfrwt beam="2">  1       -1 0.10862286E+00 0.14408034E+04</pdfrwt>
<totfact> 0.33552514E+01</totfact>
</mgrwt>
</event>
<event>
12    6  0.1569942E-007  0.1424379E+04  0.7818608E-02  0.8936359E-01
          2   -1    0    0  501    0  0.00000000000E+00  0.00000000000E+00  0.16517968595E+04  0.16517968595E+04  0.00000000000E+00 0. -1.
         -1   -1    0    0    0  501 -0.00000000000E+00 -0.00000000000E+00 -0.30706777437E+03  0.30706777437E+03  0.00000000000E+00 0.  1.
         24    2    1    2    0    0  0.13175981963E+03 -0.33205673832E+03  0.72532083189E+02  0.37382833188E+03  0.82851620903E+02 0.  0.
        254    2    1    2    0    0 -0.13175981963E+03  0.33205673832E+03  0.12721970019E+04  0.15850363020E+04  0.87534709650E+03 0.  0.
         23    2    4    4    0    0 -0.10154314179E+03  0.38999771142E+03  0.13731901314E+04  0.14337688199E+04  0.87365138011E+02 0.  0.
         23    2    4    4    0    0 -0.30216677839E+02 -0.57940973099E+02 -0.10099312945E+03  0.15126748212E+03  0.91717146536E+02 0.  0.
          4    1    3    3  502    0  0.40122758304E+02 -0.12066641184E+03  0.66157123334E+02  0.14334219074E+03  0.00000000000E+00 0. -1.
         -3    1    3    3    0  502  0.91637061329E+02 -0.21139032649E+03  0.63749598557E+01  0.23048614113E+03  0.00000000000E+00 0.  1.
         11    1    5    5    0    0 -0.20093420666E+02  0.19100650642E+03  0.76310061510E+03  0.78689883709E+03  0.00000000000E+00 0.  1.
        -11    1    5    5    0    0 -0.81449721128E+02  0.19899120501E+03  0.61008951628E+03  0.64686998278E+03  0.00000000000E+00 0. -1.
          1    1    6    6  503    0  0.18554862180E+02 -0.45099580030E+02 -0.85634354541E+02  0.98546931495E+02  0.00000000000E+00 0. -1.
         -1    1    6    6    0  503 -0.48771540019E+02 -0.12841393068E+02 -0.15358774906E+02  0.52720550626E+02  0.00000000000E+00 0.  1.
<mgrwt>
<rscale>  0 0.14243786E+04</rscale>
<asrwt>0</asrwt>
<pdfrwt beam="1">  1        2 0.25412259E+00 0.14243786E+04</pdfrwt>
<pdfrwt beam="2">  1       -1 0.47241197E-01 0.14243786E+04</pdfrwt>
<totfact> 0.51618496E+01</totfact>
</mgrwt>
</event>
<event>
12    6  0.1569942E-007  0.2944239E+04  0.7818608E-02  0.8259835E-01
          2   -1    0    0  501    0  0.00000000000E+00  0.00000000000E+00  0.22537590625E+04  0.22537590625E+04  0.00000000000E+00 0. -1.
         -1   -1    0    0    0  501 -0.00000000000E+00 -0.00000000000E+00 -0.96156494663E+03  0.96156494663E+03  0.00000000000E+00 0.  1.
         24    2    1    2    0    0  0.40021280073E+03 -0.11161844752E+04 -0.76075029020E+02  0.11913125408E+04  0.86023783245E+02 0.  0.
        254    2    1    2    0    0 -0.40021280073E+03  0.11161844752E+04  0.13682691449E+04  0.20240114684E+04  0.90466784116E+03 0.  0.
         23    2    4    4    0    0  0.22537930632E+03  0.68289653672E+03  0.62698586581E+03  0.95824929527E+03  0.89369594207E+02 0.  0.
         23    2    4    4    0    0 -0.62559210706E+03  0.43328793843E+03  0.74128327911E+03  0.10657621731E+04  0.85112794515E+02 0.  0.
          4    1    3    3  502    0  0.23847541617E+03 -0.71597499404E+03 -0.86089482291E+02  0.75954072647E+03  0.00000000000E+00 0. -1.
         -3    1    3    3    0  502  0.16173738456E+03 -0.40020948111E+03  0.10014453271E+02  0.43177181429E+03  0.00000000000E+00 0.  1.
         11    1    5    5    0    0  0.11049187575E+03  0.46658464996E+03  0.40323187984E+03  0.62650270479E+03  0.00000000000E+00 0. -1.
        -11    1    5    5    0    0  0.11488743058E+03  0.21631188676E+03  0.22375398597E+03  0.33174659048E+03  0.00000000000E+00 0.  1.
          1    1    6    6  503    0 -0.11488221891E+03  0.53313283507E+02  0.92376936382E+02  0.15676009950E+03  0.00000000000E+00 0. -1.
         -1    1    6    6    0  503 -0.51070988815E+03  0.37997465493E+03  0.64890634272E+03  0.90900207363E+03  0.00000000000E+00 0.  1.
<mgrwt>
<rscale>  0 0.29442389E+04</rscale>
<asrwt>0</asrwt>
<pdfrwt beam="1">  1        2 0.34673216E+00 0.29442389E+04</pdfrwt>
<pdfrwt beam="2">  1       -1 0.14793307E+00 0.29442389E+04</pdfrwt>
<totfact> 0.17051641E+00</totfact>
</mgrwt>
</event>
<event>
12    6  0.1569942E-007  0.1136430E+04  0.7818608E-02  0.9170395E-01
         -1   -1    0    0    0  501 -0.00000000000E+00  0.00000000000E+00  0.14243170423E+04  0.14243170423E+04  0.00000000000E+00 0.  1.
          2   -1    0    0  501    0  0.00000000000E+00 -0.00000000000E+00 -0.22668287265E+03  0.22668287265E+03  0.00000000000E+00 0. -1.
         24    2    1    2    0    0  0.18431138730E+03 -0.19874531813E+02  0.34069945901E+03  0.39570849132E+03  0.78379871368E+02 0.  0.
        254    2    1    2    0    0 -0.18431138730E+03  0.19874531813E+02  0.85693471063E+03  0.12552914236E+04  0.89836171747E+03 0.  0.
         23    2    4    4    0    0 -0.36194742180E+03  0.13118493474E+03  0.29229548993E+02  0.39658289501E+03  0.90599132613E+02 0.  0.
         23    2    4    4    0    0  0.17763603450E+03 -0.11131040293E+03  0.82770516164E+03  0.85870852860E+03  0.91323249721E+02 0.  0.
          4    1    3    3  502    0  0.36678730854E+02  0.55770469832E+01  0.20957055971E+02  0.42610221134E+02  0.00000000000E+00 0. -1.
         -3    1    3    3    0  502  0.14763265645E+03 -0.25451578796E+02  0.31974240304E+03  0.35309827019E+03  0.00000000000E+00 0.  1.
         11    1    5    5    0    0 -0.11923789699E+03  0.78762116406E+02  0.38852673750E+02  0.14809009865E+03  0.00000000000E+00 0.  1.
        -11    1    5    5    0    0 -0.24270952481E+03  0.52422818334E+02 -0.96231247570E+01  0.24849279636E+03  0.00000000000E+00 0. -1.
          3    1    6    6  503    0  0.18832645295E+03 -0.10920021249E+03  0.79241588712E+03  0.82177519885E+03  0.00000000000E+00 0. -1.
         -3    1    6    6    0  503 -0.10690418453E+02 -0.21101904382E+01  0.35289274517E+02  0.36933329748E+02  0.00000000000E+00 0.  1.
<mgrwt>
<rscale>  0 0.11364300E+04</rscale>
<asrwt>0</asrwt>
<pdfrwt beam="1">  1        2 0.34874289E-01 0.11364300E+04</pdfrwt>
<pdfrwt beam="2">  1       -1 0.21912569E+00 0.11364300E+04</pdfrwt>
<totfact> 0.19070451E+01</totfact>
</mgrwt>
</event>
<event>
12    6  0.1569942E-007  0.2909739E+04  0.7818608E-02  0.8269986E-01
          2   -1    0    0  501    0  0.00000000000E+00  0.00000000000E+00  0.22042828819E+04  0.22042828819E+04  0.00000000000E+00 0. -1.
         -1   -1    0    0    0  501 -0.00000000000E+00 -0.00000000000E+00 -0.96024209914E+03  0.96024209914E+03  0.00000000000E+00 0.  1.
         24    2    1    2    0    0  0.11221719541E+02 -0.50083388529E+03  0.18882216518E+04  0.19550887146E+04  0.77655444466E+02 0.  0.
        254    2    1    2    0    0 -0.11221719541E+02  0.50083388529E+03 -0.64418086907E+03  0.12094362664E+04  0.89264023142E+03 0.  0.
         23    2    4    4    0    0 -0.33424035655E+03  0.12257194428E+03 -0.59638274119E+03  0.70046234708E+03  0.90744852251E+02 0.  0.
         23    2    4    4    0    0  0.32301863701E+03  0.37826194100E+03 -0.47798127880E+02  0.50897391932E+03  0.96678092921E+02 0.  0.
          4    1    3    3  502    0  0.51267913160E+01 -0.50064484354E+03  0.18592512889E+04  0.19254835493E+04  0.00000000000E+00 0. -1.
         -3    1    3    3    0  502  0.60949282248E+01 -0.18904174724E+00  0.28970362882E+02  0.29605165298E+02  0.00000000000E+00 0.  1.
         11    1    5    5    0    0 -0.46661189194E+02  0.43010780853E+02 -0.63778980537E+02  0.89971952323E+02  0.00000000000E+00 0.  1.
        -11    1    5    5    0    0 -0.28757916736E+03  0.79561163432E+02 -0.53260376065E+03  0.61049039476E+03  0.00000000000E+00 0. -1.
          1    1    6    6  503    0  0.28613422937E+03  0.36835765217E+03 -0.56385923232E+02  0.46982925566E+03  0.00000000000E+00 0. -1.
         -1    1    6    6    0  503  0.36884407638E+02  0.99042888264E+01  0.85877953521E+01  0.39144663659E+02  0.00000000000E+00 0.  1.
<mgrwt>
<rscale>  0 0.29097390E+04</rscale>
<asrwt>0</asrwt>
<pdfrwt beam="1">  1        2 0.33912044E+00 0.29097390E+04</pdfrwt>
<pdfrwt beam="2">  1       -1 0.14772955E+00 0.29097390E+04</pdfrwt>
<totfact> 0.18304815E+00</totfact>
</mgrwt>
</event>
<event>
12    6  0.1569942E-007  0.1862609E+04  0.7818608E-02  0.8673696E-01
         -1   -1    0    0    0  501 -0.00000000000E+00  0.00000000000E+00  0.90544673861E+03  0.90544673861E+03  0.00000000000E+00 0.  1.
          2   -1    0    0  501    0  0.00000000000E+00 -0.00000000000E+00 -0.95790043371E+03  0.95790043371E+03  0.00000000000E+00 0. -1.
         24    2    1    2    0    0 -0.57876317037E+03  0.36396185869E+03  0.16929450174E+03  0.70900240655E+03  0.81171067528E+02 0.  0.
        254    2    1    2    0    0  0.57876317037E+03 -0.36396185869E+03 -0.22174819685E+03  0.11543447658E+04  0.90327434010E+03 0.  0.
         23    2    4    4    0    0  0.44581362681E+03 -0.65677376323E+03 -0.16686473173E+03  0.81628251875E+03  0.91497244812E+02 0.  0.
         23    2    4    4    0    0  0.13294954356E+03  0.29281190454E+03 -0.54883465117E+02  0.33806224701E+03  0.88653795972E+02 0.  0.
          4    1    3    3  502    0 -0.16415260027E+03  0.62018005918E+02  0.37619814466E+02  0.17946464742E+03  0.00000000000E+00 0. -1.
         -3    1    3    3    0  502 -0.41461057011E+03  0.30194385277E+03  0.13167468728E+03  0.52953775913E+03  0.00000000000E+00 0.  1.
         11    1    5    5    0    0  0.49994726125E+02 -0.31978608093E+02 -0.15348027115E+02  0.61299803851E+02  0.00000000000E+00 0.  1.
        -11    1    5    5    0    0  0.39581890069E+03 -0.62479515514E+03 -0.15151670462E+03  0.75498271490E+03  0.00000000000E+00 0. -1.
          1    1    6    6  503    0  0.75874109216E+02  0.17673418199E+03 -0.76367771179E+02  0.20693933413E+03  0.00000000000E+00 0. -1.
         -1    1    6    6    0  503  0.57075434344E+02  0.11607772255E+03  0.21484306062E+02  0.13112291289E+03  0.00000000000E+00 0.  1.
<mgrwt>
<rscale>  0 0.18626087E+04</rscale>
<asrwt>0</asrwt>
<pdfrwt beam="1">  1        2 0.14736930E+00 0.18626087E+04</pdfrwt>
<pdfrwt beam="2">  1       -1 0.13929950E+00 0.18626087E+04</pdfrwt>
<totfact> 0.12211982E+01</totfact>
</mgrwt>
</event>
<event>
12    6  0.1569942E-007  0.1343444E+04  0.7818608E-02  0.8995806E-01
          2   -1    0    0  501    0  0.00000000000E+00  0.00000000000E+00  0.11172628589E+04  0.11172628589E+04  0.00000000000E+00 0. -1.
         -1   -1    0    0    0  501 -0.00000000000E+00 -0.00000000000E+00 -0.40385333479E+03  0.40385333479E+03  0.00000000000E+00 0.  1.
         24    2    1    2    0    0  0.40360173979E+02 -0.29307763957E+03 -0.37804945401E+02  0.30779544403E+03  0.76061652683E+02 0.  0.
        254    2    1    2    0    0 -0.40360173979E+02  0.29307763957E+03  0.75121446951E+03  0.12133207497E+04  0.90570448595E+03 0.  0.
         23    2    4    4    0    0 -0.18362244663E+02  0.55204826891E+03  0.74987085418E+03  0.93572666185E+03  0.90463387733E+02 0.  0.
         23    2    4    4    0    0 -0.21997929316E+02 -0.25897062934E+03  0.13436153343E+01  0.27759408780E+03  0.97503725678E+02 0.  0.
          4    1    3    3  502    0 -0.15598948380E+02 -0.66301093285E+02  0.11484564635E+02  0.69072841162E+02  0.00000000000E+00 0. -1.
         -3    1    3    3    0  502  0.55959122359E+02 -0.22677654629E+03 -0.49289510036E+02  0.23872260287E+03  0.00000000000E+00 0.  1.
         11    1    5    5    0    0  0.26630885798E+02  0.32081559572E+03  0.39137999148E+03  0.50676439127E+03  0.00000000000E+00 0. -1.
        -11    1    5    5    0    0 -0.44993130461E+02  0.23123267320E+03  0.35849086270E+03  0.42896227058E+03  0.00000000000E+00 0.  1.
          2    1    6    6  503    0  0.32041264426E+02 -0.47461497995E+02  0.13908424626E+02  0.58929455228E+02  0.00000000000E+00 0.  1.
         -2    1    6    6    0  503 -0.54039193742E+02 -0.21150913135E+03 -0.12564809291E+02  0.21866463257E+03  0.00000000000E+00 0. -1.
<mgrwt>
<rscale>  0 0.13434438E+04</rscale>
<asrwt>0</asrwt>
<pdfrwt beam="1">  1        2 0.17188659E+00 0.13434438E+04</pdfrwt>
<pdfrwt beam="2">  1       -1 0.62131283E-01 0.13434438E+04</pdfrwt>
<totfact> 0.62252437E+01</totfact>
</mgrwt>
</event>
<event>
12    6  0.1569942E-007  0.9977715E+03  0.7818608E-02  0.9310992E-01
         -1   -1    0    0    0  501 -0.00000000000E+00  0.00000000000E+00  0.15515666107E+03  0.15515666107E+03  0.00000000000E+00 0.  1.
          2   -1    0    0  501    0  0.00000000000E+00 -0.00000000000E+00 -0.16041012285E+04  0.16041012285E+04  0.00000000000E+00 0. -1.
         24    2    1    2    0    0 -0.18013074583E+03  0.13241615549E+03 -0.36321001669E+03  0.43357588719E+03  0.78009037286E+02 0.  0.
        254    2    1    2    0    0  0.18013074583E+03 -0.13241615549E+03 -0.10857345507E+04  0.13256820023E+04  0.72707092703E+03 0.  0.
         23    2    4    4    0    0  0.37098764861E+03  0.14761473192E+03 -0.57214320913E+03  0.70420331272E+03  0.95564163791E+02 0.  0.
         23    2    4    4    0    0 -0.19085690278E+03 -0.28003088742E+03 -0.51359134157E+03  0.62147868962E+03  0.87269927637E+02 0.  0.
          2    1    3    3  502    0 -0.13162691679E+03  0.61070108802E+02 -0.27031786212E+03  0.30680115709E+03  0.00000000000E+00 0. -1.
         -1    1    3    3    0  502 -0.48503829034E+02  0.71346046693E+02 -0.92892154576E+02  0.12677473010E+03  0.00000000000E+00 0.  1.
         11    1    5    5    0    0  0.11222748759E+03  0.75745780838E+02 -0.25426649707E+03  0.28806923441E+03  0.00000000000E+00 0. -1.
        -11    1    5    5    0    0  0.25876016102E+03  0.71868951086E+02 -0.31787671206E+03  0.41613407831E+03  0.00000000000E+00 0.  1.
          2    1    6    6  503    0 -0.51306343070E+01 -0.10256469767E+02  0.98504098418E+00  0.11510381671E+02  0.00000000000E+00 0. -1.
         -2    1    6    6    0  503 -0.18572626847E+03 -0.26977441765E+03 -0.51457638256E+03  0.60996830795E+03  0.00000000000E+00 0.  1.
<mgrwt>
<rscale>  0 0.99777150E+03</rscale>
<asrwt>0</asrwt>
<pdfrwt beam="1">  1        2 0.24678480E+00 0.99777150E+03</pdfrwt>
<pdfrwt beam="2">  1       -1 0.23870256E-01 0.99777150E+03</pdfrwt>
<totfact> 0.19129647E+02</totfact>
</mgrwt>
</event>
<event>
12    6  0.1569942E-007  0.2160912E+04  0.7818608E-02  0.8534876E-01
         -1   -1    0    0    0  501 -0.00000000000E+00  0.00000000000E+00  0.88472793150E+03  0.88472793150E+03  0.00000000000E+00 0.  1.
          2   -1    0    0  501    0  0.00000000000E+00 -0.00000000000E+00 -0.13194849404E+04  0.13194849404E+04  0.00000000000E+00 0. -1.
         24    2    1    2    0    0 -0.55837555351E+03  0.64605915500E+03 -0.40641934038E+03  0.94924306448E+03  0.81914740537E+02 0.  0.
        254    2    1    2    0    0  0.55837555351E+03 -0.64605915500E+03 -0.28337668554E+02  0.12549698075E+04  0.91922277152E+03 0.  0.
         23    2    4    4    0    0 -0.38440854015E+02 -0.20860699832E+03  0.34987112555E+03  0.41928119040E+03  0.91609678117E+02 0.  0.
         23    2    4    4    0    0  0.59681640752E+03 -0.43745215667E+03 -0.37820879410E+03  0.83568861706E+03  0.88200675103E+02 0.  0.
          4    1    3    3  502    0 -0.21605871312E+03  0.24492879378E+03 -0.19978553101E+03  0.38286517201E+03  0.00000000000E+00 0. -1.
         -3    1    3    3    0  502 -0.34231684039E+03  0.40113036122E+03 -0.20663380937E+03  0.56637789247E+03  0.00000000000E+00 0.  1.
         11    1    5    5    0    0  0.28858838615E+02 -0.55094965477E+02  0.76215814558E+02  0.98372446223E+02  0.00000000000E+00 0. -1.
        -11    1    5    5    0    0 -0.67299692630E+02 -0.15351203285E+03  0.27365531099E+03  0.32090874418E+03  0.00000000000E+00 0.  1.
          4    1    6    6  503    0  0.45700694856E+03 -0.33040763257E+03 -0.24481627378E+03  0.61478415936E+03  0.00000000000E+00 0.  1.
         -4    1    6    6    0  503  0.13980945897E+03 -0.10704452410E+03 -0.13339252032E+03  0.22090445770E+03  0.00000000000E+00 0. -1.
<mgrwt>
<rscale>  0 0.21609120E+04</rscale>
<asrwt>0</asrwt>
<pdfrwt beam="1">  1        2 0.20299768E+00 0.21609120E+04</pdfrwt>
<pdfrwt beam="2">  1       -1 0.13611199E+00 0.21609120E+04</pdfrwt>
<totfact> 0.75916881E+00</totfact>
</mgrwt>
</event>
<event>
12    6  0.1569942E-007  0.1568221E+04  0.7818608E-02  0.8840312E-01
          2   -1    0    0  501    0  0.00000000000E+00  0.00000000000E+00  0.16854942623E+04  0.16854942623E+04  0.00000000000E+00 0. -1.
         -1   -1    0    0    0  501 -0.00000000000E+00 -0.00000000000E+00 -0.36477702776E+03  0.36477702776E+03  0.00000000000E+00 0.  1.
         24    2    1    2    0    0  0.49274624867E+03 -0.19255791314E+03  0.54715257865E+03  0.76534379501E+03  0.80608713853E+02 0.  0.
        254    2    1    2    0    0 -0.49274624867E+03  0.19255791314E+03  0.77356465589E+03  0.12849274951E+04  0.87906710507E+03 0.  0.
         23    2    4    4    0    0 -0.26679061807E+03  0.21597275400E+03 -0.10711814124E+03  0.37110959227E+03  0.91796344870E+02 0.  0.
         23    2    4    4    0    0 -0.22595563059E+03 -0.23414840857E+02  0.88068279713E+03  0.91381790278E+03  0.88638414423E+02 0.  0.
          4    1    3    3  502    0  0.26085686408E+03 -0.11629765493E+03  0.34876881852E+03  0.45078945957E+03  0.00000000000E+00 0. -1.
         -3    1    3    3    0  502  0.23188938458E+03 -0.76260258204E+02  0.19838376013E+03  0.31455433544E+03  0.00000000000E+00 0.  1.
         11    1    5    5    0    0 -0.17847661173E+02 -0.68801821698E+01 -0.15599965633E+02  0.24682683075E+02  0.00000000000E+00 0. -1.
        -11    1    5    5    0    0 -0.24894295690E+03  0.22285293617E+03 -0.91518175612E+02  0.34642690920E+03  0.00000000000E+00 0.  1.
          1    1    6    6  503    0 -0.45393956397E+02  0.20392165753E+02  0.10503890778E+03  0.11623090746E+03  0.00000000000E+00 0. -1.
         -1    1    6    6    0  503 -0.18056167420E+03 -0.43807006610E+02  0.77564388935E+03  0.79758699532E+03  0.00000000000E+00 0.  1.
<mgrwt>
<rscale>  0 0.15682214E+04</rscale>
<asrwt>0</asrwt>
<pdfrwt beam="1">  1        2 0.25930681E+00 0.15682214E+04</pdfrwt>
<pdfrwt beam="2">  1       -1 0.56119543E-01 0.15682214E+04</pdfrwt>
<totfact> 0.35146806E+01</totfact>
</mgrwt>
</event>
<event>
12    6  0.1569942E-007  0.1674674E+04  0.7818608E-02  0.8775942E-01
          2   -1    0    0  501    0  0.00000000000E+00  0.00000000000E+00  0.77236692322E+03  0.77236692322E+03  0.00000000000E+00 0. -1.
         -1   -1    0    0    0  501 -0.00000000000E+00 -0.00000000000E+00 -0.90777190447E+03  0.90777190447E+03  0.00000000000E+00 0.  1.
         24    2    1    2    0    0 -0.24253735146E+03  0.12531217222E+03 -0.56944152669E+03  0.63653181982E+03  0.79884904451E+02 0.  0.
        254    2    1    2    0    0  0.24253735146E+03 -0.12531217222E+03  0.43403654545E+03  0.10436070079E+04  0.90895564069E+03 0.  0.
         23    2    4    4    0    0 -0.48996062103E+02 -0.34287231465E+02  0.64907208827E+03  0.65821090911E+03  0.91492058499E+02 0.  0.
         23    2    4    4    0    0  0.29153341356E+03 -0.91024940754E+02 -0.21503554282E+03  0.38539609876E+03  0.94934699668E+02 0.  0.
          4    1    3    3  502    0 -0.26661234661E+02  0.16900017894E+01 -0.11899816647E+03  0.12195999821E+03  0.00000000000E+00 0. -1.
         -3    1    3    3    0  502 -0.21587611680E+03  0.12362217043E+03 -0.45044336022E+03  0.51457182161E+03  0.00000000000E+00 0.  1.
         11    1    5    5    0    0  0.34564005936E+01 -0.26735546055E+02  0.48594120677E+03  0.48668839371E+03  0.00000000000E+00 0. -1.
        -11    1    5    5    0    0 -0.52452462697E+02 -0.75516854099E+01  0.16313088149E+03  0.17152251541E+03  0.00000000000E+00 0.  1.
          1    1    6    6  503    0  0.21757101171E+02 -0.32610220345E+01 -0.56000816849E+02  0.60167243612E+02  0.00000000000E+00 0.  1.
         -1    1    6    6    0  503  0.26977631239E+03 -0.87763918719E+02 -0.15903472597E+03  0.32522885515E+03  0.00000000000E+00 0. -1.
<mgrwt>
<rscale>  0 0.16746737E+04</rscale>
<asrwt>0</asrwt>
<pdfrwt beam="1">  1        2 0.11882568E+00 0.16746737E+04</pdfrwt>
<pdfrwt beam="2">  1       -1 0.13965722E+00 0.16746737E+04</pdfrwt>
<totfact> 0.16573844E+01</totfact>
</mgrwt>
</event>
<event>
12    6  0.1569942E-007  0.1510021E+04  0.7818608E-02  0.8877816E-01
         -1   -1    0    0    0  501 -0.00000000000E+00  0.00000000000E+00  0.25295575326E+03  0.25295575326E+03  0.00000000000E+00 0.  1.
          2   -1    0    0  501    0  0.00000000000E+00 -0.00000000000E+00 -0.22535202093E+04  0.22535202093E+04  0.00000000000E+00 0. -1.
         24    2    1    2    0    0 -0.18038948850E+03  0.13373226279E+03  0.70623679600E+02  0.24650921984E+03  0.73173804558E+02 0.  0.
        254    2    1    2    0    0  0.18038948850E+03 -0.13373226279E+03 -0.20711881357E+04  0.22599667428E+04  0.87590222021E+03 0.  0.
         23    2    4    4    0    0  0.49236344443E+03 -0.15919416827E+03 -0.88654678994E+03  0.10310974637E+04  0.97119638846E+02 0.  0.
         23    2    4    4    0    0 -0.31197395593E+03  0.25461905486E+02 -0.11846413457E+04  0.12288692791E+04  0.93640425099E+02 0.  0.
          2    1    3    3  502    0  0.19654034735E+01  0.13715844268E+02  0.16591900338E+02  0.21616622114E+02  0.00000000000E+00 0. -1.
         -1    1    3    3    0  502 -0.18235489197E+03  0.12001641852E+03  0.54031779262E+02  0.22489259772E+03  0.00000000000E+00 0.  1.
         11    1    5    5    0    0  0.25843190343E+03 -0.86135310714E+02 -0.37104202418E+03  0.46030264410E+03  0.00000000000E+00 0. -1.
        -11    1    5    5    0    0  0.23393154100E+03 -0.73058857559E+02 -0.51550476577E+03  0.57079481959E+03  0.00000000000E+00 0.  1.
          2    1    6    6  503    0 -0.16846983751E+03  0.15604203961E+01 -0.46276713566E+03  0.49248141377E+03  0.00000000000E+00 0.  1.
         -2    1    6    6    0  503 -0.14350411843E+03  0.23901485090E+02 -0.72187421008E+03  0.73638786531E+03  0.00000000000E+00 0. -1.
<mgrwt>
<rscale>  0 0.15100211E+04</rscale>
<asrwt>0</asrwt>
<pdfrwt beam="1">  1        2 0.34669541E+00 0.15100211E+04</pdfrwt>
<pdfrwt beam="2">  1       -1 0.38916270E-01 0.15100211E+04</pdfrwt>
<totfact> 0.33968508E+01</totfact>
</mgrwt>
</event>
<event>
12    6  0.1569942E-007  0.1168152E+04  0.7818608E-02  0.9141199E-01
          2   -1    0    0  501    0  0.00000000000E+00  0.00000000000E+00  0.15747125193E+04  0.15747125193E+04  0.00000000000E+00 0. -1.
         -1   -1    0    0    0  501 -0.00000000000E+00 -0.00000000000E+00 -0.21663958055E+03  0.21663958055E+03  0.00000000000E+00 0.  1.
         24    2    1    2    0    0  0.80810080320E+02 -0.16702505142E+03  0.43839782876E+03  0.48297606041E+03  0.81520437840E+02 0.  0.
        254    2    1    2    0    0 -0.80810080320E+02  0.16702505142E+03  0.91967510998E+03  0.13083760394E+04  0.91193087225E+03 0.  0.
         23    2    4    4    0    0 -0.10998308216E+03  0.40098432322E+03  0.96207537467E+03  0.10518588157E+04  0.89068713862E+02 0.  0.
         23    2    4    4    0    0  0.29173001843E+02 -0.23395927180E+03 -0.42400264690E+02  0.25651722373E+03  0.91734937342E+02 0.  0.
          4    1    3    3  502    0 -0.85603805583E+00 -0.67679477626E+02  0.98062510579E+02  0.11915326464E+03  0.00000000000E+00 0. -1.
         -3    1    3    3    0  502  0.81666118376E+02 -0.99345573799E+02  0.34033531818E+03  0.36382279577E+03  0.00000000000E+00 0.  1.
         11    1    5    5    0    0 -0.45447515947E+02  0.49033919489E+02  0.17185192255E+03  0.18439871271E+03  0.00000000000E+00 0. -1.
        -11    1    5    5    0    0 -0.64535566216E+02  0.35195040373E+03  0.79022345213E+03  0.86746010299E+03  0.00000000000E+00 0.  1.
          4    1    6    6  503    0 -0.11206746056E+02 -0.17202042397E+02 -0.29122123515E+02  0.35631439739E+02  0.00000000000E+00 0. -1.
         -4    1    6    6    0  503  0.40379747899E+02 -0.21675722940E+03 -0.13278141174E+02  0.22088578399E+03  0.00000000000E+00 0.  1.
<mgrwt>
<rscale>  0 0.11681525E+04</rscale>
<asrwt>0</asrwt>
<pdfrwt beam="1">  1        2 0.24226346E+00 0.11681525E+04</pdfrwt>
<pdfrwt beam="2">  1       -1 0.33329167E-01 0.11681525E+04</pdfrwt>
<totfact> 0.10988322E+02</totfact>
</mgrwt>
</event>
<event>
12    6  0.1569942E-007  0.2172438E+04  0.7818608E-02  0.8529988E-01
         -1   -1    0    0    0  501 -0.00000000000E+00  0.00000000000E+00  0.19551596364E+04  0.19551596364E+04  0.00000000000E+00 0.  1.
          2   -1    0    0  501    0  0.00000000000E+00 -0.00000000000E+00 -0.60346552846E+03  0.60346552846E+03  0.00000000000E+00 0. -1.
         24    2    1    2    0    0  0.74726585219E+03  0.43812196960E+03  0.28486053039E+03  0.91533127651E+03  0.79553188971E+02 0.  0.
        254    2    1    2    0    0 -0.74726585219E+03 -0.43812196960E+03  0.10668335776E+04  0.16432938884E+04  0.90106814793E+03 0.  0.
         23    2    4    4    0    0 -0.82999010597E+03 -0.11879924399E+03  0.97451271376E+03  0.12887866571E+04  0.91099845236E+02 0.  0.
         23    2    4    4    0    0  0.82724253776E+02 -0.31932272561E+03  0.92320863807E+02  0.35450723129E+03  0.91334166046E+02 0.  0.
          4    1    3    3  502    0  0.71156094692E+03  0.43038487874E+03  0.28411604406E+03  0.87879010663E+03  0.00000000000E+00 0. -1.
         -3    1    3    3    0  502  0.35704905279E+02  0.77370908663E+01  0.74448632812E+00  0.36541169876E+02  0.00000000000E+00 0.  1.
         11    1    5    5    0    0 -0.63768030662E+03 -0.71978788434E+02  0.69107086777E+03  0.94307797329E+03  0.00000000000E+00 0. -1.
        -11    1    5    5    0    0 -0.19230979935E+03 -0.46820455558E+02  0.28344184599E+03  0.34570868378E+03  0.00000000000E+00 0.  1.
          4    1    6    6  503    0  0.52132615826E+02 -0.25301045747E+03  0.33006700883E+02  0.26042569675E+03  0.00000000000E+00 0. -1.
         -4    1    6    6    0  503  0.30591637950E+02 -0.66312268137E+02  0.59314162924E+02  0.94081534540E+02  0.00000000000E+00 0.  1.
<mgrwt>
<rscale>  0 0.21724377E+04</rscale>
<asrwt>0</asrwt>
<pdfrwt beam="1">  1        2 0.92840852E-01 0.21724377E+04</pdfrwt>
<pdfrwt beam="2">  1       -1 0.30079379E+00 0.21724377E+04</pdfrwt>
<totfact> 0.16817329E+00</totfact>
</mgrwt>
</event>
<event>
12    6  0.1569942E-007  0.1499715E+04  0.7818608E-02  0.8884642E-01
         -1   -1    0    0    0  501 -0.00000000000E+00  0.00000000000E+00  0.54993199055E+03  0.54993199055E+03  0.00000000000E+00 0.  1.
          2   -1    0    0  501    0  0.00000000000E+00 -0.00000000000E+00 -0.10224650828E+04  0.10224650828E+04  0.00000000000E+00 0. -1.
         24    2    1    2    0    0  0.28733306724E+03 -0.37635861417E+03 -0.62755584314E+02  0.48398361666E+03  0.78075475310E+02 0.  0.
        254    2    1    2    0    0 -0.28733306724E+03  0.37635861417E+03 -0.40977750790E+03  0.10884134567E+04  0.89023600728E+03 0.  0.
         23    2    4    4    0    0 -0.37272565741E+03  0.56019502204E+03 -0.50438517250E+03  0.84576771884E+03  0.90419873804E+02 0.  0.
         23    2    4    4    0    0  0.85392590176E+02 -0.18383640786E+03  0.94607664604E+02  0.24264573782E+03  0.94013959423E+02 0.  0.
          2    1    3    3  502    0  0.14610073528E+03 -0.19577918211E+03 -0.71605839653E+02  0.25456297702E+03  0.00000000000E+00 0. -1.
         -1    1    3    3    0  502  0.14123233196E+03 -0.18057943206E+03  0.88502553384E+01  0.22942063964E+03  0.00000000000E+00 0.  1.
         11    1    5    5    0    0 -0.16673392578E+03  0.19035513443E+03 -0.15392642460E+03  0.29619018113E+03  0.00000000000E+00 0.  1.
        -11    1    5    5    0    0 -0.20599173163E+03  0.36983988761E+03 -0.35045874791E+03  0.54957753771E+03  0.00000000000E+00 0. -1.
          3    1    6    6  503    0  0.88068462593E+00 -0.87756931504E+02  0.70190677211E+02  0.11237787060E+03  0.00000000000E+00 0. -1.
         -3    1    6    6    0  503  0.84511905550E+02 -0.96079476361E+02  0.24416987393E+02  0.13026786722E+03  0.00000000000E+00 0.  1.
<mgrwt>
<rscale>  0 0.14997150E+04</rscale>
<asrwt>0</asrwt>
<pdfrwt beam="1">  1        2 0.15730232E+00 0.14997150E+04</pdfrwt>
<pdfrwt beam="2">  1       -1 0.84604922E-01 0.14997150E+04</pdfrwt>
<totfact> 0.37156496E+01</totfact>
</mgrwt>
</event>
<event>
12    6  0.1569942E-007  0.1167583E+04  0.7818608E-02  0.9141714E-01
          2   -1    0    0  501    0  0.00000000000E+00  0.00000000000E+00  0.11534826339E+04  0.11534826339E+04  0.00000000000E+00 0. -1.
         -1   -1    0    0    0  501 -0.00000000000E+00 -0.00000000000E+00 -0.29546404201E+03  0.29546404201E+03  0.00000000000E+00 0.  1.
         24    2    1    2    0    0 -0.71012780500E+02 -0.84030015108E+01 -0.75519794477E+02  0.13074364861E+03  0.79229015308E+02 0.  0.
        254    2    1    2    0    0  0.71012780500E+02  0.84030015108E+01  0.93353838633E+03  0.13182030273E+04  0.92792881026E+03 0.  0.
         23    2    4    4    0    0 -0.36002974965E+03  0.82553249015E+02  0.14197821188E+03  0.40906590634E+03  0.10363707599E+03 0.  0.
         23    2    4    4    0    0  0.43104253015E+03 -0.74150247504E+02  0.79156017445E+03  0.90913712093E+03  0.93096041139E+02 0.  0.
          2    1    3    3  502    0  0.48953655186E+01 -0.21945353752E+02  0.46385736285E+00  0.22489515747E+02  0.00000000000E+00 0. -1.
         -1    1    3    3    0  502 -0.75908146018E+02  0.13542352241E+02 -0.75983651840E+02  0.10825413287E+03  0.00000000000E+00 0.  1.
         11    1    5    5    0    0 -0.39707441046E+01  0.18140877215E+02  0.19826935091E+02  0.27165522082E+02  0.00000000000E+00 0.  1.
        -11    1    5    5    0    0 -0.35605900555E+03  0.64412371800E+02  0.12215127679E+03  0.38190038425E+03  0.00000000000E+00 0. -1.
          1    1    6    6  503    0  0.32997757953E+03 -0.30419072186E+02  0.65185551196E+03  0.73124970524E+03  0.00000000000E+00 0. -1.
         -1    1    6    6    0  503  0.10106495062E+03 -0.43731175317E+02  0.13970466248E+03  0.17788741568E+03  0.00000000000E+00 0.  1.
<mgrwt>
<rscale>  0 0.11675832E+04</rscale>
<asrwt>0</asrwt>
<pdfrwt beam="1">  1        2 0.17745886E+00 0.11675832E+04</pdfrwt>
<pdfrwt beam="2">  1       -1 0.45456007E-01 0.11675832E+04</pdfrwt>
<totfact> 0.10940380E+02</totfact>
</mgrwt>
</event>
<event>
12    6  0.1569942E-007  0.2054959E+04  0.7818608E-02  0.8581348E-01
          2   -1    0    0  501    0  0.00000000000E+00  0.00000000000E+00  0.36932955587E+04  0.36932955587E+04  0.00000000000E+00 0. -1.
         -1   -1    0    0    0  501 -0.00000000000E+00 -0.00000000000E+00 -0.28584604899E+03  0.28584604899E+03  0.00000000000E+00 0.  1.
         24    2    1    2    0    0 -0.54331568560E+03 -0.30241327688E+03  0.32920683169E+03  0.70766311065E+03  0.75922433398E+02 0.  0.
        254    2    1    2    0    0  0.54331568560E+03  0.30241327688E+03  0.30782426781E+04  0.32714784971E+04  0.91670488574E+03 0.  0.
         23    2    4    4    0    0  0.51779993851E+03  0.27824287757E+03  0.82987366621E+03  0.10210704459E+04  0.91425808345E+02 0.  0.
         23    2    4    4    0    0  0.25515747083E+02  0.24170399320E+02  0.22483690118E+04  0.22504080511E+04  0.89095014883E+02 0.  0.
          2    1    3    3  502    0 -0.10213063850E+03 -0.55857270114E+02  0.29541624243E+02  0.12009750001E+03  0.00000000000E+00 0. -1.
         -1    1    3    3    0  502 -0.44118504709E+03 -0.24655600677E+03  0.29966520745E+03  0.58756561064E+03  0.00000000000E+00 0.  1.
         11    1    5    5    0    0  0.47089273375E+03  0.25915833779E+03  0.70658691956E+03  0.88778831127E+03  0.00000000000E+00 0.  1.
        -11    1    5    5    0    0  0.46907204767E+02  0.19084539779E+02  0.12328674665E+03  0.13328213465E+03  0.00000000000E+00 0. -1.
          3    1    6    6  503    0  0.37100135123E+02  0.88823121392E+01  0.21409542360E+04  0.21412940844E+04  0.00000000000E+00 0.  1.
         -3    1    6    6    0  503 -0.11584388040E+02  0.15288087180E+02  0.10741477587E+03  0.10911396671E+03  0.00000000000E+00 0. -1.
<mgrwt>
<rscale>  0 0.20549588E+04</rscale>
<asrwt>0</asrwt>
<pdfrwt beam="1">  1        2 0.56819928E+00 0.20549588E+04</pdfrwt>
<pdfrwt beam="2">  1       -1 0.43976318E-01 0.20549588E+04</pdfrwt>
<totfact> 0.31982686E+00</totfact>
</mgrwt>
</event>
<event>
12    6  0.1569942E-007  0.2013503E+04  0.7818608E-02  0.8600334E-01
          2   -1    0    0  501    0  0.00000000000E+00  0.00000000000E+00  0.10238231446E+04  0.10238231446E+04  0.00000000000E+00 0. -1.
         -1   -1    0    0    0  501 -0.00000000000E+00 -0.00000000000E+00 -0.98996417931E+03  0.98996417931E+03  0.00000000000E+00 0.  1.
         24    2    1    2    0    0  0.33587040028E+03 -0.52632593432E+03  0.52263086168E+03  0.81819673052E+03  0.80467119602E+02 0.  0.
        254    2    1    2    0    0 -0.33587040028E+03  0.52632593432E+03 -0.48877189643E+03  0.11955905934E+04  0.89482455557E+03 0.  0.
         23    2    4    4    0    0 -0.39905125481E+03  0.45179211699E+02 -0.56352704888E+03  0.69797374074E+03  0.91222490650E+02 0.  0.
         23    2    4    4    0    0  0.63180854529E+02  0.48114672262E+03  0.74755152452E+02  0.49761685261E+03  0.80871565583E+02 0.  0.
          2    1    3    3  502    0  0.24126027648E+03 -0.39449592240E+03  0.34045246855E+03  0.57423117047E+03  0.00000000000E+00 0. -1.
         -3    1    3    3    0  502  0.94610123803E+02 -0.13183001191E+03  0.18217839313E+03  0.24396556005E+03  0.00000000000E+00 0.  1.
         11    1    5    5    0    0 -0.53009791797E+02  0.31446055765E+02 -0.54286810791E+02  0.82133734090E+02  0.00000000000E+00 0.  1.
        -11    1    5    5    0    0 -0.34604146302E+03  0.13733155934E+02 -0.50924023809E+03  0.61584000665E+03  0.00000000000E+00 0. -1.
          4    1    6    6  503    0  0.57094642521E+02  0.30451891965E+03  0.11946624367E+02  0.31005530549E+03  0.00000000000E+00 0. -1.
         -4    1    6    6    0  503  0.60862120073E+01  0.17662780296E+03  0.62808528085E+02  0.18756154712E+03  0.00000000000E+00 0.  1.
<mgrwt>
<rscale>  0 0.20135027E+04</rscale>
<asrwt>0</asrwt>
<pdfrwt beam="1">  1        2 0.15751125E+00 0.20135027E+04</pdfrwt>
<pdfrwt beam="2">  1       -1 0.15230218E+00 0.20135027E+04</pdfrwt>
<totfact> 0.86191746E+00</totfact>
</mgrwt>
</event>
<event>
12    6  0.1569942E-007  0.1246348E+04  0.7818608E-02  0.9073228E-01
          2   -1    0    0  501    0  0.00000000000E+00  0.00000000000E+00  0.83784845197E+03  0.83784845197E+03  0.00000000000E+00 0. -1.
         -1   -1    0    0    0  501 -0.00000000000E+00 -0.00000000000E+00 -0.46350372971E+03  0.46350372971E+03  0.00000000000E+00 0.  1.
         24    2    1    2    0    0 -0.38462757033E+02  0.14112861229E+03  0.35014753500E+03  0.38789423780E+03  0.80386407840E+02 0.  0.
        254    2    1    2    0    0  0.38462757033E+02 -0.14112861229E+03  0.24197187256E+02  0.91345794387E+03  0.90134524044E+03 0.  0.
         23    2    4    4    0    0 -0.18580699520E+03  0.30058158448E+03  0.14944242773E+03  0.39444975460E+03  0.91564410676E+02 0.  0.
         23    2    4    4    0    0  0.22426975223E+03 -0.44171019677E+03 -0.12524524047E+03  0.51900818928E+03  0.90985221744E+02 0.  0.
          4    1    3    3  502    0 -0.43137706714E+02  0.14909670570E+03  0.34201588508E+03  0.37558694737E+03  0.00000000000E+00 0. -1.
         -3    1    3    3    0  502  0.46749496806E+01 -0.79680934128E+01  0.81316499224E+01  0.12307290425E+02  0.00000000000E+00 0.  1.
         11    1    5    5    0    0  0.26751790714E+01 -0.45454897572E+01  0.64887179093E+01  0.83619088911E+01  0.00000000000E+00 0. -1.
        -11    1    5    5    0    0 -0.18848217427E+03  0.30512707424E+03  0.14295370982E+03  0.38608784571E+03  0.00000000000E+00 0.  1.
          3    1    6    6  503    0  0.73610095783E+02 -0.15665572418E+03  0.79806714732E-01  0.17308803681E+03  0.00000000000E+00 0. -1.
         -3    1    6    6    0  503  0.15065965645E+03 -0.28505447259E+03 -0.12532504718E+03  0.34592015246E+03  0.00000000000E+00 0.  1.
<mgrwt>
<rscale>  0 0.12463481E+04</rscale>
<asrwt>0</asrwt>
<pdfrwt beam="1">  1        2 0.12889976E+00 0.12463481E+04</pdfrwt>
<pdfrwt beam="2">  1       -1 0.71308266E-01 0.12463481E+04</pdfrwt>
<totfact> 0.72203608E+01</totfact>
</mgrwt>
</event>
<event>
12    6  0.1569942E-007  0.1733006E+04  0.7818608E-02  0.8742761E-01
         -1   -1    0    0    0  501 -0.00000000000E+00  0.00000000000E+00  0.30367436359E+03  0.30367436359E+03  0.00000000000E+00 0.  1.
          2   -1    0    0  501    0  0.00000000000E+00 -0.00000000000E+00 -0.24724742152E+04  0.24724742152E+04  0.00000000000E+00 0. -1.
         24    2    1    2    0    0  0.35784574013E+02 -0.47612186934E+03 -0.13730466014E+03  0.50345623461E+03  0.81504848166E+02 0.  0.
        254    2    1    2    0    0 -0.35784574013E+02  0.47612186934E+03 -0.20314951915E+04  0.22726923442E+04  0.90010288751E+03 0.  0.
         23    2    4    4    0    0  0.76554570402E+02  0.68459557333E+03 -0.17936914213E+04  0.19241372803E+04  0.10219421349E+03 0.  0.
         23    2    4    4    0    0 -0.11233914441E+03 -0.20847370399E+03 -0.23780377014E+03  0.34855506386E+03  0.94120299745E+02 0.  0.
          4    1    3    3  502    0  0.29960948274E+02 -0.80855027913E+02 -0.46036473323E+02  0.97747382760E+02  0.00000000000E+00 0. -1.
         -3    1    3    3    0  502  0.58236257383E+01 -0.39526684143E+03 -0.91268186818E+02  0.40570885185E+03  0.00000000000E+00 0.  1.
         11    1    5    5    0    0 -0.20427382241E+02  0.26266629743E+03 -0.68376125031E+03  0.73276210954E+03  0.00000000000E+00 0.  1.
        -11    1    5    5    0    0  0.96981952643E+02  0.42192927590E+03 -0.11099301710E+04  0.11913751708E+04  0.00000000000E+00 0. -1.
          2    1    6    6  503    0 -0.76542866385E+02 -0.63886103981E+02 -0.13390665758E+03  0.16694681075E+03  0.00000000000E+00 0. -1.
         -2    1    6    6    0  503 -0.35796278029E+02 -0.14458760001E+03 -0.10389711256E+03  0.18160825311E+03  0.00000000000E+00 0.  1.
<mgrwt>
<rscale>  0 0.17330055E+04</rscale>
<asrwt>0</asrwt>
<pdfrwt beam="1">  1        2 0.38038063E+00 0.17330055E+04</pdfrwt>
<pdfrwt beam="2">  1       -1 0.46719135E-01 0.17330055E+04</pdfrwt>
<totfact> 0.17839177E+01</totfact>
</mgrwt>
</event>
<event>
12    6  0.1569942E-007  0.3151137E+04  0.7818608E-02  0.8201842E-01
          2   -1    0    0  501    0  0.00000000000E+00  0.00000000000E+00  0.11150870603E+04  0.11150870603E+04  0.00000000000E+00 0. -1.
         -1   -1    0    0    0  501 -0.00000000000E+00 -0.00000000000E+00 -0.22262080974E+04  0.22262080974E+04  0.00000000000E+00 0.  1.
         24    2    1    2    0    0 -0.22728804503E+02 -0.13790580916E+04 -0.97275134295E+03  0.16896201474E+04  0.79077485655E+02 0.  0.
        254    2    1    2    0    0  0.22728804503E+02  0.13790580916E+04 -0.13836969412E+03  0.16516750104E+04  0.89809039029E+03 0.  0.
         23    2    4    4    0    0  0.67854484902E+01  0.63284764694E+02 -0.30317168656E+03  0.32230149937E+03  0.88961683954E+02 0.  0.
         23    2    4    4    0    0  0.15943356013E+02  0.13157733269E+04  0.16480199244E+03  0.13293735110E+04  0.92523492617E+02 0.  0.
          2    1    3    3  502    0  0.77889097962E+01 -0.35007478595E+03 -0.28626324728E+03  0.45228273195E+03  0.00000000000E+00 0. -1.
         -1    1    3    3    0  502 -0.30517714300E+02 -0.10289833056E+04 -0.68648809566E+03  0.12373374154E+04  0.00000000000E+00 0.  1.
         11    1    5    5    0    0  0.35260220642E+02  0.73120364800E+01 -0.18507540699E+03  0.18854616227E+03  0.00000000000E+00 0. -1.
        -11    1    5    5    0    0 -0.28474772152E+02  0.55972728214E+02 -0.11809627957E+03  0.13375533710E+03  0.00000000000E+00 0.  1.
          2    1    6    6  503    0 -0.18241946178E+02  0.99321016915E+03  0.15026405616E+03  0.10046783044E+04  0.00000000000E+00 0. -1.
         -2    1    6    6    0  503  0.34185302191E+02  0.32256315773E+03  0.14537936283E+02  0.32469520662E+03  0.00000000000E+00 0.  1.
<mgrwt>
<rscale>  0 0.31511368E+04</rscale>
<asrwt>0</asrwt>
<pdfrwt beam="1">  1        2 0.17155186E+00 0.31511368E+04</pdfrwt>
<pdfrwt beam="2">  1       -1 0.34249355E+00 0.31511368E+04</pdfrwt>
<totfact> 0.35773293E-01</totfact>
</mgrwt>
</event>
<event>
12    6  0.1569942E-007  0.1750541E+04  0.7818608E-02  0.8733053E-01
         -1   -1    0    0    0  501 -0.00000000000E+00  0.00000000000E+00  0.80483263521E+03  0.80483263521E+03  0.00000000000E+00 0.  1.
          2   -1    0    0  501    0  0.00000000000E+00 -0.00000000000E+00 -0.95187304820E+03  0.95187304820E+03  0.00000000000E+00 0. -1.
         24    2    1    2    0    0  0.56427637000E+03  0.11720056170E+03  0.22678964553E+03  0.62447219593E+03  0.79926133151E+02 0.  0.
        254    2    1    2    0    0 -0.56427637000E+03 -0.11720056170E+03 -0.37383005852E+03  0.11322334875E+04  0.90003331278E+03 0.  0.
         23    2    4    4    0    0 -0.65905228971E+02 -0.75268900210E+02 -0.57122362449E+03  0.58678455749E+03  0.89502967491E+02 0.  0.
         23    2    4    4    0    0 -0.49837114103E+03 -0.41931661493E+02  0.19739356597E+03  0.54544892999E+03  0.91751059373E+02 0.  0.
          2    1    3    3  502    0  0.52962869600E+03  0.12332775687E+03  0.19703855236E+03  0.57839474613E+03  0.00000000000E+00 0. -1.
         -1    1    3    3    0  502  0.34647674005E+02 -0.61271951686E+01  0.29751093174E+02  0.46077449795E+02  0.00000000000E+00 0.  1.
         11    1    5    5    0    0 -0.73644298984E+02 -0.83624286642E+02 -0.55931471438E+03  0.57030645605E+03  0.00000000000E+00 0. -1.
        -11    1    5    5    0    0  0.77390700128E+01  0.83553864315E+01 -0.11908910106E+02  0.16478101438E+02  0.00000000000E+00 0.  1.
          4    1    6    6  503    0 -0.40488703161E+03 -0.58822945867E+02  0.18711969254E+03  0.44989712898E+03  0.00000000000E+00 0. -1.
         -4    1    6    6    0  503 -0.93484109415E+02  0.16891284374E+02  0.10273873430E+02  0.95551801009E+02  0.00000000000E+00 0.  1.
<mgrwt>
<rscale>  0 0.17505411E+04</rscale>
<asrwt>0</asrwt>
<pdfrwt beam="1">  1        2 0.14644201E+00 0.17505411E+04</pdfrwt>
<pdfrwt beam="2">  1       -1 0.12382041E+00 0.17505411E+04</pdfrwt>
<totfact> 0.16778550E+01</totfact>
</mgrwt>
</event>
<event>
12    6  0.1569942E-007  0.2078895E+04  0.7818608E-02  0.8570598E-01
          2   -1    0    0  501    0  0.00000000000E+00  0.00000000000E+00  0.95658591394E+03  0.95658591394E+03  0.00000000000E+00 0. -1.
         -1   -1    0    0    0  501 -0.00000000000E+00 -0.00000000000E+00 -0.11294867396E+04  0.11294867396E+04  0.00000000000E+00 0.  1.
         24    2    1    2    0    0  0.24736561520E+03 -0.13182794374E+03  0.77298227642E+03  0.82608875609E+03  0.79703694733E+02 0.  0.
        254    2    1    2    0    0 -0.24736561520E+03  0.13182794374E+03 -0.94588310212E+03  0.12599838975E+04  0.78377051790E+03 0.  0.
         23    2    4    4    0    0  0.18345988287E+03 -0.61071351503E+01 -0.71499702988E+03  0.74385973750E+03  0.91715487297E+02 0.  0.
         23    2    4    4    0    0 -0.43082549807E+03  0.13793507889E+03 -0.23088607224E+03  0.51612415999E+03  0.91864434882E+02 0.  0.
          4    1    3    3  502    0  0.12531398011E+03 -0.11132528391E+03  0.43888539563E+03  0.46980560123E+03  0.00000000000E+00 0. -1.
         -3    1    3    3    0  502  0.12205163510E+03 -0.20502659833E+02  0.33409688079E+03  0.35628315487E+03  0.00000000000E+00 0.  1.
         11    1    5    5    0    0  0.16008632801E+03 -0.54592883077E+01 -0.44678989632E+03  0.47463527860E+03  0.00000000000E+00 0.  1.
        -11    1    5    5    0    0  0.23373554860E+02 -0.64784684260E+00 -0.26820713357E+03  0.26922445890E+03  0.00000000000E+00 0. -1.
          3    1    6    6  503    0 -0.15962376807E+03  0.67626839479E+02 -0.42441936507E+02  0.17847816316E+03  0.00000000000E+00 0. -1.
         -3    1    6    6    0  503 -0.27120173001E+03  0.70308239415E+02 -0.18844413573E+03  0.33764599684E+03  0.00000000000E+00 0.  1.
<mgrwt>
<rscale>  0 0.20788950E+04</rscale>
<asrwt>0</asrwt>
<pdfrwt beam="1">  1        2 0.14716706E+00 0.20788950E+04</pdfrwt>
<pdfrwt beam="2">  1       -1 0.17376719E+00 0.20788950E+04</pdfrwt>
<totfact> 0.65363782E+00</totfact>
</mgrwt>
</event>
<event>
12    6  0.1569942E-007  0.3322442E+04  0.7818608E-02  0.8157208E-01
         -1   -1    0    0    0  501 -0.00000000000E+00  0.00000000000E+00  0.83938063683E+03  0.83938063683E+03  0.00000000000E+00 0.  1.
          2   -1    0    0  501    0  0.00000000000E+00 -0.00000000000E+00 -0.32877272463E+04  0.32877272463E+04  0.00000000000E+00 0. -1.
         24    2    1    2    0    0 -0.14644934471E+04 -0.45357640281E+03 -0.10127319252E+04  0.18391235891E+04  0.79227607581E+02 0.  0.
        254    2    1    2    0    0  0.14644934471E+04  0.45357640281E+03 -0.14356146842E+04  0.22879842941E+04  0.90741941707E+03 0.  0.
         23    2    4    4    0    0  0.86476526328E+03  0.54336785323E+03 -0.13055588260E+04  0.16599775512E+04  0.89297469093E+02 0.  0.
         23    2    4    4    0    0  0.59972818381E+03 -0.89791450418E+02 -0.13005585829E+03  0.62800674284E+03  0.98699259168E+02 0.  0.
          2    1    3    3  502    0 -0.91136331462E+02 -0.28418179442E+02 -0.41207030469E+02  0.10397808998E+03  0.00000000000E+00 0. -1.
         -1    1    3    3    0  502 -0.13733571156E+04 -0.42515822337E+03 -0.97152489478E+03  0.17351454991E+04  0.00000000000E+00 0.  1.
         11    1    5    5    0    0  0.29210135521E+03  0.14592726341E+03 -0.46059057155E+03  0.56458980023E+03  0.00000000000E+00 0.  1.
        -11    1    5    5    0    0  0.57266390807E+03  0.39744058982E+03 -0.84496825441E+03  0.10953877510E+04  0.00000000000E+00 0. -1.
          4    1    6    6  503    0  0.21993369726E+02 -0.21157871854E+02  0.45110834952E+01  0.30849857821E+02  0.00000000000E+00 0. -1.
         -4    1    6    6    0  503  0.57773481408E+03 -0.68633578564E+02 -0.13456694178E+03  0.59715688502E+03  0.00000000000E+00 0.  1.
<mgrwt>
<rscale>  0 0.33224416E+04</rscale>
<asrwt>0</asrwt>
<pdfrwt beam="1">  1        2 0.50580420E+00 0.33224416E+04</pdfrwt>
<pdfrwt beam="2">  1       -1 0.12913548E+00 0.33224416E+04</pdfrwt>
<totfact> 0.55355845E-01</totfact>
</mgrwt>
</event>
<event>
12    6  0.1569942E-007  0.1390825E+04  0.7818608E-02  0.8960487E-01
          2   -1    0    0  501    0  0.00000000000E+00  0.00000000000E+00  0.23488228348E+04  0.23488228348E+04  0.00000000000E+00 0. -1.
         -1   -1    0    0    0  501 -0.00000000000E+00 -0.00000000000E+00 -0.20588961983E+03  0.20588961983E+03  0.00000000000E+00 0.  1.
         24    2    1    2    0    0  0.11622110184E+03 -0.31400700148E+03  0.27894990141E+03  0.44311858213E+03  0.80207785405E+02 0.  0.
        254    2    1    2    0    0 -0.11622110184E+03  0.31400700148E+03  0.18639833135E+04  0.21115938725E+04  0.93396314042E+03 0.  0.
         23    2    4    4    0    0  0.94282057859E+02  0.54888002338E+03  0.68068325385E+03  0.88372201899E+03  0.86466920139E+02 0.  0.
         23    2    4    4    0    0 -0.21050315970E+03 -0.23487302190E+03  0.11833000597E+04  0.12278718535E+04  0.89405484619E+02 0.  0.
          4    1    3    3  502    0  0.68157294625E+02 -0.80349129657E+02  0.75926409830E+02  0.12987000869E+03  0.00000000000E+00 0. -1.
         -3    1    3    3    0  502  0.48063807219E+02 -0.23365787182E+03  0.20302349158E+03  0.31324857344E+03  0.00000000000E+00 0.  1.
         11    1    5    5    0    0  0.76975559142E+02  0.21190716528E+03  0.29468780660E+03  0.37104014171E+03  0.00000000000E+00 0. -1.
        -11    1    5    5    0    0  0.17306498717E+02  0.33697285810E+03  0.38599544726E+03  0.51268187728E+03  0.00000000000E+00 0.  1.
          4    1    6    6  503    0 -0.10261331114E+03 -0.10090803216E+03  0.37946878525E+03  0.40584292720E+03  0.00000000000E+00 0. -1.
         -4    1    6    6    0  503 -0.10788984856E+03 -0.13396498974E+03  0.80383127445E+03  0.82202892630E+03  0.00000000000E+00 0.  1.
<mgrwt>
<rscale>  0 0.13908246E+04</rscale>
<asrwt>0</asrwt>
<pdfrwt beam="1">  1        2 0.36135734E+00 0.13908246E+04</pdfrwt>
<pdfrwt beam="2">  1       -1 0.31675328E-01 0.13908246E+04</pdfrwt>
<totfact> 0.43847588E+01</totfact>
</mgrwt>
</event>
<event>
12    6  0.1569942E-007  0.1100526E+04  0.7818608E-02  0.9204679E-01
         -1   -1    0    0    0  501 -0.00000000000E+00  0.00000000000E+00  0.16322825563E+03  0.16322825563E+03  0.00000000000E+00 0.  1.
          2   -1    0    0  501    0  0.00000000000E+00 -0.00000000000E+00 -0.18550071581E+04  0.18550071581E+04  0.00000000000E+00 0. -1.
         24    2    1    2    0    0  0.15557424993E+03  0.87373724428E+01 -0.28637441919E+03  0.33560655749E+03  0.79635196665E+02 0.  0.
        254    2    1    2    0    0 -0.15557424993E+03 -0.87373724428E+01 -0.14054044833E+04  0.16826288562E+04  0.91202983354E+03 0.  0.
         23    2    4    4    0    0  0.56655502274E+02 -0.18279388143E+03 -0.13770989982E+04  0.13932761619E+04  0.90517199550E+02 0.  0.
         23    2    4    4    0    0 -0.21222975220E+03  0.17405650899E+03 -0.28305485052E+02  0.28935269431E+03  0.87101350040E+02 0.  0.
          2    1    3    3  502    0  0.15471923303E+03 -0.55866379319E+01 -0.27989916123E+03  0.31986370855E+03  0.00000000000E+00 0. -1.
         -1    1    3    3    0  502  0.85501690392E+00  0.14324010375E+02 -0.64752579581E+01  0.15742848940E+02  0.00000000000E+00 0.  1.
         11    1    5    5    0    0  0.46792614455E+02 -0.19133648264E+03 -0.13253567905E+04  0.13399141094E+04  0.00000000000E+00 0. -1.
        -11    1    5    5    0    0  0.98628878186E+01  0.85426012095E+01 -0.51742207714E+02  0.53362052535E+02  0.00000000000E+00 0.  1.
          3    1    6    6  503    0 -0.73345890583E+02  0.31871623818E+02  0.24605865534E+02  0.83671193901E+02  0.00000000000E+00 0. -1.
         -3    1    6    6    0  503 -0.13888386162E+03  0.14218488517E+03 -0.52911350586E+02  0.20568150041E+03  0.00000000000E+00 0.  1.
<mgrwt>
<rscale>  0 0.11005264E+04</rscale>
<asrwt>0</asrwt>
<pdfrwt beam="1">  1        2 0.28538572E+00 0.11005264E+04</pdfrwt>
<pdfrwt beam="2">  1       -1 0.25112039E-01 0.11005264E+04</pdfrwt>
<totfact> 0.12656773E+02</totfact>
</mgrwt>
</event>
<event>
12    6  0.1569942E-007  0.3117277E+04  0.7818608E-02  0.8211012E-01
         -1   -1    0    0    0  501 -0.00000000000E+00  0.00000000000E+00  0.81861245971E+03  0.81861245971E+03  0.00000000000E+00 0.  1.
          2   -1    0    0  501    0  0.00000000000E+00 -0.00000000000E+00 -0.29676489225E+04  0.29676489225E+04  0.00000000000E+00 0. -1.
         24    2    1    2    0    0  0.31591649704E+03 -0.13487743362E+04 -0.14200050461E+04  0.19852867118E+04  0.77159277828E+02 0.  0.
        254    2    1    2    0    0 -0.31591649704E+03  0.13487743362E+04 -0.72903141673E+03  0.18009746704E+04  0.89052092274E+03 0.  0.
         23    2    4    4    0    0 -0.35427600374E+03  0.59283454029E+03  0.65946826506E+02  0.69990739822E+03  0.92504611602E+02 0.  0.
         23    2    4    4    0    0  0.38359506708E+02  0.75593979591E+03 -0.79497824323E+03  0.11010672722E+04  0.86268788696E+02 0.  0.
          2    1    3    3  502    0  0.78328065646E+02 -0.32350745097E+03 -0.38939467262E+03  0.51227001451E+03  0.00000000000E+00 0. -1.
         -1    1    3    3    0  502  0.23758843139E+03 -0.10252668852E+04 -0.10306103735E+04  0.14730166973E+04  0.00000000000E+00 0.  1.
         11    1    5    5    0    0  0.54275696092E+01  0.16619407623E+02  0.28073086637E+01  0.17707179435E+02  0.00000000000E+00 0.  1.
        -11    1    5    5    0    0 -0.35970357335E+03  0.57621513266E+03  0.63139517843E+02  0.68220021878E+03  0.00000000000E+00 0. -1.
          2    1    6    6  503    0  0.21250190876E+02  0.66524186322E+03 -0.65826672476E+03  0.93611611893E+03  0.00000000000E+00 0. -1.
         -2    1    6    6    0  503  0.17109315832E+02  0.90697932687E+02 -0.13671151847E+03  0.16495115327E+03  0.00000000000E+00 0.  1.
<mgrwt>
<rscale>  0 0.31172773E+04</rscale>
<asrwt>0</asrwt>
<pdfrwt beam="1">  1        2 0.45656138E+00 0.31172773E+04</pdfrwt>
<pdfrwt beam="2">  1       -1 0.12594038E+00 0.31172773E+04</pdfrwt>
<totfact> 0.96438236E-01</totfact>
</mgrwt>
</event>
<event>
12    6  0.1569942E-007  0.1824593E+04  0.7818608E-02  0.8693330E-01
         -1   -1    0    0    0  501 -0.00000000000E+00  0.00000000000E+00  0.24732358465E+04  0.24732358465E+04  0.00000000000E+00 0.  1.
          2   -1    0    0  501    0  0.00000000000E+00 -0.00000000000E+00 -0.33651646187E+03  0.33651646187E+03  0.00000000000E+00 0. -1.
         24    2    1    2    0    0 -0.18698345046E+03 -0.18626231558E+03 -0.16072336979E+03  0.31911836134E+03  0.79674751296E+02 0.  0.
        254    2    1    2    0    0  0.18698345046E+03  0.18626231558E+03  0.22974427544E+04  0.24906339470E+04  0.92485554943E+03 0.  0.
         23    2    4    4    0    0 -0.11694558643E+03  0.40341198115E+03  0.18539932589E+04  0.19031709455E+04  0.91384611158E+02 0.  0.
         23    2    4    4    0    0  0.30392903690E+03 -0.21714966557E+03  0.44344949549E+03  0.58746300146E+03  0.94543568356E+02 0.  0.
          2    1    3    3  502    0 -0.19086525485E+03 -0.17214147320E+03 -0.13705029969E+03  0.29128167974E+03  0.00000000000E+00 0. -1.
         -1    1    3    3    0  502  0.38818043847E+01 -0.14120842380E+02 -0.23673070097E+02  0.27836681602E+02  0.00000000000E+00 0.  1.
         11    1    5    5    0    0  0.68002423943E+01  0.20515652875E+02  0.44447976800E+02  0.49424264801E+02  0.00000000000E+00 0. -1.
        -11    1    5    5    0    0 -0.12374582883E+03  0.38289632828E+03  0.18095452821E+04  0.18537466807E+04  0.00000000000E+00 0.  1.
          2    1    6    6  503    0  0.47879774688E+02 -0.73805232817E+02  0.13991961144E+03  0.16527910601E+03  0.00000000000E+00 0. -1.
         -2    1    6    6    0  503  0.25604926221E+03 -0.14334443275E+03  0.30352988404E+03  0.42218389546E+03  0.00000000000E+00 0.  1.
<mgrwt>
<rscale>  0 0.18245926E+04</rscale>
<asrwt>0</asrwt>
<pdfrwt beam="1">  1        2 0.51771765E-01 0.18245926E+04</pdfrwt>
<pdfrwt beam="2">  1       -1 0.38049781E+00 0.18245926E+04</pdfrwt>
<totfact> 0.10132649E+00</totfact>
</mgrwt>
</event>
<event>
12    6  0.1569942E-007  0.1496498E+04  0.7818608E-02  0.8886785E-01
         -1   -1    0    0    0  501 -0.00000000000E+00  0.00000000000E+00  0.25828379286E+03  0.25828379286E+03  0.00000000000E+00 0.  1.
          2   -1    0    0  501    0  0.00000000000E+00 -0.00000000000E+00 -0.21676788921E+04  0.21676788921E+04  0.00000000000E+00 0. -1.
         24    2    1    2    0    0 -0.28443900927E+03 -0.34924863053E+03 -0.87519356994E+03  0.98748459326E+03  0.79258319109E+02 0.  0.
        254    2    1    2    0    0  0.28443900927E+03  0.34924863053E+03 -0.10342015293E+04  0.14384780917E+04  0.89261764553E+03 0.  0.
         23    2    4    4    0    0 -0.28268839585E+03  0.29644810167E+03 -0.37717524738E+03  0.56409109970E+03  0.90240763483E+02 0.  0.
         23    2    4    4    0    0  0.56712740512E+03  0.52800528862E+02 -0.65702628189E+03  0.87438699196E+03  0.91911300356E+02 0.  0.
          4    1    3    3  502    0 -0.26325726518E+03 -0.34350690370E+03 -0.80529503174E+03  0.91422178310E+03  0.00000000000E+00 0. -1.
         -3    1    3    3    0  502 -0.21181744083E+02 -0.57417268280E+01 -0.69898538205E+02  0.73262810160E+02  0.00000000000E+00 0.  1.
         11    1    5    5    0    0 -0.54048950148E+02  0.11385764989E+03 -0.97733052765E+02  0.15948856715E+03  0.00000000000E+00 0. -1.
        -11    1    5    5    0    0 -0.22863944570E+03  0.18259045178E+03 -0.27944219461E+03  0.40460253255E+03  0.00000000000E+00 0.  1.
          1    1    6    6  503    0  0.92509386029E+02  0.64303897140E+01 -0.16442147298E+03  0.18876905782E+03  0.00000000000E+00 0. -1.
         -1    1    6    6    0  503  0.47461801909E+03  0.46370139148E+02 -0.49260480891E+03  0.68561793414E+03  0.00000000000E+00 0.  1.
<mgrwt>
<rscale>  0 0.14964977E+04</rscale>
<asrwt>0</asrwt>
<pdfrwt beam="1">  1        2 0.33348905E+00 0.14964977E+04</pdfrwt>
<pdfrwt beam="2">  1       -1 0.39735970E-01 0.14964977E+04</pdfrwt>
<totfact> 0.36577681E+01</totfact>
</mgrwt>
</event>
<event>
12    6  0.1569942E-007  0.1968508E+04  0.7818608E-02  0.8621487E-01
         -1   -1    0    0    0  501 -0.00000000000E+00  0.00000000000E+00  0.38849687872E+03  0.38849687872E+03  0.00000000000E+00 0.  1.
          2   -1    0    0  501    0  0.00000000000E+00 -0.00000000000E+00 -0.24936008929E+04  0.24936008929E+04  0.00000000000E+00 0. -1.
         24    2    1    2    0    0  0.85019593889E+02 -0.66373914975E+03 -0.14097813946E+04  0.15628197310E+04  0.84521835014E+02 0.  0.
        254    2    1    2    0    0 -0.85019593889E+02  0.66373914975E+03 -0.69532261955E+03  0.13192780407E+04  0.89957935339E+03 0.  0.
         23    2    4    4    0    0 -0.30443932902E+03  0.48568702365E+02 -0.56096133941E+03  0.64662905649E+03  0.91702172742E+02 0.  0.
         23    2    4    4    0    0  0.21941973513E+03  0.61517044739E+03 -0.13436128014E+03  0.67264898417E+03  0.88453393378E+02 0.  0.
          2    1    3    3  502    0  0.84275577940E+02 -0.63771766864E+03 -0.13060041928E+04  0.14558273076E+04  0.00000000000E+00 0. -1.
         -1    1    3    3    0  502  0.74401594828E+00 -0.26021481109E+02 -0.10377720181E+03  0.10699242335E+03  0.00000000000E+00 0.  1.
         11    1    5    5    0    0 -0.96197040308E+02  0.56800054732E+02 -0.16662384738E+03  0.20060813368E+03  0.00000000000E+00 0. -1.
        -11    1    5    5    0    0 -0.20824228871E+03 -0.82313523672E+01 -0.39433749203E+03  0.44602092282E+03  0.00000000000E+00 0.  1.
          3    1    6    6  503    0  0.15756249877E+03  0.33617531249E+03 -0.10218246552E+03  0.38507276975E+03  0.00000000000E+00 0. -1.
         -3    1    6    6    0  503  0.61857236354E+02  0.27899513490E+03 -0.32178814622E+02  0.28757621442E+03  0.00000000000E+00 0.  1.
<mgrwt>
<rscale>  0 0.19685082E+04</rscale>
<asrwt>0</asrwt>
<pdfrwt beam="1">  1        2 0.38363090E+00 0.19685082E+04</pdfrwt>
<pdfrwt beam="2">  1       -1 0.59768751E-01 0.19685082E+04</pdfrwt>
<totfact> 0.10572312E+01</totfact>
</mgrwt>
</event>
<event>
12    6  0.1569942E-007  0.1410445E+04  0.7818608E-02  0.8946292E-01
          2   -1    0    0  501    0  0.00000000000E+00  0.00000000000E+00  0.18332813531E+04  0.18332813531E+04  0.00000000000E+00 0. -1.
         -1   -1    0    0    0  501 -0.00000000000E+00 -0.00000000000E+00 -0.27128337950E+03  0.27128337950E+03  0.00000000000E+00 0.  1.
         24    2    1    2    0    0  0.39391891488E+03 -0.33268576850E+02  0.43955414581E+03  0.59656486590E+03  0.80018013071E+02 0.  0.
        254    2    1    2    0    0 -0.39391891488E+03  0.33268576850E+02  0.11224438278E+04  0.15079998667E+04  0.92623136513E+03 0.  0.
         23    2    4    4    0    0  0.23091340320E+02  0.41877781540E+03  0.43569574220E+03  0.61216993583E+03  0.94937779030E+02 0.  0.
         23    2    4    4    0    0 -0.41701025520E+03 -0.38550923855E+03  0.68674808561E+03  0.89582993090E+03  0.91506317001E+02 0.  0.
          4    1    3    3  502    0  0.32805205275E+03 -0.49152460180E+02  0.39339272593E+03  0.51457939180E+03  0.00000000000E+00 0. -1.
         -3    1    3    3    0  502  0.65866862133E+02  0.15883883330E+02  0.46161419882E+02  0.81985474094E+02  0.00000000000E+00 0.  1.
         11    1    5    5    0    0  0.53248998751E+00  0.15928751346E+03  0.10319484169E+03  0.18979454903E+03  0.00000000000E+00 0. -1.
        -11    1    5    5    0    0  0.22558850332E+02  0.25949030194E+03  0.33250090052E+03  0.42237538680E+03  0.00000000000E+00 0.  1.
          2    1    6    6  503    0 -0.36012682670E+03 -0.29942118326E+03  0.59915377137E+03  0.76047986038E+03  0.00000000000E+00 0. -1.
         -2    1    6    6    0  503 -0.56883428500E+02 -0.86088055297E+02  0.87594314236E+02  0.13535007052E+03  0.00000000000E+00 0.  1.
<mgrwt>
<rscale>  0 0.14104450E+04</rscale>
<asrwt>0</asrwt>
<pdfrwt beam="1">  1        2 0.28204328E+00 0.14104450E+04</pdfrwt>
<pdfrwt beam="2">  1       -1 0.41735906E-01 0.14104450E+04</pdfrwt>
<totfact> 0.51616726E+01</totfact>
</mgrwt>
</event>
<event>
12    6  0.1569942E-007  0.1735840E+04  0.7818608E-02  0.8741183E-01
          2   -1    0    0  501    0  0.00000000000E+00  0.00000000000E+00  0.12809312083E+04  0.12809312083E+04  0.00000000000E+00 0. -1.
         -1   -1    0    0    0  501 -0.00000000000E+00 -0.00000000000E+00 -0.58807627201E+03  0.58807627201E+03  0.00000000000E+00 0.  1.
         24    2    1    2    0    0 -0.62026750256E+03 -0.11320784081E+03  0.15398611939E+03  0.65369631850E+03  0.77841903281E+02 0.  0.
        254    2    1    2    0    0  0.62026750256E+03  0.11320784081E+03  0.53886881694E+03  0.12153111618E+04  0.88828701908E+03 0.  0.
         23    2    4    4    0    0  0.62648731146E+03  0.10677818086E+03 -0.26091815399E+02  0.64287815280E+03  0.93400241938E+02 0.  0.
         23    2    4    4    0    0 -0.62198088944E+01  0.64296599475E+01  0.56496063234E+03  0.57243300903E+03  0.91755148029E+02 0.  0.
          2    1    3    3  502    0 -0.18636529646E+03 -0.67746937261E+02  0.62675500186E+02  0.20796607790E+03  0.00000000000E+00 0. -1.
         -1    1    3    3    0  502 -0.43390220610E+03 -0.45460903546E+02  0.91310619203E+02  0.44573024060E+03  0.00000000000E+00 0.  1.
         11    1    5    5    0    0  0.37076200846E+03  0.10197498089E+03 -0.40779640909E+02  0.38668636226E+03  0.00000000000E+00 0.  1.
        -11    1    5    5    0    0  0.25572530300E+03  0.48031999695E+01  0.14687825510E+02  0.25619179054E+03  0.00000000000E+00 0. -1.
          3    1    6    6  503    0  0.23149379728E+02  0.52703801133E+01  0.39044609826E+02  0.45696304498E+02  0.00000000000E+00 0. -1.
         -3    1    6    6    0  503 -0.29369188622E+02  0.11592798342E+01  0.52591602251E+03  0.52673670454E+03  0.00000000000E+00 0.  1.
<mgrwt>
<rscale>  0 0.17358401E+04</rscale>
<asrwt>0</asrwt>
<pdfrwt beam="1">  1        2 0.19706634E+00 0.17358401E+04</pdfrwt>
<pdfrwt beam="2">  1       -1 0.90473273E-01 0.17358401E+04</pdfrwt>
<totfact> 0.21909932E+01</totfact>
</mgrwt>
</event>
<event>
12    6  0.1569942E-007  0.1958542E+04  0.7818608E-02  0.8626252E-01
         -1   -1    0    0    0  501 -0.00000000000E+00  0.00000000000E+00  0.30459149842E+03  0.30459149842E+03  0.00000000000E+00 0.  1.
          2   -1    0    0  501    0  0.00000000000E+00 -0.00000000000E+00 -0.31483878255E+04  0.31483878255E+04  0.00000000000E+00 0. -1.
         24    2    1    2    0    0 -0.52997789264E+03  0.28399352603E+03 -0.31073141724E+03  0.68116672829E+03  0.76845354834E+02 0.  0.
        254    2    1    2    0    0  0.52997789264E+03 -0.28399352603E+03 -0.25330649098E+04  0.27718125956E+04  0.95131400611E+03 0.  0.
         23    2    4    4    0    0 -0.13130195096E+03  0.85629620804E+02 -0.13623021018E+04  0.13743723539E+04  0.91976715875E+02 0.  0.
         23    2    4    4    0    0  0.66127984361E+03 -0.36962314683E+03 -0.11707628080E+04  0.13974402417E+04  0.90782015223E+02 0.  0.
          2    1    3    3  502    0 -0.13778983413E+03  0.93455627978E+02 -0.53284280808E+02  0.17481192000E+03  0.00000000000E+00 0. -1.
         -1    1    3    3    0  502 -0.39218805851E+03  0.19053789805E+03 -0.25744713643E+03  0.50635480830E+03  0.00000000000E+00 0.  1.
         11    1    5    5    0    0 -0.19475946835E+02 -0.18912094834E+02 -0.27704532716E+03  0.27837222048E+03  0.00000000000E+00 0.  1.
        -11    1    5    5    0    0 -0.11182600413E+03  0.10454171564E+03 -0.10852567746E+04  0.10960001334E+04  0.00000000000E+00 0. -1.
          3    1    6    6  503    0  0.23835975968E+03 -0.17284382931E+03 -0.50422404187E+03  0.58389403899E+03  0.00000000000E+00 0. -1.
         -3    1    6    6    0  503  0.42292008392E+03 -0.19677931752E+03 -0.66653876616E+03  0.81354620273E+03  0.00000000000E+00 0.  1.
<mgrwt>
<rscale>  0 0.19585425E+04</rscale>
<asrwt>0</asrwt>
<pdfrwt beam="1">  1        2 0.48436735E+00 0.19585425E+04</pdfrwt>
<pdfrwt beam="2">  1       -1 0.46860231E-01 0.19585425E+04</pdfrwt>
<totfact> 0.67702729E+00</totfact>
</mgrwt>
</event>
<event>
12    6  0.1569942E-007  0.1544956E+04  0.7818608E-02  0.8855096E-01
          2   -1    0    0  501    0  0.00000000000E+00  0.00000000000E+00  0.20481723403E+04  0.20481723403E+04  0.00000000000E+00 0. -1.
         -1   -1    0    0    0  501 -0.00000000000E+00 -0.00000000000E+00 -0.29134391265E+03  0.29134391265E+03  0.00000000000E+00 0.  1.
         24    2    1    2    0    0  0.76391192907E+02 -0.36956138846E+03  0.99171730985E+03  0.10635071516E+04  0.71644991121E+02 0.  0.
        254    2    1    2    0    0 -0.76391192907E+02  0.36956138846E+03  0.76511111784E+03  0.12760091013E+04  0.94889038876E+03 0.  0.
         23    2    4    4    0    0 -0.19036631626E+02  0.20946955374E+03  0.96921105119E+03  0.99602031261E+03  0.91904918786E+02 0.  0.
         23    2    4    4    0    0 -0.57354561281E+02  0.16009183472E+03 -0.20409993335E+03  0.27998878874E+03  0.88419442326E+02 0.  0.
          2    1    3    3  502    0  0.42672735257E+02 -0.32174533980E+03  0.81013274131E+03  0.87272910147E+03  0.00000000000E+00 0. -1.
         -1    1    3    3    0  502  0.33718457649E+02 -0.47816048661E+02  0.18158456855E+03  0.19077805018E+03  0.00000000000E+00 0.  1.
         11    1    5    5    0    0 -0.18814887105E+02  0.32427465194E+02  0.34983606486E+03  0.35183918593E+03  0.00000000000E+00 0. -1.
        -11    1    5    5    0    0 -0.22174452170E+00  0.17704208854E+03  0.61937498633E+03  0.64418112668E+03  0.00000000000E+00 0.  1.
          3    1    6    6  503    0  0.13079958036E-01  0.21484456710E+01 -0.55879577745E+02  0.55920865505E+02  0.00000000000E+00 0. -1.
         -3    1    6    6    0  503 -0.57367641239E+02  0.15794338905E+03 -0.14822035560E+03  0.22406792323E+03  0.00000000000E+00 0.  1.
<mgrwt>
<rscale>  0 0.15449564E+04</rscale>
<asrwt>0</asrwt>
<pdfrwt beam="1">  1        2 0.31510343E+00 0.15449564E+04</pdfrwt>
<pdfrwt beam="2">  1       -1 0.44822142E-01 0.15449564E+04</pdfrwt>
<totfact> 0.34003104E+01</totfact>
</mgrwt>
</event>
<event>
12    6  0.1569942E-007  0.1993616E+04  0.7818608E-02  0.8609611E-01
         -1   -1    0    0    0  501 -0.00000000000E+00  0.00000000000E+00  0.81314606125E+03  0.81314606125E+03  0.00000000000E+00 0.  1.
          2   -1    0    0  501    0  0.00000000000E+00 -0.00000000000E+00 -0.12219529625E+04  0.12219529625E+04  0.00000000000E+00 0. -1.
         24    2    1    2    0    0  0.73017963943E+03  0.16485611895E+03 -0.40489815861E+03  0.85587881194E+03  0.90808458280E+02 0.  0.
        254    2    1    2    0    0 -0.73017963943E+03 -0.16485611895E+03 -0.39087426453E+01  0.11792202118E+04  0.91115596022E+03 0.  0.
         23    2    4    4    0    0 -0.55182415023E+03 -0.19792246607E+03  0.40784130452E+03  0.72021267507E+03  0.93212511519E+02 0.  0.
         23    2    4    4    0    0 -0.17835548920E+03  0.33066347128E+02 -0.41175004716E+03  0.45900753673E+03  0.90806131927E+02 0.  0.
          4    1    3    3  502    0  0.72681479734E+03  0.15436170431E+03 -0.39896314896E+03  0.84336165411E+03  0.00000000000E+00 0. -1.
         -3    1    3    3    0  502  0.33648420919E+01  0.10494414632E+02 -0.59350096456E+01  0.12517157835E+02  0.00000000000E+00 0.  1.
         11    1    5    5    0    0 -0.53914097901E+03 -0.19769916148E+03  0.41212098411E+03  0.70682505562E+03  0.00000000000E+00 0. -1.
        -11    1    5    5    0    0 -0.12683171219E+02 -0.22330459690E+00 -0.42796795988E+01  0.13387619452E+02  0.00000000000E+00 0.  1.
          1    1    6    6  503    0 -0.15700144185E+03  0.38905559390E+02 -0.40461505054E+03  0.43574813186E+03  0.00000000000E+00 0. -1.
         -1    1    6    6    0  503 -0.21354047348E+02 -0.58392122623E+01 -0.71349966181E+01  0.23259404866E+02  0.00000000000E+00 0.  1.
<mgrwt>
<rscale>  0 0.19936160E+04</rscale>
<asrwt>0</asrwt>
<pdfrwt beam="1">  1        2 0.18799276E+00 0.19936160E+04</pdfrwt>
<pdfrwt beam="2">  1       -1 0.12509939E+00 0.19936160E+04</pdfrwt>
<totfact> 0.10878956E+01</totfact>
</mgrwt>
</event>
<event>
12    6  0.1569942E-007  0.1355161E+04  0.7818608E-02  0.8986930E-01
          2   -1    0    0  501    0  0.00000000000E+00  0.00000000000E+00  0.82472076738E+03  0.82472076738E+03  0.00000000000E+00 0. -1.
         -1   -1    0    0    0  501 -0.00000000000E+00 -0.00000000000E+00 -0.55669189028E+03  0.55669189028E+03  0.00000000000E+00 0.  1.
         24    2    1    2    0    0  0.37753865137E+02 -0.34921705300E+03 -0.28580411025E+02  0.36061208279E+03  0.76461296880E+02 0.  0.
        254    2    1    2    0    0 -0.37753865137E+02  0.34921705300E+03  0.29660928812E+03  0.10208005749E+04  0.91141584329E+03 0.  0.
         23    2    4    4    0    0  0.40877679548E+03  0.13434968778E+03  0.78070993228E+01  0.43986990752E+03  0.90974049147E+02 0.  0.
         23    2    4    4    0    0 -0.44653066061E+03  0.21486736523E+03  0.28880218880E+03  0.58093066734E+03  0.92282828824E+02 0.  0.
          4    1    3    3  502    0 -0.16350341227E+02 -0.30017410000E+02 -0.12719117359E+02  0.36471283330E+02  0.00000000000E+00 0. -1.
         -3    1    3    3    0  502  0.54104206363E+02 -0.31919964300E+03 -0.15861293666E+02  0.32414079946E+03  0.00000000000E+00 0.  1.
         11    1    5    5    0    0 -0.23211784803E+01 -0.22037972046E+01 -0.56314477565E+01  0.64774837314E+01  0.00000000000E+00 0.  1.
        -11    1    5    5    0    0  0.41109797396E+03  0.13655348498E+03  0.13438547079E+02  0.43339242379E+03  0.00000000000E+00 0. -1.
          3    1    6    6  503    0 -0.37799927464E+03  0.14189715227E+03  0.23782288888E+03  0.46859148512E+03  0.00000000000E+00 0. -1.
         -3    1    6    6    0  503 -0.68531385979E+02  0.72970212957E+02  0.50979299913E+02  0.11233918222E+03  0.00000000000E+00 0.  1.
<mgrwt>
<rscale>  0 0.13551610E+04</rscale>
<asrwt>0</asrwt>
<pdfrwt beam="1">  1        2 0.12688012E+00 0.13551610E+04</pdfrwt>
<pdfrwt beam="2">  1       -1 0.85644907E-01 0.13551610E+04</pdfrwt>
<totfact> 0.49662644E+01</totfact>
</mgrwt>
</event>
<event>
12    6  0.1569942E-007  0.1442613E+04  0.7818608E-02  0.8923538E-01
         -1   -1    0    0    0  501 -0.00000000000E+00  0.00000000000E+00  0.72364831523E+03  0.72364831523E+03  0.00000000000E+00 0.  1.
          2   -1    0    0  501    0  0.00000000000E+00 -0.00000000000E+00 -0.71897241311E+03  0.71897241311E+03  0.00000000000E+00 0. -1.
         24    2    1    2    0    0  0.40895933104E+03  0.47726616641E+02 -0.14461250489E+03  0.44460517900E+03  0.85061297006E+02 0.  0.
        254    2    1    2    0    0 -0.40895933104E+03 -0.47726616641E+02  0.14928840701E+03  0.99801554933E+03  0.89678450247E+03 0.  0.
         23    2    4    4    0    0  0.39192347878E+02 -0.39666080142E+03  0.40481751013E+02  0.41074063531E+03  0.90516660426E+02 0.  0.
         23    2    4    4    0    0 -0.44815167891E+03  0.34893418478E+03  0.10880665600E+03  0.58727491402E+03  0.10226408771E+03 0.  0.
          4    1    3    3  502    0  0.26700823552E+03  0.56625960050E+02 -0.61211082898E+02  0.27972610507E+03  0.00000000000E+00 0. -1.
         -3    1    3    3    0  502  0.14195109551E+03 -0.88993434091E+01 -0.83401421991E+02  0.16487907393E+03  0.00000000000E+00 0.  1.
         11    1    5    5    0    0  0.39638090176E+02 -0.37915447088E+03  0.17200803615E+02  0.38160864590E+03  0.00000000000E+00 0. -1.
        -11    1    5    5    0    0 -0.44574229715E+00 -0.17506330538E+02  0.23280947398E+02  0.29131989408E+02  0.00000000000E+00 0.  1.
          4    1    6    6  503    0 -0.29441018295E+03  0.26854490060E+03  0.11139143960E+03  0.41376535897E+03  0.00000000000E+00 0. -1.
         -4    1    6    6    0  503 -0.15374149596E+03  0.80389284177E+02 -0.25847836003E+01  0.17350955506E+03  0.00000000000E+00 0.  1.
<mgrwt>
<rscale>  0 0.14426132E+04</rscale>
<asrwt>0</asrwt>
<pdfrwt beam="1">  1        2 0.11061114E+00 0.14426132E+04</pdfrwt>
<pdfrwt beam="2">  1       -1 0.11133051E+00 0.14426132E+04</pdfrwt>
<totfact> 0.32562267E+01</totfact>
</mgrwt>
</event>
<event>
12    6  0.1569942E-007  0.1832682E+04  0.7818608E-02  0.8689110E-01
          2   -1    0    0  501    0  0.00000000000E+00  0.00000000000E+00  0.56976810435E+03  0.56976810435E+03  0.00000000000E+00 0. -1.
         -1   -1    0    0    0  501 -0.00000000000E+00 -0.00000000000E+00 -0.14737242760E+04  0.14737242760E+04  0.00000000000E+00 0.  1.
         24    2    1    2    0    0 -0.53316264709E+02 -0.45858750559E+03  0.23276472170E+03  0.52327702824E+03  0.80587271023E+02 0.  0.
        254    2    1    2    0    0  0.53316264709E+02  0.45858750559E+03 -0.11367208934E+04  0.15202153521E+04  0.89764982207E+03 0.  0.
         23    2    4    4    0    0  0.29189080037E+01 -0.21552593875E+03 -0.62813292063E+03  0.66993996705E+03  0.88366527446E+02 0.  0.
         23    2    4    4    0    0  0.50397356705E+02  0.67411344434E+03 -0.50858797274E+03  0.85027538508E+03  0.85660230259E+02 0.  0.
          4    1    3    3  502    0 -0.47747540381E+01 -0.24538370960E+02  0.37004434168E+02  0.44657116718E+02  0.00000000000E+00 0. -1.
         -3    1    3    3    0  502 -0.48541510671E+02 -0.43404913463E+03  0.19576028753E+03  0.47861991152E+03  0.00000000000E+00 0.  1.
         11    1    5    5    0    0 -0.36134923766E+02 -0.48915612544E+02 -0.19350481214E+03  0.20283634336E+03  0.00000000000E+00 0.  1.
        -11    1    5    5    0    0  0.39053831770E+02 -0.16661032621E+03 -0.43462810849E+03  0.46710362369E+03  0.00000000000E+00 0. -1.
          4    1    6    6  503    0  0.92114301334E+01  0.13458548980E+02 -0.27529171646E+02  0.31997472982E+02  0.00000000000E+00 0.  1.
         -4    1    6    6    0  503  0.41185926572E+02  0.66065489536E+03 -0.48105880110E+03  0.81827791210E+03  0.00000000000E+00 0. -1.
<mgrwt>
<rscale>  0 0.18326823E+04</rscale>
<asrwt>0</asrwt>
<pdfrwt beam="1">  1        2 0.87656635E-01 0.18326823E+04</pdfrwt>
<pdfrwt beam="2">  1       -1 0.22672680E+00 0.18326823E+04</pdfrwt>
<totfact> 0.56335914E+00</totfact>
</mgrwt>
</event>
<event>
12    6  0.1569942E-007  0.1880967E+04  0.7818608E-02  0.8664389E-01
          2   -1    0    0  501    0  0.00000000000E+00  0.00000000000E+00  0.90447699760E+03  0.90447699760E+03  0.00000000000E+00 0. -1.
         -1   -1    0    0    0  501 -0.00000000000E+00 -0.00000000000E+00 -0.97792341710E+03  0.97792341710E+03  0.00000000000E+00 0.  1.
         24    2    1    2    0    0 -0.15779504717E+03 -0.33451287019E+03 -0.65503001404E+03  0.75673731554E+03  0.82394831127E+02 0.  0.
        254    2    1    2    0    0  0.15779504717E+03  0.33451287019E+03  0.58158359454E+03  0.11256630992E+04  0.88998865057E+03 0.  0.
         23    2    4    4    0    0  0.36613605013E+02  0.41416165042E+03  0.76479731872E+03  0.87490185244E+03  0.87566454446E+02 0.  0.
         23    2    4    4    0    0  0.12118144215E+03 -0.79648780223E+02 -0.18321372418E+03  0.25076124672E+03  0.91022327020E+02 0.  0.
          2    1    3    3  502    0 -0.11289916110E+03 -0.26503969954E+03 -0.43570389990E+03  0.52233145731E+03  0.00000000000E+00 0. -1.
         -1    1    3    3    0  502 -0.44895886065E+02 -0.69473170655E+02 -0.21932611414E+03  0.23440585823E+03  0.00000000000E+00 0.  1.
         11    1    5    5    0    0  0.64994182945E+02  0.32076819068E+03  0.58991593071E+03  0.67462380723E+03  0.00000000000E+00 0.  1.
        -11    1    5    5    0    0 -0.28380577932E+02  0.93393459737E+02  0.17488138800E+03  0.20027804521E+03  0.00000000000E+00 0. -1.
          3    1    6    6  503    0  0.17031127771E+02  0.88653005433E+01  0.33459227883E+01  0.19489691279E+02  0.00000000000E+00 0. -1.
         -3    1    6    6    0  503  0.10415031438E+03 -0.88514080766E+02 -0.18655964697E+03  0.23127155544E+03  0.00000000000E+00 0.  1.
<mgrwt>
<rscale>  0 0.18809670E+04</rscale>
<asrwt>0</asrwt>
<pdfrwt beam="1">  1        2 0.13915031E+00 0.18809670E+04</pdfrwt>
<pdfrwt beam="2">  1       -1 0.15044976E+00 0.18809670E+04</pdfrwt>
<totfact> 0.10786646E+01</totfact>
</mgrwt>
</event>
<event>
12    6  0.1569942E-007  0.2018241E+04  0.7818608E-02  0.8598140E-01
          2   -1    0    0  501    0  0.00000000000E+00  0.00000000000E+00  0.90223254449E+03  0.90223254449E+03  0.00000000000E+00 0. -1.
         -1   -1    0    0    0  501 -0.00000000000E+00 -0.00000000000E+00 -0.11286714257E+04  0.11286714257E+04  0.00000000000E+00 0.  1.
         24    2    1    2    0    0  0.52328421216E+03 -0.52335410060E+03 -0.40362881436E+03  0.84658495698E+03  0.77871614138E+02 0.  0.
        254    2    1    2    0    0 -0.52328421216E+03  0.52335410060E+03  0.17718993312E+03  0.11843190132E+04  0.90746315154E+03 0.  0.
         23    2    4    4    0    0 -0.28696783020E+03 -0.18905674620E+03  0.23470263416E+03  0.42601978376E+03  0.91184104017E+02 0.  0.
         23    2    4    4    0    0 -0.23631638196E+03  0.71241084680E+03 -0.57512701037E+02  0.75829922947E+03  0.91298212510E+02 0.  0.
          2    1    3    3  502    0  0.18864838085E+03 -0.18716512790E+03 -0.18805375892E+03  0.32555063038E+03  0.00000000000E+00 0. -1.
         -1    1    3    3    0  502  0.33463583131E+03 -0.33618897270E+03 -0.21557505544E+03  0.52103432659E+03  0.00000000000E+00 0.  1.
         11    1    5    5    0    0 -0.23945066711E+03 -0.16013337692E+03  0.15024638305E+03  0.32488966743E+03  0.00000000000E+00 0.  1.
        -11    1    5    5    0    0 -0.47517163085E+02 -0.28923369281E+02  0.84456251106E+02  0.10113011633E+03  0.00000000000E+00 0. -1.
          1    1    6    6  503    0 -0.78390544106E+01  0.13247527212E+02 -0.15047547600E+02  0.21526180341E+02  0.00000000000E+00 0. -1.
         -1    1    6    6    0  503 -0.22847732755E+03  0.69916331959E+03 -0.42465153437E+02  0.73677304913E+03  0.00000000000E+00 0.  1.
<mgrwt>
<rscale>  0 0.20182409E+04</rscale>
<asrwt>0</asrwt>
<pdfrwt beam="1">  1        2 0.13880501E+00 0.20182409E+04</pdfrwt>
<pdfrwt beam="2">  1       -1 0.17364176E+00 0.20182409E+04</pdfrwt>
<totfact> 0.71566815E+00</totfact>
</mgrwt>
</event>
<event>
12    6  0.1569942E-007  0.1979829E+04  0.7818608E-02  0.8616110E-01
         -1   -1    0    0    0  501 -0.00000000000E+00  0.00000000000E+00  0.43753861488E+03  0.43753861488E+03  0.00000000000E+00 0.  1.
          2   -1    0    0  501    0  0.00000000000E+00 -0.00000000000E+00 -0.22396443450E+04  0.22396443450E+04  0.00000000000E+00 0. -1.
         24    2    1    2    0    0 -0.20948262347E+03  0.61550885590E+03 -0.12487462919E+03  0.66685665567E+03  0.79812310911E+02 0.  0.
        254    2    1    2    0    0  0.20948262347E+03 -0.61550885590E+03 -0.16772311009E+04  0.20103263042E+04  0.89753749907E+03 0.  0.
         23    2    4    4    0    0  0.46242041966E+03 -0.53084884493E+02 -0.85689174329E+03  0.97994653774E+03  0.96856118214E+02 0.  0.
         23    2    4    4    0    0 -0.25293779619E+03 -0.56242397141E+03 -0.82033935759E+03  0.10303797664E+04  0.91801683479E+02 0.  0.
          2    1    3    3  502    0  0.65315492696E+01  0.16744318577E+02  0.96353898976E+00  0.17998937409E+02  0.00000000000E+00 0. -1.
         -1    1    3    3    0  502 -0.21601417274E+03  0.59876453732E+03 -0.12583816818E+03  0.64885771826E+03  0.00000000000E+00 0.  1.
         11    1    5    5    0    0  0.93887894310E+02  0.15122279706E+02 -0.11902501483E+03  0.15235016967E+03  0.00000000000E+00 0. -1.
        -11    1    5    5    0    0  0.36853252535E+03 -0.68207164199E+02 -0.73786672846E+03  0.82759636808E+03  0.00000000000E+00 0.  1.
          3    1    6    6  503    0 -0.18896687197E+02 -0.12571838929E+03 -0.14609569954E+03  0.19366505007E+03  0.00000000000E+00 0. -1.
         -3    1    6    6    0  503 -0.23404110900E+03 -0.43670558212E+03 -0.67424365805E+03  0.83671471636E+03  0.00000000000E+00 0.  1.
<mgrwt>
<rscale>  0 0.19798292E+04</rscale>
<asrwt>0</asrwt>
<pdfrwt beam="1">  1        2 0.34456067E+00 0.19798292E+04</pdfrwt>
<pdfrwt beam="2">  1       -1 0.67313633E-01 0.19798292E+04</pdfrwt>
<totfact> 0.11616465E+01</totfact>
</mgrwt>
</event>
<event>
12    6  0.1569942E-007  0.1768186E+04  0.7818608E-02  0.8723403E-01
         -1   -1    0    0    0  501 -0.00000000000E+00  0.00000000000E+00  0.45275274204E+03  0.45275274204E+03  0.00000000000E+00 0.  1.
          2   -1    0    0  501    0  0.00000000000E+00 -0.00000000000E+00 -0.17263737433E+04  0.17263737433E+04  0.00000000000E+00 0. -1.
         24    2    1    2    0    0  0.21723717665E+03  0.60542853743E+03 -0.34433798114E+03  0.73387847665E+03  0.79203966994E+02 0.  0.
        254    2    1    2    0    0 -0.21723717665E+03 -0.60542853743E+03 -0.92928302007E+03  0.14452480086E+04  0.90079918419E+03 0.  0.
         23    2    4    4    0    0  0.25897169048E+03 -0.55399883392E+03 -0.48961336931E+03  0.78886515828E+03  0.92768217012E+02 0.  0.
         23    2    4    4    0    0 -0.47620886713E+03 -0.51429703511E+02 -0.43966965077E+03  0.65638285036E+03  0.90050790690E+02 0.  0.
          2    1    3    3  502    0  0.16253967054E+03  0.52656839050E+03 -0.27819912335E+03  0.61732338900E+03  0.00000000000E+00 0. -1.
         -1    1    3    3    0  502  0.54697506113E+02  0.78860146932E+02 -0.66138857789E+02  0.11655508766E+03  0.00000000000E+00 0.  1.
         11    1    5    5    0    0  0.88066842649E+02 -0.25536528080E+03 -0.16947250834E+03  0.31888575775E+03  0.00000000000E+00 0.  1.
        -11    1    5    5    0    0  0.17090484784E+03 -0.29863355312E+03 -0.32014086097E+03  0.46997940053E+03  0.00000000000E+00 0. -1.
          2    1    6    6  503    0 -0.14665694512E+03 -0.57963397262E+02 -0.14698801296E+03  0.21557711132E+03  0.00000000000E+00 0. -1.
         -2    1    6    6    0  503 -0.32955192202E+03  0.65336937511E+01 -0.29268163781E+03  0.44080573904E+03  0.00000000000E+00 0.  1.
<mgrwt>
<rscale>  0 0.17681860E+04</rscale>
<asrwt>0</asrwt>
<pdfrwt beam="1">  1        2 0.26559596E+00 0.17681860E+04</pdfrwt>
<pdfrwt beam="2">  1       -1 0.69654269E-01 0.17681860E+04</pdfrwt>
<totfact> 0.21304192E+01</totfact>
</mgrwt>
</event>
<event>
12    6  0.1569942E-007  0.2633448E+04  0.7818608E-02  0.8356928E-01
         -1   -1    0    0    0  501 -0.00000000000E+00  0.00000000000E+00  0.12176744577E+04  0.12176744577E+04  0.00000000000E+00 0.  1.
          2   -1    0    0  501    0  0.00000000000E+00 -0.00000000000E+00 -0.14238306503E+04  0.14238306503E+04  0.00000000000E+00 0. -1.
         24    2    1    2    0    0  0.68301752479E+03  0.52680154825E+03 -0.87090351790E+03  0.12283951062E+04  0.80304352628E+02 0.  0.
        254    2    1    2    0    0 -0.68301752479E+03 -0.52680154825E+03  0.66474732525E+03  0.14131100018E+04  0.90053209841E+03 0.  0.
         23    2    4    4    0    0 -0.27217305456E+03 -0.44468786250E+03 -0.97778950316E+02  0.53829548109E+03  0.91519588881E+02 0.  0.
         23    2    4    4    0    0 -0.41084447022E+03 -0.82113685747E+02  0.76252627557E+03  0.87481452068E+03  0.91204652034E+02 0.  0.
          2    1    3    3  502    0  0.68362338753E+03  0.52758007402E+03 -0.86444624836E+03  0.12218629165E+04  0.00000000000E+00 0. -1.
         -1    1    3    3    0  502 -0.60586274437E+00 -0.77852577200E+00 -0.64572695396E+01  0.65321896749E+01  0.00000000000E+00 0.  1.
         11    1    5    5    0    0 -0.12395404315E+03 -0.16218531647E+03  0.16502264169E+01  0.20413575125E+03  0.00000000000E+00 0. -1.
        -11    1    5    5    0    0 -0.14821901141E+03 -0.28250254604E+03 -0.99429176733E+02  0.33415972984E+03  0.00000000000E+00 0.  1.
          4    1    6    6  503    0 -0.52228873090E+00 -0.18128791581E+01  0.39929532928E+02  0.39974078053E+02  0.00000000000E+00 0. -1.
         -4    1    6    6    0  503 -0.41032218149E+03 -0.80300806589E+02  0.72259674264E+03  0.83484044262E+03  0.00000000000E+00 0.  1.
<mgrwt>
<rscale>  0 0.26334481E+04</rscale>
<asrwt>0</asrwt>
<pdfrwt beam="1">  1        2 0.21905087E+00 0.26334481E+04</pdfrwt>
<pdfrwt beam="2">  1       -1 0.18733453E+00 0.26334481E+04</pdfrwt>
<totfact> 0.25999603E+00</totfact>
</mgrwt>
</event>
<event>
12    6  0.1569942E-007  0.1276745E+04  0.7818608E-02  0.9048213E-01
          2   -1    0    0  501    0  0.00000000000E+00  0.00000000000E+00  0.65288325510E+03  0.65288325510E+03  0.00000000000E+00 0. -1.
         -1   -1    0    0    0  501 -0.00000000000E+00 -0.00000000000E+00 -0.62418405510E+03  0.62418405510E+03  0.00000000000E+00 0.  1.
         24    2    1    2    0    0  0.25555836648E+02  0.24910446149E+03 -0.17517762411E+03  0.31881051395E+03  0.90811950176E+02 0.  0.
        254    2    1    2    0    0 -0.25555836648E+02 -0.24910446149E+03  0.20387682411E+03  0.95825679626E+03  0.90221072630E+03 0.  0.
         23    2    4    4    0    0  0.38581162283E+03 -0.31827010894E+03  0.13194734144E+03  0.52519882553E+03  0.90979310143E+02 0.  0.
         23    2    4    4    0    0 -0.41136745948E+03  0.69165647448E+02  0.71929482668E+02  0.43305797073E+03  0.91423640442E+02 0.  0.
          2    1    3    3  502    0  0.31660633595E+02  0.21273262698E+02 -0.30684427905E+02  0.48953871566E+02  0.00000000000E+00 0. -1.
         -1    1    3    3    0  502 -0.61047969475E+01  0.22783119879E+03 -0.14449319621E+03  0.26985664238E+03  0.00000000000E+00 0.  1.
         11    1    5    5    0    0  0.15405850511E+02  0.53324727963E+01  0.68752608864E+01  0.17693069500E+02  0.00000000000E+00 0. -1.
        -11    1    5    5    0    0  0.37040577232E+03 -0.32360258173E+03  0.12507208056E+03  0.50750575603E+03  0.00000000000E+00 0.  1.
          1    1    6    6  503    0 -0.94503122309E+02  0.51616235771E+02  0.99675471141E-01  0.10768048039E+03  0.00000000000E+00 0. -1.
         -1    1    6    6    0  503 -0.31686433717E+03  0.17549411678E+02  0.71829807196E+02  0.32537749034E+03  0.00000000000E+00 0.  1.
<mgrwt>
<rscale>  0 0.12767448E+04</rscale>
<asrwt>0</asrwt>
<pdfrwt beam="1">  1        2 0.10044358E+00 0.12767448E+04</pdfrwt>
<pdfrwt beam="2">  1       -1 0.96028316E-01 0.12767448E+04</pdfrwt>
<totfact> 0.52444034E+01</totfact>
</mgrwt>
</event>
<event>
12    6  0.1569942E-007  0.1591479E+04  0.7818608E-02  0.8825800E-01
         -1   -1    0    0    0  501 -0.00000000000E+00  0.00000000000E+00  0.68127937394E+03  0.68127937394E+03  0.00000000000E+00 0.  1.
          2   -1    0    0  501    0  0.00000000000E+00 -0.00000000000E+00 -0.92942964450E+03  0.92942964450E+03  0.00000000000E+00 0. -1.
         24    2    1    2    0    0  0.49330304697E+03 -0.13379633049E+03 -0.24608237568E+03  0.57288373143E+03  0.79936724488E+02 0.  0.
        254    2    1    2    0    0 -0.49330304697E+03  0.13379633049E+03 -0.20678948840E+01  0.10378252870E+04  0.90323180632E+03 0.  0.
         23    2    4    4    0    0 -0.45449603051E+03 -0.17414988561E+03  0.31167036190E+03  0.58579850423E+03  0.95533494969E+02 0.  0.
         23    2    4    4    0    0 -0.38807016456E+02  0.30794621610E+03 -0.31373825679E+03  0.45202678277E+03  0.97773524182E+02 0.  0.
          2    1    3    3  502    0  0.39350416529E+03 -0.79280860509E+02 -0.21315145803E+03  0.45449370403E+03  0.00000000000E+00 0. -1.
         -3    1    3    3    0  502  0.99798881681E+02 -0.54515469977E+02 -0.32930917645E+02  0.11839002740E+03  0.00000000000E+00 0.  1.
         11    1    5    5    0    0 -0.36987355604E+03 -0.10655200505E+03  0.21653339960E+03  0.44164068017E+03  0.00000000000E+00 0. -1.
        -11    1    5    5    0    0 -0.84622474472E+02 -0.67597880561E+02  0.95136962301E+02  0.14415782406E+03  0.00000000000E+00 0.  1.
          2    1    6    6  503    0  0.26743941247E+01  0.21601315470E+03 -0.25901289961E+03  0.33727810121E+03  0.00000000000E+00 0. -1.
         -2    1    6    6    0  503 -0.41481410580E+02  0.91933061402E+02 -0.54725357174E+02  0.11474868156E+03  0.00000000000E+00 0.  1.
<mgrwt>
<rscale>  0 0.15914789E+04</rscale>
<asrwt>0</asrwt>
<pdfrwt beam="1">  1        2 0.14298918E+00 0.15914789E+04</pdfrwt>
<pdfrwt beam="2">  1       -1 0.10481221E+00 0.15914789E+04</pdfrwt>
<totfact> 0.26234220E+01</totfact>
</mgrwt>
</event>
<event>
12    6  0.1569942E-007  0.1425797E+04  0.7818608E-02  0.8935354E-01
         -1   -1    0    0    0  501 -0.00000000000E+00  0.00000000000E+00  0.14986745438E+03  0.14986745438E+03  0.00000000000E+00 0.  1.
          2   -1    0    0  501    0  0.00000000000E+00 -0.00000000000E+00 -0.33911596164E+04  0.33911596164E+04  0.00000000000E+00 0. -1.
         24    2    1    2    0    0  0.80086862719E+02 -0.39823495695E+03 -0.68447016564E+03  0.79992976208E+03  0.79895119318E+02 0.  0.
        254    2    1    2    0    0 -0.80086862719E+02  0.39823495695E+03 -0.25568219964E+04  0.27410973087E+04  0.90070569451E+03 0.  0.
         23    2    4    4    0    0  0.38577449483E+03  0.25035964544E+03 -0.15283957161E+04  0.15987255068E+04  0.91803422010E+02 0.  0.
         23    2    4    4    0    0 -0.46586135754E+03  0.14787531151E+03 -0.10284262803E+04  0.11423718019E+04  0.91971775782E+02 0.  0.
          2    1    3    3  502    0  0.12188251761E+02 -0.43357159052E+02 -0.13494612254E+03  0.14226332174E+03  0.00000000000E+00 0. -1.
         -3    1    3    3    0  502  0.67898610958E+02 -0.35487779790E+03 -0.54952404310E+03  0.65766644034E+03  0.00000000000E+00 0.  1.
         11    1    5    5    0    0  0.30679466701E+03  0.21748694753E+03 -0.13408825459E+04  0.13926196689E+04  0.00000000000E+00 0. -1.
        -11    1    5    5    0    0  0.78979827812E+02  0.32872697904E+02 -0.18751317014E+03  0.20610583797E+03  0.00000000000E+00 0.  1.
          1    1    6    6  503    0 -0.33668732713E+03  0.76432396430E+02 -0.64654294255E+03  0.73295159734E+03  0.00000000000E+00 0. -1.
         -1    1    6    6    0  503 -0.12917403041E+03  0.71442915082E+02 -0.38188333776E+03  0.40942020457E+03  0.00000000000E+00 0.  1.
<mgrwt>
<rscale>  0 0.14257973E+04</rscale>
<asrwt>0</asrwt>
<pdfrwt beam="1">  1        2 0.52171689E+00 0.14257973E+04</pdfrwt>
<pdfrwt beam="2">  1       -1 0.23056530E-01 0.14257973E+04</pdfrwt>
<totfact> 0.17455834E+01</totfact>
</mgrwt>
</event>
<event>
12    6  0.1569942E-007  0.1067538E+04  0.7818608E-02  0.9237422E-01
         -1   -1    0    0    0  501 -0.00000000000E+00  0.00000000000E+00  0.22682800913E+03  0.22682800913E+03  0.00000000000E+00 0.  1.
          2   -1    0    0  501    0  0.00000000000E+00 -0.00000000000E+00 -0.12560583750E+04  0.12560583750E+04  0.00000000000E+00 0. -1.
         24    2    1    2    0    0  0.48386783720E+02  0.59193532400E+02  0.52822271440E+02  0.12217464680E+03  0.79317695647E+02 0.  0.
        254    2    1    2    0    0 -0.48386783720E+02 -0.59193532400E+02 -0.10820526373E+04  0.13607117373E+04  0.82149459347E+03 0.  0.
         23    2    4    4    0    0 -0.50105616191E+02 -0.24102515425E+03 -0.31724364806E+01  0.26289392447E+03  0.92192480242E+02 0.  0.
         23    2    4    4    0    0  0.17188324706E+01  0.18183162185E+03 -0.10788802008E+04  0.10978178128E+04  0.90309298685E+02 0.  0.
          2    1    3    3  502    0  0.46535632870E+02 -0.50120393389E+00  0.73602231382E+01  0.47116761526E+02  0.00000000000E+00 0. -1.
         -1    1    3    3    0  502  0.18511508502E+01  0.59694736334E+02  0.45462048302E+02  0.75057885270E+02  0.00000000000E+00 0.  1.
         11    1    5    5    0    0 -0.24888035657E+02 -0.23541826298E+03 -0.66745323190E+01  0.23682424336E+03  0.00000000000E+00 0. -1.
        -11    1    5    5    0    0 -0.25217580534E+02 -0.56068912753E+01  0.35020958383E+01  0.26069681107E+02  0.00000000000E+00 0.  1.
          2    1    6    6  503    0 -0.70909444548E+01  0.15131362824E+03 -0.10174180531E+04  0.10286328744E+04  0.00000000000E+00 0. -1.
         -2    1    6    6    0  503  0.88097769254E+01  0.30517993611E+02 -0.61462147704E+02  0.69184938418E+02  0.00000000000E+00 0.  1.
<mgrwt>
<rscale>  0 0.10675378E+04</rscale>
<asrwt>0</asrwt>
<pdfrwt beam="1">  1        2 0.19323975E+00 0.10675378E+04</pdfrwt>
<pdfrwt beam="2">  1       -1 0.34896617E-01 0.10675378E+04</pdfrwt>
<totfact> 0.15498390E+02</totfact>
</mgrwt>
</event>
<event>
12    6  0.1569942E-007  0.2050229E+04  0.7818608E-02  0.8583491E-01
         -1   -1    0    0    0  501 -0.00000000000E+00  0.00000000000E+00  0.77938997707E+03  0.77938997707E+03  0.00000000000E+00 0.  1.
          2   -1    0    0  501    0  0.00000000000E+00 -0.00000000000E+00 -0.13483100537E+04  0.13483100537E+04  0.00000000000E+00 0. -1.
         24    2    1    2    0    0  0.28111396450E+03 -0.73585487309E+03 -0.48847911513E+03  0.93023837466E+03  0.78893171307E+02 0.  0.
        254    2    1    2    0    0 -0.28111396450E+03  0.73585487309E+03 -0.80440961493E+02  0.11974616561E+04  0.89829628422E+03 0.  0.
         23    2    4    4    0    0 -0.10066010163E+03 -0.19731646955E+03 -0.12034136365E+02  0.24026539342E+03  0.92284308638E+02 0.  0.
         23    2    4    4    0    0 -0.18045386287E+03  0.93317134265E+03 -0.68406825128E+02  0.95719626267E+03  0.90403762047E+02 0.  0.
          4    1    3    3  502    0  0.22030326164E+03 -0.54873394156E+03 -0.40384296178E+03  0.71605279378E+03  0.00000000000E+00 0. -1.
         -3    1    3    3    0  502  0.60810702855E+02 -0.18712093154E+03 -0.84636153352E+02  0.21418558088E+03  0.00000000000E+00 0.  1.
         11    1    5    5    0    0 -0.35614286041E+02 -0.15755309319E+03  0.70292647290E+01  0.16168105982E+03  0.00000000000E+00 0.  1.
        -11    1    5    5    0    0 -0.65045815590E+02 -0.39763376366E+02 -0.19063401094E+02  0.78584333598E+02  0.00000000000E+00 0. -1.
          4    1    6    6  503    0 -0.55324824218E+02  0.16855538528E+03  0.14456151314E+02  0.17799082671E+03  0.00000000000E+00 0. -1.
         -4    1    6    6    0  503 -0.12512903865E+03  0.76461595737E+03 -0.82862976441E+02  0.77920543597E+03  0.00000000000E+00 0.  1.
<mgrwt>
<rscale>  0 0.20502286E+04</rscale>
<asrwt>0</asrwt>
<pdfrwt beam="1">  1        2 0.20743231E+00 0.20502286E+04</pdfrwt>
<pdfrwt beam="2">  1       -1 0.11990615E+00 0.20502286E+04</pdfrwt>
<totfact> 0.10137403E+01</totfact>
</mgrwt>
</event>
<event>
12    6  0.1569942E-007  0.2646636E+04  0.7818608E-02  0.8352530E-01
         -1   -1    0    0    0  501 -0.00000000000E+00  0.00000000000E+00  0.62396335854E+03  0.62396335854E+03  0.00000000000E+00 0.  1.
          2   -1    0    0  501    0  0.00000000000E+00 -0.00000000000E+00 -0.28065283651E+04  0.28065283651E+04  0.00000000000E+00 0. -1.
         24    2    1    2    0    0  0.72385320114E+03  0.33075419786E+03  0.14040169039E+03  0.81207470881E+03  0.79943116197E+02 0.  0.
        254    2    1    2    0    0 -0.72385320114E+03 -0.33075419786E+03 -0.23229666970E+04  0.26184170149E+04  0.90915982764E+03 0.  0.
         23    2    4    4    0    0 -0.34767695937E+03 -0.14584182771E+03 -0.16995917683E+03  0.42312641550E+03  0.89446827332E+02 0.  0.
         23    2    4    4    0    0 -0.37617624177E+03 -0.18491237015E+03 -0.21530075202E+04  0.21952905994E+04  0.90323221127E+02 0.  0.
          2    1    3    3  502    0  0.48699811634E+03  0.18441463866E+03  0.10744674917E+03  0.53171489370E+03  0.00000000000E+00 0. -1.
         -1    1    3    3    0  502  0.23685508480E+03  0.14633955919E+03  0.32954941221E+02  0.28035981511E+03  0.00000000000E+00 0.  1.
         11    1    5    5    0    0 -0.25601552550E+03 -0.11563166594E+03 -0.16649978737E+03  0.32655292168E+03  0.00000000000E+00 0. -1.
        -11    1    5    5    0    0 -0.91661433873E+02 -0.30210161765E+02 -0.34593894653E+01  0.96573493822E+02  0.00000000000E+00 0.  1.
          4    1    6    6  503    0 -0.40815060788E+02 -0.19250494656E+02 -0.41752709633E+03  0.41995872047E+03  0.00000000000E+00 0. -1.
         -4    1    6    6    0  503 -0.33536118098E+03 -0.16566187549E+03 -0.17354804238E+04  0.17753318789E+04  0.00000000000E+00 0.  1.
<mgrwt>
<rscale>  0 0.26466363E+04</rscale>
<asrwt>0</asrwt>
<pdfrwt beam="1">  1        2 0.43177360E+00 0.26466363E+04</pdfrwt>
<pdfrwt beam="2">  1       -1 0.95994361E-01 0.26466363E+04</pdfrwt>
<totfact> 0.24004438E+00</totfact>
</mgrwt>
</event>
<event>
12    6  0.1569942E-007  0.2048525E+04  0.7818608E-02  0.8584264E-01
         -1   -1    0    0    0  501 -0.00000000000E+00  0.00000000000E+00  0.42169417740E+03  0.42169417740E+03  0.00000000000E+00 0.  1.
          2   -1    0    0  501    0  0.00000000000E+00 -0.00000000000E+00 -0.24878532170E+04  0.24878532170E+04  0.00000000000E+00 0. -1.
         24    2    1    2    0    0  0.20607205779E+03  0.45908665125E+03  0.87347493364E+02  0.51693869850E+03  0.79810945685E+02 0.  0.
        254    2    1    2    0    0 -0.20607205779E+03 -0.45908665125E+03 -0.21535065329E+04  0.23926086959E+04  0.91310445064E+03 0.  0.
         23    2    4    4    0    0  0.19037065344E+03 -0.24420549757E+02 -0.14739138010E+04  0.14890554261E+04  0.89592522693E+02 0.  0.
         23    2    4    4    0    0 -0.39644271123E+03 -0.43466610149E+03 -0.67959273188E+03  0.90355326976E+03  0.91982536396E+02 0.  0.
          2    1    3    3  502    0  0.73756344112E+02  0.94401677978E+02  0.39022862000E+02  0.12599388422E+03  0.00000000000E+00 0. -1.
         -1    1    3    3    0  502  0.13231571368E+03  0.36468497327E+03  0.48324631364E+02  0.39094481428E+03  0.00000000000E+00 0.  1.
         11    1    5    5    0    0  0.72668886239E+02 -0.72486295348E+01 -0.89924250944E+03  0.90220308160E+03  0.00000000000E+00 0.  1.
        -11    1    5    5    0    0  0.11770176720E+03 -0.17171920222E+02 -0.57467129161E+03  0.58685234450E+03  0.00000000000E+00 0. -1.
          3    1    6    6  503    0 -0.24874864415E+03 -0.20475766490E+03 -0.36537768562E+03  0.48713698530E+03  0.00000000000E+00 0. -1.
         -3    1    6    6    0  503 -0.14769406708E+03 -0.22990843659E+03 -0.31421504626E+03  0.41641628446E+03  0.00000000000E+00 0.  1.
<mgrwt>
<rscale>  0 0.20485246E+04</rscale>
<asrwt>0</asrwt>
<pdfrwt beam="1">  1        2 0.38274665E+00 0.20485246E+04</pdfrwt>
<pdfrwt beam="2">  1       -1 0.64876028E-01 0.20485246E+04</pdfrwt>
<totfact> 0.89812972E+00</totfact>
</mgrwt>
</event>
<event>
12    6  0.1569942E-007  0.1658931E+04  0.7818608E-02  0.8785141E-01
          2   -1    0    0  501    0  0.00000000000E+00  0.00000000000E+00  0.19769693702E+04  0.19769693702E+04  0.00000000000E+00 0. -1.
         -1   -1    0    0    0  501 -0.00000000000E+00 -0.00000000000E+00 -0.34801380548E+03  0.34801380548E+03  0.00000000000E+00 0.  1.
         24    2    1    2    0    0 -0.52264907583E+03  0.20698175422E+03  0.77066760163E+03  0.95726353600E+03  0.80133776360E+02 0.  0.
        254    2    1    2    0    0  0.52264907583E+03 -0.20698175422E+03  0.85828796307E+03  0.13677196396E+04  0.90443091614E+03 0.  0.
         23    2    4    4    0    0  0.24252951395E+03 -0.54905322524E+03  0.41886246946E+03  0.73756296117E+03  0.90957924789E+02 0.  0.
         23    2    4    4    0    0  0.28011956188E+03  0.34207147102E+03  0.43942549361E+03  0.63015667847E+03  0.92319092012E+02 0.  0.
          4    1    3    3  502    0 -0.37473650147E+03  0.17524953765E+03  0.51999609838E+03  0.66448159365E+03  0.00000000000E+00 0. -1.
         -3    1    3    3    0  502 -0.14791257437E+03  0.31732216572E+02  0.25067150325E+03  0.29278194235E+03  0.00000000000E+00 0.  1.
         11    1    5    5    0    0  0.18528609786E+03 -0.43602184844E+03  0.37244217142E+03  0.60262688409E+03  0.00000000000E+00 0. -1.
        -11    1    5    5    0    0  0.57243416095E+02 -0.11303137680E+03  0.46420298042E+02  0.13493607708E+03  0.00000000000E+00 0.  1.
          3    1    6    6  503    0  0.25291073612E+03  0.31133867218E+03  0.42999584479E+03  0.58804084533E+03  0.00000000000E+00 0. -1.
         -3    1    6    6    0  503  0.27208825761E+02  0.30732798847E+02  0.94296488163E+01  0.42115833140E+02  0.00000000000E+00 0.  1.
<mgrwt>
<rscale>  0 0.16589305E+04</rscale>
<asrwt>0</asrwt>
<pdfrwt beam="1">  1        2 0.30414913E+00 0.16589305E+04</pdfrwt>
<pdfrwt beam="2">  1       -1 0.53540587E-01 0.16589305E+04</pdfrwt>
<totfact> 0.26338494E+01</totfact>
</mgrwt>
</event>
<event>
12    6  0.1569942E-007  0.1973202E+04  0.7818608E-02  0.8619253E-01
          2   -1    0    0  501    0  0.00000000000E+00  0.00000000000E+00  0.71871864383E+03  0.71871864383E+03  0.00000000000E+00 0. -1.
         -1   -1    0    0    0  501 -0.00000000000E+00 -0.00000000000E+00 -0.13543290948E+04  0.13543290948E+04  0.00000000000E+00 0.  1.
         24    2    1    2    0    0  0.52553895625E+03  0.18460332664E+03  0.33554019888E+03  0.65498714704E+03  0.78430574213E+02 0.  0.
        254    2    1    2    0    0 -0.52553895625E+03 -0.18460332664E+03 -0.97115064983E+03  0.14180605916E+04  0.87034055056E+03 0.  0.
         23    2    4    4    0    0 -0.34154245423E+03  0.20761760332E+03 -0.87228118358E+03  0.96434937056E+03  0.96638129174E+02 0.  0.
         23    2    4    4    0    0 -0.18399650202E+03 -0.39222092996E+03 -0.98869466247E+02  0.45371122101E+03  0.91579091822E+02 0.  0.
          4    1    3    3  502    0  0.27829220922E+03  0.10797065850E+03  0.13534428160E+03  0.32775340024E+03  0.00000000000E+00 0. -1.
         -3    1    3    3    0  502  0.24724674703E+03  0.76632668143E+02  0.20019591728E+03  0.32723374679E+03  0.00000000000E+00 0.  1.
         11    1    5    5    0    0 -0.11916083634E+03  0.67479677706E+02 -0.41371331918E+03  0.43578839164E+03  0.00000000000E+00 0. -1.
        -11    1    5    5    0    0 -0.22238161789E+03  0.14013792561E+03 -0.45856786441E+03  0.52856097892E+03  0.00000000000E+00 0.  1.
          3    1    6    6  503    0 -0.10912938487E+03 -0.13843600036E+03 -0.18871065868E+02  0.17728470314E+03  0.00000000000E+00 0. -1.
         -3    1    6    6    0  503 -0.74867117151E+02 -0.25378492960E+03 -0.79998400379E+02  0.27642651787E+03  0.00000000000E+00 0.  1.
<mgrwt>
<rscale>  0 0.19732020E+04</rscale>
<asrwt>0</asrwt>
<pdfrwt beam="1">  1        2 0.11057210E+00 0.19732020E+04</pdfrwt>
<pdfrwt beam="2">  1       -1 0.20835832E+00 0.19732020E+04</pdfrwt>
<totfact> 0.55536315E+00</totfact>
</mgrwt>
</event>
<event>
12    6  0.1569942E-007  0.1584191E+04  0.7818608E-02  0.8830319E-01
          2   -1    0    0  501    0  0.00000000000E+00  0.00000000000E+00  0.30678549087E+04  0.30678549087E+04  0.00000000000E+00 0. -1.
         -1   -1    0    0    0  501 -0.00000000000E+00 -0.00000000000E+00 -0.20451271346E+03  0.20451271346E+03  0.00000000000E+00 0.  1.
         24    2    1    2    0    0 -0.17164205100E+03  0.41263566159E+03  0.46405542943E+03  0.64869117011E+03  0.75654541852E+02 0.  0.
        254    2    1    2    0    0  0.17164205100E+03 -0.41263566159E+03  0.23992867658E+04  0.26236764520E+04  0.96300153558E+03 0.  0.
         23    2    4    4    0    0 -0.69480052775E+02  0.95240322357E+02 -0.70516137977E+01  0.15083169177E+03  0.93820452185E+02 0.  0.
         23    2    4    4    0    0  0.24112210377E+03 -0.50787598395E+03  0.24063383796E+04  0.24728447603E+04  0.91754712439E+02 0.  0.
          4    1    3    3  502    0 -0.10376882131E+02  0.34021547782E+02  0.71993578529E+02  0.80300814103E+02  0.00000000000E+00 0. -1.
         -3    1    3    3    0  502 -0.16126516887E+03  0.37861411381E+03  0.39206185090E+03  0.56839035600E+03  0.00000000000E+00 0.  1.
         11    1    5    5    0    0 -0.32688368753E+02  0.89787545140E+02 -0.37616537652E+02  0.10269048943E+03  0.00000000000E+00 0. -1.
        -11    1    5    5    0    0 -0.36791684022E+02  0.54527772169E+01  0.30564923854E+02  0.48141202340E+02  0.00000000000E+00 0.  1.
          1    1    6    6  503    0  0.15325165336E+03 -0.41206320937E+03  0.18602495930E+04  0.19114943647E+04  0.00000000000E+00 0. -1.
         -1    1    6    6    0  503  0.87870450416E+02 -0.95812774580E+02  0.54608878654E+03  0.56135039557E+03  0.00000000000E+00 0.  1.
<mgrwt>
<rscale>  0 0.15841911E+04</rscale>
<asrwt>0</asrwt>
<pdfrwt beam="1">  1        2 0.47197764E+00 0.15841911E+04</pdfrwt>
<pdfrwt beam="2">  1       -1 0.31463497E-01 0.15841911E+04</pdfrwt>
<totfact> 0.16291800E+01</totfact>
</mgrwt>
</event>
<event>
12    6  0.1569942E-007  0.2864219E+04  0.7818608E-02  0.8283604E-01
          2   -1    0    0  501    0  0.00000000000E+00  0.00000000000E+00  0.25704415121E+04  0.25704415121E+04  0.00000000000E+00 0. -1.
         -1   -1    0    0    0  501 -0.00000000000E+00 -0.00000000000E+00 -0.79789288620E+03  0.79789288620E+03  0.00000000000E+00 0.  1.
         24    2    1    2    0    0 -0.99956075519E+03  0.61502016249E+03  0.17119222982E+03  0.11890264115E+04  0.84294270797E+02 0.  0.
        254    2    1    2    0    0  0.99956075519E+03 -0.61502016249E+03  0.16013563961E+04  0.21793079869E+04  0.89870433992E+03 0.  0.
         23    2    4    4    0    0  0.18796486674E+01 -0.28545112186E+03  0.50461341897E+02  0.30374778511E+03  0.90722069434E+02 0.  0.
         23    2    4    4    0    0  0.99768110652E+03 -0.32956904063E+03  0.15508950542E+04  0.18755602017E+04  0.92017706424E+02 0.  0.
          2    1    3    3  502    0 -0.15522931092E+03  0.61766698564E+02  0.30336449273E+02  0.16979859886E+03  0.00000000000E+00 0. -1.
         -1    1    3    3    0  502 -0.84433144427E+03  0.55325346393E+03  0.14085578055E+03  0.10192278126E+04  0.00000000000E+00 0.  1.
         11    1    5    5    0    0  0.10761990448E+02 -0.24525024096E+03  0.94975431270E+01  0.24566990955E+03  0.00000000000E+00 0. -1.
        -11    1    5    5    0    0 -0.88823417809E+01 -0.40200880901E+02  0.40963798770E+02  0.58077875567E+02  0.00000000000E+00 0.  1.
          3    1    6    6  503    0  0.87247306012E+03 -0.30256131138E+03  0.13105373921E+04  0.16032033071E+04  0.00000000000E+00 0. -1.
         -3    1    6    6    0  503  0.12520804640E+03 -0.27007729248E+02  0.24035766210E+03  0.27235689463E+03  0.00000000000E+00 0.  1.
<mgrwt>
<rscale>  0 0.28642186E+04</rscale>
<asrwt>0</asrwt>
<pdfrwt beam="1">  1        2 0.39545254E+00 0.28642186E+04</pdfrwt>
<pdfrwt beam="2">  1       -1 0.12275275E+00 0.28642186E+04</pdfrwt>
<totfact> 0.18238184E+00</totfact>
</mgrwt>
</event>
<event>
12    6  0.1569942E-007  0.1992419E+04  0.7818608E-02  0.8610173E-01
          2   -1    0    0  501    0  0.00000000000E+00  0.00000000000E+00  0.15935913400E+04  0.15935913400E+04  0.00000000000E+00 0. -1.
         -1   -1    0    0    0  501 -0.00000000000E+00 -0.00000000000E+00 -0.62276532109E+03  0.62276532109E+03  0.00000000000E+00 0.  1.
         24    2    1    2    0    0 -0.64181094433E+03  0.33918051751E+03  0.73187765986E+03  0.10340865936E+04  0.82008916819E+02 0.  0.
        254    2    1    2    0    0  0.64181094433E+03 -0.33918051751E+03  0.23894835906E+03  0.11822700675E+04  0.90205403517E+03 0.  0.
         23    2    4    4    0    0  0.61937044833E+03 -0.87948655048E+02 -0.20370166868E+03  0.66422490523E+03  0.91354456434E+02 0.  0.
         23    2    4    4    0    0  0.22440496001E+02 -0.25123186247E+03  0.44265002774E+03  0.51804516223E+03  0.93865427432E+02 0.  0.
          4    1    3    3  502    0 -0.28817943814E+03  0.15721831572E+03  0.38883039282E+03  0.50887529096E+03  0.00000000000E+00 0. -1.
         -3    1    3    3    0  502 -0.35363150619E+03  0.18196220180E+03  0.34304726703E+03  0.52521130269E+03  0.00000000000E+00 0.  1.
         11    1    5    5    0    0  0.51099047575E+03 -0.10674371876E+03 -0.16186489540E+03  0.54653978095E+03  0.00000000000E+00 0. -1.
        -11    1    5    5    0    0  0.10837997258E+03  0.18795063714E+02 -0.41836773284E+02  0.11768512428E+03  0.00000000000E+00 0.  1.
          3    1    6    6  503    0  0.30002728928E+02 -0.24537303200E+03  0.37133676157E+03  0.44609312824E+03  0.00000000000E+00 0. -1.
         -3    1    6    6    0  503 -0.75622329264E+01 -0.58588304625E+01  0.71313266177E+02  0.71952033982E+02  0.00000000000E+00 0.  1.
<mgrwt>
<rscale>  0 0.19924191E+04</rscale>
<asrwt>0</asrwt>
<pdfrwt beam="1">  1        2 0.24516790E+00 0.19924191E+04</pdfrwt>
<pdfrwt beam="2">  1       -1 0.95810050E-01 0.19924191E+04</pdfrwt>
<totfact> 0.12508883E+01</totfact>
</mgrwt>
</event>
<event>
12    6  0.1569942E-007  0.2777346E+04  0.7818608E-02  0.8310336E-01
          2   -1    0    0  501    0  0.00000000000E+00  0.00000000000E+00  0.32208908022E+04  0.32208908022E+04  0.00000000000E+00 0. -1.
         -1   -1    0    0    0  501 -0.00000000000E+00 -0.00000000000E+00 -0.59872018062E+03  0.59872018062E+03  0.00000000000E+00 0.  1.
         24    2    1    2    0    0  0.60978101250E+03  0.46975220728E+02  0.26586733226E+04  0.27292617741E+04  0.79287080591E+02 0.  0.
        254    2    1    2    0    0 -0.60978101250E+03 -0.46975220728E+02 -0.36502701013E+02  0.10903492086E+04  0.90193646952E+03 0.  0.
         23    2    4    4    0    0 -0.59641310846E+03 -0.39058622532E+03 -0.10961901737E+03  0.72707793947E+03  0.91431973284E+02 0.  0.
         23    2    4    4    0    0 -0.13367904036E+02  0.34361100459E+03  0.73116316355E+02  0.36327126918E+03  0.91502983345E+02 0.  0.
          2    1    3    3  502    0  0.44803450290E+03  0.28732689933E+01  0.18631820081E+04  0.19162960019E+04  0.00000000000E+00 0. -1.
         -1    1    3    3    0  502  0.16174650960E+03  0.44101951735E+02  0.79549131442E+03  0.81296577224E+03  0.00000000000E+00 0.  1.
         11    1    5    5    0    0 -0.46809143474E+03 -0.34372573416E+03 -0.70661056228E+02  0.58502132993E+03  0.00000000000E+00 0. -1.
        -11    1    5    5    0    0 -0.12832167372E+03 -0.46860491157E+02 -0.38957961140E+02  0.14205660954E+03  0.00000000000E+00 0.  1.
          3    1    6    6  503    0 -0.43380390859E+02  0.26906469153E+03  0.36540154433E+02  0.27497790716E+03  0.00000000000E+00 0. -1.
         -3    1    6    6    0  503  0.30012486823E+02  0.74546313057E+02  0.36576161923E+02  0.88293362019E+02  0.00000000000E+00 0.  1.
<mgrwt>
<rscale>  0 0.27773457E+04</rscale>
<asrwt>0</asrwt>
<pdfrwt beam="1">  1        2 0.49552165E+00 0.27773457E+04</pdfrwt>
<pdfrwt beam="2">  1       -1 0.92110799E-01 0.27773457E+04</pdfrwt>
<totfact> 0.14280820E+00</totfact>
</mgrwt>
</event>
<event>
12    6  0.1569942E-007  0.1922922E+04  0.7818608E-02  0.8643530E-01
          2   -1    0    0  501    0  0.00000000000E+00  0.00000000000E+00  0.28743940639E+04  0.28743940639E+04  0.00000000000E+00 0. -1.
         -1   -1    0    0    0  501 -0.00000000000E+00 -0.00000000000E+00 -0.32160061447E+03  0.32160061447E+03  0.00000000000E+00 0.  1.
         24    2    1    2    0    0 -0.69325354959E+03 -0.20253271926E+02  0.52611731497E+03  0.87452779506E+03  0.83598780930E+02 0.  0.
        254    2    1    2    0    0  0.69325354959E+03  0.20253271926E+02  0.20266761344E+04  0.23214668833E+04  0.89486404400E+03 0.  0.
         23    2    4    4    0    0  0.61660156541E+03 -0.36920689942E+03  0.12533612436E+04  0.14474442191E+04  0.87573601287E+02 0.  0.
         23    2    4    4    0    0  0.76651984187E+02  0.38946017135E+03  0.77331489089E+03  0.87402266415E+03  0.91350671724E+02 0.  0.
          2    1    3    3  502    0 -0.11940812785E+03  0.25657137163E+01  0.13193509981E+03  0.17796559905E+03  0.00000000000E+00 0. -1.
         -1    1    3    3    0  502 -0.57384542174E+03 -0.22818985642E+02  0.39418221516E+03  0.69656219601E+03  0.00000000000E+00 0.  1.
         11    1    5    5    0    0  0.40955328364E+02 -0.16401113662E+02  0.43559175646E+02  0.61997880881E+02  0.00000000000E+00 0. -1.
        -11    1    5    5    0    0  0.57564623704E+03 -0.35280578576E+03  0.12098020679E+04  0.13854463383E+04  0.00000000000E+00 0.  1.
          4    1    6    6  503    0  0.44222331612E+02  0.55842842754E+02  0.11468943706E+03  0.13501001693E+03  0.00000000000E+00 0. -1.
         -4    1    6    6    0  503  0.32429652575E+02  0.33361732860E+03  0.65862545383E+03  0.73901264721E+03  0.00000000000E+00 0.  1.
<mgrwt>
<rscale>  0 0.19229216E+04</rscale>
<asrwt>0</asrwt>
<pdfrwt beam="1">  1        2 0.44221445E+00 0.19229216E+04</pdfrwt>
<pdfrwt beam="2">  1       -1 0.49477019E-01 0.19229216E+04</pdfrwt>
<totfact> 0.90987478E+00</totfact>
</mgrwt>
</event>
<event>
12    6  0.1569942E-007  0.3032039E+04  0.7818608E-02  0.8234641E-01
         -1   -1    0    0    0  501 -0.00000000000E+00  0.00000000000E+00  0.11356849683E+04  0.11356849683E+04  0.00000000000E+00 0.  1.
          2   -1    0    0  501    0  0.00000000000E+00 -0.00000000000E+00 -0.20237263051E+04  0.20237263051E+04  0.00000000000E+00 0. -1.
         24    2    1    2    0    0 -0.95237084651E+03  0.63372433553E+02  0.63501533281E+03  0.11491592193E+04  0.79348243403E+02 0.  0.
        254    2    1    2    0    0  0.95237084651E+03 -0.63372433553E+02 -0.15230566696E+04  0.20102520541E+04  0.90021408978E+03 0.  0.
         23    2    4    4    0    0  0.18107069886E+03 -0.32844606423E+03 -0.15576045401E+03  0.41529072058E+03  0.86842665075E+02 0.  0.
         23    2    4    4    0    0  0.77130014765E+03  0.26507363068E+03 -0.13672962156E+04  0.15949613335E+04  0.96097693325E+02 0.  0.
          4    1    3    3  502    0 -0.36289616822E+03  0.45329156391E+02  0.20470410291E+03  0.41910873419E+03  0.00000000000E+00 0. -1.
         -3    1    3    3    0  502 -0.58947467829E+03  0.18043277161E+02  0.43031122990E+03  0.73005048509E+03  0.00000000000E+00 0.  1.
         11    1    5    5    0    0  0.93583877802E+02 -0.10005974713E+03 -0.82756146592E+02  0.16005772390E+03  0.00000000000E+00 0. -1.
        -11    1    5    5    0    0  0.87486821056E+02 -0.22838631710E+03 -0.73004307417E+02  0.25523299669E+03  0.00000000000E+00 0.  1.
          2    1    6    6  503    0  0.63478140125E+03  0.20656909739E+03 -0.10439266595E+04  0.12391130255E+04  0.00000000000E+00 0.  1.
         -2    1    6    6    0  503  0.13651874640E+03  0.58504533286E+02 -0.32336955609E+03  0.35584830805E+03  0.00000000000E+00 0. -1.
<mgrwt>
<rscale>  0 0.30320393E+04</rscale>
<asrwt>0</asrwt>
<pdfrwt beam="1">  1        2 0.31134251E+00 0.30320393E+04</pdfrwt>
<pdfrwt beam="2">  1       -1 0.17472076E+00 0.30320393E+04</pdfrwt>
<totfact> 0.14302934E+00</totfact>
</mgrwt>
</event>
<event>
12    6  0.1569942E-007  0.1715012E+04  0.7818608E-02  0.8752848E-01
         -1   -1    0    0    0  501 -0.00000000000E+00  0.00000000000E+00  0.42159289849E+03  0.42159289849E+03  0.00000000000E+00 0.  1.
          2   -1    0    0  501    0  0.00000000000E+00 -0.00000000000E+00 -0.17441395785E+04  0.17441395785E+04  0.00000000000E+00 0. -1.
         24    2    1    2    0    0  0.52858114060E+01 -0.29333644429E+03  0.20652807489E+03  0.36731167858E+03  0.78675372000E+02 0.  0.
        254    2    1    2    0    0 -0.52858114060E+01  0.29333644429E+03 -0.15290747549E+04  0.17984207984E+04  0.90009641301E+03 0.  0.
         23    2    4    4    0    0  0.22990556178E+03 -0.13525128408E+03 -0.12517071350E+03  0.30911042728E+03  0.93445553945E+02 0.  0.
         23    2    4    4    0    0 -0.23519137319E+03  0.42858772837E+03 -0.14039040414E+04  0.14893103711E+04  0.89980004219E+02 0.  0.
          2    1    3    3  502    0  0.21506022405E+02 -0.33250620080E+02  0.48247751525E+02  0.62417611798E+02  0.00000000000E+00 0. -1.
         -1    1    3    3    0  502 -0.16220210999E+02 -0.26008582421E+03  0.15828032336E+03  0.30489406679E+03  0.00000000000E+00 0.  1.
         11    1    5    5    0    0  0.12606729987E+01 -0.17624028406E+02 -0.30229720035E+02  0.35014734713E+02  0.00000000000E+00 0. -1.
        -11    1    5    5    0    0  0.22864488878E+03 -0.11762725568E+03 -0.94940993468E+02  0.27409569257E+03  0.00000000000E+00 0.  1.
          3    1    6    6  503    0 -0.12633302312E+02  0.95850534082E+02 -0.28530137167E+03  0.30123711240E+03  0.00000000000E+00 0. -1.
         -3    1    6    6    0  503 -0.22255807087E+03  0.33273719429E+03 -0.11186026697E+04  0.11880732587E+04  0.00000000000E+00 0.  1.
<mgrwt>
<rscale>  0 0.17150124E+04</rscale>
<asrwt>0</asrwt>
<pdfrwt beam="1">  1        2 0.26832916E+00 0.17150124E+04</pdfrwt>
<pdfrwt beam="2">  1       -1 0.64860446E-01 0.17150124E+04</pdfrwt>
<totfact> 0.24181760E+01</totfact>
</mgrwt>
</event>
<event>
12    6  0.1569942E-007  0.1941301E+04  0.7818608E-02  0.8634567E-01
         -1   -1    0    0    0  501 -0.00000000000E+00  0.00000000000E+00  0.33713071677E+03  0.33713071677E+03  0.00000000000E+00 0.  1.
          2   -1    0    0  501    0  0.00000000000E+00 -0.00000000000E+00 -0.27946495594E+04  0.27946495594E+04  0.00000000000E+00 0. -1.
         24    2    1    2    0    0  0.53166765913E+03  0.53526513730E+03 -0.10831956834E+04  0.13224540662E+04  0.79953747763E+02 0.  0.
        254    2    1    2    0    0 -0.53166765913E+03 -0.53526513730E+03 -0.13743231592E+04  0.18093262099E+04  0.90317103639E+03 0.  0.
         23    2    4    4    0    0 -0.15592110542E+03  0.22062076475E+03 -0.58360524655E+03  0.64926677964E+03  0.89260038009E+02 0.  0.
         23    2    4    4    0    0 -0.37574655371E+03 -0.75588590205E+03 -0.79071791266E+03  0.11600594303E+04  0.89185732306E+02 0.  0.
          2    1    3    3  502    0  0.34636780897E+03  0.39304258355E+03 -0.78276789283E+03  0.94190164328E+03  0.00000000000E+00 0. -1.
         -1    1    3    3    0  502  0.18529985016E+03  0.14222255375E+03 -0.30042779057E+03  0.38055242295E+03  0.00000000000E+00 0.  1.
         11    1    5    5    0    0 -0.74092648631E+02  0.10026112397E+03 -0.37286188072E+03  0.39315136481E+03  0.00000000000E+00 0. -1.
        -11    1    5    5    0    0 -0.81828456793E+02  0.12035964078E+03 -0.21074336583E+03  0.25611541483E+03  0.00000000000E+00 0.  1.
          2    1    6    6  503    0 -0.22587200563E+03 -0.51021418666E+03 -0.47403331594E+03  0.73215043797E+03  0.00000000000E+00 0. -1.
         -2    1    6    6    0  503 -0.14987454808E+03 -0.24567171539E+03 -0.31668459672E+03  0.42790899231E+03  0.00000000000E+00 0.  1.
<mgrwt>
<rscale>  0 0.19413008E+04</rscale>
<asrwt>0</asrwt>
<pdfrwt beam="1">  1        2 0.42994610E+00 0.19413008E+04</pdfrwt>
<pdfrwt beam="2">  1       -1 0.51866263E-01 0.19413008E+04</pdfrwt>
<totfact> 0.92800376E+00</totfact>
</mgrwt>
</event>
<event>
12    6  0.1569942E-007  0.1829940E+04  0.7818608E-02  0.8690538E-01
          2   -1    0    0  501    0  0.00000000000E+00  0.00000000000E+00  0.53438530160E+03  0.53438530160E+03  0.00000000000E+00 0. -1.
         -1   -1    0    0    0  501 -0.00000000000E+00 -0.00000000000E+00 -0.15666037076E+04  0.15666037076E+04  0.00000000000E+00 0.  1.
         24    2    1    2    0    0  0.43571267647E+02  0.24081215247E+03 -0.11964361027E+04  0.12238173567E+04  0.79878824302E+02 0.  0.
        254    2    1    2    0    0 -0.43571267647E+02 -0.24081215247E+03  0.16421769663E+03  0.87717165257E+03  0.82618019102E+03 0.  0.
         23    2    4    4    0    0 -0.23637833463E+03 -0.47910548369E+03  0.11911723413E+03  0.55433030749E+03  0.87615025769E+02 0.  0.
         23    2    4    4    0    0  0.19280706698E+03  0.23829333122E+03  0.45100462503E+02  0.32284134508E+03  0.90742523628E+02 0.  0.
          2    1    3    3  502    0 -0.41372271528E+01 -0.39472516606E+01 -0.63782372396E+02  0.64038179804E+02  0.00000000000E+00 0. -1.
         -1    1    3    3    0  502  0.47708494800E+02  0.24475940413E+03 -0.11326537303E+04  0.11597791768E+04  0.00000000000E+00 0.  1.
         11    1    5    5    0    0 -0.12448329850E+03 -0.22321633926E+03  0.14152304434E+02  0.25597248571E+03  0.00000000000E+00 0.  1.
        -11    1    5    5    0    0 -0.11189503613E+03 -0.25588914443E+03  0.10496492969E+03  0.29835782177E+03  0.00000000000E+00 0. -1.
          2    1    6    6  503    0  0.52757211861E+02  0.12668572259E+03 -0.35194490466E+01  0.13727702733E+03  0.00000000000E+00 0. -1.
         -2    1    6    6    0  503  0.14004985512E+03  0.11160760863E+03  0.48619911549E+02  0.18556431776E+03  0.00000000000E+00 0.  1.
<mgrwt>
<rscale>  0 0.18299399E+04</rscale>
<asrwt>0</asrwt>
<pdfrwt beam="1">  1        2 0.82213124E-01 0.18299399E+04</pdfrwt>
<pdfrwt beam="2">  1       -1 0.24101595E+00 0.18299399E+04</pdfrwt>
<totfact> 0.48933341E+00</totfact>
</mgrwt>
</event>
<event>
12    6  0.1569942E-007  0.1823291E+04  0.7818608E-02  0.8694011E-01
         -1   -1    0    0    0  501 -0.00000000000E+00  0.00000000000E+00  0.31150019154E+03  0.31150019154E+03  0.00000000000E+00 0.  1.
          2   -1    0    0  501    0  0.00000000000E+00 -0.00000000000E+00 -0.26680479503E+04  0.26680479503E+04  0.00000000000E+00 0. -1.
         24    2    1    2    0    0 -0.66998009823E+03 -0.45701979889E+02 -0.11135428039E+04  0.13027826302E+04  0.79391449790E+02 0.  0.
        254    2    1    2    0    0  0.66998009823E+03  0.45701979889E+02 -0.12430049548E+04  0.16767655117E+04  0.90306105019E+03 0.  0.
         23    2    4    4    0    0  0.12919740956E+03 -0.38638593712E+03 -0.57096121207E+03  0.70737871512E+03  0.91661758016E+02 0.  0.
         23    2    4    4    0    0  0.54078268868E+03  0.43208791700E+03 -0.67204374277E+03  0.96938679655E+03  0.94456787636E+02 0.  0.
          2    1    3    3  502    0 -0.61614385474E+03 -0.62964902110E+02 -0.10087644251E+04  0.11837244164E+04  0.00000000000E+00 0. -1.
         -1    1    3    3    0  502 -0.53836243495E+02  0.17262922221E+02 -0.10477837877E+03  0.11905821372E+03  0.00000000000E+00 0.  1.
         11    1    5    5    0    0  0.77971673378E+02 -0.10425839862E+03 -0.16009584158E+03  0.20634939793E+03  0.00000000000E+00 0.  1.
        -11    1    5    5    0    0  0.51225736177E+02 -0.28212753850E+03 -0.41086537049E+03  0.50102931720E+03  0.00000000000E+00 0. -1.
          3    1    6    6  503    0  0.11933844730E+03  0.14893661511E+03 -0.17909342451E+03  0.26172167474E+03  0.00000000000E+00 0. -1.
         -3    1    6    6    0  503  0.42144424137E+03  0.28315130189E+03 -0.49295031826E+03  0.70766512181E+03  0.00000000000E+00 0.  1.
<mgrwt>
<rscale>  0 0.18232909E+04</rscale>
<asrwt>0</asrwt>
<pdfrwt beam="1">  1        2 0.41046892E+00 0.18232909E+04</pdfrwt>
<pdfrwt beam="2">  1       -1 0.47923106E-01 0.18232909E+04</pdfrwt>
<totfact> 0.12972376E+01</totfact>
</mgrwt>
</event>
<event>
12    6  0.1569942E-007  0.1724045E+04  0.7818608E-02  0.8747768E-01
         -1   -1    0    0    0  501 -0.00000000000E+00  0.00000000000E+00  0.25397814069E+03  0.25397814069E+03  0.00000000000E+00 0.  1.
          2   -1    0    0  501    0  0.00000000000E+00 -0.00000000000E+00 -0.29257753732E+04  0.29257753732E+04  0.00000000000E+00 0. -1.
         24    2    1    2    0    0 -0.16207633151E+03  0.25336179252E+03 -0.19849522078E+04  0.20090034479E+04  0.74824135128E+02 0.  0.
        254    2    1    2    0    0  0.16207633151E+03 -0.25336179252E+03 -0.68684502464E+03  0.11707500659E+04  0.89913218932E+03 0.  0.
         23    2    4    4    0    0 -0.22997082025E+03 -0.41939486513E+03 -0.49748949525E+03  0.69594886829E+03  0.89835395711E+02 0.  0.
         23    2    4    4    0    0  0.39204715176E+03  0.16603307260E+03 -0.18935552939E+03  0.47480119765E+03  0.91174066361E+02 0.  0.
          2    1    3    3  502    0 -0.15701747243E+03  0.22699135563E+03 -0.18990492776E+04  0.19190017511E+04  0.00000000000E+00 0. -1.
         -1    1    3    3    0  502 -0.50588590866E+01  0.26370436889E+02 -0.85902930256E+02  0.90001696781E+02  0.00000000000E+00 0.  1.
         11    1    5    5    0    0 -0.10532260592E+03 -0.21926626187E+03 -0.19106219486E+03  0.30931425317E+03  0.00000000000E+00 0.  1.
        -11    1    5    5    0    0 -0.12464821433E+03 -0.20012860326E+03 -0.30642730040E+03  0.38663461512E+03  0.00000000000E+00 0. -1.
          1    1    6    6  503    0  0.21532283834E+03  0.93643261537E+02 -0.54599793100E+02  0.24106870919E+03  0.00000000000E+00 0. -1.
         -1    1    6    6    0  503  0.17672431342E+03  0.72389811066E+02 -0.13475573629E+03  0.23373248846E+03  0.00000000000E+00 0.  1.
<mgrwt>
<rscale>  0 0.17240452E+04</rscale>
<asrwt>0</asrwt>
<pdfrwt beam="1">  1        2 0.45011932E+00 0.17240452E+04</pdfrwt>
<pdfrwt beam="2">  1       -1 0.39073557E-01 0.17240452E+04</pdfrwt>
<totfact> 0.13369400E+01</totfact>
</mgrwt>
</event>
<event>
12    6  0.1569942E-007  0.1176360E+04  0.7818608E-02  0.9133804E-01
         -1   -1    0    0    0  501 -0.00000000000E+00  0.00000000000E+00  0.40596214163E+03  0.40596214163E+03  0.00000000000E+00 0.  1.
          2   -1    0    0  501    0  0.00000000000E+00 -0.00000000000E+00 -0.85218694912E+03  0.85218694912E+03  0.00000000000E+00 0. -1.
         24    2    1    2    0    0 -0.14328852203E+03 -0.19424935390E+03 -0.11705430576E+03  0.28107008957E+03  0.83870571224E+02 0.  0.
        254    2    1    2    0    0  0.14328852203E+03  0.19424935390E+03 -0.32917050173E+03  0.97707900119E+03  0.88773067049E+03 0.  0.
         23    2    4    4    0    0  0.82591374492E+02  0.17616380793E+02  0.29446068529E+03  0.31967964894E+03  0.91412858784E+02 0.  0.
         23    2    4    4    0    0  0.60697147536E+02  0.17663297310E+03 -0.62363118703E+03  0.65739935225E+03  0.91513386971E+02 0.  0.
          4    1    3    3  502    0 -0.40497793505E+02 -0.15440291554E+02  0.11372324792E+01  0.43356281895E+02  0.00000000000E+00 0. -1.
         -3    1    3    3    0  502 -0.10279072852E+03 -0.17880906234E+03 -0.11819153824E+03  0.23771380767E+03  0.00000000000E+00 0.  1.
         11    1    5    5    0    0 -0.84141402866E+01  0.22066195870E+01 -0.22159004341E+01  0.89764771207E+01  0.00000000000E+00 0. -1.
        -11    1    5    5    0    0  0.91005514779E+02  0.15409761206E+02  0.29667658573E+03  0.31070317182E+03  0.00000000000E+00 0.  1.
          1    1    6    6  503    0  0.50865279355E+02  0.13404359516E+03 -0.32014470556E+03  0.35078140565E+03  0.00000000000E+00 0. -1.
         -1    1    6    6    0  503  0.98318681808E+01  0.42589377942E+02 -0.30348648146E+03  0.30661794660E+03  0.00000000000E+00 0.  1.
<mgrwt>
<rscale>  0 0.11763599E+04</rscale>
<asrwt>0</asrwt>
<pdfrwt beam="1">  1        2 0.13110568E+00 0.11763599E+04</pdfrwt>
<pdfrwt beam="2">  1       -1 0.62455715E-01 0.11763599E+04</pdfrwt>
<totfact> 0.92769671E+01</totfact>
</mgrwt>
</event>
<event>
12    6  0.1569942E-007  0.1439138E+04  0.7818608E-02  0.8925966E-01
          2   -1    0    0  501    0  0.00000000000E+00  0.00000000000E+00  0.11290787312E+04  0.11290787312E+04  0.00000000000E+00 0. -1.
         -1   -1    0    0    0  501 -0.00000000000E+00 -0.00000000000E+00 -0.45858563180E+03  0.45858563180E+03  0.00000000000E+00 0.  1.
         24    2    1    2    0    0 -0.25740675834E+03  0.19868323565E+03  0.45504037426E+03  0.56511849940E+03  0.81017953513E+02 0.  0.
        254    2    1    2    0    0  0.25740675834E+03 -0.19868323565E+03  0.21545272512E+03  0.10225458636E+04  0.94522320062E+03 0.  0.
         23    2    4    4    0    0  0.43241548265E+03 -0.42667646455E+03 -0.56993184294E+02  0.61610605987E+03  0.85454659976E+02 0.  0.
         23    2    4    4    0    0 -0.17500872431E+03  0.22799322890E+03  0.27244590942E+03  0.40643980371E+03  0.91419770701E+02 0.  0.
          2    1    3    3  502    0 -0.20587436296E+03  0.14317948376E+03  0.39754860186E+03  0.47003139123E+03  0.00000000000E+00 0. -1.
         -1    1    3    3    0  502 -0.51532395378E+02  0.55503751896E+02  0.57491772391E+02  0.95087108172E+02  0.00000000000E+00 0.  1.
         11    1    5    5    0    0  0.40774636648E+03 -0.42406096306E+03 -0.50442403958E+02  0.59044833464E+03  0.00000000000E+00 0. -1.
        -11    1    5    5    0    0  0.24669116169E+02 -0.26155014953E+01 -0.65507803365E+01  0.25657725223E+02  0.00000000000E+00 0.  1.
          2    1    6    6  503    0 -0.13318662450E+03  0.22086582434E+03  0.24615647563E+03  0.35652966188E+03  0.00000000000E+00 0. -1.
         -2    1    6    6    0  503 -0.41822099816E+02  0.71274045549E+01  0.26289433792E+02  0.49910141833E+02  0.00000000000E+00 0.  1.
<mgrwt>
<rscale>  0 0.14391376E+04</rscale>
<asrwt>0</asrwt>
<pdfrwt beam="1">  1        2 0.17370442E+00 0.14391376E+04</pdfrwt>
<pdfrwt beam="2">  1       -1 0.70551636E-01 0.14391376E+04</pdfrwt>
<totfact> 0.46986356E+01</totfact>
</mgrwt>
</event>
<event>
12    6  0.1569942E-007  0.1720557E+04  0.7818608E-02  0.8749726E-01
          2   -1    0    0  501    0  0.00000000000E+00  0.00000000000E+00  0.24105833362E+04  0.24105833362E+04  0.00000000000E+00 0. -1.
         -1   -1    0    0    0  501 -0.00000000000E+00 -0.00000000000E+00 -0.30701231202E+03  0.30701231202E+03  0.00000000000E+00 0.  1.
         24    2    1    2    0    0 -0.48289571033E+03  0.38738940770E+03  0.89903975165E+03  0.10944290962E+04  0.79017411299E+02 0.  0.
        254    2    1    2    0    0  0.48289571033E+03 -0.38738940770E+03  0.12045312725E+04  0.16231665520E+04  0.89471517751E+03 0.  0.
         23    2    4    4    0    0  0.13308961492E+03 -0.62237018907E+03  0.59436457673E+03  0.87603145899E+03  0.95416818366E+02 0.  0.
         23    2    4    4    0    0  0.34980609541E+03  0.23498078137E+03  0.61016669580E+03  0.74713509304E+03  0.91253375790E+02 0.  0.
          2    1    3    3  502    0 -0.39471646038E+03  0.33892952597E+03  0.79130891408E+03  0.94701853475E+03  0.00000000000E+00 0. -1.
         -1    1    3    3    0  502 -0.88179249952E+02  0.48459881735E+02  0.10773083758E+03  0.14741056144E+03  0.00000000000E+00 0.  1.
         11    1    5    5    0    0  0.38089593582E+02 -0.22487251818E+03  0.27554839842E+03  0.35769454349E+03  0.00000000000E+00 0. -1.
        -11    1    5    5    0    0  0.95000021341E+02 -0.39749767089E+03  0.31881617831E+03  0.51833691549E+03  0.00000000000E+00 0.  1.
          3    1    6    6  503    0  0.11855538568E+03  0.67529707965E+02  0.27395887137E+03  0.30605408695E+03  0.00000000000E+00 0.  1.
         -3    1    6    6    0  503  0.23125070973E+03  0.16745107340E+03  0.33620782443E+03  0.44108100609E+03  0.00000000000E+00 0. -1.
<mgrwt>
<rscale>  0 0.17205566E+04</rscale>
<asrwt>0</asrwt>
<pdfrwt beam="1">  1        2 0.37085896E+00 0.17205566E+04</pdfrwt>
<pdfrwt beam="2">  1       -1 0.47232665E-01 0.17205566E+04</pdfrwt>
<totfact> 0.18986054E+01</totfact>
</mgrwt>
</event>
<event>
12    6  0.1569942E-007  0.1242090E+04  0.7818608E-02  0.9076793E-01
          2   -1    0    0  501    0  0.00000000000E+00  0.00000000000E+00  0.14453096383E+04  0.14453096383E+04  0.00000000000E+00 0. -1.
         -1   -1    0    0    0  501 -0.00000000000E+00 -0.00000000000E+00 -0.26686093899E+03  0.26686093899E+03  0.00000000000E+00 0.  1.
         24    2    1    2    0    0 -0.82631814938E+02  0.25532092849E+03  0.45351336907E+03  0.53312843782E+03  0.80837874327E+02 0.  0.
        254    2    1    2    0    0  0.82631814938E+02 -0.25532092849E+03  0.72493533020E+03  0.11790421394E+04  0.89027655267E+03 0.  0.
         23    2    4    4    0    0 -0.32551541516E+03  0.12882621448E+03  0.28744894924E+03  0.46227124482E+03  0.92256849738E+02 0.  0.
         23    2    4    4    0    0  0.40814723010E+03 -0.38414714297E+03  0.43748638096E+03  0.71677089462E+03  0.90625564589E+02 0.  0.
          4    1    3    3  502    0 -0.43667666665E+02  0.93544008163E+02  0.10673209477E+03  0.14848934854E+03  0.00000000000E+00 0. -1.
         -3    1    3    3    0  502 -0.38964148274E+02  0.16177692033E+03  0.34678127430E+03  0.38463908928E+03  0.00000000000E+00 0.  1.
         11    1    5    5    0    0 -0.30413787524E+03  0.10287964841E+03  0.22735867723E+03  0.39341585800E+03  0.00000000000E+00 0. -1.
        -11    1    5    5    0    0 -0.21377539916E+02  0.25946566070E+02  0.60090272009E+02  0.68855386818E+02  0.00000000000E+00 0.  1.
          2    1    6    6  503    0  0.34384381766E+03 -0.36246143055E+03  0.39261419115E+03  0.63541542526E+03  0.00000000000E+00 0. -1.
         -2    1    6    6    0  503  0.64303412442E+02 -0.21685712422E+02  0.44872189812E+02  0.81355469351E+02  0.00000000000E+00 0.  1.
<mgrwt>
<rscale>  0 0.12420897E+04</rscale>
<asrwt>0</asrwt>
<pdfrwt beam="1">  1        2 0.22235532E+00 0.12420897E+04</pdfrwt>
<pdfrwt beam="2">  1       -1 0.41055530E-01 0.12420897E+04</pdfrwt>
<totfact> 0.88725922E+01</totfact>
</mgrwt>
</event>
<event>
12    6  0.1569942E-007  0.1862250E+04  0.7818608E-02  0.8673878E-01
          2   -1    0    0  501    0  0.00000000000E+00  0.00000000000E+00  0.87756895909E+03  0.87756895909E+03  0.00000000000E+00 0. -1.
         -1   -1    0    0    0  501 -0.00000000000E+00 -0.00000000000E+00 -0.98794984423E+03  0.98794984423E+03  0.00000000000E+00 0.  1.
         24    2    1    2    0    0 -0.25931694901E+03 -0.58402993406E+03  0.25747128393E+03  0.69368146653E+03  0.81032530763E+02 0.  0.
        254    2    1    2    0    0  0.25931694901E+03  0.58402993406E+03 -0.36785216906E+03  0.11718373368E+04  0.91079705845E+03 0.  0.
         23    2    4    4    0    0 -0.25749801617E+03 -0.56507414409E+02 -0.47219570106E+02  0.28372606043E+03  0.93661482756E+02 0.  0.
         23    2    4    4    0    0  0.51681496518E+03  0.64053734847E+03 -0.32063259896E+03  0.88811127636E+03  0.92469306622E+02 0.  0.
          2    1    3    3  502    0 -0.23732964326E+03 -0.45837152622E+03  0.21601917523E+03  0.55954812097E+03  0.00000000000E+00 0. -1.
         -1    1    3    3    0  502 -0.21987305748E+02 -0.12565840784E+03  0.41452108699E+02  0.13413334556E+03  0.00000000000E+00 0.  1.
         11    1    5    5    0    0 -0.26055722037E+03 -0.44436953694E+02 -0.53653706149E+02  0.26970989623E+03  0.00000000000E+00 0.  1.
        -11    1    5    5    0    0  0.30592042029E+01 -0.12070460715E+02  0.64341360430E+01  0.14016164199E+02  0.00000000000E+00 0. -1.
          3    1    6    6  503    0  0.11833477119E+02  0.80184459469E+00 -0.11227415666E+02  0.16331840007E+02  0.00000000000E+00 0. -1.
         -3    1    6    6    0  503  0.50498148806E+03  0.63973550387E+03 -0.30940518329E+03  0.87177943635E+03  0.00000000000E+00 0.  1.
<mgrwt>
<rscale>  0 0.18622504E+04</rscale>
<asrwt>0</asrwt>
<pdfrwt beam="1">  1        2 0.13501061E+00 0.18622504E+04</pdfrwt>
<pdfrwt beam="2">  1       -1 0.15199228E+00 0.18622504E+04</pdfrwt>
<totfact> 0.10962202E+01</totfact>
</mgrwt>
</event>
<event>
12    6  0.1569942E-007  0.1287450E+04  0.7818608E-02  0.9039577E-01
          2   -1    0    0  501    0  0.00000000000E+00  0.00000000000E+00  0.22937087507E+03  0.22937087507E+03  0.00000000000E+00 0. -1.
         -1   -1    0    0    0  501 -0.00000000000E+00 -0.00000000000E+00 -0.18066011403E+04  0.18066011403E+04  0.00000000000E+00 0.  1.
         24    2    1    2    0    0 -0.73670493881E+02  0.19051247809E+03 -0.79231961117E+03  0.82280915338E+03  0.86730563567E+02 0.  0.
        254    2    1    2    0    0  0.73670493881E+02 -0.19051247809E+03 -0.78491065406E+03  0.12131628620E+04  0.90219568216E+03 0.  0.
         23    2    4    4    0    0  0.32240717500E+03  0.90394468362E+02 -0.10396537010E+02  0.34797982974E+03  0.94150557737E+02 0.  0.
         23    2    4    4    0    0 -0.24873668112E+03 -0.28090694646E+03 -0.77451411705E+03  0.86518303226E+03  0.88830809422E+02 0.  0.
          2    1    3    3  502    0  0.18839000084E+02  0.51926568375E+02 -0.19001088872E+03  0.19787727070E+03  0.00000000000E+00 0. -1.
         -1    1    3    3    0  502 -0.92509493964E+02  0.13858590972E+03 -0.60230872245E+03  0.62493188268E+03  0.00000000000E+00 0.  1.
         11    1    5    5    0    0  0.25464269006E+03  0.70633803235E+02 -0.47097759022E+02  0.26842174403E+03  0.00000000000E+00 0. -1.
        -11    1    5    5    0    0  0.67764484934E+02  0.19760665127E+02  0.36701222012E+02  0.79558085710E+02  0.00000000000E+00 0.  1.
          1    1    6    6  503    0 -0.21594030679E+03 -0.27711022362E+03 -0.72554288581E+03  0.80612205731E+03  0.00000000000E+00 0. -1.
         -1    1    6    6    0  503 -0.32796374323E+02 -0.37967228361E+01 -0.48971231246E+02  0.59060974956E+02  0.00000000000E+00 0.  1.
<mgrwt>
<rscale>  0 0.12874497E+04</rscale>
<asrwt>0</asrwt>
<pdfrwt beam="1">  1        2 0.35287827E-01 0.12874497E+04</pdfrwt>
<pdfrwt beam="2">  1       -1 0.27793864E+00 0.12874497E+04</pdfrwt>
<totfact> 0.76790021E+00</totfact>
</mgrwt>
</event>
<event>
12    6  0.1569942E-007  0.1558129E+04  0.7818608E-02  0.8846692E-01
          2   -1    0    0  501    0  0.00000000000E+00  0.00000000000E+00  0.21271833938E+04  0.21271833938E+04  0.00000000000E+00 0. -1.
         -1   -1    0    0    0  501 -0.00000000000E+00 -0.00000000000E+00 -0.28532637125E+03  0.28532637125E+03  0.00000000000E+00 0.  1.
         24    2    1    2    0    0  0.16075100738E+03  0.22189506641E+03  0.13100228369E+04  0.13406670013E+04  0.78421096547E+02 0.  0.
        254    2    1    2    0    0 -0.16075100738E+03 -0.22189506641E+03  0.53183418565E+03  0.10718427637E+04  0.88933739507E+03 0.  0.
         23    2    4    4    0    0 -0.72915697229E+02 -0.35628766034E+03  0.71769199933E+03  0.80980457938E+03  0.91891539660E+02 0.  0.
         23    2    4    4    0    0 -0.87835310149E+02  0.13439259393E+03 -0.18585781368E+03  0.26203818435E+03  0.91348082287E+02 0.  0.
          2    1    3    3  502    0  0.14348160150E+03  0.14005892923E+03  0.87536134304E+03  0.89803171131E+03  0.00000000000E+00 0. -1.
         -1    1    3    3    0  502  0.17269405881E+02  0.81836137182E+02  0.43466149386E+03  0.44263529002E+03  0.00000000000E+00 0.  1.
         11    1    5    5    0    0  0.19164057565E+02 -0.26735951544E+02  0.59940634001E+02  0.68373619267E+02  0.00000000000E+00 0. -1.
        -11    1    5    5    0    0 -0.92079754793E+02 -0.32955170880E+03  0.65775136533E+03  0.74143096011E+03  0.00000000000E+00 0.  1.
          1    1    6    6  503    0 -0.65180650760E+02  0.61884112057E+02 -0.41681180705E+02  0.99073111304E+02  0.00000000000E+00 0. -1.
         -1    1    6    6    0  503 -0.22654659389E+02  0.72508481875E+02 -0.14417663298E+03  0.16296507305E+03  0.00000000000E+00 0.  1.
<mgrwt>
<rscale>  0 0.15581290E+04</rscale>
<asrwt>0</asrwt>
<pdfrwt beam="1">  1        2 0.32725897E+00 0.15581290E+04</pdfrwt>
<pdfrwt beam="2">  1       -1 0.43896366E-01 0.15581290E+04</pdfrwt>
<totfact> 0.31908829E+01</totfact>
</mgrwt>
</event>
<event>
12    6  0.1569942E-007  0.1819210E+04  0.7818608E-02  0.8696150E-01
         -1   -1    0    0    0  501 -0.00000000000E+00  0.00000000000E+00  0.49885128909E+03  0.49885128909E+03  0.00000000000E+00 0.  1.
          2   -1    0    0  501    0  0.00000000000E+00 -0.00000000000E+00 -0.16585723016E+04  0.16585723016E+04  0.00000000000E+00 0. -1.
         24    2    1    2    0    0 -0.31800996286E+03  0.54117788635E+03 -0.78355961332E+03  0.10072324876E+04  0.80918324514E+02 0.  0.
        254    2    1    2    0    0  0.31800996286E+03 -0.54117788635E+03 -0.37616139923E+03  0.11501911032E+04  0.88737722214E+03 0.  0.
         23    2    4    4    0    0  0.43465928795E+02 -0.13107811183E+01 -0.51286216952E+03  0.52270795104E+03  0.91131729056E+02 0.  0.
         23    2    4    4    0    0  0.27454403407E+03 -0.53986710523E+03  0.13670077029E+03  0.62748315212E+03  0.90648153025E+02 0.  0.
          4    1    3    3  502    0 -0.13215058078E+03  0.16238414809E+03 -0.29418390606E+03  0.36107694213E+03  0.00000000000E+00 0. -1.
         -3    1    3    3    0  502 -0.18585938208E+03  0.37879373826E+03 -0.48937570725E+03  0.64615554544E+03  0.00000000000E+00 0.  1.
         11    1    5    5    0    0  0.54816165197E+02  0.31330985865E+02 -0.39000609796E+03  0.39508378743E+03  0.00000000000E+00 0.  1.
        -11    1    5    5    0    0 -0.11350236402E+02 -0.32641766983E+02 -0.12285607156E+03  0.12762416361E+03  0.00000000000E+00 0. -1.
          1    1    6    6  503    0  0.16359125419E+03 -0.24930140655E+03  0.34902781192E+02  0.30021907649E+03  0.00000000000E+00 0. -1.
         -1    1    6    6    0  503  0.11095277987E+03 -0.29056569868E+03  0.10179798910E+03  0.32726407563E+03  0.00000000000E+00 0.  1.
<mgrwt>
<rscale>  0 0.18192096E+04</rscale>
<asrwt>0</asrwt>
<pdfrwt beam="1">  1        2 0.25516497E+00 0.18192096E+04</pdfrwt>
<pdfrwt beam="2">  1       -1 0.76746353E-01 0.18192096E+04</pdfrwt>
<totfact> 0.18917059E+01</totfact>
</mgrwt>
</event>
<event>
12    6  0.1569942E-007  0.3018613E+04  0.7818608E-02  0.8238436E-01
          2   -1    0    0  501    0  0.00000000000E+00  0.00000000000E+00  0.25244996568E+04  0.25244996568E+04  0.00000000000E+00 0. -1.
         -1   -1    0    0    0  501 -0.00000000000E+00 -0.00000000000E+00 -0.90235947190E+03  0.90235947190E+03  0.00000000000E+00 0.  1.
         24    2    1    2    0    0 -0.49345217199E+03 -0.20899137630E+03 -0.69675825666E+03  0.88267728583E+03  0.80465404236E+02 0.  0.
        254    2    1    2    0    0  0.49345217199E+03  0.20899137630E+03  0.23188984415E+04  0.25441818428E+04  0.89911001876E+03 0.  0.
         23    2    4    4    0    0 -0.32227673535E+02  0.16628613233E+03  0.30057028059E+02  0.19368901248E+03  0.89007347296E+02 0.  0.
         23    2    4    4    0    0  0.52567984553E+03  0.42705243964E+02  0.22888414135E+04  0.23504928304E+04  0.88648133826E+02 0.  0.
          2    1    3    3  502    0 -0.70741114019E+02 -0.43660766186E+02 -0.15521137914E+03  0.17607140578E+03  0.00000000000E+00 0. -1.
         -1    1    3    3    0  502 -0.42271105798E+03 -0.16533061011E+03 -0.54154687752E+03  0.70660588006E+03  0.00000000000E+00 0.  1.
         11    1    5    5    0    0 -0.41364071792E+01 -0.10956732864E+02 -0.13207210424E+00  0.11712271447E+02  0.00000000000E+00 0. -1.
        -11    1    5    5    0    0 -0.28091266356E+02  0.17724286520E+03  0.30189100163E+02  0.18197674104E+03  0.00000000000E+00 0.  1.
          1    1    6    6  503    0  0.47886360871E+03  0.12579842876E+02  0.20356229005E+04  0.20912267216E+04  0.00000000000E+00 0. -1.
         -1    1    6    6    0  503  0.46816236818E+02  0.30125401088E+02  0.25321851302E+03  0.25926610877E+03  0.00000000000E+00 0.  1.
<mgrwt>
<rscale>  0 0.30186130E+04</rscale>
<asrwt>0</asrwt>
<pdfrwt beam="1">  1        2 0.38838456E+00 0.30186130E+04</pdfrwt>
<pdfrwt beam="2">  1       -1 0.13882454E+00 0.30186130E+04</pdfrwt>
<totfact> 0.14020060E+00</totfact>
</mgrwt>
</event>
<event>
12    6  0.1569942E-007  0.1975767E+04  0.7818608E-02  0.8618035E-01
          2   -1    0    0  501    0  0.00000000000E+00  0.00000000000E+00  0.12602631037E+04  0.12602631037E+04  0.00000000000E+00 0. -1.
         -1   -1    0    0    0  501 -0.00000000000E+00 -0.00000000000E+00 -0.77437270105E+03  0.77437270105E+03  0.00000000000E+00 0.  1.
         24    2    1    2    0    0 -0.59772233939E+03  0.20306243847E+02  0.71876714036E+03  0.93843819363E+03  0.79722660955E+02 0.  0.
        254    2    1    2    0    0  0.59772233939E+03 -0.20306243847E+02 -0.23287673772E+03  0.10961976111E+04  0.88866939245E+03 0.  0.
         23    2    4    4    0    0  0.92811262734E+02  0.36981593369E+03  0.44275843466E+02  0.39486138755E+03  0.92614306459E+02 0.  0.
         23    2    4    4    0    0  0.50491107665E+03 -0.39012217754E+03 -0.27715258118E+03  0.70133622356E+03  0.89041768179E+02 0.  0.
          2    1    3    3  502    0 -0.20313282618E+03 -0.59810753401E+01  0.30100584115E+03  0.36318484927E+03  0.00000000000E+00 0. -1.
         -1    1    3    3    0  502 -0.39458951321E+03  0.26287319187E+02  0.41776129921E+03  0.57525334437E+03  0.00000000000E+00 0.  1.
         11    1    5    5    0    0  0.10022660277E+02 -0.14312864804E+01  0.77409407141E+01  0.12744585641E+02  0.00000000000E+00 0. -1.
        -11    1    5    5    0    0  0.82788602457E+02  0.37124722017E+03  0.36534902752E+02  0.38211680191E+03  0.00000000000E+00 0.  1.
          2    1    6    6  503    0  0.13573853856E+03 -0.12348392869E+03 -0.12147684953E+03  0.22006784515E+03  0.00000000000E+00 0. -1.
         -2    1    6    6    0  503  0.36917253810E+03 -0.26663824884E+03 -0.15567573165E+03  0.48126837841E+03  0.00000000000E+00 0.  1.
<mgrwt>
<rscale>  0 0.19757665E+04</rscale>
<asrwt>0</asrwt>
<pdfrwt beam="1">  1        2 0.19388663E+00 0.19757665E+04</pdfrwt>
<pdfrwt beam="2">  1       -1 0.11913426E+00 0.19757665E+04</pdfrwt>
<totfact> 0.11665662E+01</totfact>
</mgrwt>
</event>
<event>
12    6  0.1569942E-007  0.2121345E+04  0.7818608E-02  0.8551899E-01
          2   -1    0    0  501    0  0.00000000000E+00  0.00000000000E+00  0.72828000096E+03  0.72828000096E+03  0.00000000000E+00 0. -1.
         -1   -1    0    0    0  501 -0.00000000000E+00 -0.00000000000E+00 -0.15447713771E+04  0.15447713771E+04  0.00000000000E+00 0.  1.
         24    2    1    2    0    0  0.63401263231E+03 -0.60225486777E+02 -0.93550719188E+03  0.11344563947E+04  0.78857328442E+02 0.  0.
        254    2    1    2    0    0 -0.63401263231E+03  0.60225486777E+02  0.11901581574E+03  0.11385949834E+04  0.93628769326E+03 0.  0.
         23    2    4    4    0    0 -0.72628017930E+03  0.24105886166E+03 -0.15419446861E+03  0.78591234795E+03  0.91049496950E+02 0.  0.
         23    2    4    4    0    0  0.92267546988E+02 -0.18083337488E+03  0.27321028436E+03  0.35268263540E+03  0.92342688612E+02 0.  0.
          2    1    3    3  502    0  0.27217112203E+03 -0.48163129121E+02 -0.46248162746E+03  0.53878201752E+03  0.00000000000E+00 0. -1.
         -1    1    3    3    0  502  0.36184151028E+03 -0.12062357656E+02 -0.47302556443E+03  0.59567437719E+03  0.00000000000E+00 0.  1.
         11    1    5    5    0    0 -0.63639614871E+03  0.20544364052E+03 -0.16453192335E+03  0.68867837292E+03  0.00000000000E+00 0. -1.
        -11    1    5    5    0    0 -0.89884030585E+02  0.35615221139E+02  0.10337454737E+02  0.97233975037E+02  0.00000000000E+00 0.  1.
          1    1    6    6  503    0  0.98146139076E+02 -0.10835945840E+03  0.21262281481E+03  0.25803662185E+03  0.00000000000E+00 0. -1.
         -1    1    6    6    0  503 -0.58785920875E+01 -0.72473916482E+02  0.60587469547E+02  0.94646013552E+02  0.00000000000E+00 0.  1.
<mgrwt>
<rscale>  0 0.21213450E+04</rscale>
<asrwt>0</asrwt>
<pdfrwt beam="1">  1        2 0.11204308E+00 0.21213450E+04</pdfrwt>
<pdfrwt beam="2">  1       -1 0.23765713E+00 0.21213450E+04</pdfrwt>
<totfact> 0.34352544E+00</totfact>
</mgrwt>
</event>
<event>
12    6  0.1569942E-007  0.2130278E+04  0.7818608E-02  0.8548022E-01
          2   -1    0    0  501    0  0.00000000000E+00  0.00000000000E+00  0.88837160164E+03  0.88837160164E+03  0.00000000000E+00 0. -1.
         -1   -1    0    0    0  501 -0.00000000000E+00 -0.00000000000E+00 -0.12770791224E+04  0.12770791224E+04  0.00000000000E+00 0.  1.
         24    2    1    2    0    0 -0.79672697782E+03  0.35381850716E+03 -0.22141679134E+03  0.90306984845E+03  0.80921829521E+02 0.  0.
        254    2    1    2    0    0  0.79672697782E+03 -0.35381850716E+03 -0.16729072940E+03  0.12623808756E+04  0.89758446602E+03 0.  0.
         23    2    4    4    0    0  0.67877579175E+03 -0.14596237462E+03  0.27437126408E+03  0.75216755364E+03  0.91841428125E+02 0.  0.
         23    2    4    4    0    0  0.11795118607E+03 -0.20785613254E+03 -0.44166199348E+03  0.51021332193E+03  0.90197911608E+02 0.  0.
          4    1    3    3  502    0 -0.30947836898E+03  0.15114860893E+03 -0.48911443234E+02  0.34787223535E+03  0.00000000000E+00 0. -1.
         -3    1    3    3    0  502 -0.48724860884E+03  0.20266989823E+03 -0.17250534810E+03  0.55519761310E+03  0.00000000000E+00 0.  1.
         11    1    5    5    0    0  0.17220574062E+03 -0.47608145712E+02  0.29873548337E+02  0.18114574666E+03  0.00000000000E+00 0. -1.
        -11    1    5    5    0    0  0.50657005113E+03 -0.98354228910E+02  0.24449771574E+03  0.57102180698E+03  0.00000000000E+00 0.  1.
          1    1    6    6  503    0  0.24659870143E+02 -0.10622423448E+01 -0.21576189194E+02  0.32783677255E+02  0.00000000000E+00 0. -1.
         -1    1    6    6    0  503  0.93291315926E+02 -0.20679389020E+03 -0.42008580428E+03  0.47742964467E+03  0.00000000000E+00 0.  1.
<mgrwt>
<rscale>  0 0.21302778E+04</rscale>
<asrwt>0</asrwt>
<pdfrwt beam="1">  1        2 0.13667256E+00 0.21302778E+04</pdfrwt>
<pdfrwt beam="2">  1       -1 0.19647371E+00 0.21302778E+04</pdfrwt>
<totfact> 0.49855429E+00</totfact>
</mgrwt>
</event>
<event>
12    6  0.1569942E-007  0.1227006E+04  0.7818608E-02  0.9089541E-01
         -3   -1    0    0    0  501 -0.00000000000E+00  0.00000000000E+00  0.17817876433E+03  0.17817876433E+03  0.00000000000E+00 0.  1.
          4   -1    0    0  501    0  0.00000000000E+00 -0.00000000000E+00 -0.21124064734E+04  0.21124064734E+04  0.00000000000E+00 0. -1.
         24    2    1    2    0    0 -0.25382377462E+03  0.99629481131E+02 -0.47034875970E+03  0.54927757581E+03  0.78264662904E+02 0.  0.
        254    2    1    2    0    0  0.25382377462E+03 -0.99629481131E+02 -0.14638789494E+04  0.17413076619E+04  0.90269499445E+03 0.  0.
         23    2    4    4    0    0 -0.18806302279E+03 -0.36287332336E+03 -0.70369590149E+03  0.81884248931E+03  0.90941471135E+02 0.  0.
         23    2    4    4    0    0  0.44188679741E+03  0.26324384223E+03 -0.76018304791E+03  0.92246517264E+03  0.92208818570E+02 0.  0.
          4    1    3    3  502    0 -0.13757004234E+03  0.75108739158E+02 -0.20099553105E+03  0.25488437134E+03  0.00000000000E+00 0. -1.
         -3    1    3    3    0  502 -0.11625373227E+03  0.24520741973E+02 -0.26935322865E+03  0.29439320447E+03  0.00000000000E+00 0.  1.
         11    1    5    5    0    0 -0.13610873727E+03 -0.30504597090E+03 -0.50497384797E+03  0.60545620805E+03  0.00000000000E+00 0. -1.
        -11    1    5    5    0    0 -0.51954285516E+02 -0.57827352459E+02 -0.19872205352E+03  0.21338628126E+03  0.00000000000E+00 0.  1.
          3    1    6    6  503    0  0.34094566990E+03  0.22004790524E+03 -0.65439382324E+03  0.76999760150E+03  0.00000000000E+00 0. -1.
         -3    1    6    6    0  503  0.10094112750E+03  0.43195936992E+02 -0.10578922467E+03  0.15246757114E+03  0.00000000000E+00 0.  1.
<mgrwt>
<rscale>  0 0.12270061E+04</rscale>
<asrwt>0</asrwt>
<pdfrwt beam="1">  1        4 0.32498563E+00 0.12270061E+04</pdfrwt>
<pdfrwt beam="2">  1       -3 0.27412116E-01 0.12270061E+04</pdfrwt>
<totfact> 0.63165586E-01</totfact>
</mgrwt>
</event>
<event>
12    6  0.1569942E-007  0.1100986E+04  0.7818608E-02  0.9204231E-01
          2   -1    0    0  501    0  0.00000000000E+00  0.00000000000E+00  0.42749478960E+03  0.42749478960E+03  0.00000000000E+00 0. -1.
         -1   -1    0    0    0  501 -0.00000000000E+00 -0.00000000000E+00 -0.70888002028E+03  0.70888002028E+03  0.00000000000E+00 0.  1.
         24    2    1    2    0    0  0.16279678864E+03  0.49592761756E+01 -0.25013447234E+02  0.18300793948E+03  0.79616861023E+02 0.  0.
        254    2    1    2    0    0 -0.16279678864E+03 -0.49592761756E+01 -0.25637178345E+03  0.95336687040E+03  0.90368938768E+03 0.  0.
         23    2    4    4    0    0  0.34699018699E+03  0.90970063982E+02 -0.20654654994E+03  0.42429405842E+03  0.93199937303E+02 0.  0.
         23    2    4    4    0    0 -0.50978697563E+03 -0.95929340157E+02 -0.49825233511E+02  0.52907281197E+03  0.91379908334E+02 0.  0.
          2    1    3    3  502    0  0.78121214185E+02  0.77314208074E+01  0.27676646650E+02  0.83238787493E+02  0.00000000000E+00 0. -1.
         -1    1    3    3    0  502  0.84675574457E+02 -0.27721446317E+01 -0.52690093884E+02  0.99769151991E+02  0.00000000000E+00 0.  1.
         11    1    5    5    0    0  0.25993052175E+03  0.30338562295E+02 -0.17008607166E+03  0.31211148053E+03  0.00000000000E+00 0. -1.
        -11    1    5    5    0    0  0.87059665237E+02  0.60631501686E+02 -0.36460478272E+02  0.11218257790E+03  0.00000000000E+00 0.  1.
          2    1    6    6  503    0 -0.32685863612E+03 -0.19128859450E+02 -0.15957490748E+02  0.32780653255E+03  0.00000000000E+00 0. -1.
         -2    1    6    6    0  503 -0.18292833951E+03 -0.76800480708E+02 -0.33867742763E+02  0.20126627942E+03  0.00000000000E+00 0.  1.
<mgrwt>
<rscale>  0 0.11009859E+04</rscale>
<asrwt>0</asrwt>
<pdfrwt beam="1">  1        2 0.65768430E-01 0.11009859E+04</pdfrwt>
<pdfrwt beam="2">  1       -1 0.10905846E+00 0.11009859E+04</pdfrwt>
<totfact> 0.65286937E+01</totfact>
</mgrwt>
</event>
<event>
12    6  0.1569942E-007  0.2034506E+04  0.7818608E-02  0.8590656E-01
         -1   -1    0    0    0  501 -0.00000000000E+00  0.00000000000E+00  0.62117864419E+03  0.62117864419E+03  0.00000000000E+00 0.  1.
          2   -1    0    0  501    0  0.00000000000E+00 -0.00000000000E+00 -0.16658706805E+04  0.16658706805E+04  0.00000000000E+00 0. -1.
         24    2    1    2    0    0  0.10422358049E+03  0.56374995170E+03  0.23357299595E+03  0.62415316825E+03  0.79588128653E+02 0.  0.
        254    2    1    2    0    0 -0.10422358049E+03 -0.56374995170E+03 -0.12782650323E+04  0.16628961564E+04  0.89587140350E+03 0.  0.
         23    2    4    4    0    0 -0.17900766118E+03 -0.62759519345E+03 -0.13559224643E+04  0.15077804345E+04  0.94639526097E+02 0.  0.
         23    2    4    4    0    0  0.74784080698E+02  0.63845241744E+02  0.77657432057E+02  0.15511572191E+03  0.91440345632E+02 0.  0.
          4    1    3    3  502    0 -0.76566777473E+01  0.35361980716E+02  0.29852696623E+02  0.46907119821E+02  0.00000000000E+00 0. -1.
         -3    1    3    3    0  502  0.11188025823E+03  0.52838797099E+03  0.20372029933E+03  0.57724604843E+03  0.00000000000E+00 0.  1.
         11    1    5    5    0    0 -0.17215355319E+02 -0.12245585682E+03 -0.18759299975E+03  0.22468408685E+03  0.00000000000E+00 0. -1.
        -11    1    5    5    0    0 -0.16179230586E+03 -0.50513933663E+03 -0.11683294646E+04  0.12830963477E+04  0.00000000000E+00 0.  1.
          2    1    6    6  503    0  0.64633491315E+01  0.38794758584E+01 -0.20193816882E+02  0.21554940390E+02  0.00000000000E+00 0. -1.
         -2    1    6    6    0  503  0.68320731566E+02  0.59965765886E+02  0.97851248939E+02  0.13356078152E+03  0.00000000000E+00 0.  1.
<mgrwt>
<rscale>  0 0.20345056E+04</rscale>
<asrwt>0</asrwt>
<pdfrwt beam="1">  1        2 0.25628779E+00 0.20345056E+04</pdfrwt>
<pdfrwt beam="2">  1       -1 0.95565948E-01 0.20345056E+04</pdfrwt>
<totfact> 0.11422756E+01</totfact>
</mgrwt>
</event>
<event>
12    6  0.1569942E-007  0.1489770E+04  0.7818608E-02  0.8891285E-01
          2   -1    0    0  501    0  0.00000000000E+00  0.00000000000E+00  0.28531276437E+03  0.28531276437E+03  0.00000000000E+00 0. -1.
         -1   -1    0    0    0  501 -0.00000000000E+00 -0.00000000000E+00 -0.19447199302E+04  0.19447199302E+04  0.00000000000E+00 0.  1.
         24    2    1    2    0    0  0.26981168820E+03  0.37991825542E+03 -0.46474306169E+03  0.66296744922E+03  0.80021856061E+02 0.  0.
        254    2    1    2    0    0 -0.26981168820E+03 -0.37991825542E+03 -0.11946641041E+04  0.15670652453E+04  0.90074132444E+03 0.  0.
         23    2    4    4    0    0 -0.90848289414E+02 -0.14518897217E+03  0.11236473997E+03  0.22393564246E+03  0.90488053617E+02 0.  0.
         23    2    4    4    0    0 -0.17896339879E+03 -0.23472928324E+03 -0.13070288441E+04  0.13431296029E+04  0.92449966356E+02 0.  0.
          4    1    3    3  502    0  0.25833556102E+03  0.37372518472E+03 -0.46475499741E+03  0.64992690620E+03  0.00000000000E+00 0. -1.
         -3    1    3    3    0  502  0.11476127183E+02  0.61930706972E+01  0.11935725836E-01  0.13040543020E+02  0.00000000000E+00 0.  1.
         11    1    5    5    0    0 -0.32652746606E+02 -0.38888815516E+02 -0.99573324976E+01  0.51746403774E+02  0.00000000000E+00 0. -1.
        -11    1    5    5    0    0 -0.58195542808E+02 -0.10630015666E+03  0.12232207247E+03  0.17218923869E+03  0.00000000000E+00 0.  1.
          3    1    6    6  503    0 -0.23806541972E+02  0.41907858273E+01 -0.11789926292E+03  0.12035177741E+03  0.00000000000E+00 0. -1.
         -3    1    6    6    0  503 -0.15515685681E+03 -0.23892006907E+03 -0.11891295812E+04  0.12227778255E+04  0.00000000000E+00 0.  1.
<mgrwt>
<rscale>  0 0.14897697E+04</rscale>
<asrwt>0</asrwt>
<pdfrwt beam="1">  1        2 0.43894271E-01 0.14897697E+04</pdfrwt>
<pdfrwt beam="2">  1       -1 0.29918769E+00 0.14897697E+04</pdfrwt>
<totfact> 0.43097549E+00</totfact>
</mgrwt>
</event>
<event>
12    6  0.1569942E-007  0.1264281E+04  0.7818608E-02  0.9058380E-01
         -1   -1    0    0    0  501 -0.00000000000E+00  0.00000000000E+00  0.21055446058E+03  0.21055446058E+03  0.00000000000E+00 0.  1.
          2   -1    0    0  501    0  0.00000000000E+00 -0.00000000000E+00 -0.18978540699E+04  0.18978540699E+04  0.00000000000E+00 0. -1.
         24    2    1    2    0    0  0.19103049268E+03  0.83779117272E+02 -0.60995630912E+02  0.23219531580E+03  0.81747220520E+02 0.  0.
        254    2    1    2    0    0 -0.19103049268E+03 -0.83779117272E+02 -0.16263039785E+04  0.18762132147E+04  0.91203059551E+03 0.  0.
         23    2    4    4    0    0  0.48911138186E+02 -0.30770990198E+03 -0.14730932423E+03  0.35850510994E+03  0.98732940957E+02 0.  0.
         23    2    4    4    0    0 -0.23994163087E+03  0.22393078471E+03 -0.14789946542E+04  0.15177081048E+04  0.91080851689E+02 0.  0.
          2    1    3    3  502    0  0.90159323300E+02  0.83866791797E+02 -0.31517193833E+02  0.12710497965E+03  0.00000000000E+00 0. -1.
         -1    1    3    3    0  502  0.10087116938E+03 -0.87674525317E-01 -0.29478437078E+02  0.10509033615E+03  0.00000000000E+00 0.  1.
         11    1    5    5    0    0  0.41951715756E+02 -0.15576042100E+03 -0.24821475724E+02  0.16320956118E+03  0.00000000000E+00 0. -1.
        -11    1    5    5    0    0  0.69594224305E+01 -0.15194948098E+03 -0.12248784851E+03  0.19529554876E+03  0.00000000000E+00 0.  1.
          4    1    6    6  503    0 -0.11224981921E+03  0.12426357178E+03 -0.94368081975E+03  0.95842315641E+03  0.00000000000E+00 0. -1.
         -4    1    6    6    0  503 -0.12769181166E+03  0.99667212927E+02 -0.53531383448E+03  0.55928494837E+03  0.00000000000E+00 0.  1.
<mgrwt>
<rscale>  0 0.12642810E+04</rscale>
<asrwt>0</asrwt>
<pdfrwt beam="1">  1        2 0.29197754E+00 0.12642810E+04</pdfrwt>
<pdfrwt beam="2">  1       -1 0.32392995E-01 0.12642810E+04</pdfrwt>
<totfact> 0.75976126E+01</totfact>
</mgrwt>
</event>
<event>
12    6  0.1569942E-007  0.1697910E+04  0.7818608E-02  0.8762557E-01
         -1   -1    0    0    0  501 -0.00000000000E+00  0.00000000000E+00  0.83268517632E+03  0.83268517632E+03  0.00000000000E+00 0.  1.
          2   -1    0    0  501    0  0.00000000000E+00 -0.00000000000E+00 -0.86554266206E+03  0.86554266206E+03  0.00000000000E+00 0. -1.
         24    2    1    2    0    0  0.53767854243E+03  0.20954176170E+03  0.18260629417E+03  0.61043848604E+03  0.79272452213E+02 0.  0.
        254    2    1    2    0    0 -0.53767854243E+03 -0.20954176170E+03 -0.21546377991E+03  0.10877893523E+04  0.89657965052E+03 0.  0.
         23    2    4    4    0    0 -0.66258706147E+02  0.10921958017E+03  0.28434911639E+03  0.32480344003E+03  0.91234433366E+02 0.  0.
         23    2    4    4    0    0 -0.47141983629E+03 -0.31876134187E+03 -0.49981289629E+03  0.76298591231E+03  0.92136398688E+02 0.  0.
          2    1    3    3  502    0  0.22737634757E+03  0.71436329555E+02  0.38238691411E+02  0.24138216615E+03  0.00000000000E+00 0. -1.
         -1    1    3    3    0  502  0.31030219487E+03  0.13810543214E+03  0.14436760276E+03  0.36905631989E+03  0.00000000000E+00 0.  1.
         11    1    5    5    0    0 -0.74995684838E+02  0.11932351954E+03  0.27317871049E+03  0.30739073331E+03  0.00000000000E+00 0. -1.
        -11    1    5    5    0    0  0.87369786915E+01 -0.10103939367E+02  0.11170405895E+02  0.17412706718E+02  0.00000000000E+00 0.  1.
          4    1    6    6  503    0 -0.33458350104E+03 -0.21455434548E+03 -0.40108378668E+03  0.56466617596E+03  0.00000000000E+00 0. -1.
         -4    1    6    6    0  503 -0.13683633525E+03 -0.10420699639E+03 -0.98729109610E+02  0.19831973635E+03  0.00000000000E+00 0.  1.
<mgrwt>
<rscale>  0 0.16979099E+04</rscale>
<asrwt>0</asrwt>
<pdfrwt beam="1">  1        2 0.13316041E+00 0.16979099E+04</pdfrwt>
<pdfrwt beam="2">  1       -1 0.12810541E+00 0.16979099E+04</pdfrwt>
<totfact> 0.17700946E+01</totfact>
</mgrwt>
</event>
<event>
12    6  0.1569942E-007  0.2195257E+04  0.7818608E-02  0.8520405E-01
         -1   -1    0    0    0  501 -0.00000000000E+00  0.00000000000E+00  0.47920823043E+03  0.47920823043E+03  0.00000000000E+00 0.  1.
          2   -1    0    0  501    0  0.00000000000E+00 -0.00000000000E+00 -0.25141227479E+04  0.25141227479E+04  0.00000000000E+00 0. -1.
         24    2    1    2    0    0  0.84654841396E+03  0.25605106066E+02 -0.13288717788E+04  0.15777991277E+04  0.79057221174E+02 0.  0.
        254    2    1    2    0    0 -0.84654841396E+03 -0.25605106066E+02 -0.70604273865E+03  0.14155318506E+04  0.88765659616E+03 0.  0.
         23    2    4    4    0    0 -0.55017023567E+03 -0.36716987151E+03 -0.67953920675E+03  0.95272364533E+03  0.91694100614E+02 0.  0.
         23    2    4    4    0    0 -0.29637817829E+03  0.34156476544E+03 -0.26503531894E+02  0.46280820530E+03  0.94775968103E+02 0.  0.
          4    1    3    3  502    0  0.67740833739E+03  0.48364476486E+02 -0.10334614095E+04  0.12366340053E+04  0.00000000000E+00 0. -1.
         -3    1    3    3    0  502  0.16914007657E+03 -0.22759370420E+02 -0.29541036926E+03  0.34116512235E+03  0.00000000000E+00 0.  1.
         11    1    5    5    0    0 -0.27555857369E+03 -0.22309454356E+03 -0.31649003312E+03  0.47525745020E+03  0.00000000000E+00 0. -1.
        -11    1    5    5    0    0 -0.27461166198E+03 -0.14407532795E+03 -0.36304917363E+03  0.47746619513E+03  0.00000000000E+00 0.  1.
          1    1    6    6  503    0 -0.20135818356E+03  0.29208991284E+03 -0.25332034294E+02  0.35567309039E+03  0.00000000000E+00 0. -1.
         -1    1    6    6    0  503 -0.95019994732E+02  0.49474852603E+02 -0.11714976000E+01  0.10713511490E+03  0.00000000000E+00 0.  1.
<mgrwt>
<rscale>  0 0.21952570E+04</rscale>
<asrwt>0</asrwt>
<pdfrwt beam="1">  1        2 0.38678811E+00 0.21952570E+04</pdfrwt>
<pdfrwt beam="2">  1       -1 0.73724344E-01 0.21952570E+04</pdfrwt>
<totfact> 0.65880792E+00</totfact>
</mgrwt>
</event>
<event>
12    6  0.1569942E-007  0.2580081E+04  0.7818608E-02  0.8374999E-01
         -1   -1    0    0    0  501 -0.00000000000E+00  0.00000000000E+00  0.15874522353E+04  0.15874522353E+04  0.00000000000E+00 0.  1.
          2   -1    0    0  501    0  0.00000000000E+00 -0.00000000000E+00 -0.10483492302E+04  0.10483492302E+04  0.00000000000E+00 0. -1.
         24    2    1    2    0    0  0.17153421507E+03 -0.45898078711E+03 -0.80050295714E+03  0.94193462616E+03  0.79677510628E+02 0.  0.
        254    2    1    2    0    0 -0.17153421507E+03  0.45898078711E+03  0.13396059623E+04  0.16938668394E+04  0.91353893494E+03 0.  0.
         23    2    4    4    0    0 -0.44578567352E+03 -0.14508614063E+02  0.79667737986E+03  0.91764730389E+03  0.91904081206E+02 0.  0.
         23    2    4    4    0    0  0.27425145845E+03  0.47348940117E+03  0.54292858239E+03  0.77621953552E+03  0.91319473590E+02 0.  0.
          2    1    3    3  502    0  0.83827567214E+02 -0.15614557390E+03 -0.34654751842E+03  0.38923474125E+03  0.00000000000E+00 0. -1.
         -1    1    3    3    0  502  0.87706647857E+02 -0.30283521321E+03 -0.45395543871E+03  0.55269988491E+03  0.00000000000E+00 0.  1.
         11    1    5    5    0    0 -0.27284577925E+03  0.98047889566E+00  0.57158417476E+03  0.63336738899E+03  0.00000000000E+00 0.  1.
        -11    1    5    5    0    0 -0.17293989428E+03 -0.15489092959E+02  0.22509320510E+03  0.28427991490E+03  0.00000000000E+00 0. -1.
          4    1    6    6  503    0  0.17365087044E+03  0.32672163431E+03  0.42117247602E+03  0.56061386505E+03  0.00000000000E+00 0. -1.
         -4    1    6    6    0  503  0.10060058801E+03  0.14676776687E+03  0.12175610637E+03  0.21560567047E+03  0.00000000000E+00 0.  1.
<mgrwt>
<rscale>  0 0.25800809E+04</rscale>
<asrwt>0</asrwt>
<pdfrwt beam="1">  1        2 0.16128450E+00 0.25800809E+04</pdfrwt>
<pdfrwt beam="2">  1       -1 0.24422342E+00 0.25800809E+04</pdfrwt>
<totfact> 0.18024658E+00</totfact>
</mgrwt>
</event>
<event>
12    6  0.1569942E-007  0.1375433E+04  0.7818608E-02  0.8971796E-01
          2   -1    0    0  501    0  0.00000000000E+00  0.00000000000E+00  0.22297220339E+03  0.22297220339E+03  0.00000000000E+00 0. -1.
         -1   -1    0    0    0  501 -0.00000000000E+00 -0.00000000000E+00 -0.21211347267E+04  0.21211347267E+04  0.00000000000E+00 0.  1.
         24    2    1    2    0    0  0.35628396795E+03  0.13574581997E+02 -0.81935646339E+03  0.89711293210E+03  0.79649631223E+02 0.  0.
        254    2    1    2    0    0 -0.35628396795E+03 -0.13574581997E+02 -0.10788060599E+04  0.14469939980E+04  0.89601706470E+03 0.  0.
         23    2    4    4    0    0  0.10057477624E+03  0.30525131240E+03 -0.16109801835E+03  0.36911063206E+03  0.83644712025E+02 0.  0.
         23    2    4    4    0    0 -0.45685874418E+03 -0.31882589439E+03 -0.91770804158E+03  0.10778833659E+04  0.96304921605E+02 0.  0.
          4    1    3    3  502    0  0.24087284067E+03  0.39673249797E+02 -0.49678477825E+03  0.55352399047E+03  0.00000000000E+00 0. -1.
         -3    1    3    3    0  502  0.11541112728E+03 -0.26098667800E+02 -0.32257168513E+03  0.34358894163E+03  0.00000000000E+00 0.  1.
         11    1    5    5    0    0  0.49527385018E+02  0.11146206097E+03 -0.18992966835E+02  0.12344021100E+03  0.00000000000E+00 0. -1.
        -11    1    5    5    0    0  0.51047391220E+02  0.19378925143E+03 -0.14210505152E+03  0.24567042107E+03  0.00000000000E+00 0.  1.
          3    1    6    6  503    0 -0.45317183042E+03 -0.31403298554E+03 -0.87134268875E+03  0.10311253586E+04  0.00000000000E+00 0. -1.
         -3    1    6    6    0  503 -0.36869137593E+01 -0.47929088572E+01 -0.46365352832E+02  0.46758007353E+02  0.00000000000E+00 0.  1.
<mgrwt>
<rscale>  0 0.13754331E+04</rscale>
<asrwt>0</asrwt>
<pdfrwt beam="1">  1        2 0.34303417E-01 0.13754331E+04</pdfrwt>
<pdfrwt beam="2">  1       -1 0.32632841E+00 0.13754331E+04</pdfrwt>
<totfact> 0.38275520E+00</totfact>
</mgrwt>
</event>
<event>
12    6  0.1569942E-007  0.1539677E+04  0.7818608E-02  0.8858488E-01
         -1   -1    0    0    0  501 -0.00000000000E+00  0.00000000000E+00  0.49259952492E+03  0.49259952492E+03  0.00000000000E+00 0.  1.
          2   -1    0    0  501    0  0.00000000000E+00 -0.00000000000E+00 -0.12031105661E+04  0.12031105661E+04  0.00000000000E+00 0. -1.
         24    2    1    2    0    0 -0.71983010346E+02  0.47228353602E+03 -0.40081443515E+03  0.62899989634E+03  0.82191033547E+02 0.  0.
        254    2    1    2    0    0  0.71983010346E+02 -0.47228353602E+03 -0.30969660607E+03  0.10667101947E+04  0.90206726996E+03 0.  0.
         23    2    4    4    0    0  0.67039576490E+01  0.22446426625E+03  0.85658692523E+02  0.25758185658E+03  0.92638282390E+02 0.  0.
         23    2    4    4    0    0  0.65279052697E+02 -0.69674780227E+03 -0.39535529860E+03  0.80912833814E+03  0.93080614344E+02 0.  0.
          2    1    3    3  502    0  0.15870364377E+02  0.57431478098E+02 -0.64164470108E+02  0.87563247805E+02  0.00000000000E+00 0. -1.
         -1    1    3    3    0  502 -0.87853374723E+02  0.41485205792E+03 -0.33664996504E+03  0.54143664854E+03  0.00000000000E+00 0.  1.
         11    1    5    5    0    0  0.32019753723E+02  0.11073782661E+03  0.40717212753E+01  0.11534604364E+03  0.00000000000E+00 0. -1.
        -11    1    5    5    0    0 -0.25315796074E+02  0.11372643964E+03  0.81586971248E+02  0.14223581294E+03  0.00000000000E+00 0.  1.
          4    1    6    6  503    0 -0.14402495579E+02 -0.34069496380E+03 -0.18408494191E+03  0.38751484627E+03  0.00000000000E+00 0. -1.
         -4    1    6    6    0  503  0.79681548276E+02 -0.35605283847E+03 -0.21127035669E+03  0.42161349188E+03  0.00000000000E+00 0.  1.
<mgrwt>
<rscale>  0 0.15396775E+04</rscale>
<asrwt>0</asrwt>
<pdfrwt beam="1">  1        2 0.18509393E+00 0.15396775E+04</pdfrwt>
<pdfrwt beam="2">  1       -1 0.75784543E-01 0.15396775E+04</pdfrwt>
<totfact> 0.36242296E+01</totfact>
</mgrwt>
</event>
<event>
12    6  0.1569942E-007  0.1572849E+04  0.7818608E-02  0.8837404E-01
         -1   -1    0    0    0  501 -0.00000000000E+00  0.00000000000E+00  0.53358805345E+03  0.53358805345E+03  0.00000000000E+00 0.  1.
          2   -1    0    0  501    0  0.00000000000E+00 -0.00000000000E+00 -0.11590658216E+04  0.11590658216E+04  0.00000000000E+00 0. -1.
         24    2    1    2    0    0  0.21499559590E+03  0.15213092151E+03 -0.70217390531E+03  0.75446335941E+03  0.82461165693E+02 0.  0.
        254    2    1    2    0    0 -0.21499559590E+03 -0.15213092151E+03  0.76696137194E+02  0.93819051561E+03  0.89719129654E+03 0.  0.
         23    2    4    4    0    0  0.27474039149E+03 -0.25725743467E+03  0.16633163859E+03  0.42179381755E+03  0.92629045772E+02 0.  0.
         23    2    4    4    0    0 -0.48973598739E+03  0.10512651315E+03 -0.89635501393E+02  0.51639669806E+03  0.87966502389E+02 0.  0.
          4    1    3    3  502    0  0.13658897661E+03  0.78249239271E+02 -0.30884886870E+03  0.34665128830E+03  0.00000000000E+00 0. -1.
         -3    1    3    3    0  502  0.78406619291E+02  0.73881682243E+02 -0.39332503661E+03  0.40781207111E+03  0.00000000000E+00 0.  1.
         11    1    5    5    0    0  0.21683893182E+03 -0.19136723780E+03  0.83184688955E+02  0.30093227566E+03  0.00000000000E+00 0. -1.
        -11    1    5    5    0    0  0.57901459667E+02 -0.65890196863E+02  0.83146949632E+02  0.12086154189E+03  0.00000000000E+00 0.  1.
          3    1    6    6  503    0 -0.41187983424E+03  0.85108591442E+02 -0.41319824598E+02  0.42260596080E+03  0.00000000000E+00 0. -1.
         -3    1    6    6    0  503 -0.77856153149E+02  0.20017921710E+02 -0.48315676795E+02  0.93790737266E+02  0.00000000000E+00 0.  1.
<mgrwt>
<rscale>  0 0.15728492E+04</rscale>
<asrwt>0</asrwt>
<pdfrwt beam="1">  1        2 0.17831782E+00 0.15728492E+04</pdfrwt>
<pdfrwt beam="2">  1       -1 0.82090471E-01 0.15728492E+04</pdfrwt>
<totfact> 0.32430878E+01</totfact>
</mgrwt>
</event>
<event>
12    6  0.1569942E-007  0.1676812E+04  0.7818608E-02  0.8774701E-01
         -1   -1    0    0    0  501 -0.00000000000E+00  0.00000000000E+00  0.19494210156E+03  0.19494210156E+03  0.00000000000E+00 0.  1.
          2   -1    0    0  501    0  0.00000000000E+00 -0.00000000000E+00 -0.36058110363E+04  0.36058110363E+04  0.00000000000E+00 0. -1.
         24    2    1    2    0    0 -0.27785247912E+03  0.31361069509E+03 -0.26499840225E+03  0.50154299595E+03  0.75944422847E+02 0.  0.
        254    2    1    2    0    0  0.27785247912E+03 -0.31361069509E+03 -0.31458705325E+04  0.32992101419E+04  0.90151676914E+03 0.  0.
         23    2    4    4    0    0  0.28432172648E+03 -0.60131591450E+03 -0.24438464718E+04  0.25343109581E+04  0.89032471915E+02 0.  0.
         23    2    4    4    0    0 -0.64692473537E+01  0.28770521941E+03 -0.70202406062E+03  0.76489918382E+03  0.97040379605E+02 0.  0.
          2    1    3    3  502    0 -0.23589322210E+03  0.25442712440E+03 -0.24951710852E+03  0.42736116027E+03  0.00000000000E+00 0. -1.
         -1    1    3    3    0  502 -0.41959257027E+02  0.59183570685E+02 -0.15481293733E+02  0.74181835681E+02  0.00000000000E+00 0.  1.
         11    1    5    5    0    0  0.27263037744E+03 -0.56880977163E+03 -0.22221761829E+04  0.23099651225E+04  0.00000000000E+00 0.  1.
        -11    1    5    5    0    0  0.11691349043E+02 -0.32506142863E+02 -0.22167028889E+03  0.22434583558E+03  0.00000000000E+00 0. -1.
          2    1    6    6  503    0 -0.16496054474E+02  0.90812051318E+02 -0.12684794518E+03  0.15687367425E+03  0.00000000000E+00 0. -1.
         -2    1    6    6    0  503  0.10026807120E+02  0.19689316809E+03 -0.57517611545E+03  0.60802550957E+03  0.00000000000E+00 0.  1.
<mgrwt>
<rscale>  0 0.16768117E+04</rscale>
<asrwt>0</asrwt>
<pdfrwt beam="1">  1        2 0.55474012E+00 0.16768117E+04</pdfrwt>
<pdfrwt beam="2">  1       -1 0.29991094E-01 0.16768117E+04</pdfrwt>
<totfact> 0.76664293E+00</totfact>
</mgrwt>
</event>
<event>
12    6  0.1569942E-007  0.1271169E+04  0.7818608E-02  0.9052746E-01
         -3   -1    0    0    0  501 -0.00000000000E+00  0.00000000000E+00  0.17559788124E+03  0.17559788124E+03  0.00000000000E+00 0.  1.
          2   -1    0    0  501    0  0.00000000000E+00 -0.00000000000E+00 -0.23005274751E+04  0.23005274751E+04  0.00000000000E+00 0. -1.
         24    2    1    2    0    0  0.15518672595E+03  0.20263284111E+03 -0.19288130842E+03  0.32903813234E+03  0.76940920096E+02 0.  0.
        254    2    1    2    0    0 -0.15518672595E+03 -0.20263284111E+03 -0.19320482854E+04  0.21470872240E+04  0.90112706205E+03 0.  0.
         23    2    4    4    0    0 -0.11560207577E+03  0.30990054309E+03 -0.12005451376E+04  0.12487086320E+04  0.92533419243E+02 0.  0.
         23    2    4    4    0    0 -0.39584650178E+02 -0.51253338421E+03 -0.73150314785E+03  0.89837859201E+03  0.87919422259E+02 0.  0.
          4    1    3    3  502    0  0.90241096409E+01  0.65565439642E+02 -0.46357849529E+02  0.80804156101E+02  0.00000000000E+00 0. -1.
         -1    1    3    3    0  502  0.14616261631E+03  0.13706740147E+03 -0.14652345889E+03  0.24823397624E+03  0.00000000000E+00 0.  1.
         11    1    5    5    0    0 -0.12838316853E+02  0.14277221577E+03 -0.41605961968E+03  0.44006174010E+03  0.00000000000E+00 0. -1.
        -11    1    5    5    0    0 -0.10276375892E+03  0.16712832732E+03 -0.78448551788E+03  0.80864689185E+03  0.00000000000E+00 0.  1.
          3    1    6    6  503    0  0.18995817150E+02 -0.37400611935E+02 -0.45957351421E+02  0.62223186932E+02  0.00000000000E+00 0.  1.
         -3    1    6    6    0  503 -0.58580467329E+02 -0.47513277227E+03 -0.68554579643E+03  0.83615540507E+03  0.00000000000E+00 0. -1.
<mgrwt>
<rscale>  0 0.12711691E+04</rscale>
<asrwt>0</asrwt>
<pdfrwt beam="1">  1        2 0.35392731E+00 0.12711691E+04</pdfrwt>
<pdfrwt beam="2">  1       -3 0.27015058E-01 0.12711691E+04</pdfrwt>
<totfact> 0.38260943E+01</totfact>
</mgrwt>
</event>
<event>
12    6  0.1569942E-007  0.1342236E+04  0.7818608E-02  0.8996726E-01
          2   -1    0    0  501    0  0.00000000000E+00  0.00000000000E+00  0.25771603595E+04  0.25771603595E+04  0.00000000000E+00 0. -1.
         -3   -1    0    0    0  501 -0.00000000000E+00 -0.00000000000E+00 -0.17476572741E+03  0.17476572741E+03  0.00000000000E+00 0.  1.
         24    2    1    2    0    0  0.43254947977E+02  0.22206120290E+02  0.13723354325E+04  0.13754718711E+04  0.79083668195E+02 0.  0.
        254    2    1    2    0    0 -0.43254947977E+02 -0.22206120290E+02  0.10300591996E+04  0.13764542158E+04  0.91172372532E+03 0.  0.
         23    2    4    4    0    0  0.18598017074E+03 -0.40158136207E+03  0.42172922829E+03  0.61818230721E+03  0.91856456950E+02 0.  0.
         23    2    4    4    0    0 -0.22923511872E+03  0.37937524178E+03  0.60832997130E+03  0.75827190862E+03  0.91851073405E+02 0.  0.
          2    1    3    3  502    0  0.47123211729E+02  0.30897382242E+02  0.13502423599E+04  0.13514176541E+04  0.00000000000E+00 0. -1.
         -1    1    3    3    0  502 -0.38682637514E+01 -0.86912619521E+01  0.22093072569E+02  0.24054216976E+02  0.00000000000E+00 0.  1.
         11    1    5    5    0    0  0.14002463894E+03 -0.36199988551E+03  0.38786739840E+03  0.54871844817E+03  0.00000000000E+00 0. -1.
        -11    1    5    5    0    0  0.45955531799E+02 -0.39581476561E+02  0.33861829896E+02  0.69463859046E+02  0.00000000000E+00 0.  1.
          2    1    6    6  503    0 -0.20885263701E+01  0.49363936641E+01 -0.30886918935E+01  0.61862704773E+01  0.00000000000E+00 0.  1.
         -2    1    6    6    0  503 -0.22714659235E+03  0.37443884811E+03  0.61141866320E+03  0.75208563814E+03  0.00000000000E+00 0. -1.
<mgrwt>
<rscale>  0 0.13422359E+04</rscale>
<asrwt>0</asrwt>
<pdfrwt beam="1">  1        2 0.39648618E+00 0.13422359E+04</pdfrwt>
<pdfrwt beam="2">  1       -3 0.26887037E-01 0.13422359E+04</pdfrwt>
<totfact> 0.26700285E+01</totfact>
</mgrwt>
</event>
<event>
12    6  0.1569942E-007  0.2224260E+04  0.7818608E-02  0.8508398E-01
         -1   -1    0    0    0  501 -0.00000000000E+00  0.00000000000E+00  0.12617839591E+04  0.12617839591E+04  0.00000000000E+00 0.  1.
          2   -1    0    0  501    0  0.00000000000E+00 -0.00000000000E+00 -0.98022558941E+03  0.98022558941E+03  0.00000000000E+00 0. -1.
         24    2    1    2    0    0  0.55067463532E+03 -0.39418494789E+03  0.74897840246E+03  0.10128309248E+04  0.78952566939E+02 0.  0.
        254    2    1    2    0    0 -0.55067463532E+03  0.39418494789E+03 -0.46742003273E+03  0.12291786237E+04  0.91311241088E+03 0.  0.
         23    2    4    4    0    0 -0.74468580267E+02  0.59914165689E+03 -0.24049707639E+03  0.65624004424E+03  0.91081597775E+02 0.  0.
         23    2    4    4    0    0 -0.47620605505E+03 -0.20495670900E+03 -0.22692295634E+03  0.57293857948E+03  0.89359545180E+02 0.  0.
          2    1    3    3  502    0  0.40955819705E+02 -0.11741765770E+02  0.67580848010E+02  0.79890044742E+02  0.00000000000E+00 0. -1.
         -1    1    3    3    0  502  0.50971881561E+03 -0.38244318212E+03  0.68139755445E+03  0.93294088009E+03  0.00000000000E+00 0.  1.
         11    1    5    5    0    0 -0.63410533030E+02  0.50948752032E+03 -0.23792956747E+03  0.56587004528E+03  0.00000000000E+00 0. -1.
        -11    1    5    5    0    0 -0.11058047237E+02  0.89654136561E+02 -0.25675089231E+01  0.90369998967E+02  0.00000000000E+00 0.  1.
          2    1    6    6  503    0 -0.38531446355E+03 -0.15095415013E+03 -0.21556121865E+03  0.46660586178E+03  0.00000000000E+00 0. -1.
         -2    1    6    6    0  503 -0.90891591503E+02 -0.54002558872E+02 -0.11361737683E+02  0.10633271770E+03  0.00000000000E+00 0.  1.
<mgrwt>
<rscale>  0 0.22242598E+04</rscale>
<asrwt>0</asrwt>
<pdfrwt beam="1">  1        2 0.15080394E+00 0.22242598E+04</pdfrwt>
<pdfrwt beam="2">  1       -1 0.19412061E+00 0.22242598E+04</pdfrwt>
<totfact> 0.44620150E+00</totfact>
</mgrwt>
</event>
<event>
12    6  0.1569942E-007  0.1406994E+04  0.7818608E-02  0.8948771E-01
          2   -1    0    0  501    0  0.00000000000E+00  0.00000000000E+00  0.11726601086E+04  0.11726601086E+04  0.00000000000E+00 0. -1.
         -1   -1    0    0    0  501 -0.00000000000E+00 -0.00000000000E+00 -0.42203873072E+03  0.42203873072E+03  0.00000000000E+00 0.  1.
         24    2    1    2    0    0 -0.24859573715E+03  0.17010322729E+02  0.59460683925E+03  0.64961504245E+03  0.79707079218E+02 0.  0.
        254    2    1    2    0    0  0.24859573715E+03 -0.17010322729E+02  0.15601453860E+03  0.94508379684E+03  0.89819466442E+03 0.  0.
         23    2    4    4    0    0  0.34917390205E+03  0.25554181055E+01 -0.30001214021E+03  0.46911072879E+03  0.90159012680E+02 0.  0.
         23    2    4    4    0    0 -0.10057816489E+03 -0.19565740834E+02  0.45602667881E+03  0.47597306805E+03  0.89951343815E+02 0.  0.
          2    1    3    3  502    0 -0.23229310197E+03  0.12659077682E+02  0.58638166191E+03  0.63084371352E+03  0.00000000000E+00 0. -1.
         -1    1    3    3    0  502 -0.16302635177E+02  0.43512450465E+01  0.82251773483E+01  0.18771328924E+02  0.00000000000E+00 0.  1.
         11    1    5    5    0    0  0.18771436037E+03  0.43910499651E+02 -0.17975285666E+03  0.26358281914E+03  0.00000000000E+00 0.  1.
        -11    1    5    5    0    0  0.16145954167E+03 -0.41355081545E+02 -0.12025928355E+03  0.20552790965E+03  0.00000000000E+00 0. -1.
          4    1    6    6  503    0 -0.94512070477E+01 -0.29209100412E+02  0.42581524815E+02  0.52494600837E+02  0.00000000000E+00 0. -1.
         -4    1    6    6    0  503 -0.91126957846E+02  0.96433595772E+01  0.41344515399E+03  0.42347846721E+03  0.00000000000E+00 0.  1.
<mgrwt>
<rscale>  0 0.14069939E+04</rscale>
<asrwt>0</asrwt>
<pdfrwt beam="1">  1        2 0.18040925E+00 0.14069939E+04</pdfrwt>
<pdfrwt beam="2">  1       -1 0.64929036E-01 0.14069939E+04</pdfrwt>
<totfact> 0.52481622E+01</totfact>
</mgrwt>
</event>
<event>
12    6  0.1569942E-007  0.2098022E+04  0.7818608E-02  0.8562115E-01
          2   -1    0    0  501    0  0.00000000000E+00  0.00000000000E+00  0.98574678053E+03  0.98574678053E+03  0.00000000000E+00 0. -1.
         -1   -1    0    0    0  501 -0.00000000000E+00 -0.00000000000E+00 -0.11163356054E+04  0.11163356054E+04  0.00000000000E+00 0.  1.
         24    2    1    2    0    0  0.55116732977E+03  0.32911095243E+03  0.52096090044E+03  0.83074823187E+03  0.81504113675E+02 0.  0.
        254    2    1    2    0    0 -0.55116732977E+03 -0.32911095243E+03 -0.65154972532E+03  0.12713341541E+04  0.88299153014E+03 0.  0.
         23    2    4    4    0    0  0.16364222588E+03 -0.26020091997E+03 -0.38479133153E+02  0.32262364075E+03  0.90122544532E+02 0.  0.
         23    2    4    4    0    0 -0.71480955565E+03 -0.68910032460E+02 -0.61307059217E+03  0.94871051332E+03  0.92167204967E+02 0.  0.
          2    1    3    3  502    0  0.38547555069E+03  0.18720909450E+03  0.33094042783E+03  0.54144271351E+03  0.00000000000E+00 0. -1.
         -1    1    3    3    0  502  0.16569177908E+03  0.14190185793E+03  0.19002047261E+03  0.28930551836E+03  0.00000000000E+00 0.  1.
         11    1    5    5    0    0  0.45620777366E+02 -0.15537831077E+03 -0.28783830154E+02  0.16447548043E+03  0.00000000000E+00 0.  1.
        -11    1    5    5    0    0  0.11802144852E+03 -0.10482260920E+03 -0.96953029989E+01  0.15814816031E+03  0.00000000000E+00 0. -1.
          1    1    6    6  503    0 -0.66076150478E+03 -0.48793598808E+02 -0.53468471176E+03  0.85139551471E+03  0.00000000000E+00 0. -1.
         -1    1    6    6    0  503 -0.54048050873E+02 -0.20116433653E+02 -0.78385880407E+02  0.97314998604E+02  0.00000000000E+00 0.  1.
<mgrwt>
<rscale>  0 0.20980221E+04</rscale>
<asrwt>0</asrwt>
<pdfrwt beam="1">  1        2 0.15165335E+00 0.20980221E+04</pdfrwt>
<pdfrwt beam="2">  1       -1 0.17174394E+00 0.20980221E+04</pdfrwt>
<totfact> 0.64622615E+00</totfact>
</mgrwt>
</event>
<event>
12    6  0.1569942E-007  0.1428104E+04  0.7818608E-02  0.8933723E-01
          2   -1    0    0  501    0  0.00000000000E+00  0.00000000000E+00  0.54658713458E+03  0.54658713458E+03  0.00000000000E+00 0. -1.
         -1   -1    0    0    0  501 -0.00000000000E+00 -0.00000000000E+00 -0.93282498480E+03  0.93282498480E+03  0.00000000000E+00 0.  1.
         24    2    1    2    0    0 -0.33949191181E+03 -0.16043608671E+02  0.13733220368E+03  0.37610630873E+03  0.84164515877E+02 0.  0.
        254    2    1    2    0    0  0.33949191181E+03  0.16043608671E+02 -0.52357005390E+03  0.11033058107E+04  0.90975049048E+03 0.  0.
         23    2    4    4    0    0  0.40618562233E+03  0.35731435918E+03 -0.11679535643E+03  0.56033607726E+03  0.87607380613E+02 0.  0.
         23    2    4    4    0    0 -0.66693710517E+02 -0.34127075050E+03 -0.40677469747E+03  0.54296973339E+03  0.91851514475E+02 0.  0.
          4    1    3    3  502    0 -0.17995476348E+03  0.52995895996E+01  0.11494570460E+03  0.21359849614E+03  0.00000000000E+00 0. -1.
         -3    1    3    3    0  502 -0.15953714833E+03 -0.21343198271E+02  0.22386499082E+02  0.16250781258E+03  0.00000000000E+00 0.  1.
         11    1    5    5    0    0  0.40725030959E+01  0.67492143651E+01 -0.15421012415E+02  0.17318914513E+02  0.00000000000E+00 0. -1.
        -11    1    5    5    0    0  0.40211311923E+03  0.35056514481E+03 -0.10137434402E+03  0.54301716275E+03  0.00000000000E+00 0.  1.
          3    1    6    6  503    0 -0.85517756128E+02 -0.23642300725E+03 -0.30916944379E+03  0.39849074010E+03  0.00000000000E+00 0. -1.
         -3    1    6    6    0  503  0.18824045612E+02 -0.10484774325E+03 -0.97605253673E+02  0.14447899329E+03  0.00000000000E+00 0.  1.
<mgrwt>
<rscale>  0 0.14281038E+04</rscale>
<asrwt>0</asrwt>
<pdfrwt beam="1">  1        2 0.84090328E-01 0.14281038E+04</pdfrwt>
<pdfrwt beam="2">  1       -1 0.14351154E+00 0.14281038E+04</pdfrwt>
<totfact> 0.24183889E+01</totfact>
</mgrwt>
</event>
<event>
12    6  0.1569942E-007  0.1106285E+04  0.7818608E-02  0.9199088E-01
         -1   -1    0    0    0  501 -0.00000000000E+00  0.00000000000E+00  0.11242969737E+04  0.11242969737E+04  0.00000000000E+00 0.  1.
          2   -1    0    0  501    0  0.00000000000E+00 -0.00000000000E+00 -0.27214034626E+03  0.27214034626E+03  0.00000000000E+00 0. -1.
         24    2    1    2    0    0 -0.92286764531E+02  0.37029234585E+02  0.31806227679E+03  0.34237046675E+03  0.78523330678E+02 0.  0.
        254    2    1    2    0    0  0.92286764531E+02 -0.37029234585E+02  0.53409435061E+03  0.10540668532E+04  0.90327855310E+03 0.  0.
         23    2    4    4    0    0  0.20557016826E+03 -0.73429171837E+02  0.75137537218E+03  0.78778144925E+03  0.91562680713E+02 0.  0.
         23    2    4    4    0    0 -0.11328340373E+03  0.36399937252E+02 -0.21728102157E+03  0.26628540393E+03  0.97666724201E+02 0.  0.
          2    1    3    3  502    0 -0.21380433381E+02  0.30474004403E+02  0.37220836994E+02  0.52641984979E+02  0.00000000000E+00 0. -1.
         -1    1    3    3    0  502 -0.70906331150E+02  0.65552301810E+01  0.28084143980E+03  0.28972848177E+03  0.00000000000E+00 0.  1.
         11    1    5    5    0    0  0.19827270104E+03 -0.51945373954E+02  0.72277000466E+03  0.75127016811E+03  0.00000000000E+00 0. -1.
        -11    1    5    5    0    0  0.72974672199E+01 -0.21483797882E+02  0.28605367524E+02  0.36511281139E+02  0.00000000000E+00 0.  1.
          4    1    6    6  503    0 -0.10834633312E+03  0.22096417593E+02 -0.22394070085E+03  0.24975311222E+03  0.00000000000E+00 0. -1.
         -4    1    6    6    0  503 -0.49370706134E+01  0.14303519659E+02  0.66596792744E+01  0.16532291702E+02  0.00000000000E+00 0.  1.
<mgrwt>
<rscale>  0 0.11062849E+04</rscale>
<asrwt>0</asrwt>
<pdfrwt beam="1">  1        2 0.41867746E-01 0.11062849E+04</pdfrwt>
<pdfrwt beam="2">  1       -1 0.17296876E+00 0.11062849E+04</pdfrwt>
<totfact> 0.32602531E+01</totfact>
</mgrwt>
</event>
<event>
12    6  0.1569942E-007  0.2184244E+04  0.7818608E-02  0.8525015E-01
          2   -1    0    0  501    0  0.00000000000E+00  0.00000000000E+00  0.36326248790E+04  0.36326248790E+04  0.00000000000E+00 0. -1.
         -1   -1    0    0    0  501 -0.00000000000E+00 -0.00000000000E+00 -0.32833842800E+03  0.32833842800E+03  0.00000000000E+00 0.  1.
         24    2    1    2    0    0 -0.88276386804E+03 -0.81672043290E+02  0.16917866041E+04  0.19116819887E+04  0.80272927193E+02 0.  0.
        254    2    1    2    0    0  0.88276386804E+03  0.81672043290E+02  0.16124998469E+04  0.20492813183E+04  0.90191784314E+03 0.  0.
         23    2    4    4    0    0  0.91115348837E+03 -0.15919834539E+03  0.91391483384E+03  0.13040786672E+04  0.99176883174E+02 0.  0.
         23    2    4    4    0    0 -0.28389620324E+02  0.24087038868E+03  0.69858501305E+03  0.74520265107E+03  0.92094820832E+02 0.  0.
          2    1    3    3  502    0 -0.66035193986E+03 -0.41515039225E+02  0.13211052329E+04  0.14775341686E+04  0.00000000000E+00 0. -1.
         -1    1    3    3    0  502 -0.22241192818E+03 -0.40157004066E+02  0.37068137114E+03  0.43414782008E+03  0.00000000000E+00 0.  1.
         11    1    5    5    0    0  0.68335527050E+03 -0.11423540992E+03  0.74193223932E+03  0.10151293525E+04  0.00000000000E+00 0.  1.
        -11    1    5    5    0    0  0.22779821786E+03 -0.44962935468E+02  0.17198259452E+03  0.28894931467E+03  0.00000000000E+00 0. -1.
          1    1    6    6  503    0 -0.11948974998E+02  0.12040191646E+02  0.14460606893E+03  0.14559759404E+03  0.00000000000E+00 0. -1.
         -1    1    6    6    0  503 -0.16440645327E+02  0.22883019704E+03  0.55397894412E+03  0.59960505703E+03  0.00000000000E+00 0.  1.
<mgrwt>
<rscale>  0 0.21842439E+04</rscale>
<asrwt>0</asrwt>
<pdfrwt beam="1">  1        2 0.55886534E+00 0.21842439E+04</pdfrwt>
<pdfrwt beam="2">  1       -1 0.50513607E-01 0.21842439E+04</pdfrwt>
<totfact> 0.26928595E+00</totfact>
</mgrwt>
</event>
<event>
12    6  0.1569942E-007  0.2391183E+04  0.7818608E-02  0.8442812E-01
          2   -1    0    0  501    0  0.00000000000E+00  0.00000000000E+00  0.11817264582E+04  0.11817264582E+04  0.00000000000E+00 0. -1.
         -1   -1    0    0    0  501 -0.00000000000E+00 -0.00000000000E+00 -0.12096194366E+04  0.12096194366E+04  0.00000000000E+00 0.  1.
         24    2    1    2    0    0 -0.40678824298E+03 -0.93317361668E+03  0.12953497821E+03  0.10293210024E+04  0.80204375860E+02 0.  0.
        254    2    1    2    0    0  0.40678824298E+03  0.93317361668E+03 -0.15742795662E+03  0.13620248924E+04  0.89108842009E+03 0.  0.
         23    2    4    4    0    0  0.17223223201E+03  0.42257013973E+03  0.36352663084E+03  0.59048400244E+03  0.91050980591E+02 0.  0.
         23    2    4    4    0    0  0.23455601097E+03  0.51060347695E+03 -0.52095458746E+03  0.77154088994E+03  0.90273083992E+02 0.  0.
          2    1    3    3  502    0 -0.38356684445E+03 -0.84457770407E+03  0.13595963898E+03  0.93750735773E+03  0.00000000000E+00 0. -1.
         -1    1    3    3    0  502 -0.23221398528E+02 -0.88595912615E+02 -0.64246607662E+01  0.91813644670E+02  0.00000000000E+00 0.  1.
         11    1    5    5    0    0  0.86357193292E+02  0.31933907042E+03  0.26685265637E+03  0.42502393690E+03  0.00000000000E+00 0. -1.
        -11    1    5    5    0    0  0.85875038716E+02  0.10323106932E+03  0.96673974466E+02  0.16546006553E+03  0.00000000000E+00 0.  1.
          2    1    6    6  503    0  0.66230121589E+02  0.92738652711E+02 -0.68009868251E+02  0.13271107298E+03  0.00000000000E+00 0. -1.
         -2    1    6    6    0  503  0.16832588938E+03  0.41786482424E+03 -0.45294471921E+03  0.63882981695E+03  0.00000000000E+00 0.  1.
<mgrwt>
<rscale>  0 0.23911832E+04</rscale>
<asrwt>0</asrwt>
<pdfrwt beam="1">  1        2 0.18180407E+00 0.23911832E+04</pdfrwt>
<pdfrwt beam="2">  1       -1 0.18609530E+00 0.23911832E+04</pdfrwt>
<totfact> 0.37513576E+00</totfact>
</mgrwt>
</event>
<event>
12    6  0.1704974E-007  0.2476478E+04  0.7818608E-02  0.8411413E-01
         -1   -1    0    0    0  501 -0.00000000000E+00  0.00000000000E+00  0.75149312048E+03  0.75149312048E+03  0.00000000000E+00 0.  1.
          2   -1    0    0  501    0  0.00000000000E+00 -0.00000000000E+00 -0.20402533287E+04  0.20402533287E+04  0.00000000000E+00 0. -1.
         24    2    1    2    0    0 -0.51886709269E+03  0.33699200695E+03  0.42552939057E+03  0.75545918153E+03  0.82804831321E+02 0.  0.
        254    2    1    2    0    0  0.51886709269E+03 -0.33699200695E+03 -0.17142895988E+04  0.20362872676E+04  0.90823473576E+03 0.  0.
         23    2    4    4    0    0 -0.24593637586E+03 -0.10253066718E+03 -0.58494790043E+03  0.64927531929E+03  0.91635993679E+02 0.  0.
         23    2    4    4    0    0  0.76480346856E+03 -0.23446133977E+03 -0.11293416983E+04  0.13870119483E+04  0.92157516624E+02 0.  0.
          4    1    3    3  502    0 -0.44186456276E+01  0.84300583950E+01  0.21303499051E+02  0.23333010640E+02  0.00000000000E+00 0. -1.
         -1    1    3    3    0  502 -0.51444844707E+03  0.32856194856E+03  0.40422589152E+03  0.73212617089E+03  0.00000000000E+00 0.  1.
         11    1    5    5    0    0 -0.14615461909E+03 -0.10474235322E+03 -0.33648220500E+03  0.38151331238E+03  0.00000000000E+00 0. -1.
        -11    1    5    5    0    0 -0.99781756770E+02  0.22116860474E+01 -0.24846569543E+03  0.26776200691E+03  0.00000000000E+00 0.  1.
          3    1    6    6  503    0  0.44668304713E+03 -0.99623100716E+02 -0.69210385513E+03  0.82973384472E+03  0.00000000000E+00 0. -1.
         -3    1    6    6    0  503  0.31812042143E+03 -0.13483823906E+03 -0.43723784320E+03  0.55727810362E+03  0.00000000000E+00 0.  1.
<mgrwt>
<rscale>  0 0.24764784E+04</rscale>
<asrwt>0</asrwt>
<pdfrwt beam="1">  1        2 0.31388512E+00 0.24764784E+04</pdfrwt>
<pdfrwt beam="2">  1       -1 0.11561433E+00 0.24764784E+04</pdfrwt>
<totfact> 0.43716383E+00</totfact>
</mgrwt>
</event>
<event>
12    6  0.1569942E-007  0.2135246E+04  0.7818608E-02  0.8545874E-01
         -1   -1    0    0    0  501 -0.00000000000E+00  0.00000000000E+00  0.61157050064E+03  0.61157050064E+03  0.00000000000E+00 0.  1.
          2   -1    0    0  501    0  0.00000000000E+00 -0.00000000000E+00 -0.18637566474E+04  0.18637566474E+04  0.00000000000E+00 0. -1.
         24    2    1    2    0    0  0.30914774182E+03  0.74148847902E+03 -0.14711881997E+03  0.82072972502E+03  0.81091575081E+02 0.  0.
        254    2    1    2    0    0 -0.30914774182E+03 -0.74148847902E+03 -0.11050673268E+04  0.16545974231E+04  0.93334952980E+03 0.  0.
         23    2    4    4    0    0 -0.51648522577E+03 -0.31797745579E+03 -0.22798129228E+03  0.65428224086E+03  0.90791685981E+02 0.  0.
         23    2    4    4    0    0  0.20733748395E+03 -0.42351102323E+03 -0.87708603454E+03  0.10003151822E+04  0.94869029163E+02 0.  0.
          2    1    3    3  502    0  0.43098743883E+02  0.48078543700E+02 -0.72128950596E+01  0.64969792548E+02  0.00000000000E+00 0. -1.
         -1    1    3    3    0  502  0.26604899794E+03  0.69340993532E+03 -0.13990592491E+03  0.75575993247E+03  0.00000000000E+00 0.  1.
         11    1    5    5    0    0 -0.33571324502E+03 -0.25491402266E+03 -0.16614099990E+03  0.45308649691E+03  0.00000000000E+00 0. -1.
        -11    1    5    5    0    0 -0.18077198075E+03 -0.63063433127E+02 -0.61840292375E+02  0.20119574395E+03  0.00000000000E+00 0.  1.
          4    1    6    6  503    0  0.15560720362E+03 -0.21115732854E+03 -0.48980445690E+03  0.55561625716E+03  0.00000000000E+00 0. -1.
         -4    1    6    6    0  503  0.51730280327E+02 -0.21235369469E+03 -0.38728157764E+03  0.44469892504E+03  0.00000000000E+00 0.  1.
<mgrwt>
<rscale>  0 0.21352457E+04</rscale>
<asrwt>0</asrwt>
<pdfrwt beam="1">  1        2 0.28673179E+00 0.21352457E+04</pdfrwt>
<pdfrwt beam="2">  1       -1 0.94087770E-01 0.21352457E+04</pdfrwt>
<totfact> 0.91044212E+00</totfact>
</mgrwt>
</event>
<event>
12    6  0.1569942E-007  0.2031222E+04  0.7818608E-02  0.8592161E-01
         -1   -1    0    0    0  501 -0.00000000000E+00  0.00000000000E+00  0.65304787627E+03  0.65304787627E+03  0.00000000000E+00 0.  1.
          2   -1    0    0  501    0  0.00000000000E+00 -0.00000000000E+00 -0.15794642072E+04  0.15794642072E+04  0.00000000000E+00 0. -1.
         24    2    1    2    0    0 -0.18230567963E+03 -0.57879625949E+03  0.22581921125E+03  0.65166524329E+03  0.73707545866E+02 0.  0.
        254    2    1    2    0    0  0.18230567963E+03  0.57879625949E+03 -0.11522355422E+04  0.15808468402E+04  0.89620841136E+03 0.  0.
         23    2    4    4    0    0 -0.20917164275E+03 -0.99011485295E+02 -0.10436535749E+03  0.26963642147E+03  0.90860451175E+02 0.  0.
         23    2    4    4    0    0  0.39147732238E+03  0.67780774479E+03 -0.10478701847E+04  0.13112104187E+04  0.92536508105E+02 0.  0.
          4    1    3    3  502    0 -0.88158526289E+02 -0.21464508468E+03  0.11838201383E+03  0.26049710043E+03  0.00000000000E+00 0. -1.
         -3    1    3    3    0  502 -0.94147153343E+02 -0.36415117481E+03  0.10743719742E+03  0.39116814286E+03  0.00000000000E+00 0.  1.
         11    1    5    5    0    0 -0.36313246595E+02  0.14266014195E+02 -0.32664264036E+02  0.50883447056E+02  0.00000000000E+00 0. -1.
        -11    1    5    5    0    0 -0.17285839615E+03 -0.11327749949E+03 -0.71701093451E+02  0.21875297441E+03  0.00000000000E+00 0.  1.
          3    1    6    6  503    0  0.92635925680E+02  0.15397718408E+03 -0.30913299093E+03  0.35756620929E+03  0.00000000000E+00 0. -1.
         -3    1    6    6    0  503  0.29884139670E+03  0.52383056070E+03 -0.73873719374E+03  0.95364420940E+03  0.00000000000E+00 0.  1.
<mgrwt>
<rscale>  0 0.20312220E+04</rscale>
<asrwt>0</asrwt>
<pdfrwt beam="1">  1        2 0.24299449E+00 0.20312220E+04</pdfrwt>
<pdfrwt beam="2">  1       -1 0.10046891E+00 0.20312220E+04</pdfrwt>
<totfact> 0.11399268E+01</totfact>
</mgrwt>
</event>
<event>
12    6  0.1569942E-007  0.1717097E+04  0.7818608E-02  0.8751673E-01
          2   -1    0    0  501    0  0.00000000000E+00  0.00000000000E+00  0.76834600534E+03  0.76834600534E+03  0.00000000000E+00 0. -1.
         -1   -1    0    0    0  501 -0.00000000000E+00 -0.00000000000E+00 -0.95934047358E+03  0.95934047358E+03  0.00000000000E+00 0.  1.
         24    2    1    2    0    0 -0.53824956710E+03  0.15948904101E+02  0.22648069358E+03  0.58988392483E+03  0.81869262764E+02 0.  0.
        254    2    1    2    0    0  0.53824956710E+03 -0.15948904101E+02 -0.41747516181E+03  0.11378025541E+04  0.91123113277E+03 0.  0.
         23    2    4    4    0    0  0.38595405081E+03 -0.28215164082E+03  0.12969802473E+03  0.50367016769E+03  0.91060323170E+02 0.  0.
         23    2    4    4    0    0  0.15229551629E+03  0.26620273671E+03 -0.54717318655E+03  0.63413238639E+03  0.93099764103E+02 0.  0.
          4    1    3    3  502    0 -0.43586035917E+03  0.18570311844E+02  0.14739916312E+03  0.46048411750E+03  0.00000000000E+00 0. -1.
         -3    1    3    3    0  502 -0.10238920793E+03 -0.26214077427E+01  0.79081530454E+02  0.12939980733E+03  0.00000000000E+00 0.  1.
         11    1    5    5    0    0  0.31574946127E+03 -0.18879853313E+03  0.11765744028E+03  0.38624588238E+03  0.00000000000E+00 0.  1.
        -11    1    5    5    0    0  0.70204589533E+02 -0.93353107688E+02  0.12040584456E+02  0.11742428531E+03  0.00000000000E+00 0. -1.
          1    1    6    6  503    0  0.19671884137E+02  0.11215419835E+02 -0.10019467310E+03  0.10272166853E+03  0.00000000000E+00 0. -1.
         -1    1    6    6    0  503  0.13262363216E+03  0.25498731688E+03 -0.44697851345E+03  0.53141071786E+03  0.00000000000E+00 0.  1.
<mgrwt>
<rscale>  0 0.17170969E+04</rscale>
<asrwt>0</asrwt>
<pdfrwt beam="1">  1        2 0.11820708E+00 0.17170969E+04</pdfrwt>
<pdfrwt beam="2">  1       -1 0.14759084E+00 0.17170969E+04</pdfrwt>
<totfact> 0.14367536E+01</totfact>
</mgrwt>
</event>
<event>
12    6  0.1569942E-007  0.2036730E+04  0.7818608E-02  0.8589638E-01
         -1   -1    0    0    0  501 -0.00000000000E+00  0.00000000000E+00  0.39289069243E+03  0.39289069243E+03  0.00000000000E+00 0.  1.
          2   -1    0    0  501    0  0.00000000000E+00 -0.00000000000E+00 -0.26395817681E+04  0.26395817681E+04  0.00000000000E+00 0. -1.
         24    2    1    2    0    0 -0.57809062596E+03  0.36226310119E+03 -0.14359418476E+04  0.15917740300E+04  0.79951526052E+02 0.  0.
        254    2    1    2    0    0  0.57809062596E+03 -0.36226310119E+03 -0.81074922805E+03  0.14406984305E+04  0.97615282136E+03 0.  0.
         23    2    4    4    0    0  0.37469560247E+02 -0.35462101102E+03 -0.81323379963E+03  0.89248022148E+03  0.89508119628E+02 0.  0.
         23    2    4    4    0    0  0.54062106571E+03 -0.76420901770E+01  0.24845715736E+01  0.54821820905E+03  0.90595217353E+02 0.  0.
          2    1    3    3  502    0 -0.45541523460E+03  0.26584662925E+03 -0.11718547744E+04  0.12850373841E+04  0.00000000000E+00 0. -1.
         -1    1    3    3    0  502 -0.12267539136E+03  0.96416471938E+02 -0.26408707315E+03  0.30673664586E+03  0.00000000000E+00 0.  1.
         11    1    5    5    0    0 -0.29282531529E+02 -0.10227153385E+03 -0.25053615639E+03  0.27218614760E+03  0.00000000000E+00 0.  1.
        -11    1    5    5    0    0  0.66752091775E+02 -0.25234947716E+03 -0.56269764324E+03  0.62029407388E+03  0.00000000000E+00 0. -1.
          2    1    6    6  503    0  0.13538169847E+02  0.15484533557E+02 -0.13739774351E+01  0.20614088296E+02  0.00000000000E+00 0.  1.
         -2    1    6    6    0  503  0.52708289587E+03 -0.23126623734E+02  0.38585490087E+01  0.52760412076E+03  0.00000000000E+00 0. -1.
<mgrwt>
<rscale>  0 0.20367298E+04</rscale>
<asrwt>0</asrwt>
<pdfrwt beam="1">  1        2 0.40608953E+00 0.20367298E+04</pdfrwt>
<pdfrwt beam="2">  1       -1 0.60444717E-01 0.20367298E+04</pdfrwt>
<totfact> 0.84468155E+00</totfact>
</mgrwt>
</event>
<event>
12    6  0.1569942E-007  0.2584548E+04  0.7818608E-02  0.8373469E-01
          2   -1    0    0  501    0  0.00000000000E+00  0.00000000000E+00  0.15098938204E+04  0.15098938204E+04  0.00000000000E+00 0. -1.
         -1   -1    0    0    0  501 -0.00000000000E+00 -0.00000000000E+00 -0.11060198602E+04  0.11060198602E+04  0.00000000000E+00 0.  1.
         24    2    1    2    0    0 -0.57861597947E+03  0.60708434826E+03 -0.59436155381E+03  0.10309856403E+04  0.79485069723E+02 0.  0.
        254    2    1    2    0    0  0.57861597947E+03 -0.60708434826E+03  0.99823551402E+03  0.15849280403E+04  0.90120746432E+03 0.  0.
         23    2    4    4    0    0 -0.19957521912E+03 -0.11238579337E+03  0.43471545528E+03  0.50048971597E+03  0.95139865970E+02 0.  0.
         23    2    4    4    0    0  0.77819119858E+03 -0.49469855489E+03  0.56352005874E+03  0.10844383243E+04  0.90240904314E+02 0.  0.
          4    1    3    3  502    0 -0.41953366312E+03  0.43671118848E+03 -0.38447070641E+03  0.71731644392E+03  0.00000000000E+00 0. -1.
         -3    1    3    3    0  502 -0.15908231635E+03  0.17037315978E+03 -0.20989084741E+03  0.31366919640E+03  0.00000000000E+00 0.  1.
         11    1    5    5    0    0 -0.81800275729E+02 -0.10057230535E+03  0.22469523277E+03  0.25941091215E+03  0.00000000000E+00 0. -1.
        -11    1    5    5    0    0 -0.11777494339E+03 -0.11813488021E+02  0.21002022251E+03  0.24107880382E+03  0.00000000000E+00 0.  1.
          4    1    6    6  503    0  0.35311826141E+03 -0.17394527972E+03  0.22423589348E+03  0.45302450574E+03  0.00000000000E+00 0. -1.
         -4    1    6    6    0  503  0.42507293717E+03 -0.32075327517E+03  0.33928416526E+03  0.63141381854E+03  0.00000000000E+00 0.  1.
<mgrwt>
<rscale>  0 0.25845484E+04</rscale>
<asrwt>0</asrwt>
<pdfrwt beam="1">  1        2 0.23229136E+00 0.25845484E+04</pdfrwt>
<pdfrwt beam="2">  1       -1 0.17015690E+00 0.25845484E+04</pdfrwt>
<totfact> 0.31022983E+00</totfact>
</mgrwt>
</event>
<event>
12    6  0.1569942E-007  0.1943589E+04  0.7818608E-02  0.8633458E-01
          2   -1    0    0  501    0  0.00000000000E+00  0.00000000000E+00  0.10103626245E+04  0.10103626245E+04  0.00000000000E+00 0. -1.
         -1   -1    0    0    0  501 -0.00000000000E+00 -0.00000000000E+00 -0.93469885149E+03  0.93469885149E+03  0.00000000000E+00 0.  1.
         24    2    1    2    0    0 -0.67116735681E+03 -0.34324187650E+02 -0.35354387336E+03  0.76322112752E+03  0.76612325333E+02 0.  0.
        254    2    1    2    0    0  0.67116735681E+03  0.34324187650E+02  0.42920764638E+03  0.11818403485E+04  0.87228644085E+03 0.  0.
         23    2    4    4    0    0  0.37438046093E+03  0.35532595662E+03  0.50613397252E+03  0.72859035922E+03  0.90857297102E+02 0.  0.
         23    2    4    4    0    0  0.29678689588E+03 -0.32100176897E+03 -0.76926326144E+02  0.45324998927E+03  0.91614932528E+02 0.  0.
          4    1    3    3  502    0 -0.89233824310E+02 -0.20918063845E+02 -0.25834487275E+02  0.95224269641E+02  0.00000000000E+00 0. -1.
         -3    1    3    3    0  502 -0.58193353250E+03 -0.13406123805E+02 -0.32770938608E+03  0.66799685788E+03  0.00000000000E+00 0.  1.
         11    1    5    5    0    0  0.13245951025E+03  0.16001446166E+03  0.25510083985E+03  0.32897809697E+03  0.00000000000E+00 0. -1.
        -11    1    5    5    0    0  0.24192095068E+03  0.19531149497E+03  0.25103313267E+03  0.39961226225E+03  0.00000000000E+00 0.  1.
          3    1    6    6  503    0  0.13558819288E+03 -0.10573579450E+03  0.53129001265E+01  0.17202454242E+03  0.00000000000E+00 0. -1.
         -3    1    6    6    0  503  0.16119870301E+03 -0.21526597447E+03 -0.82239226270E+02  0.28122544685E+03  0.00000000000E+00 0.  1.
<mgrwt>
<rscale>  0 0.19435892E+04</rscale>
<asrwt>0</asrwt>
<pdfrwt beam="1">  1        2 0.15544040E+00 0.19435892E+04</pdfrwt>
<pdfrwt beam="2">  1       -1 0.14379982E+00 0.19435892E+04</pdfrwt>
<totfact> 0.10316159E+01</totfact>
</mgrwt>
</event>
<event>
12    6  0.1569942E-007  0.1655855E+04  0.7818608E-02  0.8786950E-01
         -1   -1    0    0    0  501 -0.00000000000E+00  0.00000000000E+00  0.30090916427E+03  0.30090916427E+03  0.00000000000E+00 0.  1.
          2   -1    0    0  501    0  0.00000000000E+00 -0.00000000000E+00 -0.22779759626E+04  0.22779759626E+04  0.00000000000E+00 0. -1.
         24    2    1    2    0    0  0.77480345738E+02  0.16855155879E+03  0.15761640302E+03  0.25711408716E+03  0.82776152160E+02 0.  0.
        254    2    1    2    0    0 -0.77480345738E+02 -0.16855155879E+03 -0.21346832014E+04  0.23217710398E+04  0.89405567992E+03 0.  0.
         23    2    4    4    0    0 -0.22074004938E+03 -0.49082691592E+03 -0.11866107799E+04  0.13061800965E+04  0.91782736786E+02 0.  0.
         23    2    4    4    0    0  0.14325970365E+03  0.32227535712E+03 -0.94807242148E+03  0.10155909432E+04  0.90547772460E+02 0.  0.
          2    1    3    3  502    0  0.19552896342E+02  0.63830663631E+02  0.10925632748E+03  0.12803755101E+03  0.00000000000E+00 0. -1.
         -1    1    3    3    0  502  0.57927449395E+02  0.10472089516E+03  0.48360075541E+02  0.12907653615E+03  0.00000000000E+00 0.  1.
         11    1    5    5    0    0 -0.83854952640E+02 -0.29658748289E+03 -0.65704420366E+03  0.72574298044E+03  0.00000000000E+00 0.  1.
        -11    1    5    5    0    0 -0.13688509674E+03 -0.19423943302E+03 -0.52956657626E+03  0.58043711610E+03  0.00000000000E+00 0. -1.
          2    1    6    6  503    0  0.11192755401E+03  0.15670711389E+03 -0.43977941676E+03  0.48009460765E+03  0.00000000000E+00 0. -1.
         -2    1    6    6    0  503  0.31332149635E+02  0.16556824324E+03 -0.50829300472E+03  0.53549633558E+03  0.00000000000E+00 0.  1.
<mgrwt>
<rscale>  0 0.16558549E+04</rscale>
<asrwt>0</asrwt>
<pdfrwt beam="1">  1        2 0.35045784E+00 0.16558549E+04</pdfrwt>
<pdfrwt beam="2">  1       -1 0.46293718E-01 0.16558549E+04</pdfrwt>
<totfact> 0.23582491E+01</totfact>
</mgrwt>
</event>
<event>
12    6  0.1617095E-007  0.1709266E+04  0.7818608E-02  0.8756097E-01
         -1   -1    0    0    0  501 -0.00000000000E+00  0.00000000000E+00  0.52757882715E+03  0.52757882715E+03  0.00000000000E+00 0.  1.
          2   -1    0    0  501    0  0.00000000000E+00 -0.00000000000E+00 -0.13844325791E+04  0.13844325791E+04  0.00000000000E+00 0. -1.
         24    2    1    2    0    0 -0.48270071659E+03 -0.21507943577E+03 -0.62881092265E+03  0.82518672200E+03  0.79188409653E+02 0.  0.
        254    2    1    2    0    0  0.48270071659E+03  0.21507943577E+03 -0.22804282928E+03  0.10868246842E+04  0.92191388794E+03 0.  0.
         23    2    4    4    0    0 -0.11573584400E+03 -0.15431079857E+03  0.17085155244E+03  0.27317025320E+03  0.90692481046E+02 0.  0.
         23    2    4    4    0    0  0.59843656059E+03  0.36939023434E+03 -0.39889438172E+03  0.81365443103E+03  0.91330953615E+02 0.  0.
          2    1    3    3  502    0 -0.47348730864E+03 -0.19943063881E+03 -0.59004603794E+03  0.78237915235E+03  0.00000000000E+00 0. -1.
         -1    1    3    3    0  502 -0.92134079468E+01 -0.15648796959E+02 -0.38764884710E+02  0.42807569644E+02  0.00000000000E+00 0.  1.
         11    1    5    5    0    0 -0.54950756930E+01  0.67174597413E+01 -0.53909273939E+01  0.10216761738E+02  0.00000000000E+00 0. -1.
        -11    1    5    5    0    0 -0.11024076831E+03 -0.16102825831E+03  0.17624247984E+03  0.26295349146E+03  0.00000000000E+00 0.  1.
          3    1    6    6  503    0  0.40693219806E+02  0.56568756462E+02 -0.38724411102E+02  0.79721655533E+02  0.00000000000E+00 0. -1.
         -3    1    6    6    0  503  0.55774334079E+03  0.31282147788E+03 -0.36016997062E+03  0.73393277550E+03  0.00000000000E+00 0.  1.
<mgrwt>
<rscale>  0 0.17092657E+04</rscale>
<asrwt>0</asrwt>
<pdfrwt beam="1">  1        2 0.21298963E+00 0.17092657E+04</pdfrwt>
<pdfrwt beam="2">  1       -1 0.81165974E-01 0.17092657E+04</pdfrwt>
<totfact> 0.24212081E+01</totfact>
</mgrwt>
</event>
<event>
12    6  0.1569942E-007  0.1090083E+04  0.7818608E-02  0.9214912E-01
          2   -1    0    0  501    0  0.00000000000E+00  0.00000000000E+00  0.30814998362E+04  0.30814998362E+04  0.00000000000E+00 0. -1.
         -1   -1    0    0    0  501 -0.00000000000E+00 -0.00000000000E+00 -0.96404372955E+02  0.96404372955E+02  0.00000000000E+00 0.  1.
         24    2    1    2    0    0 -0.10959328553E+03 -0.53082494499E+02  0.71847370119E+03  0.73315555619E+03  0.80524349214E+02 0.  0.
        254    2    1    2    0    0  0.10959328553E+03  0.53082494499E+02  0.22666217621E+04  0.24447486530E+04  0.90796108094E+03 0.  0.
         23    2    4    4    0    0 -0.20185502647E+03 -0.20016732363E+03  0.17909707972E+04  0.18156940334E+04  0.91411255054E+02 0.  0.
         23    2    4    4    0    0  0.31144831200E+03  0.25324981812E+03  0.47565096489E+03  0.62905461954E+03  0.91270764981E+02 0.  0.
          2    1    3    3  502    0  0.76370114098E+01 -0.19105753465E+02  0.17146682202E+03  0.17269691604E+03  0.00000000000E+00 0. -1.
         -1    1    3    3    0  502 -0.11723029694E+03 -0.33976741033E+02  0.54700687917E+03  0.56045864014E+03  0.00000000000E+00 0.  1.
         11    1    5    5    0    0 -0.15777389311E+03 -0.15410395644E+03  0.11068481884E+04  0.11286069036E+04  0.00000000000E+00 0.  1.
        -11    1    5    5    0    0 -0.44081133356E+02 -0.46063367184E+02  0.68412260877E+03  0.68708712980E+03  0.00000000000E+00 0. -1.
          4    1    6    6  503    0  0.68440101647E+02  0.10803179891E+03  0.13152658307E+03  0.18345069949E+03  0.00000000000E+00 0. -1.
         -4    1    6    6    0  503  0.24300821035E+03  0.14521801921E+03  0.34412438182E+03  0.44560392005E+03  0.00000000000E+00 0.  1.
<mgrwt>
<rscale>  0 0.10900827E+04</rscale>
<asrwt>0</asrwt>
<pdfrwt beam="1">  1        2 0.47407682E+00 0.10900827E+04</pdfrwt>
<pdfrwt beam="2">  1       -1 0.14831444E-01 0.10900827E+04</pdfrwt>
<totfact> 0.59900167E+01</totfact>
</mgrwt>
</event>
<event>
12    6  0.1569942E-007  0.1392680E+04  0.7818608E-02  0.8959134E-01
          2   -1    0    0  501    0  0.00000000000E+00  0.00000000000E+00  0.14146883930E+04  0.14146883930E+04  0.00000000000E+00 0. -1.
         -1   -1    0    0    0  501 -0.00000000000E+00 -0.00000000000E+00 -0.34275357338E+03  0.34275357338E+03  0.00000000000E+00 0.  1.
         24    2    1    2    0    0 -0.29369362563E+03  0.13638849779E+03  0.11121788135E+02  0.33338190112E+03  0.78498597197E+02 0.  0.
        254    2    1    2    0    0  0.29369362563E+03 -0.13638849779E+03  0.10608130315E+04  0.14240600653E+04  0.89317692180E+03 0.  0.
         23    2    4    4    0    0  0.93180617289E+02 -0.26299673674E+03  0.11247270743E+04  0.11628675846E+04  0.96954199355E+02 0.  0.
         23    2    4    4    0    0  0.20051300834E+03  0.12660823895E+03 -0.63914042773E+02  0.26119248066E+03  0.88889787977E+02 0.  0.
          4    1    3    3  502    0 -0.20561490520E+03  0.57630530128E+02 -0.80040962311E+01  0.21368863517E+03  0.00000000000E+00 0. -1.
         -3    1    3    3    0  502 -0.88078720424E+02  0.78757967661E+02  0.19125884366E+02  0.11969326595E+03  0.00000000000E+00 0.  1.
         11    1    5    5    0    0  0.13191814141E+01  0.38284214610E+01  0.97491329510E+02  0.97575388189E+02  0.00000000000E+00 0.  1.
        -11    1    5    5    0    0  0.91861435875E+02 -0.26682515820E+03  0.10272357448E+04  0.10652921964E+04  0.00000000000E+00 0. -1.
          4    1    6    6  503    0  0.16176547102E+03  0.13750619406E+03 -0.46541690869E+02  0.21735259375E+03  0.00000000000E+00 0. -1.
         -4    1    6    6    0  503  0.38747537317E+02 -0.10897955112E+02 -0.17372351904E+02  0.43839886912E+02  0.00000000000E+00 0.  1.
<mgrwt>
<rscale>  0 0.13926802E+04</rscale>
<asrwt>0</asrwt>
<pdfrwt beam="1">  1        2 0.21764436E+00 0.13926802E+04</pdfrwt>
<pdfrwt beam="2">  1       -1 0.52731320E-01 0.13926802E+04</pdfrwt>
<totfact> 0.57090133E+01</totfact>
</mgrwt>
</event>
<event>
12    6  0.1569942E-007  0.1294161E+04  0.7818608E-02  0.9034209E-01
         -1   -1    0    0    0  501 -0.00000000000E+00  0.00000000000E+00  0.96561105036E+03  0.96561105036E+03  0.00000000000E+00 0.  1.
          2   -1    0    0  501    0  0.00000000000E+00 -0.00000000000E+00 -0.43362476559E+03  0.43362476559E+03  0.00000000000E+00 0. -1.
         24    2    1    2    0    0 -0.67352799608E+02 -0.27954995902E+03  0.60632930676E+02  0.30440488267E+03  0.79381364992E+02 0.  0.
        254    2    1    2    0    0  0.67352799608E+02  0.27954995902E+03  0.47135335409E+03  0.10948309333E+04  0.94540795894E+03 0.  0.
         23    2    4    4    0    0  0.42066588314E+03  0.32239455897E+03  0.57389053325E+02  0.54113712240E+03  0.92940007008E+02 0.  0.
         23    2    4    4    0    0 -0.35331308354E+03 -0.42844599948E+02  0.41396430077E+03  0.55369381088E+03  0.92437000984E+02 0.  0.
          4    1    3    3  502    0 -0.28033322668E+02 -0.12088222381E+03 -0.13674416634E+02  0.12484137489E+03  0.00000000000E+00 0. -1.
         -3    1    3    3    0  502 -0.39319476940E+02 -0.15866773521E+03  0.74307347310E+02  0.17956350778E+03  0.00000000000E+00 0.  1.
         11    1    5    5    0    0  0.24583328685E+03  0.21524703172E+03  0.75264020737E+02  0.33530577449E+03  0.00000000000E+00 0. -1.
        -11    1    5    5    0    0  0.17483259629E+03  0.10714752724E+03 -0.17874967412E+02  0.20583134791E+03  0.00000000000E+00 0.  1.
          1    1    6    6  503    0 -0.20551471932E+02 -0.69329315225E+01  0.72002998274E+02  0.75198805166E+02  0.00000000000E+00 0. -1.
         -1    1    6    6    0  503 -0.33276161160E+03 -0.35911668425E+02  0.34196130250E+03  0.47849500571E+03  0.00000000000E+00 0.  1.
<mgrwt>
<rscale>  0 0.12941605E+04</rscale>
<asrwt>0</asrwt>
<pdfrwt beam="1">  1        2 0.66711503E-01 0.12941605E+04</pdfrwt>
<pdfrwt beam="2">  1       -1 0.14855555E+00 0.12941605E+04</pdfrwt>
<totfact> 0.29153279E+01</totfact>
</mgrwt>
</event>
<event>
12    6  0.1569942E-007  0.3296107E+04  0.7818608E-02  0.8163887E-01
         -1   -1    0    0    0  501 -0.00000000000E+00  0.00000000000E+00  0.26743358589E+04  0.26743358589E+04  0.00000000000E+00 0.  1.
          2   -1    0    0  501    0  0.00000000000E+00 -0.00000000000E+00 -0.10156091018E+04  0.10156091018E+04  0.00000000000E+00 0. -1.
         24    2    1    2    0    0  0.49812052971E+03  0.29173040599E+03  0.23506176674E+04  0.24218421735E+04  0.81764313612E+02 0.  0.
        254    2    1    2    0    0 -0.49812052971E+03 -0.29173040599E+03 -0.69189091029E+03  0.12681027872E+04  0.89226731148E+03 0.  0.
         23    2    4    4    0    0 -0.20184541300E+03  0.17673686274E+03  0.99088660543E+02  0.29796047960E+03  0.83572695025E+02 0.  0.
         23    2    4    4    0    0 -0.29627511671E+03 -0.46846726873E+03 -0.79097957083E+03  0.97014230755E+03  0.91032350137E+02 0.  0.
          2    1    3    3  502    0  0.16453295363E+03  0.58740179753E+02  0.63083861728E+03  0.65458296846E+03  0.00000000000E+00 0. -1.
         -3    1    3    3    0  502  0.33358757608E+03  0.23299022624E+03  0.17197790502E+04  0.17672592050E+04  0.00000000000E+00 0.  1.
         11    1    5    5    0    0 -0.20288037048E+03  0.18199760463E+03  0.89312426886E+02  0.28681053400E+03  0.00000000000E+00 0. -1.
        -11    1    5    5    0    0  0.10349574855E+01 -0.52607418900E+01  0.97762336572E+01  0.11149945594E+02  0.00000000000E+00 0.  1.
          3    1    6    6  503    0 -0.74507604870E+02 -0.20043728155E+03 -0.30146716937E+03  0.36960646805E+03  0.00000000000E+00 0. -1.
         -3    1    6    6    0  503 -0.22176751184E+03 -0.26802998719E+03 -0.48951240147E+03  0.60053583950E+03  0.00000000000E+00 0.  1.
<mgrwt>
<rscale>  0 0.32961067E+04</rscale>
<asrwt>0</asrwt>
<pdfrwt beam="1">  1        2 0.15624756E+00 0.32961067E+04</pdfrwt>
<pdfrwt beam="2">  1       -1 0.41143628E+00 0.32961067E+04</pdfrwt>
<totfact> 0.13981477E-01</totfact>
</mgrwt>
</event>
<event>
12    6  0.1569942E-007  0.1404808E+04  0.7818608E-02  0.8950346E-01
         -1   -1    0    0    0  501 -0.00000000000E+00  0.00000000000E+00  0.71951853121E+03  0.71951853121E+03  0.00000000000E+00 0.  1.
          2   -1    0    0  501    0  0.00000000000E+00 -0.00000000000E+00 -0.68569666634E+03  0.68569666634E+03  0.00000000000E+00 0. -1.
         24    2    1    2    0    0 -0.17215291174E+03  0.30699180712E+03 -0.18685853171E+03  0.40654764077E+03  0.80525018959E+02 0.  0.
        254    2    1    2    0    0  0.17215291174E+03 -0.30699180712E+03  0.22068039658E+03  0.99866755679E+03  0.90816103026E+03 0.  0.
         23    2    4    4    0    0 -0.30270339459E+02  0.25171769553E+03 -0.12991259850E+03  0.30293161610E+03  0.10301547984E+03 0.  0.
         23    2    4    4    0    0  0.20242325120E+03 -0.55870950266E+03  0.35059299508E+03  0.69573594069E+03  0.89451495171E+02 0.  0.
          4    1    3    3  502    0 -0.13639326658E+03  0.25567744535E+03 -0.18533979487E+03  0.34398389322E+03  0.00000000000E+00 0. -1.
         -3    1    3    3    0  502 -0.35759645160E+02  0.51314361770E+02 -0.15187368423E+01  0.62563747549E+02  0.00000000000E+00 0.  1.
         11    1    5    5    0    0 -0.26336156643E+02  0.51084865749E+01 -0.94278941020E+01  0.28435452678E+02  0.00000000000E+00 0. -1.
        -11    1    5    5    0    0 -0.39341828161E+01  0.24660920896E+03 -0.12048470440E+03  0.27449616342E+03  0.00000000000E+00 0.  1.
          4    1    6    6  503    0  0.16729890262E+03 -0.43463669079E+03  0.23099350840E+03  0.51986149763E+03  0.00000000000E+00 0.  1.
         -4    1    6    6    0  503  0.35124348578E+02 -0.12407281187E+03  0.11959948668E+03  0.17587444306E+03  0.00000000000E+00 0. -1.
<mgrwt>
<rscale>  0 0.14048081E+04</rscale>
<asrwt>0</asrwt>
<pdfrwt beam="1">  1        2 0.10549179E+00 0.14048081E+04</pdfrwt>
<pdfrwt beam="2">  1       -1 0.11069516E+00 0.14048081E+04</pdfrwt>
<totfact> 0.35158502E+01</totfact>
</mgrwt>
</event>
<event>
12    6  0.1569942E-007  0.2168111E+04  0.7818608E-02  0.8531819E-01
          2   -1    0    0  501    0  0.00000000000E+00  0.00000000000E+00  0.23515185513E+04  0.23515185513E+04  0.00000000000E+00 0. -1.
         -1   -1    0    0    0  501 -0.00000000000E+00 -0.00000000000E+00 -0.49975224501E+03  0.49975224501E+03  0.00000000000E+00 0.  1.
         24    2    1    2    0    0 -0.40776209845E+03  0.95122333505E+02 -0.27029203159E+03  0.50485053005E+03  0.80610719457E+02 0.  0.
        254    2    1    2    0    0  0.40776209845E+03 -0.95122333505E+02  0.21220583379E+04  0.23464202663E+04  0.90952640933E+03 0.  0.
         23    2    4    4    0    0  0.41729350870E+03  0.30805887053E+03  0.77258865071E+03  0.93495469867E+03  0.90625191003E+02 0.  0.
         23    2    4    4    0    0 -0.95314102536E+01 -0.40318120404E+03  0.13494696872E+04  0.14114655676E+04  0.92307533946E+02 0.  0.
          2    1    3    3  502    0 -0.13136044123E+03  0.58661555868E+02 -0.61111563151E+02  0.15630536398E+03  0.00000000000E+00 0. -1.
         -1    1    3    3    0  502 -0.27640165722E+03  0.36460777637E+02 -0.20918046844E+03  0.34854516608E+03  0.00000000000E+00 0.  1.
         11    1    5    5    0    0  0.10120954354E+02 -0.53315721189E+01  0.88376485461E+01  0.14455566752E+02  0.00000000000E+00 0.  1.
        -11    1    5    5    0    0  0.40717255435E+03  0.31339044265E+03  0.76375100217E+03  0.92049913192E+03  0.00000000000E+00 0. -1.
          3    1    6    6  503    0  0.29277367067E+02 -0.31899606470E+03  0.10792971879E+04  0.11258321692E+04  0.00000000000E+00 0. -1.
         -3    1    6    6    0  503 -0.38808777320E+02 -0.84185139334E+02  0.27017249931E+03  0.28563339837E+03  0.00000000000E+00 0.  1.
<mgrwt>
<rscale>  0 0.21681113E+04</rscale>
<asrwt>0</asrwt>
<pdfrwt beam="1">  1        2 0.36177208E+00 0.21681113E+04</pdfrwt>
<pdfrwt beam="2">  1       -1 0.76884962E-01 0.21681113E+04</pdfrwt>
<totfact> 0.75002926E+00</totfact>
</mgrwt>
</event>
<event>
12    6  0.1569942E-007  0.1581092E+04  0.7818608E-02  0.8832249E-01
          2   -1    0    0  501    0  0.00000000000E+00  0.00000000000E+00  0.42748039439E+03  0.42748039439E+03  0.00000000000E+00 0. -1.
         -1   -1    0    0    0  501 -0.00000000000E+00 -0.00000000000E+00 -0.14619695587E+04  0.14619695587E+04  0.00000000000E+00 0.  1.
         24    2    1    2    0    0  0.43371360063E+03  0.18073870517E+03 -0.65627245079E+03  0.81101169351E+03  0.79198929436E+02 0.  0.
        254    2    1    2    0    0 -0.43371360063E+03 -0.18073870517E+03 -0.37821671350E+03  0.10784382596E+04  0.89398390948E+03 0.  0.
         23    2    4    4    0    0  0.14330583713E+03  0.21875749492E+02  0.17775329286E+03  0.24710413976E+03  0.91919048044E+02 0.  0.
         23    2    4    4    0    0 -0.57701943777E+03 -0.20261445466E+03 -0.55597000636E+03  0.83133411981E+03  0.89497050193E+02 0.  0.
          4    1    3    3  502    0  0.37763818957E+03  0.14977301725E+03 -0.51542284162E+03  0.65627986757E+03  0.00000000000E+00 0. -1.
         -3    1    3    3    0  502  0.56075411060E+02  0.30965687921E+02 -0.14084960917E+03  0.15473182594E+03  0.00000000000E+00 0.  1.
         11    1    5    5    0    0  0.90869220807E+02 -0.26480843959E+02  0.13175949615E+03  0.16223136322E+03  0.00000000000E+00 0. -1.
        -11    1    5    5    0    0  0.52436616327E+02  0.48356593451E+02  0.45993796704E+02  0.84872776538E+02  0.00000000000E+00 0.  1.
          3    1    6    6  503    0 -0.55704789995E+03 -0.17710612746E+03 -0.53724671196E+03  0.79391622526E+03  0.00000000000E+00 0. -1.
         -3    1    6    6    0  503 -0.19971537813E+02 -0.25508327199E+02 -0.18723294400E+02  0.37417894546E+02  0.00000000000E+00 0.  1.
<mgrwt>
<rscale>  0 0.15810924E+04</rscale>
<asrwt>0</asrwt>
<pdfrwt beam="1">  1        2 0.65766215E-01 0.15810924E+04</pdfrwt>
<pdfrwt beam="2">  1       -1 0.22491839E+00 0.15810924E+04</pdfrwt>
<totfact> 0.82635951E+00</totfact>
</mgrwt>
</event>
<event>
12    6  0.1569942E-007  0.2390031E+04  0.7818608E-02  0.8443245E-01
         -1   -1    0    0    0  501 -0.00000000000E+00  0.00000000000E+00  0.74550579249E+03  0.74550579249E+03  0.00000000000E+00 0.  1.
          2   -1    0    0  501    0  0.00000000000E+00 -0.00000000000E+00 -0.19155615735E+04  0.19155615735E+04  0.00000000000E+00 0. -1.
         24    2    1    2    0    0 -0.86562476190E+03 -0.21942781586E+03  0.49203369866E+02  0.89786722854E+03  0.79308219584E+02 0.  0.
        254    2    1    2    0    0  0.86562476190E+03  0.21942781586E+03 -0.12192591509E+04  0.17632001374E+04  0.90819989698E+03 0.  0.
         23    2    4    4    0    0  0.51675614010E+03 -0.10111429737E+03 -0.11598232414E+04  0.12770191160E+04  0.91251640202E+02 0.  0.
         23    2    4    4    0    0  0.34886862181E+03  0.32054211323E+03 -0.59435909436E+02  0.48618102142E+03  0.91557613702E+02 0.  0.
          4    1    3    3  502    0 -0.16968306093E+03 -0.45447493907E+02  0.41350608497E+02  0.18046520078E+03  0.00000000000E+00 0. -1.
         -3    1    3    3    0  502 -0.69594170098E+03 -0.17398032195E+03  0.78527613696E+01  0.71740202777E+03  0.00000000000E+00 0.  1.
         11    1    5    5    0    0  0.47658882233E+03 -0.92894130491E+02 -0.11157426585E+04  0.12168187642E+04  0.00000000000E+00 0. -1.
        -11    1    5    5    0    0  0.40167317768E+02 -0.82201668773E+01 -0.44080582930E+02  0.60200351757E+02  0.00000000000E+00 0.  1.
          3    1    6    6  503    0  0.20483644126E+03  0.15936181262E+03 -0.72998638125E+02  0.26959776735E+03  0.00000000000E+00 0. -1.
         -3    1    6    6    0  503  0.14403218054E+03  0.16118030061E+03  0.13562728688E+02  0.21658325407E+03  0.00000000000E+00 0.  1.
<mgrwt>
<rscale>  0 0.23900312E+04</rscale>
<asrwt>0</asrwt>
<pdfrwt beam="1">  1        2 0.29470178E+00 0.23900312E+04</pdfrwt>
<pdfrwt beam="2">  1       -1 0.11469320E+00 0.23900312E+04</pdfrwt>
<totfact> 0.52670849E+00</totfact>
</mgrwt>
</event>
<event>
12    6  0.1569942E-007  0.1567230E+04  0.7818608E-02  0.8840937E-01
          2   -1    0    0  501    0  0.00000000000E+00  0.00000000000E+00  0.13629315958E+04  0.13629315958E+04  0.00000000000E+00 0. -1.
         -1   -1    0    0    0  501 -0.00000000000E+00 -0.00000000000E+00 -0.45053805943E+03  0.45053805943E+03  0.00000000000E+00 0.  1.
         24    2    1    2    0    0  0.45167686380E+03 -0.20013822263E+03  0.11997159790E+03  0.51465560571E+03  0.80061918105E+02 0.  0.
        254    2    1    2    0    0 -0.45167686380E+03  0.20013822263E+03  0.79242193849E+03  0.12988140495E+04  0.90272814802E+03 0.  0.
         23    2    4    4    0    0  0.21721945444E+03  0.95664949823E+02  0.48871025607E+03  0.55140365892E+03  0.94192391778E+02 0.  0.
         23    2    4    4    0    0 -0.66889631824E+03  0.10447327281E+03  0.30371168241E+03  0.74741039061E+03  0.89691452646E+02 0.  0.
          2    1    3    3  502    0  0.35174429393E+03 -0.14902694725E+03  0.12598393199E+03  0.40224996015E+03  0.00000000000E+00 0. -1.
         -1    1    3    3    0  502  0.99932569867E+02 -0.51111275384E+02 -0.60123340895E+01  0.11240564556E+03  0.00000000000E+00 0.  1.
         11    1    5    5    0    0  0.20382397878E+03  0.10277636323E+03  0.48462883771E+03  0.53569796108E+03  0.00000000000E+00 0.  1.
        -11    1    5    5    0    0  0.13395475664E+02 -0.71114134051E+01  0.40814183619E+01  0.15705697843E+02  0.00000000000E+00 0. -1.
          2    1    6    6  503    0 -0.48044120997E+03  0.96386385321E+02  0.25593106835E+03  0.55282438736E+03  0.00000000000E+00 0.  1.
         -2    1    6    6    0  503 -0.18845510827E+03  0.80868874895E+01  0.47780614062E+02  0.19458600326E+03  0.00000000000E+00 0. -1.
<mgrwt>
<rscale>  0 0.15672301E+04</rscale>
<asrwt>0</asrwt>
<pdfrwt beam="1">  1        2 0.20968178E+00 0.15672301E+04</pdfrwt>
<pdfrwt beam="2">  1       -1 0.69313548E-01 0.15672301E+04</pdfrwt>
<totfact> 0.35062924E+01</totfact>
</mgrwt>
</event>
<event>
12    6  0.1569942E-007  0.1573596E+04  0.7818608E-02  0.8836935E-01
          2   -1    0    0  501    0  0.00000000000E+00  0.00000000000E+00  0.55019889397E+03  0.55019889397E+03  0.00000000000E+00 0. -1.
         -1   -1    0    0    0  501 -0.00000000000E+00 -0.00000000000E+00 -0.11251410287E+04  0.11251410287E+04  0.00000000000E+00 0.  1.
         24    2    1    2    0    0 -0.19540975216E+03 -0.15784122475E+02  0.27185328980E+03  0.34474032138E+03  0.80669500129E+02 0.  0.
        254    2    1    2    0    0  0.19540975216E+03  0.15784122475E+02 -0.84679542448E+03  0.13305996012E+04  0.10074714379E+04 0.  0.
         23    2    4    4    0    0 -0.10631134560E+03  0.43092305612E+03 -0.18610595131E+03  0.48962082365E+03  0.89979682917E+02 0.  0.
         23    2    4    4    0    0  0.30172109775E+03 -0.41513893365E+03 -0.66068947317E+03  0.84097877759E+03  0.85783269612E+02 0.  0.
          4    1    3    3  502    0 -0.20053428246E+03 -0.10252211845E+02  0.27080544538E+03  0.33712712074E+03  0.00000000000E+00 0. -1.
         -3    1    3    3    0  502  0.51245303074E+01 -0.55319106299E+01  0.10478444210E+01  0.76132006423E+01  0.00000000000E+00 0.  1.
         11    1    5    5    0    0 -0.39904658487E+02  0.59578406262E+02 -0.54571415688E+02  0.90111085177E+02  0.00000000000E+00 0. -1.
        -11    1    5    5    0    0 -0.66406687112E+02  0.37134464986E+03 -0.13153453562E+03  0.39950973847E+03  0.00000000000E+00 0.  1.
          4    1    6    6  503    0  0.23670743296E+03 -0.25769343313E+03 -0.45091378354E+03  0.57075349713E+03  0.00000000000E+00 0. -1.
         -4    1    6    6    0  503  0.65013664794E+02 -0.15744550052E+03 -0.20977568963E+03  0.27022528047E+03  0.00000000000E+00 0.  1.
<mgrwt>
<rscale>  0 0.15735963E+04</rscale>
<asrwt>0</asrwt>
<pdfrwt beam="1">  1        2 0.84645983E-01 0.15735963E+04</pdfrwt>
<pdfrwt beam="2">  1       -1 0.17309862E+00 0.15735963E+04</pdfrwt>
<totfact> 0.14110173E+01</totfact>
</mgrwt>
</event>
<event>
12    6  0.1569942E-007  0.1344080E+04  0.7818608E-02  0.8995322E-01
          2   -1    0    0  501    0  0.00000000000E+00  0.00000000000E+00  0.19849358091E+04  0.19849358091E+04  0.00000000000E+00 0. -1.
         -1   -1    0    0    0  501 -0.00000000000E+00 -0.00000000000E+00 -0.22753265647E+03  0.22753265647E+03  0.00000000000E+00 0.  1.
         24    2    1    2    0    0  0.26373333996E+02  0.27619070313E+03  0.10049842403E+03  0.30666752125E+03  0.83475613903E+02 0.  0.
        254    2    1    2    0    0 -0.26373333996E+02 -0.27619070313E+03  0.16569047286E+04  0.19058009443E+04  0.89987060320E+03 0.  0.
         23    2    4    4    0    0  0.82917428673E+02 -0.23148193929E+03  0.20399911833E+02  0.26253973948E+03  0.89731656676E+02 0.  0.
         23    2    4    4    0    0 -0.10929076267E+03 -0.44708763843E+02  0.16365048168E+04  0.16432612048E+04  0.90642306297E+02 0.  0.
          4    1    3    3  502    0 -0.11795601347E+02  0.39338793967E+02  0.44016385308E+02  0.60200656952E+02  0.00000000000E+00 0. -1.
         -3    1    3    3    0  502  0.38168935343E+02  0.23685190916E+03  0.56482038722E+02  0.24646686430E+03  0.00000000000E+00 0.  1.
         11    1    5    5    0    0  0.84112151093E+02 -0.13317052644E+03  0.39491073152E+02  0.16238469119E+03  0.00000000000E+00 0.  1.
        -11    1    5    5    0    0 -0.11947224204E+01 -0.98311412849E+02 -0.19091161319E+02  0.10015504829E+03  0.00000000000E+00 0. -1.
          2    1    6    6  503    0 -0.52126822770E+02 -0.77917992537E+01  0.27192765308E+03  0.27698838658E+03  0.00000000000E+00 0. -1.
         -2    1    6    6    0  503 -0.57163939899E+02 -0.36916964590E+02  0.13645771637E+04  0.13662728183E+04  0.00000000000E+00 0.  1.
<mgrwt>
<rscale>  0 0.13440799E+04</rscale>
<asrwt>0</asrwt>
<pdfrwt beam="1">  1        2 0.30537473E+00 0.13440799E+04</pdfrwt>
<pdfrwt beam="2">  1       -1 0.35005025E-01 0.13440799E+04</pdfrwt>
<totfact> 0.58861293E+01</totfact>
</mgrwt>
</event>
<event>
12    6  0.1569942E-007  0.2212483E+04  0.7818608E-02  0.8513250E-01
          2   -1    0    0  501    0  0.00000000000E+00  0.00000000000E+00  0.11173219929E+04  0.11173219929E+04  0.00000000000E+00 0. -1.
         -1   -1    0    0    0  501 -0.00000000000E+00 -0.00000000000E+00 -0.10952710472E+04  0.10952710472E+04  0.00000000000E+00 0.  1.
         24    2    1    2    0    0 -0.30426008558E+03 -0.77942020813E+03  0.39861797625E+03  0.92941502004E+03  0.69612699711E+02 0.  0.
        254    2    1    2    0    0  0.30426008558E+03  0.77942020813E+03 -0.37656703060E+03  0.12831780200E+04  0.89703569718E+03 0.  0.
         23    2    4    4    0    0 -0.17204901324E+03  0.22817857427E+03 -0.45493055379E+03  0.54516888238E+03  0.92633562140E+02 0.  0.
         23    2    4    4    0    0  0.47630909882E+03  0.55124163387E+03  0.78363523190E+02  0.73800913764E+03  0.88198350002E+02 0.  0.
          2    1    3    3  502    0 -0.29473146413E+02 -0.76882471609E+02  0.63416607878E+02  0.10392904770E+03  0.00000000000E+00 0. -1.
         -1    1    3    3    0  502 -0.27478693917E+03 -0.70253773652E+03  0.33520136837E+03  0.82548597234E+03  0.00000000000E+00 0.  1.
         11    1    5    5    0    0 -0.14254633552E+03  0.21294122239E+03 -0.43905723591E+03  0.50836470999E+03  0.00000000000E+00 0. -1.
        -11    1    5    5    0    0 -0.29502677717E+02  0.15237351878E+02 -0.15873317885E+02  0.36804172392E+02  0.00000000000E+00 0.  1.
          3    1    6    6  503    0  0.38162422967E+03  0.47379591400E+03  0.39480202092E+02  0.60965425213E+03  0.00000000000E+00 0. -1.
         -3    1    6    6    0  503  0.94684869157E+02  0.77445719869E+02  0.38883321098E+02  0.12835488551E+03  0.00000000000E+00 0.  1.
<mgrwt>
<rscale>  0 0.22124832E+04</rscale>
<asrwt>0</asrwt>
<pdfrwt beam="1">  1        2 0.17189569E+00 0.22124832E+04</pdfrwt>
<pdfrwt beam="2">  1       -1 0.16850324E+00 0.22124832E+04</pdfrwt>
<totfact> 0.55859969E+00</totfact>
</mgrwt>
</event>
<event>
12    6  0.1569942E-007  0.1308860E+04  0.7818608E-02  0.9022569E-01
         -1   -1    0    0    0  501 -0.00000000000E+00  0.00000000000E+00  0.22693379253E+04  0.22693379253E+04  0.00000000000E+00 0.  1.
          2   -1    0    0  501    0  0.00000000000E+00 -0.00000000000E+00 -0.18872398195E+03  0.18872398195E+03  0.00000000000E+00 0. -1.
         24    2    1    2    0    0  0.22205973912E+03  0.24227325708E+03  0.41098171719E+03  0.53196927434E+03  0.77964595415E+02 0.  0.
        254    2    1    2    0    0 -0.22205973912E+03 -0.24227325708E+03  0.16696322262E+04  0.19260926329E+04  0.90230493798E+03 0.  0.
         23    2    4    4    0    0 -0.81189554135E+02  0.20914117918E+03  0.12901880979E+04  0.13129983439E+04  0.95118591430E+02 0.  0.
         23    2    4    4    0    0 -0.14087018499E+03 -0.45141443626E+03  0.37944412824E+03  0.61309428905E+03  0.91034930268E+02 0.  0.
          4    1    3    3  502    0  0.19498313499E+03  0.19639195206E+03  0.29586535816E+03  0.40512286029E+03  0.00000000000E+00 0. -1.
         -3    1    3    3    0  502  0.27076604129E+02  0.45881305020E+02  0.11511635903E+03  0.12684641405E+03  0.00000000000E+00 0.  1.
         11    1    5    5    0    0  0.13429118804E+02  0.12987192625E+02  0.42196411266E+02  0.46146999121E+02  0.00000000000E+00 0. -1.
        -11    1    5    5    0    0 -0.94618672939E+02  0.19615398656E+03  0.12479916867E+04  0.12668513448E+04  0.00000000000E+00 0.  1.
          2    1    6    6  503    0 -0.54385819068E+02 -0.18357553724E+03  0.98085322638E+02  0.21512444237E+03  0.00000000000E+00 0.  1.
         -2    1    6    6    0  503 -0.86484365920E+02 -0.26783889902E+03  0.28135880560E+03  0.39796984668E+03  0.00000000000E+00 0. -1.
<mgrwt>
<rscale>  0 0.13088598E+04</rscale>
<asrwt>0</asrwt>
<pdfrwt beam="1">  1        2 0.29034460E-01 0.13088598E+04</pdfrwt>
<pdfrwt beam="2">  1       -1 0.34912889E+00 0.13088598E+04</pdfrwt>
<totfact> 0.32980469E+00</totfact>
</mgrwt>
</event>
<event>
12    6  0.1569942E-007  0.2189571E+04  0.7818608E-02  0.8522782E-01
         -1   -1    0    0    0  501 -0.00000000000E+00  0.00000000000E+00  0.75429547769E+03  0.75429547769E+03  0.00000000000E+00 0.  1.
          2   -1    0    0  501    0  0.00000000000E+00 -0.00000000000E+00 -0.15889728482E+04  0.15889728482E+04  0.00000000000E+00 0. -1.
         24    2    1    2    0    0  0.34386001885E+03  0.76468821314E+03  0.19864594686E+02  0.84260794757E+03  0.81275920834E+02 0.  0.
        254    2    1    2    0    0 -0.34386001885E+03 -0.76468821314E+03 -0.85454196520E+03  0.15006603783E+04  0.90484906194E+03 0.  0.
         23    2    4    4    0    0 -0.32445427425E+03  0.10256449224E+03 -0.33190243262E+03  0.48403596604E+03  0.91332034318E+02 0.  0.
         23    2    4    4    0    0 -0.19405744594E+02 -0.86725270538E+03 -0.52263953258E+03  0.10166244123E+04  0.88708943797E+02 0.  0.
          2    1    3    3  502    0  0.59293250393E+02  0.17013762726E+03 -0.25198016346E+02  0.18192702322E+03  0.00000000000E+00 0. -1.
         -1    1    3    3    0  502  0.28456676845E+03  0.59455058589E+03  0.45062611033E+02  0.66068092435E+03  0.00000000000E+00 0.  1.
         11    1    5    5    0    0 -0.89951419709E+02 -0.25068723073E+01 -0.12556768506E+03  0.15448231565E+03  0.00000000000E+00 0. -1.
        -11    1    5    5    0    0 -0.23450285454E+03  0.10507136455E+03 -0.20633474756E+03  0.32955365040E+03  0.00000000000E+00 0.  1.
          2    1    6    6  503    0 -0.57989076954E+01 -0.13922028344E+03 -0.12378313191E+03  0.18638180812E+03  0.00000000000E+00 0. -1.
         -2    1    6    6    0  503 -0.13606836898E+02 -0.72803242194E+03 -0.39885640066E+03  0.83024260416E+03  0.00000000000E+00 0.  1.
<mgrwt>
<rscale>  0 0.21895708E+04</rscale>
<asrwt>0</asrwt>
<pdfrwt beam="1">  1        2 0.24445736E+00 0.21895708E+04</pdfrwt>
<pdfrwt beam="2">  1       -1 0.11604546E+00 0.21895708E+04</pdfrwt>
<totfact> 0.79162655E+00</totfact>
</mgrwt>
</event>
<event>
12    6  0.1569942E-007  0.1299705E+04  0.7818608E-02  0.9029799E-01
          2   -1    0    0  501    0  0.00000000000E+00  0.00000000000E+00  0.11670423410E+04  0.11670423410E+04  0.00000000000E+00 0. -1.
         -3   -1    0    0    0  501 -0.00000000000E+00 -0.00000000000E+00 -0.36186206783E+03  0.36186206783E+03  0.00000000000E+00 0.  1.
         24    2    1    2    0    0 -0.29379791957E+03 -0.28054133246E+02  0.94374686887E+02  0.31964961058E+03  0.78517769197E+02 0.  0.
        254    2    1    2    0    0  0.29379791957E+03  0.28054133246E+02  0.71080558631E+03  0.12092547983E+04  0.93271020887E+03 0.  0.
         23    2    4    4    0    0  0.16246005703E+03 -0.32868335944E+03  0.72555796907E+03  0.81810666833E+03  0.91859312913E+02 0.  0.
         23    2    4    4    0    0  0.13133786254E+03  0.35673749269E+03 -0.14752382765E+02  0.39114812996E+03  0.90928290151E+02 0.  0.
          2    1    3    3  502    0 -0.67007777480E+02 -0.17087792394E+02  0.56837016653E+02  0.89512464795E+02  0.00000000000E+00 0. -1.
         -1    1    3    3    0  502 -0.22679014209E+03 -0.10966340852E+02  0.37537670234E+02  0.23013714578E+03  0.00000000000E+00 0.  1.
         11    1    5    5    0    0  0.64488104429E+01 -0.82739765882E+02  0.11701835667E+03  0.14345993103E+03  0.00000000000E+00 0.  1.
        -11    1    5    5    0    0  0.15601124659E+03 -0.24594359356E+03  0.60853961241E+03  0.67464673730E+03  0.00000000000E+00 0. -1.
          2    1    6    6  503    0  0.64494371707E+02  0.22483785157E+03  0.31952596467E+02  0.23607742777E+03  0.00000000000E+00 0. -1.
         -2    1    6    6    0  503  0.66843490835E+02  0.13189964111E+03 -0.46704979232E+02  0.15507070219E+03  0.00000000000E+00 0.  1.
<mgrwt>
<rscale>  0 0.12997051E+04</rscale>
<asrwt>0</asrwt>
<pdfrwt beam="1">  1        2 0.17954497E+00 0.12997051E+04</pdfrwt>
<pdfrwt beam="2">  1       -3 0.55671088E-01 0.12997051E+04</pdfrwt>
<totfact> 0.39392393E+01</totfact>
</mgrwt>
</event>
<event>
12    6  0.1569942E-007  0.1737614E+04  0.7818608E-02  0.8740198E-01
          2   -1    0    0  501    0  0.00000000000E+00  0.00000000000E+00  0.17237247584E+04  0.17237247584E+04  0.00000000000E+00 0. -1.
         -1   -1    0    0    0  501 -0.00000000000E+00 -0.00000000000E+00 -0.43790372801E+03  0.43790372801E+03  0.00000000000E+00 0.  1.
         24    2    1    2    0    0 -0.21449344031E+03 -0.31863670064E+03  0.10818864185E+04  0.11507958385E+04  0.79473622023E+02 0.  0.
        254    2    1    2    0    0  0.21449344031E+03  0.31863670064E+03  0.20393461194E+03  0.10108326479E+04  0.91250015517E+03 0.  0.
         23    2    4    4    0    0 -0.32300793095E+03 -0.25078883332E+02  0.13239919529E+03  0.36211703977E+03  0.92930779233E+02 0.  0.
         23    2    4    4    0    0  0.53750137126E+03  0.34371558397E+03  0.71535416648E+02  0.64871560813E+03  0.93094025696E+02 0.  0.
          4    1    3    3  502    0 -0.89025235889E+02 -0.72948684546E+02  0.36220384136E+03  0.38005082015E+03  0.00000000000E+00 0. -1.
         -3    1    3    3    0  502 -0.12546820442E+03 -0.24568801609E+03  0.71968257709E+03  0.77074501837E+03  0.00000000000E+00 0.  1.
         11    1    5    5    0    0 -0.15110856275E+03  0.27125459058E+02  0.88400780311E+02  0.17715610694E+03  0.00000000000E+00 0. -1.
        -11    1    5    5    0    0 -0.17189936820E+03 -0.52204342390E+02  0.43998414979E+02  0.18496093283E+03  0.00000000000E+00 0.  1.
          4    1    6    6  503    0  0.30627939878E+03  0.24726119551E+03  0.30113724395E+02  0.39478095866E+03  0.00000000000E+00 0.  1.
         -4    1    6    6    0  503  0.23122197248E+03  0.96454388460E+02  0.41421692254E+02  0.25393464947E+03  0.00000000000E+00 0. -1.
<mgrwt>
<rscale>  0 0.17376139E+04</rscale>
<asrwt>0</asrwt>
<pdfrwt beam="1">  1        2 0.26518842E+00 0.17376139E+04</pdfrwt>
<pdfrwt beam="2">  1       -1 0.67369805E-01 0.17376139E+04</pdfrwt>
<totfact> 0.22942049E+01</totfact>
</mgrwt>
</event>
<event>
12    6  0.1569942E-007  0.1476124E+04  0.7818608E-02  0.8900487E-01
          2   -1    0    0  501    0  0.00000000000E+00  0.00000000000E+00  0.24256129308E+04  0.24256129308E+04  0.00000000000E+00 0. -1.
         -1   -1    0    0    0  501 -0.00000000000E+00 -0.00000000000E+00 -0.22457645921E+03  0.22457645921E+03  0.00000000000E+00 0.  1.
         24    2    1    2    0    0  0.18767372572E+03 -0.14939094158E+03  0.14013460648E+04  0.14241009944E+04  0.82181312202E+02 0.  0.
        254    2    1    2    0    0 -0.18767372572E+03  0.14939094158E+03  0.79969040679E+03  0.12260883956E+04  0.89791365201E+03 0.  0.
         23    2    4    4    0    0 -0.25812265174E+03  0.26386692015E+03 -0.29679319386E+02  0.38156585014E+03  0.91970544746E+02 0.  0.
         23    2    4    4    0    0  0.70448926023E+02 -0.11447597857E+03  0.82936972617E+03  0.84452254550E+03  0.85418887368E+02 0.  0.
          4    1    3    3  502    0  0.18578686510E+03 -0.15318442217E+03  0.13983029513E+04  0.14188845513E+04  0.00000000000E+00 0. -1.
         -3    1    3    3    0  502  0.18868606163E+01  0.37934805897E+01  0.30431134938E+01  0.52164430128E+01  0.00000000000E+00 0.  1.
         11    1    5    5    0    0 -0.85907258426E+02  0.32709832787E+02 -0.15085946971E+01  0.91936206519E+02  0.00000000000E+00 0. -1.
        -11    1    5    5    0    0 -0.17221539331E+03  0.23115708737E+03 -0.28170724689E+02  0.28962964362E+03  0.00000000000E+00 0.  1.
          1    1    6    6  503    0  0.12023733715E+02 -0.84825080352E+02  0.59614621671E+03  0.60227084947E+03  0.00000000000E+00 0. -1.
         -1    1    6    6    0  503  0.58425192307E+02 -0.29650898219E+02  0.23322350947E+03  0.24225169603E+03  0.00000000000E+00 0.  1.
<mgrwt>
<rscale>  0 0.14761241E+04</rscale>
<asrwt>0</asrwt>
<pdfrwt beam="1">  1        2 0.37317120E+00 0.14761241E+04</pdfrwt>
<pdfrwt beam="2">  1       -1 0.34550226E-01 0.14761241E+04</pdfrwt>
<totfact> 0.33728693E+01</totfact>
</mgrwt>
</event>
<event>
12    6  0.1569942E-007  0.3117343E+04  0.7818608E-02  0.8210994E-01
          2   -1    0    0  501    0  0.00000000000E+00  0.00000000000E+00  0.28667560715E+04  0.28667560715E+04  0.00000000000E+00 0. -1.
         -1   -1    0    0    0  501 -0.00000000000E+00 -0.00000000000E+00 -0.84745830463E+03  0.84745830463E+03  0.00000000000E+00 0.  1.
         24    2    1    2    0    0  0.48863839291E+03 -0.44657209388E+03 -0.57975057750E+03  0.88373258016E+03  0.81721643843E+02 0.  0.
        254    2    1    2    0    0 -0.48863839291E+03  0.44657209388E+03  0.25990483444E+04  0.28304817960E+04  0.90464401115E+03 0.  0.
         23    2    4    4    0    0 -0.13505652358E+03  0.30853264565E+03  0.23311000622E+04  0.23570773211E+04  0.91396605809E+02 0.  0.
         23    2    4    4    0    0 -0.35358186932E+03  0.13803944823E+03  0.26794828216E+03  0.47340447489E+03  0.90777130101E+02 0.  0.
          2    1    3    3  502    0  0.36355613494E+03 -0.33829175076E+03 -0.47935356846E+03  0.69021316670E+03  0.00000000000E+00 0. -1.
         -1    1    3    3    0  502  0.12508225796E+03 -0.10828034312E+03 -0.10039700904E+03  0.19351941347E+03  0.00000000000E+00 0.  1.
         11    1    5    5    0    0 -0.65179017255E+02  0.19363447761E+03  0.16689689414E+04  0.16814279475E+04  0.00000000000E+00 0. -1.
        -11    1    5    5    0    0 -0.69877506327E+02  0.11489816804E+03  0.66213112077E+03  0.67564937357E+03  0.00000000000E+00 0.  1.
          2    1    6    6  503    0 -0.30032041689E+03  0.12600834747E+03  0.18637100631E+03  0.37523940148E+03  0.00000000000E+00 0. -1.
         -2    1    6    6    0  503 -0.53261452432E+02  0.12031100757E+02  0.81577275855E+02  0.98165073405E+02  0.00000000000E+00 0.  1.
<mgrwt>
<rscale>  0 0.31173426E+04</rscale>
<asrwt>0</asrwt>
<pdfrwt beam="1">  1        2 0.44103939E+00 0.31173426E+04</pdfrwt>
<pdfrwt beam="2">  1       -1 0.13037820E+00 0.31173426E+04</pdfrwt>
<totfact> 0.10205287E+00</totfact>
</mgrwt>
</event>
<event>
12    6  0.1569942E-007  0.2028335E+04  0.7818608E-02  0.8593486E-01
          2   -1    0    0  501    0  0.00000000000E+00  0.00000000000E+00  0.33578973639E+04  0.33578973639E+04  0.00000000000E+00 0. -1.
         -1   -1    0    0    0  501 -0.00000000000E+00 -0.00000000000E+00 -0.30630362070E+03  0.30630362070E+03  0.00000000000E+00 0.  1.
         24    2    1    2    0    0  0.77353803366E+01 -0.15176170776E+03  0.26643313891E+04  0.26697875865E+04  0.77540660837E+02 0.  0.
        254    2    1    2    0    0 -0.77353803366E+01  0.15176170776E+03  0.38726235414E+03  0.99441339812E+03  0.90321338751E+03 0.  0.
         23    2    4    4    0    0 -0.36950232895E+03  0.16206936374E+02  0.45345132935E+03  0.59201740969E+03  0.89843582975E+02 0.  0.
         23    2    4    4    0    0  0.36176694861E+03  0.13555477139E+03 -0.66188975208E+02  0.40239598844E+03  0.91055641878E+02 0.  0.
          4    1    3    3  502    0  0.25967236579E+02 -0.13521783581E+03  0.24800199371E+04  0.24838391753E+04  0.00000000000E+00 0. -1.
         -3    1    3    3    0  502 -0.18231856242E+02 -0.16543871949E+02  0.18431145197E+03  0.18594841114E+03  0.00000000000E+00 0.  1.
         11    1    5    5    0    0 -0.28119597715E+03 -0.42608201659E+01  0.28305835039E+03  0.39901298460E+03  0.00000000000E+00 0.  1.
        -11    1    5    5    0    0 -0.88306351797E+02  0.20467756540E+02  0.17039297895E+03  0.19300442508E+03  0.00000000000E+00 0. -1.
          1    1    6    6  503    0  0.87411972631E+02 -0.42925375845E+01 -0.29103133594E+02  0.92229448785E+02  0.00000000000E+00 0. -1.
         -1    1    6    6    0  503  0.27435497598E+03  0.13984730897E+03 -0.37085841614E+02  0.31016653965E+03  0.00000000000E+00 0.  1.
<mgrwt>
<rscale>  0 0.20283354E+04</rscale>
<asrwt>0</asrwt>
<pdfrwt beam="1">  1        2 0.51659957E+00 0.20283354E+04</pdfrwt>
<pdfrwt beam="2">  1       -1 0.47123636E-01 0.20283354E+04</pdfrwt>
<totfact> 0.48459209E+00</totfact>
</mgrwt>
</event>
<event>
12    6  0.1569942E-007  0.1417862E+04  0.7818608E-02  0.8940990E-01
         -1   -1    0    0    0  501 -0.00000000000E+00  0.00000000000E+00  0.30278939544E+03  0.30278939544E+03  0.00000000000E+00 0.  1.
          2   -1    0    0  501    0  0.00000000000E+00 -0.00000000000E+00 -0.16598440775E+04  0.16598440775E+04  0.00000000000E+00 0. -1.
         24    2    1    2    0    0 -0.10375251722E+03  0.61514683449E+02 -0.94622202720E+03  0.95727762804E+03  0.80595851508E+02 0.  0.
        254    2    1    2    0    0  0.10375251722E+03 -0.61514683449E+02 -0.41083265487E+03  0.10053558449E+04  0.90961984557E+03 0.  0.
         23    2    4    4    0    0  0.41446491147E+03 -0.29582453846E+03 -0.22234405171E+03  0.56303254610E+03  0.90969501727E+02 0.  0.
         23    2    4    4    0    0 -0.31071239425E+03  0.23430985501E+03 -0.18848860316E+03  0.44232329880E+03  0.93159256375E+02 0.  0.
          4    1    3    3  502    0 -0.89512502551E+02  0.45689895905E+02 -0.90785100538E+03  0.91339668418E+03  0.00000000000E+00 0. -1.
         -3    1    3    3    0  502 -0.14240014669E+02  0.15824787545E+02 -0.38371021814E+02  0.43880943856E+02  0.00000000000E+00 0.  1.
         11    1    5    5    0    0  0.18508675567E+03 -0.13426231620E+03 -0.50967591488E+02  0.23426730898E+03  0.00000000000E+00 0.  1.
        -11    1    5    5    0    0  0.22937815580E+03 -0.16156222226E+03 -0.17137646022E+03  0.32876523712E+03  0.00000000000E+00 0. -1.
          1    1    6    6  503    0 -0.18884840209E+03  0.13506454440E+03 -0.61276673688E+02  0.24012700986E+03  0.00000000000E+00 0. -1.
         -1    1    6    6    0  503 -0.12186399216E+03  0.99245310607E+02 -0.12721192947E+03  0.20219628894E+03  0.00000000000E+00 0.  1.
<mgrwt>
<rscale>  0 0.14178620E+04</rscale>
<asrwt>0</asrwt>
<pdfrwt beam="1">  1        2 0.25536062E+00 0.14178620E+04</pdfrwt>
<pdfrwt beam="2">  1       -1 0.46582984E-01 0.14178620E+04</pdfrwt>
<totfact> 0.52480962E+01</totfact>
</mgrwt>
</event>
<event>
12    6  0.1569942E-007  0.2242879E+04  0.7818608E-02  0.8500790E-01
         -1   -1    0    0    0  501 -0.00000000000E+00  0.00000000000E+00  0.98758347201E+03  0.98758347201E+03  0.00000000000E+00 0.  1.
          2   -1    0    0  501    0  0.00000000000E+00 -0.00000000000E+00 -0.12734380562E+04  0.12734380562E+04  0.00000000000E+00 0. -1.
         24    2    1    2    0    0  0.27724994837E+03  0.89354881884E+03 -0.33758766122E+02  0.93961743988E+03  0.80276108064E+02 0.  0.
        254    2    1    2    0    0 -0.27724994837E+03 -0.89354881884E+03 -0.25209581808E+03  0.13214040883E+04  0.89847617534E+03 0.  0.
         23    2    4    4    0    0 -0.98540083344E+02 -0.19094757110E+03 -0.49844937058E+03  0.55037265302E+03  0.91033835595E+02 0.  0.
         23    2    4    4    0    0 -0.17870986503E+03 -0.70260124773E+03  0.24635355250E+03  0.77103143531E+03  0.90629312224E+02 0.  0.
          4    1    3    3  502    0  0.25552874053E+01 -0.10012145759E+01 -0.18264972227E+01  0.32966674772E+01  0.00000000000E+00 0. -1.
         -3    1    3    3    0  502  0.27469466097E+03  0.89455003341E+03 -0.31932268899E+02  0.93632077241E+03  0.00000000000E+00 0.  1.
         11    1    5    5    0    0 -0.18483998979E+02 -0.11806151842E+03 -0.32077905641E+03  0.34231474316E+03  0.00000000000E+00 0.  1.
        -11    1    5    5    0    0 -0.80056084365E+02 -0.72886052680E+02 -0.17767031417E+03  0.20805790986E+03  0.00000000000E+00 0. -1.
          1    1    6    6  503    0 -0.20350366110E+02 -0.24608033961E+03  0.70031704808E+02  0.25665952276E+03  0.00000000000E+00 0. -1.
         -1    1    6    6    0  503 -0.15835949892E+03 -0.45652090812E+03  0.17632184769E+03  0.51437191255E+03  0.00000000000E+00 0.  1.
<mgrwt>
<rscale>  0 0.22428788E+04</rscale>
<asrwt>0</asrwt>
<pdfrwt beam="1">  1        2 0.19591355E+00 0.22428788E+04</pdfrwt>
<pdfrwt beam="2">  1       -1 0.15193592E+00 0.22428788E+04</pdfrwt>
<totfact> 0.59947331E+00</totfact>
</mgrwt>
</event>
<event>
12    6  0.1569942E-007  0.1420146E+04  0.7818608E-02  0.8939364E-01
         -1   -1    0    0    0  501 -0.00000000000E+00  0.00000000000E+00  0.66129009611E+03  0.66129009611E+03  0.00000000000E+00 0.  1.
          2   -1    0    0  501    0  0.00000000000E+00 -0.00000000000E+00 -0.76245467901E+03  0.76245467901E+03  0.00000000000E+00 0. -1.
         24    2    1    2    0    0  0.20897055589E+03 -0.22580685500E+02 -0.40262571629E+03  0.46103041425E+03  0.79139085538E+02 0.  0.
        254    2    1    2    0    0 -0.20897055589E+03  0.22580685500E+02  0.30146113339E+03  0.96271436087E+03  0.88980983648E+03 0.  0.
         23    2    4    4    0    0 -0.28848497873E+03 -0.37701743623E+03  0.79918895553E+02  0.49025207474E+03  0.92705645668E+02 0.  0.
         23    2    4    4    0    0  0.79514422847E+02  0.39959812173E+03  0.22154223784E+03  0.47246228613E+03  0.90213337906E+02 0.  0.
          4    1    3    3  502    0  0.15525884400E+03 -0.29891168855E+02 -0.35599321374E+03  0.38952529936E+03  0.00000000000E+00 0. -1.
         -3    1    3    3    0  502  0.53711711887E+02  0.73104833548E+01 -0.46632502550E+02  0.71505114885E+02  0.00000000000E+00 0.  1.
         11    1    5    5    0    0 -0.11435919773E+03 -0.11768779552E+03 -0.12299433039E+02  0.16455916678E+03  0.00000000000E+00 0. -1.
        -11    1    5    5    0    0 -0.17412578101E+03 -0.25932964071E+03  0.92218328592E+02  0.32569290796E+03  0.00000000000E+00 0.  1.
          4    1    6    6  503    0  0.70639329055E+02  0.28296185747E+03  0.19970567466E+03  0.35346808071E+03  0.00000000000E+00 0. -1.
         -4    1    6    6    0  503  0.88750937918E+01  0.11663626427E+03  0.21836563176E+02  0.11899420542E+03  0.00000000000E+00 0.  1.
<mgrwt>
<rscale>  0 0.14201461E+04</rscale>
<asrwt>0</asrwt>
<pdfrwt beam="1">  1        2 0.11730072E+00 0.14201461E+04</pdfrwt>
<pdfrwt beam="2">  1       -1 0.10173694E+00 0.14201461E+04</pdfrwt>
<totfact> 0.37330610E+01</totfact>
</mgrwt>
</event>
<event>
12    6  0.1569942E-007  0.2000798E+04  0.7818608E-02  0.8606248E-01
          2   -1    0    0  501    0  0.00000000000E+00  0.00000000000E+00  0.92912085291E+03  0.92912085291E+03  0.00000000000E+00 0. -1.
         -1   -1    0    0    0  501 -0.00000000000E+00 -0.00000000000E+00 -0.10771448512E+04  0.10771448512E+04  0.00000000000E+00 0.  1.
         24    2    1    2    0    0 -0.60806258810E+03 -0.28091556363E+03 -0.58697847546E+03  0.89437774691E+03  0.81939969356E+02 0.  0.
        254    2    1    2    0    0  0.60806258810E+03  0.28091556363E+03  0.43895447719E+03  0.11118879572E+04  0.77133658758E+03 0.  0.
         23    2    4    4    0    0  0.77113724034E+03  0.28161168155E+03  0.29976647899E+03  0.87868295104E+03  0.90917566500E+02 0.  0.
         23    2    4    4    0    0 -0.16307465224E+03 -0.69611792359E+00  0.13918799819E+03  0.23320500614E+03  0.91746658062E+02 0.  0.
          2    1    3    3  502    0 -0.89960777786E+02 -0.42299982685E+02 -0.12903177498E+03  0.16288471085E+03  0.00000000000E+00 0. -1.
         -1    1    3    3    0  502 -0.51810181031E+03 -0.23861558094E+03 -0.45794670048E+03  0.73149303606E+03  0.00000000000E+00 0.  1.
         11    1    5    5    0    0  0.43432866446E+02  0.18165041144E+02 -0.40694453517E+01  0.47254026209E+02  0.00000000000E+00 0. -1.
        -11    1    5    5    0    0  0.72770437389E+03  0.26344664041E+03  0.30383592434E+03  0.83142892483E+03  0.00000000000E+00 0.  1.
          1    1    6    6  503    0  0.24712123603E+01 -0.19975560020E+02  0.10943385708E+02  0.22910425125E+02  0.00000000000E+00 0. -1.
         -1    1    6    6    0  503 -0.16554586460E+03  0.19279442097E+02  0.12824461249E+03  0.21029458102E+03  0.00000000000E+00 0.  1.
<mgrwt>
<rscale>  0 0.20007976E+04</rscale>
<asrwt>0</asrwt>
<pdfrwt beam="1">  1        2 0.14294167E+00 0.20007976E+04</pdfrwt>
<pdfrwt beam="2">  1       -1 0.16571459E+00 0.20007976E+04</pdfrwt>
<totfact> 0.78642942E+00</totfact>
</mgrwt>
</event>
<event>
12    6  0.1569942E-007  0.2588437E+04  0.7818608E-02  0.8372139E-01
          2   -1    0    0  501    0  0.00000000000E+00  0.00000000000E+00  0.11961086410E+04  0.11961086410E+04  0.00000000000E+00 0. -1.
         -1   -1    0    0    0  501 -0.00000000000E+00 -0.00000000000E+00 -0.14003758391E+04  0.14003758391E+04  0.00000000000E+00 0.  1.
         24    2    1    2    0    0  0.72290317595E+03  0.54339082695E+03 -0.77896885509E+03  0.11962487164E+04  0.79724034133E+02 0.  0.
        254    2    1    2    0    0 -0.72290317595E+03 -0.54339082695E+03  0.57470165698E+03  0.14002357637E+04  0.90139647597E+03 0.  0.
         23    2    4    4    0    0 -0.48960431459E+03  0.13625480119E+03  0.78036369468E+02  0.52201142829E+03  0.90158197610E+02 0.  0.
         23    2    4    4    0    0 -0.23329886136E+03 -0.67964562814E+03  0.49666528751E+03  0.87822433544E+03  0.90857234106E+02 0.  0.
          4    1    3    3  502    0  0.29341428449E+03  0.21858272656E+03 -0.36724828120E+03  0.51840298102E+03  0.00000000000E+00 0. -1.
         -3    1    3    3    0  502  0.42948889146E+03  0.32480810039E+03 -0.41172057389E+03  0.67784573535E+03  0.00000000000E+00 0.  1.
         11    1    5    5    0    0 -0.48326150279E+03  0.13689956566E+03  0.63674372609E+02  0.50629793293E+03  0.00000000000E+00 0.  1.
        -11    1    5    5    0    0 -0.63428117923E+01 -0.64476447436E+00  0.14361996858E+02  0.15713495360E+02  0.00000000000E+00 0. -1.
          3    1    6    6  503    0 -0.29870474910E+02 -0.21145152369E+03  0.13575331806E+03  0.25304733847E+03  0.00000000000E+00 0. -1.
         -3    1    6    6    0  503 -0.20342838645E+03 -0.46819410445E+03  0.36091196945E+03  0.62517699698E+03  0.00000000000E+00 0.  1.
<mgrwt>
<rscale>  0 0.25884371E+04</rscale>
<asrwt>0</asrwt>
<pdfrwt beam="1">  1        2 0.18401671E+00 0.25884371E+04</pdfrwt>
<pdfrwt beam="2">  1       -1 0.21544244E+00 0.25884371E+04</pdfrwt>
<totfact> 0.22691803E+00</totfact>
</mgrwt>
</event>
<event>
12    6  0.1569942E-007  0.1829384E+04  0.7818608E-02  0.8690828E-01
         -3   -1    0    0    0  501 -0.00000000000E+00  0.00000000000E+00  0.40018268855E+03  0.40018268855E+03  0.00000000000E+00 0.  1.
          4   -1    0    0  501    0  0.00000000000E+00 -0.00000000000E+00 -0.20906992188E+04  0.20906992188E+04  0.00000000000E+00 0. -1.
         24    2    1    2    0    0 -0.16320124209E+03 -0.48041004055E+02  0.26005240052E+03  0.32079060931E+03  0.79603897582E+02 0.  0.
        254    2    1    2    0    0  0.16320124209E+03  0.48041004055E+02 -0.19505689308E+04  0.21700912981E+04  0.93575344226E+03 0.  0.
         23    2    4    4    0    0  0.58145532463E+01 -0.35665079943E+03 -0.34586058340E+03  0.50513174732E+03  0.91131428347E+02 0.  0.
         23    2    4    4    0    0  0.15738668885E+03  0.40469180349E+03 -0.16047083474E+04  0.16649595508E+04  0.91953248010E+02 0.  0.
          2    1    3    3  502    0 -0.39032350785E+02 -0.35803005453E+01  0.14003344541E+02  0.41622549395E+02  0.00000000000E+00 0. -1.
         -1    1    3    3    0  502 -0.12416889131E+03 -0.44460703510E+02  0.24604905598E+03  0.27916805991E+03  0.00000000000E+00 0.  1.
         11    1    5    5    0    0  0.35645467488E+02 -0.21611126360E+03 -0.16540955253E+03  0.27447221658E+03  0.00000000000E+00 0. -1.
        -11    1    5    5    0    0 -0.29830914242E+02 -0.14053953583E+03 -0.18045103087E+03  0.23065953073E+03  0.00000000000E+00 0.  1.
          3    1    6    6  503    0  0.53287069647E+02  0.18868040531E+03 -0.88132330040E+03  0.90286796763E+03  0.00000000000E+00 0. -1.
         -3    1    6    6    0  503  0.10409961920E+03  0.21601139818E+03 -0.72338504700E+03  0.76209158313E+03  0.00000000000E+00 0.  1.
<mgrwt>
<rscale>  0 0.18293842E+04</rscale>
<asrwt>0</asrwt>
<pdfrwt beam="1">  1        4 0.32164604E+00 0.18293842E+04</pdfrwt>
<pdfrwt beam="2">  1       -3 0.61566567E-01 0.18293842E+04</pdfrwt>
<totfact> 0.12521699E-01</totfact>
</mgrwt>
</event>
<event>
12    6  0.1569942E-007  0.2724664E+04  0.7818608E-02  0.8327046E-01
         -1   -1    0    0    0  501 -0.00000000000E+00  0.00000000000E+00  0.21496129416E+04  0.21496129416E+04  0.00000000000E+00 0.  1.
          2   -1    0    0  501    0  0.00000000000E+00 -0.00000000000E+00 -0.86338732502E+03  0.86338732502E+03  0.00000000000E+00 0. -1.
         24    2    1    2    0    0  0.26360715564E+03 -0.50650624572E+03  0.17577306181E+04  0.18497787550E+04  0.77635090231E+02 0.  0.
        254    2    1    2    0    0 -0.26360715564E+03  0.50650624572E+03 -0.47150500146E+03  0.11632215117E+04  0.89706744972E+03 0.  0.
         23    2    4    4    0    0 -0.45686910933E+03  0.54277148878E+03 -0.85035685746E+02  0.72030233255E+03  0.90962136755E+02 0.  0.
         23    2    4    4    0    0  0.19326195369E+03 -0.36265243060E+02 -0.38646931571E+03  0.44291917913E+03  0.90296825259E+02 0.  0.
          4    1    3    3  502    0  0.13652049086E+02 -0.57099072689E+01  0.26927969055E+02  0.30726161535E+02  0.00000000000E+00 0. -1.
         -3    1    3    3    0  502  0.24995510656E+03 -0.50079633845E+03  0.17308026490E+04  0.18190525934E+04  0.00000000000E+00 0.  1.
         11    1    5    5    0    0 -0.46097561107E+03  0.54046550232E+03 -0.83050902216E+02  0.71519153068E+03  0.00000000000E+00 0.  1.
        -11    1    5    5    0    0  0.41065017336E+01  0.23059864602E+01 -0.19847835302E+01  0.51108018651E+01  0.00000000000E+00 0. -1.
          2    1    6    6  503    0  0.12358703864E+03  0.38845117826E+01 -0.30180370838E+03  0.32615076873E+03  0.00000000000E+00 0.  1.
         -2    1    6    6    0  503  0.69674915051E+02 -0.40149754842E+02 -0.84665607330E+02  0.11676841039E+03  0.00000000000E+00 0. -1.
<mgrwt>
<rscale>  0 0.27246641E+04</rscale>
<asrwt>0</asrwt>
<pdfrwt beam="1">  1        2 0.13282882E+00 0.27246641E+04</pdfrwt>
<pdfrwt beam="2">  1       -1 0.33070968E+00 0.27246641E+04</pdfrwt>
<totfact> 0.64583283E-01</totfact>
</mgrwt>
</event>
<event>
12    6  0.1569942E-007  0.1167294E+04  0.7818608E-02  0.9141976E-01
         -1   -1    0    0    0  501 -0.00000000000E+00  0.00000000000E+00  0.12296657821E+03  0.12296657821E+03  0.00000000000E+00 0.  1.
          2   -1    0    0  501    0  0.00000000000E+00 -0.00000000000E+00 -0.27702150190E+04  0.27702150190E+04  0.00000000000E+00 0. -1.
         24    2    1    2    0    0 -0.26417486102E+03 -0.18555816373E+03 -0.74926536452E+03  0.81965361328E+03  0.78824298096E+02 0.  0.
        254    2    1    2    0    0  0.26417486102E+03  0.18555816373E+03 -0.18979830763E+04  0.20735279839E+04  0.77003789064E+03 0.  0.
         23    2    4    4    0    0 -0.12606327098E+03  0.12848374370E+03 -0.14735025890E+04  0.14873104921E+04  0.92101028868E+02 0.  0.
         23    2    4    4    0    0  0.39023813200E+03  0.57074420034E+02 -0.42448048726E+03  0.58621749179E+03  0.89016709272E+02 0.  0.
          2    1    3    3  502    0 -0.14248362678E+03 -0.88141038145E+02 -0.48154036028E+03  0.50985443519E+03  0.00000000000E+00 0. -1.
         -1    1    3    3    0  502 -0.12169123424E+03 -0.97417125589E+02 -0.26772500424E+03  0.30979917809E+03  0.00000000000E+00 0.  1.
         11    1    5    5    0    0 -0.14500641561E+02  0.70558806428E+02 -0.69520832355E+03  0.69893020174E+03  0.00000000000E+00 0.  1.
        -11    1    5    5    0    0 -0.11156262942E+03  0.57924937271E+02 -0.77829426547E+03  0.78838029041E+03  0.00000000000E+00 0. -1.
          2    1    6    6  503    0  0.27359275822E+03  0.18696085252E+02 -0.34165507132E+03  0.43809899419E+03  0.00000000000E+00 0. -1.
         -2    1    6    6    0  503  0.11664537378E+03  0.38378334783E+02 -0.82825415934E+02  0.14811849760E+03  0.00000000000E+00 0.  1.
<mgrwt>
<rscale>  0 0.11672941E+04</rscale>
<asrwt>0</asrwt>
<pdfrwt beam="1">  1        2 0.42618689E+00 0.11672941E+04</pdfrwt>
<pdfrwt beam="2">  1       -1 0.18917937E-01 0.11672941E+04</pdfrwt>
<totfact> 0.61635556E+01</totfact>
</mgrwt>
</event>
<event>
12    6  0.1569942E-007  0.1177234E+04  0.7818608E-02  0.9133021E-01
         -1   -1    0    0    0  501 -0.00000000000E+00  0.00000000000E+00  0.18051676915E+03  0.18051676915E+03  0.00000000000E+00 0.  1.
          2   -1    0    0  501    0  0.00000000000E+00 -0.00000000000E+00 -0.19193213603E+04  0.19193213603E+04  0.00000000000E+00 0. -1.
         24    2    1    2    0    0 -0.20418773460E+03 -0.23529817202E+02 -0.23195465794E+03  0.32056221470E+03  0.81920002998E+02 0.  0.
        254    2    1    2    0    0  0.20418773460E+03  0.23529817202E+02 -0.15068499332E+04  0.17792759147E+04  0.92356904253E+03 0.  0.
         23    2    4    4    0    0 -0.25531759980E+03  0.23761279243E+03 -0.97053346506E+03  0.10355395383E+04  0.93594939502E+02 0.  0.
         23    2    4    4    0    0  0.45950533440E+03 -0.21408297523E+03 -0.53631646815E+03  0.74373637644E+03  0.92367586331E+02 0.  0.
          2    1    3    3  502    0 -0.20590025660E+03 -0.10824193348E+02 -0.22739825810E+03  0.30695609884E+03  0.00000000000E+00 0. -1.
         -1    1    3    3    0  502  0.17125220011E+01 -0.12705623853E+02 -0.45563998438E+01  0.13606115854E+02  0.00000000000E+00 0.  1.
         11    1    5    5    0    0 -0.12451557779E+03  0.93876848152E+02 -0.56038661700E+03  0.58167873628E+03  0.00000000000E+00 0. -1.
        -11    1    5    5    0    0 -0.13080202201E+03  0.14373594428E+03 -0.41014684806E+03  0.45386080202E+03  0.00000000000E+00 0.  1.
          2    1    6    6  503    0  0.11724811955E+03 -0.27986416537E+02 -0.17429261020E+03  0.21191572622E+03  0.00000000000E+00 0.  1.
         -2    1    6    6    0  503  0.34225721485E+03 -0.18609655870E+03 -0.36202385794E+03  0.53182065021E+03  0.00000000000E+00 0. -1.
<mgrwt>
<rscale>  0 0.11772335E+04</rscale>
<asrwt>0</asrwt>
<pdfrwt beam="1">  1        2 0.29528020E+00 0.11772335E+04</pdfrwt>
<pdfrwt beam="2">  1       -1 0.27771811E-01 0.11772335E+04</pdfrwt>
<totfact> 0.97488097E+01</totfact>
</mgrwt>
</event>
<event>
12    6  0.1569942E-007  0.2431958E+04  0.7818608E-02  0.8427635E-01
          2   -1    0    0  501    0  0.00000000000E+00  0.00000000000E+00  0.17435802749E+04  0.17435802749E+04  0.00000000000E+00 0. -1.
         -1   -1    0    0    0  501 -0.00000000000E+00 -0.00000000000E+00 -0.84802783590E+03  0.84802783590E+03  0.00000000000E+00 0.  1.
         24    2    1    2    0    0 -0.19156234846E+03 -0.70774405365E+03  0.11835578624E+04  0.13948152451E+04  0.84276778727E+02 0.  0.
        254    2    1    2    0    0  0.19156234846E+03  0.70774405365E+03 -0.28800542341E+03  0.11967928657E+04  0.90098183148E+03 0.  0.
         23    2    4    4    0    0  0.21490770093E+03  0.61456855801E+03  0.20248291183E+03  0.68840934950E+03  0.95017211487E+02 0.  0.
         23    2    4    4    0    0 -0.23345352471E+02  0.93175495635E+02 -0.49048833524E+03  0.50838351620E+03  0.92996312113E+02 0.  0.
          2    1    3    3  502    0 -0.10899281670E+03 -0.49632469156E+03  0.75908421002E+03  0.91346946935E+03  0.00000000000E+00 0. -1.
         -1    1    3    3    0  502 -0.82569531756E+02 -0.21141936209E+03  0.42447365240E+03  0.48134577574E+03  0.00000000000E+00 0.  1.
         11    1    5    5    0    0 -0.94525940830E+01  0.22485664888E+02  0.12173733372E+02  0.27260895887E+02  0.00000000000E+00 0. -1.
        -11    1    5    5    0    0  0.22436029501E+03  0.59208289313E+03  0.19030917846E+03  0.66114845361E+03  0.00000000000E+00 0.  1.
          4    1    6    6  503    0 -0.37202767976E+02  0.18833026470E+02 -0.72727897367E+02  0.83833620264E+02  0.00000000000E+00 0. -1.
         -4    1    6    6    0  503  0.13857415505E+02  0.74342469165E+02 -0.41776043787E+03  0.42454989594E+03  0.00000000000E+00 0.  1.
<mgrwt>
<rscale>  0 0.24319577E+04</rscale>
<asrwt>0</asrwt>
<pdfrwt beam="1">  1        2 0.26824312E+00 0.24319577E+04</pdfrwt>
<pdfrwt beam="2">  1       -1 0.13046582E+00 0.24319577E+04</pdfrwt>
<totfact> 0.47593198E+00</totfact>
</mgrwt>
</event>
<event>
12    6  0.1569942E-007  0.1488254E+04  0.7818608E-02  0.8892301E-01
         -1   -1    0    0    0  501 -0.00000000000E+00  0.00000000000E+00  0.10527486409E+04  0.10527486409E+04  0.00000000000E+00 0.  1.
          2   -1    0    0  501    0  0.00000000000E+00 -0.00000000000E+00 -0.52598043121E+03  0.52598043121E+03  0.00000000000E+00 0. -1.
         24    2    1    2    0    0 -0.13632592101E+03  0.40289076703E+03  0.36719377190E+03  0.56926549343E+03  0.91248062956E+02 0.  0.
        254    2    1    2    0    0  0.13632592101E+03 -0.40289076703E+03  0.15957443781E+03  0.10094635787E+04  0.90146934979E+03 0.  0.
         23    2    4    4    0    0  0.24937405481E+03 -0.22751678521E+03 -0.32287092511E+03  0.47612646506E+03  0.92192568502E+02 0.  0.
         23    2    4    4    0    0 -0.11304813380E+03 -0.17537398182E+03  0.48244536292E+03  0.53333711364E+03  0.90327374176E+02 0.  0.
          2    1    3    3  502    0 -0.22814388530E+02  0.69606498394E+02  0.22713514896E+02  0.76690708053E+02  0.00000000000E+00 0. -1.
         -3    1    3    3    0  502 -0.11351153248E+03  0.33328426864E+03  0.34448025700E+03  0.49257478538E+03  0.00000000000E+00 0.  1.
         11    1    5    5    0    0  0.20259218474E+03 -0.13295583036E+03 -0.20017731813E+03  0.31431163650E+03  0.00000000000E+00 0. -1.
        -11    1    5    5    0    0  0.46781870069E+02 -0.94560954852E+02 -0.12269360698E+03  0.16181482856E+03  0.00000000000E+00 0.  1.
          3    1    6    6  503    0 -0.73109048925E+02 -0.40617598449E+02  0.13865085786E+03  0.16192215020E+03  0.00000000000E+00 0. -1.
         -3    1    6    6    0  503 -0.39939084874E+02 -0.13475638337E+03  0.34379450506E+03  0.37141496344E+03  0.00000000000E+00 0.  1.
<mgrwt>
<rscale>  0 0.14882543E+04</rscale>
<asrwt>0</asrwt>
<pdfrwt beam="1">  1        2 0.80920067E-01 0.14882543E+04</pdfrwt>
<pdfrwt beam="2">  1       -1 0.16196133E+00 0.14882543E+04</pdfrwt>
<totfact> 0.18118592E+01</totfact>
</mgrwt>
</event>
<event>
12    6  0.1569942E-007  0.1488583E+04  0.7818608E-02  0.8892080E-01
         -1   -1    0    0    0  501 -0.00000000000E+00  0.00000000000E+00  0.18996589955E+03  0.18996589955E+03  0.00000000000E+00 0.  1.
          2   -1    0    0  501    0  0.00000000000E+00 -0.00000000000E+00 -0.29161559913E+04  0.29161559913E+04  0.00000000000E+00 0. -1.
         24    2    1    2    0    0 -0.43300485512E+03  0.10961206188E+03 -0.11978483281E+04  0.12808328508E+04  0.78639468833E+02 0.  0.
        254    2    1    2    0    0  0.43300485512E+03 -0.10961206188E+03 -0.15283417637E+04  0.18252890400E+04  0.89238081798E+03 0.  0.
         23    2    4    4    0    0  0.53888103134E+03 -0.35797740832E+03 -0.13161412989E+04  0.14700144382E+04  0.10086594568E+03 0.  0.
         23    2    4    4    0    0 -0.10587617622E+03  0.24836534644E+03 -0.21220046478E+03  0.35527460182E+03  0.91081806321E+02 0.  0.
          2    1    3    3  502    0 -0.20110036860E+03  0.30519259779E+02 -0.64003238881E+03  0.67157593926E+03  0.00000000000E+00 0. -1.
         -1    1    3    3    0  502 -0.23190448652E+03  0.79092802097E+02 -0.55781593927E+03  0.60925691158E+03  0.00000000000E+00 0.  1.
         11    1    5    5    0    0  0.50802025378E+03 -0.30791176500E+03 -0.12266867550E+04  0.13629580434E+04  0.00000000000E+00 0. -1.
        -11    1    5    5    0    0  0.30860777560E+02 -0.50065643319E+02 -0.89454543927E+02  0.10705639477E+03  0.00000000000E+00 0.  1.
          4    1    6    6  503    0 -0.63021113841E+02  0.20728071487E+03 -0.12605231370E+03  0.25065143394E+03  0.00000000000E+00 0. -1.
         -4    1    6    6    0  503 -0.42855062380E+02  0.41084631572E+02 -0.86148151084E+02  0.10462316788E+03  0.00000000000E+00 0.  1.
<mgrwt>
<rscale>  0 0.14885835E+04</rscale>
<asrwt>0</asrwt>
<pdfrwt beam="1">  1        2 0.44863934E+00 0.14885835E+04</pdfrwt>
<pdfrwt beam="2">  1       -1 0.29225526E-01 0.14885835E+04</pdfrwt>
<totfact> 0.23252227E+01</totfact>
</mgrwt>
</event>
<event>
12    6  0.1569942E-007  0.1757805E+04  0.7818608E-02  0.8729066E-01
          2   -1    0    0  501    0  0.00000000000E+00  0.00000000000E+00  0.79335379326E+03  0.79335379326E+03  0.00000000000E+00 0. -1.
         -1   -1    0    0    0  501 -0.00000000000E+00 -0.00000000000E+00 -0.97367581883E+03  0.97367581883E+03  0.00000000000E+00 0.  1.
         24    2    1    2    0    0  0.52969558921E+03 -0.70707774801E+02  0.29790123630E+03  0.61715226065E+03  0.80961469769E+02 0.  0.
        254    2    1    2    0    0 -0.52969558921E+03  0.70707774801E+02 -0.47822326188E+03  0.11498773514E+04  0.89885673414E+03 0.  0.
         23    2    4    4    0    0 -0.71767022258E+03 -0.11472883265E+03 -0.20825157292E+03  0.76174065513E+03  0.93095943174E+02 0.  0.
         23    2    4    4    0    0  0.18797463337E+03  0.18543660745E+03 -0.26997168896E+03  0.38813669631E+03  0.89689375122E+02 0.  0.
          2    1    3    3  502    0  0.43668887421E+03 -0.44399580248E+02  0.27449516034E+03  0.51770270294E+03  0.00000000000E+00 0. -1.
         -1    1    3    3    0  502  0.93006715009E+02 -0.26308194553E+02  0.23406075965E+02  0.99449557714E+02  0.00000000000E+00 0.  1.
         11    1    5    5    0    0 -0.12765655253E+03 -0.42220681851E+02 -0.69295495878E+02  0.15126350230E+03  0.00000000000E+00 0. -1.
        -11    1    5    5    0    0 -0.59001367005E+03 -0.72508150801E+02 -0.13895607704E+03  0.61047715283E+03  0.00000000000E+00 0.  1.
          4    1    6    6  503    0  0.56126190138E+02  0.67348264012E+02 -0.36038427693E+02  0.94787689894E+02  0.00000000000E+00 0. -1.
         -4    1    6    6    0  503  0.13184844323E+03  0.11808834344E+03 -0.23393326127E+03  0.29334900642E+03  0.00000000000E+00 0.  1.
<mgrwt>
<rscale>  0 0.17578048E+04</rscale>
<asrwt>0</asrwt>
<pdfrwt beam="1">  1        2 0.12205443E+00 0.17578048E+04</pdfrwt>
<pdfrwt beam="2">  1       -1 0.14979628E+00 0.17578048E+04</pdfrwt>
<totfact> 0.13189990E+01</totfact>
</mgrwt>
</event>
<event>
12    6  0.1569942E-007  0.2133246E+04  0.7818608E-02  0.8546738E-01
         -1   -1    0    0    0  501 -0.00000000000E+00  0.00000000000E+00  0.39555463186E+03  0.39555463186E+03  0.00000000000E+00 0.  1.
          2   -1    0    0  501    0  0.00000000000E+00 -0.00000000000E+00 -0.28761745156E+04  0.28761745156E+04  0.00000000000E+00 0. -1.
         24    2    1    2    0    0  0.78781121273E+02 -0.76559079278E+03 -0.37864619702E+03  0.86139011219E+03  0.79273298151E+02 0.  0.
        254    2    1    2    0    0 -0.78781121273E+02  0.76559079278E+03 -0.21019736867E+04  0.24103390353E+04  0.89392681928E+03 0.  0.
         23    2    4    4    0    0 -0.32135949780E+03  0.79894886026E+03 -0.18734235691E+04  0.20639194783E+04  0.91959423468E+02 0.  0.
         23    2    4    4    0    0  0.24257837653E+03 -0.33358067477E+02 -0.22855011760E+03  0.34641955694E+03  0.88398663731E+02 0.  0.
          2    1    3    3  502    0 -0.68253144893E+01 -0.74583821778E+02 -0.58460516859E+02  0.95010333229E+02  0.00000000000E+00 0. -1.
         -1    1    3    3    0  502  0.85606435763E+02 -0.69100697101E+03 -0.32018568016E+03  0.76637977896E+03  0.00000000000E+00 0.  1.
         11    1    5    5    0    0 -0.43445022080E+02  0.10375015328E+03 -0.17822543421E+03  0.21075072871E+03  0.00000000000E+00 0.  1.
        -11    1    5    5    0    0 -0.27791447572E+03  0.69519870698E+03 -0.16951981349E+04  0.18531687496E+04  0.00000000000E+00 0. -1.
          1    1    6    6  503    0  0.24192147378E+03 -0.19071188422E+02 -0.19992195900E+03  0.31441771482E+03  0.00000000000E+00 0. -1.
         -1    1    6    6    0  503  0.65690275539E+00 -0.14286879055E+02 -0.28628158599E+02  0.32001842120E+02  0.00000000000E+00 0.  1.
<mgrwt>
<rscale>  0 0.21332456E+04</rscale>
<asrwt>0</asrwt>
<pdfrwt beam="1">  1        2 0.44248839E+00 0.21332456E+04</pdfrwt>
<pdfrwt beam="2">  1       -1 0.60854559E-01 0.21332456E+04</pdfrwt>
<totfact> 0.59585952E+00</totfact>
</mgrwt>
</event>
<event>
12    6  0.1569942E-007  0.1336952E+04  0.7818608E-02  0.9000764E-01
         -1   -1    0    0    0  501 -0.00000000000E+00  0.00000000000E+00  0.63711713704E+03  0.63711713704E+03  0.00000000000E+00 0.  1.
          2   -1    0    0  501    0  0.00000000000E+00 -0.00000000000E+00 -0.70137872918E+03  0.70137872918E+03  0.00000000000E+00 0. -1.
         24    2    1    2    0    0 -0.55615487554E+02 -0.20803281267E+03 -0.28423315511E+03  0.36563177108E+03  0.80792152837E+02 0.  0.
        254    2    1    2    0    0  0.55615487554E+02  0.20803281267E+03  0.21997156297E+03  0.97286409514E+03  0.92287936671E+03 0.  0.
         23    2    4    4    0    0  0.93817832000E+02 -0.34723567677E+03  0.98550191303E+01  0.37108571453E+03  0.90736350497E+02 0.  0.
         23    2    4    4    0    0 -0.38202344446E+02  0.55526848944E+03  0.21011654384E+03  0.60177838062E+03  0.90585555665E+02 0.  0.
          2    1    3    3  502    0 -0.11283429009E+02 -0.17299295298E+03 -0.20903625939E+03  0.27156957726E+03  0.00000000000E+00 0. -1.
         -1    1    3    3    0  502 -0.44332058545E+02 -0.35039859685E+02 -0.75196895719E+02  0.94062193826E+02  0.00000000000E+00 0.  1.
         11    1    5    5    0    0  0.61866072914E+02 -0.17710019439E+03 -0.38167561429E+02  0.19143837801E+03  0.00000000000E+00 0.  1.
        -11    1    5    5    0    0  0.31951759086E+02 -0.17013548238E+03  0.48022580559E+02  0.17964733651E+03  0.00000000000E+00 0. -1.
          1    1    6    6  503    0 -0.30450686920E+01  0.30247176691E+03  0.69470764858E+02  0.31036209400E+03  0.00000000000E+00 0. -1.
         -1    1    6    6    0  503 -0.35157275754E+02  0.25279672253E+03  0.14064577898E+03  0.29141628662E+03  0.00000000000E+00 0.  1.
<mgrwt>
<rscale>  0 0.13369524E+04</rscale>
<asrwt>0</asrwt>
<pdfrwt beam="1">  1        2 0.10790442E+00 0.13369524E+04</pdfrwt>
<pdfrwt beam="2">  1       -1 0.98018021E-01 0.13369524E+04</pdfrwt>
<totfact> 0.45555893E+01</totfact>
</mgrwt>
</event>
<event>
12    6  0.1569942E-007  0.1211993E+04  0.7818608E-02  0.9102424E-01
         -1   -1    0    0    0  501 -0.00000000000E+00  0.00000000000E+00  0.23886927767E+03  0.23886927767E+03  0.00000000000E+00 0.  1.
          2   -1    0    0  501    0  0.00000000000E+00 -0.00000000000E+00 -0.15373749088E+04  0.15373749088E+04  0.00000000000E+00 0. -1.
         24    2    1    2    0    0 -0.92582093813E+02 -0.21151882479E+03 -0.42048477131E+03  0.48628713956E+03  0.79725039120E+02 0.  0.
        254    2    1    2    0    0  0.92582093813E+02  0.21151882479E+03 -0.87802085981E+03  0.12899570469E+04  0.91638250487E+03 0.  0.
         23    2    4    4    0    0 -0.25464812569E+03  0.42295436145E+03 -0.63237933966E+03  0.80717821321E+03  0.88864947337E+02 0.  0.
         23    2    4    4    0    0  0.34723021950E+03 -0.21143553666E+03 -0.24564152015E+03  0.48277883368E+03  0.86381909744E+02 0.  0.
          2    1    3    3  502    0 -0.89220191633E+02 -0.20266420397E+03 -0.34327205882E+03  0.40849568973E+03  0.00000000000E+00 0. -1.
         -1    1    3    3    0  502 -0.33619021797E+01 -0.88546208275E+01 -0.77212712493E+02  0.77791449830E+02  0.00000000000E+00 0.  1.
         11    1    5    5    0    0 -0.24318792107E+03  0.42484794008E+03 -0.61172502409E+03  0.78348174340E+03  0.00000000000E+00 0. -1.
        -11    1    5    5    0    0 -0.11460204614E+02 -0.18935786252E+01 -0.20654315566E+02  0.23696469807E+02  0.00000000000E+00 0.  1.
          1    1    6    6  503    0  0.22105767274E+03 -0.17184628206E+03 -0.13740935677E+03  0.31189576890E+03  0.00000000000E+00 0. -1.
         -1    1    6    6    0  503  0.12617254676E+03 -0.39589254600E+02 -0.10823216338E+03  0.17088306477E+03  0.00000000000E+00 0.  1.
<mgrwt>
<rscale>  0 0.12119928E+04</rscale>
<asrwt>0</asrwt>
<pdfrwt beam="1">  1        2 0.23651921E+00 0.12119928E+04</pdfrwt>
<pdfrwt beam="2">  1       -1 0.36749121E-01 0.12119928E+04</pdfrwt>
<totfact> 0.96505628E+01</totfact>
</mgrwt>
</event>
<event>
12    6  0.1569942E-007  0.1865793E+04  0.7818608E-02  0.8672073E-01
          2   -1    0    0  501    0  0.00000000000E+00  0.00000000000E+00  0.25118330152E+04  0.25118330152E+04  0.00000000000E+00 0. -1.
         -1   -1    0    0    0  501 -0.00000000000E+00 -0.00000000000E+00 -0.34647851653E+03  0.34647851653E+03  0.00000000000E+00 0.  1.
         24    2    1    2    0    0 -0.44997622550E+02 -0.63608405158E+03  0.33987964552E+03  0.72694197656E+03  0.79364709630E+02 0.  0.
        254    2    1    2    0    0  0.44997622550E+02  0.63608405158E+03  0.18254748531E+04  0.21313695551E+04  0.89652107309E+03 0.  0.
         23    2    4    4    0    0  0.25935701984E+03 -0.68280391901E+02  0.20713315453E+03  0.35092922355E+03  0.91208007191E+02 0.  0.
         23    2    4    4    0    0 -0.21435939729E+03  0.70436444348E+03  0.16183416986E+04  0.17804403316E+04  0.94120670008E+02 0.  0.
          2    1    3    3  502    0 -0.25575402403E+02 -0.50366150118E+02  0.26956065839E+02  0.62589773696E+02  0.00000000000E+00 0. -1.
         -1    1    3    3    0  502 -0.19422220147E+02 -0.58571790146E+03  0.31292357968E+03  0.66435220286E+03  0.00000000000E+00 0.  1.
         11    1    5    5    0    0  0.11192869551E+03 -0.49425615962E+02  0.14528901231E+03  0.18994689124E+03  0.00000000000E+00 0. -1.
        -11    1    5    5    0    0  0.14742832433E+03 -0.18854775940E+02  0.61844142220E+02  0.16098233231E+03  0.00000000000E+00 0.  1.
          3    1    6    6  503    0 -0.46817528621E+01  0.12858435746E+02  0.91673915126E+01  0.16471164101E+02  0.00000000000E+00 0. -1.
         -3    1    6    6    0  503 -0.20967764443E+03  0.69150600773E+03  0.16091743071E+04  0.17639691675E+04  0.00000000000E+00 0.  1.
<mgrwt>
<rscale>  0 0.18657933E+04</rscale>
<asrwt>0</asrwt>
<pdfrwt beam="1">  1        2 0.38643584E+00 0.18657933E+04</pdfrwt>
<pdfrwt beam="2">  1       -1 0.53304389E-01 0.18657933E+04</pdfrwt>
<totfact> 0.13018674E+01</totfact>
</mgrwt>
</event>
<event>
12    6  0.1569942E-007  0.3131075E+04  0.7818608E-02  0.8207261E-01
          2   -1    0    0  501    0  0.00000000000E+00  0.00000000000E+00  0.16944409729E+04  0.16944409729E+04  0.00000000000E+00 0. -1.
         -1   -1    0    0    0  501 -0.00000000000E+00 -0.00000000000E+00 -0.14464402552E+04  0.14464402552E+04  0.00000000000E+00 0.  1.
         24    2    1    2    0    0  0.99887771498E+03 -0.28939883016E+03  0.11058269498E+04  0.15200808236E+04  0.79272283717E+02 0.  0.
        254    2    1    2    0    0 -0.99887771498E+03  0.28939883016E+03 -0.85782623213E+03  0.16208004045E+04  0.89978871651E+03 0.  0.
         23    2    4    4    0    0  0.15525045942E+03  0.34430026074E+01 -0.15121251663E+03  0.23472657708E+03  0.90093181685E+02 0.  0.
         23    2    4    4    0    0 -0.11541281744E+04  0.28595582755E+03 -0.70661371550E+03  0.13860738274E+04  0.90084037936E+02 0.  0.
          4    1    3    3  502    0  0.46710293249E+03 -0.12805331828E+03  0.57190575212E+03  0.74943911772E+03  0.00000000000E+00 0. -1.
         -3    1    3    3    0  502  0.53177478249E+03 -0.16134551188E+03  0.53392119771E+03  0.77064170590E+03  0.00000000000E+00 0.  1.
         11    1    5    5    0    0  0.14737062403E+02  0.32758916855E+02 -0.27665099928E+02  0.45339666913E+02  0.00000000000E+00 0.  1.
        -11    1    5    5    0    0  0.14051339702E+03 -0.29315914248E+02 -0.12354741670E+03  0.18938691017E+03  0.00000000000E+00 0. -1.
          1    1    6    6  503    0 -0.99042116018E+03  0.23671588590E+03 -0.63921024297E+03  0.12023136945E+04  0.00000000000E+00 0. -1.
         -1    1    6    6    0  503 -0.16370701423E+03  0.49239941649E+02 -0.67403472530E+02  0.18376013297E+03  0.00000000000E+00 0.  1.
<mgrwt>
<rscale>  0 0.31310750E+04</rscale>
<asrwt>0</asrwt>
<pdfrwt beam="1">  1        2 0.26068323E+00 0.31310750E+04</pdfrwt>
<pdfrwt beam="2">  1       -1 0.22252927E+00 0.31310750E+04</pdfrwt>
<totfact> 0.10076514E+00</totfact>
</mgrwt>
</event>
<event>
12    6  0.1569942E-007  0.1396501E+04  0.7818608E-02  0.8956355E-01
         -1   -1    0    0    0  501 -0.00000000000E+00  0.00000000000E+00  0.73730380470E+03  0.73730380470E+03  0.00000000000E+00 0.  1.
          2   -1    0    0  501    0  0.00000000000E+00 -0.00000000000E+00 -0.66126587488E+03  0.66126587488E+03  0.00000000000E+00 0. -1.
         24    2    1    2    0    0  0.41804662615E+02 -0.39764519890E+03  0.82825956334E+02  0.41601348687E+03  0.79609975447E+02 0.  0.
        254    2    1    2    0    0 -0.41804662615E+02  0.39764519890E+03 -0.67880265206E+01  0.98255619271E+03  0.89749722034E+03 0.  0.
         23    2    4    4    0    0  0.41464557146E+03  0.23940294216E+03  0.38960964649E+02  0.48846964399E+03  0.88543309712E+02 0.  0.
         23    2    4    4    0    0 -0.45645023407E+03  0.15824225674E+03 -0.45748991170E+02  0.49408654872E+03  0.92957621695E+02 0.  0.
          2    1    3    3  502    0  0.21113645963E+02 -0.34751957824E+03  0.47724217102E+02  0.35141605570E+03  0.00000000000E+00 0. -1.
         -1    1    3    3    0  502  0.20691016652E+02 -0.50125620659E+02  0.35101739232E+02  0.64597431169E+02  0.00000000000E+00 0.  1.
         11    1    5    5    0    0  0.27375865762E+03  0.12399442966E+03  0.55451165468E+02  0.30560309711E+03  0.00000000000E+00 0.  1.
        -11    1    5    5    0    0  0.14088691383E+03  0.11540851250E+03 -0.16490200819E+02  0.18286654689E+03  0.00000000000E+00 0. -1.
          3    1    6    6  503    0 -0.15245120637E+02  0.78164164544E+01  0.16523229811E+02  0.23801831711E+02  0.00000000000E+00 0. -1.
         -3    1    6    6    0  503 -0.44120511343E+03  0.15042584028E+03 -0.62272220981E+02  0.47028471701E+03  0.00000000000E+00 0.  1.
<mgrwt>
<rscale>  0 0.13965011E+04</rscale>
<asrwt>0</asrwt>
<pdfrwt beam="1">  1        2 0.10173321E+00 0.13965011E+04</pdfrwt>
<pdfrwt beam="2">  1       -1 0.11343136E+00 0.13965011E+04</pdfrwt>
<totfact> 0.34738875E+01</totfact>
</mgrwt>
</event>
<event>
12    6  0.1569942E-007  0.2155068E+04  0.7818608E-02  0.8537366E-01
          2   -1    0    0  501    0  0.00000000000E+00  0.00000000000E+00  0.11079185153E+04  0.11079185153E+04  0.00000000000E+00 0. -1.
         -1   -1    0    0    0  501 -0.00000000000E+00 -0.00000000000E+00 -0.10479824933E+04  0.10479824933E+04  0.00000000000E+00 0.  1.
         24    2    1    2    0    0  0.10449581136E+03  0.96473581141E+02  0.89976795346E+03  0.91452222083E+03  0.80882605492E+02 0.  0.
        254    2    1    2    0    0 -0.10449581136E+03 -0.96473581141E+02 -0.83983193148E+03  0.12413787878E+04  0.90303770422E+03 0.  0.
         23    2    4    4    0    0 -0.28593623085E+03 -0.42474169905E+03 -0.56498445532E+03  0.76779022280E+03  0.90162921700E+02 0.  0.
         23    2    4    4    0    0  0.18144041949E+03  0.32826811791E+03 -0.27484747617E+03  0.47358856501E+03  0.89802063989E+02 0.  0.
          2    1    3    3  502    0  0.10857530327E+03  0.87197247320E+02  0.88858612570E+03  0.89943163120E+03  0.00000000000E+00 0. -1.
         -1    1    3    3    0  502 -0.40794919036E+01  0.92763338204E+01  0.11181827761E+02  0.15090589631E+02  0.00000000000E+00 0.  1.
         11    1    5    5    0    0 -0.43786318227E+02 -0.11439919907E+03 -0.96856201397E+02  0.15615870824E+03  0.00000000000E+00 0.  1.
        -11    1    5    5    0    0 -0.24214991262E+03 -0.31034249999E+03 -0.46812825392E+03  0.61163151456E+03  0.00000000000E+00 0. -1.
          1    1    6    6  503    0  0.18977366270E+03  0.31525475693E+03 -0.27266987051E+03  0.45798303801E+03  0.00000000000E+00 0. -1.
         -1    1    6    6    0  503 -0.83332432182E+01  0.13013360984E+02 -0.21776056546E+01  0.15605527002E+02  0.00000000000E+00 0.  1.
<mgrwt>
<rscale>  0 0.21550677E+04</rscale>
<asrwt>0</asrwt>
<pdfrwt beam="1">  1        2 0.17044900E+00 0.21550677E+04</pdfrwt>
<pdfrwt beam="2">  1       -1 0.16122808E+00 0.21550677E+04</pdfrwt>
<totfact> 0.64465291E+00</totfact>
</mgrwt>
</event>
<event>
12    6  0.1569942E-007  0.2670177E+04  0.7818608E-02  0.8344747E-01
         -1   -1    0    0    0  501 -0.00000000000E+00  0.00000000000E+00  0.63501805465E+03  0.63501805465E+03  0.00000000000E+00 0.  1.
          2   -1    0    0  501    0  0.00000000000E+00 -0.00000000000E+00 -0.28069448392E+04  0.28069448392E+04  0.00000000000E+00 0. -1.
         24    2    1    2    0    0 -0.28532814012E+03  0.11027480252E+04 -0.13646239000E+04  0.17794256347E+04  0.81803705942E+02 0.  0.
        254    2    1    2    0    0  0.28532814012E+03 -0.11027480252E+04 -0.80730288453E+03  0.16625372592E+04  0.90267759254E+03 0.  0.
         23    2    4    4    0    0 -0.15891787956E+03 -0.18946827514E+02 -0.36158711846E+03  0.40607249066E+03  0.92389115796E+02 0.  0.
         23    2    4    4    0    0  0.44424601969E+03 -0.10838011977E+04 -0.44571576606E+03  0.12564647685E+04  0.89786458992E+02 0.  0.
          4    1    3    3  502    0 -0.46579335351E+02  0.20803275522E+03 -0.30602397428E+03  0.37295835500E+03  0.00000000000E+00 0. -1.
         -3    1    3    3    0  502 -0.23874880477E+03  0.89471526998E+03 -0.10585999258E+04  0.14064672797E+04  0.00000000000E+00 0.  1.
         11    1    5    5    0    0 -0.13398745308E+03 -0.39238684053E+02 -0.33945611763E+03  0.36704600217E+03  0.00000000000E+00 0.  1.
        -11    1    5    5    0    0 -0.24930426488E+02  0.20291856539E+02 -0.22131000830E+02  0.39026488498E+02  0.00000000000E+00 0. -1.
          3    1    6    6  503    0  0.13349394300E+03 -0.36756291319E+03 -0.10712937458E+03  0.40546249009E+03  0.00000000000E+00 0. -1.
         -3    1    6    6    0  503  0.31075207669E+03 -0.71623828450E+03 -0.33858639148E+03  0.85100227840E+03  0.00000000000E+00 0.  1.
<mgrwt>
<rscale>  0 0.26701765E+04</rscale>
<asrwt>0</asrwt>
<pdfrwt beam="1">  1        2 0.43183766E+00 0.26701765E+04</pdfrwt>
<pdfrwt beam="2">  1       -1 0.97695087E-01 0.26701765E+04</pdfrwt>
<totfact> 0.23008934E+00</totfact>
</mgrwt>
</event>
<event>
12    6  0.1569942E-007  0.3459114E+04  0.7818608E-02  0.8123548E-01
         -1   -1    0    0    0  501 -0.00000000000E+00  0.00000000000E+00  0.24353026636E+04  0.24353026636E+04  0.00000000000E+00 0.  1.
          2   -1    0    0  501    0  0.00000000000E+00 -0.00000000000E+00 -0.12283351205E+04  0.12283351205E+04  0.00000000000E+00 0. -1.
         24    2    1    2    0    0 -0.52105220483E+03 -0.83654554530E+03  0.19129597491E+04  0.21533000017E+04  0.77343688184E+02 0.  0.
        254    2    1    2    0    0  0.52105220483E+03  0.83654554530E+03 -0.70599220610E+03  0.15103377824E+04  0.90077265298E+03 0.  0.
         23    2    4    4    0    0 -0.16180923210E+03  0.43753783711E+02 -0.35523213869E+03  0.40342449256E+03  0.92004498007E+02 0.  0.
         23    2    4    4    0    0  0.68286143693E+03  0.79279176159E+03 -0.35076006740E+03  0.11069132898E+04  0.86057463740E+02 0.  0.
          2    1    3    3  502    0 -0.26662055754E+03 -0.35594288442E+03  0.84936115103E+03  0.95874721567E+03  0.00000000000E+00 0. -1.
         -1    1    3    3    0  502 -0.25443164729E+03 -0.48060266088E+03  0.10635985981E+04  0.11945527860E+04  0.00000000000E+00 0.  1.
         11    1    5    5    0    0 -0.14990511885E+03  0.87163036112E+01 -0.24722075494E+03  0.28925009988E+03  0.00000000000E+00 0. -1.
        -11    1    5    5    0    0 -0.11904113251E+02  0.35037480100E+02 -0.10801138375E+03  0.11417439268E+03  0.00000000000E+00 0.  1.
          2    1    6    6  503    0  0.60122021593E+03  0.73381736559E+03 -0.32699282464E+03  0.10034330976E+04  0.00000000000E+00 0. -1.
         -2    1    6    6    0  503  0.81641220994E+02  0.58974396000E+02 -0.23767242767E+02  0.10348019220E+03  0.00000000000E+00 0.  1.
<mgrwt>
<rscale>  0 0.34591142E+04</rscale>
<asrwt>0</asrwt>
<pdfrwt beam="1">  1        2 0.18897463E+00 0.34591142E+04</pdfrwt>
<pdfrwt beam="2">  1       -1 0.37466195E+00 0.34591142E+04</pdfrwt>
<totfact> 0.18176355E-01</totfact>
</mgrwt>
</event>
<event>
12    6  0.1569942E-007  0.1402402E+04  0.7818608E-02  0.8952082E-01
          2   -1    0    0  501    0  0.00000000000E+00  0.00000000000E+00  0.71850912704E+03  0.71850912704E+03  0.00000000000E+00 0. -1.
         -1   -1    0    0    0  501 -0.00000000000E+00 -0.00000000000E+00 -0.68430977180E+03  0.68430977180E+03  0.00000000000E+00 0.  1.
         24    2    1    2    0    0  0.27538770355E+02  0.45827199198E+02 -0.39460279048E+03  0.40619233698E+03  0.80139480311E+02 0.  0.
        254    2    1    2    0    0 -0.27538770355E+02 -0.45827199198E+02  0.42880214572E+03  0.99662656187E+03  0.89807277410E+03 0.  0.
         23    2    4    4    0    0 -0.97390741155E+01 -0.15375944953E+03 -0.24734197223E+03  0.30562263924E+03  0.92142978592E+02 0.  0.
         23    2    4    4    0    0 -0.17799696239E+02  0.10793225034E+03  0.67614411795E+03  0.69100392262E+03  0.91374794091E+02 0.  0.
          4    1    3    3  502    0 -0.15054450971E+02 -0.15388157018E+02 -0.10073649813E+03  0.10301103789E+03  0.00000000000E+00 0. -1.
         -3    1    3    3    0  502  0.42593221326E+02  0.61215356217E+02 -0.29386629235E+03  0.30318129909E+03  0.00000000000E+00 0.  1.
         11    1    5    5    0    0  0.15784912840E+02 -0.13498546974E+03 -0.23529633806E+03  0.27172524214E+03  0.00000000000E+00 0. -1.
        -11    1    5    5    0    0 -0.25523986956E+02 -0.18773979792E+02 -0.12045634175E+02  0.33897397098E+02  0.00000000000E+00 0.  1.
          4    1    6    6  503    0 -0.30591908791E+02  0.10236361544E+03  0.66389998806E+03  0.67244134971E+03  0.00000000000E+00 0. -1.
         -4    1    6    6    0  503  0.12792212551E+02  0.55686348931E+01  0.12244129889E+02  0.18562572916E+02  0.00000000000E+00 0.  1.
<mgrwt>
<rscale>  0 0.14024020E+04</rscale>
<asrwt>0</asrwt>
<pdfrwt beam="1">  1        2 0.11053987E+00 0.14024020E+04</pdfrwt>
<pdfrwt beam="2">  1       -1 0.10527843E+00 0.14024020E+04</pdfrwt>
<totfact> 0.37286996E+01</totfact>
</mgrwt>
</event>
<event>
12    6  0.1898712E-007  0.2534292E+04  0.7818608E-02  0.8390870E-01
          2   -1    0    0  501    0  0.00000000000E+00  0.00000000000E+00  0.20332568953E+04  0.20332568953E+04  0.00000000000E+00 0. -1.
         -1   -1    0    0    0  501 -0.00000000000E+00 -0.00000000000E+00 -0.78969829074E+03  0.78969829074E+03  0.00000000000E+00 0.  1.
         24    2    1    2    0    0 -0.11617042280E+03  0.46267869510E+03  0.16540552788E+04  0.17233426021E+04  0.80272766132E+02 0.  0.
        254    2    1    2    0    0  0.11617042280E+03 -0.46267869510E+03 -0.41049667427E+03  0.10996125839E+04  0.90170570199E+03 0.  0.
         23    2    4    4    0    0  0.35488889762E+03 -0.48480667098E+02  0.11028316016E+03  0.38652629215E+03  0.94571107498E+02 0.  0.
         23    2    4    4    0    0 -0.23871847482E+03 -0.41419802800E+03 -0.52077983443E+03  0.71308629173E+03  0.93455373738E+02 0.  0.
          2    1    3    3  502    0 -0.78406466220E+02  0.40958915399E+03  0.14742488109E+04  0.15320967350E+04  0.00000000000E+00 0. -1.
         -1    1    3    3    0  502 -0.37763956577E+02  0.53089541109E+02  0.17980646790E+03  0.19124586712E+03  0.00000000000E+00 0.  1.
         11    1    5    5    0    0  0.11373673534E+02  0.16730130658E+02  0.12428561480E+01  0.20268261220E+02  0.00000000000E+00 0.  1.
        -11    1    5    5    0    0  0.34351522408E+03 -0.65210797756E+02  0.10904030401E+03  0.36625803093E+03  0.00000000000E+00 0. -1.
          3    1    6    6  503    0 -0.24457526922E+03 -0.40206673017E+03 -0.51695418906E+03  0.69908250687E+03  0.00000000000E+00 0. -1.
         -3    1    6    6    0  503  0.58567944054E+01 -0.12131297836E+02 -0.38256453699E+01  0.14003784859E+02  0.00000000000E+00 0.  1.
<mgrwt>
<rscale>  0 0.25342924E+04</rscale>
<asrwt>0</asrwt>
<pdfrwt beam="1">  1        2 0.31280875E+00 0.25342924E+04</pdfrwt>
<pdfrwt beam="2">  1       -1 0.12149205E+00 0.25342924E+04</pdfrwt>
<totfact> 0.38904097E+00</totfact>
</mgrwt>
</event>
<event>
12    6  0.1569942E-007  0.1413215E+04  0.7818608E-02  0.8944308E-01
         -1   -1    0    0    0  501 -0.00000000000E+00  0.00000000000E+00  0.22964727239E+03  0.22964727239E+03  0.00000000000E+00 0.  1.
          2   -1    0    0  501    0  0.00000000000E+00 -0.00000000000E+00 -0.21741788653E+04  0.21741788653E+04  0.00000000000E+00 0. -1.
         24    2    1    2    0    0 -0.42642350417E+02  0.28624977369E+02 -0.12917542777E+04  0.12952270550E+04  0.79663359612E+02 0.  0.
        254    2    1    2    0    0  0.42642350417E+02 -0.28624977369E+02 -0.65277731528E+03  0.11085990827E+04  0.89455907766E+03 0.  0.
         23    2    4    4    0    0  0.29820824122E+03  0.24408605152E+03 -0.57914031183E+02  0.40011392923E+03  0.90724669620E+02 0.  0.
         23    2    4    4    0    0 -0.25556589081E+03 -0.27271102889E+03 -0.59486328410E+03  0.70848515346E+03  0.91671457285E+02 0.  0.
          4    1    3    3  502    0 -0.69372667723E+01  0.32560718862E+02 -0.10750809103E+04  0.10755962484E+04  0.00000000000E+00 0. -1.
         -3    1    3    3    0  502 -0.35705083645E+02 -0.39357414923E+01 -0.21667336740E+03  0.21963080658E+03  0.00000000000E+00 0.  1.
         11    1    5    5    0    0  0.19117047985E+03  0.15709054047E+03 -0.80807083436E+02  0.26029478482E+03  0.00000000000E+00 0.  1.
        -11    1    5    5    0    0  0.10703776138E+03  0.86995511047E+02  0.22893052252E+02  0.13981914441E+03  0.00000000000E+00 0. -1.
          4    1    6    6  503    0 -0.15209729056E+03 -0.21864073890E+03 -0.44351468704E+03  0.51734189481E+03  0.00000000000E+00 0. -1.
         -4    1    6    6    0  503 -0.10346860024E+03 -0.54070289991E+02 -0.15134859706E+03  0.19114325865E+03  0.00000000000E+00 0.  1.
<mgrwt>
<rscale>  0 0.14132151E+04</rscale>
<asrwt>0</asrwt>
<pdfrwt beam="1">  1        2 0.33448905E+00 0.14132151E+04</pdfrwt>
<pdfrwt beam="2">  1       -1 0.35330350E-01 0.14132151E+04</pdfrwt>
<totfact> 0.45181954E+01</totfact>
</mgrwt>
</event>
<event>
12    6  0.1569942E-007  0.1575090E+04  0.7818608E-02  0.8835999E-01
          2   -1    0    0  501    0  0.00000000000E+00  0.00000000000E+00  0.94220119611E+03  0.94220119611E+03  0.00000000000E+00 0. -1.
         -1   -1    0    0    0  501 -0.00000000000E+00 -0.00000000000E+00 -0.65827469349E+03  0.65827469349E+03  0.00000000000E+00 0.  1.
         24    2    1    2    0    0  0.25777257960E+03  0.33674543906E+03  0.39990585441E+03  0.59151722990E+03  0.10061683435E+03 0.  0.
        254    2    1    2    0    0 -0.25777257960E+03 -0.33674543906E+03 -0.11597935180E+03  0.10089586597E+04  0.90813114329E+03 0.  0.
         23    2    4    4    0    0 -0.41642248839E+02 -0.36419271075E+03  0.33160573891E+03  0.50286850932E+03  0.92433566022E+02 0.  0.
         23    2    4    4    0    0 -0.21613033076E+03  0.27447271692E+02 -0.44758509071E+03  0.50609015038E+03  0.91264200468E+02 0.  0.
          2    1    3    3  502    0  0.23602831718E+03  0.33076049144E+03  0.34825532974E+03  0.53515758791E+03  0.00000000000E+00 0. -1.
         -1    1    3    3    0  502  0.21744262425E+02  0.59849476246E+01  0.51650524675E+02  0.56359641994E+02  0.00000000000E+00 0.  1.
         11    1    5    5    0    0  0.15883185384E+02 -0.24649459051E+03  0.21971425469E+03  0.33058465246E+03  0.00000000000E+00 0. -1.
        -11    1    5    5    0    0 -0.57525434223E+02 -0.11769812024E+03  0.11189148422E+03  0.17228385685E+03  0.00000000000E+00 0.  1.
          3    1    6    6  503    0 -0.13426816490E+03 -0.23936316149E+02 -0.30167126016E+03  0.33106862815E+03  0.00000000000E+00 0. -1.
         -3    1    6    6    0  503 -0.81862165861E+02  0.51383587841E+02 -0.14591383055E+03  0.17502152223E+03  0.00000000000E+00 0.  1.
<mgrwt>
<rscale>  0 0.15750901E+04</rscale>
<asrwt>0</asrwt>
<pdfrwt beam="1">  1        2 0.14495403E+00 0.15750901E+04</pdfrwt>
<pdfrwt beam="2">  1       -1 0.10127303E+00 0.15750901E+04</pdfrwt>
<totfact> 0.27893012E+01</totfact>
</mgrwt>
</event>
<event>
12    6  0.1569942E-007  0.1717016E+04  0.7818608E-02  0.8751719E-01
         -1   -1    0    0    0  501 -0.00000000000E+00  0.00000000000E+00  0.53539457828E+03  0.53539457828E+03  0.00000000000E+00 0.  1.
          2   -1    0    0  501    0  0.00000000000E+00 -0.00000000000E+00 -0.13766213958E+04  0.13766213958E+04  0.00000000000E+00 0. -1.
         24    2    1    2    0    0 -0.43173011833E+03 -0.37108837505E+03 -0.54462137943E+03  0.79142015861E+03  0.75072920180E+02 0.  0.
        254    2    1    2    0    0  0.43173011833E+03  0.37108837505E+03 -0.29660543806E+03  0.11205958154E+04  0.91851114230E+03 0.  0.
         23    2    4    4    0    0  0.28510682646E+03  0.30454718698E+03  0.28379238072E+03  0.51103601560E+03  0.81146794749E+02 0.  0.
         23    2    4    4    0    0  0.14662329187E+03  0.66541188078E+02 -0.58039781878E+03  0.60955979984E+03  0.93677116203E+02 0.  0.
          2    1    3    3  502    0 -0.25935457152E+03 -0.24665830567E+03 -0.29731910129E+03  0.46529964702E+03  0.00000000000E+00 0. -1.
         -1    1    3    3    0  502 -0.17237554681E+03 -0.12443006938E+03 -0.24730227814E+03  0.32612051158E+03  0.00000000000E+00 0.  1.
         11    1    5    5    0    0  0.53526266542E+02  0.94619806586E+02  0.10400626140E+03  0.15045022904E+03  0.00000000000E+00 0. -1.
        -11    1    5    5    0    0  0.23158055992E+03  0.20992738039E+03  0.17978611932E+03  0.36058578656E+03  0.00000000000E+00 0.  1.
          1    1    6    6  503    0  0.13580085938E+03  0.73197669869E+02 -0.40005674393E+03  0.42877169991E+03  0.00000000000E+00 0. -1.
         -1    1    6    6    0  503  0.10822432488E+02 -0.66564817914E+01 -0.18034107485E+03  0.18078809992E+03  0.00000000000E+00 0.  1.
<mgrwt>
<rscale>  0 0.17170156E+04</rscale>
<asrwt>0</asrwt>
<pdfrwt beam="1">  1        2 0.21178791E+00 0.17170156E+04</pdfrwt>
<pdfrwt beam="2">  1       -1 0.82368396E-01 0.17170156E+04</pdfrwt>
<totfact> 0.23689662E+01</totfact>
</mgrwt>
</event>
<event>
12    6  0.1569942E-007  0.2608999E+04  0.7818608E-02  0.8365151E-01
          2   -1    0    0  501    0  0.00000000000E+00  0.00000000000E+00  0.23383141119E+04  0.23383141119E+04  0.00000000000E+00 0. -1.
         -1   -1    0    0    0  501 -0.00000000000E+00 -0.00000000000E+00 -0.72775459768E+03  0.72775459768E+03  0.00000000000E+00 0.  1.
         24    2    1    2    0    0 -0.67723708320E+03 -0.53778101510E+02  0.17974930894E+04  0.19232694617E+04  0.80261227428E+02 0.  0.
        254    2    1    2    0    0  0.67723708320E+03  0.53778101510E+02 -0.18693357527E+03  0.11427992478E+04  0.89972429568E+03 0.  0.
         23    2    4    4    0    0  0.76839131484E+03  0.27322362083E+02 -0.41551218783E+03  0.87867543550E+03  0.90820804415E+02 0.  0.
         23    2    4    4    0    0 -0.91154231642E+02  0.26455739428E+02  0.22857861256E+03  0.26412381234E+03  0.92218252168E+02 0.  0.
          2    1    3    3  502    0 -0.44743141054E+03  0.34461868265E-01  0.12157839466E+04  0.12955020159E+04  0.00000000000E+00 0. -1.
         -1    1    3    3    0  502 -0.22980567266E+03 -0.53812563379E+02  0.58170914286E+03  0.62776744583E+03  0.00000000000E+00 0.  1.
         11    1    5    5    0    0  0.16862847602E+03 -0.29995879415E+02 -0.10456485642E+03  0.20067168436E+03  0.00000000000E+00 0.  1.
        -11    1    5    5    0    0  0.59976283883E+03  0.57318241497E+02 -0.31094733141E+03  0.67800375114E+03  0.00000000000E+00 0. -1.
          4    1    6    6  503    0  0.17035431905E+01 -0.20580282908E+02  0.12137069730E+02  0.23953257933E+02  0.00000000000E+00 0. -1.
         -4    1    6    6    0  503 -0.92857774833E+02  0.47036022336E+02  0.21644154283E+03  0.24017055441E+03  0.00000000000E+00 0.  1.
<mgrwt>
<rscale>  0 0.26089989E+04</rscale>
<asrwt>0</asrwt>
<pdfrwt beam="1">  1        2 0.35974063E+00 0.26089989E+04</pdfrwt>
<pdfrwt beam="2">  1       -1 0.11196225E+00 0.26089989E+04</pdfrwt>
<totfact> 0.31713185E+00</totfact>
</mgrwt>
</event>
<event>
12    6  0.1569942E-007  0.1672152E+04  0.7818608E-02  0.8777409E-01
         -1   -1    0    0    0  501 -0.00000000000E+00  0.00000000000E+00  0.43340713010E+03  0.43340713010E+03  0.00000000000E+00 0.  1.
          2   -1    0    0  501    0  0.00000000000E+00 -0.00000000000E+00 -0.16128546855E+04  0.16128546855E+04  0.00000000000E+00 0. -1.
         24    2    1    2    0    0  0.23546683940E+03  0.33037000340E+03  0.10626014775E+03  0.42664874312E+03  0.78415300817E+02 0.  0.
        254    2    1    2    0    0 -0.23546683940E+03 -0.33037000340E+03 -0.12857077032E+04  0.16196130725E+04  0.89750389137E+03 0.  0.
         23    2    4    4    0    0 -0.35828180068E+03 -0.11921625006E+03 -0.12972707528E+04  0.13542738225E+04  0.92562504641E+02 0.  0.
         23    2    4    4    0    0  0.12281496128E+03 -0.21115375334E+03  0.11563049597E+02  0.26533925003E+03  0.10296500001E+03 0.  0.
          2    1    3    3  502    0  0.94178283664E+02  0.10047989795E+03  0.69689432848E+02  0.15434499039E+03  0.00000000000E+00 0. -1.
         -1    1    3    3    0  502  0.14128855573E+03  0.22989010545E+03  0.36570714904E+02  0.27230375273E+03  0.00000000000E+00 0.  1.
         11    1    5    5    0    0 -0.40496718827E+02  0.13933987178E+02 -0.18319620919E+03  0.18813556627E+03  0.00000000000E+00 0.  1.
        -11    1    5    5    0    0 -0.31778508185E+03 -0.13315023724E+03 -0.11140745436E+04  0.11661382562E+04  0.00000000000E+00 0. -1.
          2    1    6    6  503    0  0.20311438478E+02 -0.75983577947E+02 -0.39725996687E+02  0.88114774377E+02  0.00000000000E+00 0.  1.
         -2    1    6    6    0  503  0.10250352280E+03 -0.13517017539E+03  0.51289046284E+02  0.17722447566E+03  0.00000000000E+00 0. -1.
<mgrwt>
<rscale>  0 0.16721516E+04</rscale>
<asrwt>0</asrwt>
<pdfrwt beam="1">  1        2 0.24813149E+00 0.16721516E+04</pdfrwt>
<pdfrwt beam="2">  1       -1 0.66678020E-01 0.16721516E+04</pdfrwt>
<totfact> 0.27156728E+01</totfact>
</mgrwt>
</event>
<event>
12    6  0.1569942E-007  0.1777297E+04  0.7818608E-02  0.8718467E-01
         -1   -1    0    0    0  501 -0.00000000000E+00  0.00000000000E+00  0.72288631567E+03  0.72288631567E+03  0.00000000000E+00 0.  1.
          2   -1    0    0  501    0  0.00000000000E+00 -0.00000000000E+00 -0.10924212779E+04  0.10924212779E+04  0.00000000000E+00 0. -1.
         24    2    1    2    0    0  0.39741656065E+03 -0.23688044185E+02 -0.67749315219E+03  0.78988449746E+03  0.80121794461E+02 0.  0.
        254    2    1    2    0    0 -0.39741656065E+03  0.23688044185E+02  0.30795818996E+03  0.10254230961E+04  0.89339422046E+03 0.  0.
         23    2    4    4    0    0 -0.81443356372E+02 -0.35826958123E+03 -0.82375478126E+02  0.38793587882E+03  0.93372445324E+02 0.  0.
         23    2    4    4    0    0 -0.31597320427E+03  0.38195762542E+03  0.39033366809E+03  0.63748721729E+03  0.91098223563E+02 0.  0.
          4    1    3    3  502    0  0.39764462193E+03 -0.15794295043E+02 -0.66775920059E+03  0.77735002096E+03  0.00000000000E+00 0. -1.
         -3    1    3    3    0  502 -0.22806128292E+00 -0.78937491420E+01 -0.97339515928E+01  0.12534476498E+02  0.00000000000E+00 0.  1.
         11    1    5    5    0    0 -0.19344550784E+02 -0.17494049371E+03  0.38249448116E+01  0.17604834048E+03  0.00000000000E+00 0. -1.
        -11    1    5    5    0    0 -0.62098805588E+02 -0.18332908752E+03 -0.86200422938E+02  0.21188753834E+03  0.00000000000E+00 0.  1.
          2    1    6    6  503    0 -0.14438199355E+03  0.21266576922E+03  0.15260119543E+03  0.29893145420E+03  0.00000000000E+00 0. -1.
         -2    1    6    6    0  503 -0.17159121072E+03  0.16929185619E+03  0.23773247265E+03  0.33855576309E+03  0.00000000000E+00 0.  1.
<mgrwt>
<rscale>  0 0.17772973E+04</rscale>
<asrwt>0</asrwt>
<pdfrwt beam="1">  1        2 0.16806481E+00 0.17772973E+04</pdfrwt>
<pdfrwt beam="2">  1       -1 0.11121328E+00 0.17772973E+04</pdfrwt>
<totfact> 0.17667399E+01</totfact>
</mgrwt>
</event>
<event>
12    6  0.1569942E-007  0.2108295E+04  0.7818608E-02  0.8557598E-01
         -1   -1    0    0    0  501 -0.00000000000E+00  0.00000000000E+00  0.56461436594E+03  0.56461436594E+03  0.00000000000E+00 0.  1.
          2   -1    0    0  501    0  0.00000000000E+00 -0.00000000000E+00 -0.19681163460E+04  0.19681163460E+04  0.00000000000E+00 0. -1.
         24    2    1    2    0    0  0.62693485064E+03  0.38345241562E+03 -0.48554361759E+02  0.74070552196E+03  0.78765996580E+02 0.  0.
        254    2    1    2    0    0 -0.62693485064E+03 -0.38345241562E+03 -0.13549476183E+04  0.17920251900E+04  0.91399571731E+03 0.  0.
         23    2    4    4    0    0 -0.74360593438E+03 -0.48983185220E+03 -0.13365137717E+04  0.16085799019E+04  0.91516172273E+02 0.  0.
         23    2    4    4    0    0  0.11667108374E+03  0.10637943658E+03 -0.18433846668E+02  0.18344528815E+03  0.91562223284E+02 0.  0.
          4    1    3    3  502    0  0.81054989029E+02  0.24791048994E+02 -0.19049821534E+02  0.86875790973E+02  0.00000000000E+00 0. -1.
         -3    1    3    3    0  502  0.54587986161E+03  0.35866136663E+03 -0.29504540226E+02  0.65382973099E+03  0.00000000000E+00 0.  1.
         11    1    5    5    0    0 -0.18964617768E+03 -0.10812407703E+03 -0.39674256041E+03  0.45283677852E+03  0.00000000000E+00 0. -1.
        -11    1    5    5    0    0 -0.55395975670E+03 -0.38170777517E+03 -0.93977121126E+03  0.11557431234E+04  0.00000000000E+00 0.  1.
          4    1    6    6  503    0  0.75358834759E+02  0.38899577982E+02 -0.49783990583E+02  0.98339091219E+02  0.00000000000E+00 0.  1.
         -4    1    6    6    0  503  0.41312248979E+02  0.67479858599E+02  0.31350143914E+02  0.85106196929E+02  0.00000000000E+00 0. -1.
<mgrwt>
<rscale>  0 0.21082948E+04</rscale>
<asrwt>0</asrwt>
<pdfrwt beam="1">  1        2 0.30278713E+00 0.21082948E+04</pdfrwt>
<pdfrwt beam="2">  1       -1 0.86863750E-01 0.21082948E+04</pdfrwt>
<totfact> 0.95280223E+00</totfact>
</mgrwt>
</event>
<event>
12    6  0.1569942E-007  0.1752847E+04  0.7818608E-02  0.8731785E-01
          2   -1    0    0  501    0  0.00000000000E+00  0.00000000000E+00  0.97256244758E+03  0.97256244758E+03  0.00000000000E+00 0. -1.
         -1   -1    0    0    0  501 -0.00000000000E+00 -0.00000000000E+00 -0.78978809874E+03  0.78978809874E+03  0.00000000000E+00 0.  1.
         24    2    1    2    0    0  0.38362296153E+03 -0.23677973187E+03  0.52717335372E+03  0.69824724069E+03  0.80039029339E+02 0.  0.
        254    2    1    2    0    0 -0.38362296153E+03  0.23677973187E+03 -0.34439900487E+03  0.10641033056E+04  0.90026326841E+03 0.  0.
         23    2    4    4    0    0 -0.34055602078E+03  0.55888321683E+03 -0.17167269621E+03  0.68256291530E+03  0.89954240427E+02 0.  0.
         23    2    4    4    0    0 -0.43066940747E+02 -0.32210348495E+03 -0.17272630867E+03  0.38154039033E+03  0.10066417111E+03 0.  0.
          4    1    3    3  502    0  0.32765457835E+03 -0.17287030793E+03  0.39888573350E+03  0.54438175435E+03  0.00000000000E+00 0. -1.
         -3    1    3    3    0  502  0.55968383174E+02 -0.63909423949E+02  0.12828762022E+03  0.15386548633E+03  0.00000000000E+00 0.  1.
         11    1    5    5    0    0 -0.99523580679E+02  0.14828777108E+03 -0.68325257995E+01  0.17872014316E+03  0.00000000000E+00 0. -1.
        -11    1    5    5    0    0 -0.24103244010E+03  0.41059544575E+03 -0.16484017041E+03  0.50384277214E+03  0.00000000000E+00 0.  1.
          2    1    6    6  503    0 -0.26781780638E+02 -0.31292105157E+02  0.31224359940E+01  0.41306285549E+02  0.00000000000E+00 0. -1.
         -2    1    6    6    0  503 -0.16285160109E+02 -0.29081137980E+03 -0.17584874466E+03  0.34023410478E+03  0.00000000000E+00 0.  1.
<mgrwt>
<rscale>  0 0.17528471E+04</rscale>
<asrwt>0</asrwt>
<pdfrwt beam="1">  1        2 0.14962499E+00 0.17528471E+04</pdfrwt>
<pdfrwt beam="2">  1       -1 0.12150586E+00 0.17528471E+04</pdfrwt>
<totfact> 0.17036099E+01</totfact>
</mgrwt>
</event>
<event>
12    6  0.1569942E-007  0.3619041E+04  0.7818608E-02  0.8086144E-01
          2   -1    0    0  501    0  0.00000000000E+00  0.00000000000E+00  0.25757775095E+04  0.25757775095E+04  0.00000000000E+00 0. -1.
         -1   -1    0    0    0  501 -0.00000000000E+00 -0.00000000000E+00 -0.12712139540E+04  0.12712139540E+04  0.00000000000E+00 0.  1.
         24    2    1    2    0    0 -0.77342661077E+03  0.24686863052E+02  0.22237812277E+04  0.23559167559E+04  0.79640747283E+02 0.  0.
        254    2    1    2    0    0  0.77342661077E+03 -0.24686863052E+02 -0.91921767222E+03  0.14910747077E+04  0.88291816804E+03 0.  0.
         23    2    4    4    0    0  0.73419477574E+02 -0.32615343970E+03 -0.52175593642E+03  0.62648608521E+03  0.92136159376E+02 0.  0.
         23    2    4    4    0    0  0.70000713320E+03  0.30146657665E+03 -0.39746173581E+03  0.86458862245E+03  0.92981564183E+02 0.  0.
          4    1    3    3  502    0 -0.64292415514E+03  0.46174931727E+02  0.18895976299E+04  0.19965126587E+04  0.00000000000E+00 0. -1.
         -3    1    3    3    0  502 -0.13050245564E+03 -0.21488068675E+02  0.33418359782E+03  0.35940409718E+03  0.00000000000E+00 0.  1.
         11    1    5    5    0    0  0.25452736065E+02 -0.13327351616E+02 -0.28789127585E+02  0.40672766582E+02  0.00000000000E+00 0. -1.
        -11    1    5    5    0    0  0.47966741509E+02 -0.31282608808E+03 -0.49296680883E+03  0.58581331863E+03  0.00000000000E+00 0.  1.
          4    1    6    6  503    0  0.27801282269E+03  0.16970125207E+03 -0.17100646858E+03  0.36787614333E+03  0.00000000000E+00 0. -1.
         -4    1    6    6    0  503  0.42199431051E+03  0.13176532458E+03 -0.22645526722E+03  0.49671247913E+03  0.00000000000E+00 0.  1.
<mgrwt>
<rscale>  0 0.36190409E+04</rscale>
<asrwt>0</asrwt>
<pdfrwt beam="1">  1        2 0.39627346E+00 0.36190409E+04</pdfrwt>
<pdfrwt beam="2">  1       -1 0.19557138E+00 0.36190409E+04</pdfrwt>
<totfact> 0.46959525E-01</totfact>
</mgrwt>
</event>
<event>
12    6  0.1569942E-007  0.3333864E+04  0.7818608E-02  0.8154332E-01
         -1   -1    0    0    0  501 -0.00000000000E+00  0.00000000000E+00  0.13172485279E+04  0.13172485279E+04  0.00000000000E+00 0.  1.
          2   -1    0    0  501    0  0.00000000000E+00 -0.00000000000E+00 -0.21094443194E+04  0.21094443194E+04  0.00000000000E+00 0. -1.
         24    2    1    2    0    0 -0.16822266952E+03 -0.14093374684E+04 -0.99843569641E+03  0.17371205497E+04  0.78632042563E+02 0.  0.
        254    2    1    2    0    0  0.16822266952E+03  0.14093374684E+04  0.20623990489E+03  0.16895722976E+04  0.89307820717E+03 0.  0.
         23    2    4    4    0    0  0.25643329537E+03  0.47007101171E+03  0.45626144806E+03  0.70921728130E+03  0.89943605021E+02 0.  0.
         23    2    4    4    0    0 -0.88210625854E+02  0.93926645665E+03 -0.25002154316E+03  0.98035501628E+03  0.92642294919E+02 0.  0.
          2    1    3    3  502    0 -0.11038997661E+03 -0.77635482015E+03 -0.50865170596E+03  0.93468674522E+03  0.00000000000E+00 0. -1.
         -1    1    3    3    0  502 -0.57832692905E+02 -0.63298264821E+03 -0.48978399045E+03  0.80243380450E+03  0.00000000000E+00 0.  1.
         11    1    5    5    0    0  0.96992304886E+02  0.27052907321E+03  0.25013779361E+03  0.38100184048E+03  0.00000000000E+00 0. -1.
        -11    1    5    5    0    0  0.15944099049E+03  0.19954193850E+03  0.20612365444E+03  0.32821544081E+03  0.00000000000E+00 0.  1.
          2    1    6    6  503    0  0.15804429629E+02  0.28539524412E+03 -0.77670018013E+02  0.29619732790E+03  0.00000000000E+00 0. -1.
         -2    1    6    6    0  503 -0.10401505548E+03  0.65387121253E+03 -0.17235152515E+03  0.68415768838E+03  0.00000000000E+00 0.  1.
<mgrwt>
<rscale>  0 0.33338641E+04</rscale>
<asrwt>0</asrwt>
<pdfrwt beam="1">  1        2 0.32452990E+00 0.33338641E+04</pdfrwt>
<pdfrwt beam="2">  1       -1 0.20265362E+00 0.33338641E+04</pdfrwt>
<totfact> 0.79341251E-01</totfact>
</mgrwt>
</event>
<event>
12    6  0.1569942E-007  0.1193630E+04  0.7818608E-02  0.9118451E-01
          2   -1    0    0  501    0  0.00000000000E+00  0.00000000000E+00  0.31927706595E+04  0.31927706595E+04  0.00000000000E+00 0. -1.
         -1   -1    0    0    0  501 -0.00000000000E+00 -0.00000000000E+00 -0.11156082924E+03  0.11156082924E+03  0.00000000000E+00 0.  1.
         24    2    1    2    0    0  0.18438128513E+03  0.11976003746E+02  0.30214618141E+03  0.36672016960E+03  0.95139291948E+02 0.  0.
        254    2    1    2    0    0 -0.18438128513E+03 -0.11976003746E+02  0.27790636488E+04  0.29376113191E+04  0.93393019819E+03 0.  0.
         23    2    4    4    0    0  0.57167818521E+02  0.25166330496E+03  0.21704253241E+03  0.34912644499E+03  0.90439124160E+02 0.  0.
         23    2    4    4    0    0 -0.24154910365E+03 -0.26363930870E+03  0.25620211164E+04  0.25884848741E+04  0.91924360937E+02 0.  0.
          2    1    3    3  502    0  0.32084755365E+02  0.33776679024E+02  0.11738197827E+03  0.12628865505E+03  0.00000000000E+00 0. -1.
         -1    1    3    3    0  502  0.15229652977E+03 -0.21800675278E+02  0.18476420315E+03  0.24043151455E+03  0.00000000000E+00 0.  1.
         11    1    5    5    0    0  0.72246840013E+01  0.17733783637E+03  0.17823423282E+03  0.25153199800E+03  0.00000000000E+00 0.  1.
        -11    1    5    5    0    0  0.49943134519E+02  0.74325468590E+02  0.38808299587E+02  0.97594446992E+02  0.00000000000E+00 0. -1.
          3    1    6    6  503    0 -0.18278320916E+03 -0.13878640347E+03  0.17171430790E+04  0.17324121107E+04  0.00000000000E+00 0. -1.
         -3    1    6    6    0  503 -0.58765894497E+02 -0.12485290523E+03  0.84487803737E+03  0.85607276346E+03  0.00000000000E+00 0.  1.
<mgrwt>
<rscale>  0 0.11936300E+04</rscale>
<asrwt>0</asrwt>
<pdfrwt beam="1">  1        2 0.49119542E+00 0.11936300E+04</pdfrwt>
<pdfrwt beam="2">  1       -1 0.17163207E-01 0.11936300E+04</pdfrwt>
<totfact> 0.39619576E+01</totfact>
</mgrwt>
</event>
<event>
12    6  0.1569942E-007  0.1911915E+04  0.7818608E-02  0.8648948E-01
          2   -1    0    0  501    0  0.00000000000E+00  0.00000000000E+00  0.27271833759E+04  0.27271833759E+04  0.00000000000E+00 0. -1.
         -1   -1    0    0    0  501 -0.00000000000E+00 -0.00000000000E+00 -0.33509106087E+03  0.33509106087E+03  0.00000000000E+00 0.  1.
         24    2    1    2    0    0 -0.49134262812E+03 -0.10035726388E+03  0.48435053190E+02  0.50996510985E+03  0.78925916350E+02 0.  0.
        254    2    1    2    0    0  0.49134262812E+03  0.10035726388E+03  0.23436572618E+04  0.25523093269E+04  0.87753312228E+03 0.  0.
         23    2    4    4    0    0  0.63346985801E+03 -0.18956264621E+02  0.22209109479E+04  0.23113596629E+04  0.91074978946E+02 0.  0.
         23    2    4    4    0    0 -0.14212722989E+03  0.11931352850E+03  0.12274631397E+03  0.24094966406E+03  0.92489001807E+02 0.  0.
          4    1    3    3  502    0 -0.35280915874E+03 -0.99486523110E+02  0.12209637490E+02  0.36677097216E+03  0.00000000000E+00 0. -1.
         -3    1    3    3    0  502 -0.13853346937E+03 -0.87074076863E+00  0.36225415699E+02  0.14319413769E+03  0.00000000000E+00 0.  1.
         11    1    5    5    0    0  0.26564135302E+03 -0.54855459205E+01  0.77266383721E+03  0.81707088125E+03  0.00000000000E+00 0. -1.
        -11    1    5    5    0    0  0.36782850498E+03 -0.13470718700E+02  0.14482471107E+04  0.14942887816E+04  0.00000000000E+00 0.  1.
          4    1    6    6  503    0  0.29081580689E+01 -0.25421646943E+01  0.29610122836E+02  0.29861000637E+02  0.00000000000E+00 0. -1.
         -4    1    6    6    0  503 -0.14503538796E+03  0.12185569319E+03  0.93136191136E+02  0.21108866342E+03  0.00000000000E+00 0.  1.
<mgrwt>
<rscale>  0 0.19119150E+04</rscale>
<asrwt>0</asrwt>
<pdfrwt beam="1">  1        2 0.41956666E+00 0.19119150E+04</pdfrwt>
<pdfrwt beam="2">  1       -1 0.51552473E-01 0.19119150E+04</pdfrwt>
<totfact> 0.10332195E+01</totfact>
</mgrwt>
</event>
<event>
12    6  0.1569942E-007  0.1704442E+04  0.7818608E-02  0.8758835E-01
          2   -1    0    0  501    0  0.00000000000E+00  0.00000000000E+00  0.27721512101E+04  0.27721512101E+04  0.00000000000E+00 0. -1.
         -1   -1    0    0    0  501 -0.00000000000E+00 -0.00000000000E+00 -0.26199175389E+03  0.26199175389E+03  0.00000000000E+00 0.  1.
         24    2    1    2    0    0 -0.45553447987E+02 -0.43825555307E+03  0.16591507753E+04  0.17185095842E+04  0.79692216449E+02 0.  0.
        254    2    1    2    0    0  0.45553447987E+02  0.43825555307E+03  0.85100868096E+03  0.13156333798E+04  0.90140577359E+03 0.  0.
         23    2    4    4    0    0 -0.30645902823E+03  0.17447533813E+03  0.77897929154E+03  0.86029961322E+03  0.94593383800E+02 0.  0.
         23    2    4    4    0    0  0.35201247622E+03  0.26378021494E+03  0.72029389426E+02  0.45533376663E+03  0.92993660460E+02 0.  0.
          4    1    3    3  502    0 -0.34189181664E+02 -0.37471923429E+03  0.15063791326E+04  0.15526627116E+04  0.00000000000E+00 0. -1.
         -3    1    3    3    0  502 -0.11364266323E+02 -0.63536318775E+02  0.15277164265E+03  0.16584687260E+03  0.00000000000E+00 0.  1.
         11    1    5    5    0    0 -0.12700671412E+03  0.46587919724E+02  0.20642824729E+03  0.24680713315E+03  0.00000000000E+00 0. -1.
        -11    1    5    5    0    0 -0.17945231411E+03  0.12788741841E+03  0.57255104425E+03  0.61349248006E+03  0.00000000000E+00 0.  1.
          1    1    6    6  503    0 -0.51502186334E+01  0.95157304412E+01  0.45893765988E+01  0.11753138107E+02  0.00000000000E+00 0. -1.
         -1    1    6    6    0  503  0.35716269485E+03  0.25426448450E+03  0.67440012827E+02  0.44358062852E+03  0.00000000000E+00 0.  1.
<mgrwt>
<rscale>  0 0.17044421E+04</rscale>
<asrwt>0</asrwt>
<pdfrwt beam="1">  1        2 0.42648478E+00 0.17044421E+04</pdfrwt>
<pdfrwt beam="2">  1       -1 0.40306426E-01 0.17044421E+04</pdfrwt>
<totfact> 0.15686278E+01</totfact>
</mgrwt>
</event>
<event>
12    6  0.1569942E-007  0.2046791E+04  0.7818608E-02  0.8585052E-01
         -1   -1    0    0    0  501 -0.00000000000E+00  0.00000000000E+00  0.37908126217E+03  0.37908126217E+03  0.00000000000E+00 0.  1.
          2   -1    0    0  501    0  0.00000000000E+00 -0.00000000000E+00 -0.27628331274E+04  0.27628331274E+04  0.00000000000E+00 0. -1.
         24    2    1    2    0    0  0.22325025743E+02  0.68639083337E+03 -0.27003720277E+03  0.74230654666E+03  0.80424718998E+02 0.  0.
        254    2    1    2    0    0 -0.22325025743E+02 -0.68639083337E+03 -0.21137146625E+04  0.23996078429E+04  0.90481895568E+03 0.  0.
         23    2    4    4    0    0  0.24230887812E+03 -0.41375170508E+02 -0.12740544511E+03  0.29253109474E+03  0.94428792195E+02 0.  0.
         23    2    4    4    0    0 -0.26463390386E+03 -0.64501566286E+03 -0.19863092174E+04  0.21070767482E+04  0.90949476972E+02 0.  0.
          2    1    3    3  502    0 -0.21203834123E+02  0.41171980918E+03 -0.18154418327E+03  0.45046763961E+03  0.00000000000E+00 0. -1.
         -1    1    3    3    0  502  0.43528859866E+02  0.27467102419E+03 -0.88493019506E+02  0.29183890706E+03  0.00000000000E+00 0.  1.
         11    1    5    5    0    0  0.24328269065E+03 -0.55170121792E+02 -0.12183609700E+03  0.27762248548E+03  0.00000000000E+00 0. -1.
        -11    1    5    5    0    0 -0.97381253355E+00  0.13794951284E+02 -0.55693481087E+01  0.14908609262E+02  0.00000000000E+00 0.  1.
          1    1    6    6  503    0 -0.16109908917E+03 -0.43628769968E+03 -0.14373048927E+04  0.15106770760E+04  0.00000000000E+00 0. -1.
         -1    1    6    6    0  503 -0.10353481469E+03 -0.20872796319E+03 -0.54900432468E+03  0.59639967219E+03  0.00000000000E+00 0.  1.
<mgrwt>
<rscale>  0 0.20467909E+04</rscale>
<asrwt>0</asrwt>
<pdfrwt beam="1">  1        2 0.42505125E+00 0.20467909E+04</pdfrwt>
<pdfrwt beam="2">  1       -1 0.58320194E-01 0.20467909E+04</pdfrwt>
<totfact> 0.76507836E+00</totfact>
</mgrwt>
</event>
<event>
12    6  0.1569942E-007  0.1398059E+04  0.7818608E-02  0.8955225E-01
         -1   -1    0    0    0  501 -0.00000000000E+00  0.00000000000E+00  0.10129318996E+04  0.10129318996E+04  0.00000000000E+00 0.  1.
          2   -1    0    0  501    0  0.00000000000E+00 -0.00000000000E+00 -0.48240405791E+03  0.48240405791E+03  0.00000000000E+00 0. -1.
         24    2    1    2    0    0  0.17106492339E+03  0.33528839809E+03  0.10440809520E+01  0.38471647797E+03  0.79524589958E+02 0.  0.
        254    2    1    2    0    0 -0.17106492339E+03 -0.33528839809E+03  0.52948376076E+03  0.11106194796E+04  0.90080023179E+03 0.  0.
         23    2    4    4    0    0  0.35072895562E+02  0.21201691763E+03  0.45849788095E+03  0.51440983375E+03  0.90641540487E+02 0.  0.
         23    2    4    4    0    0 -0.20613781895E+03 -0.54730531571E+03  0.70985879818E+02  0.59620964583E+03  0.91602607144E+02 0.  0.
          2    1    3    3  502    0  0.12574791392E+03  0.28076585513E+03 -0.26227650567E+02  0.30875539334E+03  0.00000000000E+00 0. -1.
         -1    1    3    3    0  502  0.45317009467E+02  0.54522542959E+02  0.27271731519E+02  0.75961084627E+02  0.00000000000E+00 0.  1.
         11    1    5    5    0    0  0.56579371782E+02  0.91185442453E+02  0.25659536306E+03  0.27813160656E+03  0.00000000000E+00 0. -1.
        -11    1    5    5    0    0 -0.21506476221E+02  0.12083147517E+03  0.20190251789E+03  0.23627822718E+03  0.00000000000E+00 0.  1.
          4    1    6    6  503    0 -0.19909307364E+03 -0.48693090149E+03  0.38951105233E+02  0.52750065724E+03  0.00000000000E+00 0. -1.
         -4    1    6    6    0  503 -0.70447453131E+01 -0.60374414226E+02  0.32034774585E+02  0.68708988585E+02  0.00000000000E+00 0.  1.
<mgrwt>
<rscale>  0 0.13980593E+04</rscale>
<asrwt>0</asrwt>
<pdfrwt beam="1">  1        2 0.74216009E-01 0.13980593E+04</pdfrwt>
<pdfrwt beam="2">  1       -1 0.15583568E+00 0.13980593E+04</pdfrwt>
<totfact> 0.22470883E+01</totfact>
</mgrwt>
</event>
<event>
12    6  0.1569942E-007  0.1899006E+04  0.7818608E-02  0.8655351E-01
          2   -1    0    0  501    0  0.00000000000E+00  0.00000000000E+00  0.19176604945E+04  0.19176604945E+04  0.00000000000E+00 0. -1.
         -1   -1    0    0    0  501 -0.00000000000E+00 -0.00000000000E+00 -0.47013319341E+03  0.47013319341E+03  0.00000000000E+00 0.  1.
         24    2    1    2    0    0 -0.29581948602E+03  0.22803332268E+03 -0.23104301878E+03  0.44548029838E+03  0.74588572529E+02 0.  0.
        254    2    1    2    0    0  0.29581948602E+03 -0.22803332268E+03  0.16785703198E+04  0.19423133895E+04  0.90303633358E+03 0.  0.
         23    2    4    4    0    0  0.12360522249E+02  0.29987730581E+03  0.29461701326E+03  0.43127058653E+03  0.95477501267E+02 0.  0.
         23    2    4    4    0    0  0.28345896378E+03 -0.52791062849E+03  0.13839533066E+04  0.15110428030E+04  0.94260181319E+02 0.  0.
          4    1    3    3  502    0 -0.48977037635E+02  0.72061018796E+02 -0.35629494768E+02  0.94132892991E+02  0.00000000000E+00 0. -1.
         -3    1    3    3    0  502 -0.24684244839E+03  0.15597230389E+03 -0.19541352401E+03  0.35134740539E+03  0.00000000000E+00 0.  1.
         11    1    5    5    0    0  0.13216182665E+02  0.19213390859E+02  0.63655582519E+02  0.67792736029E+02  0.00000000000E+00 0.  1.
        -11    1    5    5    0    0 -0.85566041545E+00  0.28066391495E+03  0.23096143075E+03  0.36347785050E+03  0.00000000000E+00 0. -1.
          2    1    6    6  503    0  0.27165888695E+03 -0.50332588187E+03  0.13574025113E+04  0.14729823733E+04  0.00000000000E+00 0. -1.
         -2    1    6    6    0  503  0.11800076820E+02 -0.24584746623E+02  0.26550795238E+02  0.38060429678E+02  0.00000000000E+00 0.  1.
<mgrwt>
<rscale>  0 0.18990059E+04</rscale>
<asrwt>0</asrwt>
<pdfrwt beam="1">  1        2 0.29502469E+00 0.18990059E+04</pdfrwt>
<pdfrwt beam="2">  1       -1 0.72328185E-01 0.18990059E+04</pdfrwt>
<totfact> 0.15268803E+01</totfact>
</mgrwt>
</event>
<event>
12    6  0.1569942E-007  0.1608390E+04  0.7818608E-02  0.8815411E-01
         -1   -1    0    0    0  501 -0.00000000000E+00  0.00000000000E+00  0.45371529999E+03  0.45371529999E+03  0.00000000000E+00 0.  1.
          2   -1    0    0  501    0  0.00000000000E+00 -0.00000000000E+00 -0.14254075995E+04  0.14254075995E+04  0.00000000000E+00 0. -1.
         24    2    1    2    0    0 -0.37664068942E+03  0.14030795340E+03  0.11262665306E+03  0.42466522906E+03  0.78174567987E+02 0.  0.
        254    2    1    2    0    0  0.37664068942E+03 -0.14030795340E+03 -0.10843189526E+04  0.14544576704E+04  0.88213093894E+03 0.  0.
         23    2    4    4    0    0  0.28121210520E+03 -0.26586675545E+01  0.53780474462E+02  0.30114511745E+03  0.93320553516E+02 0.  0.
         23    2    4    4    0    0  0.95428584222E+02 -0.13764928584E+03 -0.11380994270E+04  0.11533125530E+04  0.82496051151E+02 0.  0.
          4    1    3    3  502    0 -0.13320266142E+03  0.81903950287E+02  0.19593027631E+02  0.15759153789E+03  0.00000000000E+00 0. -1.
         -3    1    3    3    0  502 -0.24343802800E+03  0.58404003110E+02  0.93033625433E+02  0.26707369118E+03  0.00000000000E+00 0.  1.
         11    1    5    5    0    0  0.22737426356E+03  0.28383087602E+02  0.18991806720E+02  0.22992464877E+03  0.00000000000E+00 0. -1.
        -11    1    5    5    0    0  0.53837841638E+02 -0.31041755156E+02  0.34788667742E+02  0.71220468678E+02  0.00000000000E+00 0.  1.
          4    1    6    6  503    0  0.26575519496E+02 -0.10836578507E+03 -0.71338271099E+03  0.72205560309E+03  0.00000000000E+00 0. -1.
         -4    1    6    6    0  503  0.68853064727E+02 -0.29283500776E+02 -0.42471671604E+03  0.43125694989E+03  0.00000000000E+00 0.  1.
<mgrwt>
<rscale>  0 0.16083896E+04</rscale>
<asrwt>0</asrwt>
<pdfrwt beam="1">  1        2 0.21929348E+00 0.16083896E+04</pdfrwt>
<pdfrwt beam="2">  1       -1 0.69802354E-01 0.16083896E+04</pdfrwt>
<totfact> 0.31718909E+01</totfact>
</mgrwt>
</event>
<event>
12    6  0.1569942E-007  0.2032116E+04  0.7818608E-02  0.8591751E-01
         -1   -1    0    0    0  501 -0.00000000000E+00  0.00000000000E+00  0.93840467580E+03  0.93840467580E+03  0.00000000000E+00 0.  1.
          2   -1    0    0  501    0  0.00000000000E+00 -0.00000000000E+00 -0.11001367876E+04  0.11001367876E+04  0.00000000000E+00 0. -1.
         24    2    1    2    0    0  0.81350749101E+03 -0.84080974681E+02 -0.52350183072E+02  0.82340026413E+03  0.79896214334E+02 0.  0.
        254    2    1    2    0    0 -0.81350749101E+03  0.84080974681E+02 -0.10938192871E+03  0.12151411993E+04  0.89204242028E+03 0.  0.
         23    2    4    4    0    0 -0.23397580791E+03  0.34794123546E+03 -0.32406777437E+03  0.53702228507E+03  0.86978332111E+02 0.  0.
         23    2    4    4    0    0 -0.57953168310E+03 -0.26386026078E+03  0.21468584566E+03  0.67811891419E+03  0.90972746056E+02 0.  0.
          2    1    3    3  502    0  0.13588478961E+02  0.45408784225E+01 -0.10003312066E+02  0.17473768615E+02  0.00000000000E+00 0. -1.
         -1    1    3    3    0  502  0.79991901205E+03 -0.88621853103E+02 -0.42346871006E+02  0.80592649551E+03  0.00000000000E+00 0.  1.
         11    1    5    5    0    0 -0.46747111249E+02  0.12550414538E+03 -0.71090805776E+02  0.15162613753E+03  0.00000000000E+00 0. -1.
        -11    1    5    5    0    0 -0.18722869666E+03  0.22243709008E+03 -0.25297696859E+03  0.38539614753E+03  0.00000000000E+00 0.  1.
          3    1    6    6  503    0 -0.94700817143E+02 -0.32800086122E+02  0.13635073605E+01  0.10022948453E+03  0.00000000000E+00 0. -1.
         -3    1    6    6    0  503 -0.48483086596E+03 -0.23106017466E+03  0.21332233830E+03  0.57788942966E+03  0.00000000000E+00 0.  1.
<mgrwt>
<rscale>  0 0.20321157E+04</rscale>
<asrwt>0</asrwt>
<pdfrwt beam="1">  1        2 0.16925181E+00 0.20321157E+04</pdfrwt>
<pdfrwt beam="2">  1       -1 0.14436995E+00 0.20321157E+04</pdfrwt>
<totfact> 0.88977639E+00</totfact>
</mgrwt>
</event>
<event>
12    6  0.1569942E-007  0.2002306E+04  0.7818608E-02  0.8605543E-01
          2   -1    0    0  501    0  0.00000000000E+00  0.00000000000E+00  0.23117306149E+04  0.23117306149E+04  0.00000000000E+00 0. -1.
         -1   -1    0    0    0  501 -0.00000000000E+00 -0.00000000000E+00 -0.43357449701E+03  0.43357449701E+03  0.00000000000E+00 0.  1.
         24    2    1    2    0    0 -0.31410477555E+03  0.72369568740E+03  0.91081811290E+03  0.12076149970E+04  0.79668615540E+02 0.  0.
        254    2    1    2    0    0  0.31410477555E+03 -0.72369568740E+03  0.96733800494E+03  0.15376901148E+04  0.89797038672E+03 0.  0.
         23    2    4    4    0    0 -0.12471899654E+03 -0.30835310872E+03  0.84732590782E+03  0.91491653248E+03  0.92057588473E+02 0.  0.
         23    2    4    4    0    0  0.43882377209E+03 -0.41534257868E+03  0.12001209713E+03  0.62277358234E+03  0.91478253095E+02 0.  0.
          2    1    3    3  502    0 -0.11944706318E+03  0.29766828459E+03  0.42904176288E+03  0.53567792828E+03  0.00000000000E+00 0. -1.
         -1    1    3    3    0  502 -0.19465771238E+03  0.42602740282E+03  0.48177635002E+03  0.67193706876E+03  0.00000000000E+00 0.  1.
         11    1    5    5    0    0 -0.10616162672E+03 -0.29395712050E+03  0.82615394760E+03  0.88329577426E+03  0.00000000000E+00 0. -1.
        -11    1    5    5    0    0 -0.18557369817E+02 -0.14395988221E+02  0.21171960213E+02  0.31620758223E+02  0.00000000000E+00 0.  1.
          2    1    6    6  503    0  0.36739984226E+03 -0.33663137536E+03  0.63304706147E+02  0.50230549747E+03  0.00000000000E+00 0. -1.
         -2    1    6    6    0  503  0.71423929826E+02 -0.78711203320E+02  0.56707390979E+02  0.12046808487E+03  0.00000000000E+00 0.  1.
<mgrwt>
<rscale>  0 0.20023061E+04</rscale>
<asrwt>0</asrwt>
<pdfrwt beam="1">  1        2 0.35565086E+00 0.20023061E+04</pdfrwt>
<pdfrwt beam="2">  1       -1 0.66703770E-01 0.20023061E+04</pdfrwt>
<totfact> 0.10752152E+01</totfact>
</mgrwt>
</event>
<event>
12    6  0.1569942E-007  0.2160180E+04  0.7818608E-02  0.8535187E-01
          2   -1    0    0  501    0  0.00000000000E+00  0.00000000000E+00  0.18780737201E+04  0.18780737201E+04  0.00000000000E+00 0. -1.
         -1   -1    0    0    0  501 -0.00000000000E+00 -0.00000000000E+00 -0.62116542114E+03  0.62116542114E+03  0.00000000000E+00 0.  1.
         24    2    1    2    0    0 -0.87427591724E+02 -0.56274960292E+03  0.13124266785E+04  0.14328844850E+04  0.79771307749E+02 0.  0.
        254    2    1    2    0    0  0.87427591724E+02  0.56274960292E+03 -0.55518379570E+02  0.10663546562E+04  0.89983290836E+03 0.  0.
         23    2    4    4    0    0  0.55400193159E+02  0.82216886706E+02 -0.43024718128E+03  0.44992381390E+03  0.86544806050E+02 0.  0.
         23    2    4    4    0    0  0.32027398565E+02  0.48053271621E+03  0.37472880171E+03  0.61643084231E+03  0.87337637443E+02 0.  0.
          2    1    3    3  502    0 -0.25266859937E+02 -0.30975799470E+03  0.63175354115E+03  0.70406034276E+03  0.00000000000E+00 0. -1.
         -1    1    3    3    0  502 -0.62160731787E+02 -0.25299160822E+03  0.68067313733E+03  0.72882414222E+03  0.00000000000E+00 0.  1.
         11    1    5    5    0    0  0.39289057181E+02  0.94259206054E+02 -0.40482553016E+03  0.41750705120E+03  0.00000000000E+00 0. -1.
        -11    1    5    5    0    0  0.16111135979E+02 -0.12042319348E+02 -0.25421651124E+02  0.32416762696E+02  0.00000000000E+00 0.  1.
          3    1    6    6  503    0  0.50364269250E+02  0.24043040035E+03  0.22330108921E+03  0.33197396505E+03  0.00000000000E+00 0. -1.
         -3    1    6    6    0  503 -0.18336870685E+02  0.24010231586E+03  0.15142771250E+03  0.28445687726E+03  0.00000000000E+00 0.  1.
<mgrwt>
<rscale>  0 0.21601800E+04</rscale>
<asrwt>0</asrwt>
<pdfrwt beam="1">  1        2 0.28893442E+00 0.21601800E+04</pdfrwt>
<pdfrwt beam="2">  1       -1 0.95563912E-01 0.21601800E+04</pdfrwt>
<totfact> 0.86139104E+00</totfact>
</mgrwt>
</event>
<event>
12    6  0.1569942E-007  0.1197925E+04  0.7818608E-02  0.9114674E-01
         -1   -1    0    0    0  501 -0.00000000000E+00  0.00000000000E+00  0.35656749614E+03  0.35656749614E+03  0.00000000000E+00 0.  1.
          2   -1    0    0  501    0  0.00000000000E+00 -0.00000000000E+00 -0.10061386437E+04  0.10061386437E+04  0.00000000000E+00 0. -1.
         24    2    1    2    0    0  0.19417731865E+03  0.10359981319E+02 -0.32376473839E+03  0.38613921025E+03  0.80422158501E+02 0.  0.
        254    2    1    2    0    0 -0.19417731865E+03 -0.10359981319E+02 -0.32580640916E+03  0.97656692957E+03  0.89984498187E+03 0.  0.
         23    2    4    4    0    0  0.72115124869E+02  0.10242662501E+02  0.28275785242E+03  0.30589128331E+03  0.91170010028E+02 0.  0.
         23    2    4    4    0    0 -0.26629244351E+03 -0.20602643820E+02 -0.60856426158E+03  0.67067564626E+03  0.90106756728E+02 0.  0.
          2    1    3    3  502    0  0.10866360454E+03  0.34891795554E+02 -0.23074165805E+03  0.25742363743E+03  0.00000000000E+00 0. -1.
         -3    1    3    3    0  502  0.85513714106E+02 -0.24531814235E+02 -0.93023080337E+02  0.12871557282E+03  0.00000000000E+00 0.  1.
         11    1    5    5    0    0  0.43199921278E+02  0.42165346314E+02  0.22997057019E+03  0.23776167223E+03  0.00000000000E+00 0. -1.
        -11    1    5    5    0    0  0.28915203591E+02 -0.31922683813E+02  0.52787282237E+02  0.68129611085E+02  0.00000000000E+00 0.  1.
          3    1    6    6  503    0 -0.21284874824E+03 -0.48730711363E+02 -0.51417154057E+03  0.55861582952E+03  0.00000000000E+00 0. -1.
         -3    1    6    6    0  503 -0.53443695271E+02  0.28128067543E+02 -0.94392721012E+02  0.11205981674E+03  0.00000000000E+00 0.  1.
<mgrwt>
<rscale>  0 0.11979254E+04</rscale>
<asrwt>0</asrwt>
<pdfrwt beam="1">  1        2 0.15479056E+00 0.11979254E+04</pdfrwt>
<pdfrwt beam="2">  1       -1 0.54856538E-01 0.11979254E+04</pdfrwt>
<totfact> 0.94342290E+01</totfact>
</mgrwt>
</event>
<event>
12    6  0.1569942E-007  0.1892012E+04  0.7818608E-02  0.8658843E-01
          2   -1    0    0  501    0  0.00000000000E+00  0.00000000000E+00  0.14546901180E+04  0.14546901180E+04  0.00000000000E+00 0. -1.
         -1   -1    0    0    0  501 -0.00000000000E+00 -0.00000000000E+00 -0.61520129259E+03  0.61520129259E+03  0.00000000000E+00 0.  1.
         24    2    1    2    0    0 -0.39515883491E+03 -0.27148757932E+03 -0.27937330982E+03  0.56096372160E+03  0.82309417308E+02 0.  0.
        254    2    1    2    0    0  0.39515883491E+03  0.27148757932E+03  0.11188621352E+04  0.15089276890E+04  0.89171423810E+03 0.  0.
         23    2    4    4    0    0  0.26067761472E+03  0.58329748387E+03  0.59292363128E+03  0.87605940783E+03  0.87936795604E+02 0.  0.
         23    2    4    4    0    0  0.13448122019E+03 -0.31180990455E+03  0.52593850395E+03  0.63286828116E+03  0.92737997615E+02 0.  0.
          4    1    3    3  502    0 -0.62244565647E+01 -0.21203155783E+02 -0.33418004800E+01  0.22349167885E+02  0.00000000000E+00 0. -1.
         -3    1    3    3    0  502 -0.38893437834E+03 -0.25028442354E+03 -0.27603150934E+03  0.53861455371E+03  0.00000000000E+00 0.  1.
         11    1    5    5    0    0  0.57420428926E+02  0.80620447638E+02  0.12804050358E+03  0.16183674735E+03  0.00000000000E+00 0. -1.
        -11    1    5    5    0    0  0.20325718579E+03  0.50267703623E+03  0.46488312770E+03  0.71422266048E+03  0.00000000000E+00 0.  1.
          4    1    6    6  503    0  0.53370946868E+02 -0.23223566629E+03  0.36291696294E+03  0.43415502376E+03  0.00000000000E+00 0. -1.
         -4    1    6    6    0  503  0.81110273320E+02 -0.79574238257E+02  0.16302154101E+03  0.19871325740E+03  0.00000000000E+00 0.  1.
<mgrwt>
<rscale>  0 0.18920119E+04</rscale>
<asrwt>0</asrwt>
<pdfrwt beam="1">  1        2 0.22379848E+00 0.18920119E+04</pdfrwt>
<pdfrwt beam="2">  1       -1 0.94646353E-01 0.18920119E+04</pdfrwt>
<totfact> 0.15529638E+01</totfact>
</mgrwt>
</event>
<event>
12    6  0.1569942E-007  0.1857476E+04  0.7818608E-02  0.8676318E-01
         -1   -1    0    0    0  501 -0.00000000000E+00  0.00000000000E+00  0.70319062252E+03  0.70319062252E+03  0.00000000000E+00 0.  1.
          2   -1    0    0  501    0  0.00000000000E+00 -0.00000000000E+00 -0.12266298208E+04  0.12266298208E+04  0.00000000000E+00 0. -1.
         24    2    1    2    0    0  0.34001116404E+03  0.53626197028E+03 -0.52970899054E+03  0.83072827885E+03  0.79582448957E+02 0.  0.
        254    2    1    2    0    0 -0.34001116404E+03 -0.53626197028E+03  0.62697922085E+01  0.10990921645E+04  0.89709519191E+03 0.  0.
         23    2    4    4    0    0 -0.54964041965E+03 -0.41309020253E+03  0.25492381411E+03  0.73975793890E+03  0.97506670653E+02 0.  0.
         23    2    4    4    0    0  0.20962925561E+03 -0.12317176776E+03 -0.24865402191E+03  0.35933422561E+03  0.90424299306E+02 0.  0.
          4    1    3    3  502    0  0.88456275884E+02  0.14203600690E+03 -0.95943572316E+02  0.19288314874E+03  0.00000000000E+00 0. -1.
         -3    1    3    3    0  502  0.25155488815E+03  0.39422596339E+03 -0.43376541822E+03  0.63784513011E+03  0.00000000000E+00 0.  1.
         11    1    5    5    0    0 -0.35340445209E+02 -0.97879294357E+00  0.11095618228E+02  0.37054255452E+02  0.00000000000E+00 0.  1.
        -11    1    5    5    0    0 -0.51429997444E+03 -0.41211140958E+03  0.24382819589E+03  0.70270368345E+03  0.00000000000E+00 0. -1.
          2    1    6    6  503    0  0.19854156578E+03 -0.82028051788E+02 -0.18967683915E+03  0.28657400080E+03  0.00000000000E+00 0. -1.
         -2    1    6    6    0  503  0.11087689835E+02 -0.41143715967E+02 -0.58977182757E+02  0.72760224816E+02  0.00000000000E+00 0.  1.
<mgrwt>
<rscale>  0 0.18574763E+04</rscale>
<asrwt>0</asrwt>
<pdfrwt beam="1">  1        2 0.18871228E+00 0.18574763E+04</pdfrwt>
<pdfrwt beam="2">  1       -1 0.10818317E+00 0.18574763E+04</pdfrwt>
<totfact> 0.15532585E+01</totfact>
</mgrwt>
</event>
<event>
12    6  0.1569942E-007  0.1605050E+04  0.7818608E-02  0.8817451E-01
         -1   -1    0    0    0  501 -0.00000000000E+00  0.00000000000E+00  0.85656364278E+03  0.85656364278E+03  0.00000000000E+00 0.  1.
          2   -1    0    0  501    0  0.00000000000E+00 -0.00000000000E+00 -0.75189573815E+03  0.75189573815E+03  0.00000000000E+00 0. -1.
         24    2    1    2    0    0  0.43151864878E+02 -0.33731570590E+03 -0.34740919102E+03  0.49274494062E+03  0.80376996777E+02 0.  0.
        254    2    1    2    0    0 -0.43151864878E+02  0.33731570590E+03  0.45207709566E+03  0.11157144403E+04  0.96166576470E+03 0.  0.
         23    2    4    4    0    0  0.40936352435E+03 -0.41612975642E+02  0.21513290020E+03  0.47344707766E+03  0.92519380580E+02 0.  0.
         23    2    4    4    0    0 -0.45251538923E+03  0.37892868154E+03  0.23694419545E+03  0.64226736264E+03  0.89485698152E+02 0.  0.
          2    1    3    3  502    0  0.43805010682E+02 -0.21124876780E+03 -0.26677623765E+03  0.34309544129E+03  0.00000000000E+00 0. -1.
         -1    1    3    3    0  502 -0.65314580425E+00 -0.12606693809E+03 -0.80632953373E+02  0.14964949933E+03  0.00000000000E+00 0.  1.
         11    1    5    5    0    0  0.24000645110E+03  0.20932738693E+02  0.13166159452E+03  0.27454699341E+03  0.00000000000E+00 0. -1.
        -11    1    5    5    0    0  0.16935707325E+03 -0.62545714335E+02  0.83471305686E+02  0.19890008425E+03  0.00000000000E+00 0.  1.
          3    1    6    6  503    0 -0.20561607799E+03  0.11785528371E+03  0.79729649881E+02  0.25004930813E+03  0.00000000000E+00 0. -1.
         -3    1    6    6    0  503 -0.24689931124E+03  0.26107339783E+03  0.15721454557E+03  0.39221805451E+03  0.00000000000E+00 0.  1.
<mgrwt>
<rscale>  0 0.16050502E+04</rscale>
<asrwt>0</asrwt>
<pdfrwt beam="1">  1        2 0.11567627E+00 0.16050502E+04</pdfrwt>
<pdfrwt beam="2">  1       -1 0.13177902E+00 0.16050502E+04</pdfrwt>
<totfact> 0.20048487E+01</totfact>
</mgrwt>
</event>
<event>
12    6  0.1569942E-007  0.2988111E+04  0.7818608E-02  0.8247134E-01
          2   -1    0    0  501    0  0.00000000000E+00  0.00000000000E+00  0.82239440426E+03  0.82239440426E+03  0.00000000000E+00 0. -1.
         -1   -1    0    0    0  501 -0.00000000000E+00 -0.00000000000E+00 -0.27142715982E+04  0.27142715982E+04  0.00000000000E+00 0.  1.
         24    2    1    2    0    0 -0.94445143298E+03 -0.26620779951E+03 -0.19625093337E+04  0.21958208775E+04  0.85623242100E+02 0.  0.
        254    2    1    2    0    0  0.94445143298E+03  0.26620779951E+03  0.70632139693E+02  0.13408451250E+04  0.91105523888E+03 0.  0.
         23    2    4    4    0    0  0.49684251685E+02 -0.24896178842E+03 -0.10782061551E+03  0.28894209178E+03  0.86091522891E+02 0.  0.
         23    2    4    4    0    0  0.89476718130E+03  0.51516958794E+03  0.17845275520E+03  0.10519030332E+04  0.92987054916E+02 0.  0.
          2    1    3    3  502    0 -0.89905048690E+02 -0.50443071948E+02 -0.18434348181E+03  0.21121065449E+03  0.00000000000E+00 0. -1.
         -1    1    3    3    0  502 -0.85454638429E+03 -0.21576472757E+03 -0.17781658519E+04  0.19846102230E+04  0.00000000000E+00 0.  1.
         11    1    5    5    0    0 -0.18736010990E+02 -0.20401813953E+02 -0.22075944762E+02  0.35420607808E+02  0.00000000000E+00 0.  1.
        -11    1    5    5    0    0  0.68420262675E+02 -0.22855997447E+03 -0.85744670750E+02  0.25352148397E+03  0.00000000000E+00 0. -1.
          4    1    6    6  503    0  0.43383983363E+03  0.21725258569E+03  0.46363414691E+02  0.48740666127E+03  0.00000000000E+00 0. -1.
         -4    1    6    6    0  503  0.46092734767E+03  0.29791700225E+03  0.13208934051E+03  0.56449637194E+03  0.00000000000E+00 0.  1.
<mgrwt>
<rscale>  0 0.29881110E+04</rscale>
<asrwt>0</asrwt>
<pdfrwt beam="1">  1        2 0.12652222E+00 0.29881110E+04</pdfrwt>
<pdfrwt beam="2">  1       -1 0.41758025E+00 0.29881110E+04</pdfrwt>
<totfact> 0.17552308E-01</totfact>
</mgrwt>
</event>
<event>
12    6  0.1569942E-007  0.1215688E+04  0.7818608E-02  0.9099235E-01
          2   -1    0    0  501    0  0.00000000000E+00  0.00000000000E+00  0.23287786565E+04  0.23287786565E+04  0.00000000000E+00 0. -1.
         -1   -1    0    0    0  501 -0.00000000000E+00 -0.00000000000E+00 -0.15865571778E+03  0.15865571778E+03  0.00000000000E+00 0.  1.
         24    2    1    2    0    0 -0.92000146348E+02  0.19322594863E+03  0.78988955638E+03  0.82204231376E+03  0.77638651358E+02 0.  0.
        254    2    1    2    0    0  0.92000146348E+02 -0.19322594863E+03  0.13802333824E+04  0.16653920606E+04  0.90702052422E+03 0.  0.
         23    2    4    4    0    0 -0.11627827702E+03 -0.11577811105E+03 -0.66811894194E+02  0.19870017083E+03  0.89959546323E+02 0.  0.
         23    2    4    4    0    0  0.20827842337E+03 -0.77447837579E+02  0.14470452766E+04  0.14666918897E+04  0.88696097635E+02 0.  0.
          2    1    3    3  502    0 -0.91116848473E+02  0.16329791123E+03  0.74480565033E+03  0.76792183498E+03  0.00000000000E+00 0. -1.
         -1    1    3    3    0  502 -0.88329787434E+00  0.29928037406E+02  0.45083906049E+02  0.54120478774E+02  0.00000000000E+00 0.  1.
         11    1    5    5    0    0 -0.19994069772E+02 -0.76226516134E+02 -0.81713490695E+01  0.79227618502E+02  0.00000000000E+00 0.  1.
        -11    1    5    5    0    0 -0.96284207251E+02 -0.39551594919E+02 -0.58640545124E+02  0.11947255232E+03  0.00000000000E+00 0. -1.
          4    1    6    6  503    0  0.21089217672E+03 -0.87533939023E+02  0.14007490142E+04  0.14192376479E+04  0.00000000000E+00 0. -1.
         -4    1    6    6    0  503 -0.26137533492E+01  0.10086101444E+02  0.46296262426E+02  0.47454241786E+02  0.00000000000E+00 0.  1.
<mgrwt>
<rscale>  0 0.12156875E+04</rscale>
<asrwt>0</asrwt>
<pdfrwt beam="1">  1        2 0.35827362E+00 0.12156875E+04</pdfrwt>
<pdfrwt beam="2">  1       -1 0.24408574E-01 0.12156875E+04</pdfrwt>
<totfact> 0.71837547E+01</totfact>
</mgrwt>
</event>
<event>
12    6  0.1569942E-007  0.1312074E+04  0.7818608E-02  0.9020045E-01
         -1   -1    0    0    0  501 -0.00000000000E+00  0.00000000000E+00  0.22012280582E+03  0.22012280582E+03  0.00000000000E+00 0.  1.
          2   -1    0    0  501    0  0.00000000000E+00 -0.00000000000E+00 -0.19552009383E+04  0.19552009383E+04  0.00000000000E+00 0. -1.
         24    2    1    2    0    0 -0.76656629885E+02  0.12127041618E+03 -0.10013141778E+04  0.10150408051E+04  0.84231826900E+02 0.  0.
        254    2    1    2    0    0  0.76656629885E+02 -0.12127041618E+03 -0.73376395464E+03  0.11602829390E+04  0.88727910185E+03 0.  0.
         23    2    4    4    0    0  0.28474746779E+03  0.22544160875E+03 -0.62975850141E+03  0.73259668688E+03  0.90537816169E+02 0.  0.
         23    2    4    4    0    0 -0.20809083790E+03 -0.34671202492E+03 -0.10400545322E+03  0.42768625208E+03  0.92668068260E+02 0.  0.
          2    1    3    3  502    0 -0.48655383182E+02  0.11848740916E+03 -0.92258055828E+03  0.93142981430E+03  0.00000000000E+00 0. -1.
         -1    1    3    3    0  502 -0.28001246703E+02  0.27830070122E+01 -0.78733619529E+02  0.83610990839E+02  0.00000000000E+00 0.  1.
         11    1    5    5    0    0  0.27663409750E+03  0.20692609027E+03 -0.54349808602E+03  0.64399922379E+03  0.00000000000E+00 0. -1.
        -11    1    5    5    0    0  0.81133702883E+01  0.18515518471E+02 -0.86260415391E+02  0.88597463085E+02  0.00000000000E+00 0.  1.
          4    1    6    6  503    0 -0.21270306642E+03 -0.34038503244E+03 -0.89550069124E+02  0.41124661659E+03  0.00000000000E+00 0. -1.
         -4    1    6    6    0  503  0.46122285180E+01 -0.63269924848E+01 -0.14455384100E+02  0.16439635498E+02  0.00000000000E+00 0.  1.
<mgrwt>
<rscale>  0 0.13120737E+04</rscale>
<asrwt>0</asrwt>
<pdfrwt beam="1">  1        2 0.30080015E+00 0.13120737E+04</pdfrwt>
<pdfrwt beam="2">  1       -1 0.33865046E-01 0.13120737E+04</pdfrwt>
<totfact> 0.65023928E+01</totfact>
</mgrwt>
</event>
<event>
12    6  0.1569942E-007  0.1112602E+04  0.7818608E-02  0.9192996E-01
         -1   -1    0    0    0  501 -0.00000000000E+00  0.00000000000E+00  0.26917591482E+03  0.26917591482E+03  0.00000000000E+00 0.  1.
          2   -1    0    0  501    0  0.00000000000E+00 -0.00000000000E+00 -0.11496969110E+04  0.11496969110E+04  0.00000000000E+00 0. -1.
         24    2    1    2    0    0 -0.63021821127E+02  0.16493161320E+03 -0.13006547591E+03  0.23276679785E+03  0.78033115956E+02 0.  0.
        254    2    1    2    0    0  0.63021821127E+02 -0.16493161320E+03 -0.75045552027E+03  0.11861060280E+04  0.90138218018E+03 0.  0.
         23    2    4    4    0    0  0.31577634076E+03  0.18092991388E+03 -0.62845815064E+03  0.73135910995E+03  0.86464845372E+02 0.  0.
         23    2    4    4    0    0 -0.25275451963E+03 -0.34586152708E+03 -0.12199736963E+03  0.45474691803E+03  0.91686193901E+02 0.  0.
          4    1    3    3  502    0 -0.33816575153E+02  0.87238237658E+02 -0.11526040402E+03  0.14845548693E+03  0.00000000000E+00 0. -1.
         -3    1    3    3    0  502 -0.29205245973E+02  0.77693375538E+02 -0.14805071894E+02  0.84311310918E+02  0.00000000000E+00 0.  1.
         11    1    5    5    0    0  0.14268032947E+03  0.53564862574E+02 -0.19444650360E+03  0.24705528467E+03  0.00000000000E+00 0. -1.
        -11    1    5    5    0    0  0.17309601129E+03  0.12736505131E+03 -0.43401164703E+03  0.48430382528E+03  0.00000000000E+00 0.  1.
          4    1    6    6  503    0 -0.22814738563E+03 -0.31117277896E+03 -0.78193234742E+02  0.39369265918E+03  0.00000000000E+00 0. -1.
         -4    1    6    6    0  503 -0.24607134005E+02 -0.34688748118E+02 -0.43804134889E+02  0.61054258846E+02  0.00000000000E+00 0.  1.
<mgrwt>
<rscale>  0 0.11126018E+04</rscale>
<asrwt>0</asrwt>
<pdfrwt beam="1">  1        2 0.17687645E+00 0.11126018E+04</pdfrwt>
<pdfrwt beam="2">  1       -1 0.41411679E-01 0.11126018E+04</pdfrwt>
<totfact> 0.13118303E+02</totfact>
</mgrwt>
</event>
<event>
12    6  0.1569942E-007  0.3686458E+04  0.7818608E-02  0.8070970E-01
          2   -1    0    0  501    0  0.00000000000E+00  0.00000000000E+00  0.14616501899E+04  0.14616501899E+04  0.00000000000E+00 0. -1.
         -1   -1    0    0    0  501 -0.00000000000E+00 -0.00000000000E+00 -0.23244227810E+04  0.23244227810E+04  0.00000000000E+00 0.  1.
         24    2    1    2    0    0  0.37453150772E+03 -0.14990842001E+04  0.39762215110E+03  0.15975298703E+04  0.80442664550E+02 0.  0.
        254    2    1    2    0    0 -0.37453150772E+03  0.14990842001E+04 -0.12603947422E+04  0.21885431006E+04  0.90199706637E+03 0.  0.
         23    2    4    4    0    0  0.22550734916E+03  0.91045279640E+03 -0.70706606965E+03  0.11781477188E+04  0.91168862904E+02 0.  0.
         23    2    4    4    0    0 -0.60003885688E+03  0.58863140370E+03 -0.55332867252E+03  0.10103953817E+04  0.90513249959E+02 0.  0.
          4    1    3    3  502    0  0.37303010055E+03 -0.14991436410E+04  0.39507793742E+03  0.15945750810E+04  0.00000000000E+00 0. -1.
         -3    1    3    3    0  502  0.15014071719E+01  0.59440918445E-01  0.25442136756E+01  0.29547893234E+01  0.00000000000E+00 0.  1.
         11    1    5    5    0    0  0.14317215036E+03  0.71993384881E+03 -0.53069416687E+03  0.90578104973E+03  0.00000000000E+00 0.  1.
        -11    1    5    5    0    0  0.82335198800E+02  0.19051894759E+03 -0.17637190278E+03  0.27236666911E+03  0.00000000000E+00 0. -1.
          1    1    6    6  503    0 -0.17126261175E+03  0.21405443260E+03 -0.14829304153E+03  0.31167452329E+03  0.00000000000E+00 0. -1.
         -1    1    6    6    0  503 -0.42877624513E+03  0.37457697110E+03 -0.40503563099E+03  0.69872085845E+03  0.00000000000E+00 0.  1.
<mgrwt>
<rscale>  0 0.36864579E+04</rscale>
<asrwt>0</asrwt>
<pdfrwt beam="1">  1        2 0.22486926E+00 0.36864579E+04</pdfrwt>
<pdfrwt beam="2">  1       -1 0.35760350E+00 0.36864579E+04</pdfrwt>
<totfact> 0.17001446E-01</totfact>
</mgrwt>
</event>
<event>
12    6  0.1569942E-007  0.1702543E+04  0.7818608E-02  0.8759915E-01
         -1   -1    0    0    0  501 -0.00000000000E+00  0.00000000000E+00  0.31604068649E+03  0.31604068649E+03  0.00000000000E+00 0.  1.
          2   -1    0    0  501    0  0.00000000000E+00 -0.00000000000E+00 -0.22929433235E+04  0.22929433235E+04  0.00000000000E+00 0. -1.
         24    2    1    2    0    0 -0.49977970862E+02 -0.87051259614E+02  0.20858273894E+03  0.24480226738E+03  0.79659724802E+02 0.  0.
        254    2    1    2    0    0  0.49977970862E+02  0.87051259614E+02 -0.21854853759E+04  0.23641817426E+04  0.89606543523E+03 0.  0.
         23    2    4    4    0    0 -0.33084043363E+03 -0.84620378000E+02 -0.42707673006E+03  0.55446349411E+03  0.91756373344E+02 0.  0.
         23    2    4    4    0    0  0.38081840449E+03  0.17167163761E+03 -0.17584086459E+04  0.18097182485E+04  0.92657242718E+02 0.  0.
          4    1    3    3  502    0  0.56657673027E+01 -0.55667808233E+02  0.14152595534E+03  0.15218607632E+03  0.00000000000E+00 0. -1.
         -3    1    3    3    0  502 -0.55643738165E+02 -0.31383451381E+02  0.67056783606E+02  0.92616191053E+02  0.00000000000E+00 0.  1.
         11    1    5    5    0    0 -0.26590619718E+03 -0.31617080553E+02 -0.29883034714E+03  0.40125468453E+03  0.00000000000E+00 0. -1.
        -11    1    5    5    0    0 -0.64934236447E+02 -0.53003297447E+02 -0.12824638292E+03  0.15320880959E+03  0.00000000000E+00 0.  1.
          3    1    6    6  503    0  0.36642271807E+03  0.18237117369E+03 -0.17022131270E+04  0.17507296716E+04  0.00000000000E+00 0. -1.
         -3    1    6    6    0  503  0.14395686419E+02 -0.10699536079E+02 -0.56195518902E+02  0.58988576898E+02  0.00000000000E+00 0.  1.
<mgrwt>
<rscale>  0 0.17025433E+04</rscale>
<asrwt>0</asrwt>
<pdfrwt beam="1">  1        2 0.35276051E+00 0.17025433E+04</pdfrwt>
<pdfrwt beam="2">  1       -1 0.48621645E-01 0.17025433E+04</pdfrwt>
<totfact> 0.21000666E+01</totfact>
</mgrwt>
</event>
<event>
12    6  0.1569942E-007  0.1127785E+04  0.7818608E-02  0.9178526E-01
         -1   -1    0    0    0  501 -0.00000000000E+00  0.00000000000E+00  0.36501941690E+03  0.36501941690E+03  0.00000000000E+00 0.  1.
          2   -1    0    0  501    0  0.00000000000E+00 -0.00000000000E+00 -0.87111793114E+03  0.87111793114E+03  0.00000000000E+00 0. -1.
         24    2    1    2    0    0 -0.80614734453E+02 -0.93751590942E+02  0.62427108278E+02  0.16042713518E+03  0.80942112896E+02 0.  0.
        254    2    1    2    0    0  0.80614734453E+02  0.93751590942E+02 -0.56852562252E+03  0.10757102129E+04  0.90478891591E+03 0.  0.
         23    2    4    4    0    0 -0.20399682610E+03  0.31623954612E+03  0.11768799487E+02  0.38659642190E+03  0.87727607959E+02 0.  0.
         23    2    4    4    0    0  0.28461156055E+03 -0.22248795517E+03 -0.58029442201E+03  0.68911379095E+03  0.87358858024E+02 0.  0.
          2    1    3    3  502    0 -0.40609248186E+02  0.28651308854E+01  0.31204948577E+02  0.51293945344E+02  0.00000000000E+00 0. -1.
         -1    1    3    3    0  502 -0.40005486266E+02 -0.96616721827E+02  0.31222159700E+02  0.10913318984E+03  0.00000000000E+00 0.  1.
         11    1    5    5    0    0 -0.18464944926E+03  0.22702130319E+03 -0.97774676379E+01  0.29279632868E+03  0.00000000000E+00 0. -1.
        -11    1    5    5    0    0 -0.19347376837E+02  0.89218242922E+02  0.21546267125E+02  0.93800093217E+02  0.00000000000E+00 0.  1.
          4    1    6    6  503    0  0.24596837475E+03 -0.14774669638E+03 -0.43186663848E+03  0.51849621127E+03  0.00000000000E+00 0. -1.
         -4    1    6    6    0  503  0.38643185799E+02 -0.74741258796E+02 -0.14842778352E+03  0.17061757968E+03  0.00000000000E+00 0.  1.
<mgrwt>
<rscale>  0 0.11277854E+04</rscale>
<asrwt>0</asrwt>
<pdfrwt beam="1">  1        2 0.13401814E+00 0.11277854E+04</pdfrwt>
<pdfrwt beam="2">  1       -1 0.56156834E-01 0.11277854E+04</pdfrwt>
<totfact> 0.11135026E+02</totfact>
</mgrwt>
</event>
<event>
12    6  0.1569942E-007  0.2851216E+04  0.7818608E-02  0.8287542E-01
          2   -1    0    0  501    0  0.00000000000E+00  0.00000000000E+00  0.23361322445E+04  0.23361322445E+04  0.00000000000E+00 0. -1.
         -1   -1    0    0    0  501 -0.00000000000E+00 -0.00000000000E+00 -0.86996681512E+03  0.86996681512E+03  0.00000000000E+00 0.  1.
         24    2    1    2    0    0 -0.11425472469E+04  0.57425123475E+03  0.57490533371E+03  0.14043712504E+04  0.81017122544E+02 0.  0.
        254    2    1    2    0    0  0.11425472469E+04 -0.57425123475E+03  0.89126009567E+03  0.18017278093E+04  0.90371447290E+03 0.  0.
         23    2    4    4    0    0  0.12368776016E+04 -0.48271321294E+03  0.57881267012E+03  0.14516817129E+04  0.97352149514E+02 0.  0.
         23    2    4    4    0    0 -0.94330354762E+02 -0.91538021805E+02  0.31244742555E+03  0.35004609638E+03  0.87358174133E+02 0.  0.
          2    1    3    3  502    0 -0.10957153145E+04  0.53203238257E+03  0.55190282521E+03  0.13372536165E+04  0.00000000000E+00 0. -1.
         -1    1    3    3    0  502 -0.46831932401E+02  0.42218852177E+02  0.23002508501E+02  0.67117633815E+02  0.00000000000E+00 0.  1.
         11    1    5    5    0    0  0.40404996130E+03 -0.20251367069E+03  0.21796914277E+03  0.50177555266E+03  0.00000000000E+00 0. -1.
        -11    1    5    5    0    0  0.83282764034E+03 -0.28019954225E+03  0.36084352735E+03  0.94990616022E+03  0.00000000000E+00 0.  1.
          4    1    6    6  503    0 -0.10844451721E+03 -0.63759201715E+02  0.26405315574E+03  0.29248849237E+03  0.00000000000E+00 0. -1.
         -4    1    6    6    0  503  0.14114162452E+02 -0.27778820090E+02  0.48394269818E+02  0.57557604002E+02  0.00000000000E+00 0.  1.
<mgrwt>
<rscale>  0 0.28512156E+04</rscale>
<asrwt>0</asrwt>
<pdfrwt beam="1">  1        2 0.35940496E+00 0.28512156E+04</pdfrwt>
<pdfrwt beam="2">  1       -1 0.13384105E+00 0.28512156E+04</pdfrwt>
<totfact> 0.20059686E+00</totfact>
</mgrwt>
</event>
<event>
12    6  0.1569942E-007  0.2140975E+04  0.7818608E-02  0.8543405E-01
         -1   -1    0    0    0  501 -0.00000000000E+00  0.00000000000E+00  0.15358871898E+04  0.15358871898E+04  0.00000000000E+00 0.  1.
          2   -1    0    0  501    0  0.00000000000E+00 -0.00000000000E+00 -0.74611156323E+03  0.74611156323E+03  0.00000000000E+00 0. -1.
         24    2    1    2    0    0 -0.44171660619E+03 -0.63162460395E+02 -0.48398082913E+03  0.66295222150E+03  0.78518459269E+02 0.  0.
        254    2    1    2    0    0  0.44171660619E+03  0.63162460395E+02  0.12737564557E+04  0.16190465316E+04  0.89428916255E+03 0.  0.
         23    2    4    4    0    0  0.46904350909E+03  0.32402655469E+03  0.40018505627E+03  0.70254513166E+03  0.91796302745E+02 0.  0.
         23    2    4    4    0    0 -0.27326902903E+02 -0.26086409429E+03  0.87357139945E+03  0.91650139989E+03  0.89727313316E+02 0.  0.
          2    1    3    3  502    0 -0.38155247117E+03 -0.78192513740E+02 -0.43534575142E+03  0.58414234630E+03  0.00000000000E+00 0. -1.
         -1    1    3    3    0  502 -0.60164135011E+02  0.15030053344E+02 -0.48635077711E+02  0.78809875200E+02  0.00000000000E+00 0.  1.
         11    1    5    5    0    0  0.17324738846E+03  0.14675723658E+03  0.20713375321E+03  0.30733814572E+03  0.00000000000E+00 0.  1.
        -11    1    5    5    0    0  0.29579612063E+03  0.17726931810E+03  0.19305130306E+03  0.39520698594E+03  0.00000000000E+00 0. -1.
          4    1    6    6  503    0  0.61331351777E+01 -0.11316389022E+03  0.24497445338E+03  0.26991881040E+03  0.00000000000E+00 0. -1.
         -4    1    6    6    0  503 -0.33460038080E+02 -0.14770020407E+03  0.62859694607E+03  0.64658258950E+03  0.00000000000E+00 0.  1.
<mgrwt>
<rscale>  0 0.21409747E+04</rscale>
<asrwt>0</asrwt>
<pdfrwt beam="1">  1        2 0.11478639E+00 0.21409747E+04</pdfrwt>
<pdfrwt beam="2">  1       -1 0.23629034E+00 0.21409747E+04</pdfrwt>
<totfact> 0.33936901E+00</totfact>
</mgrwt>
</event>
<event>
12    6  0.1569942E-007  0.2235649E+04  0.7818608E-02  0.8503735E-01
         -1   -1    0    0    0  501 -0.00000000000E+00  0.00000000000E+00  0.43673001612E+03  0.43673001612E+03  0.00000000000E+00 0.  1.
          2   -1    0    0  501    0  0.00000000000E+00 -0.00000000000E+00 -0.28611080015E+04  0.28611080015E+04  0.00000000000E+00 0. -1.
         24    2    1    2    0    0 -0.19840859470E+02 -0.10047493818E+03 -0.23927787998E+04  0.23964134538E+04  0.83175619381E+02 0.  0.
        254    2    1    2    0    0  0.19840859470E+02  0.10047493818E+03 -0.31599185570E+02  0.90142456386E+03  0.89503009049E+03 0.  0.
         23    2    4    4    0    0  0.18537574590E+03 -0.32738572979E+03  0.12922411309E+03  0.40555896577E+03  0.78953277816E+02 0.  0.
         23    2    4    4    0    0 -0.16553488643E+03  0.42786066797E+03 -0.16082329866E+03  0.49586559808E+03  0.97734375480E+02 0.  0.
          2    1    3    3  502    0 -0.86607789008E+01 -0.11318826739E+03 -0.21845763173E+04  0.21875237779E+04  0.00000000000E+00 0. -1.
         -1    1    3    3    0  502 -0.11180080570E+02  0.12713329208E+02 -0.20820248258E+03  0.20888967589E+03  0.00000000000E+00 0.  1.
         11    1    5    5    0    0  0.93828790190E+02 -0.23339599060E+03  0.10265511120E+03  0.27169026878E+03  0.00000000000E+00 0. -1.
        -11    1    5    5    0    0  0.91546955710E+02 -0.93989739191E+02  0.26569001899E+02  0.13386869699E+03  0.00000000000E+00 0.  1.
          1    1    6    6  503    0 -0.15121383556E+03  0.28815734194E+03 -0.85328663740E+02  0.33642422421E+03  0.00000000000E+00 0.  1.
         -1    1    6    6    0  503 -0.14321050873E+02  0.13970332602E+03 -0.75494634924E+02  0.15944137387E+03  0.00000000000E+00 0. -1.
<mgrwt>
<rscale>  0 0.22356491E+04</rscale>
<asrwt>0</asrwt>
<pdfrwt beam="1">  1        2 0.44017047E+00 0.22356491E+04</pdfrwt>
<pdfrwt beam="2">  1       -1 0.67189233E-01 0.22356491E+04</pdfrwt>
<totfact> 0.49421007E+00</totfact>
</mgrwt>
</event>
<event>
12    6  0.1569942E-007  0.1523648E+04  0.7818608E-02  0.8868878E-01
         -1   -1    0    0    0  501 -0.00000000000E+00  0.00000000000E+00  0.17710525604E+03  0.17710525604E+03  0.00000000000E+00 0.  1.
          2   -1    0    0  501    0  0.00000000000E+00 -0.00000000000E+00 -0.32770084891E+04  0.32770084891E+04  0.00000000000E+00 0. -1.
         24    2    1    2    0    0 -0.26542980636E+03 -0.40203782523E+03 -0.12675604494E+04  0.13582287535E+04  0.77385134075E+02 0.  0.
        254    2    1    2    0    0  0.26542980636E+03  0.40203782523E+03 -0.18323427837E+04  0.20958849917E+04  0.89619552904E+03 0.  0.
         23    2    4    4    0    0  0.49705594276E+03 -0.40803481652E+02 -0.83941497057E+03  0.98067770790E+03  0.91551841021E+02 0.  0.
         23    2    4    4    0    0 -0.23162613640E+03  0.44284130688E+03 -0.99292781312E+03  0.11152072838E+04  0.89568708473E+02 0.  0.
          4    1    3    3  502    0 -0.97433740134E+02 -0.18914224313E+03 -0.64434445184E+03  0.67856311016E+03  0.00000000000E+00 0. -1.
         -3    1    3    3    0  502 -0.16799606623E+03 -0.21289558209E+03 -0.62321599758E+03  0.67966564337E+03  0.00000000000E+00 0.  1.
         11    1    5    5    0    0  0.16753965847E+03 -0.39827339933E+02 -0.22342572653E+03  0.28209007328E+03  0.00000000000E+00 0.  1.
        -11    1    5    5    0    0  0.32951628429E+03 -0.97614171932E+00 -0.61598924404E+03  0.69858763462E+03  0.00000000000E+00 0. -1.
          4    1    6    6  503    0 -0.21405761682E+03  0.42962710304E+03 -0.90318805641E+03  0.10228141455E+04  0.00000000000E+00 0. -1.
         -4    1    6    6    0  503 -0.17568519584E+02  0.13214203834E+02 -0.89739756704E+02  0.92393138255E+02  0.00000000000E+00 0.  1.
<mgrwt>
<rscale>  0 0.15236475E+04</rscale>
<asrwt>0</asrwt>
<pdfrwt beam="1">  1        2 0.50415511E+00 0.15236475E+04</pdfrwt>
<pdfrwt beam="2">  1       -1 0.27246965E-01 0.15236475E+04</pdfrwt>
<totfact> 0.15457468E+01</totfact>
</mgrwt>
</event>
<event>
12    6  0.1569942E-007  0.1774072E+04  0.7818608E-02  0.8720210E-01
         -1   -1    0    0    0  501 -0.00000000000E+00  0.00000000000E+00  0.69103837314E+03  0.69103837314E+03  0.00000000000E+00 0.  1.
          2   -1    0    0  501    0  0.00000000000E+00 -0.00000000000E+00 -0.11386241997E+04  0.11386241997E+04  0.00000000000E+00 0. -1.
         24    2    1    2    0    0 -0.44036343896E+03  0.45296011027E+03 -0.98666656363E+01  0.63678372985E+03  0.79393624673E+02 0.  0.
        254    2    1    2    0    0  0.44036343896E+03 -0.45296011027E+03 -0.43771916095E+03  0.11928788430E+04  0.91228781115E+03 0.  0.
         23    2    4    4    0    0  0.51172718325E+03 -0.63949546293E+03 -0.16069674651E+03  0.83975994575E+03  0.92488728822E+02 0.  0.
         23    2    4    4    0    0 -0.71363744286E+02  0.18653535266E+03 -0.27702241444E+03  0.35311889727E+03  0.89795967134E+02 0.  0.
          4    1    3    3  502    0 -0.12923136481E+03  0.84390975105E+02  0.13631124390E+00  0.15434571879E+03  0.00000000000E+00 0. -1.
         -3    1    3    3    0  502 -0.31113207415E+03  0.36856913517E+03 -0.10002976880E+02  0.48243801106E+03  0.00000000000E+00 0.  1.
         11    1    5    5    0    0  0.22817741930E+03 -0.32930197783E+03 -0.40645299995E+02  0.40268693509E+03  0.00000000000E+00 0. -1.
        -11    1    5    5    0    0  0.28354976395E+03 -0.31019348510E+03 -0.12005144652E+03  0.43707301066E+03  0.00000000000E+00 0.  1.
          4    1    6    6  503    0  0.13012325241E+02  0.83363409930E+00 -0.72617185641E+01  0.14924748256E+02  0.00000000000E+00 0. -1.
         -4    1    6    6    0  503 -0.84376069527E+02  0.18570171856E+03 -0.26976069588E+03  0.33819414901E+03  0.00000000000E+00 0.  1.
<mgrwt>
<rscale>  0 0.17740722E+04</rscale>
<asrwt>0</asrwt>
<pdfrwt beam="1">  1        2 0.17517295E+00 0.17740722E+04</pdfrwt>
<pdfrwt beam="2">  1       -1 0.10631360E+00 0.17740722E+04</pdfrwt>
<totfact> 0.18407453E+01</totfact>
</mgrwt>
</event>
<event>
12    6  0.1569942E-007  0.1966841E+04  0.7818608E-02  0.8622282E-01
          2   -1    0    0  501    0  0.00000000000E+00  0.00000000000E+00  0.65609845269E+03  0.65609845269E+03  0.00000000000E+00 0. -1.
         -1   -1    0    0    0  501 -0.00000000000E+00 -0.00000000000E+00 -0.14740409109E+04  0.14740409109E+04  0.00000000000E+00 0.  1.
         24    2    1    2    0    0  0.74753467680E+03 -0.44627465462E+02 -0.50327101971E+03  0.90581897924E+03  0.80166078795E+02 0.  0.
        254    2    1    2    0    0 -0.74753467680E+03  0.44627465462E+02 -0.31467143848E+03  0.12243203843E+04  0.91604726165E+03 0.  0.
         23    2    4    4    0    0 -0.51035794036E+03  0.37476924389E+03 -0.45440068727E+03  0.78463272379E+03  0.90836739216E+02 0.  0.
         23    2    4    4    0    0 -0.23717673644E+03 -0.33014177843E+03  0.13972924880E+03  0.43968766053E+03  0.92490959986E+02 0.  0.
          2    1    3    3  502    0  0.69785394880E+03 -0.38811929735E+02 -0.44301792901E+03  0.82750914506E+03  0.00000000000E+00 0. -1.
         -1    1    3    3    0  502  0.49680728005E+02 -0.58155357262E+01 -0.60253090697E+02  0.78309834181E+02  0.00000000000E+00 0.  1.
         11    1    5    5    0    0 -0.13986743476E+03  0.14364924491E+03 -0.17584232835E+03  0.26668057542E+03  0.00000000000E+00 0. -1.
        -11    1    5    5    0    0 -0.37049050560E+03  0.23111999898E+03 -0.27855835893E+03  0.51795214837E+03  0.00000000000E+00 0.  1.
          4    1    6    6  503    0 -0.88351855841E+02 -0.57113378534E+02  0.46789000696E+02  0.11513991065E+03  0.00000000000E+00 0. -1.
         -4    1    6    6    0  503 -0.14882488060E+03 -0.27302839990E+03  0.92940248102E+02  0.32454774988E+03  0.00000000000E+00 0.  1.
<mgrwt>
<rscale>  0 0.19668411E+04</rscale>
<asrwt>0</asrwt>
<pdfrwt beam="1">  1        2 0.10093822E+00 0.19668411E+04</pdfrwt>
<pdfrwt beam="2">  1       -1 0.22677552E+00 0.19668411E+04</pdfrwt>
<totfact> 0.46871504E+00</totfact>
</mgrwt>
</event>
<event>
12    6  0.1569942E-007  0.2702502E+04  0.7818608E-02  0.8334194E-01
         -3   -1    0    0    0  501 -0.00000000000E+00  0.00000000000E+00  0.20816032834E+04  0.20816032834E+04  0.00000000000E+00 0.  1.
          2   -1    0    0  501    0  0.00000000000E+00 -0.00000000000E+00 -0.87715044046E+03  0.87715044046E+03  0.00000000000E+00 0. -1.
         24    2    1    2    0    0  0.64447078551E+03  0.37772061914E+03 -0.49288562237E+03  0.89845224917E+03  0.79150159817E+02 0.  0.
        254    2    1    2    0    0 -0.64447078551E+03 -0.37772061914E+03  0.16973384653E+04  0.20603014747E+04  0.89770197800E+03 0.  0.
         23    2    4    4    0    0  0.20876196255E+03 -0.12129346900E+03  0.52846765103E+03  0.58805555102E+03  0.90761281799E+02 0.  0.
         23    2    4    4    0    0 -0.85323274805E+03 -0.25642715014E+03  0.11688708143E+04  0.14722459237E+04  0.86533655974E+02 0.  0.
          4    1    3    3  502    0  0.39128063590E+03  0.20527499282E+03 -0.33011308865E+03  0.55155508338E+03  0.00000000000E+00 0. -1.
         -3    1    3    3    0  502  0.25319014961E+03  0.17244562632E+03 -0.16277253372E+03  0.34689716579E+03  0.00000000000E+00 0.  1.
         11    1    5    5    0    0  0.17675901725E+02 -0.49662779753E+02  0.87404872364E+02  0.10207076422E+03  0.00000000000E+00 0. -1.
        -11    1    5    5    0    0  0.19108606082E+03 -0.71630689251E+02  0.44106277867E+03  0.48598478681E+03  0.00000000000E+00 0.  1.
          3    1    6    6  503    0 -0.47399200871E+03 -0.10381335784E+03  0.59790475181E+03  0.77002320083E+03  0.00000000000E+00 0. -1.
         -3    1    6    6    0  503 -0.37924073935E+03 -0.15261379230E+03  0.57096606249E+03  0.70222272286E+03  0.00000000000E+00 0.  1.
<mgrwt>
<rscale>  0 0.27025020E+04</rscale>
<asrwt>0</asrwt>
<pdfrwt beam="1">  1        2 0.13494622E+00 0.27025020E+04</pdfrwt>
<pdfrwt beam="2">  1       -3 0.32024666E+00 0.27025020E+04</pdfrwt>
<totfact> 0.48790216E-01</totfact>
</mgrwt>
</event>
<event>
12    6  0.1569942E-007  0.3041165E+04  0.7818608E-02  0.8232073E-01
          2   -1    0    0  501    0  0.00000000000E+00  0.00000000000E+00  0.33455344023E+04  0.33455344023E+04  0.00000000000E+00 0. -1.
         -1   -1    0    0    0  501 -0.00000000000E+00 -0.00000000000E+00 -0.69112144085E+03  0.69112144085E+03  0.00000000000E+00 0.  1.
         24    2    1    2    0    0  0.57886907411E+03 -0.10883011337E+04  0.36995045897E+03  0.12891069541E+04  0.73787766920E+02 0.  0.
        254    2    1    2    0    0 -0.57886907411E+03  0.10883011337E+04  0.22844625024E+04  0.27475488890E+04  0.90042612688E+03 0.  0.
         23    2    4    4    0    0 -0.74569041136E+03  0.97741787482E+03  0.15481809660E+04  0.19789492374E+04  0.89307832159E+02 0.  0.
         23    2    4    4    0    0  0.16682133725E+03  0.11088325884E+03  0.73628153644E+03  0.76859965166E+03  0.92252197747E+02 0.  0.
          4    1    3    3  502    0  0.82725555259E+02 -0.21605342604E+03  0.64738330350E+02  0.24023665793E+03  0.00000000000E+00 0. -1.
         -3    1    3    3    0  502  0.49614351885E+03 -0.87224770761E+03  0.30521212862E+03  0.10488702962E+04  0.00000000000E+00 0.  1.
         11    1    5    5    0    0 -0.27265112049E+03  0.30074518502E+03  0.54948896373E+03  0.68317232166E+03  0.00000000000E+00 0. -1.
        -11    1    5    5    0    0 -0.47303929087E+03  0.67667268980E+03  0.99869200228E+03  0.12957769157E+04  0.00000000000E+00 0.  1.
          1    1    6    6  503    0  0.16121938822E+03  0.11175760213E+03  0.58116126220E+03  0.61337579465E+03  0.00000000000E+00 0. -1.
         -1    1    6    6    0  503  0.56019490301E+01 -0.87434329937E+00  0.15512027423E+03  0.15522385702E+03  0.00000000000E+00 0.  1.
<mgrwt>
<rscale>  0 0.30411646E+04</rscale>
<asrwt>0</asrwt>
<pdfrwt beam="1">  1        2 0.51469759E+00 0.30411646E+04</pdfrwt>
<pdfrwt beam="2">  1       -1 0.10632638E+00 0.30411646E+04</pdfrwt>
<totfact> 0.83108179E-01</totfact>
</mgrwt>
</event>
<event>
12    6  0.1569942E-007  0.1630799E+04  0.7818608E-02  0.8801847E-01
         -1   -1    0    0    0  501 -0.00000000000E+00  0.00000000000E+00  0.45704782680E+03  0.45704782680E+03  0.00000000000E+00 0.  1.
          2   -1    0    0  501    0  0.00000000000E+00 -0.00000000000E+00 -0.14547200631E+04  0.14547200631E+04  0.00000000000E+00 0. -1.
         24    2    1    2    0    0 -0.21934744569E+03 -0.21186031139E+03 -0.90183791106E+03  0.95522742523E+03  0.78420167072E+02 0.  0.
        254    2    1    2    0    0  0.21934744569E+03  0.21186031139E+03 -0.95834325198E+02  0.95654046463E+03  0.90154719738E+03 0.  0.
         23    2    4    4    0    0 -0.31171967148E+03  0.68956981693E+02 -0.20189191986E+03  0.38873446066E+03  0.91814566872E+02 0.  0.
         23    2    4    4    0    0  0.53106711717E+03  0.14290332969E+03  0.10605759466E+03  0.56780600396E+03  0.93283439966E+02 0.  0.
          4    1    3    3  502    0 -0.22373349952E+03 -0.19691166319E+03 -0.87262704629E+03  0.92212192460E+03  0.00000000000E+00 0. -1.
         -3    1    3    3    0  502  0.43860538283E+01 -0.14948648197E+02 -0.29210864768E+02  0.33105500625E+02  0.00000000000E+00 0.  1.
         11    1    5    5    0    0 -0.88020761767E+02  0.28227938536E+02 -0.10951071825E+03  0.14330760074E+03  0.00000000000E+00 0.  1.
        -11    1    5    5    0    0 -0.22369890971E+03  0.40729043156E+02 -0.92381201604E+02  0.24542685993E+03  0.00000000000E+00 0. -1.
          2    1    6    6  503    0  0.37867716384E+03  0.14095695004E+03  0.94510151266E+02  0.41496677563E+03  0.00000000000E+00 0. -1.
         -2    1    6    6    0  503  0.15238995333E+03  0.19463796499E+01  0.11547443394E+02  0.15283922834E+03  0.00000000000E+00 0.  1.
<mgrwt>
<rscale>  0 0.16307994E+04</rscale>
<asrwt>0</asrwt>
<pdfrwt beam="1">  1        2 0.22380309E+00 0.16307994E+04</pdfrwt>
<pdfrwt beam="2">  1       -1 0.70315051E-01 0.16307994E+04</pdfrwt>
<totfact> 0.30012809E+01</totfact>
</mgrwt>
</event>
<event>
12    6  0.1569942E-007  0.1718436E+04  0.7818608E-02  0.8750919E-01
         -1   -1    0    0    0  501 -0.00000000000E+00  0.00000000000E+00  0.31837874024E+03  0.31837874024E+03  0.00000000000E+00 0.  1.
          2   -1    0    0  501    0  0.00000000000E+00 -0.00000000000E+00 -0.23187973465E+04  0.23187973465E+04  0.00000000000E+00 0. -1.
         24    2    1    2    0    0  0.55813979307E+03 -0.11554785326E+03 -0.10349238477E+04  0.11842360532E+04  0.80475612229E+02 0.  0.
        254    2    1    2    0    0 -0.55813979307E+03  0.11554785326E+03 -0.96549475859E+03  0.14529400336E+04  0.92411215620E+03 0.  0.
         23    2    4    4    0    0 -0.24751657545E+03  0.44156817292E+03 -0.18539063911E+03  0.54707266149E+03  0.93123044523E+02 0.  0.
         23    2    4    4    0    0 -0.31062321763E+03 -0.32602031967E+03 -0.78010411947E+03  0.90586737206E+03  0.96214481169E+02 0.  0.
          2    1    3    3  502    0  0.49999046139E+03 -0.12679340348E+03 -0.91125327567E+03  0.10471148748E+04  0.00000000000E+00 0. -1.
         -1    1    3    3    0  502  0.58149331678E+02  0.11245550229E+02 -0.12367057201E+03  0.13712117837E+03  0.00000000000E+00 0.  1.
         11    1    5    5    0    0 -0.15427662879E+03  0.26114499731E+03 -0.62466583937E+02  0.30967735132E+03  0.00000000000E+00 0. -1.
        -11    1    5    5    0    0 -0.93239946651E+02  0.18042317561E+03 -0.12292405518E+03  0.23739531017E+03  0.00000000000E+00 0.  1.
          1    1    6    6  503    0 -0.19188760032E+03 -0.26209038321E+03 -0.57488244759E+03  0.66030451208E+03  0.00000000000E+00 0. -1.
         -1    1    6    6    0  503 -0.11873561730E+03 -0.63929936458E+02 -0.20522167188E+03  0.24556285998E+03  0.00000000000E+00 0.  1.
<mgrwt>
<rscale>  0 0.17184362E+04</rscale>
<asrwt>0</asrwt>
<pdfrwt beam="1">  1        2 0.35673805E+00 0.17184362E+04</pdfrwt>
<pdfrwt beam="2">  1       -1 0.48981345E-01 0.17184362E+04</pdfrwt>
<totfact> 0.19995633E+01</totfact>
</mgrwt>
</event>
<event>
12    6  0.1569942E-007  0.1125510E+04  0.7818608E-02  0.9180679E-01
          2   -1    0    0  501    0  0.00000000000E+00  0.00000000000E+00  0.28551204440E+04  0.28551204440E+04  0.00000000000E+00 0. -1.
         -1   -1    0    0    0  501 -0.00000000000E+00 -0.00000000000E+00 -0.11092110812E+03  0.11092110812E+03  0.00000000000E+00 0.  1.
         24    2    1    2    0    0 -0.16437101460E+03  0.47564386053E+02  0.70913149729E+03  0.73215769914E+03  0.62507717158E+02 0.  0.
        254    2    1    2    0    0  0.16437101460E+03 -0.47564386053E+02  0.20350678386E+04  0.22338838530E+04  0.90523795746E+03 0.  0.
         23    2    4    4    0    0  0.95444970190E+02 -0.43117763068E+03  0.64373698007E+03  0.78611749805E+03  0.92517726434E+02 0.  0.
         23    2    4    4    0    0  0.68926044412E+02  0.38361324462E+03  0.13913308585E+04  0.14477663549E+04  0.91191773264E+02 0.  0.
          4    1    3    3  502    0 -0.57770476754E+02  0.38425201893E+02  0.37336229569E+03  0.37975429947E+03  0.00000000000E+00 0. -1.
         -3    1    3    3    0  502 -0.10660053785E+03  0.91391841599E+01  0.33576920160E+03  0.35240339967E+03  0.00000000000E+00 0.  1.
         11    1    5    5    0    0  0.80995124562E+02 -0.41374317647E+03  0.63420070685E+03  0.76154721643E+03  0.00000000000E+00 0. -1.
        -11    1    5    5    0    0  0.14449845628E+02 -0.17434454210E+02  0.95362732173E+01  0.24570281626E+02  0.00000000000E+00 0.  1.
          1    1    6    6  503    0  0.72618204589E+02  0.35080782382E+03  0.13372569729E+04  0.13844116961E+04  0.00000000000E+00 0. -1.
         -1    1    6    6    0  503 -0.36921601775E+01  0.32805420806E+02  0.54073885661E+02  0.63354658798E+02  0.00000000000E+00 0.  1.
<mgrwt>
<rscale>  0 0.11255099E+04</rscale>
<asrwt>0</asrwt>
<pdfrwt beam="1">  1        2 0.43924924E+00 0.11255099E+04</pdfrwt>
<pdfrwt beam="2">  1       -1 0.17064788E-01 0.11255099E+04</pdfrwt>
<totfact> 0.65312771E+01</totfact>
</mgrwt>
</event>
<event>
12    6  0.1569942E-007  0.1860103E+04  0.7818608E-02  0.8674974E-01
         -1   -1    0    0    0  501 -0.00000000000E+00  0.00000000000E+00  0.95586837583E+03  0.95586837583E+03  0.00000000000E+00 0.  1.
          2   -1    0    0  501    0  0.00000000000E+00 -0.00000000000E+00 -0.90493224627E+03  0.90493224627E+03  0.00000000000E+00 0. -1.
         24    2    1    2    0    0 -0.49285768508E+03 -0.19185567051E+02  0.52389624689E+03  0.72411735221E+03  0.81251944901E+02 0.  0.
        254    2    1    2    0    0  0.49285768508E+03  0.19185567051E+02 -0.47296011733E+03  0.11366832699E+04  0.90833958392E+03 0.  0.
         23    2    4    4    0    0  0.14737744259E+03 -0.37869837030E+03  0.94977552834E+01  0.41659821904E+03  0.91275968891E+02 0.  0.
         23    2    4    4    0    0  0.34548024249E+03  0.39788393735E+03 -0.48245787262E+03  0.72008505084E+03  0.89936955950E+02 0.  0.
          4    1    3    3  502    0 -0.11894457515E+03 -0.26747466244E+02  0.91558737586E+02  0.15246718118E+03  0.00000000000E+00 0. -1.
         -3    1    3    3    0  502 -0.37391310993E+03  0.75618991921E+01  0.43233750930E+03  0.57165017104E+03  0.00000000000E+00 0.  1.
         11    1    5    5    0    0  0.90165825076E+02 -0.26388541766E+03 -0.34487450712E+02  0.28098892135E+03  0.00000000000E+00 0.  1.
        -11    1    5    5    0    0  0.57211617513E+02 -0.11481295264E+03  0.43985205995E+02  0.13560929768E+03  0.00000000000E+00 0. -1.
          4    1    6    6  503    0  0.15003180843E+03  0.23655465459E+03 -0.23114891726E+03  0.36317691295E+03  0.00000000000E+00 0.  1.
         -4    1    6    6    0  503  0.19544843406E+03  0.16132928276E+03 -0.25130895536E+03  0.35690813789E+03  0.00000000000E+00 0. -1.
<mgrwt>
<rscale>  0 0.18601033E+04</rscale>
<asrwt>0</asrwt>
<pdfrwt beam="1">  1        2 0.13922035E+00 0.18601033E+04</pdfrwt>
<pdfrwt beam="2">  1       -1 0.14705667E+00 0.18601033E+04</pdfrwt>
<totfact> 0.11480489E+01</totfact>
</mgrwt>
</event>
<event>
12    6  0.1569942E-007  0.1983990E+04  0.7818608E-02  0.8614143E-01
         -1   -1    0    0    0  501 -0.00000000000E+00  0.00000000000E+00  0.59646143864E+03  0.59646143864E+03  0.00000000000E+00 0.  1.
          2   -1    0    0  501    0  0.00000000000E+00 -0.00000000000E+00 -0.16498202928E+04  0.16498202928E+04  0.00000000000E+00 0. -1.
         24    2    1    2    0    0  0.31920910529E+03  0.61264899319E+03 -0.50337273744E+01  0.69565393982E+03  0.81705714764E+02 0.  0.
        254    2    1    2    0    0 -0.31920910529E+03 -0.61264899319E+03 -0.10483251268E+04  0.15506277916E+04  0.91007018131E+03 0.  0.
         23    2    4    4    0    0 -0.62348996571E+03 -0.47495757856E+03 -0.81198999205E+03  0.11322930132E+04  0.91843789733E+02 0.  0.
         23    2    4    4    0    0  0.30428086042E+03 -0.13769141463E+03 -0.23633513470E+03  0.41833477842E+03  0.87200477363E+02 0.  0.
          2    1    3    3  502    0  0.13856309257E+03  0.31450557155E+03 -0.36636323802E+02  0.34562364703E+03  0.00000000000E+00 0. -1.
         -1    1    3    3    0  502  0.18064601272E+03  0.29814342163E+03  0.31602596428E+02  0.35003029280E+03  0.00000000000E+00 0.  1.
         11    1    5    5    0    0 -0.16457489074E+03 -0.10091997034E+03 -0.25127723608E+03  0.31687534528E+03  0.00000000000E+00 0. -1.
        -11    1    5    5    0    0 -0.45891507498E+03 -0.37403760821E+03 -0.56071275597E+03  0.81541766789E+03  0.00000000000E+00 0.  1.
          3    1    6    6  503    0  0.21936754373E+03 -0.13788845989E+03 -0.16279250829E+03  0.30600122119E+03  0.00000000000E+00 0. -1.
         -3    1    6    6    0  503  0.84913316699E+02  0.19704526457E+00 -0.73542626417E+02  0.11233355723E+03  0.00000000000E+00 0.  1.
<mgrwt>
<rscale>  0 0.19839901E+04</rscale>
<asrwt>0</asrwt>
<pdfrwt beam="1">  1        2 0.25381851E+00 0.19839901E+04</pdfrwt>
<pdfrwt beam="2">  1       -1 0.91763298E-01 0.19839901E+04</pdfrwt>
<totfact> 0.12823464E+01</totfact>
</mgrwt>
</event>
<event>
12    6  0.1569942E-007  0.1724732E+04  0.7818608E-02  0.8747383E-01
          2   -1    0    0  501    0  0.00000000000E+00  0.00000000000E+00  0.68812674787E+03  0.68812674787E+03  0.00000000000E+00 0. -1.
         -1   -1    0    0    0  501 -0.00000000000E+00 -0.00000000000E+00 -0.10807243429E+04  0.10807243429E+04  0.00000000000E+00 0.  1.
         24    2    1    2    0    0 -0.49296430447E+03 -0.12586146434E+02  0.24524473402E+03  0.55664394231E+03  0.80841093396E+02 0.  0.
        254    2    1    2    0    0  0.49296430447E+03  0.12586146434E+02 -0.63784232903E+03  0.12122071484E+04  0.90522434648E+03 0.  0.
         23    2    4    4    0    0  0.67772113077E+03 -0.19777612346E+01 -0.17603011333E+03  0.70629034051E+03  0.92464056096E+02 0.  0.
         23    2    4    4    0    0 -0.18475682630E+03  0.14563907669E+02 -0.46181221570E+03  0.50591680793E+03  0.91291301365E+02 0.  0.
          4    1    3    3  502    0 -0.27150313168E+02  0.14298011187E+02  0.29590213987E+02  0.42628082209E+02  0.00000000000E+00 0. -1.
         -3    1    3    3    0  502 -0.46581399130E+03 -0.26884157622E+02  0.21565452003E+03  0.51401586010E+03  0.00000000000E+00 0.  1.
         11    1    5    5    0    0  0.42800465094E+03  0.22480037936E+01 -0.64796514815E+02  0.43288754092E+03  0.00000000000E+00 0. -1.
        -11    1    5    5    0    0  0.24971647983E+03 -0.42257650282E+01 -0.11123359851E+03  0.27340279959E+03  0.00000000000E+00 0.  1.
          1    1    6    6  503    0 -0.15896057194E+03 -0.82153983856E+01 -0.43197982213E+03  0.46037215699E+03  0.00000000000E+00 0. -1.
         -1    1    6    6    0  503 -0.25796254359E+02  0.22779306055E+02 -0.29832393570E+02  0.45544650942E+02  0.00000000000E+00 0.  1.
<mgrwt>
<rscale>  0 0.17247322E+04</rscale>
<asrwt>0</asrwt>
<pdfrwt beam="1">  1        2 0.10586565E+00 0.17247322E+04</pdfrwt>
<pdfrwt beam="2">  1       -1 0.16626528E+00 0.17247322E+04</pdfrwt>
<totfact> 0.11907419E+01</totfact>
</mgrwt>
</event>
<event>
12    6  0.1569942E-007  0.1621461E+04  0.7818608E-02  0.8807471E-01
          2   -1    0    0  501    0  0.00000000000E+00  0.00000000000E+00  0.18903630847E+04  0.18903630847E+04  0.00000000000E+00 0. -1.
         -1   -1    0    0    0  501 -0.00000000000E+00 -0.00000000000E+00 -0.34770250872E+03  0.34770250872E+03  0.00000000000E+00 0.  1.
         24    2    1    2    0    0 -0.19233201234E+03 -0.35913798158E+02 -0.18560306352E+03  0.28085988720E+03  0.78437077841E+02 0.  0.
        254    2    1    2    0    0  0.19233201234E+03  0.35913798158E+02  0.17282636395E+04  0.19572057063E+04  0.89748401935E+03 0.  0.
         23    2    4    4    0    0  0.42374698528E+03  0.31799005866E+03  0.91318265804E+03  0.10595457339E+04  0.89751937326E+02 0.  0.
         23    2    4    4    0    0 -0.23141497295E+03 -0.28207626051E+03  0.81508098149E+03  0.89765997239E+03  0.91194918716E+02 0.  0.
          4    1    3    3  502    0 -0.53678175694E+02  0.21228579916E+02 -0.74373865660E+02  0.94146009179E+02  0.00000000000E+00 0. -1.
         -3    1    3    3    0  502 -0.13865383664E+03 -0.57142378075E+02 -0.11122919786E+03  0.18671387802E+03  0.00000000000E+00 0.  1.
         11    1    5    5    0    0  0.22379693932E+02  0.10630812233E+01  0.68920136681E+02  0.72470449717E+02  0.00000000000E+00 0.  1.
        -11    1    5    5    0    0  0.40136729135E+03  0.31692697744E+03  0.84426252136E+03  0.98707528415E+03  0.00000000000E+00 0. -1.
          1    1    6    6  503    0 -0.17445996239E+03 -0.26253233778E+03  0.70280834227E+03  0.77025909460E+03  0.00000000000E+00 0. -1.
         -1    1    6    6    0  503 -0.56955010553E+02 -0.19543922722E+02  0.11227263922E+03  0.12740087778E+03  0.00000000000E+00 0.  1.
<mgrwt>
<rscale>  0 0.16214611E+04</rscale>
<asrwt>0</asrwt>
<pdfrwt beam="1">  1        2 0.29082508E+00 0.16214611E+04</pdfrwt>
<pdfrwt beam="2">  1       -1 0.53492695E-01 0.16214611E+04</pdfrwt>
<totfact> 0.29560655E+01</totfact>
</mgrwt>
</event>
<event>
12    6  0.1569942E-007  0.1225080E+04  0.7818608E-02  0.9091183E-01
         -1   -1    0    0    0  501 -0.00000000000E+00  0.00000000000E+00  0.78149130414E+03  0.78149130414E+03  0.00000000000E+00 0.  1.
          2   -1    0    0  501    0  0.00000000000E+00 -0.00000000000E+00 -0.48011455955E+03  0.48011455955E+03  0.00000000000E+00 0. -1.
         24    2    1    2    0    0  0.51209822341E+01 -0.15319805840E+03  0.30074120441E+03  0.34752512829E+03  0.82659380639E+02 0.  0.
        254    2    1    2    0    0 -0.51209822341E+01  0.15319805840E+03  0.63554017899E+00  0.91408073540E+03  0.90113668074E+03 0.  0.
         23    2    4    4    0    0 -0.40209460658E+03  0.14110283109E+02 -0.17552340712E+03  0.44873718706E+03  0.93152691191E+02 0.  0.
         23    2    4    4    0    0  0.39697362434E+03  0.13908777529E+03  0.17615894730E+03  0.46534354834E+03  0.92623839327E+02 0.  0.
          4    1    3    3  502    0 -0.26198487681E+01 -0.60124883824E+02  0.44653804695E+02  0.74938825292E+02  0.00000000000E+00 0. -1.
         -3    1    3    3    0  502  0.77408310022E+01 -0.93073174574E+02  0.25608739971E+03  0.27258630300E+03  0.00000000000E+00 0.  1.
         11    1    5    5    0    0 -0.67398734105E+02 -0.32694957204E+02 -0.27676764025E+02  0.79859582095E+02  0.00000000000E+00 0.  1.
        -11    1    5    5    0    0 -0.33469587247E+03  0.46805240313E+02 -0.14784664310E+03  0.36887760497E+03  0.00000000000E+00 0. -1.
          1    1    6    6  503    0  0.33079668421E+03  0.93293981037E+02  0.10913314218E+03  0.36061094812E+03  0.00000000000E+00 0. -1.
         -1    1    6    6    0  503  0.66176940131E+02  0.45793794253E+02  0.67025805119E+02  0.10473260022E+03  0.00000000000E+00 0.  1.
<mgrwt>
<rscale>  0 0.12250802E+04</rscale>
<asrwt>0</asrwt>
<pdfrwt beam="1">  1        2 0.73863779E-01 0.12250802E+04</pdfrwt>
<pdfrwt beam="2">  1       -1 0.12022943E+00 0.12250802E+04</pdfrwt>
<totfact> 0.44833960E+01</totfact>
</mgrwt>
</event>
<event>
12    6  0.1569942E-007  0.1374215E+04  0.7818608E-02  0.8972698E-01
         -1   -1    0    0    0  501 -0.00000000000E+00  0.00000000000E+00  0.16776857088E+03  0.16776857088E+03  0.00000000000E+00 0.  1.
          2   -1    0    0  501    0  0.00000000000E+00 -0.00000000000E+00 -0.28140938328E+04  0.28140938328E+04  0.00000000000E+00 0. -1.
         24    2    1    2    0    0  0.16391079373E+03 -0.13679630503E+03 -0.14430753655E+04  0.14611112188E+04  0.82459115527E+02 0.  0.
        254    2    1    2    0    0 -0.16391079373E+03  0.13679630503E+03 -0.12032498964E+04  0.15207511849E+04  0.90514853800E+03 0.  0.
         23    2    4    4    0    0  0.57335457327E+02  0.75973370673E+02  0.11800694907E+03  0.17669093417E+03  0.90745459780E+02 0.  0.
         23    2    4    4    0    0 -0.22124625106E+03  0.60822934357E+02 -0.13212568455E+04  0.13440602508E+04  0.90160817158E+02 0.  0.
          4    1    3    3  502    0  0.87423256625E+02 -0.51875736228E+02 -0.92558998772E+03  0.93115559558E+03  0.00000000000E+00 0. -1.
         -3    1    3    3    0  502  0.76487537105E+02 -0.84920568802E+02 -0.51748537780E+03  0.52995562321E+03  0.00000000000E+00 0.  1.
         11    1    5    5    0    0 -0.69970183513E+01  0.25021189155E+02 -0.72232605178E+01  0.26966528606E+02  0.00000000000E+00 0.  1.
        -11    1    5    5    0    0  0.64332475678E+02  0.50952181518E+02  0.12523020958E+03  0.14972440556E+03  0.00000000000E+00 0. -1.
          2    1    6    6  503    0 -0.17846358986E+03  0.87784909172E+01 -0.99576325289E+03  0.10116673221E+04  0.00000000000E+00 0. -1.
         -2    1    6    6    0  503 -0.42782661197E+02  0.52044443440E+02 -0.32549359262E+03  0.33239292867E+03  0.00000000000E+00 0.  1.
<mgrwt>
<rscale>  0 0.13742147E+04</rscale>
<asrwt>0</asrwt>
<pdfrwt beam="1">  1        2 0.43293746E+00 0.13742147E+04</pdfrwt>
<pdfrwt beam="2">  1       -1 0.25810553E-01 0.13742147E+04</pdfrwt>
<totfact> 0.33627459E+01</totfact>
</mgrwt>
</event>
<event>
12    6  0.1569942E-007  0.2966477E+04  0.7818608E-02  0.8253369E-01
          2   -1    0    0  501    0  0.00000000000E+00  0.00000000000E+00  0.21789543134E+04  0.21789543134E+04  0.00000000000E+00 0. -1.
         -1   -1    0    0    0  501 -0.00000000000E+00 -0.00000000000E+00 -0.10096568339E+04  0.10096568339E+04  0.00000000000E+00 0.  1.
         24    2    1    2    0    0  0.71044998785E+03 -0.40566816318E+03  0.16759620960E+04  0.18666547195E+04  0.79025633482E+02 0.  0.
        254    2    1    2    0    0 -0.71044998785E+03  0.40566816318E+03 -0.50666461642E+03  0.13219564279E+04  0.90639611641E+03 0.  0.
         23    2    4    4    0    0 -0.23913352913E+03 -0.61664965594E+02  0.21426477160E+03  0.33788052245E+03  0.85243430059E+02 0.  0.
         23    2    4    4    0    0 -0.47131645872E+03  0.46733312878E+03 -0.72092938802E+03  0.98407590544E+03  0.90148475509E+02 0.  0.
          2    1    3    3  502    0  0.18775090662E+03 -0.12710885796E+03  0.53670036934E+03  0.58262711159E+03  0.00000000000E+00 0. -1.
         -1    1    3    3    0  502  0.52269908123E+03 -0.27855930522E+03  0.11392617266E+04  0.12840276079E+04  0.00000000000E+00 0.  1.
         11    1    5    5    0    0 -0.21047353412E+03 -0.77014109087E+02  0.16280961850E+03  0.27701489750E+03  0.00000000000E+00 0. -1.
        -11    1    5    5    0    0 -0.28659995014E+02  0.15349143493E+02  0.51455153098E+02  0.60865624949E+02  0.00000000000E+00 0.  1.
          2    1    6    6  503    0 -0.40698867603E+03  0.40467995079E+03 -0.66438324129E+03  0.87795827708E+03  0.00000000000E+00 0. -1.
         -2    1    6    6    0  503 -0.64327782686E+02  0.62653177989E+02 -0.56546146727E+02  0.10611762835E+03  0.00000000000E+00 0.  1.
<mgrwt>
<rscale>  0 0.29664768E+04</rscale>
<asrwt>0</asrwt>
<pdfrwt beam="1">  1        2 0.33522374E+00 0.29664768E+04</pdfrwt>
<pdfrwt beam="2">  1       -1 0.15533182E+00 0.29664768E+04</pdfrwt>
<totfact> 0.16432180E+00</totfact>
</mgrwt>
</event>
<event>
12    6  0.1569942E-007  0.1468758E+04  0.7818608E-02  0.8905499E-01
         -1   -1    0    0    0  501 -0.00000000000E+00  0.00000000000E+00  0.15898288412E+03  0.15898288412E+03  0.00000000000E+00 0.  1.
          2   -1    0    0  501    0  0.00000000000E+00 -0.00000000000E+00 -0.33922655774E+04  0.33922655774E+04  0.00000000000E+00 0. -1.
         24    2    1    2    0    0 -0.74712418790E+02  0.18824273652E+03 -0.29958636260E+02  0.21961226436E+03  0.79465422638E+02 0.  0.
        254    2    1    2    0    0  0.74712418790E+02 -0.18824273652E+03 -0.32033240570E+04  0.33316361971E+04  0.89302713431E+03 0.  0.
         23    2    4    4    0    0 -0.24339891411E+03 -0.25941264079E+03 -0.27112839648E+04  0.27360828679E+04  0.92470389957E+02 0.  0.
         23    2    4    4    0    0  0.31811133290E+03  0.71169904269E+02 -0.49204009221E+03  0.59555332919E+03  0.79500567141E+02 0.  0.
          4    1    3    3  502    0 -0.18989490266E+02  0.34713153048E+01  0.11148175068E+02  0.22291984610E+02  0.00000000000E+00 0. -1.
         -3    1    3    3    0  502 -0.55722928523E+02  0.18477142122E+03 -0.41106811329E+02  0.19732027975E+03  0.00000000000E+00 0.  1.
         11    1    5    5    0    0 -0.18267827216E+03 -0.16454078557E+03 -0.15537151961E+04  0.15730467036E+04  0.00000000000E+00 0.  1.
        -11    1    5    5    0    0 -0.60720641952E+02 -0.94871855228E+02 -0.11575687687E+04  0.11630361643E+04  0.00000000000E+00 0. -1.
          3    1    6    6  503    0  0.24828367119E+02  0.30094029761E+02 -0.48706121946E+02  0.62405005857E+02  0.00000000000E+00 0. -1.
         -3    1    6    6    0  503  0.29328296578E+03  0.41075874509E+02 -0.44333397027E+03  0.53314832333E+03  0.00000000000E+00 0.  1.
<mgrwt>
<rscale>  0 0.14687575E+04</rscale>
<asrwt>0</asrwt>
<pdfrwt beam="1">  1        2 0.52188698E+00 0.14687575E+04</pdfrwt>
<pdfrwt beam="2">  1       -1 0.24458907E-01 0.14687575E+04</pdfrwt>
<totfact> 0.15685655E+01</totfact>
</mgrwt>
</event>
<event>
12    6  0.1569942E-007  0.1136044E+04  0.7818608E-02  0.9170756E-01
         -1   -1    0    0    0  501 -0.00000000000E+00  0.00000000000E+00  0.37586633539E+03  0.37586633539E+03  0.00000000000E+00 0.  1.
          2   -1    0    0  501    0  0.00000000000E+00 -0.00000000000E+00 -0.85841411763E+03  0.85841411763E+03  0.00000000000E+00 0. -1.
         24    2    1    2    0    0 -0.24565994711E+02 -0.14201528035E+03  0.40014966109E+02  0.16813361004E+03  0.76784668803E+02 0.  0.
        254    2    1    2    0    0  0.24565994711E+02  0.14201528035E+03 -0.52256274834E+03  0.10661468430E+04  0.91805524718E+03 0.  0.
         23    2    4    4    0    0 -0.11403268116E+03 -0.34533295430E+03 -0.72535998034E+02  0.38239641622E+03  0.93312627405E+02 0.  0.
         23    2    4    4    0    0  0.13859867587E+03  0.48734823465E+03 -0.45002675031E+03  0.68375042675E+03  0.90954248499E+02 0.  0.
          4    1    3    3  502    0  0.10245810176E+02 -0.23441101310E+02  0.36414376908E+02  0.44502457262E+02  0.00000000000E+00 0. -1.
         -3    1    3    3    0  502 -0.34811804887E+02 -0.11857417904E+03  0.36005892012E+01  0.12363115278E+03  0.00000000000E+00 0.  1.
         11    1    5    5    0    0 -0.49079200790E+02 -0.11235583903E+03 -0.68617507657E+02  0.14050254400E+03  0.00000000000E+00 0.  1.
        -11    1    5    5    0    0 -0.64953480372E+02 -0.23297711527E+03 -0.39184903769E+01  0.24189387222E+03  0.00000000000E+00 0. -1.
          3    1    6    6  503    0  0.13663379155E+03  0.38254590381E+03 -0.38913531052E+03  0.56252684506E+03  0.00000000000E+00 0. -1.
         -3    1    6    6    0  503  0.19648843236E+01  0.10480233084E+03 -0.60891439788E+02  0.12122358169E+03  0.00000000000E+00 0.  1.
<mgrwt>
<rscale>  0 0.11360440E+04</rscale>
<asrwt>0</asrwt>
<pdfrwt beam="1">  1        2 0.13206371E+00 0.11360440E+04</pdfrwt>
<pdfrwt beam="2">  1       -1 0.57825590E-01 0.11360440E+04</pdfrwt>
<totfact> 0.10725384E+02</totfact>
</mgrwt>
</event>
<event>
12    6  0.1569942E-007  0.2427869E+04  0.7818608E-02  0.8429143E-01
         -1   -1    0    0    0  501 -0.00000000000E+00  0.00000000000E+00  0.77780804537E+03  0.77780804537E+03  0.00000000000E+00 0.  1.
          2   -1    0    0  501    0  0.00000000000E+00 -0.00000000000E+00 -0.18946017877E+04  0.18946017877E+04  0.00000000000E+00 0. -1.
         24    2    1    2    0    0  0.29019583368E+03  0.52473724568E+03 -0.14289436931E+04  0.15517866954E+04  0.81234666336E+02 0.  0.
        254    2    1    2    0    0 -0.29019583368E+03 -0.52473724568E+03  0.31214995072E+03  0.11206231377E+04  0.89375378390E+03 0.  0.
         23    2    4    4    0    0 -0.58667343114E+03 -0.25646058652E+03  0.29148382668E+03  0.70947003659E+03  0.91799587989E+02 0.  0.
         23    2    4    4    0    0  0.29647759746E+03 -0.26827665915E+03  0.20666124043E+02  0.41115310116E+03  0.93533161309E+02 0.  0.
          2    1    3    3  502    0  0.33239508853E+02  0.85707920859E+02 -0.29441307153E+03  0.30843114196E+03  0.00000000000E+00 0. -1.
         -1    1    3    3    0  502  0.25695632483E+03  0.43902932482E+03 -0.11345306215E+04  0.12433555534E+04  0.00000000000E+00 0.  1.
         11    1    5    5    0    0 -0.57662211765E+03 -0.25444424186E+03  0.29816298106E+03  0.69723461049E+03  0.00000000000E+00 0. -1.
        -11    1    5    5    0    0 -0.10051313491E+02 -0.20163446632E+01 -0.66791543842E+01  0.12235426105E+02  0.00000000000E+00 0.  1.
          2    1    6    6  503    0  0.11523542683E+03 -0.78226180318E+02  0.47529807478E+02  0.14716528627E+03  0.00000000000E+00 0.  1.
         -2    1    6    6    0  503  0.18124217063E+03 -0.19005047884E+03 -0.26863683435E+02  0.26398781489E+03  0.00000000000E+00 0. -1.
<mgrwt>
<rscale>  0 0.24278686E+04</rscale>
<asrwt>0</asrwt>
<pdfrwt beam="1">  1        2 0.29147719E+00 0.24278686E+04</pdfrwt>
<pdfrwt beam="2">  1       -1 0.11966278E+00 0.24278686E+04</pdfrwt>
<totfact> 0.48668685E+00</totfact>
</mgrwt>
</event>
<event>
12    6  0.1569942E-007  0.2079639E+04  0.7818608E-02  0.8570266E-01
          2   -1    0    0  501    0  0.00000000000E+00  0.00000000000E+00  0.10928366006E+04  0.10928366006E+04  0.00000000000E+00 0. -1.
         -1   -1    0    0    0  501 -0.00000000000E+00 -0.00000000000E+00 -0.98937419425E+03  0.98937419425E+03  0.00000000000E+00 0.  1.
         24    2    1    2    0    0  0.75034576098E+03  0.12225024906E+03  0.36587812133E+03  0.84766011888E+03  0.81835157822E+02 0.  0.
        254    2    1    2    0    0 -0.75034576098E+03 -0.12225024906E+03 -0.26241571500E+03  0.12345506760E+04  0.93663732554E+03 0.  0.
         23    2    4    4    0    0 -0.40739646741E+03  0.14464742761E+03  0.28754058631E+03  0.52725981199E+03  0.91807192471E+02 0.  0.
         23    2    4    4    0    0 -0.34294929358E+03 -0.26689767667E+03 -0.54995630131E+03  0.70729086396E+03  0.94656458401E+02 0.  0.
          4    1    3    3  502    0  0.50085439920E+03  0.47411658996E+02  0.26209833227E+03  0.56727288881E+03  0.00000000000E+00 0. -1.
         -3    1    3    3    0  502  0.24949136179E+03  0.74838590061E+02  0.10377978905E+03  0.28038723007E+03  0.00000000000E+00 0.  1.
         11    1    5    5    0    0 -0.39068371106E+03  0.14495231684E+03  0.24945453988E+03  0.48566707085E+03  0.00000000000E+00 0. -1.
        -11    1    5    5    0    0 -0.16712756351E+02 -0.30488922722E+00  0.38086046437E+02  0.41592741139E+02  0.00000000000E+00 0.  1.
          4    1    6    6  503    0 -0.12686991323E+03 -0.62267067490E+02 -0.23307644286E+03  0.27257621098E+03  0.00000000000E+00 0.  1.
         -4    1    6    6    0  503 -0.21607938035E+03 -0.20463060918E+03 -0.31687985845E+03  0.43471465298E+03  0.00000000000E+00 0. -1.
<mgrwt>
<rscale>  0 0.20796387E+04</rscale>
<asrwt>0</asrwt>
<pdfrwt beam="1">  1        2 0.16812871E+00 0.20796387E+04</pdfrwt>
<pdfrwt beam="2">  1       -1 0.15221141E+00 0.20796387E+04</pdfrwt>
<totfact> 0.77697943E+00</totfact>
</mgrwt>
</event>
<event>
12    6  0.1569942E-007  0.1932307E+04  0.7818608E-02  0.8638940E-01
          2   -1    0    0  501    0  0.00000000000E+00  0.00000000000E+00  0.87247166828E+03  0.87247166828E+03  0.00000000000E+00 0. -1.
         -1   -1    0    0    0  501 -0.00000000000E+00 -0.00000000000E+00 -0.10698946064E+04  0.10698946064E+04  0.00000000000E+00 0.  1.
         24    2    1    2    0    0 -0.44077520651E+03  0.60186155928E+03 -0.14291681698E+03  0.76367209547E+03  0.79055256673E+02 0.  0.
        254    2    1    2    0    0  0.44077520651E+03 -0.60186155928E+03 -0.54506121121E+02  0.11786941792E+04  0.91094946711E+03 0.  0.
         23    2    4    4    0    0  0.21470620346E+03 -0.12413879850E+03  0.39711000268E+03  0.47694042616E+03  0.90920958966E+02 0.  0.
         23    2    4    4    0    0  0.22606900305E+03 -0.47772276078E+03 -0.45161612380E+03  0.70175375304E+03  0.95786096672E+02 0.  0.
          4    1    3    3  502    0 -0.29507516123E+03  0.42584503803E+03 -0.13336754019E+03  0.53497686676E+03  0.00000000000E+00 0. -1.
         -3    1    3    3    0  502 -0.14570004528E+03  0.17601652124E+03 -0.95492767902E+01  0.22869522870E+03  0.00000000000E+00 0.  1.
         11    1    5    5    0    0  0.45426260563E+02 -0.57303875407E+02  0.63193286994E+02  0.96647145879E+02  0.00000000000E+00 0.  1.
        -11    1    5    5    0    0  0.16927994290E+03 -0.66834923094E+02  0.33391671569E+03  0.38029328028E+03  0.00000000000E+00 0. -1.
          1    1    6    6  503    0  0.11087047408E+03 -0.31529166997E+03 -0.32237133720E+03  0.46435372102E+03  0.00000000000E+00 0. -1.
         -1    1    6    6    0  503  0.11519852897E+03 -0.16243109081E+03 -0.12924478660E+03  0.23740003202E+03  0.00000000000E+00 0.  1.
<mgrwt>
<rscale>  0 0.19323072E+04</rscale>
<asrwt>0</asrwt>
<pdfrwt beam="1">  1        2 0.13422641E+00 0.19323072E+04</pdfrwt>
<pdfrwt beam="2">  1       -1 0.16459917E+00 0.19323072E+04</pdfrwt>
<totfact> 0.88075181E+00</totfact>
</mgrwt>
</event>
<event>
12    6  0.1569942E-007  0.1123544E+04  0.7818608E-02  0.9182544E-01
         -1   -1    0    0    0  501 -0.00000000000E+00  0.00000000000E+00  0.30659229207E+03  0.30659229207E+03  0.00000000000E+00 0.  1.
          2   -1    0    0  501    0  0.00000000000E+00 -0.00000000000E+00 -0.10293393252E+04  0.10293393252E+04  0.00000000000E+00 0. -1.
         24    2    1    2    0    0 -0.11475219057E+03  0.14414095232E+03 -0.16281934208E+03  0.25922065010E+03  0.82100718057E+02 0.  0.
        254    2    1    2    0    0  0.11475219057E+03 -0.14414095232E+03 -0.55992769102E+03  0.10767109671E+04  0.90102320070E+03 0.  0.
         23    2    4    4    0    0 -0.21559992578E+02 -0.46333574139E+03 -0.53937824053E+03  0.71729161065E+03  0.91834230104E+02 0.  0.
         23    2    4    4    0    0  0.13631218315E+03  0.31919478907E+03 -0.20549450483E+02  0.35941935648E+03  0.91069584689E+02 0.  0.
          2    1    3    3  502    0 -0.60503243753E+02  0.19883285534E+02 -0.71503518141E+02  0.95753541213E+02  0.00000000000E+00 0. -1.
         -1    1    3    3    0  502 -0.54248946818E+02  0.12425766678E+03 -0.91315823941E+02  0.16346710889E+03  0.00000000000E+00 0.  1.
         11    1    5    5    0    0  0.33300330837E+01 -0.29459407849E+01 -0.29632440873E+02  0.29964132551E+02  0.00000000000E+00 0. -1.
        -11    1    5    5    0    0 -0.24890025662E+02 -0.46038980060E+03 -0.50974579966E+03  0.68732747810E+03  0.00000000000E+00 0.  1.
          2    1    6    6  503    0  0.39101858999E+02  0.56964757975E+02  0.29815108846E+02  0.75252107903E+02  0.00000000000E+00 0. -1.
         -2    1    6    6    0  503  0.97210324150E+02  0.26223003109E+03 -0.50364559329E+02  0.28416724858E+03  0.00000000000E+00 0.  1.
<mgrwt>
<rscale>  0 0.11235435E+04</rscale>
<asrwt>0</asrwt>
<pdfrwt beam="1">  1        2 0.15835990E+00 0.11235435E+04</pdfrwt>
<pdfrwt beam="2">  1       -1 0.47168045E-01 0.11235435E+04</pdfrwt>
<totfact> 0.12223017E+02</totfact>
</mgrwt>
</event>
<event>
12    6  0.1569942E-007  0.1602361E+04  0.7818608E-02  0.8819099E-01
         -1   -1    0    0    0  501 -0.00000000000E+00  0.00000000000E+00  0.10876352845E+04  0.10876352845E+04  0.00000000000E+00 0.  1.
          2   -1    0    0  501    0  0.00000000000E+00 -0.00000000000E+00 -0.59017067134E+03  0.59017067134E+03  0.00000000000E+00 0. -1.
         24    2    1    2    0    0 -0.81468509564E+02 -0.11237629229E+03 -0.40259604205E+03  0.43304969597E+03  0.78631526704E+02 0.  0.
        254    2    1    2    0    0  0.81468509564E+02  0.11237629229E+03  0.90006065516E+03  0.12447562598E+04  0.84855371913E+03 0.  0.
         23    2    4    4    0    0  0.10239025917E+03  0.32569437959E+03  0.94321321885E+03  0.10073449415E+04  0.92369155209E+02 0.  0.
         23    2    4    4    0    0 -0.20921749606E+02 -0.21331808730E+03 -0.43152563689E+02  0.23741131834E+03  0.92518454094E+02 0.  0.
          4    1    3    3  502    0 -0.97215870383E+02 -0.93644130699E+02 -0.33599704221E+03  0.36209689455E+03  0.00000000000E+00 0. -1.
         -3    1    3    3    0  502  0.15747360819E+02 -0.18732161594E+02 -0.66598999839E+02  0.70952801427E+02  0.00000000000E+00 0.  1.
         11    1    5    5    0    0  0.11418290163E+03  0.31063143672E+03  0.91699555342E+03  0.97488997815E+03  0.00000000000E+00 0.  1.
        -11    1    5    5    0    0 -0.11792642455E+02  0.15062942873E+02  0.26217665433E+02  0.32454963332E+02  0.00000000000E+00 0. -1.
          2    1    6    6  503    0  0.35297097973E+02 -0.10074120857E+03 -0.95730908952E+01  0.10717425204E+03  0.00000000000E+00 0. -1.
         -2    1    6    6    0  503 -0.56218847578E+02 -0.11257687872E+03 -0.33579472793E+02  0.13023706630E+03  0.00000000000E+00 0.  1.
<mgrwt>
<rscale>  0 0.16023613E+04</rscale>
<asrwt>0</asrwt>
<pdfrwt beam="1">  1        2 0.90795488E-01 0.16023613E+04</pdfrwt>
<pdfrwt beam="2">  1       -1 0.16732850E+00 0.16023613E+04</pdfrwt>
<totfact> 0.14272149E+01</totfact>
</mgrwt>
</event>
<event>
12    6  0.1569942E-007  0.2312105E+04  0.7818608E-02  0.8473164E-01
          2   -1    0    0  501    0  0.00000000000E+00  0.00000000000E+00  0.18853930172E+04  0.18853930172E+04  0.00000000000E+00 0. -1.
         -1   -1    0    0    0  501 -0.00000000000E+00 -0.00000000000E+00 -0.70884802770E+03  0.70884802770E+03  0.00000000000E+00 0.  1.
         24    2    1    2    0    0  0.88783892969E+03  0.18799758424E+03  0.11575596634E+03  0.91850130822E+03  0.81511672202E+02 0.  0.
        254    2    1    2    0    0 -0.88783892969E+03 -0.18799758424E+03  0.10607890232E+04  0.16757397367E+04  0.92694619947E+03 0.  0.
         23    2    4    4    0    0 -0.56240393457E+03 -0.49239694150E+03  0.34715298823E+03  0.82940085168E+03  0.92938914999E+02 0.  0.
         23    2    4    4    0    0 -0.32543499513E+03  0.30439935726E+03  0.71363603494E+03  0.84633888501E+03  0.91903281577E+02 0.  0.
          2    1    3    3  502    0  0.69300717631E+02  0.32330609639E+02 -0.47722194038E+01  0.76620048694E+02  0.00000000000E+00 0. -1.
         -1    1    3    3    0  502  0.81853821206E+03  0.15566697460E+03  0.12052818575E+03  0.84188125953E+03  0.00000000000E+00 0.  1.
         11    1    5    5    0    0 -0.25194420814E+03 -0.16429277986E+03  0.15718903545E+03  0.33937647885E+03  0.00000000000E+00 0. -1.
        -11    1    5    5    0    0 -0.31045972643E+03 -0.32810416164E+03  0.18996395278E+03  0.49002437284E+03  0.00000000000E+00 0.  1.
          1    1    6    6  503    0 -0.27822099814E+01  0.67680464853E+01  0.50829469129E+02  0.51353501123E+02  0.00000000000E+00 0. -1.
         -1    1    6    6    0  503 -0.32265278514E+03  0.29763131077E+03  0.66280656581E+03  0.79498538389E+03  0.00000000000E+00 0.  1.
<mgrwt>
<rscale>  0 0.23121048E+04</rscale>
<asrwt>0</asrwt>
<pdfrwt beam="1">  1        2 0.29006046E+00 0.23121048E+04</pdfrwt>
<pdfrwt beam="2">  1       -1 0.10905354E+00 0.23121048E+04</pdfrwt>
<totfact> 0.62126099E+00</totfact>
</mgrwt>
</event>
<event>
12    6  0.1569942E-007  0.2312917E+04  0.7818608E-02  0.8472845E-01
          2   -1    0    0  501    0  0.00000000000E+00  0.00000000000E+00  0.79732230348E+03  0.79732230348E+03  0.00000000000E+00 0. -1.
         -1   -1    0    0    0  501 -0.00000000000E+00 -0.00000000000E+00 -0.16773596275E+04  0.16773596275E+04  0.00000000000E+00 0.  1.
         24    2    1    2    0    0 -0.62823443950E+03 -0.85504978454E+02 -0.11703793930E+04  0.13332794158E+04  0.76527542378E+02 0.  0.
        254    2    1    2    0    0  0.62823443950E+03  0.85504978454E+02  0.29034206897E+03  0.11414025152E+04  0.90361029894E+03 0.  0.
         23    2    4    4    0    0  0.33126023362E+03 -0.22068297501E+03  0.50972055019E+03  0.65295764494E+03  0.90024046598E+02 0.  0.
         23    2    4    4    0    0  0.29697420588E+03  0.30618795347E+03 -0.21937848122E+03  0.48844487024E+03  0.92231943690E+02 0.  0.
          4    1    3    3  502    0 -0.38335319940E+01 -0.54932394802E+01 -0.29495953919E+02  0.30247032006E+02  0.00000000000E+00 0. -1.
         -3    1    3    3    0  502 -0.62440090750E+03 -0.80011738974E+02 -0.11408834391E+04  0.13030323838E+04  0.00000000000E+00 0.  1.
         11    1    5    5    0    0  0.94184558452E+02 -0.11310856044E+03  0.16781858289E+03  0.22322041631E+03  0.00000000000E+00 0. -1.
        -11    1    5    5    0    0  0.23707567516E+03 -0.10757441457E+03  0.34190196731E+03  0.42973722863E+03  0.00000000000E+00 0.  1.
          3    1    6    6  503    0  0.21381041893E+03  0.17539274667E+03 -0.10496919565E+03  0.29579730030E+03  0.00000000000E+00 0. -1.
         -3    1    6    6    0  503  0.83163786949E+02  0.13079520679E+03 -0.11440928557E+03  0.19264756994E+03  0.00000000000E+00 0.  1.
<mgrwt>
<rscale>  0 0.23129170E+04</rscale>
<asrwt>0</asrwt>
<pdfrwt beam="1">  1        2 0.12266497E+00 0.23129170E+04</pdfrwt>
<pdfrwt beam="2">  1       -1 0.25805533E+00 0.23129170E+04</pdfrwt>
<totfact> 0.22083350E+00</totfact>
</mgrwt>
</event>
<event>
12    6  0.1569942E-007  0.1417038E+04  0.7818608E-02  0.8941577E-01
         -1   -1    0    0    0  501 -0.00000000000E+00  0.00000000000E+00  0.30149249947E+03  0.30149249947E+03  0.00000000000E+00 0.  1.
          2   -1    0    0  501    0  0.00000000000E+00 -0.00000000000E+00 -0.16650458275E+04  0.16650458275E+04  0.00000000000E+00 0. -1.
         24    2    1    2    0    0  0.44527087300E+03  0.10434808669E+03 -0.55249135057E+03  0.72176058325E+03  0.80851552528E+02 0.  0.
        254    2    1    2    0    0 -0.44527087300E+03 -0.10434808669E+03 -0.81106197747E+03  0.12447777437E+04  0.82613281404E+03 0.  0.
         23    2    4    4    0    0 -0.22145882316E+03  0.16694475745E+03  0.62771673769E+02  0.29856379230E+03  0.91024681538E+02 0.  0.
         23    2    4    4    0    0 -0.22381204984E+03 -0.27129284414E+03 -0.87383365124E+03  0.94621395142E+03  0.89688075569E+02 0.  0.
          4    1    3    3  502    0  0.61878143744E+02 -0.13307002887E+02 -0.80368991096E+02  0.10229934374E+03  0.00000000000E+00 0. -1.
         -3    1    3    3    0  502  0.38339272925E+03  0.11765508957E+03 -0.47212235947E+03  0.61946123951E+03  0.00000000000E+00 0.  1.
         11    1    5    5    0    0 -0.20094259070E+03  0.10570803415E+03  0.43632396949E+02  0.23120531850E+03  0.00000000000E+00 0. -1.
        -11    1    5    5    0    0 -0.20516232459E+02  0.61236723298E+02  0.19139276820E+02  0.67358473794E+02  0.00000000000E+00 0.  1.
          4    1    6    6  503    0 -0.14845659155E+03 -0.23801260182E+03 -0.66815891199E+03  0.72465556637E+03  0.00000000000E+00 0. -1.
         -4    1    6    6    0  503 -0.75355458285E+02 -0.33280242314E+02 -0.20567473925E+03  0.22155838505E+03  0.00000000000E+00 0.  1.
<mgrwt>
<rscale>  0 0.14170375E+04</rscale>
<asrwt>0</asrwt>
<pdfrwt beam="1">  1        2 0.25616090E+00 0.14170375E+04</pdfrwt>
<pdfrwt beam="2">  1       -1 0.46383461E-01 0.14170375E+04</pdfrwt>
<totfact> 0.52557311E+01</totfact>
</mgrwt>
</event>
<event>
12    6  0.1569942E-007  0.1211205E+04  0.7818608E-02  0.9103105E-01
          2   -1    0    0  501    0  0.00000000000E+00  0.00000000000E+00  0.24568205237E+04  0.24568205237E+04  0.00000000000E+00 0. -1.
         -3   -1    0    0    0  501 -0.00000000000E+00 -0.00000000000E+00 -0.14928013358E+03  0.14928013358E+03  0.00000000000E+00 0.  1.
         24    2    1    2    0    0  0.23385293404E+02  0.25567961080E+02  0.10606523566E+04  0.10635521227E+04  0.70420902875E+02 0.  0.
        254    2    1    2    0    0 -0.23385293404E+02 -0.25567961080E+02  0.12468880334E+04  0.15425485345E+04  0.90748312421E+03 0.  0.
         23    2    4    4    0    0 -0.45412139743E+03 -0.41315490998E+02  0.70138122749E+03  0.84141378199E+03  0.90046170589E+02 0.  0.
         23    2    4    4    0    0  0.43073610403E+03  0.15747529918E+02  0.54550680595E+03  0.70113475250E+03  0.90723149267E+02 0.  0.
          2    1    3    3  502    0  0.10613099016E+02  0.39167476830E+02  0.97709242229E+03  0.97793472728E+03  0.00000000000E+00 0. -1.
         -1    1    3    3    0  502  0.12772194388E+02 -0.13599515751E+02  0.83559934347E+02  0.85617395465E+02  0.00000000000E+00 0.  1.
         11    1    5    5    0    0 -0.12950229984E+01 -0.91884439137E+01  0.62850022847E+01  0.11207401119E+02  0.00000000000E+00 0. -1.
        -11    1    5    5    0    0 -0.45282637444E+03 -0.32127047085E+02  0.69509622520E+03  0.83020638087E+03  0.00000000000E+00 0.  1.
          4    1    6    6  503    0  0.33735317140E+02  0.23685572595E+02  0.73950037707E+02  0.84662187832E+02  0.00000000000E+00 0. -1.
         -4    1    6    6    0  503  0.39700078689E+03 -0.79380426770E+01  0.47155676824E+03  0.61647256467E+03  0.00000000000E+00 0.  1.
<mgrwt>
<rscale>  0 0.12112052E+04</rscale>
<asrwt>0</asrwt>
<pdfrwt beam="1">  1        2 0.37797236E+00 0.12112052E+04</pdfrwt>
<pdfrwt beam="2">  1       -3 0.22966176E-01 0.12112052E+04</pdfrwt>
<totfact> 0.42457620E+01</totfact>
</mgrwt>
</event>
<event>
12    6  0.1569942E-007  0.1611023E+04  0.7818608E-02  0.8813805E-01
          2   -1    0    0  501    0  0.00000000000E+00  0.00000000000E+00  0.15056085557E+04  0.15056085557E+04  0.00000000000E+00 0. -1.
         -1   -1    0    0    0  501 -0.00000000000E+00 -0.00000000000E+00 -0.43095427954E+03  0.43095427954E+03  0.00000000000E+00 0.  1.
         24    2    1    2    0    0 -0.17499553676E+03  0.13668821517E+03 -0.23277889423E+03  0.33164126652E+03  0.80577974665E+02 0.  0.
        254    2    1    2    0    0  0.17499553676E+03 -0.13668821517E+03  0.13074331704E+04  0.16049215687E+04  0.90392734257E+03 0.  0.
         23    2    4    4    0    0  0.36274625125E+03 -0.42973184297E+03  0.76218819271E+03  0.95177394672E+03  0.93212149898E+02 0.  0.
         23    2    4    4    0    0 -0.18775071449E+03  0.29304362780E+03  0.54524497765E+03  0.65314762197E+03  0.90470060527E+02 0.  0.
          4    1    3    3  502    0 -0.25744031609E+02  0.66193788115E+02 -0.75209753134E+02  0.10344505650E+03  0.00000000000E+00 0. -1.
         -3    1    3    3    0  502 -0.14925150516E+03  0.70494427060E+02 -0.15756914110E+03  0.22819621001E+03  0.00000000000E+00 0.  1.
         11    1    5    5    0    0  0.32594454600E+02 -0.78799626494E+02  0.82677999451E+02  0.11877470774E+03  0.00000000000E+00 0.  1.
        -11    1    5    5    0    0  0.33015179665E+03 -0.35093221648E+03  0.67951019326E+03  0.83299923898E+03  0.00000000000E+00 0. -1.
          1    1    6    6  503    0 -0.18618374800E+03  0.27364542769E+03  0.46619766386E+03  0.57173986209E+03  0.00000000000E+00 0. -1.
         -1    1    6    6    0  503 -0.15669664887E+01  0.19398200105E+02  0.79047313792E+02  0.81407759882E+02  0.00000000000E+00 0.  1.
<mgrwt>
<rscale>  0 0.16110226E+04</rscale>
<asrwt>0</asrwt>
<pdfrwt beam="1">  1        2 0.23163208E+00 0.16110226E+04</pdfrwt>
<pdfrwt beam="2">  1       -1 0.66300659E-01 0.16110226E+04</pdfrwt>
<totfact> 0.31716135E+01</totfact>
</mgrwt>
</event>
<event>
12    6  0.1569942E-007  0.1473117E+04  0.7818608E-02  0.8902530E-01
          2   -1    0    0  501    0  0.00000000000E+00  0.00000000000E+00  0.27404685813E+04  0.27404685813E+04  0.00000000000E+00 0. -1.
         -1   -1    0    0    0  501 -0.00000000000E+00 -0.00000000000E+00 -0.19796545527E+03  0.19796545527E+03  0.00000000000E+00 0.  1.
         24    2    1    2    0    0 -0.26092224059E+03 -0.36341915173E+03  0.10021161313E+04  0.11003754031E+04  0.80220892621E+02 0.  0.
        254    2    1    2    0    0  0.26092224059E+03  0.36341915173E+03  0.15403869948E+04  0.18380586335E+04  0.89750406747E+03 0.  0.
         23    2    4    4    0    0  0.38145321365E+03 -0.18331907289E+03  0.60850756694E+03  0.74692558697E+03  0.92216792156E+02 0.  0.
         23    2    4    4    0    0 -0.12053097306E+03  0.54673822462E+03  0.93187942786E+03  0.10911330466E+04  0.93389804264E+02 0.  0.
          4    1    3    3  502    0 -0.17381752893E+03 -0.30018822805E+03  0.76717129802E+03  0.84194851751E+03  0.00000000000E+00 0. -1.
         -3    1    3    3    0  502 -0.87104711666E+02 -0.63230923682E+02  0.23494483325E+03  0.25842688555E+03  0.00000000000E+00 0.  1.
         11    1    5    5    0    0  0.71661653556E+02 -0.52147162283E+01  0.67678580231E+02  0.98706514870E+02  0.00000000000E+00 0. -1.
        -11    1    5    5    0    0  0.30979156010E+03 -0.17810435666E+03  0.54082898671E+03  0.64821907210E+03  0.00000000000E+00 0.  1.
          3    1    6    6  503    0 -0.74371873977E+02  0.15334964287E+03  0.31194926157E+03  0.35547099797E+03  0.00000000000E+00 0. -1.
         -3    1    6    6    0  503 -0.46159099082E+02  0.39338858175E+03  0.61993016629E+03  0.73566204860E+03  0.00000000000E+00 0.  1.
<mgrwt>
<rscale>  0 0.14731166E+04</rscale>
<asrwt>0</asrwt>
<pdfrwt beam="1">  1        2 0.42161052E+00 0.14731166E+04</pdfrwt>
<pdfrwt beam="2">  1       -1 0.30456226E-01 0.14731166E+04</pdfrwt>
<totfact> 0.27653432E+01</totfact>
</mgrwt>
</event>
<event>
12    6  0.1569942E-007  0.1043829E+04  0.7818608E-02  0.9261739E-01
         -1   -1    0    0    0  501 -0.00000000000E+00  0.00000000000E+00  0.20154478977E+03  0.20154478977E+03  0.00000000000E+00 0.  1.
          2   -1    0    0  501    0  0.00000000000E+00 -0.00000000000E+00 -0.13515338656E+04  0.13515338656E+04  0.00000000000E+00 0. -1.
         24    2    1    2    0    0  0.75725406395E+02 -0.97540950323E+01 -0.12515450770E+03  0.16753966887E+03  0.81095069532E+02 0.  0.
        254    2    1    2    0    0 -0.75725406395E+02  0.97540950323E+01 -0.10248345681E+04  0.13855389865E+04  0.92930237895E+03 0.  0.
         23    2    4    4    0    0 -0.41663214659E+03  0.32245122009E+02 -0.92283670701E+03  0.10175322366E+04  0.95510057833E+02 0.  0.
         23    2    4    4    0    0  0.34090674020E+03 -0.22491026976E+02 -0.10199786110E+03  0.36800674993E+03  0.91116148502E+02 0.  0.
          4    1    3    3  502    0  0.86414261259E+02  0.62014255222E+01 -0.77811369643E+02  0.11644952328E+03  0.00000000000E+00 0. -1.
         -3    1    3    3    0  502 -0.10688854864E+02 -0.15955520555E+02 -0.47343138058E+02  0.51090145583E+02  0.00000000000E+00 0.  1.
         11    1    5    5    0    0 -0.39624927718E+03  0.12606234131E+02 -0.88917147496E+03  0.97354934065E+03  0.00000000000E+00 0. -1.
        -11    1    5    5    0    0 -0.20382869416E+02  0.19638887877E+02 -0.33665232054E+02  0.43982895902E+02  0.00000000000E+00 0.  1.
          1    1    6    6  503    0  0.16260100526E+03  0.57479770957E+00 -0.27163653559E+01  0.16262470890E+03  0.00000000000E+00 0. -1.
         -1    1    6    6    0  503  0.17830573493E+03 -0.23065824686E+02 -0.99281495743E+02  0.20538204102E+03  0.00000000000E+00 0.  1.
<mgrwt>
<rscale>  0 0.10438287E+04</rscale>
<asrwt>0</asrwt>
<pdfrwt beam="1">  1        2 0.20792829E+00 0.10438287E+04</pdfrwt>
<pdfrwt beam="2">  1       -1 0.31006890E-01 0.10438287E+04</pdfrwt>
<totfact> 0.16842013E+02</totfact>
</mgrwt>
</event>
<event>
12    6  0.2256893E-007  0.1496350E+04  0.7818608E-02  0.8886884E-01
          2   -1    0    0  501    0  0.00000000000E+00  0.00000000000E+00  0.20962828159E+04  0.20962828159E+04  0.00000000000E+00 0. -1.
         -1   -1    0    0    0  501 -0.00000000000E+00 -0.00000000000E+00 -0.26702776510E+03  0.26702776510E+03  0.00000000000E+00 0.  1.
         24    2    1    2    0    0 -0.42337935220E+03 -0.22605514119E+02  0.21539423850E+03  0.48185914985E+03  0.77669023230E+02 0.  0.
        254    2    1    2    0    0  0.42337935220E+03  0.22605514119E+02  0.16138608123E+04  0.18814514312E+04  0.86922475874E+03 0.  0.
         23    2    4    4    0    0  0.41254566065E+03  0.39626464265E+03  0.10444999437E+04  0.11942995585E+04  0.90286842497E+02 0.  0.
         23    2    4    4    0    0  0.10833691557E+02 -0.37365912853E+03  0.56936086866E+03  0.68715187271E+03  0.90925157159E+02 0.  0.
          4    1    3    3  502    0 -0.25543461221E+02 -0.61123422245E+01 -0.50290708295E+01  0.26741740632E+02  0.00000000000E+00 0. -1.
         -3    1    3    3    0  502 -0.39783589098E+03 -0.16493171895E+02  0.22042330933E+03  0.45511740921E+03  0.00000000000E+00 0.  1.
         11    1    5    5    0    0  0.38932771238E+03  0.39431614505E+03  0.10177483317E+04  0.11588239540E+04  0.00000000000E+00 0.  1.
        -11    1    5    5    0    0  0.23217948270E+02  0.19484975954E+01  0.26751611998E+02  0.35475604424E+02  0.00000000000E+00 0. -1.
          3    1    6    6  503    0  0.30184587864E+02 -0.40486748370E+02  0.86981154200E+02  0.10057836409E+03  0.00000000000E+00 0. -1.
         -3    1    6    6    0  503 -0.19350896307E+02 -0.33317238016E+03  0.48237971446E+03  0.58657350862E+03  0.00000000000E+00 0.  1.
<mgrwt>
<rscale>  0 0.14963498E+04</rscale>
<asrwt>0</asrwt>
<pdfrwt beam="1">  1        2 0.32250504E+00 0.14963498E+04</pdfrwt>
<pdfrwt beam="2">  1       -1 0.41081196E-01 0.14963498E+04</pdfrwt>
<totfact> 0.37719564E+01</totfact>
</mgrwt>
</event>
<event>
12    6  0.1569942E-007  0.1137601E+04  0.7818608E-02  0.9169299E-01
          2   -1    0    0  501    0  0.00000000000E+00  0.00000000000E+00  0.21181987186E+04  0.21181987186E+04  0.00000000000E+00 0. -1.
         -1   -1    0    0    0  501 -0.00000000000E+00 -0.00000000000E+00 -0.15274004420E+03  0.15274004420E+03  0.00000000000E+00 0.  1.
         24    2    1    2    0    0  0.58981439636E+02  0.77805037509E+02  0.20012240078E+02  0.12716181165E+03  0.78975961565E+02 0.  0.
        254    2    1    2    0    0 -0.58981439636E+02 -0.77805037509E+02  0.19454464343E+04  0.21437769512E+04  0.89525714372E+03 0.  0.
         23    2    4    4    0    0  0.27890890297E+03 -0.96403464297E+02  0.21196744822E+03  0.37524785718E+03  0.93792063246E+02 0.  0.
         23    2    4    4    0    0 -0.33789034261E+03  0.18598426787E+02  0.17334789861E+04  0.17685290940E+04  0.90719214286E+02 0.  0.
          2    1    3    3  502    0  0.32987243817E+02  0.57319689694E+02  0.49679786324E+02  0.82715090827E+02  0.00000000000E+00 0. -1.
         -1    1    3    3    0  502  0.25994195819E+02  0.20485347816E+02 -0.29667546247E+02  0.44446720820E+02  0.00000000000E+00 0.  1.
         11    1    5    5    0    0  0.22279306135E+02  0.17935191594E+02  0.16927624534E+02  0.33235268191E+02  0.00000000000E+00 0.  1.
        -11    1    5    5    0    0  0.25662959684E+03 -0.11433865589E+03  0.19503982369E+03  0.34201258899E+03  0.00000000000E+00 0. -1.
          4    1    6    6  503    0 -0.10733937473E+03 -0.23524227614E+02  0.71767244212E+03  0.72603640737E+03  0.00000000000E+00 0.  1.
         -4    1    6    6    0  503 -0.23055096789E+03  0.42122654402E+02  0.10158065440E+04  0.10424926866E+04  0.00000000000E+00 0. -1.
<mgrwt>
<rscale>  0 0.11376006E+04</rscale>
<asrwt>0</asrwt>
<pdfrwt beam="1">  1        2 0.32587671E+00 0.11376006E+04</pdfrwt>
<pdfrwt beam="2">  1       -1 0.23498470E-01 0.11376006E+04</pdfrwt>
<totfact> 0.10116744E+02</totfact>
</mgrwt>
</event>
<event>
12    6  0.1569942E-007  0.1124422E+04  0.7818608E-02  0.9181710E-01
         -1   -1    0    0    0  501 -0.00000000000E+00  0.00000000000E+00  0.76916261734E+03  0.76916261734E+03  0.00000000000E+00 0.  1.
          2   -1    0    0  501    0  0.00000000000E+00 -0.00000000000E+00 -0.41094180006E+03  0.41094180006E+03  0.00000000000E+00 0. -1.
         24    2    1    2    0    0 -0.22995420194E+02  0.16398788119E+03  0.36438730054E+02  0.18886143528E+03  0.83186814838E+02 0.  0.
        254    2    1    2    0    0  0.22995420194E+02 -0.16398788119E+03  0.32178208723E+03  0.99124298212E+03  0.92282074284E+03 0.  0.
         23    2    4    4    0    0  0.32046310485E+03 -0.39226852998E+03  0.46473412214E+02  0.51713755137E+03  0.93275226142E+02 0.  0.
         23    2    4    4    0    0 -0.29746768465E+03  0.22828064879E+03  0.27530867502E+03  0.47410543075E+03  0.91553344601E+02 0.  0.
          2    1    3    3  502    0 -0.20568218607E+02  0.10546597852E+03 -0.17937428691E+02  0.10893977965E+03  0.00000000000E+00 0. -1.
         -1    1    3    3    0  502 -0.24272015874E+01  0.58521902665E+02  0.54376158745E+02  0.79921655632E+02  0.00000000000E+00 0.  1.
         11    1    5    5    0    0  0.27946958398E+03 -0.35304680587E+03  0.11359475459E+02  0.45041573372E+03  0.00000000000E+00 0.  1.
        -11    1    5    5    0    0  0.40993520863E+02 -0.39221724114E+02  0.35113936755E+02  0.66721817643E+02  0.00000000000E+00 0. -1.
          2    1    6    6  503    0 -0.66447550045E+02  0.12329542365E+02  0.30304873999E+02  0.74065375919E+02  0.00000000000E+00 0. -1.
         -2    1    6    6    0  503 -0.23102013461E+03  0.21595110643E+03  0.24500380102E+03  0.40004005484E+03  0.00000000000E+00 0.  1.
<mgrwt>
<rscale>  0 0.11244218E+04</rscale>
<asrwt>0</asrwt>
<pdfrwt beam="1">  1        2 0.63221816E-01 0.11244218E+04</pdfrwt>
<pdfrwt beam="2">  1       -1 0.11833271E+00 0.11244218E+04</pdfrwt>
<totfact> 0.56088566E+01</totfact>
</mgrwt>
</event>
<event>
12    6  0.1569942E-007  0.1599353E+04  0.7818608E-02  0.8820946E-01
          2   -1    0    0  501    0  0.00000000000E+00  0.00000000000E+00  0.12799547885E+04  0.12799547885E+04  0.00000000000E+00 0. -1.
         -1   -1    0    0    0  501 -0.00000000000E+00 -0.00000000000E+00 -0.49961323566E+03  0.49961323566E+03  0.00000000000E+00 0.  1.
         24    2    1    2    0    0  0.64661864328E+02 -0.25256934060E+03  0.79391536696E+03  0.83958117819E+03  0.81378844745E+02 0.  0.
        254    2    1    2    0    0 -0.64661864328E+02  0.25256934060E+03 -0.13573814158E+02  0.93998684592E+03  0.90300531203E+03 0.  0.
         23    2    4    4    0    0 -0.17019398520E+03  0.11865713223E+03  0.41361378786E+03  0.47130629872E+03  0.89486055216E+02 0.  0.
         23    2    4    4    0    0  0.10553212087E+03  0.13391220838E+03 -0.42718760202E+03  0.46868054720E+03  0.90014998295E+02 0.  0.
          2    1    3    3  502    0  0.53338356632E+02 -0.21852162327E+03  0.74926032318E+03  0.78229643487E+03  0.00000000000E+00 0. -1.
         -1    1    3    3    0  502  0.11323507695E+02 -0.34047717338E+02  0.44655043780E+02  0.57284743321E+02  0.00000000000E+00 0.  1.
         11    1    5    5    0    0 -0.13069021545E+03  0.40317865622E+02  0.22541539956E+03  0.26366183846E+03  0.00000000000E+00 0.  1.
        -11    1    5    5    0    0 -0.39503769750E+02  0.78339266606E+02  0.18819838830E+03  0.20764446026E+03  0.00000000000E+00 0. -1.
          1    1    6    6  503    0  0.10783599086E+03  0.92697750821E+02 -0.38132573502E+03  0.40697762853E+03  0.00000000000E+00 0. -1.
         -1    1    6    6    0  503 -0.23038699868E+01  0.41214457555E+02 -0.45861866999E+02  0.61702918676E+02  0.00000000000E+00 0.  1.
<mgrwt>
<rscale>  0 0.15993528E+04</rscale>
<asrwt>0</asrwt>
<pdfrwt beam="1">  1        2 0.19691612E+00 0.15993528E+04</pdfrwt>
<pdfrwt beam="2">  1       -1 0.76863575E-01 0.15993528E+04</pdfrwt>
<totfact> 0.31530997E+01</totfact>
</mgrwt>
</event>
<event>
12    6  0.1569942E-007  0.3552024E+04  0.7818608E-02  0.8101570E-01
          2   -1    0    0  501    0  0.00000000000E+00  0.00000000000E+00  0.23014794794E+04  0.23014794794E+04  0.00000000000E+00 0. -1.
         -1   -1    0    0    0  501 -0.00000000000E+00 -0.00000000000E+00 -0.13705180337E+04  0.13705180337E+04  0.00000000000E+00 0.  1.
         24    2    1    2    0    0  0.90871535285E+03 -0.51665327488E+02 -0.10004918172E+04  0.13548474847E+04  0.78707890608E+02 0.  0.
        254    2    1    2    0    0 -0.90871535285E+03  0.51665327488E+02  0.19314532629E+04  0.23171500284E+04  0.90013312843E+03 0.  0.
         23    2    4    4    0    0 -0.39939179072E+03  0.37004970434E+03  0.43844028173E+03  0.70500752426E+03  0.91406468258E+02 0.  0.
         23    2    4    4    0    0 -0.50932356213E+03 -0.31838437686E+03  0.14930129811E+04  0.16121425041E+04  0.95585508546E+02 0.  0.
          2    1    3    3  502    0  0.29654184339E+03 -0.44397281376E+02 -0.36614607203E+03  0.47325588168E+03  0.00000000000E+00 0. -1.
         -1    1    3    3    0  502  0.61217350946E+03 -0.72680461124E+01 -0.63434574518E+03  0.88159160307E+03  0.00000000000E+00 0.  1.
         11    1    5    5    0    0 -0.66240099481E+02  0.25519492067E+02  0.77031747957E+02  0.10475154151E+03  0.00000000000E+00 0.  1.
        -11    1    5    5    0    0 -0.33315169124E+03  0.34453021228E+03  0.36140853377E+03  0.60025598275E+03  0.00000000000E+00 0. -1.
          2    1    6    6  503    0 -0.37734132512E+03 -0.28052744854E+03  0.11871790100E+04  0.12769009856E+04  0.00000000000E+00 0. -1.
         -2    1    6    6    0  503 -0.13198223701E+03 -0.37856928320E+02  0.30583397109E+03  0.33524151858E+03  0.00000000000E+00 0.  1.
<mgrwt>
<rscale>  0 0.35520243E+04</rscale>
<asrwt>0</asrwt>
<pdfrwt beam="1">  1        2 0.35407376E+00 0.35520243E+04</pdfrwt>
<pdfrwt beam="2">  1       -1 0.21084893E+00 0.35520243E+04</pdfrwt>
<totfact> 0.53395687E-01</totfact>
</mgrwt>
</event>
<event>
12    6  0.1569942E-007  0.1909786E+04  0.7818608E-02  0.8650001E-01
         -1   -1    0    0    0  501 -0.00000000000E+00  0.00000000000E+00  0.88200633224E+03  0.88200633224E+03  0.00000000000E+00 0.  1.
          2   -1    0    0  501    0  0.00000000000E+00 -0.00000000000E+00 -0.10338024013E+04  0.10338024013E+04  0.00000000000E+00 0. -1.
         24    2    1    2    0    0  0.19396626334E+03  0.61594041600E+03  0.26592494897E+03  0.70281257334E+03  0.78891871525E+02 0.  0.
        254    2    1    2    0    0 -0.19396626334E+03 -0.61594041600E+03 -0.41772101798E+03  0.12129961602E+04  0.93801030288E+03 0.  0.
         23    2    4    4    0    0 -0.30173491868E+03  0.95254530746E+02 -0.35541009100E+03  0.48523519406E+03  0.94970911312E+02 0.  0.
         23    2    4    4    0    0  0.10776865534E+03 -0.71119494674E+03 -0.62310926986E+02  0.72776096609E+03  0.91329276778E+02 0.  0.
          2    1    3    3  502    0  0.67617920616E+02  0.18400684464E+03  0.11935004956E+03  0.22951064549E+03  0.00000000000E+00 0. -1.
         -1    1    3    3    0  502  0.12634834273E+03  0.43193357136E+03  0.14657489941E+03  0.47330192786E+03  0.00000000000E+00 0.  1.
         11    1    5    5    0    0 -0.30030758884E+03  0.88497090208E+02 -0.31456475001E+03  0.44381005491E+03  0.00000000000E+00 0. -1.
        -11    1    5    5    0    0 -0.14273298360E+01  0.67574405382E+01 -0.40845340993E+02  0.41425139154E+02  0.00000000000E+00 0.  1.
          2    1    6    6  503    0  0.25917220062E+02 -0.29055976379E+03  0.15946735105E+02  0.29214889524E+03  0.00000000000E+00 0.  1.
         -2    1    6    6    0  503  0.81851435275E+02 -0.42063518295E+03 -0.78257662091E+02  0.43561207085E+03  0.00000000000E+00 0. -1.
<mgrwt>
<rscale>  0 0.19097856E+04</rscale>
<asrwt>0</asrwt>
<pdfrwt beam="1">  1        2 0.15904652E+00 0.19097856E+04</pdfrwt>
<pdfrwt beam="2">  1       -1 0.13569328E+00 0.19097856E+04</pdfrwt>
<totfact> 0.11632075E+01</totfact>
</mgrwt>
</event>
<event>
12    6  0.1569942E-007  0.1309844E+04  0.7818608E-02  0.9021795E-01
          2   -1    0    0  501    0  0.00000000000E+00  0.00000000000E+00  0.19560894211E+04  0.19560894211E+04  0.00000000000E+00 0. -1.
         -1   -1    0    0    0  501 -0.00000000000E+00 -0.00000000000E+00 -0.21927558579E+03  0.21927558579E+03  0.00000000000E+00 0.  1.
         24    2    1    2    0    0  0.17755193197E+03 -0.17726444291E+03  0.85420566343E+03  0.89372360464E+03  0.78276399989E+02 0.  0.
        254    2    1    2    0    0 -0.17755193197E+03  0.17726444291E+03  0.88260817188E+03  0.12816414022E+04  0.89479613745E+03 0.  0.
         23    2    4    4    0    0 -0.40131191084E+03  0.36232699238E+03  0.30033331737E+03  0.62461580111E+03  0.87250778098E+02 0.  0.
         23    2    4    4    0    0  0.22375997887E+03 -0.18506254947E+03  0.58227485450E+03  0.65702560113E+03  0.91224771827E+02 0.  0.
          2    1    3    3  502    0  0.15611284154E+03 -0.15881047913E+03  0.63954967252E+03  0.67721176244E+03  0.00000000000E+00 0. -1.
         -1    1    3    3    0  502  0.21439090423E+02 -0.18453963778E+02  0.21465599091E+03  0.21651184220E+03  0.00000000000E+00 0.  1.
         11    1    5    5    0    0 -0.12712503956E+03  0.89544503909E+02  0.12707044342E+03  0.20081307591E+03  0.00000000000E+00 0.  1.
        -11    1    5    5    0    0 -0.27418687127E+03  0.27278248847E+03  0.17326287396E+03  0.42380272520E+03  0.00000000000E+00 0. -1.
          1    1    6    6  503    0  0.19926116058E+03 -0.14455744207E+03  0.54037855455E+03  0.59381044652E+03  0.00000000000E+00 0. -1.
         -1    1    6    6    0  503  0.24498818287E+02 -0.40505107405E+02  0.41896299953E+02  0.63215154616E+02  0.00000000000E+00 0.  1.
<mgrwt>
<rscale>  0 0.13098437E+04</rscale>
<asrwt>0</asrwt>
<pdfrwt beam="1">  1        2 0.30093682E+00 0.13098437E+04</pdfrwt>
<pdfrwt beam="2">  1       -1 0.33734707E-01 0.13098437E+04</pdfrwt>
<totfact> 0.65409670E+01</totfact>
</mgrwt>
</event>
<event>
12    6  0.1569942E-007  0.2391590E+04  0.7818608E-02  0.8442659E-01
          2   -1    0    0  501    0  0.00000000000E+00  0.00000000000E+00  0.27474938571E+04  0.27474938571E+04  0.00000000000E+00 0. -1.
         -1   -1    0    0    0  501 -0.00000000000E+00 -0.00000000000E+00 -0.52044731408E+03  0.52044731408E+03  0.00000000000E+00 0.  1.
         24    2    1    2    0    0  0.65833981996E+02  0.10647516881E+04  0.10167592039E+04  0.14763696704E+04  0.88531658820E+02 0.  0.
        254    2    1    2    0    0 -0.65833981996E+02 -0.10647516881E+04  0.12102873392E+04  0.17915715007E+04  0.77903961924E+03 0.  0.
         23    2    4    4    0    0  0.26508284679E+03 -0.76302790200E+03  0.52449659012E+03  0.96742407327E+03  0.91280718636E+02 0.  0.
         23    2    4    4    0    0 -0.33091682878E+03 -0.30172378613E+03  0.68579074905E+03  0.82414742747E+03  0.91470432598E+02 0.  0.
          4    1    3    3  502    0  0.53370133451E+02  0.10489934767E+04  0.99855412784E+03  0.14492570619E+04  0.00000000000E+00 0. -1.
         -3    1    3    3    0  502  0.12463848545E+02  0.15758211432E+02  0.18205076021E+02  0.27112608525E+02  0.00000000000E+00 0.  1.
         11    1    5    5    0    0  0.19314425023E+03 -0.48539543778E+03  0.38198149332E+03  0.64716558442E+03  0.00000000000E+00 0. -1.
        -11    1    5    5    0    0  0.71938596554E+02 -0.27763246422E+03  0.14251509680E+03  0.32025848885E+03  0.00000000000E+00 0.  1.
          2    1    6    6  503    0 -0.24952214642E+03 -0.22560302761E+03  0.43650109746E+03  0.55108187750E+03  0.00000000000E+00 0. -1.
         -2    1    6    6    0  503 -0.81394682360E+02 -0.76120758522E+02  0.24928965158E+03  0.27306554997E+03  0.00000000000E+00 0.  1.
<mgrwt>
<rscale>  0 0.23915901E+04</rscale>
<asrwt>0</asrwt>
<pdfrwt beam="1">  1        2 0.42269135E+00 0.23915901E+04</pdfrwt>
<pdfrwt beam="2">  1       -1 0.80068819E-01 0.23915901E+04</pdfrwt>
<totfact> 0.39645677E+00</totfact>
</mgrwt>
</event>
<event>
12    6  0.1569942E-007  0.2952036E+04  0.7818608E-02  0.8257561E-01
         -1   -1    0    0    0  501 -0.00000000000E+00  0.00000000000E+00  0.49202182784E+03  0.49202182784E+03  0.00000000000E+00 0.  1.
          2   -1    0    0  501    0  0.00000000000E+00 -0.00000000000E+00 -0.44279110229E+04  0.44279110229E+04  0.00000000000E+00 0. -1.
         24    2    1    2    0    0 -0.39104276082E+03  0.90419347503E+03 -0.32778714496E+04  0.34237634186E+04  0.85055428638E+02 0.  0.
        254    2    1    2    0    0  0.39104276082E+03 -0.90419347503E+03 -0.65801774550E+03  0.14961694321E+04  0.91381362164E+03 0.  0.
         23    2    4    4    0    0 -0.22750973915E+03 -0.56096606343E+03 -0.43076659302E+03  0.74851367937E+03  0.90935498022E+02 0.  0.
         23    2    4    4    0    0  0.61855249997E+03 -0.34322741159E+03 -0.22725115248E+03  0.74765575274E+03  0.83269364215E+02 0.  0.
          2    1    3    3  502    0 -0.27664147978E+03  0.71799335032E+03 -0.24936622280E+04  0.26096735939E+04  0.00000000000E+00 0. -1.
         -1    1    3    3    0  502 -0.11440128104E+03  0.18620012471E+03 -0.78420922157E+03  0.81408982473E+03  0.00000000000E+00 0.  1.
         11    1    5    5    0    0 -0.66169747578E+02 -0.24298115689E+03 -0.13808682112E+03  0.28720419263E+03  0.00000000000E+00 0.  1.
        -11    1    5    5    0    0 -0.16133999157E+03 -0.31798490655E+03 -0.29267977190E+03  0.46130948674E+03  0.00000000000E+00 0. -1.
          3    1    6    6  503    0  0.55251573019E+02 -0.60762887864E+02 -0.25785615673E+02  0.86079979312E+02  0.00000000000E+00 0. -1.
         -3    1    6    6    0  503  0.56330092695E+03 -0.28246452373E+03 -0.20146553680E+03  0.66157577343E+03  0.00000000000E+00 0.  1.
<mgrwt>
<rscale>  0 0.29520358E+04</rscale>
<asrwt>0</asrwt>
<pdfrwt beam="1">  1        2 0.68121709E+00 0.29520358E+04</pdfrwt>
<pdfrwt beam="2">  1       -1 0.75695664E-01 0.29520358E+04</pdfrwt>
<totfact> 0.24727495E-01</totfact>
</mgrwt>
</event>
<event>
12    6  0.1569942E-007  0.2259228E+04  0.7818608E-02  0.8494173E-01
         -1   -1    0    0    0  501 -0.00000000000E+00  0.00000000000E+00  0.79995744691E+03  0.79995744691E+03  0.00000000000E+00 0.  1.
          2   -1    0    0  501    0  0.00000000000E+00 -0.00000000000E+00 -0.15951192702E+04  0.15951192702E+04  0.00000000000E+00 0. -1.
         24    2    1    2    0    0 -0.83572687999E+03 -0.30560857238E+03  0.59718312661E+01  0.89335558027E+03  0.78819493688E+02 0.  0.
        254    2    1    2    0    0  0.83572687999E+03  0.30560857238E+03 -0.80113365453E+03  0.15017211368E+04  0.90637476956E+03 0.  0.
         23    2    4    4    0    0  0.17508720809E+02  0.20210234484E+03  0.12788300539E+03  0.25605027291E+03  0.89753919683E+02 0.  0.
         23    2    4    4    0    0  0.81821815918E+03  0.10350622754E+03 -0.92901665992E+03  0.12456708639E+04  0.91812045086E+02 0.  0.
          4    1    3    3  502    0 -0.31419605845E+02 -0.13308209575E+02 -0.15119084788E+02  0.37321398666E+02  0.00000000000E+00 0. -1.
         -3    1    3    3    0  502 -0.80430727414E+03 -0.29230036280E+03  0.21090916055E+02  0.85603418160E+03  0.00000000000E+00 0.  1.
         11    1    5    5    0    0 -0.73448464271E+01  0.17538790993E+03  0.13157189758E+03  0.21937645715E+03  0.00000000000E+00 0.  1.
        -11    1    5    5    0    0  0.24853567236E+02  0.26714434905E+02 -0.36888921965E+01  0.36673815759E+02  0.00000000000E+00 0. -1.
          3    1    6    6  503    0  0.16516149413E+03 -0.14019188993E+02 -0.20386333992E+03  0.26274534851E+03  0.00000000000E+00 0. -1.
         -3    1    6    6    0  503  0.65305666505E+03  0.11752541653E+03 -0.72515332000E+03  0.98292551539E+03  0.00000000000E+00 0.  1.
<mgrwt>
<rscale>  0 0.22592278E+04</rscale>
<asrwt>0</asrwt>
<pdfrwt beam="1">  1        2 0.24540296E+00 0.22592278E+04</pdfrwt>
<pdfrwt beam="2">  1       -1 0.12307038E+00 0.22592278E+04</pdfrwt>
<totfact> 0.67631517E+00</totfact>
</mgrwt>
</event>
<event>
12    6  0.1569942E-007  0.2856290E+04  0.7818608E-02  0.8286003E-01
          2   -1    0    0  501    0  0.00000000000E+00  0.00000000000E+00  0.27987654797E+04  0.27987654797E+04  0.00000000000E+00 0. -1.
         -1   -1    0    0    0  501 -0.00000000000E+00 -0.00000000000E+00 -0.72874906868E+03  0.72874906868E+03  0.00000000000E+00 0.  1.
         24    2    1    2    0    0  0.65288969270E+03  0.33009876721E+03 -0.37172545051E+03  0.82442502492E+03  0.79162265063E+02 0.  0.
        254    2    1    2    0    0 -0.65288969270E+03 -0.33009876721E+03  0.24417418616E+04  0.27030895235E+04  0.89964409995E+03 0.  0.
         23    2    4    4    0    0 -0.41145391191E+03 -0.13267358900E+03  0.23152843154E+04  0.23570481875E+04  0.90763950245E+02 0.  0.
         23    2    4    4    0    0 -0.24143578080E+03 -0.19742517822E+03  0.12645754622E+03  0.34604133595E+03  0.80530478398E+02 0.  0.
          2    1    3    3  502    0  0.22153839676E+03  0.15430019132E+03 -0.13026893354E+03  0.29976291520E+03  0.00000000000E+00 0. -1.
         -1    1    3    3    0  502  0.43135129594E+03  0.17579857589E+03 -0.24145651696E+03  0.52466210972E+03  0.00000000000E+00 0.  1.
         11    1    5    5    0    0 -0.38345530840E+03 -0.13845459268E+03  0.20439517905E+04  0.20842136574E+04  0.00000000000E+00 0. -1.
        -11    1    5    5    0    0 -0.27998603510E+02  0.57810036873E+01  0.27133252486E+03  0.27283453016E+03  0.00000000000E+00 0.  1.
          4    1    6    6  503    0 -0.21862888646E+03 -0.18040971782E+03  0.85310499167E+02  0.29601374554E+03  0.00000000000E+00 0.  1.
         -4    1    6    6    0  503 -0.22806894331E+02 -0.17015460392E+02  0.41147047050E+02  0.50027590411E+02  0.00000000000E+00 0. -1.
<mgrwt>
<rscale>  0 0.28562897E+04</rscale>
<asrwt>0</asrwt>
<pdfrwt beam="1">  1        2 0.43057930E+00 0.28562897E+04</pdfrwt>
<pdfrwt beam="2">  1       -1 0.11211524E+00 0.28562897E+04</pdfrwt>
<totfact> 0.16626273E+00</totfact>
</mgrwt>
</event>
<event>
12    6  0.1569942E-007  0.1078866E+04  0.7818608E-02  0.9226039E-01
          2   -1    0    0  501    0  0.00000000000E+00  0.00000000000E+00  0.48990360212E+03  0.48990360212E+03  0.00000000000E+00 0. -1.
         -1   -1    0    0    0  501 -0.00000000000E+00 -0.00000000000E+00 -0.59397000431E+03  0.59397000431E+03  0.00000000000E+00 0.  1.
         24    2    1    2    0    0 -0.36671772836E+02  0.50501155364E+02 -0.15646157717E+03  0.18648336732E+03  0.80003972049E+02 0.  0.
        254    2    1    2    0    0  0.36671772836E+02 -0.50501155364E+02  0.52395174979E+02  0.89739023910E+03  0.89368271845E+03 0.  0.
         23    2    4    4    0    0 -0.61789476425E+02 -0.27575682690E+03  0.37704171913E+03  0.47987449035E+03  0.90880699491E+02 0.  0.
         23    2    4    4    0    0  0.98461249261E+02  0.22525567153E+03 -0.32464654416E+03  0.41751574875E+03  0.92137325014E+02 0.  0.
          2    1    3    3  502    0 -0.30507206269E+02 -0.97579367965E+01 -0.21570468542E+02  0.38615956261E+02  0.00000000000E+00 0. -1.
         -1    1    3    3    0  502 -0.61645665674E+01  0.60259092161E+02 -0.13489110862E+03  0.14786741106E+03  0.00000000000E+00 0.  1.
         11    1    5    5    0    0  0.47449910290E+01 -0.53614046512E+02  0.13175455035E+03  0.14232442679E+03  0.00000000000E+00 0. -1.
        -11    1    5    5    0    0 -0.66534467454E+02 -0.22214278039E+03  0.24528716879E+03  0.33755006356E+03  0.00000000000E+00 0.  1.
          4    1    6    6  503    0  0.32207036755E+02  0.17749711302E+03 -0.23476571134E+03  0.29607002140E+03  0.00000000000E+00 0.  1.
         -4    1    6    6    0  503  0.66254212506E+02  0.47758558510E+02 -0.89880832815E+02  0.12144572736E+03  0.00000000000E+00 0. -1.
<mgrwt>
<rscale>  0 0.10788662E+04</rscale>
<asrwt>0</asrwt>
<pdfrwt beam="1">  1        2 0.75369785E-01 0.10788662E+04</pdfrwt>
<pdfrwt beam="2">  1       -1 0.91380001E-01 0.10788662E+04</pdfrwt>
<totfact> 0.83781532E+01</totfact>
</mgrwt>
</event>
<event>
12    6  0.1569942E-007  0.1285137E+04  0.7818608E-02  0.9041435E-01
          2   -1    0    0  501    0  0.00000000000E+00  0.00000000000E+00  0.22189180996E+04  0.22189180996E+04  0.00000000000E+00 0. -1.
         -1   -1    0    0    0  501 -0.00000000000E+00 -0.00000000000E+00 -0.18607916787E+03  0.18607916787E+03  0.00000000000E+00 0.  1.
         24    2    1    2    0    0  0.54040385673E+02  0.83858088291E+02 -0.47401295925E+02  0.13576792862E+03  0.78952551129E+02 0.  0.
        254    2    1    2    0    0 -0.54040385673E+02 -0.83858088291E+02  0.20802402276E+04  0.22692293388E+04  0.90113808336E+03 0.  0.
         23    2    4    4    0    0  0.19125331297E+03  0.34014364734E+03  0.77701815900E+03  0.87426673046E+03  0.91156821034E+02 0.  0.
         23    2    4    4    0    0 -0.24529369864E+03 -0.42400173563E+03  0.13032220686E+04  0.13949626084E+04  0.87100219132E+02 0.  0.
          4    1    3    3  502    0  0.82849289926E+01  0.18819512698E+02  0.22077626296E+02  0.30170112520E+02  0.00000000000E+00 0. -1.
         -3    1    3    3    0  502  0.45755456680E+02  0.65038575593E+02 -0.69478922221E+02  0.10559781610E+03  0.00000000000E+00 0.  1.
         11    1    5    5    0    0  0.17362800144E+03  0.31113053968E+03  0.63383808387E+03  0.72711733040E+03  0.00000000000E+00 0. -1.
        -11    1    5    5    0    0  0.17625311534E+02  0.29013107658E+02  0.14318007513E+03  0.14714940006E+03  0.00000000000E+00 0.  1.
          3    1    6    6  503    0 -0.20959424562E+03 -0.36516492371E+03  0.11919484149E+04  0.12641266523E+04  0.00000000000E+00 0. -1.
         -3    1    6    6    0  503 -0.35699453026E+02 -0.58836811922E+02  0.11127365375E+03  0.13083595607E+03  0.00000000000E+00 0.  1.
<mgrwt>
<rscale>  0 0.12851372E+04</rscale>
<asrwt>0</asrwt>
<pdfrwt beam="1">  1        2 0.34137200E+00 0.12851372E+04</pdfrwt>
<pdfrwt beam="2">  1       -1 0.28627566E-01 0.12851372E+04</pdfrwt>
<totfact> 0.62521400E+01</totfact>
</mgrwt>
</event>
<event>
12    6  0.1569942E-007  0.1803018E+04  0.7818608E-02  0.8704696E-01
          2   -1    0    0  501    0  0.00000000000E+00  0.00000000000E+00  0.28456128903E+04  0.28456128903E+04  0.00000000000E+00 0. -1.
         -1   -1    0    0    0  501 -0.00000000000E+00 -0.00000000000E+00 -0.28560392963E+03  0.28560392963E+03  0.00000000000E+00 0.  1.
         24    2    1    2    0    0 -0.19666547983E+03 -0.64953546299E+03  0.90471634407E+03  0.11338821792E+04  0.81261948998E+02 0.  0.
        254    2    1    2    0    0  0.19666547983E+03  0.64953546299E+03  0.16552926166E+04  0.19973346407E+04  0.88813196765E+03 0.  0.
         23    2    4    4    0    0  0.30095450460E+03  0.39960517720E+02  0.11852545557E+03  0.33819488028E+03  0.90316314235E+02 0.  0.
         23    2    4    4    0    0 -0.10428902477E+03  0.60957494527E+03  0.15367671610E+04  0.16591397605E+04  0.92917291168E+02 0.  0.
          4    1    3    3  502    0 -0.60423533748E+02 -0.29668997182E+03  0.45063727732E+03  0.54290873867E+03  0.00000000000E+00 0. -1.
         -3    1    3    3    0  502 -0.13624194608E+03 -0.35284549117E+03  0.45407906675E+03  0.59097344050E+03  0.00000000000E+00 0.  1.
         11    1    5    5    0    0  0.25947334493E+03  0.74661596139E+01  0.11886315561E+03  0.28550063053E+03  0.00000000000E+00 0.  1.
        -11    1    5    5    0    0  0.41481159662E+02  0.32494358106E+02 -0.33770003948E+00  0.52694249752E+02  0.00000000000E+00 0. -1.
          3    1    6    6  503    0 -0.50016994061E+02  0.12754221207E+03  0.27229663280E+03  0.30481826026E+03  0.00000000000E+00 0. -1.
         -3    1    6    6    0  503 -0.54272030707E+02  0.48203273321E+03  0.12644705282E+04  0.13543215002E+04  0.00000000000E+00 0.  1.
<mgrwt>
<rscale>  0 0.18030177E+04</rscale>
<asrwt>0</asrwt>
<pdfrwt beam="1">  1        2 0.43778658E+00 0.18030177E+04</pdfrwt>
<pdfrwt beam="2">  1       -1 0.43939068E-01 0.18030177E+04</pdfrwt>
<totfact> 0.11970581E+01</totfact>
</mgrwt>
</event>
<event>
12    6  0.1569942E-007  0.2061464E+04  0.7818608E-02  0.8578411E-01
          2   -1    0    0  501    0  0.00000000000E+00  0.00000000000E+00  0.11850918909E+04  0.11850918909E+04  0.00000000000E+00 0. -1.
         -1   -1    0    0    0  501 -0.00000000000E+00 -0.00000000000E+00 -0.89647813047E+03  0.89647813047E+03  0.00000000000E+00 0.  1.
         24    2    1    2    0    0 -0.15121605256E+02  0.69346952100E+03  0.58200426188E+03  0.90886173365E+03  0.78562399081E+02 0.  0.
        254    2    1    2    0    0  0.15121605256E+02 -0.69346952100E+03 -0.29339050149E+03  0.11727082877E+04  0.89890939597E+03 0.  0.
         23    2    4    4    0    0  0.38442600946E+03 -0.58663288330E+03 -0.47372608576E+02  0.70852736965E+03  0.88574110100E+02 0.  0.
         23    2    4    4    0    0 -0.36930440420E+03 -0.10683663770E+03 -0.24601789291E+03  0.46418091804E+03  0.84494443162E+02 0.  0.
          2    1    3    3  502    0 -0.14206037544E+02  0.66695697675E+03  0.53602412140E+03  0.85577758738E+03  0.00000000000E+00 0. -1.
         -1    1    3    3    0  502 -0.91556771172E+00  0.26512544247E+02  0.45980140482E+02  0.53084146272E+02  0.00000000000E+00 0.  1.
         11    1    5    5    0    0  0.26833816920E+03 -0.36549957839E+03 -0.65431009333E+02  0.45812283488E+03  0.00000000000E+00 0.  1.
        -11    1    5    5    0    0  0.11608784026E+03 -0.22113330491E+03  0.18058400757E+02  0.25040453477E+03  0.00000000000E+00 0. -1.
          4    1    6    6  503    0 -0.20579415586E+03 -0.95410593000E+02 -0.11487381964E+03  0.25426444950E+03  0.00000000000E+00 0. -1.
         -4    1    6    6    0  503 -0.16351024835E+03 -0.11426044702E+02 -0.13114407327E+03  0.20991646854E+03  0.00000000000E+00 0.  1.
<mgrwt>
<rscale>  0 0.20614645E+04</rscale>
<asrwt>0</asrwt>
<pdfrwt beam="1">  1        2 0.18232183E+00 0.20614645E+04</pdfrwt>
<pdfrwt beam="2">  1       -1 0.13791971E+00 0.20614645E+04</pdfrwt>
<totfact> 0.88832754E+00</totfact>
</mgrwt>
</event>
<event>
12    6  0.1569942E-007  0.3807888E+04  0.7818608E-02  0.8044464E-01
         -1   -1    0    0    0  501 -0.00000000000E+00  0.00000000000E+00  0.13877951399E+04  0.13877951399E+04  0.00000000000E+00 0.  1.
          2   -1    0    0  501    0  0.00000000000E+00 -0.00000000000E+00 -0.26120590295E+04  0.26120590295E+04  0.00000000000E+00 0. -1.
         24    2    1    2    0    0  0.11628232095E+04 -0.17584798351E+03 -0.20012176416E+04  0.23225827665E+04  0.80239196233E+02 0.  0.
        254    2    1    2    0    0 -0.11628232095E+04  0.17584798351E+03  0.77695375193E+03  0.16772714029E+04  0.90912149705E+03 0.  0.
         23    2    4    4    0    0 -0.27270856349E+03 -0.27341085563E+03 -0.20711591339E+02  0.39715860324E+03  0.90457335447E+02 0.  0.
         23    2    4    4    0    0 -0.89011464598E+03  0.44925883914E+03  0.79766534327E+03  0.12801127996E+04  0.91001056794E+02 0.  0.
          4    1    3    3  502    0  0.11429108103E+04 -0.16520388094E+03 -0.19763448739E+04  0.22889902803E+04  0.00000000000E+00 0. -1.
         -3    1    3    3    0  502  0.19912399213E+02 -0.10644102575E+02 -0.24872767641E+02  0.33592486245E+02  0.00000000000E+00 0.  1.
         11    1    5    5    0    0 -0.10543487987E+03 -0.81929336230E+02  0.32435684590E+02  0.13740816447E+03  0.00000000000E+00 0.  1.
        -11    1    5    5    0    0 -0.16727368363E+03 -0.19148151940E+03 -0.53147275929E+02  0.25975043877E+03  0.00000000000E+00 0. -1.
          2    1    6    6  503    0 -0.46553012656E+03  0.21923611343E+03  0.35609925569E+03  0.62577108600E+03  0.00000000000E+00 0. -1.
         -2    1    6    6    0  503 -0.42458451943E+03  0.23002272571E+03  0.44156608758E+03  0.65434171362E+03  0.00000000000E+00 0.  1.
<mgrwt>
<rscale>  0 0.38078880E+04</rscale>
<asrwt>0</asrwt>
<pdfrwt beam="1">  1        2 0.40185523E+00 0.38078880E+04</pdfrwt>
<pdfrwt beam="2">  1       -1 0.21350695E+00 0.38078880E+04</pdfrwt>
<totfact> 0.33173102E-01</totfact>
</mgrwt>
</event>
<event>
12    6  0.1569942E-007  0.1592839E+04  0.7818608E-02  0.8824959E-01
          2   -1    0    0  501    0  0.00000000000E+00  0.00000000000E+00  0.42435506825E+03  0.42435506825E+03  0.00000000000E+00 0. -1.
         -1   -1    0    0    0  501 -0.00000000000E+00 -0.00000000000E+00 -0.14947013498E+04  0.14947013498E+04  0.00000000000E+00 0.  1.
         24    2    1    2    0    0 -0.23635052407E+03  0.47499638674E+02 -0.96050943749E+03  0.99373803442E+03  0.82577936725E+02 0.  0.
        254    2    1    2    0    0  0.23635052407E+03 -0.47499638674E+02 -0.10983684408E+03  0.92531838366E+03  0.88658456614E+03 0.  0.
         23    2    4    4    0    0  0.52817632469E+03  0.21907688806E+02  0.10288935784E+03  0.54619704920E+03  0.91075901302E+02 0.  0.
         23    2    4    4    0    0 -0.29182580062E+03 -0.69407327479E+02 -0.21272620193E+03  0.37912133446E+03  0.92200185684E+02 0.  0.
          4    1    3    3  502    0 -0.68667262106E+02 -0.10861940124E+02 -0.17267208544E+03  0.18614194508E+03  0.00000000000E+00 0. -1.
         -3    1    3    3    0  502 -0.16768326196E+03  0.58361578798E+02 -0.78783735205E+03  0.80759608933E+03  0.00000000000E+00 0.  1.
         11    1    5    5    0    0  0.47983773455E+03  0.35490083511E+02  0.70099442501E+02  0.48622806312E+03  0.00000000000E+00 0.  1.
        -11    1    5    5    0    0  0.48338590142E+02 -0.13582394705E+02  0.32789915342E+02  0.59968986076E+02  0.00000000000E+00 0. -1.
          3    1    6    6  503    0 -0.55509474747E+02  0.93079061318E+01 -0.77252652340E+02  0.95581960624E+02  0.00000000000E+00 0. -1.
         -3    1    6    6    0  503 -0.23631632588E+03 -0.78715233611E+02 -0.13547354959E+03  0.28353937384E+03  0.00000000000E+00 0.  1.
<mgrwt>
<rscale>  0 0.15928391E+04</rscale>
<asrwt>0</asrwt>
<pdfrwt beam="1">  1        2 0.65285396E-01 0.15928391E+04</pdfrwt>
<pdfrwt beam="2">  1       -1 0.22995405E+00 0.15928391E+04</pdfrwt>
<totfact> 0.77082305E+00</totfact>
</mgrwt>
</event>
<event>
12    6  0.1569942E-007  0.2919745E+04  0.7818608E-02  0.8267027E-01
         -3   -1    0    0    0  501 -0.00000000000E+00  0.00000000000E+00  0.65730796808E+03  0.65730796808E+03  0.00000000000E+00 0.  1.
          2   -1    0    0  501    0  0.00000000000E+00 -0.00000000000E+00 -0.32423572223E+04  0.32423572223E+04  0.00000000000E+00 0. -1.
         24    2    1    2    0    0 -0.73172696064E+03  0.95096189550E+03 -0.18812577867E+04  0.22327319611E+04  0.78792630511E+02 0.  0.
        254    2    1    2    0    0  0.73172696064E+03 -0.95096189550E+03 -0.70379146754E+03  0.16669332293E+04  0.91847214953E+03 0.  0.
         23    2    4    4    0    0  0.62734710284E+03 -0.10323555166E+04 -0.82585358695E+03  0.14661507708E+04  0.90783453153E+02 0.  0.
         23    2    4    4    0    0  0.10437985779E+03  0.81393621130E+02  0.12206211941E+03  0.20078245851E+03  0.88850201904E+02 0.  0.
          2    1    3    3  502    0 -0.60135742734E+03  0.75287278459E+03 -0.14596228206E+04  0.17489845522E+04  0.00000000000E+00 0. -1.
         -1    1    3    3    0  502 -0.13036953330E+03  0.19808911091E+03 -0.42163496607E+03  0.48374740897E+03  0.00000000000E+00 0.  1.
         11    1    5    5    0    0  0.30318173465E+03 -0.49858265530E+03 -0.34409689810E+03  0.67742638248E+03  0.00000000000E+00 0. -1.
        -11    1    5    5    0    0  0.32416536819E+03 -0.53377286134E+03 -0.48175668884E+03  0.78872438829E+03  0.00000000000E+00 0.  1.
          1    1    6    6  503    0 -0.31150477634E+01 -0.13696140512E+02  0.31305164628E+01  0.14390549705E+02  0.00000000000E+00 0. -1.
         -1    1    6    6    0  503  0.10749490556E+03  0.95089761642E+02  0.11893160294E+03  0.18639190881E+03  0.00000000000E+00 0.  1.
<mgrwt>
<rscale>  0 0.29197447E+04</rscale>
<asrwt>0</asrwt>
<pdfrwt beam="1">  1        2 0.49882418E+00 0.29197447E+04</pdfrwt>
<pdfrwt beam="2">  1       -3 0.10112431E+00 0.29197447E+04</pdfrwt>
<totfact> 0.57101818E-01</totfact>
</mgrwt>
</event>
<event>
12    6  0.1569942E-007  0.1277994E+04  0.7818608E-02  0.9047201E-01
          2   -1    0    0  501    0  0.00000000000E+00  0.00000000000E+00  0.13588851422E+04  0.13588851422E+04  0.00000000000E+00 0. -1.
         -1   -1    0    0    0  501 -0.00000000000E+00 -0.00000000000E+00 -0.30047933709E+03  0.30047933709E+03  0.00000000000E+00 0.  1.
         24    2    1    2    0    0 -0.11516050861E+03  0.30339009826E+03  0.25407804289E+03  0.41993576386E+03  0.80516454353E+02 0.  0.
        254    2    1    2    0    0  0.11516050861E+03 -0.30339009826E+03  0.80432776220E+03  0.12394287154E+04  0.88539985153E+03 0.  0.
         23    2    4    4    0    0 -0.24559454894E+03 -0.42299806150E+03  0.23930024452E+03  0.55220750376E+03  0.91784953421E+02 0.  0.
         23    2    4    4    0    0  0.36075505755E+03  0.11960796324E+03  0.56502751768E+03  0.68722121167E+03  0.92556045755E+02 0.  0.
          2    1    3    3  502    0 -0.60721122794E+02  0.74108455093E+02  0.99370441675E+02  0.13803478746E+03  0.00000000000E+00 0. -1.
         -1    1    3    3    0  502 -0.54439385817E+02  0.22928164317E+03  0.15470760122E+03  0.28190097640E+03  0.00000000000E+00 0.  1.
         11    1    5    5    0    0 -0.21194975179E+03 -0.30775783455E+03  0.20994559345E+03  0.42861956818E+03  0.00000000000E+00 0.  1.
        -11    1    5    5    0    0 -0.33644797157E+02 -0.11524022694E+03  0.29354651066E+02  0.12358793558E+03  0.00000000000E+00 0. -1.
          1    1    6    6  503    0  0.14601356733E+03  0.78967803129E+02  0.30758193787E+03  0.34951755932E+03  0.00000000000E+00 0. -1.
         -1    1    6    6    0  503  0.21474149023E+03  0.40640160107E+02  0.25744557982E+03  0.33770365234E+03  0.00000000000E+00 0.  1.
<mgrwt>
<rscale>  0 0.12779936E+04</rscale>
<asrwt>0</asrwt>
<pdfrwt beam="1">  1        2 0.20905925E+00 0.12779936E+04</pdfrwt>
<pdfrwt beam="2">  1       -1 0.46227591E-01 0.12779936E+04</pdfrwt>
<totfact> 0.79577030E+01</totfact>
</mgrwt>
</event>
<event>
12    6  0.1569942E-007  0.1671556E+04  0.7818608E-02  0.8777755E-01
         -1   -1    0    0    0  501 -0.00000000000E+00  0.00000000000E+00  0.54337111358E+03  0.54337111358E+03  0.00000000000E+00 0.  1.
          2   -1    0    0  501    0  0.00000000000E+00 -0.00000000000E+00 -0.12855396089E+04  0.12855396089E+04  0.00000000000E+00 0. -1.
         24    2    1    2    0    0 -0.42760673016E+03  0.36210625390E+03 -0.43346675027E+03  0.71613845893E+03  0.10484471359E+03 0.  0.
        254    2    1    2    0    0  0.42760673016E+03 -0.36210625390E+03 -0.30870174510E+03  0.11127722636E+04  0.91049266247E+03 0.  0.
         23    2    4    4    0    0  0.55147485142E+03  0.19909367379E+02  0.56739407097E+02  0.56217852625E+03  0.91128702362E+02 0.  0.
         23    2    4    4    0    0 -0.12386812126E+03 -0.38201562128E+03 -0.36544115220E+03  0.55059373735E+03  0.91252295976E+02 0.  0.
          4    1    3    3  502    0 -0.85862383466E+02  0.47296405179E+02 -0.35167446579E+02  0.10414436200E+03  0.00000000000E+00 0. -1.
         -1    1    3    3    0  502 -0.34174434670E+03  0.31480984872E+03 -0.39829930369E+03  0.61199409693E+03  0.00000000000E+00 0.  1.
         11    1    5    5    0    0  0.32859181511E+02  0.13425398224E+02  0.23269854967E+02  0.42443530452E+02  0.00000000000E+00 0.  1.
        -11    1    5    5    0    0  0.51861566991E+03  0.64839691549E+01  0.33469552130E+02  0.51973499579E+03  0.00000000000E+00 0. -1.
          3    1    6    6  503    0 -0.11062122110E+03 -0.37749282256E+03 -0.33347463354E+03  0.51569682649E+03  0.00000000000E+00 0. -1.
         -3    1    6    6    0  503 -0.13246900158E+02 -0.45227987228E+01 -0.31966518660E+02  0.34896910856E+02  0.00000000000E+00 0.  1.
<mgrwt>
<rscale>  0 0.16715563E+04</rscale>
<asrwt>0</asrwt>
<pdfrwt beam="1">  1        2 0.19777532E+00 0.16715563E+04</pdfrwt>
<pdfrwt beam="2">  1       -1 0.83595557E-01 0.16715563E+04</pdfrwt>
<totfact> 0.26014732E+01</totfact>
</mgrwt>
</event>
<event>
12    6  0.1569942E-007  0.1689658E+04  0.7818608E-02  0.8767285E-01
          2   -1    0    0  501    0  0.00000000000E+00  0.00000000000E+00  0.22048495892E+04  0.22048495892E+04  0.00000000000E+00 0. -1.
         -1   -1    0    0    0  501 -0.00000000000E+00 -0.00000000000E+00 -0.32371187494E+03  0.32371187494E+03  0.00000000000E+00 0.  1.
         24    2    1    2    0    0  0.56499138544E+03 -0.75087995188E+02  0.11453286120E+04  0.12818932960E+04  0.81359204344E+02 0.  0.
        254    2    1    2    0    0 -0.56499138544E+03  0.75087995188E+02  0.73580910224E+03  0.12466681681E+04  0.82940521695E+03 0.  0.
         23    2    4    4    0    0  0.59218435118E+01 -0.29001865781E+03  0.34031271316E+03  0.45639217947E+03  0.91297254299E+02 0.  0.
         23    2    4    4    0    0 -0.57091322895E+03  0.36510665300E+03  0.39549638908E+03  0.79027598867E+03  0.94201706162E+02 0.  0.
          2    1    3    3  502    0  0.17549725167E+02 -0.18298936019E+02  0.49584024828E+02  0.55690389036E+02  0.00000000000E+00 0. -1.
         -1    1    3    3    0  502  0.54744166027E+03 -0.56789059168E+02  0.10957445872E+04  0.12262029069E+04  0.00000000000E+00 0.  1.
         11    1    5    5    0    0 -0.72783713101E+00 -0.36843467963E+02  0.10271322033E+03  0.10912367530E+03  0.00000000000E+00 0. -1.
        -11    1    5    5    0    0  0.66496806428E+01 -0.25317518985E+03  0.23759949282E+03  0.34726850418E+03  0.00000000000E+00 0.  1.
          1    1    6    6  503    0 -0.29568773406E+03  0.16320466127E+03  0.24493221342E+03  0.41720353150E+03  0.00000000000E+00 0. -1.
         -1    1    6    6    0  503 -0.27522549489E+03  0.20190199173E+03  0.15056417566E+03  0.37307245717E+03  0.00000000000E+00 0.  1.
<mgrwt>
<rscale>  0 0.16896579E+04</rscale>
<asrwt>0</asrwt>
<pdfrwt beam="1">  1        2 0.33920762E+00 0.16896579E+04</pdfrwt>
<pdfrwt beam="2">  1       -1 0.49801828E-01 0.16896579E+04</pdfrwt>
<totfact> 0.22520533E+01</totfact>
</mgrwt>
</event>
<event>
12    6  0.1569942E-007  0.1374574E+04  0.7818608E-02  0.8972432E-01
         -1   -1    0    0    0  501 -0.00000000000E+00  0.00000000000E+00  0.24860954335E+03  0.24860954335E+03  0.00000000000E+00 0.  1.
          2   -1    0    0  501    0  0.00000000000E+00 -0.00000000000E+00 -0.19000212404E+04  0.19000212404E+04  0.00000000000E+00 0. -1.
         24    2    1    2    0    0 -0.14887386705E+03  0.28656515665E+03 -0.89424938911E+03  0.95448880840E+03  0.84165896556E+02 0.  0.
        254    2    1    2    0    0  0.14887386705E+03 -0.28656515665E+03 -0.75716230793E+03  0.11941419753E+04  0.86509957774E+03 0.  0.
         23    2    4    4    0    0 -0.32276375127E+03  0.66765640628E+01 -0.15301729009E+03  0.36864671277E+03  0.90912552080E+02 0.  0.
         23    2    4    4    0    0  0.47163761833E+03 -0.29324172071E+03 -0.60414501784E+03  0.82549526256E+03  0.89545944367E+02 0.  0.
          2    1    3    3  502    0 -0.61905684813E+02  0.15416935928E+03 -0.34606956927E+03  0.38388103877E+03  0.00000000000E+00 0. -1.
         -1    1    3    3    0  502 -0.86968182239E+02  0.13239579737E+03 -0.54817981984E+03  0.57060776963E+03  0.00000000000E+00 0.  1.
         11    1    5    5    0    0 -0.29665174182E+03 -0.20236734675E+02 -0.12901816151E+03  0.32412569684E+03  0.00000000000E+00 0.  1.
        -11    1    5    5    0    0 -0.26112009458E+02  0.26913298738E+02 -0.23999128578E+02  0.44521015930E+02  0.00000000000E+00 0. -1.
          2    1    6    6  503    0  0.35653405513E+03 -0.26172378848E+03 -0.45594335959E+03  0.63521667254E+03  0.00000000000E+00 0. -1.
         -2    1    6    6    0  503  0.11510356320E+03 -0.31517932228E+02 -0.14820165825E+03  0.19027859002E+03  0.00000000000E+00 0.  1.
<mgrwt>
<rscale>  0 0.13745740E+04</rscale>
<asrwt>0</asrwt>
<pdfrwt beam="1">  1        2 0.29231097E+00 0.13745740E+04</pdfrwt>
<pdfrwt beam="2">  1       -1 0.38247620E-01 0.13745740E+04</pdfrwt>
<totfact> 0.55771432E+01</totfact>
</mgrwt>
</event>
<event>
12    6  0.1569942E-007  0.1634041E+04  0.7818608E-02  0.8799904E-01
          2   -1    0    0  501    0  0.00000000000E+00  0.00000000000E+00  0.10941704892E+04  0.10941704892E+04  0.00000000000E+00 0. -1.
         -1   -1    0    0    0  501 -0.00000000000E+00 -0.00000000000E+00 -0.61007188996E+03  0.61007188996E+03  0.00000000000E+00 0.  1.
         24    2    1    2    0    0  0.68215810840E+02 -0.39877367145E+03 -0.24647388569E+03  0.48030318508E+03  0.79170293546E+02 0.  0.
        254    2    1    2    0    0 -0.68215810840E+02  0.39877367145E+03  0.73057248496E+03  0.12239391941E+04  0.89477212585E+03 0.  0.
         23    2    4    4    0    0 -0.19157716676E+03  0.62148673337E+03  0.68449325149E+03  0.94915310680E+03  0.97020813422E+02 0.  0.
         23    2    4    4    0    0  0.12336135592E+03 -0.22271306191E+03  0.46079233476E+02  0.27478608731E+03  0.92547101208E+02 0.  0.
          2    1    3    3  502    0  0.27728849781E+02 -0.32926980903E+02 -0.15487801627E+02  0.45748739664E+02  0.00000000000E+00 0. -1.
         -1    1    3    3    0  502  0.40486961059E+02 -0.36584669055E+03 -0.23098608407E+03  0.43455444542E+03  0.00000000000E+00 0.  1.
         11    1    5    5    0    0 -0.13795502356E+03  0.33880054348E+03  0.43456275185E+03  0.56803360999E+03  0.00000000000E+00 0. -1.
        -11    1    5    5    0    0 -0.53622143202E+02  0.28268618989E+03  0.24993049963E+03  0.38111949680E+03  0.00000000000E+00 0.  1.
          3    1    6    6  503    0  0.12315679899E+03 -0.14350738819E+03  0.15005148636E+02  0.18970272030E+03  0.00000000000E+00 0. -1.
         -3    1    6    6    0  503  0.20455692454E+00 -0.79205673728E+02  0.31074084841E+02  0.85083367017E+02  0.00000000000E+00 0.  1.
<mgrwt>
<rscale>  0 0.16340412E+04</rscale>
<asrwt>0</asrwt>
<pdfrwt beam="1">  1        2 0.16833392E+00 0.16340412E+04</pdfrwt>
<pdfrwt beam="2">  1       -1 0.93857214E-01 0.16340412E+04</pdfrwt>
<totfact> 0.26372082E+01</totfact>
</mgrwt>
</event>
<event>
12    6  0.1569942E-007  0.1186871E+04  0.7818608E-02  0.9124427E-01
         -1   -1    0    0    0  501 -0.00000000000E+00  0.00000000000E+00  0.31192376771E+03  0.31192376771E+03  0.00000000000E+00 0.  1.
          2   -1    0    0  501    0  0.00000000000E+00 -0.00000000000E+00 -0.11290115482E+04  0.11290115482E+04  0.00000000000E+00 0. -1.
         24    2    1    2    0    0 -0.24220338854E+03  0.57652832471E+01 -0.75063245979E+02  0.26481038987E+03  0.76120508247E+02 0.  0.
        254    2    1    2    0    0  0.24220338854E+03 -0.57652832471E+01 -0.74202453454E+03  0.11761249261E+04  0.87975775753E+03 0.  0.
         23    2    4    4    0    0  0.74738927038E+02  0.39332546912E+03 -0.56696967628E+03  0.70036489282E+03  0.93624448744E+02 0.  0.
         23    2    4    4    0    0  0.16746446150E+03 -0.39909075237E+03 -0.17505485826E+03  0.47576003324E+03  0.91573092891E+02 0.  0.
          4    1    3    3  502    0 -0.25846583665E+02 -0.25680752442E+01 -0.36636576629E+02  0.44909683195E+02  0.00000000000E+00 0. -1.
         -1    1    3    3    0  502 -0.21635680487E+03  0.83333584913E+01 -0.38426669350E+02  0.21990070667E+03  0.00000000000E+00 0.  1.
         11    1    5    5    0    0  0.30276973832E+02  0.30538120583E+03 -0.47539490906E+03  0.56583981442E+03  0.00000000000E+00 0.  1.
        -11    1    5    5    0    0  0.44461953206E+02  0.87944263285E+02 -0.91574767217E+02  0.13452507840E+03  0.00000000000E+00 0. -1.
          2    1    6    6  503    0  0.10554195384E+02 -0.11763827441E+00 -0.14561370146E+02  0.17984392664E+02  0.00000000000E+00 0. -1.
         -2    1    6    6    0  503  0.15691026611E+03 -0.39897311409E+03 -0.16049348811E+03  0.45777564058E+03  0.00000000000E+00 0.  1.
<mgrwt>
<rscale>  0 0.11868707E+04</rscale>
<asrwt>0</asrwt>
<pdfrwt beam="1">  1        2 0.17369408E+00 0.11868707E+04</pdfrwt>
<pdfrwt beam="2">  1       -1 0.47988272E-01 0.11868707E+04</pdfrwt>
<totfact> 0.10213377E+02</totfact>
</mgrwt>
</event>
<event>
12    6  0.1569942E-007  0.1292367E+04  0.7818608E-02  0.9035640E-01
          2   -1    0    0  501    0  0.00000000000E+00  0.00000000000E+00  0.66097937683E+03  0.66097937683E+03  0.00000000000E+00 0. -1.
         -1   -1    0    0    0  501 -0.00000000000E+00 -0.00000000000E+00 -0.63171867686E+03  0.63171867686E+03  0.00000000000E+00 0.  1.
         24    2    1    2    0    0  0.12797180444E+03 -0.28067921172E+03 -0.10995179182E+03  0.33698556552E+03  0.79449809443E+02 0.  0.
        254    2    1    2    0    0 -0.12797180444E+03  0.28067921172E+03  0.13921249180E+03  0.95571248817E+03  0.89378332919E+03 0.  0.
         23    2    4    4    0    0  0.49064112122E+02 -0.95359254427E+02 -0.30600752905E+03  0.33823028763E+03  0.96220814448E+02 0.  0.
         23    2    4    4    0    0 -0.17703591656E+03  0.37603846614E+03  0.44522002085E+03  0.61748220054E+03  0.10157143913E+03 0.  0.
          2    1    3    3  502    0  0.42959080104E+02 -0.66396771161E+02  0.52830367605E+01  0.79258591089E+02  0.00000000000E+00 0. -1.
         -1    1    3    3    0  502  0.85012724339E+02 -0.21428244056E+03 -0.11523482858E+03  0.25772697443E+03  0.00000000000E+00 0.  1.
         11    1    5    5    0    0  0.12687100076E+02 -0.12562661523E+02  0.12907500163E+01  0.17901089589E+02  0.00000000000E+00 0.  1.
        -11    1    5    5    0    0  0.36377012046E+02 -0.82796592904E+02 -0.30729827906E+03  0.32032919804E+03  0.00000000000E+00 0. -1.
          2    1    6    6  503    0 -0.16799763963E+03  0.36061193637E+03  0.44827350036E+03  0.59934406370E+03  0.00000000000E+00 0. -1.
         -2    1    6    6    0  503 -0.90382769297E+01  0.15426529776E+02 -0.30534795096E+01  0.18138136836E+02  0.00000000000E+00 0.  1.
<mgrwt>
<rscale>  0 0.12923668E+04</rscale>
<asrwt>0</asrwt>
<pdfrwt beam="1">  1        2 0.10168913E+00 0.12923668E+04</pdfrwt>
<pdfrwt beam="2">  1       -1 0.97187489E-01 0.12923668E+04</pdfrwt>
<totfact> 0.50207597E+01</totfact>
</mgrwt>
</event>
<event>
12    6  0.1569942E-007  0.2333807E+04  0.7818608E-02  0.8464710E-01
          2   -1    0    0  501    0  0.00000000000E+00  0.00000000000E+00  0.17710975794E+04  0.17710975794E+04  0.00000000000E+00 0. -1.
         -1   -1    0    0    0  501 -0.00000000000E+00 -0.00000000000E+00 -0.76882462811E+03  0.76882462811E+03  0.00000000000E+00 0.  1.
         24    2    1    2    0    0 -0.70708596389E+03  0.22450262702E+03  0.11333234495E+04  0.13567786851E+04  0.77809826918E+02 0.  0.
        254    2    1    2    0    0  0.70708596389E+03 -0.22450262702E+03 -0.13105049822E+03  0.11831435224E+04  0.91229511219E+03 0.  0.
         23    2    4    4    0    0  0.45413926224E+03  0.30451703494E+03  0.65475891144E+02  0.55777409327E+03  0.88610116372E+02 0.  0.
         23    2    4    4    0    0  0.25294670165E+03 -0.52901966196E+03 -0.19652638937E+03  0.62536942917E+03  0.92846457138E+02 0.  0.
          2    1    3    3  502    0 -0.61013704162E+03  0.21603617280E+03  0.10113990984E+04  0.12007776537E+04  0.00000000000E+00 0. -1.
         -1    1    3    3    0  502 -0.96948922272E+02  0.84664542210E+01  0.12192435115E+03  0.15600103134E+03  0.00000000000E+00 0.  1.
         11    1    5    5    0    0  0.37119781981E+03  0.21278676643E+03  0.29021672799E+02  0.42884529482E+03  0.00000000000E+00 0. -1.
        -11    1    5    5    0    0  0.82941442433E+02  0.91730268517E+02  0.36454218345E+02  0.12892879845E+03  0.00000000000E+00 0.  1.
          1    1    6    6  503    0  0.19255313994E+03 -0.46018563709E+03 -0.14146152844E+03  0.51851605213E+03  0.00000000000E+00 0. -1.
         -1    1    6    6    0  503  0.60393561710E+02 -0.68834024866E+02 -0.55064860926E+02  0.10685337704E+03  0.00000000000E+00 0.  1.
<mgrwt>
<rscale>  0 0.23338067E+04</rscale>
<asrwt>0</asrwt>
<pdfrwt beam="1">  1        2 0.27247655E+00 0.23338067E+04</pdfrwt>
<pdfrwt beam="2">  1       -1 0.11828071E+00 0.23338067E+04</pdfrwt>
<totfact> 0.59106017E+00</totfact>
</mgrwt>
</event>
<event>
12    6  0.1569942E-007  0.1643899E+04  0.7818608E-02  0.8794024E-01
         -3   -1    0    0    0  501 -0.00000000000E+00  0.00000000000E+00  0.35610645298E+03  0.35610645298E+03  0.00000000000E+00 0.  1.
          2   -1    0    0  501    0  0.00000000000E+00 -0.00000000000E+00 -0.18971879829E+04  0.18971879829E+04  0.00000000000E+00 0. -1.
         24    2    1    2    0    0 -0.35210575667E+03 -0.34412918324E+02  0.74335052907E+02  0.37040283152E+03  0.80683608492E+02 0.  0.
        254    2    1    2    0    0  0.35210575667E+03  0.34412918324E+02 -0.16154165828E+04  0.18828916043E+04  0.90030402913E+03 0.  0.
         23    2    4    4    0    0  0.46767032899E+03  0.15860129852E+03 -0.16132675037E+04  0.16896444893E+04  0.91632707580E+02 0.  0.
         23    2    4    4    0    0 -0.11556457232E+03 -0.12418838019E+03 -0.21490790511E+01  0.19324711502E+03  0.92530561299E+02 0.  0.
          4    1    3    3  502    0 -0.10078947518E+02 -0.16341610292E+02 -0.25700034748E+01  0.19371069353E+02  0.00000000000E+00 0. -1.
         -3    1    3    3    0  502 -0.34202680915E+03 -0.18071308031E+02  0.76905056382E+02  0.35103176217E+03  0.00000000000E+00 0.  1.
         11    1    5    5    0    0  0.44712432005E+03  0.16041855914E+03 -0.14686407388E+04  0.15435543046E+04  0.00000000000E+00 0.  1.
        -11    1    5    5    0    0  0.20546008946E+02 -0.18172606200E+01 -0.14462676492E+03  0.14609018465E+03  0.00000000000E+00 0. -1.
          2    1    6    6  503    0 -0.43810550013E+02 -0.24041279064E+02  0.38964583986E+02  0.63368653107E+02  0.00000000000E+00 0. -1.
         -2    1    6    6    0  503 -0.71754022306E+02 -0.10014710113E+03 -0.41113663037E+02  0.12987846192E+03  0.00000000000E+00 0.  1.
<mgrwt>
<rscale>  0 0.16438989E+04</rscale>
<asrwt>0</asrwt>
<pdfrwt beam="1">  1        2 0.29187508E+00 0.16438989E+04</pdfrwt>
<pdfrwt beam="2">  1       -3 0.54785607E-01 0.16438989E+04</pdfrwt>
<totfact> 0.15351371E+01</totfact>
</mgrwt>
</event>
<event>
12    6  0.1569942E-007  0.2064286E+04  0.7818608E-02  0.8577141E-01
          2   -1    0    0  501    0  0.00000000000E+00  0.00000000000E+00  0.22552941741E+04  0.22552941741E+04  0.00000000000E+00 0. -1.
         -1   -1    0    0    0  501 -0.00000000000E+00 -0.00000000000E+00 -0.47236390385E+03  0.47236390385E+03  0.00000000000E+00 0.  1.
         24    2    1    2    0    0  0.52640744096E+03 -0.26566149996E+03 -0.51709463878E+02  0.59736995189E+03  0.80598785966E+02 0.  0.
        254    2    1    2    0    0 -0.52640744096E+03  0.26566149996E+03  0.18346397342E+04  0.21302881261E+04  0.90804389739E+03 0.  0.
         23    2    4    4    0    0  0.67886754155E+02  0.40251939129E+03  0.10641166281E+04  0.11434095271E+04  0.91709740948E+02 0.  0.
         23    2    4    4    0    0 -0.59429419512E+03 -0.13685789133E+03  0.77052310604E+03  0.98687859904E+03  0.91147350607E+02 0.  0.
          4    1    3    3  502    0  0.16346791596E+03 -0.10044541586E+03  0.17405362301E+02  0.19264990981E+03  0.00000000000E+00 0. -1.
         -3    1    3    3    0  502  0.36293952501E+03 -0.16521608410E+03 -0.69114826179E+02  0.40472004207E+03  0.00000000000E+00 0.  1.
         11    1    5    5    0    0 -0.92842633229E+01  0.26921385726E+02  0.34647692857E+02  0.44848870388E+02  0.00000000000E+00 0. -1.
        -11    1    5    5    0    0  0.77171017477E+02  0.37559800556E+03  0.10294689353E+04  0.10985606567E+04  0.00000000000E+00 0.  1.
          3    1    6    6  503    0 -0.99217548473E+02 -0.26087503776E+02  0.18993649368E+03  0.21587160863E+03  0.00000000000E+00 0. -1.
         -3    1    6    6    0  503 -0.49507664665E+03 -0.11077038755E+03  0.58058661236E+03  0.77100699041E+03  0.00000000000E+00 0.  1.
<mgrwt>
<rscale>  0 0.20642864E+04</rscale>
<asrwt>0</asrwt>
<pdfrwt beam="1">  1        2 0.34696833E+00 0.20642864E+04</pdfrwt>
<pdfrwt beam="2">  1       -1 0.72671371E-01 0.20642864E+04</pdfrwt>
<totfact> 0.96549638E+00</totfact>
</mgrwt>
</event>
<event>
12    6  0.1569942E-007  0.1342584E+04  0.7818608E-02  0.8996461E-01
          4   -1    0    0  501    0  0.00000000000E+00  0.00000000000E+00  0.86164053766E+03  0.86164053766E+03  0.00000000000E+00 0. -1.
         -3   -1    0    0    0  501 -0.00000000000E+00 -0.00000000000E+00 -0.52299381191E+03  0.52299381191E+03  0.00000000000E+00 0.  1.
         24    2    1    2    0    0  0.19171532204E+03  0.30070108687E+03  0.16673588088E+03  0.40192433930E+03  0.81033401728E+02 0.  0.
        254    2    1    2    0    0 -0.19171532204E+03 -0.30070108687E+03  0.17191084487E+03  0.98271001028E+03  0.89943855675E+03 0.  0.
         23    2    4    4    0    0  0.29912648888E+03 -0.11844556868E+03 -0.14258996742E+03  0.36355599204E+03  0.91296502949E+02 0.  0.
         23    2    4    4    0    0 -0.49084181092E+03 -0.18225551819E+03  0.31450081229E+03  0.61915401823E+03  0.10147994930E+03 0.  0.
          2    1    3    3  502    0  0.10406204377E+02  0.44307593290E+01  0.23738251539E+02  0.26294967273E+02  0.00000000000E+00 0. -1.
         -1    1    3    3    0  502  0.18130911766E+03  0.29627032754E+03  0.14299762935E+03  0.37562937203E+03  0.00000000000E+00 0.  1.
         11    1    5    5    0    0  0.23258601646E+03 -0.12880460350E+03 -0.12591979925E+03  0.29418136715E+03  0.00000000000E+00 0.  1.
        -11    1    5    5    0    0  0.66540472419E+02  0.10359034814E+02 -0.16670168168E+02  0.69374624891E+02  0.00000000000E+00 0. -1.
          4    1    6    6  503    0 -0.87637356863E+02 -0.31733527099E+02  0.14019468971E+02  0.94254276138E+02  0.00000000000E+00 0. -1.
         -4    1    6    6    0  503 -0.40320445406E+03 -0.15052199109E+03  0.30048134332E+03  0.52489974210E+03  0.00000000000E+00 0.  1.
<mgrwt>
<rscale>  0 0.13425836E+04</rscale>
<asrwt>0</asrwt>
<pdfrwt beam="1">  1        4 0.13256008E+00 0.13425836E+04</pdfrwt>
<pdfrwt beam="2">  1       -3 0.80460586E-01 0.13425836E+04</pdfrwt>
<totfact> 0.13199340E+00</totfact>
</mgrwt>
</event>
<event>
12    6  0.1569942E-007  0.1776226E+04  0.7818608E-02  0.8719045E-01
         -3   -1    0    0    0  501 -0.00000000000E+00  0.00000000000E+00  0.43746857895E+03  0.43746857895E+03  0.00000000000E+00 0.  1.
          2   -1    0    0  501    0  0.00000000000E+00 -0.00000000000E+00 -0.18029755040E+04  0.18029755040E+04  0.00000000000E+00 0. -1.
         24    2    1    2    0    0 -0.45002379078E+03  0.34356796713E+03 -0.92267650478E+02  0.57894224266E+03  0.78105318036E+02 0.  0.
        254    2    1    2    0    0  0.45002379078E+03 -0.34356796713E+03 -0.12732392745E+04  0.16615018403E+04  0.90492527573E+03 0.  0.
         23    2    4    4    0    0  0.15670429969E+03 -0.45036327221E+03 -0.12427527789E+04  0.13343117340E+04  0.92574400250E+02 0.  0.
         23    2    4    4    0    0  0.29331949109E+03  0.10679530508E+03 -0.30486495678E+02  0.32719010627E+03  0.93179279810E+02 0.  0.
          2    1    3    3  502    0 -0.19940410997E+03  0.17954815802E+03 -0.76442843878E+02  0.27900367112E+03  0.00000000000E+00 0. -1.
         -1    1    3    3    0  502 -0.25061968082E+03  0.16401980911E+03 -0.15824806600E+02  0.29993857154E+03  0.00000000000E+00 0.  1.
         11    1    5    5    0    0  0.11217280819E+03 -0.28743184300E+03 -0.91455811889E+03  0.96520275388E+03  0.00000000000E+00 0. -1.
        -11    1    5    5    0    0  0.44531491503E+02 -0.16293142922E+03 -0.32819465996E+03  0.36910898010E+03  0.00000000000E+00 0.  1.
          3    1    6    6  503    0  0.28913418934E+03  0.99438683241E+02 -0.11009956980E+02  0.30595400034E+03  0.00000000000E+00 0. -1.
         -3    1    6    6    0  503  0.41853017453E+01  0.73566218438E+01 -0.19476538698E+02  0.21236105936E+02  0.00000000000E+00 0.  1.
<mgrwt>
<rscale>  0 0.17762265E+04</rscale>
<asrwt>0</asrwt>
<pdfrwt beam="1">  1        2 0.27738084E+00 0.17762265E+04</pdfrwt>
<pdfrwt beam="2">  1       -3 0.67302859E-01 0.17762265E+04</pdfrwt>
<totfact> 0.11051640E+01</totfact>
</mgrwt>
</event>
<event>
12    6  0.1569942E-007  0.1939878E+04  0.7818608E-02  0.8635257E-01
          2   -1    0    0  501    0  0.00000000000E+00  0.00000000000E+00  0.20520759385E+04  0.20520759385E+04  0.00000000000E+00 0. -1.
         -1   -1    0    0    0  501 -0.00000000000E+00 -0.00000000000E+00 -0.45845352305E+03  0.45845352305E+03  0.00000000000E+00 0.  1.
         24    2    1    2    0    0 -0.57983517090E+03  0.18084779498E+03  0.12137525291E+04  0.13593823421E+04  0.76225977863E+02 0.  0.
        254    2    1    2    0    0  0.57983517090E+03 -0.18084779498E+03  0.37986988636E+03  0.11511471195E+04  0.90106814934E+03 0.  0.
         23    2    4    4    0    0  0.48505761123E+02  0.29433804142E+03 -0.46608907608E+02  0.31516446773E+03  0.90380086089E+02 0.  0.
         23    2    4    4    0    0  0.53132940978E+03 -0.47518583640E+03  0.42647879396E+03  0.83598265175E+03  0.94182331195E+02 0.  0.
          4    1    3    3  502    0 -0.47004011929E+03  0.17073346473E+03  0.10323733247E+04  0.11471191356E+04  0.00000000000E+00 0. -1.
         -3    1    3    3    0  502 -0.10979505161E+03  0.10114330251E+02  0.18137920441E+03  0.21226320649E+03  0.00000000000E+00 0.  1.
         11    1    5    5    0    0  0.26710317004E+02  0.27594927702E+03 -0.23086801446E+02  0.27819857103E+03  0.00000000000E+00 0. -1.
        -11    1    5    5    0    0  0.21795444119E+02  0.18388764402E+02 -0.23522106162E+02  0.36965896700E+02  0.00000000000E+00 0.  1.
          1    1    6    6  503    0  0.17478134258E+03 -0.17736765819E+03  0.19873253536E+03  0.31859445145E+03  0.00000000000E+00 0. -1.
         -1    1    6    6    0  503  0.35654806720E+03 -0.29781817821E+03  0.22774625860E+03  0.51738820029E+03  0.00000000000E+00 0.  1.
<mgrwt>
<rscale>  0 0.19398778E+04</rscale>
<asrwt>0</asrwt>
<pdfrwt beam="1">  1        2 0.31570398E+00 0.19398778E+04</pdfrwt>
<pdfrwt beam="2">  1       -1 0.70531313E-01 0.19398778E+04</pdfrwt>
<totfact> 0.13494001E+01</totfact>
</mgrwt>
</event>
<event>
12    6  0.1569942E-007  0.1672060E+04  0.7818608E-02  0.8777462E-01
         -1   -1    0    0    0  501 -0.00000000000E+00  0.00000000000E+00  0.85855633391E+03  0.85855633391E+03  0.00000000000E+00 0.  1.
          2   -1    0    0  501    0  0.00000000000E+00 -0.00000000000E+00 -0.81409511092E+03  0.81409511092E+03  0.00000000000E+00 0. -1.
         24    2    1    2    0    0 -0.58180131711E+03  0.70945253229E+02 -0.28389467002E+02  0.59226144449E+03  0.80259923024E+02 0.  0.
        254    2    1    2    0    0  0.58180131711E+03 -0.70945253229E+02  0.72850689993E+02  0.10803900003E+04  0.90465978593E+03 0.  0.
         23    2    4    4    0    0  0.51153462184E+02  0.34368239714E+03 -0.11140793307E+03  0.37610536020E+03  0.91155074569E+02 0.  0.
         23    2    4    4    0    0  0.53064785492E+03 -0.41462765037E+03  0.18425862307E+03  0.70428464015E+03  0.92533128064E+02 0.  0.
          4    1    3    3  502    0 -0.51387195789E+03  0.73948955006E+02 -0.48308297154E+02  0.52140821688E+03  0.00000000000E+00 0. -1.
         -3    1    3    3    0  502 -0.67929359215E+02 -0.30037017767E+01  0.19918830152E+02  0.70853227607E+02  0.00000000000E+00 0.  1.
         11    1    5    5    0    0  0.52568296858E+02  0.22996460039E+03 -0.33525189510E+02  0.23826682858E+03  0.00000000000E+00 0. -1.
        -11    1    5    5    0    0 -0.14148346736E+01  0.11371779675E+03 -0.77882743563E+02  0.13783853162E+03  0.00000000000E+00 0.  1.
          1    1    6    6  503    0  0.52483582449E+02 -0.74311736944E+02  0.72309944329E+01  0.91263617915E+02  0.00000000000E+00 0. -1.
         -1    1    6    6    0  503  0.47816427248E+03 -0.34031591343E+03  0.17702762863E+03  0.61302102224E+03  0.00000000000E+00 0.  1.
<mgrwt>
<rscale>  0 0.16720604E+04</rscale>
<asrwt>0</asrwt>
<pdfrwt beam="1">  1        2 0.12524540E+00 0.16720604E+04</pdfrwt>
<pdfrwt beam="2">  1       -1 0.13208559E+00 0.16720604E+04</pdfrwt>
<totfact> 0.17845770E+01</totfact>
</mgrwt>
</event>
<event>
12    6  0.1569942E-007  0.1609595E+04  0.7818608E-02  0.8814675E-01
          2   -1    0    0  501    0  0.00000000000E+00  0.00000000000E+00  0.31351288508E+03  0.31351288508E+03  0.00000000000E+00 0. -1.
         -1   -1    0    0    0  501 -0.00000000000E+00 -0.00000000000E+00 -0.20659409098E+04  0.20659409098E+04  0.00000000000E+00 0.  1.
         24    2    1    2    0    0  0.23907044312E+03  0.14176900760E+03 -0.13119052489E+04  0.13435057124E+04  0.81603240168E+02 0.  0.
        254    2    1    2    0    0 -0.23907044312E+03 -0.14176900760E+03 -0.44052277580E+03  0.10359480825E+04  0.89547472624E+03 0.  0.
         23    2    4    4    0    0 -0.22185719125E+03 -0.50729246891E+03 -0.25481899123E+03  0.61613701638E+03  0.90143454181E+02 0.  0.
         23    2    4    4    0    0 -0.17213251873E+02  0.36552346132E+03 -0.18570378458E+03  0.41981106612E+03  0.88610037917E+02 0.  0.
          2    1    3    3  502    0  0.46530013640E+02  0.42901305552E+01 -0.12971361970E+03  0.13787338584E+03  0.00000000000E+00 0. -1.
         -1    1    3    3    0  502  0.19254042948E+03  0.13747887704E+03 -0.11821916292E+04  0.12056323266E+04  0.00000000000E+00 0.  1.
         11    1    5    5    0    0 -0.90447319869E+02 -0.13498059700E+03 -0.10700569712E+03  0.19455255962E+03  0.00000000000E+00 0.  1.
        -11    1    5    5    0    0 -0.13140987138E+03 -0.37231187191E+03 -0.14781329411E+03  0.42158445676E+03  0.00000000000E+00 0. -1.
          4    1    6    6  503    0  0.25011625134E+02  0.21753440815E+03 -0.13742989115E+03  0.25852229131E+03  0.00000000000E+00 0.  1.
         -4    1    6    6    0  503 -0.42224877006E+02  0.14798905316E+03 -0.48273893432E+02  0.16128877481E+03  0.00000000000E+00 0. -1.
<mgrwt>
<rscale>  0 0.16095951E+04</rscale>
<asrwt>0</asrwt>
<pdfrwt beam="1">  1        2 0.48232752E-01 0.16095951E+04</pdfrwt>
<pdfrwt beam="2">  1       -1 0.31783706E+00 0.16095951E+04</pdfrwt>
<totfact> 0.29061490E+00</totfact>
</mgrwt>
</event>
<event>
12    6  0.1569942E-007  0.1442496E+04  0.7818608E-02  0.8923620E-01
         -1   -1    0    0    0  501 -0.00000000000E+00  0.00000000000E+00  0.43770085331E+03  0.43770085331E+03  0.00000000000E+00 0.  1.
          2   -1    0    0  501    0  0.00000000000E+00 -0.00000000000E+00 -0.11884791462E+04  0.11884791462E+04  0.00000000000E+00 0. -1.
         24    2    1    2    0    0  0.11070195161E+03  0.33056026860E+03 -0.52744483960E+03  0.63714986277E+03  0.78973891523E+02 0.  0.
        254    2    1    2    0    0 -0.11070195161E+03 -0.33056026860E+03 -0.22333345334E+03  0.98903013679E+03  0.89820808659E+03 0.  0.
         23    2    4    4    0    0  0.31677774896E+03  0.10083617087E+03 -0.12869105021E+03  0.36773345042E+03  0.90279723958E+02 0.  0.
         23    2    4    4    0    0 -0.42747970057E+03 -0.43139643948E+03 -0.94642403129E+02  0.62129668637E+03  0.90612392240E+02 0.  0.
          2    1    3    3  502    0  0.92364319463E+02  0.31377145518E+03 -0.51298301760E+03  0.60838743408E+03  0.00000000000E+00 0. -1.
         -1    1    3    3    0  502  0.18337632150E+02  0.16788813420E+02 -0.14461821999E+02  0.28762428695E+02  0.00000000000E+00 0.  1.
         11    1    5    5    0    0  0.12772841018E+03  0.67843799613E+02 -0.94608281906E+02  0.17282376838E+03  0.00000000000E+00 0.  1.
        -11    1    5    5    0    0  0.18904933878E+03  0.32992371261E+02 -0.34082768304E+02  0.19490968203E+03  0.00000000000E+00 0. -1.
          1    1    6    6  503    0 -0.29843720557E+03 -0.32565963346E+03 -0.10538912220E+03  0.45412094161E+03  0.00000000000E+00 0. -1.
         -1    1    6    6    0  503 -0.12904249501E+03 -0.10573680601E+03  0.10746719073E+02  0.16717574476E+03  0.00000000000E+00 0.  1.
<mgrwt>
<rscale>  0 0.14424955E+04</rscale>
<asrwt>0</asrwt>
<pdfrwt beam="1">  1        2 0.18284295E+00 0.14424955E+04</pdfrwt>
<pdfrwt beam="2">  1       -1 0.67338593E-01 0.14424955E+04</pdfrwt>
<totfact> 0.47562218E+01</totfact>
</mgrwt>
</event>
<event>
12    6  0.1569942E-007  0.1594026E+04  0.7818608E-02  0.8824227E-01
         -1   -1    0    0    0  501 -0.00000000000E+00  0.00000000000E+00  0.16411468081E+03  0.16411468081E+03  0.00000000000E+00 0.  1.
          2   -1    0    0  501    0  0.00000000000E+00 -0.00000000000E+00 -0.38706434339E+04  0.38706434339E+04  0.00000000000E+00 0. -1.
         24    2    1    2    0    0 -0.18416149588E+03  0.23430165572E+03 -0.23788835495E+04  0.23987003059E+04  0.76573448412E+02 0.  0.
        254    2    1    2    0    0  0.18416149588E+03 -0.23430165572E+03 -0.13276452036E+04  0.16360578088E+04  0.90842206308E+03 0.  0.
         23    2    4    4    0    0 -0.11383085646E+03 -0.50627622830E+03 -0.89276116163E+03  0.10366468061E+04  0.91329215813E+02 0.  0.
         23    2    4    4    0    0  0.29799235234E+03  0.27197457257E+03 -0.43488404198E+03  0.59941100272E+03  0.86022148498E+02 0.  0.
          4    1    3    3  502    0 -0.12299897466E+03  0.20478344249E+03 -0.19245963427E+04  0.19393648673E+04  0.00000000000E+00 0. -1.
         -3    1    3    3    0  502 -0.61162521220E+02  0.29518213232E+02 -0.45428720679E+03  0.45933543862E+03  0.00000000000E+00 0.  1.
         11    1    5    5    0    0 -0.10239953433E+03 -0.50066651495E+03 -0.84771059540E+03  0.98983123681E+03  0.00000000000E+00 0.  1.
        -11    1    5    5    0    0 -0.11431322136E+02 -0.56097133423E+01 -0.45050566231E+02  0.46815569283E+02  0.00000000000E+00 0. -1.
          2    1    6    6  503    0  0.23238353565E+02 -0.88003352841E+00 -0.12526256693E+02  0.26414061448E+02  0.00000000000E+00 0. -1.
         -2    1    6    6    0  503  0.27475399878E+03  0.27285460610E+03 -0.42235778529E+03  0.57299694127E+03  0.00000000000E+00 0.  1.
<mgrwt>
<rscale>  0 0.15940256E+04</rscale>
<asrwt>0</asrwt>
<pdfrwt beam="1">  1        2 0.59548362E+00 0.15940256E+04</pdfrwt>
<pdfrwt beam="2">  1       -1 0.25248412E-01 0.15940256E+04</pdfrwt>
<totfact> 0.66374844E+00</totfact>
</mgrwt>
</event>
<event>
12    6  0.1569942E-007  0.1746581E+04  0.7818608E-02  0.8735234E-01
          2   -1    0    0  501    0  0.00000000000E+00  0.00000000000E+00  0.72064122301E+03  0.72064122301E+03  0.00000000000E+00 0. -1.
         -1   -1    0    0    0  501 -0.00000000000E+00 -0.00000000000E+00 -0.10582749703E+04  0.10582749703E+04  0.00000000000E+00 0.  1.
         24    2    1    2    0    0  0.25644972147E+03 -0.15676401501E+03 -0.70801147908E+03  0.77347150073E+03  0.81464666497E+02 0.  0.
        254    2    1    2    0    0 -0.25644972147E+03  0.15676401501E+03  0.37037773177E+03  0.10054446926E+04  0.88509770626E+03 0.  0.
         23    2    4    4    0    0  0.80139794238E+02  0.22485350138E+03 -0.20473865447E+03  0.32944112725E+03  0.98143038401E+02 0.  0.
         23    2    4    4    0    0 -0.33658951571E+03 -0.68089486368E+02  0.57511638625E+03  0.67600356534E+03  0.91067460601E+02 0.  0.
          2    1    3    3  502    0  0.71355289464E+01 -0.24178367412E+02 -0.31170492371E+02  0.40088761750E+02  0.00000000000E+00 0. -1.
         -1    1    3    3    0  502  0.24931419253E+03 -0.13258564760E+03 -0.67684098670E+03  0.73338273898E+03  0.00000000000E+00 0.  1.
         11    1    5    5    0    0  0.53653431974E+02  0.96984491408E+02 -0.15312174950E+03  0.18902632755E+03  0.00000000000E+00 0.  1.
        -11    1    5    5    0    0  0.26486362264E+02  0.12786900997E+03 -0.51616904975E+02  0.14041479971E+03  0.00000000000E+00 0. -1.
          4    1    6    6  503    0 -0.19043839621E+03 -0.79549700153E+02  0.29784988243E+03  0.36236651336E+03  0.00000000000E+00 0. -1.
         -4    1    6    6    0  503 -0.14615111951E+03  0.11460213785E+02  0.27726650382E+03  0.31363705198E+03  0.00000000000E+00 0.  1.
<mgrwt>
<rscale>  0 0.17465813E+04</rscale>
<asrwt>0</asrwt>
<pdfrwt beam="1">  1        2 0.11086788E+00 0.17465813E+04</pdfrwt>
<pdfrwt beam="2">  1       -1 0.16281153E+00 0.17465813E+04</pdfrwt>
<totfact> 0.11894933E+01</totfact>
</mgrwt>
</event>
<event>
12    6  0.1569942E-007  0.1568497E+04  0.7818608E-02  0.8840139E-01
         -1   -1    0    0    0  501 -0.00000000000E+00  0.00000000000E+00  0.57122253702E+03  0.57122253702E+03  0.00000000000E+00 0.  1.
          2   -1    0    0  501    0  0.00000000000E+00 -0.00000000000E+00 -0.10767185998E+04  0.10767185998E+04  0.00000000000E+00 0. -1.
         24    2    1    2    0    0  0.18154180540E+02 -0.19738210783E+03  0.33424103302E+03  0.39674881144E+03  0.80020500247E+02 0.  0.
        254    2    1    2    0    0 -0.18154180540E+02  0.19738210783E+03 -0.83973709580E+03  0.12511923254E+04  0.90610958181E+03 0.  0.
         23    2    4    4    0    0 -0.22280396594E+03  0.13286570375E+03  0.92657896615E+02  0.29009534340E+03  0.90966587206E+02 0.  0.
         23    2    4    4    0    0  0.20464978540E+03  0.64516404081E+02 -0.93239499242E+03  0.96109698198E+03  0.91121269863E+02 0.  0.
          4    1    3    3  502    0  0.19950615724E+02 -0.15862752060E+02  0.82754849709E+02  0.86591103013E+02  0.00000000000E+00 0. -1.
         -3    1    3    3    0  502 -0.17964351845E+01 -0.18151935577E+03  0.25148618331E+03  0.31015770842E+03  0.00000000000E+00 0.  1.
         11    1    5    5    0    0  0.69397668273E+01  0.14891820431E+02  0.29288520683E+01  0.16688464693E+02  0.00000000000E+00 0. -1.
        -11    1    5    5    0    0 -0.22974373276E+03  0.11797388331E+03  0.89729044547E+02  0.27340687871E+03  0.00000000000E+00 0.  1.
          3    1    6    6  503    0  0.74234181432E+02 -0.18716441292E+02 -0.25415273089E+03  0.26543290957E+03  0.00000000000E+00 0. -1.
         -3    1    6    6    0  503  0.13041560396E+03  0.83232845372E+02 -0.67824226153E+03  0.69566407240E+03  0.00000000000E+00 0.  1.
<mgrwt>
<rscale>  0 0.15684973E+04</rscale>
<asrwt>0</asrwt>
<pdfrwt beam="1">  1        2 0.16564901E+00 0.15684973E+04</pdfrwt>
<pdfrwt beam="2">  1       -1 0.87880391E-01 0.15684973E+04</pdfrwt>
<totfact> 0.31443969E+01</totfact>
</mgrwt>
</event>
<event>
12    6  0.1569942E-007  0.1248249E+04  0.7818608E-02  0.9071642E-01
          2   -1    0    0  501    0  0.00000000000E+00  0.00000000000E+00  0.60450324146E+03  0.60450324146E+03  0.00000000000E+00 0. -1.
         -3   -1    0    0    0  501 -0.00000000000E+00 -0.00000000000E+00 -0.64438218599E+03  0.64438218599E+03  0.00000000000E+00 0.  1.
         24    2    1    2    0    0  0.48003413489E+02 -0.24832797404E+03  0.11177560725E+03  0.28769470957E+03  0.79393634114E+02 0.  0.
        254    2    1    2    0    0 -0.48003413489E+02  0.24832797404E+03 -0.15165455178E+03  0.96119071788E+03  0.91483188765E+03 0.  0.
         23    2    4    4    0    0 -0.17324259048E+03 -0.29906052054E+03 -0.15781412886E+03  0.39086758676E+03  0.91771351796E+02 0.  0.
         23    2    4    4    0    0  0.12523917699E+03  0.54738849458E+03  0.61595770763E+01  0.57032313112E+03  0.99556607261E+02 0.  0.
          2    1    3    3  502    0 -0.21701626153E+01 -0.75888527889E+02  0.70096952630E+02  0.10333131684E+03  0.00000000000E+00 0. -1.
         -1    1    3    3    0  502  0.50173576105E+02 -0.17243944615E+03  0.41678654625E+02  0.18436339273E+03  0.00000000000E+00 0.  1.
         11    1    5    5    0    0 -0.15627186849E+03 -0.23809167487E+03 -0.16163318390E+03  0.32746576716E+03  0.00000000000E+00 0.  1.
        -11    1    5    5    0    0 -0.16970721986E+02 -0.60968845670E+02  0.38190550408E+01  0.63401819599E+02  0.00000000000E+00 0. -1.
          2    1    6    6  503    0 -0.44167527551E+01  0.12753272689E+02 -0.14492102995E+02  0.19803401688E+02  0.00000000000E+00 0. -1.
         -2    1    6    6    0  503  0.12965592974E+03  0.53463522189E+03  0.20651680072E+02  0.55051972943E+03  0.00000000000E+00 0.  1.
<mgrwt>
<rscale>  0 0.12482486E+04</rscale>
<asrwt>0</asrwt>
<pdfrwt beam="1">  1        2 0.93000499E-01 0.12482486E+04</pdfrwt>
<pdfrwt beam="2">  1       -3 0.99135721E-01 0.12482486E+04</pdfrwt>
<totfact> 0.27198073E+01</totfact>
</mgrwt>
</event>
<event>
12    6  0.1569942E-007  0.1843389E+04  0.7818608E-02  0.8683560E-01
          2   -1    0    0  501    0  0.00000000000E+00  0.00000000000E+00  0.17074468249E+04  0.17074468249E+04  0.00000000000E+00 0. -1.
         -1   -1    0    0    0  501 -0.00000000000E+00 -0.00000000000E+00 -0.49753845944E+03  0.49753845944E+03  0.00000000000E+00 0.  1.
         24    2    1    2    0    0 -0.12859287589E+03 -0.29841078956E+03 -0.28017878943E+03  0.43497642345E+03  0.71548639778E+02 0.  0.
        254    2    1    2    0    0  0.12859287589E+03  0.29841078956E+03  0.14900871549E+04  0.17700088609E+04  0.89832427968E+03 0.  0.
         23    2    4    4    0    0  0.91475882314E+02  0.60948735443E+03  0.10700625925E+04  0.12380919598E+04  0.89415192713E+02 0.  0.
         23    2    4    4    0    0  0.37116993577E+02 -0.31107656488E+03  0.42002456243E+03  0.53191690118E+03  0.91480360135E+02 0.  0.
          2    1    3    3  502    0 -0.26711504774E+02 -0.13010246673E+03 -0.14279526953E+03  0.19501447468E+03  0.00000000000E+00 0. -1.
         -1    1    3    3    0  502 -0.10188137112E+03 -0.16830832283E+03 -0.13738351990E+03  0.23996194876E+03  0.00000000000E+00 0.  1.
         11    1    5    5    0    0  0.91240431731E+02  0.60798338648E+03  0.10719076011E+04  0.12357000121E+04  0.00000000000E+00 0. -1.
        -11    1    5    5    0    0  0.23545058247E+00  0.15039679522E+01 -0.18450086331E+01  0.23919476236E+01  0.00000000000E+00 0.  1.
          1    1    6    6  503    0  0.11237978995E+01 -0.22652148216E+03  0.34766659466E+03  0.41495217296E+03  0.00000000000E+00 0. -1.
         -1    1    6    6    0  503  0.35993195678E+02 -0.84555082715E+02  0.72357967770E+02  0.11696472822E+03  0.00000000000E+00 0.  1.
<mgrwt>
<rscale>  0 0.18433887E+04</rscale>
<asrwt>0</asrwt>
<pdfrwt beam="1">  1        2 0.26268412E+00 0.18433887E+04</pdfrwt>
<pdfrwt beam="2">  1       -1 0.76544379E-01 0.18433887E+04</pdfrwt>
<totfact> 0.17830131E+01</totfact>
</mgrwt>
</event>
<event>
12    6  0.1569942E-007  0.2487047E+04  0.7818608E-02  0.8407615E-01
          2   -1    0    0  501    0  0.00000000000E+00  0.00000000000E+00  0.15153872700E+04  0.15153872700E+04  0.00000000000E+00 0. -1.
         -1   -1    0    0    0  501 -0.00000000000E+00 -0.00000000000E+00 -0.10204327726E+04  0.10204327726E+04  0.00000000000E+00 0.  1.
         24    2    1    2    0    0  0.34903402813E+03  0.68906942852E+03  0.98305403213E+03  0.12528337814E+04  0.80968040060E+02 0.  0.
        254    2    1    2    0    0 -0.34903402813E+03 -0.68906942852E+03 -0.48809953472E+03  0.12829862613E+04  0.90065040982E+03 0.  0.
         23    2    4    4    0    0  0.18073493278E+03 -0.44808166245E+03 -0.49065297274E+03  0.69460414527E+03  0.91061994361E+02 0.  0.
         23    2    4    4    0    0 -0.52976896091E+03 -0.24098776607E+03  0.25534380272E+01  0.58838211600E+03  0.86352411905E+02 0.  0.
          2    1    3    3  502    0  0.22791195825E+03  0.46097359786E+03  0.59153167647E+03  0.78380497759E+03  0.00000000000E+00 0. -1.
         -1    1    3    3    0  502  0.12112206989E+03  0.22809583066E+03  0.39152235566E+03  0.46902880376E+03  0.00000000000E+00 0.  1.
         11    1    5    5    0    0  0.14163665950E+02 -0.93809697179E+02 -0.58312646370E+02  0.11136082545E+03  0.00000000000E+00 0. -1.
        -11    1    5    5    0    0  0.16657126683E+03 -0.35427196527E+03 -0.43234032637E+03  0.58324331982E+03  0.00000000000E+00 0.  1.
          4    1    6    6  503    0 -0.23722721760E+02  0.61935886696E+01 -0.55371213976E+01  0.25135389030E+02  0.00000000000E+00 0. -1.
         -4    1    6    6    0  503 -0.50604623915E+03 -0.24718135474E+03  0.80905594248E+01  0.56324672697E+03  0.00000000000E+00 0.  1.
<mgrwt>
<rscale>  0 0.24870471E+04</rscale>
<asrwt>0</asrwt>
<pdfrwt beam="1">  1        2 0.23313650E+00 0.24870471E+04</pdfrwt>
<pdfrwt beam="2">  1       -1 0.15698966E+00 0.24870471E+04</pdfrwt>
<totfact> 0.38983541E+00</totfact>
</mgrwt>
</event>
<event>
12    6  0.1569942E-007  0.1725895E+04  0.7818608E-02  0.8746732E-01
          2   -1    0    0  501    0  0.00000000000E+00  0.00000000000E+00  0.38838797045E+04  0.38838797045E+04  0.00000000000E+00 0. -1.
         -1   -1    0    0    0  501 -0.00000000000E+00 -0.00000000000E+00 -0.19173571468E+03  0.19173571468E+03  0.00000000000E+00 0.  1.
         24    2    1    2    0    0  0.99815147036E+02 -0.45708336619E+03  0.36161910226E+03  0.59674730667E+03  0.80316285202E+02 0.  0.
        254    2    1    2    0    0 -0.99815147036E+02  0.45708336619E+03  0.33305248876E+04  0.34788681125E+04  0.88951618891E+03 0.  0.
         23    2    4    4    0    0 -0.31852916124E+03  0.24472101908E+03  0.29674621965E+04  0.29958943614E+04  0.90564524925E+02 0.  0.
         23    2    4    4    0    0  0.21871401421E+03  0.21236234711E+03  0.36306269106E+03  0.48297375113E+03  0.92279684399E+02 0.  0.
          2    1    3    3  502    0  0.16609386363E+02 -0.12457998404E+03  0.14217084071E+03  0.18975930040E+03  0.00000000000E+00 0. -1.
         -1    1    3    3    0  502  0.83205760674E+02 -0.33250338215E+03  0.21944826155E+03  0.40698800627E+03  0.00000000000E+00 0.  1.
         11    1    5    5    0    0 -0.33939903880E+02  0.52161072269E+02  0.66919264131E+03  0.67207996974E+03  0.00000000000E+00 0.  1.
        -11    1    5    5    0    0 -0.28458925736E+03  0.19255994681E+03  0.22982695552E+04  0.23238143917E+04  0.00000000000E+00 0. -1.
          3    1    6    6  503    0  0.21314694013E+03  0.21989748561E+03  0.33742376692E+03  0.45567677223E+03  0.00000000000E+00 0. -1.
         -3    1    6    6    0  503  0.55670740731E+01 -0.75351384927E+01  0.25638924142E+02  0.27296978899E+02  0.00000000000E+00 0.  1.
<mgrwt>
<rscale>  0 0.17258951E+04</rscale>
<asrwt>0</asrwt>
<pdfrwt beam="1">  1        2 0.59751989E+00 0.17258951E+04</pdfrwt>
<pdfrwt beam="2">  1       -1 0.29497805E-01 0.17258951E+04</pdfrwt>
<totfact> 0.48803615E+00</totfact>
</mgrwt>
</event>
<event>
12    6  0.1569942E-007  0.1475024E+04  0.7818608E-02  0.8901234E-01
         -1   -1    0    0    0  501 -0.00000000000E+00  0.00000000000E+00  0.27909238114E+03  0.27909238114E+03  0.00000000000E+00 0.  1.
          2   -1    0    0  501    0  0.00000000000E+00 -0.00000000000E+00 -0.19489028356E+04  0.19489028356E+04  0.00000000000E+00 0. -1.
         24    2    1    2    0    0 -0.15354519615E+02  0.24890497365E+02  0.16986445332E+03  0.19026325613E+03  0.80565972962E+02 0.  0.
        254    2    1    2    0    0  0.15354519615E+02 -0.24890497365E+02 -0.18396749078E+04  0.20377319606E+04  0.87583815788E+03 0.  0.
         23    2    4    4    0    0  0.17682230044E+03 -0.35750620902E+03 -0.50193257481E+03  0.64674268635E+03  0.85223102923E+02 0.  0.
         23    2    4    4    0    0 -0.16146778083E+03  0.33261571165E+03 -0.13377423330E+04  0.13909892743E+04  0.92690645538E+02 0.  0.
          2    1    3    3  502    0 -0.12465030506E+02  0.32999748816E+02  0.20801562906E+02  0.40951989290E+02  0.00000000000E+00 0. -1.
         -1    1    3    3    0  502 -0.28894891091E+01 -0.81092514517E+01  0.14906289042E+03  0.14931126684E+03  0.00000000000E+00 0.  1.
         11    1    5    5    0    0 -0.83497192851E+01 -0.65533032726E+01 -0.18319865660E+02  0.21172649190E+02  0.00000000000E+00 0.  1.
        -11    1    5    5    0    0  0.18517201973E+03 -0.35095290574E+03 -0.48361270915E+03  0.62557003716E+03  0.00000000000E+00 0. -1.
          4    1    6    6  503    0 -0.55038775348E+02  0.21413791191E+03 -0.82210378020E+03  0.85131600333E+03  0.00000000000E+00 0. -1.
         -4    1    6    6    0  503 -0.10642900548E+03  0.11847779974E+03 -0.51563855277E+03  0.53967327092E+03  0.00000000000E+00 0.  1.
<mgrwt>
<rscale>  0 0.14750240E+04</rscale>
<asrwt>0</asrwt>
<pdfrwt beam="1">  1        2 0.29983120E+00 0.14750240E+04</pdfrwt>
<pdfrwt beam="2">  1       -1 0.42937290E-01 0.14750240E+04</pdfrwt>
<totfact> 0.42050564E+01</totfact>
</mgrwt>
</event>
<event>
12    6  0.1569942E-007  0.2339761E+04  0.7818608E-02  0.8462407E-01
         -1   -1    0    0    0  501 -0.00000000000E+00  0.00000000000E+00  0.47589985639E+03  0.47589985639E+03  0.00000000000E+00 0.  1.
          2   -1    0    0  501    0  0.00000000000E+00 -0.00000000000E+00 -0.28758586695E+04  0.28758586695E+04  0.00000000000E+00 0. -1.
         24    2    1    2    0    0  0.24789789288E+03  0.17230709612E+03 -0.23716946979E+04  0.23919174818E+04  0.72044424268E+02 0.  0.
        254    2    1    2    0    0 -0.24789789288E+03 -0.17230709612E+03 -0.28264115270E+02  0.95984104415E+03  0.91068812947E+03 0.  0.
         23    2    4    4    0    0 -0.43922442083E+01  0.33011929293E+03 -0.16230209915E+03  0.37850924917E+03  0.89046285393E+02 0.  0.
         23    2    4    4    0    0 -0.24350564867E+03 -0.50242638906E+03  0.13403798388E+03  0.58133179497E+03  0.90847109852E+02 0.  0.
          4    1    3    3  502    0  0.20979939579E+03  0.17305734971E+03 -0.21133776331E+04  0.21308049307E+04  0.00000000000E+00 0. -1.
         -3    1    3    3    0  502  0.38098497088E+02 -0.75025358587E+00 -0.25831706481E+03  0.26111255108E+03  0.00000000000E+00 0.  1.
         11    1    5    5    0    0 -0.26090640989E+02  0.31600583851E+02 -0.32347795313E+02  0.52208220699E+02  0.00000000000E+00 0. -1.
        -11    1    5    5    0    0  0.21698396781E+02  0.29851870908E+03 -0.12995430384E+03  0.32630102847E+03  0.00000000000E+00 0.  1.
          2    1    6    6  503    0 -0.44648347938E+01 -0.81141162540E+02  0.21237316314E+02  0.83993134317E+02  0.00000000000E+00 0. -1.
         -2    1    6    6    0  503 -0.23904081387E+03 -0.42128522652E+03  0.11280066757E+03  0.49733866066E+03  0.00000000000E+00 0.  1.
<mgrwt>
<rscale>  0 0.23397613E+04</rscale>
<asrwt>0</asrwt>
<pdfrwt beam="1">  1        2 0.44243980E+00 0.23397613E+04</pdfrwt>
<pdfrwt beam="2">  1       -1 0.73215362E-01 0.23397613E+04</pdfrwt>
<totfact> 0.40197256E+00</totfact>
</mgrwt>
</event>
<event>
12    6  0.1569942E-007  0.1848227E+04  0.7818608E-02  0.8681065E-01
          2   -1    0    0  501    0  0.00000000000E+00  0.00000000000E+00  0.25053901980E+04  0.25053901980E+04  0.00000000000E+00 0. -1.
         -1   -1    0    0    0  501 -0.00000000000E+00 -0.00000000000E+00 -0.34085922636E+03  0.34085922636E+03  0.00000000000E+00 0.  1.
         24    2    1    2    0    0 -0.37722189503E+03 -0.56976889512E+03  0.12401414705E+04  0.14183439853E+04  0.82558111139E+02 0.  0.
        254    2    1    2    0    0  0.37722189503E+03  0.56976889512E+03  0.92438950112E+03  0.14279054391E+04  0.84704488741E+03 0.  0.
         23    2    4    4    0    0  0.22810602370E+03  0.64998538012E+03  0.27041627945E+03  0.74561280863E+03  0.91105124900E+02 0.  0.
         23    2    4    4    0    0  0.14911587133E+03 -0.80216485000E+02  0.65397322167E+03  0.68229263047E+03  0.95770723011E+02 0.  0.
          2    1    3    3  502    0 -0.12782713557E+03 -0.14670997356E+03  0.29826942822E+03  0.35612953366E+03  0.00000000000E+00 0. -1.
         -1    1    3    3    0  502 -0.24939475946E+03 -0.42305892155E+03  0.94187204230E+03  0.10622144516E+04  0.00000000000E+00 0.  1.
         11    1    5    5    0    0  0.12932617257E+02  0.14293858598E+03  0.44426755365E+02  0.15024123450E+03  0.00000000000E+00 0. -1.
        -11    1    5    5    0    0  0.21517340644E+03  0.50704679413E+03  0.22598952409E+03  0.59537157413E+03  0.00000000000E+00 0.  1.
          4    1    6    6  503    0  0.35227226126E+02 -0.17297385469E+02  0.45605178312E+02  0.60166346852E+02  0.00000000000E+00 0. -1.
         -4    1    6    6    0  503  0.11388864521E+03 -0.62919099531E+02  0.60836804335E+03  0.62212628362E+03  0.00000000000E+00 0.  1.
<mgrwt>
<rscale>  0 0.18482266E+04</rscale>
<asrwt>0</asrwt>
<pdfrwt beam="1">  1        2 0.38544463E+00 0.18482266E+04</pdfrwt>
<pdfrwt beam="2">  1       -1 0.52439883E-01 0.18482266E+04</pdfrwt>
<totfact> 0.13571559E+01</totfact>
</mgrwt>
</event>
<event>
12    6  0.1569942E-007  0.2780384E+04  0.7818608E-02  0.8309384E-01
         -1   -1    0    0    0  501 -0.00000000000E+00  0.00000000000E+00  0.88855199051E+03  0.88855199051E+03  0.00000000000E+00 0.  1.
          2   -1    0    0  501    0  0.00000000000E+00 -0.00000000000E+00 -0.21750378007E+04  0.21750378007E+04  0.00000000000E+00 0. -1.
         24    2    1    2    0    0  0.11532253072E+04  0.46646003970E+03 -0.49491359586E+03  0.13411960268E+04  0.79710332294E+02 0.  0.
        254    2    1    2    0    0 -0.11532253072E+04 -0.46646003970E+03 -0.79157221437E+03  0.17223937645E+04  0.89024723053E+03 0.  0.
         23    2    4    4    0    0 -0.12670048807E+04 -0.30735394197E+03 -0.62038864974E+03  0.14467257290E+04  0.91462806162E+02 0.  0.
         23    2    4    4    0    0  0.11377957350E+03 -0.15910609773E+03 -0.17118356462E+03  0.27566803543E+03  0.91806923913E+02 0.  0.
          2    1    3    3  502    0  0.30331973041E+02  0.20449242631E+02 -0.27258013661E+02  0.45620164637E+02  0.00000000000E+00 0. -1.
         -1    1    3    3    0  502  0.11228933342E+04  0.44601079707E+03 -0.46765558219E+03  0.12955758621E+04  0.00000000000E+00 0.  1.
         11    1    5    5    0    0 -0.11866969374E+03 -0.12136418527E+02 -0.80559306319E+02  0.14394301200E+03  0.00000000000E+00 0. -1.
        -11    1    5    5    0    0 -0.11483351870E+04 -0.29521752344E+03 -0.53982934342E+03  0.13027827170E+04  0.00000000000E+00 0.  1.
          1    1    6    6  503    0  0.12203497893E+02  0.11149175108E+02 -0.22184146726E+02  0.27665245930E+02  0.00000000000E+00 0. -1.
         -1    1    6    6    0  503  0.10157607561E+03 -0.17025527284E+03 -0.14899941790E+03  0.24800278950E+03  0.00000000000E+00 0.  1.
<mgrwt>
<rscale>  0 0.27803843E+04</rscale>
<asrwt>0</asrwt>
<pdfrwt beam="1">  1        2 0.33462120E+00 0.27803843E+04</pdfrwt>
<pdfrwt beam="2">  1       -1 0.13670031E+00 0.27803843E+04</pdfrwt>
<totfact> 0.23578606E+00</totfact>
</mgrwt>
</event>
<event>
12    6  0.1569942E-007  0.1621243E+04  0.7818608E-02  0.8807603E-01
         -1   -1    0    0    0  501 -0.00000000000E+00  0.00000000000E+00  0.46776555075E+03  0.46776555075E+03  0.00000000000E+00 0.  1.
          2   -1    0    0  501    0  0.00000000000E+00 -0.00000000000E+00 -0.14047793078E+04  0.14047793078E+04  0.00000000000E+00 0. -1.
         24    2    1    2    0    0  0.49790387384E+03  0.23428540179E+03 -0.44615052770E+03  0.71281804844E+03  0.79128754186E+02 0.  0.
        254    2    1    2    0    0 -0.49790387384E+03 -0.23428540179E+03 -0.49086322934E+03  0.11597268101E+04  0.89510985196E+03 0.  0.
         23    2    4    4    0    0 -0.17408027813E+03  0.25893316904E+03  0.78490361492E+02  0.33480759583E+03  0.92655599481E+02 0.  0.
         23    2    4    4    0    0 -0.32382359571E+03 -0.49321857084E+03 -0.56935359083E+03  0.82491921427E+03  0.90564446233E+02 0.  0.
          4    1    3    3  502    0  0.48327781548E+03  0.21072896207E+03 -0.43243886282E+03  0.68188526342E+03  0.00000000000E+00 0. -1.
         -3    1    3    3    0  502  0.14626058361E+02  0.23556439723E+02 -0.13711664885E+02  0.30932785027E+02  0.00000000000E+00 0.  1.
         11    1    5    5    0    0 -0.41148333378E+02  0.10151859303E+02  0.19420024232E+02  0.46619555213E+02  0.00000000000E+00 0. -1.
        -11    1    5    5    0    0 -0.13293194475E+03  0.24878130974E+03  0.59070337260E+02  0.28818804062E+03  0.00000000000E+00 0.  1.
          1    1    6    6  503    0 -0.29832349344E+02 -0.10964664860E+03 -0.11112214676E+03  0.15893548413E+03  0.00000000000E+00 0. -1.
         -1    1    6    6    0  503 -0.29399124637E+03 -0.38357192224E+03 -0.45823144407E+03  0.66598373014E+03  0.00000000000E+00 0.  1.
<mgrwt>
<rscale>  0 0.16212432E+04</rscale>
<asrwt>0</asrwt>
<pdfrwt beam="1">  1        2 0.21611989E+00 0.16212432E+04</pdfrwt>
<pdfrwt beam="2">  1       -1 0.71963931E-01 0.16212432E+04</pdfrwt>
<totfact> 0.30575289E+01</totfact>
</mgrwt>
</event>
<event>
12    6  0.1569942E-007  0.1233665E+04  0.7818608E-02  0.9083890E-01
          2   -1    0    0  501    0  0.00000000000E+00  0.00000000000E+00  0.18343383815E+04  0.18343383815E+04  0.00000000000E+00 0. -1.
         -1   -1    0    0    0  501 -0.00000000000E+00 -0.00000000000E+00 -0.20742194170E+03  0.20742194170E+03  0.00000000000E+00 0.  1.
         24    2    1    2    0    0 -0.17139899474E+03 -0.20922502096E+03  0.49941994202E+03  0.57351308298E+03  0.79650819630E+02 0.  0.
        254    2    1    2    0    0  0.17139899474E+03  0.20922502096E+03  0.11274964978E+04  0.14682472402E+04  0.90074906669E+03 0.  0.
         23    2    4    4    0    0  0.10736164199E+03  0.15270289713E+03 -0.10292669708E+03  0.23165552904E+03  0.90695546755E+02 0.  0.
         23    2    4    4    0    0  0.64037352748E+02  0.56522123832E+02  0.12304231949E+04  0.12365917112E+04  0.89007239466E+02 0.  0.
          2    1    3    3  502    0 -0.12019751852E+03 -0.13041667676E+03  0.39522412425E+03  0.43319517706E+03  0.00000000000E+00 0. -1.
         -1    1    3    3    0  502 -0.51201476217E+02 -0.78808344196E+02  0.10419581778E+03  0.14031790593E+03  0.00000000000E+00 0.  1.
         11    1    5    5    0    0  0.53164208149E+02  0.68101772141E+02 -0.98591042258E+02  0.13108958010E+03  0.00000000000E+00 0.  1.
        -11    1    5    5    0    0  0.54197433844E+02  0.84601124987E+02 -0.43356548240E+01  0.10056594894E+03  0.00000000000E+00 0. -1.
          1    1    6    6  503    0  0.38848354455E+02 -0.56228861398E+01  0.80130815343E+03  0.80226901239E+03  0.00000000000E+00 0. -1.
         -1    1    6    6    0  503  0.25188998293E+02  0.62145009972E+02  0.42911504145E+03  0.43432269880E+03  0.00000000000E+00 0.  1.
<mgrwt>
<rscale>  0 0.12336645E+04</rscale>
<asrwt>0</asrwt>
<pdfrwt beam="1">  1        2 0.28220589E+00 0.12336645E+04</pdfrwt>
<pdfrwt beam="2">  1       -1 0.31911069E-01 0.12336645E+04</pdfrwt>
<totfact> 0.84781901E+01</totfact>
</mgrwt>
</event>
<event>
12    6  0.1569942E-007  0.1646546E+04  0.7818608E-02  0.8792452E-01
         -3   -1    0    0    0  501 -0.00000000000E+00  0.00000000000E+00  0.20074566167E+03  0.20074566167E+03  0.00000000000E+00 0.  1.
          2   -1    0    0  501    0  0.00000000000E+00 -0.00000000000E+00 -0.33763053033E+04  0.33763053033E+04  0.00000000000E+00 0. -1.
         24    2    1    2    0    0  0.37465774123E+03  0.12610580731E+03 -0.19579868635E+03  0.44828901134E+03  0.79717089808E+02 0.  0.
        254    2    1    2    0    0 -0.37465774123E+03 -0.12610580731E+03 -0.29797609553E+04  0.31287619537E+04  0.86827698014E+03 0.  0.
         23    2    4    4    0    0 -0.61514637462E+03 -0.45685814307E+02 -0.15013645403E+04  0.16257963471E+04  0.92876388938E+02 0.  0.
         23    2    4    4    0    0  0.24048863339E+03 -0.80419992998E+02 -0.14783964150E+04  0.15029656065E+04  0.94591207159E+02 0.  0.
          4    1    3    3  502    0  0.15028926312E+02  0.12163615546E+02 -0.31180848949E+02  0.36688792709E+02  0.00000000000E+00 0. -1.
         -3    1    3    3    0  502  0.35962881492E+03  0.11394219176E+03 -0.16461783740E+03  0.41160021863E+03  0.00000000000E+00 0.  1.
         11    1    5    5    0    0 -0.47269918541E+03 -0.20307919959E+02 -0.10467874550E+04  0.11487475386E+04  0.00000000000E+00 0.  1.
        -11    1    5    5    0    0 -0.14244718921E+03 -0.25377894348E+02 -0.45457708527E+03  0.47704880850E+03  0.00000000000E+00 0. -1.
          3    1    6    6  503    0 -0.34728118486E+01 -0.47131926272E+00 -0.14708398802E+03  0.14712573567E+03  0.00000000000E+00 0. -1.
         -3    1    6    6    0  503  0.24396144524E+03 -0.79948673735E+02 -0.13313124270E+04  0.13558398709E+04  0.00000000000E+00 0.  1.
<mgrwt>
<rscale>  0 0.16465463E+04</rscale>
<asrwt>0</asrwt>
<pdfrwt beam="1">  1        2 0.51943153E+00 0.16465463E+04</pdfrwt>
<pdfrwt beam="2">  1       -3 0.30883951E-01 0.16465463E+04</pdfrwt>
<totfact> 0.63712388E+00</totfact>
</mgrwt>
</event>
<event>
12    6  0.1569942E-007  0.3034482E+04  0.7818608E-02  0.8233952E-01
          2   -1    0    0  501    0  0.00000000000E+00  0.00000000000E+00  0.18557650034E+04  0.18557650034E+04  0.00000000000E+00 0. -1.
         -1   -1    0    0    0  501 -0.00000000000E+00 -0.00000000000E+00 -0.12404698135E+04  0.12404698135E+04  0.00000000000E+00 0.  1.
         24    2    1    2    0    0  0.39468002426E+03  0.67222286207E+03  0.14464476170E+04  0.16464096716E+04  0.10391438839E+03 0.  0.
        254    2    1    2    0    0 -0.39468002426E+03 -0.67222286207E+03 -0.83115242709E+03  0.14498251453E+04  0.89639427547E+03 0.  0.
         23    2    4    4    0    0 -0.40215882142E+03 -0.40803986933E+03 -0.90871737409E+01  0.58115173214E+03  0.97090197400E+02 0.  0.
         23    2    4    4    0    0  0.74787971615E+01 -0.26418299274E+03 -0.82206525335E+03  0.86867341318E+03  0.94623633142E+02 0.  0.
          4    1    3    3  502    0  0.39043282171E+03  0.66458360901E+03  0.14447559753E+04  0.16375069435E+04  0.00000000000E+00 0. -1.
         -3    1    3    3    0  502  0.42472025443E+01  0.76392530644E+01  0.16916417008E+01  0.89027281481E+01  0.00000000000E+00 0.  1.
         11    1    5    5    0    0 -0.29410026085E+03 -0.27174823187E+03 -0.46879104854E+02  0.40316214533E+03  0.00000000000E+00 0. -1.
        -11    1    5    5    0    0 -0.10805856057E+03 -0.13629163746E+03  0.37791931113E+02  0.17798958681E+03  0.00000000000E+00 0.  1.
          4    1    6    6  503    0  0.27543724100E+02 -0.16344095734E+02 -0.89252727653E+02  0.94825289855E+02  0.00000000000E+00 0. -1.
         -4    1    6    6    0  503 -0.20064926939E+02 -0.24783889701E+03 -0.73281252569E+03  0.77384812333E+03  0.00000000000E+00 0.  1.
<mgrwt>
<rscale>  0 0.30344821E+04</rscale>
<asrwt>0</asrwt>
<pdfrwt beam="1">  1        2 0.28550231E+00 0.30344821E+04</pdfrwt>
<pdfrwt beam="2">  1       -1 0.19084151E+00 0.30344821E+04</pdfrwt>
<totfact> 0.13604097E+00</totfact>
</mgrwt>
</event>
<event>
12    6  0.1569942E-007  0.1562941E+04  0.7818608E-02  0.8843644E-01
          2   -1    0    0  501    0  0.00000000000E+00  0.00000000000E+00  0.50279878315E+03  0.50279878315E+03  0.00000000000E+00 0. -1.
         -1   -1    0    0    0  501 -0.00000000000E+00 -0.00000000000E+00 -0.12145935886E+04  0.12145935886E+04  0.00000000000E+00 0.  1.
         24    2    1    2    0    0  0.22030967571E+03  0.39070276015E+03 -0.51991036682E+03  0.69109486373E+03  0.78232481456E+02 0.  0.
        254    2    1    2    0    0 -0.22030967571E+03 -0.39070276015E+03 -0.19188443860E+03  0.10262975080E+04  0.90292964128E+03 0.  0.
         23    2    4    4    0    0 -0.27604253252E+03 -0.61592599689E+03 -0.31336329325E+03  0.74916160333E+03  0.86499947603E+02 0.  0.
         23    2    4    4    0    0  0.55732856810E+02  0.22522323674E+03  0.12147885465E+03  0.27713590465E+03  0.90639615084E+02 0.  0.
          2    1    3    3  502    0  0.13105946202E+03  0.24682869927E+03 -0.37854356857E+03  0.47052760033E+03  0.00000000000E+00 0. -1.
         -1    1    3    3    0  502  0.89250213697E+02  0.14387406088E+03 -0.14136679825E+03  0.22056726341E+03  0.00000000000E+00 0.  1.
         11    1    5    5    0    0 -0.78448932932E+01 -0.78444715652E+02 -0.23932701952E+02  0.82388652054E+02  0.00000000000E+00 0.  1.
        -11    1    5    5    0    0 -0.26819763923E+03 -0.53748128124E+03 -0.28943059130E+03  0.66677295127E+03  0.00000000000E+00 0. -1.
          3    1    6    6  503    0 -0.19006678395E+02  0.19736043555E+02  0.28488143784E+02  0.39526441467E+02  0.00000000000E+00 0.  1.
         -3    1    6    6    0  503  0.74739535206E+02  0.20548719319E+03  0.92990710866E+02  0.23760946319E+03  0.00000000000E+00 0. -1.
<mgrwt>
<rscale>  0 0.15629410E+04</rscale>
<asrwt>0</asrwt>
<pdfrwt beam="1">  1        2 0.77353660E-01 0.15629410E+04</pdfrwt>
<pdfrwt beam="2">  1       -1 0.18686055E+00 0.15629410E+04</pdfrwt>
<totfact> 0.12503383E+01</totfact>
</mgrwt>
</event>
<event>
12    6  0.1569942E-007  0.1624659E+04  0.7818608E-02  0.8805541E-01
         -1   -1    0    0    0  501 -0.00000000000E+00  0.00000000000E+00  0.38054626510E+03  0.38054626510E+03  0.00000000000E+00 0.  1.
          2   -1    0    0  501    0  0.00000000000E+00 -0.00000000000E+00 -0.17340304523E+04  0.17340304523E+04  0.00000000000E+00 0. -1.
         24    2    1    2    0    0  0.17838518610E+03  0.53648253499E+03 -0.40363421944E+03  0.69919556170E+03  0.79492549573E+02 0.  0.
        254    2    1    2    0    0 -0.17838518610E+03 -0.53648253499E+03 -0.94984996773E+03  0.14153811557E+04  0.88399890819E+03 0.  0.
         23    2    4    4    0    0 -0.16932192352E+03 -0.56025231210E+03 -0.15187188235E+03  0.61185556465E+03  0.93539277036E+02 0.  0.
         23    2    4    4    0    0 -0.90632625884E+01  0.23769777116E+02 -0.79797808538E+03  0.80352559103E+03  0.90759052737E+02 0.  0.
          2    1    3    3  502    0  0.10458582703E+03  0.42132991297E+03 -0.30358554474E+03  0.52973698545E+03  0.00000000000E+00 0. -1.
         -3    1    3    3    0  502  0.73799359073E+02  0.11515262201E+03 -0.10004867470E+03  0.16945857625E+03  0.00000000000E+00 0.  1.
         11    1    5    5    0    0 -0.15288958216E+03 -0.55423356203E+03 -0.14416656757E+03  0.59273439652E+03  0.00000000000E+00 0. -1.
        -11    1    5    5    0    0 -0.16432341357E+02 -0.60187500729E+01 -0.77053147775E+01  0.19121168132E+02  0.00000000000E+00 0.  1.
          3    1    6    6  503    0 -0.47695096118E+02  0.14649387535E+02 -0.56417331624E+03  0.56637527975E+03  0.00000000000E+00 0. -1.
         -3    1    6    6    0  503  0.38631833530E+02  0.91203895811E+01 -0.23380476914E+03  0.23715031128E+03  0.00000000000E+00 0.  1.
<mgrwt>
<rscale>  0 0.16246585E+04</rscale>
<asrwt>0</asrwt>
<pdfrwt beam="1">  1        2 0.26677392E+00 0.16246585E+04</pdfrwt>
<pdfrwt beam="2">  1       -1 0.58545579E-01 0.16246585E+04</pdfrwt>
<totfact> 0.30264081E+01</totfact>
</mgrwt>
</event>
<event>
12    6  0.1569942E-007  0.3023011E+04  0.7818608E-02  0.8237190E-01
         -1   -1    0    0    0  501 -0.00000000000E+00  0.00000000000E+00  0.19018777931E+04  0.19018777931E+04  0.00000000000E+00 0.  1.
          2   -1    0    0  501    0  0.00000000000E+00 -0.00000000000E+00 -0.12012592654E+04  0.12012592654E+04  0.00000000000E+00 0. -1.
         24    2    1    2    0    0  0.64011454571E+03  0.97832996234E+03  0.10678059254E+04  0.15853709114E+04  0.79468770978E+02 0.  0.
        254    2    1    2    0    0 -0.64011454571E+03 -0.97832996234E+03 -0.36718739770E+03  0.15177661471E+04  0.89549502812E+03 0.  0.
         23    2    4    4    0    0 -0.45206442942E+03 -0.26555567361E+01 -0.20695866225E+02  0.46153884331E+03  0.90666888512E+02 0.  0.
         23    2    4    4    0    0 -0.18805011629E+03 -0.97567440560E+03 -0.34649153148E+03  0.10562273038E+04  0.90864425843E+02 0.  0.
          2    1    3    3  502    0  0.24887313750E+03  0.35468773025E+03  0.44448424638E+03  0.62073139911E+03  0.00000000000E+00 0. -1.
         -1    1    3    3    0  502  0.39124140821E+03  0.62364223209E+03  0.62332167904E+03  0.96463951230E+03  0.00000000000E+00 0.  1.
         11    1    5    5    0    0 -0.13235984651E+03  0.40222100932E+02 -0.45083067535E+00  0.13833708693E+03  0.00000000000E+00 0.  1.
        -11    1    5    5    0    0 -0.31970458291E+03 -0.42877657668E+02 -0.20245035550E+02  0.32320175638E+03  0.00000000000E+00 0. -1.
          2    1    6    6  503    0 -0.81802856308E+02 -0.57672860232E+03 -0.16636985620E+03  0.60579412103E+03  0.00000000000E+00 0. -1.
         -2    1    6    6    0  503 -0.10624725998E+03 -0.39894580329E+03 -0.18012167528E+03  0.45043318275E+03  0.00000000000E+00 0.  1.
<mgrwt>
<rscale>  0 0.30230106E+04</rscale>
<asrwt>0</asrwt>
<pdfrwt beam="1">  1        2 0.18480912E+00 0.30230106E+04</pdfrwt>
<pdfrwt beam="2">  1       -1 0.29259658E+00 0.30230106E+04</pdfrwt>
<totfact> 0.67875885E-01</totfact>
</mgrwt>
</event>
<event>
12    6  0.1569942E-007  0.2332915E+04  0.7818608E-02  0.8465055E-01
         -1   -1    0    0    0  501 -0.00000000000E+00  0.00000000000E+00  0.62886048174E+03  0.62886048174E+03  0.00000000000E+00 0.  1.
          2   -1    0    0  501    0  0.00000000000E+00 -0.00000000000E+00 -0.21636322560E+04  0.21636322560E+04  0.00000000000E+00 0. -1.
         24    2    1    2    0    0 -0.35561210038E+03  0.95627657600E+02  0.44755389339E+03  0.58505941030E+03  0.79908768277E+02 0.  0.
        254    2    1    2    0    0  0.35561210038E+03 -0.95627657600E+02 -0.19823256677E+04  0.22074333275E+04  0.89863353358E+03 0.  0.
         23    2    4    4    0    0  0.64434774291E+03 -0.11963252648E+03 -0.12386398625E+04  0.14042348335E+04  0.90281799917E+02 0.  0.
         23    2    4    4    0    0 -0.28873564253E+03  0.24004868877E+02 -0.74368580511E+03  0.80319849394E+03  0.90081845780E+02 0.  0.
          2    1    3    3  502    0 -0.10122823801E+03 -0.89989372527E+01  0.11403697427E+03  0.15275001979E+03  0.00000000000E+00 0. -1.
         -1    1    3    3    0  502 -0.25438386237E+03  0.10462659485E+03  0.33351691912E+03  0.43230939051E+03  0.00000000000E+00 0.  1.
         11    1    5    5    0    0  0.94606988198E+02  0.72264136954E+01 -0.22441048964E+03  0.24364476422E+03  0.00000000000E+00 0. -1.
        -11    1    5    5    0    0  0.54974075471E+03 -0.12685894017E+03 -0.10142293729E+04  0.11605900693E+04  0.00000000000E+00 0.  1.
          2    1    6    6  503    0 -0.89506272575E+02 -0.14814700790E+02 -0.14503142173E+03  0.17107004845E+03  0.00000000000E+00 0. -1.
         -2    1    6    6    0  503 -0.19922936995E+03  0.38819569667E+02 -0.59865438339E+03  0.63212844548E+03  0.00000000000E+00 0.  1.
<mgrwt>
<rscale>  0 0.23329148E+04</rscale>
<asrwt>0</asrwt>
<pdfrwt beam="1">  1        2 0.33286650E+00 0.23329148E+04</pdfrwt>
<pdfrwt beam="2">  1       -1 0.96747766E-01 0.23329148E+04</pdfrwt>
<totfact> 0.57220592E+00</totfact>
</mgrwt>
</event>
<event>
12    6  0.1569942E-007  0.1447799E+04  0.7818608E-02  0.8919927E-01
          2   -1    0    0  501    0  0.00000000000E+00  0.00000000000E+00  0.25857383802E+03  0.25857383802E+03  0.00000000000E+00 0. -1.
         -1   -1    0    0    0  501 -0.00000000000E+00 -0.00000000000E+00 -0.20266196253E+04  0.20266196253E+04  0.00000000000E+00 0.  1.
         24    2    1    2    0    0  0.92099736028E+02 -0.34710600364E+03 -0.94683594697E+03  0.10159091600E+04  0.81290661989E+02 0.  0.
        254    2    1    2    0    0 -0.92099736028E+02  0.34710600364E+03 -0.82120984036E+03  0.12692843034E+04  0.89873917339E+03 0.  0.
         23    2    4    4    0    0  0.24312696454E+03  0.47555184927E+03 -0.27218428968E+03  0.60660047954E+03  0.92841650100E+02 0.  0.
         23    2    4    4    0    0 -0.33522670056E+03 -0.12844584563E+03 -0.54902555068E+03  0.66268382385E+03  0.94050619704E+02 0.  0.
          4    1    3    3  502    0  0.35882088328E+02 -0.13657046250E+03 -0.26754577094E+03  0.30252232156E+03  0.00000000000E+00 0. -1.
         -3    1    3    3    0  502  0.56217647700E+02 -0.21053554114E+03 -0.67929017602E+03  0.71338683843E+03  0.00000000000E+00 0.  1.
         11    1    5    5    0    0  0.69600118104E+02  0.18329173143E+03 -0.56462807410E+02  0.20402961518E+03  0.00000000000E+00 0.  1.
        -11    1    5    5    0    0  0.17352684643E+03  0.29226011785E+03 -0.21572148227E+03  0.40257086436E+03  0.00000000000E+00 0. -1.
          1    1    6    6  503    0 -0.12466477518E+03 -0.54426758057E+00 -0.17810396482E+03  0.21739968878E+03  0.00000000000E+00 0.  1.
         -1    1    6    6    0  503 -0.21056192538E+03 -0.12790157805E+03 -0.37092158585E+03  0.44528413507E+03  0.00000000000E+00 0. -1.
<mgrwt>
<rscale>  0 0.14477995E+04</rscale>
<asrwt>0</asrwt>
<pdfrwt beam="1">  1        2 0.39780593E-01 0.14477995E+04</pdfrwt>
<pdfrwt beam="2">  1       -1 0.31178762E+00 0.14477995E+04</pdfrwt>
<totfact> 0.40021438E+00</totfact>
</mgrwt>
</event>
<event>
12    6  0.1569942E-007  0.1998834E+04  0.7818608E-02  0.8607166E-01
         -1   -1    0    0    0  501 -0.00000000000E+00  0.00000000000E+00  0.11128598737E+04  0.11128598737E+04  0.00000000000E+00 0.  1.
          2   -1    0    0  501    0  0.00000000000E+00 -0.00000000000E+00 -0.89753866272E+03  0.89753866272E+03  0.00000000000E+00 0. -1.
         24    2    1    2    0    0 -0.72663336606E+02 -0.16703774086E+03  0.86306547773E+03  0.88566021919E+03  0.79564047396E+02 0.  0.
        254    2    1    2    0    0  0.72663336606E+02  0.16703774086E+03 -0.64774426674E+03  0.11247383172E+04  0.90126693040E+03 0.  0.
         23    2    4    4    0    0  0.33957230567E+03  0.41618948845E+03 -0.35704727287E+03  0.65128478193E+03  0.90366315805E+02 0.  0.
         23    2    4    4    0    0 -0.26690896906E+03 -0.24915174758E+03 -0.29069699387E+03  0.47345353532E+03  0.79602240993E+02 0.  0.
          4    1    3    3  502    0 -0.31551550006E+02 -0.18444308523E+02  0.28709218696E+03  0.28940908182E+03  0.00000000000E+00 0. -1.
         -3    1    3    3    0  502 -0.41111786600E+02 -0.14859343234E+03  0.57597329077E+03  0.59625113737E+03  0.00000000000E+00 0.  1.
         11    1    5    5    0    0  0.25651719632E+03  0.30547799090E+03 -0.21578066892E+03  0.45351865674E+03  0.00000000000E+00 0. -1.
        -11    1    5    5    0    0  0.83055109346E+02  0.11071149755E+03 -0.14126660396E+03  0.19776612519E+03  0.00000000000E+00 0.  1.
          4    1    6    6  503    0 -0.22772806659E+03 -0.20716070763E+03 -0.20347928968E+03  0.36902500244E+03  0.00000000000E+00 0. -1.
         -4    1    6    6    0  503 -0.39180902476E+02 -0.41991039958E+02 -0.87217704190E+02  0.10442853288E+03  0.00000000000E+00 0.  1.
<mgrwt>
<rscale>  0 0.19988344E+04</rscale>
<asrwt>0</asrwt>
<pdfrwt beam="1">  1        2 0.13808287E+00 0.19988344E+04</pdfrwt>
<pdfrwt beam="2">  1       -1 0.17120921E+00 0.19988344E+04</pdfrwt>
<totfact> 0.75227766E+00</totfact>
</mgrwt>
</event>
<event>
12    6  0.1569942E-007  0.1835532E+04  0.7818608E-02  0.8687629E-01
         -1   -1    0    0    0  501 -0.00000000000E+00  0.00000000000E+00  0.42823386529E+03  0.42823386529E+03  0.00000000000E+00 0.  1.
          2   -1    0    0  501    0  0.00000000000E+00 -0.00000000000E+00 -0.19669037237E+04  0.19669037237E+04  0.00000000000E+00 0. -1.
         24    2    1    2    0    0  0.58739366144E+03  0.66157940103E+02 -0.10255162487E+04  0.11862820486E+04  0.78570578436E+02 0.  0.
        254    2    1    2    0    0 -0.58739366144E+03 -0.66157940103E+02 -0.51315360970E+03  0.12088555405E+04  0.92119319581E+03 0.  0.
         23    2    4    4    0    0 -0.64641077619E+03 -0.24513053858E+03 -0.65457540690E+03  0.95641664158E+03  0.91257637853E+02 0.  0.
         23    2    4    4    0    0  0.59017114749E+02  0.17897259848E+03  0.14142179720E+03  0.25243889887E+03  0.90614911021E+02 0.  0.
          2    1    3    3  502    0  0.44914426746E+03  0.17574754116E+02 -0.78882591500E+03  0.90790184995E+03  0.00000000000E+00 0. -1.
         -1    1    3    3    0  502  0.13824939398E+03  0.48583185987E+02 -0.23669033373E+03  0.27838019861E+03  0.00000000000E+00 0.  1.
         11    1    5    5    0    0 -0.36424356814E+02 -0.31600366868E+02 -0.25617949731E+02  0.54603995311E+02  0.00000000000E+00 0.  1.
        -11    1    5    5    0    0 -0.60998641937E+03 -0.21353017171E+03 -0.62895745717E+03  0.90181264627E+03  0.00000000000E+00 0. -1.
          2    1    6    6  503    0  0.37729088389E+02  0.16157589836E+03  0.14996380249E+03  0.22365016677E+03  0.00000000000E+00 0. -1.
         -2    1    6    6    0  503  0.21288026360E+02  0.17396700118E+02 -0.85420052871E+01  0.28788732094E+02  0.00000000000E+00 0.  1.
<mgrwt>
<rscale>  0 0.18355324E+04</rscale>
<asrwt>0</asrwt>
<pdfrwt beam="1">  1        2 0.30260058E+00 0.18355324E+04</pdfrwt>
<pdfrwt beam="2">  1       -1 0.65882132E-01 0.18355324E+04</pdfrwt>
<totfact> 0.17449613E+01</totfact>
</mgrwt>
</event>
<event>
12    6  0.1569942E-007  0.1579890E+04  0.7818608E-02  0.8832998E-01
         -1   -1    0    0    0  501 -0.00000000000E+00  0.00000000000E+00  0.33754031197E+03  0.33754031197E+03  0.00000000000E+00 0.  1.
          2   -1    0    0  501    0  0.00000000000E+00 -0.00000000000E+00 -0.18487075464E+04  0.18487075464E+04  0.00000000000E+00 0. -1.
         24    2    1    2    0    0  0.91698472221E+02 -0.48371452729E+02 -0.12319175432E+04  0.12386552723E+04  0.76796113714E+02 0.  0.
        254    2    1    2    0    0 -0.91698472221E+02  0.48371452729E+02 -0.27924969126E+03  0.94759258610E+03  0.89955706430E+03 0.  0.
         23    2    4    4    0    0  0.38602534864E+03  0.86551092641E+02 -0.20174639548E+03  0.45347287990E+03  0.91811672935E+02 0.  0.
         23    2    4    4    0    0 -0.47772382086E+03 -0.38179639912E+02 -0.77503295785E+02  0.49411970620E+03  0.92031458084E+02 0.  0.
          2    1    3    3  502    0  0.66661245536E+02 -0.22522459422E+02 -0.10892069493E+04  0.10914773297E+04  0.00000000000E+00 0. -1.
         -1    1    3    3    0  502  0.25037226685E+02 -0.25848993307E+02 -0.14271059387E+03  0.14717794257E+03  0.00000000000E+00 0.  1.
         11    1    5    5    0    0  0.17533446566E+03  0.49511855706E+02 -0.14306396404E+03  0.23164821715E+03  0.00000000000E+00 0.  1.
        -11    1    5    5    0    0  0.21069088298E+03  0.37039236935E+02 -0.58682431438E+02  0.22182466275E+03  0.00000000000E+00 0. -1.
          1    1    6    6  503    0 -0.32621596855E+02 -0.23922523097E+02 -0.19888190107E+02  0.45077664075E+02  0.00000000000E+00 0. -1.
         -1    1    6    6    0  503 -0.44510222401E+03 -0.14257116815E+02 -0.57615105678E+02  0.44904204213E+03  0.00000000000E+00 0.  1.
<mgrwt>
<rscale>  0 0.15798903E+04</rscale>
<asrwt>0</asrwt>
<pdfrwt beam="1">  1        2 0.28441654E+00 0.15798903E+04</pdfrwt>
<pdfrwt beam="2">  1       -1 0.51929280E-01 0.15798903E+04</pdfrwt>
<totfact> 0.33116573E+01</totfact>
</mgrwt>
</event>
<event>
12    6  0.1569942E-007  0.1970320E+04  0.7818608E-02  0.8620624E-01
         -1   -1    0    0    0  501 -0.00000000000E+00  0.00000000000E+00  0.63813243730E+03  0.63813243730E+03  0.00000000000E+00 0.  1.
          2   -1    0    0  501    0  0.00000000000E+00 -0.00000000000E+00 -0.15209074357E+04  0.15209074357E+04  0.00000000000E+00 0. -1.
         24    2    1    2    0    0 -0.73230419546E+01  0.74100921201E+03 -0.66449786716E+03  0.99840067682E+03  0.78091080009E+02 0.  0.
        254    2    1    2    0    0  0.73230419546E+01 -0.74100921201E+03 -0.21827713120E+03  0.11606391961E+04  0.86619291061E+03 0.  0.
         23    2    4    4    0    0 -0.25735458144E+03 -0.17701954519E+03  0.22185512655E+03  0.39333436625E+03  0.89022056425E+02 0.  0.
         23    2    4    4    0    0  0.26467762340E+03 -0.56398966682E+03 -0.44013225776E+03  0.76730482989E+03  0.83076525263E+02 0.  0.
          2    1    3    3  502    0  0.21037149815E+02  0.59783450933E+03 -0.55405128583E+03  0.81536586239E+03  0.00000000000E+00 0. -1.
         -1    1    3    3    0  502 -0.28360191770E+02  0.14317470268E+03 -0.11044658133E+03  0.18303481443E+03  0.00000000000E+00 0.  1.
         11    1    5    5    0    0 -0.17243981953E+03 -0.14619705563E+03  0.19642895824E+03  0.29948857419E+03  0.00000000000E+00 0.  1.
        -11    1    5    5    0    0 -0.84914761911E+02 -0.30822489558E+02  0.25426168314E+02  0.93845792064E+02  0.00000000000E+00 0. -1.
          2    1    6    6  503    0  0.23209922600E+02 -0.10109490907E+03 -0.10075825188E+03  0.14460673037E+03  0.00000000000E+00 0. -1.
         -2    1    6    6    0  503  0.24146770080E+03 -0.46289475775E+03 -0.33937400588E+03  0.62269809952E+03  0.00000000000E+00 0.  1.
<mgrwt>
<rscale>  0 0.19703201E+04</rscale>
<asrwt>0</asrwt>
<pdfrwt beam="1">  1        2 0.23398576E+00 0.19703201E+04</pdfrwt>
<pdfrwt beam="2">  1       -1 0.98174222E-01 0.19703201E+04</pdfrwt>
<totfact> 0.13029864E+01</totfact>
</mgrwt>
</event>
<event>
12    6  0.1569942E-007  0.2517977E+04  0.7818608E-02  0.8396609E-01
         -1   -1    0    0    0  501 -0.00000000000E+00  0.00000000000E+00  0.13044224839E+04  0.13044224839E+04  0.00000000000E+00 0.  1.
          2   -1    0    0  501    0  0.00000000000E+00 -0.00000000000E+00 -0.12151367748E+04  0.12151367748E+04  0.00000000000E+00 0. -1.
         24    2    1    2    0    0 -0.93895978653E+03  0.39425090010E+03  0.45475292087E+03  0.11181682091E+04  0.80129094907E+02 0.  0.
        254    2    1    2    0    0  0.93895978653E+03 -0.39425090010E+03 -0.36546721174E+03  0.14013910496E+04  0.89064658422E+03 0.  0.
         23    2    4    4    0    0  0.41776242368E+03  0.30350518956E+02  0.24103948660E+03  0.49168773503E+03  0.90610143084E+02 0.  0.
         23    2    4    4    0    0  0.52119736285E+03 -0.42460141906E+03 -0.60650669835E+03  0.90970331454E+03  0.88185538739E+02 0.  0.
          2    1    3    3  502    0 -0.31697510467E+03  0.10372043323E+03  0.12039019416E+03  0.35457713420E+03  0.00000000000E+00 0. -1.
         -1    1    3    3    0  502 -0.62198468186E+03  0.29053046687E+03  0.33436272671E+03  0.76359107490E+03  0.00000000000E+00 0.  1.
         11    1    5    5    0    0  0.13495445470E+03  0.19046468025E+02  0.12781183440E+03  0.18684575939E+03  0.00000000000E+00 0. -1.
        -11    1    5    5    0    0  0.28280796898E+03  0.11304050930E+02  0.11322765220E+03  0.30484197564E+03  0.00000000000E+00 0.  1.
          2    1    6    6  503    0  0.25636434081E+03 -0.26451556022E+03 -0.34055770731E+03  0.50166792687E+03  0.00000000000E+00 0. -1.
         -2    1    6    6    0  503  0.26483302204E+03 -0.16008585883E+03 -0.26594899103E+03  0.40803538767E+03  0.00000000000E+00 0.  1.
<mgrwt>
<rscale>  0 0.25179768E+04</rscale>
<asrwt>0</asrwt>
<pdfrwt beam="1">  1        2 0.18694412E+00 0.25179768E+04</pdfrwt>
<pdfrwt beam="2">  1       -1 0.20068038E+00 0.25179768E+04</pdfrwt>
<totfact> 0.28031403E+00</totfact>
</mgrwt>
</event>
<event>
12    6  0.1569942E-007  0.1105016E+04  0.7818608E-02  0.9200317E-01
          2   -1    0    0  501    0  0.00000000000E+00  0.00000000000E+00  0.45865866610E+03  0.45865866610E+03  0.00000000000E+00 0. -1.
         -1   -1    0    0    0  501 -0.00000000000E+00 -0.00000000000E+00 -0.66556000012E+03  0.66556000012E+03  0.00000000000E+00 0.  1.
         24    2    1    2    0    0  0.26815337587E+02 -0.68908154586E+02  0.10620331946E+03  0.15168287514E+03  0.79127450664E+02 0.  0.
        254    2    1    2    0    0 -0.26815337587E+02  0.68908154586E+02 -0.31310465348E+03  0.97253579108E+03  0.91778207914E+03 0.  0.
         23    2    4    4    0    0  0.14295491154E+03 -0.22338761437E+03 -0.50312333495E+03  0.57595674775E+03  0.90856767069E+02 0.  0.
         23    2    4    4    0    0 -0.16977024912E+03  0.29229576896E+03  0.19001868147E+03  0.39657904333E+03  0.83120901480E+02 0.  0.
          4    1    3    3  502    0  0.42543564955E+02 -0.24950299812E+02  0.19163255687E+02  0.52912217382E+02  0.00000000000E+00 0. -1.
         -3    1    3    3    0  502 -0.15728227368E+02 -0.43957854774E+02  0.87040063777E+02  0.98770657762E+02  0.00000000000E+00 0.  1.
         11    1    5    5    0    0 -0.10843720715E+02 -0.37585818305E+02 -0.67422445419E+02  0.77949125478E+02  0.00000000000E+00 0. -1.
        -11    1    5    5    0    0  0.15379863225E+03 -0.18580179607E+03 -0.43570088953E+03  0.49800762227E+03  0.00000000000E+00 0.  1.
          3    1    6    6  503    0 -0.32688851803E+01  0.70613137092E+02  0.33878715678E+02  0.78387933486E+02  0.00000000000E+00 0. -1.
         -3    1    6    6    0  503 -0.16650136394E+03  0.22168263186E+03  0.15613996579E+03  0.31819110984E+03  0.00000000000E+00 0.  1.
<mgrwt>
<rscale>  0 0.11050156E+04</rscale>
<asrwt>0</asrwt>
<pdfrwt beam="1">  1        2 0.70562872E-01 0.11050156E+04</pdfrwt>
<pdfrwt beam="2">  1       -1 0.10239385E+00 0.11050156E+04</pdfrwt>
<totfact> 0.69775057E+01</totfact>
</mgrwt>
</event>
<event>
12    6  0.1569942E-007  0.1472931E+04  0.7818608E-02  0.8902656E-01
          2   -1    0    0  501    0  0.00000000000E+00  0.00000000000E+00  0.56897743381E+03  0.56897743381E+03  0.00000000000E+00 0. -1.
         -1   -1    0    0    0  501 -0.00000000000E+00 -0.00000000000E+00 -0.95325656706E+03  0.95325656706E+03  0.00000000000E+00 0.  1.
         24    2    1    2    0    0  0.36658889782E+03  0.23913376175E+03 -0.28512130744E+03  0.52871009196E+03  0.81656753395E+02 0.  0.
        254    2    1    2    0    0 -0.36658889782E+03 -0.23913376175E+03 -0.99157825816E+02  0.99352390891E+03  0.88638880134E+03 0.  0.
         23    2    4    4    0    0  0.13465315824E+03  0.18913810099E+03  0.14033761001E+03  0.28606403811E+03  0.90737505176E+02 0.  0.
         23    2    4    4    0    0 -0.50124205606E+03 -0.42827186274E+03 -0.23949543583E+03  0.70745987080E+03  0.92092441811E+02 0.  0.
          2    1    3    3  502    0  0.14754304689E+03  0.89468107975E+02 -0.66422004809E+02  0.18489287643E+03  0.00000000000E+00 0. -1.
         -1    1    3    3    0  502  0.21904585093E+03  0.14966565378E+03 -0.21869930263E+03  0.34381721554E+03  0.00000000000E+00 0.  1.
         11    1    5    5    0    0  0.14470866413E+03  0.14943996467E+03  0.11191973185E+03  0.23621796479E+03  0.00000000000E+00 0.  1.
        -11    1    5    5    0    0 -0.10055505886E+02  0.39698136318E+02  0.28417878157E+02  0.49846073312E+02  0.00000000000E+00 0. -1.
          4    1    6    6  503    0 -0.24867623369E+03 -0.23245895498E+03 -0.77292606805E+02  0.34907188660E+03  0.00000000000E+00 0. -1.
         -4    1    6    6    0  503 -0.25256582237E+03 -0.19581290776E+03 -0.16220282902E+03  0.35838798420E+03  0.00000000000E+00 0.  1.
<mgrwt>
<rscale>  0 0.14729311E+04</rscale>
<asrwt>0</asrwt>
<pdfrwt beam="1">  1        2 0.87534990E-01 0.14729311E+04</pdfrwt>
<pdfrwt beam="2">  1       -1 0.14665486E+00 0.14729311E+04</pdfrwt>
<totfact> 0.21687674E+01</totfact>
</mgrwt>
</event>
<event>
12    6  0.1569942E-007  0.1796488E+04  0.7818608E-02  0.8708169E-01
         -1   -1    0    0    0  501 -0.00000000000E+00  0.00000000000E+00  0.20730528267E+03  0.20730528267E+03  0.00000000000E+00 0.  1.
          2   -1    0    0  501    0  0.00000000000E+00 -0.00000000000E+00 -0.38920483738E+04  0.38920483738E+04  0.00000000000E+00 0. -1.
         24    2    1    2    0    0  0.28648243945E+03  0.23185280704E+03 -0.14277216819E+03  0.40330621255E+03  0.80275132023E+02 0.  0.
        254    2    1    2    0    0 -0.28648243945E+03 -0.23185280704E+03 -0.35419709230E+04  0.36960474440E+04  0.98963668913E+03 0.  0.
         23    2    4    4    0    0 -0.42340906117E+03  0.26185002631E+03 -0.13137335299E+04  0.14078355938E+04  0.90909856982E+02 0.  0.
         23    2    4    4    0    0  0.13692662171E+03 -0.49370283335E+03 -0.22282373930E+04  0.22882118502E+04  0.91543454719E+02 0.  0.
          4    1    3    3  502    0 -0.52858776443E+01  0.48384174365E+01 -0.46690316304E+00  0.71811408790E+01  0.00000000000E+00 0. -1.
         -3    1    3    3    0  502  0.29176831710E+03  0.22701438961E+03 -0.14230526503E+03  0.39612507167E+03  0.00000000000E+00 0.  1.
         11    1    5    5    0    0 -0.35849170727E+03  0.24632468030E+03 -0.10674481411E+04  0.11526654702E+04  0.00000000000E+00 0.  1.
        -11    1    5    5    0    0 -0.64917353900E+02  0.15525346009E+02 -0.24628538882E+03  0.25517012355E+03  0.00000000000E+00 0. -1.
          3    1    6    6  503    0  0.64140226698E+02 -0.13504965429E+03 -0.51157603561E+03  0.53297506321E+03  0.00000000000E+00 0. -1.
         -3    1    6    6    0  503  0.72786395016E+02 -0.35865317906E+03 -0.17166613574E+04  0.17552367870E+04  0.00000000000E+00 0.  1.
<mgrwt>
<rscale>  0 0.17964879E+04</rscale>
<asrwt>0</asrwt>
<pdfrwt beam="1">  1        2 0.59877662E+00 0.17964879E+04</pdfrwt>
<pdfrwt beam="2">  1       -1 0.31893123E-01 0.17964879E+04</pdfrwt>
<totfact> 0.41606243E+00</totfact>
</mgrwt>
</event>
<event>
12    6  0.1569942E-007  0.1646453E+04  0.7818608E-02  0.8792507E-01
          2   -1    0    0  501    0  0.00000000000E+00  0.00000000000E+00  0.20847611513E+04  0.20847611513E+04  0.00000000000E+00 0. -1.
         -1   -1    0    0    0  501 -0.00000000000E+00 -0.00000000000E+00 -0.32507419239E+03  0.32507419239E+03  0.00000000000E+00 0.  1.
         24    2    1    2    0    0 -0.37512797355E+02  0.48002877012E+03  0.16501457523E+03  0.51514021459E+03  0.79402774095E+02 0.  0.
        254    2    1    2    0    0  0.37512797355E+02 -0.48002877012E+03  0.15946723837E+04  0.18946951291E+04  0.90280384961E+03 0.  0.
         23    2    4    4    0    0 -0.26190972575E+03 -0.31056423452E+03  0.21337926475E+03  0.46811729730E+03  0.92499974034E+02 0.  0.
         23    2    4    4    0    0  0.29942252311E+03 -0.16946453560E+03  0.13812931190E+04  0.14265778319E+04  0.93709944010E+02 0.  0.
          4    1    3    3  502    0 -0.32088370788E+02  0.35294570971E+03  0.15720137168E+03  0.38770170079E+03  0.00000000000E+00 0. -1.
         -3    1    3    3    0  502 -0.54244265673E+01  0.12708306042E+03  0.78132035563E+01  0.12743851379E+03  0.00000000000E+00 0.  1.
         11    1    5    5    0    0  0.39713644121E+01 -0.27801022981E+02  0.91797954716E+01  0.29545511655E+02  0.00000000000E+00 0. -1.
        -11    1    5    5    0    0 -0.26588109017E+03 -0.28276321154E+03  0.20419946928E+03  0.43857178564E+03  0.00000000000E+00 0.  1.
          2    1    6    6  503    0  0.31285551039E+01  0.97895448420E+01  0.41727852611E+02  0.42974838322E+02  0.00000000000E+00 0. -1.
         -2    1    6    6    0  503  0.29629396800E+03 -0.17925408045E+03  0.13395652664E+04  0.13836029935E+04  0.00000000000E+00 0.  1.
<mgrwt>
<rscale>  0 0.16464532E+04</rscale>
<asrwt>0</asrwt>
<pdfrwt beam="1">  1        2 0.32073248E+00 0.16464532E+04</pdfrwt>
<pdfrwt beam="2">  1       -1 0.50011415E-01 0.16464532E+04</pdfrwt>
<totfact> 0.26173076E+01</totfact>
</mgrwt>
</event>
<event>
12    6  0.1569942E-007  0.1390118E+04  0.7818608E-02  0.8961003E-01
         -1   -1    0    0    0  501 -0.00000000000E+00  0.00000000000E+00  0.37423965422E+03  0.37423965422E+03  0.00000000000E+00 0.  1.
          2   -1    0    0  501    0  0.00000000000E+00 -0.00000000000E+00 -0.12909020199E+04  0.12909020199E+04  0.00000000000E+00 0. -1.
         24    2    1    2    0    0 -0.27316544751E+03 -0.11174246748E+02  0.76726681464E+02  0.29477892331E+03  0.79141673420E+02 0.  0.
        254    2    1    2    0    0  0.27316544751E+03  0.11174246748E+02 -0.99338904712E+03  0.13703627508E+04  0.90350874058E+03 0.  0.
         23    2    4    4    0    0 -0.13406875700E+03 -0.19970859110E+03 -0.83910001712E+03  0.87776680694E+03  0.92345956435E+02 0.  0.
         23    2    4    4    0    0  0.40723420452E+03  0.21088283784E+03 -0.15428902999E+03  0.49259594384E+03  0.92381764913E+02 0.  0.
          2    1    3    3  502    0 -0.13438007583E+03 -0.40237414882E+02  0.18483954876E+02  0.14148749388E+03  0.00000000000E+00 0. -1.
         -1    1    3    3    0  502 -0.13878537168E+03  0.29063168134E+02  0.58242726588E+02  0.15329142943E+03  0.00000000000E+00 0.  1.
         11    1    5    5    0    0 -0.70658442804E+02 -0.13956248866E+03 -0.38927289814E+03  0.41952794068E+03  0.00000000000E+00 0. -1.
        -11    1    5    5    0    0 -0.63410314198E+02 -0.60146102438E+02 -0.44982711898E+03  0.45823886626E+03  0.00000000000E+00 0.  1.
          1    1    6    6  503    0  0.39121304268E+03  0.19191515255E+03 -0.12324569201E+03  0.45284497474E+03  0.00000000000E+00 0. -1.
         -1    1    6    6    0  503  0.16021161835E+02  0.18967685292E+02 -0.31043337983E+02  0.39750969108E+02  0.00000000000E+00 0.  1.
<mgrwt>
<rscale>  0 0.13901176E+04</rscale>
<asrwt>0</asrwt>
<pdfrwt beam="1">  1        2 0.19860031E+00 0.13901176E+04</pdfrwt>
<pdfrwt beam="2">  1       -1 0.57575331E-01 0.13901176E+04</pdfrwt>
<totfact> 0.56768067E+01</totfact>
</mgrwt>
</event>
<event>
12    6  0.1569942E-007  0.1515165E+04  0.7818608E-02  0.8874431E-01
          2   -1    0    0  501    0  0.00000000000E+00  0.00000000000E+00  0.21242167967E+04  0.21242167967E+04  0.00000000000E+00 0. -1.
         -1   -1    0    0    0  501 -0.00000000000E+00 -0.00000000000E+00 -0.27018486696E+03  0.27018486696E+03  0.00000000000E+00 0.  1.
         24    2    1    2    0    0  0.46062298933E+03 -0.72027499137E+02  0.37814282356E+03  0.60563593313E+03  0.80258267834E+02 0.  0.
        254    2    1    2    0    0 -0.46062298933E+03  0.72027499137E+02  0.14758891061E+04  0.17887657305E+04  0.89670100144E+03 0.  0.
         23    2    4    4    0    0 -0.12367881574E+03 -0.23780934031E+03  0.12294022415E+04  0.12616120711E+04  0.91571909621E+02 0.  0.
         23    2    4    4    0    0 -0.33694417360E+03  0.30983683945E+03  0.24648686462E+03  0.52715365940E+03  0.87206438924E+02 0.  0.
          4    1    3    3  502    0  0.21657594914E+03  0.64433137712E+01  0.17776422232E+03  0.28026197883E+03  0.00000000000E+00 0. -1.
         -3    1    3    3    0  502  0.24404704019E+03 -0.78470812908E+02  0.20037860124E+03  0.32537395430E+03  0.00000000000E+00 0.  1.
         11    1    5    5    0    0  0.10040172994E+02 -0.32934285627E+02  0.23754824253E+03  0.24003049759E+03  0.00000000000E+00 0.  1.
        -11    1    5    5    0    0 -0.13371898873E+03 -0.20487505469E+03  0.99185399900E+03  0.10215815735E+04  0.00000000000E+00 0. -1.
          4    1    6    6  503    0 -0.14472925912E+03  0.18961674029E+03  0.11168575105E+03  0.26339091410E+03  0.00000000000E+00 0. -1.
         -4    1    6    6    0  503 -0.19221491448E+03  0.12022009916E+03  0.13480111357E+03  0.26376274531E+03  0.00000000000E+00 0.  1.
<mgrwt>
<rscale>  0 0.15151650E+04</rscale>
<asrwt>0</asrwt>
<pdfrwt beam="1">  1        2 0.32680257E+00 0.15151650E+04</pdfrwt>
<pdfrwt beam="2">  1       -1 0.41566904E-01 0.15151650E+04</pdfrwt>
<totfact> 0.35556793E+01</totfact>
</mgrwt>
</event>
<event>
12    6  0.1569942E-007  0.2801514E+04  0.7818608E-02  0.8302799E-01
          2   -1    0    0  501    0  0.00000000000E+00  0.00000000000E+00  0.99782457705E+03  0.99782457705E+03  0.00000000000E+00 0. -1.
         -1   -1    0    0    0  501 -0.00000000000E+00 -0.00000000000E+00 -0.19663973315E+04  0.19663973315E+04  0.00000000000E+00 0.  1.
         24    2    1    2    0    0 -0.42644624382E+03  0.95954897828E+03 -0.11458932341E+04  0.15562794760E+04  0.79648370592E+02 0.  0.
        254    2    1    2    0    0  0.42644624382E+03 -0.95954897828E+03  0.17732047963E+03  0.14079424326E+04  0.92101503806E+03 0.  0.
         23    2    4    4    0    0 -0.10527030159E+03 -0.42293779816E+03 -0.27576692000E+03  0.52239685158E+03  0.83023242910E+02 0.  0.
         23    2    4    4    0    0  0.53171654541E+03 -0.53661118012E+03  0.45308739963E+03  0.88554558098E+03  0.90712408225E+02 0.  0.
          2    1    3    3  502    0 -0.14599006436E+03  0.31602612903E+03 -0.32603390074E+03  0.47695253176E+03  0.00000000000E+00 0. -1.
         -1    1    3    3    0  502 -0.28045617946E+03  0.64352284925E+03 -0.81985933338E+03  0.10793269443E+04  0.00000000000E+00 0.  1.
         11    1    5    5    0    0  0.13402545151E+02 -0.59038381666E+02 -0.45235705399E+02  0.75573988708E+02  0.00000000000E+00 0.  1.
        -11    1    5    5    0    0 -0.11867284674E+03 -0.36389941649E+03 -0.23053121460E+03  0.44682286287E+03  0.00000000000E+00 0. -1.
          3    1    6    6  503    0  0.49350596538E+03 -0.51538440940E+03  0.40469039168E+03  0.82033136014E+03  0.00000000000E+00 0. -1.
         -3    1    6    6    0  503  0.38210580031E+02 -0.21226770721E+02  0.48397007949E+02  0.65214220841E+02  0.00000000000E+00 0.  1.
<mgrwt>
<rscale>  0 0.28015136E+04</rscale>
<asrwt>0</asrwt>
<pdfrwt beam="1">  1        2 0.15351147E+00 0.28015136E+04</pdfrwt>
<pdfrwt beam="2">  1       -1 0.30252266E+00 0.28015136E+04</pdfrwt>
<totfact> 0.79694570E-01</totfact>
</mgrwt>
</event>
<event>
12    6  0.1569942E-007  0.1633648E+04  0.7818608E-02  0.8800139E-01
         -1   -1    0    0    0  501 -0.00000000000E+00  0.00000000000E+00  0.78280189375E+03  0.78280189375E+03  0.00000000000E+00 0.  1.
          2   -1    0    0  501    0  0.00000000000E+00 -0.00000000000E+00 -0.85232472653E+03  0.85232472653E+03  0.00000000000E+00 0. -1.
         24    2    1    2    0    0 -0.50610142503E+03 -0.55175240589E+02  0.96505407754E+01  0.51530338798E+03  0.79129571803E+02 0.  0.
        254    2    1    2    0    0  0.50610142503E+03  0.55175240589E+02 -0.79173373553E+02  0.11198232323E+04  0.99425986992E+03 0.  0.
         23    2    4    4    0    0  0.45648176160E+03 -0.31003240380E+02  0.40489829181E+03  0.61781403931E+03  0.91732005743E+02 0.  0.
         23    2    4    4    0    0  0.49619663433E+02  0.86178480970E+02 -0.48407166536E+03  0.50200919299E+03  0.88312009705E+02 0.  0.
          2    1    3    3  502    0 -0.41639713900E+03 -0.36392934739E+02  0.37110086200E+02  0.41962862338E+03  0.00000000000E+00 0. -1.
         -1    1    3    3    0  502 -0.89704286037E+02 -0.18782305850E+02 -0.27459545425E+02  0.95674764601E+02  0.00000000000E+00 0.  1.
         11    1    5    5    0    0  0.41957340436E+02 -0.10249778860E+02  0.87691558612E+01  0.44072377717E+02  0.00000000000E+00 0. -1.
        -11    1    5    5    0    0  0.41452442116E+03 -0.20753461520E+02  0.39612913594E+03  0.57374166160E+03  0.00000000000E+00 0.  1.
          1    1    6    6  503    0  0.29283733949E+02  0.23112658403E+02 -0.47308464415E+02  0.60248011235E+02  0.00000000000E+00 0. -1.
         -1    1    6    6    0  503  0.20335929485E+02  0.63065822567E+02 -0.43676320094E+03  0.44176118175E+03  0.00000000000E+00 0.  1.
<mgrwt>
<rscale>  0 0.16336480E+04</rscale>
<asrwt>0</asrwt>
<pdfrwt beam="1">  1        2 0.13112688E+00 0.16336480E+04</pdfrwt>
<pdfrwt beam="2">  1       -1 0.12043106E+00 0.16336480E+04</pdfrwt>
<totfact> 0.21188972E+01</totfact>
</mgrwt>
</event>
<event>
12    6  0.1569942E-007  0.1577843E+04  0.7818608E-02  0.8834277E-01
         -1   -1    0    0    0  501 -0.00000000000E+00  0.00000000000E+00  0.36237343373E+03  0.36237343373E+03  0.00000000000E+00 0.  1.
          2   -1    0    0  501    0  0.00000000000E+00 -0.00000000000E+00 -0.17175576756E+04  0.17175576756E+04  0.00000000000E+00 0. -1.
         24    2    1    2    0    0 -0.85556597321E+02 -0.46476999258E+03 -0.16133674408E+03  0.50638495841E+03  0.84054171620E+02 0.  0.
        254    2    1    2    0    0  0.85556597321E+02  0.46476999258E+03 -0.11938474978E+04  0.15735461509E+04  0.90963979891E+03 0.  0.
         23    2    4    4    0    0  0.68002426175E+02 -0.20734584689E+03 -0.46467346306E+02  0.24069003949E+03  0.90309748364E+02 0.  0.
         23    2    4    4    0    0  0.17554171146E+02  0.67211583947E+03 -0.11473801515E+04  0.13328561114E+04  0.89310420266E+02 0.  0.
          4    1    3    3  502    0 -0.30706498570E+02 -0.34427478132E+02 -0.13583509536E+02  0.48090040926E+02  0.00000000000E+00 0. -1.
         -3    1    3    3    0  502 -0.54850098751E+02 -0.43034251444E+03 -0.14775323454E+03  0.45829491748E+03  0.00000000000E+00 0.  1.
         11    1    5    5    0    0 -0.60334394538E+01 -0.12388133359E+03 -0.16149626308E+02  0.12507516793E+03  0.00000000000E+00 0. -1.
        -11    1    5    5    0    0  0.74035865629E+02 -0.83464513304E+02 -0.30317719998E+02  0.11561487156E+03  0.00000000000E+00 0.  1.
          1    1    6    6  503    0  0.35935978143E+02  0.10774938609E+03 -0.19124713634E+03  0.22243379214E+03  0.00000000000E+00 0. -1.
         -1    1    6    6    0  503 -0.18381806997E+02  0.56436645338E+03 -0.95613301517E+03  0.11104223193E+04  0.00000000000E+00 0.  1.
<mgrwt>
<rscale>  0 0.15778432E+04</rscale>
<asrwt>0</asrwt>
<pdfrwt beam="1">  1        2 0.26423964E+00 0.15778432E+04</pdfrwt>
<pdfrwt beam="2">  1       -1 0.55749760E-01 0.15778432E+04</pdfrwt>
<totfact> 0.34143706E+01</totfact>
</mgrwt>
</event>
<event>
12    6  0.1569942E-007  0.1977053E+04  0.7818608E-02  0.8617425E-01
         -1   -1    0    0    0  501 -0.00000000000E+00  0.00000000000E+00  0.16300872215E+04  0.16300872215E+04  0.00000000000E+00 0.  1.
          2   -1    0    0  501    0  0.00000000000E+00 -0.00000000000E+00 -0.59946762647E+03  0.59946762647E+03  0.00000000000E+00 0. -1.
         24    2    1    2    0    0 -0.23205490565E+02  0.14260364521E+03  0.12906269770E+04  0.13011776049E+04  0.80441726286E+02 0.  0.
        254    2    1    2    0    0  0.23205490565E+02 -0.14260364521E+03 -0.26000738202E+03  0.92837724301E+03  0.87943514383E+03 0.  0.
         23    2    4    4    0    0  0.22098194016E+03 -0.33275770431E+02 -0.52016874902E+03  0.57340102570E+03  0.90955560808E+02 0.  0.
         23    2    4    4    0    0 -0.19777644960E+03 -0.10932787478E+03  0.26016136700E+03  0.35497621731E+03  0.85182567201E+02 0.  0.
          4    1    3    3  502    0  0.95853474978E+01  0.22940073114E+01  0.18916737032E+02  0.21330360900E+02  0.00000000000E+00 0. -1.
         -3    1    3    3    0  502 -0.32790838063E+02  0.14030963790E+03  0.12717102400E+04  0.12798472440E+04  0.00000000000E+00 0.  1.
         11    1    5    5    0    0  0.17437531338E+03  0.76471191107E+01 -0.32915221648E+03  0.37256732272E+03  0.00000000000E+00 0. -1.
        -11    1    5    5    0    0  0.46606626784E+02 -0.40922889541E+02 -0.19101653254E+03  0.20083370298E+03  0.00000000000E+00 0.  1.
          3    1    6    6  503    0 -0.31616618258E+02  0.52047333015E+01  0.10010411179E+02  0.33569452346E+02  0.00000000000E+00 0. -1.
         -3    1    6    6    0  503 -0.16615983134E+03 -0.11453260808E+03  0.25015095582E+03  0.32140676496E+03  0.00000000000E+00 0.  1.
<mgrwt>
<rscale>  0 0.19770529E+04</rscale>
<asrwt>0</asrwt>
<pdfrwt beam="1">  1        2 0.92225789E-01 0.19770529E+04</pdfrwt>
<pdfrwt beam="2">  1       -1 0.25078265E+00 0.19770529E+04</pdfrwt>
<totfact> 0.36363954E+00</totfact>
</mgrwt>
</event>
<event>
12    6  0.1569942E-007  0.1852936E+04  0.7818608E-02  0.8678644E-01
         -1   -1    0    0    0  501 -0.00000000000E+00  0.00000000000E+00  0.17298210460E+04  0.17298210460E+04  0.00000000000E+00 0.  1.
          2   -1    0    0  501    0  0.00000000000E+00 -0.00000000000E+00 -0.49620329246E+03  0.49620329246E+03  0.00000000000E+00 0. -1.
         24    2    1    2    0    0 -0.12343422999E+03  0.39378429723E+03  0.11499651117E+04  0.12243143434E+04  0.78890882369E+02 0.  0.
        254    2    1    2    0    0  0.12343422999E+03 -0.39378429723E+03  0.83652641795E+02  0.10017099951E+04  0.90891312448E+03 0.  0.
         23    2    4    4    0    0  0.26147779020E+03  0.11659978979E+03  0.29801103305E+03  0.42314407747E+03  0.90962567735E+02 0.  0.
         23    2    4    4    0    0 -0.13804356021E+03 -0.51038408703E+03 -0.21435839125E+03  0.57856591760E+03  0.96130433809E+02 0.  0.
          2    1    3    3  502    0 -0.31413410066E+02  0.44916964126E+02  0.22224903235E+03  0.22890820951E+03  0.00000000000E+00 0. -1.
         -1    1    3    3    0  502 -0.92020819922E+02  0.34886733310E+03  0.92771607938E+03  0.99540613387E+03  0.00000000000E+00 0.  1.
         11    1    5    5    0    0  0.55869175195E+02  0.14107014012E+02  0.11787171226E+03  0.13120256527E+03  0.00000000000E+00 0. -1.
        -11    1    5    5    0    0  0.20560861500E+03  0.10249277578E+03  0.18013932079E+03  0.29194151220E+03  0.00000000000E+00 0.  1.
          4    1    6    6  503    0 -0.13121391355E+03 -0.46279859703E+03 -0.22216169020E+03  0.52986361369E+03  0.00000000000E+00 0. -1.
         -4    1    6    6    0  503 -0.68296466578E+01 -0.47585489996E+02  0.78032989460E+01  0.48702303909E+02  0.00000000000E+00 0.  1.
<mgrwt>
<rscale>  0 0.18529359E+04</rscale>
<asrwt>0</asrwt>
<pdfrwt beam="1">  1        2 0.76338969E-01 0.18529359E+04</pdfrwt>
<pdfrwt beam="2">  1       -1 0.26612631E+00 0.18529359E+04</pdfrwt>
<totfact> 0.36550041E+00</totfact>
</mgrwt>
</event>
<event>
12    6  0.1569942E-007  0.2181124E+04  0.7818608E-02  0.8526326E-01
         -3   -1    0    0    0  501 -0.00000000000E+00  0.00000000000E+00  0.12795129892E+04  0.12795129892E+04  0.00000000000E+00 0.  1.
          4   -1    0    0  501    0  0.00000000000E+00 -0.00000000000E+00 -0.92951432569E+03  0.92951432569E+03  0.00000000000E+00 0. -1.
         24    2    1    2    0    0  0.55647495009E+03 -0.46533598091E+03 -0.39067611665E+03  0.82779546985E+03  0.80097231959E+02 0.  0.
        254    2    1    2    0    0 -0.55647495009E+03  0.46533598091E+03  0.74067478014E+03  0.13812318450E+04  0.91268852002E+03 0.  0.
         23    2    4    4    0    0 -0.62235211550E+03  0.45781757409E+02  0.70390796644E+03  0.94504187869E+03  0.90551655371E+02 0.  0.
         23    2    4    4    0    0  0.65877165405E+02  0.41955422351E+03  0.36766813693E+02  0.43618996633E+03  0.92435603289E+02 0.  0.
          4    1    3    3  502    0  0.51730169592E+03 -0.40145977521E+03 -0.34707479341E+03  0.74110182022E+03  0.00000000000E+00 0. -1.
         -3    1    3    3    0  502  0.39173254172E+02 -0.63876205702E+02 -0.43601323240E+02  0.86693649627E+02  0.00000000000E+00 0.  1.
         11    1    5    5    0    0 -0.67728112100E+02 -0.23283840045E+02  0.76489694899E+02  0.10478505524E+03  0.00000000000E+00 0.  1.
        -11    1    5    5    0    0 -0.55462400340E+03  0.69065597454E+02  0.62741827154E+03  0.84025682346E+03  0.00000000000E+00 0. -1.
          4    1    6    6  503    0 -0.27568277465E+01  0.27079024736E+03  0.22775392687E+02  0.27176032948E+03  0.00000000000E+00 0.  1.
         -4    1    6    6    0  503  0.68633993151E+02  0.14876397614E+03  0.13991421006E+02  0.16442963685E+03  0.00000000000E+00 0. -1.
<mgrwt>
<rscale>  0 0.21811242E+04</rscale>
<asrwt>0</asrwt>
<pdfrwt beam="1">  1        4 0.14300220E+00 0.21811242E+04</pdfrwt>
<pdfrwt beam="2">  1       -3 0.19684815E+00 0.21811242E+04</pdfrwt>
<totfact> 0.10842174E-01</totfact>
</mgrwt>
</event>
<event>
12    6  0.1569942E-007  0.1357914E+04  0.7818608E-02  0.8984859E-01
          2   -1    0    0  501    0  0.00000000000E+00  0.00000000000E+00  0.93238310554E+03  0.93238310554E+03  0.00000000000E+00 0. -1.
         -3   -1    0    0    0  501 -0.00000000000E+00 -0.00000000000E+00 -0.49441356432E+03  0.49441356432E+03  0.00000000000E+00 0.  1.
         24    2    1    2    0    0 -0.59236297531E+01 -0.33195092318E+03  0.29748353345E+03  0.45225720184E+03  0.76247092774E+02 0.  0.
        254    2    1    2    0    0  0.59236297531E+01  0.33195092318E+03  0.14048600777E+03  0.97453946802E+03  0.90540838938E+03 0.  0.
         23    2    4    4    0    0 -0.12963536105E+03  0.60361228052E+03 -0.61989689681E+01  0.62384668980E+03  0.89404435777E+02 0.  0.
         23    2    4    4    0    0  0.13555899080E+03 -0.27166135734E+03  0.14668497674E+03  0.35069277822E+03  0.96399218012E+02 0.  0.
          2    1    3    3  502    0 -0.17523356645E+02 -0.18439813361E+03  0.11801370109E+03  0.21962917236E+03  0.00000000000E+00 0. -1.
         -1    1    3    3    0  502  0.11599726892E+02 -0.14755278957E+03  0.17946983236E+03  0.23262802948E+03  0.00000000000E+00 0.  1.
         11    1    5    5    0    0 -0.11841655642E+03  0.41961281007E+03 -0.34418744841E+02  0.43735802406E+03  0.00000000000E+00 0. -1.
        -11    1    5    5    0    0 -0.11218804629E+02  0.18399947044E+03  0.28219775873E+02  0.18648866575E+03  0.00000000000E+00 0.  1.
          1    1    6    6  503    0  0.56749641191E+02 -0.21234561010E+03  0.10542850352E+03  0.24377520230E+03  0.00000000000E+00 0. -1.
         -1    1    6    6    0  503  0.78809349611E+02 -0.59315747244E+02  0.41256473218E+02  0.10691757592E+03  0.00000000000E+00 0.  1.
<mgrwt>
<rscale>  0 0.13579144E+04</rscale>
<asrwt>0</asrwt>
<pdfrwt beam="1">  1        2 0.14344355E+00 0.13579144E+04</pdfrwt>
<pdfrwt beam="2">  1       -3 0.76063626E-01 0.13579144E+04</pdfrwt>
<totfact> 0.28118007E+01</totfact>
</mgrwt>
</event>
<event>
12    6  0.1569942E-007  0.1135581E+04  0.7818608E-02  0.9171190E-01
          2   -1    0    0  501    0  0.00000000000E+00  0.00000000000E+00  0.75993888449E+03  0.75993888449E+03  0.00000000000E+00 0. -1.
         -1   -1    0    0    0  501 -0.00000000000E+00 -0.00000000000E+00 -0.42422596672E+03  0.42422596672E+03  0.00000000000E+00 0.  1.
         24    2    1    2    0    0  0.89314960188E+02 -0.17870029488E+03  0.90729347518E+02  0.23488714898E+03  0.83840328923E+02 0.  0.
        254    2    1    2    0    0 -0.89314960188E+02  0.17870029488E+03  0.24498357025E+03  0.94927770223E+03  0.89509789898E+03 0.  0.
         23    2    4    4    0    0 -0.12649546832E+03 -0.34664267551E+03  0.61773279759E+02  0.38418999694E+03  0.87314189389E+02 0.  0.
         23    2    4    4    0    0  0.37180508130E+02  0.52534297039E+03  0.18321029049E+03  0.56508770529E+03  0.91599549177E+02 0.  0.
          4    1    3    3  502    0  0.10154460304E+03 -0.17540689140E+03  0.78709148375E+02  0.21742588161E+03  0.00000000000E+00 0. -1.
         -3    1    3    3    0  502 -0.12229642852E+02 -0.32934034781E+01  0.12020199143E+02  0.17461267371E+02  0.00000000000E+00 0.  1.
         11    1    5    5    0    0 -0.10206153343E+02 -0.14910660517E+03  0.34150225874E+02  0.15330747927E+03  0.00000000000E+00 0. -1.
        -11    1    5    5    0    0 -0.11628931498E+03 -0.19753607034E+03  0.27623053885E+02  0.23088251767E+03  0.00000000000E+00 0.  1.
          4    1    6    6  503    0 -0.28733347428E+02  0.23164328023E+03  0.86433659159E+02  0.24890759725E+03  0.00000000000E+00 0. -1.
         -4    1    6    6    0  503  0.65913855558E+02  0.29369969015E+03  0.96776631335E+02  0.31618010804E+03  0.00000000000E+00 0.  1.
<mgrwt>
<rscale>  0 0.11355806E+04</rscale>
<asrwt>0</asrwt>
<pdfrwt beam="1">  1        2 0.11691367E+00 0.11355806E+04</pdfrwt>
<pdfrwt beam="2">  1       -1 0.65265534E-01 0.11355806E+04</pdfrwt>
<totfact> 0.99267336E+01</totfact>
</mgrwt>
</event>
<event>
12    6  0.1569942E-007  0.2319510E+04  0.7818608E-02  0.8470268E-01
         -1   -1    0    0    0  501 -0.00000000000E+00  0.00000000000E+00  0.93781052157E+03  0.93781052157E+03  0.00000000000E+00 0.  1.
          2   -1    0    0  501    0  0.00000000000E+00 -0.00000000000E+00 -0.14342253820E+04  0.14342253820E+04  0.00000000000E+00 0. -1.
         24    2    1    2    0    0  0.55164073403E+03 -0.80872662571E+03 -0.31964524160E+03  0.10328831455E+04  0.79550343609E+02 0.  0.
        254    2    1    2    0    0 -0.55164073403E+03  0.80872662571E+03 -0.17676961881E+03  0.13391527581E+04  0.89651344482E+03 0.  0.
         23    2    4    4    0    0  0.14964972515E+03  0.50397524249E+03  0.50944660161E+02  0.53577861925E+03  0.89873717922E+02 0.  0.
         23    2    4    4    0    0 -0.70129045919E+03  0.30475138323E+03 -0.22771427897E+03  0.80337413882E+03  0.94204566500E+02 0.  0.
          2    1    3    3  502    0  0.38411878840E+03 -0.49748397316E+03 -0.21447676879E+03  0.66410679224E+03  0.00000000000E+00 0. -1.
         -1    1    3    3    0  502  0.16752194563E+03 -0.31124265255E+03 -0.10516847280E+03  0.36877635324E+03  0.00000000000E+00 0.  1.
         11    1    5    5    0    0  0.14173329510E+03  0.33676119415E+03  0.23338234830E+02  0.36611624114E+03  0.00000000000E+00 0.  1.
        -11    1    5    5    0    0  0.79164300532E+01  0.16721404834E+03  0.27606425331E+02  0.16966237811E+03  0.00000000000E+00 0. -1.
          1    1    6    6  503    0 -0.81580223759E+02  0.43248772728E+01 -0.21665383753E+02  0.84518792734E+02  0.00000000000E+00 0. -1.
         -1    1    6    6    0  503 -0.61971023543E+03  0.30042650595E+03 -0.20604889522E+03  0.71885534608E+03  0.00000000000E+00 0.  1.
<mgrwt>
<rscale>  0 0.23195100E+04</rscale>
<asrwt>0</asrwt>
<pdfrwt beam="1">  1        2 0.22065006E+00 0.23195100E+04</pdfrwt>
<pdfrwt beam="2">  1       -1 0.14427854E+00 0.23195100E+04</pdfrwt>
<totfact> 0.55236298E+00</totfact>
</mgrwt>
</event>
<event>
12    6  0.1569942E-007  0.1337777E+04  0.7818608E-02  0.9000132E-01
          2   -1    0    0  501    0  0.00000000000E+00  0.00000000000E+00  0.71532887636E+03  0.71532887636E+03  0.00000000000E+00 0. -1.
         -1   -1    0    0    0  501 -0.00000000000E+00 -0.00000000000E+00 -0.62546356416E+03  0.62546356416E+03  0.00000000000E+00 0.  1.
         24    2    1    2    0    0 -0.68189437439E+02 -0.16377149469E+03 -0.36127356064E+03  0.41030340999E+03  0.79745851215E+02 0.  0.
        254    2    1    2    0    0  0.68189437439E+02  0.16377149469E+03  0.45113887284E+03  0.93048903052E+03  0.79423715066E+03 0.  0.
         23    2    4    4    0    0 -0.13603551956E+02 -0.13838017904E+03  0.56189367648E+03  0.58539860214E+03  0.87366407388E+02 0.  0.
         23    2    4    4    0    0  0.81792989395E+02  0.30215167373E+03 -0.11075480364E+03  0.34509042839E+03  0.93994947646E+02 0.  0.
          2    1    3    3  502    0  0.56401722943E+01 -0.15006062108E+02 -0.43154973152E+01  0.16601715592E+02  0.00000000000E+00 0. -1.
         -1    1    3    3    0  502 -0.73829609733E+02 -0.14876543258E+03 -0.35695806332E+03  0.39370169440E+03  0.00000000000E+00 0.  1.
         11    1    5    5    0    0  0.29306335273E+02 -0.96748795138E+02  0.40701644679E+03  0.41938237756E+03  0.00000000000E+00 0. -1.
        -11    1    5    5    0    0 -0.42909887229E+02 -0.41631383906E+02  0.15487722968E+03  0.16601622458E+03  0.00000000000E+00 0.  1.
          3    1    6    6  503    0  0.18585490615E+01  0.34621195888E+02 -0.47484008704E+02  0.58794663805E+02  0.00000000000E+00 0. -1.
         -3    1    6    6    0  503  0.79934440333E+02  0.26753047784E+03 -0.63270794933E+02  0.28629576458E+03  0.00000000000E+00 0.  1.
<mgrwt>
<rscale>  0 0.13377775E+04</rscale>
<asrwt>0</asrwt>
<pdfrwt beam="1">  1        2 0.11005060E+00 0.13377775E+04</pdfrwt>
<pdfrwt beam="2">  1       -1 0.96225164E-01 0.13377775E+04</pdfrwt>
<totfact> 0.46319322E+01</totfact>
</mgrwt>
</event>
<event>
12    6  0.1569942E-007  0.2107053E+04  0.7818608E-02  0.8558143E-01
         -1   -1    0    0    0  501 -0.00000000000E+00  0.00000000000E+00  0.79658443892E+03  0.79658443892E+03  0.00000000000E+00 0.  1.
          2   -1    0    0  501    0  0.00000000000E+00 -0.00000000000E+00 -0.13933459934E+04  0.13933459934E+04  0.00000000000E+00 0. -1.
         24    2    1    2    0    0  0.75914015235E+03  0.11370997975E+03  0.24874966367E+03  0.81093927150E+03  0.80761231299E+02 0.  0.
        254    2    1    2    0    0 -0.75914015235E+03 -0.11370997975E+03 -0.84551121818E+03  0.13789911608E+04  0.77298361641E+03 0.  0.
         23    2    4    4    0    0 -0.27557467201E+03  0.16229086203E+03 -0.73145449090E+03  0.80318092654E+03  0.88284793397E+02 0.  0.
         23    2    4    4    0    0 -0.48356548034E+03 -0.27600084178E+03 -0.11405672728E+03  0.57581023431E+03  0.92392913475E+02 0.  0.
          4    1    3    3  502    0  0.20864193602E+03  0.68042571569E+02  0.70637835867E+02  0.23054490424E+03  0.00000000000E+00 0. -1.
         -3    1    3    3    0  502  0.55049821632E+03  0.45667408181E+02  0.17811182781E+03  0.58039436726E+03  0.00000000000E+00 0.  1.
         11    1    5    5    0    0 -0.93644640040E+02  0.11695565209E+02 -0.17877076316E+03  0.20215115784E+03  0.00000000000E+00 0.  1.
        -11    1    5    5    0    0 -0.18193003197E+03  0.15059529682E+03 -0.55268372773E+03  0.60102976870E+03  0.00000000000E+00 0. -1.
          3    1    6    6  503    0 -0.12086898987E+03 -0.10128770323E+03 -0.63750134877E+02  0.17009582956E+03  0.00000000000E+00 0. -1.
         -3    1    6    6    0  503 -0.36269649047E+03 -0.17471313855E+03 -0.50306592407E+02  0.40571440475E+03  0.00000000000E+00 0.  1.
<mgrwt>
<rscale>  0 0.21070527E+04</rscale>
<asrwt>0</asrwt>
<pdfrwt beam="1">  1        2 0.21436092E+00 0.21070527E+04</pdfrwt>
<pdfrwt beam="2">  1       -1 0.12255145E+00 0.21070527E+04</pdfrwt>
<totfact> 0.90067570E+00</totfact>
</mgrwt>
</event>
<event>
12    6  0.1569942E-007  0.1686709E+04  0.7818608E-02  0.8768981E-01
         -1   -1    0    0    0  501 -0.00000000000E+00  0.00000000000E+00  0.10382905770E+04  0.10382905770E+04  0.00000000000E+00 0.  1.
          2   -1    0    0  501    0  0.00000000000E+00 -0.00000000000E+00 -0.68501722198E+03  0.68501722198E+03  0.00000000000E+00 0. -1.
         24    2    1    2    0    0 -0.45299486472E+03  0.27066861517E+03 -0.16015715190E+03  0.55767846869E+03  0.83000689366E+02 0.  0.
        254    2    1    2    0    0  0.45299486472E+03 -0.27066861517E+03  0.51343050688E+03  0.11656293303E+04  0.90366752927E+03 0.  0.
         23    2    4    4    0    0 -0.42863272701E+02 -0.11412068386E+03 -0.21605057736E+03  0.26501044105E+03  0.93230312949E+02 0.  0.
         23    2    4    4    0    0  0.49585813742E+03 -0.15654793131E+03  0.72948108425E+03  0.90061888921E+03  0.92677851086E+02 0.  0.
          4    1    3    3  502    0 -0.39347808864E+03  0.24169845003E+03 -0.11020061249E+03  0.47474974668E+03  0.00000000000E+00 0. -1.
         -3    1    3    3    0  502 -0.59516776079E+02  0.28970165145E+02 -0.49956539412E+02  0.82928722005E+02  0.00000000000E+00 0.  1.
         11    1    5    5    0    0 -0.32008060370E+02 -0.23105492345E+02 -0.11906413809E+02  0.41232783013E+02  0.00000000000E+00 0.  1.
        -11    1    5    5    0    0 -0.10855212331E+02 -0.91015191516E+02 -0.20414416356E+03  0.22377765803E+03  0.00000000000E+00 0. -1.
          3    1    6    6  503    0  0.43800387770E+03 -0.11602880181E+03  0.66680494201E+03  0.80618788779E+03  0.00000000000E+00 0. -1.
         -3    1    6    6    0  503  0.57854259713E+02 -0.40519129504E+02  0.62676142240E+02  0.94431001418E+02  0.00000000000E+00 0.  1.
<mgrwt>
<rscale>  0 0.16867091E+04</rscale>
<asrwt>0</asrwt>
<pdfrwt beam="1">  1        2 0.10538726E+00 0.16867091E+04</pdfrwt>
<pdfrwt beam="2">  1       -1 0.15973701E+00 0.16867091E+04</pdfrwt>
<totfact> 0.13448758E+01</totfact>
</mgrwt>
</event>
<event>
12    6  0.1569942E-007  0.1656454E+04  0.7818608E-02  0.8786598E-01
          2   -1    0    0  501    0  0.00000000000E+00  0.00000000000E+00  0.29361989203E+04  0.29361989203E+04  0.00000000000E+00 0. -1.
         -1   -1    0    0    0  501 -0.00000000000E+00 -0.00000000000E+00 -0.23362169439E+03  0.23362169439E+03  0.00000000000E+00 0.  1.
         24    2    1    2    0    0  0.18454589729E+03  0.22738218292E+03  0.18797965481E+04  0.19041454664E+04  0.79843908265E+02 0.  0.
        254    2    1    2    0    0 -0.18454589729E+03 -0.22738218292E+03  0.82278067789E+03  0.12656751484E+04  0.91608170593E+03 0.  0.
         23    2    4    4    0    0  0.17011206864E+03 -0.10712043048E+03 -0.11708478478E+03  0.24963422349E+03  0.90528979836E+02 0.  0.
         23    2    4    4    0    0 -0.35465796592E+03 -0.12026175244E+03  0.93986546267E+03  0.10160409249E+04  0.93524922785E+02 0.  0.
          2    1    3    3  502    0  0.15580116753E+03  0.19796284329E+03  0.13915307720E+04  0.14141503387E+04  0.00000000000E+00 0. -1.
         -1    1    3    3    0  502  0.28744729753E+02  0.29419339632E+02  0.48826577607E+03  0.48999512764E+03  0.00000000000E+00 0.  1.
         11    1    5    5    0    0  0.14509686618E+03 -0.11144542236E+03 -0.12663868874E+03  0.22250964075E+03  0.00000000000E+00 0.  1.
        -11    1    5    5    0    0  0.25015202451E+02  0.43249918754E+01  0.95539039549E+01  0.27124582746E+02  0.00000000000E+00 0. -1.
          1    1    6    6  503    0 -0.11677307409E+03 -0.57500937508E+01  0.36906628766E+03  0.38714201412E+03  0.00000000000E+00 0. -1.
         -1    1    6    6    0  503 -0.23788489184E+03 -0.11451165869E+03  0.57079917500E+03  0.62889891074E+03  0.00000000000E+00 0.  1.
<mgrwt>
<rscale>  0 0.16564538E+04</rscale>
<asrwt>0</asrwt>
<pdfrwt beam="1">  1        2 0.45172288E+00 0.16564538E+04</pdfrwt>
<pdfrwt beam="2">  1       -1 0.35941801E-01 0.16564538E+04</pdfrwt>
<totfact> 0.15420346E+01</totfact>
</mgrwt>
</event>
<event>
12    6  0.1569942E-007  0.2539257E+04  0.7818608E-02  0.8389132E-01
         -1   -1    0    0    0  501 -0.00000000000E+00  0.00000000000E+00  0.13953652451E+04  0.13953652451E+04  0.00000000000E+00 0.  1.
          2   -1    0    0  501    0  0.00000000000E+00 -0.00000000000E+00 -0.11552218659E+04  0.11552218659E+04  0.00000000000E+00 0. -1.
         24    2    1    2    0    0  0.75729028199E+03 -0.34941224478E+03  0.84110927442E+03  0.11869229137E+04  0.75787224979E+02 0.  0.
        254    2    1    2    0    0 -0.75729028199E+03  0.34941224478E+03 -0.60096589519E+03  0.13636641973E+04  0.89601481455E+03 0.  0.
         23    2    4    4    0    0 -0.10684611646E+03  0.41208965409E+03 -0.55162109077E+03  0.70202072695E+03  0.85517820808E+02 0.  0.
         23    2    4    4    0    0 -0.65044416553E+03 -0.62677409309E+02 -0.49344804413E+02  0.66164347038E+03  0.91274870927E+02 0.  0.
          2    1    3    3  502    0  0.12186530673E+03 -0.82647434791E+02  0.12609376748E+03  0.19385920061E+03  0.00000000000E+00 0. -1.
         -1    1    3    3    0  502  0.63542497526E+03 -0.26676480999E+03  0.71501550694E+03  0.99306371306E+03  0.00000000000E+00 0.  1.
         11    1    5    5    0    0 -0.10873485446E+02  0.26454585182E+01 -0.29802324444E+02  0.31834096167E+02  0.00000000000E+00 0.  1.
        -11    1    5    5    0    0 -0.95972631017E+02  0.40944419557E+03 -0.52181876633E+03  0.67018663079E+03  0.00000000000E+00 0. -1.
          3    1    6    6  503    0 -0.62697914317E+03 -0.55624421952E+02 -0.64651365980E+02  0.63275328637E+03  0.00000000000E+00 0. -1.
         -3    1    6    6    0  503 -0.23465022353E+02 -0.70529873574E+01  0.15306561568E+02  0.28890184002E+02  0.00000000000E+00 0.  1.
<mgrwt>
<rscale>  0 0.25392569E+04</rscale>
<asrwt>0</asrwt>
<pdfrwt beam="1">  1        2 0.17772644E+00 0.25392569E+04</pdfrwt>
<pdfrwt beam="2">  1       -1 0.21467158E+00 0.25392569E+04</pdfrwt>
<totfact> 0.24407867E+00</totfact>
</mgrwt>
</event>
<event>
12    6  0.1569942E-007  0.1209663E+04  0.7818608E-02  0.9104441E-01
         -1   -1    0    0    0  501 -0.00000000000E+00  0.00000000000E+00  0.11355277751E+03  0.11355277751E+03  0.00000000000E+00 0.  1.
          2   -1    0    0  501    0  0.00000000000E+00 -0.00000000000E+00 -0.32215932318E+04  0.32215932318E+04  0.00000000000E+00 0. -1.
         24    2    1    2    0    0  0.90661992814E+02  0.24312710022E+03 -0.79902042494E+03  0.84399819263E+03  0.81048910491E+02 0.  0.
        254    2    1    2    0    0 -0.90661992814E+02 -0.24312710022E+03 -0.23090200294E+04  0.24911478167E+04  0.89828367722E+03 0.  0.
         23    2    4    4    0    0 -0.16474849185E+03 -0.55784414607E+03 -0.16357727635E+04  0.17388482602E+04  0.97511953514E+02 0.  0.
         23    2    4    4    0    0  0.74086499031E+02  0.31471704584E+03 -0.67324726586E+03  0.75229955655E+03  0.90316739955E+02 0.  0.
          4    1    3    3  502    0  0.62968155998E+02  0.80772885269E+02 -0.38584862198E+03  0.39920972778E+03  0.00000000000E+00 0. -1.
         -3    1    3    3    0  502  0.27693836815E+02  0.16235421495E+03 -0.41317180296E+03  0.44478846486E+03  0.00000000000E+00 0.  1.
         11    1    5    5    0    0 -0.92131214405E+02 -0.20361277108E+03 -0.52143753497E+03  0.56731245720E+03  0.00000000000E+00 0. -1.
        -11    1    5    5    0    0 -0.72617277440E+02 -0.35423137498E+03 -0.11143352286E+04  0.11715358030E+04  0.00000000000E+00 0.  1.
          3    1    6    6  503    0  0.51732131219E+02  0.13439782218E+03 -0.39044882929E+03  0.41616015703E+03  0.00000000000E+00 0. -1.
         -3    1    6    6    0  503  0.22354367812E+02  0.18031922366E+03 -0.28279843657E+03  0.33613939952E+03  0.00000000000E+00 0.  1.
<mgrwt>
<rscale>  0 0.12096625E+04</rscale>
<asrwt>0</asrwt>
<pdfrwt beam="1">  1        2 0.49562973E+00 0.12096625E+04</pdfrwt>
<pdfrwt beam="2">  1       -1 0.17469658E-01 0.12096625E+04</pdfrwt>
<totfact> 0.36802008E+01</totfact>
</mgrwt>
</event>
<event>
12    6  0.1569942E-007  0.2304261E+04  0.7818608E-02  0.8476243E-01
          2   -1    0    0  501    0  0.00000000000E+00  0.00000000000E+00  0.31862852005E+04  0.31862852005E+04  0.00000000000E+00 0. -1.
         -1   -1    0    0    0  501 -0.00000000000E+00 -0.00000000000E+00 -0.41659944841E+03  0.41659944841E+03  0.00000000000E+00 0.  1.
         24    2    1    2    0    0 -0.81240443175E+02  0.17264819840E+03 -0.31919522896E+03  0.37922233507E+03  0.74273650865E+02 0.  0.
        254    2    1    2    0    0  0.81240443175E+02 -0.17264819840E+03  0.30888809810E+04  0.32236623138E+04  0.90244423018E+03 0.  0.
         23    2    4    4    0    0  0.11105387730E+03  0.35622358769E+03  0.13026583936E+04  0.13585305942E+04  0.97253672533E+02 0.  0.
         23    2    4    4    0    0 -0.29813434127E+02 -0.52887178609E+03  0.17862225874E+04  0.18651317197E+04  0.86781292874E+02 0.  0.
          2    1    3    3  502    0 -0.42465949997E+02  0.14440578979E+03 -0.27736817698E+03  0.31557803256E+03  0.00000000000E+00 0. -1.
         -1    1    3    3    0  502 -0.38774493179E+02  0.28242408614E+02 -0.41827051975E+02  0.63644302514E+02  0.00000000000E+00 0.  1.
         11    1    5    5    0    0  0.12619584110E+03  0.33873925832E+03  0.12446819127E+04  0.12961106200E+04  0.00000000000E+00 0. -1.
        -11    1    5    5    0    0 -0.15141963794E+02  0.17484329367E+02  0.57976480888E+02  0.62419974184E+02  0.00000000000E+00 0.  1.
          1    1    6    6  503    0 -0.29700960689E+02 -0.53233405167E+03  0.17777398029E+04  0.18559688835E+04  0.00000000000E+00 0. -1.
         -1    1    6    6    0  503 -0.11247343855E+00  0.34622655743E+01  0.84827845533E+01  0.91628361853E+01  0.00000000000E+00 0.  1.
<mgrwt>
<rscale>  0 0.23042610E+04</rscale>
<asrwt>0</asrwt>
<pdfrwt beam="1">  1        2 0.49019771E+00 0.23042610E+04</pdfrwt>
<pdfrwt beam="2">  1       -1 0.64092225E-01 0.23042610E+04</pdfrwt>
<totfact> 0.33740119E+00</totfact>
</mgrwt>
</event>
<event>
12    6  0.1569942E-007  0.2385799E+04  0.7818608E-02  0.8444839E-01
         -1   -1    0    0    0  501 -0.00000000000E+00  0.00000000000E+00  0.83435692714E+03  0.83435692714E+03  0.00000000000E+00 0.  1.
          2   -1    0    0  501    0  0.00000000000E+00 -0.00000000000E+00 -0.17055168015E+04  0.17055168015E+04  0.00000000000E+00 0. -1.
         24    2    1    2    0    0  0.69811924097E+03  0.15091856859E+03  0.40657058581E+03  0.82574269948E+03  0.80027967220E+02 0.  0.
        254    2    1    2    0    0 -0.69811924097E+03 -0.15091856859E+03 -0.12777304602E+04  0.17141310292E+04  0.89190984259E+03 0.  0.
         23    2    4    4    0    0 -0.32470168950E+03 -0.27517645287E+03 -0.71120573063E+02  0.44181832226E+03  0.94826296943E+02 0.  0.
         23    2    4    4    0    0 -0.37341755147E+03  0.12425788428E+03 -0.12066098871E+04  0.12723127069E+04  0.89395273351E+02 0.  0.
          4    1    3    3  502    0  0.84553086790E+02  0.38917654087E+02  0.33205569016E+02  0.98825189597E+02  0.00000000000E+00 0. -1.
         -3    1    3    3    0  502  0.61356615418E+03  0.11200091451E+03  0.37336501680E+03  0.72691750988E+03  0.00000000000E+00 0.  1.
         11    1    5    5    0    0 -0.15798296230E+03 -0.78245926731E+02 -0.95917285534E+01  0.17655889296E+03  0.00000000000E+00 0.  1.
        -11    1    5    5    0    0 -0.16671872720E+03 -0.19693052614E+03 -0.61528844509E+02  0.26525942930E+03  0.00000000000E+00 0. -1.
          4    1    6    6  503    0 -0.22689486645E+03  0.47417421935E+02 -0.59024149135E+03  0.63412515361E+03  0.00000000000E+00 0. -1.
         -4    1    6    6    0  503 -0.14652268502E+03  0.76840462343E+02 -0.61636839578E+03  0.63818755330E+03  0.00000000000E+00 0.  1.
<mgrwt>
<rscale>  0 0.23857995E+04</rscale>
<asrwt>0</asrwt>
<pdfrwt beam="1">  1        2 0.26238720E+00 0.23857995E+04</pdfrwt>
<pdfrwt beam="2">  1       -1 0.12836261E+00 0.23857995E+04</pdfrwt>
<totfact> 0.52267376E+00</totfact>
</mgrwt>
</event>
<event>
12    6  0.1569942E-007  0.1771036E+04  0.7818608E-02  0.8721856E-01
         -1   -1    0    0    0  501 -0.00000000000E+00  0.00000000000E+00  0.54404539983E+03  0.54404539983E+03  0.00000000000E+00 0.  1.
          2   -1    0    0  501    0  0.00000000000E+00 -0.00000000000E+00 -0.14413176047E+04  0.14413176047E+04  0.00000000000E+00 0. -1.
         24    2    1    2    0    0  0.51752064188E+03  0.13921494185E+03 -0.73529175809E+03  0.91365791947E+03  0.83116842467E+02 0.  0.
        254    2    1    2    0    0 -0.51752064188E+03 -0.13921494185E+03 -0.16198044677E+03  0.10717050850E+04  0.91384118388E+03 0.  0.
         23    2    4    4    0    0 -0.65310074474E+03  0.18582422927E+03 -0.17880579109E+03  0.70810355611E+03  0.91476271748E+02 0.  0.
         23    2    4    4    0    0  0.13558010286E+03 -0.32503917112E+03  0.16825344318E+02  0.36360152892E+03  0.88828782331E+02 0.  0.
          4    1    3    3  502    0  0.25009974605E+03  0.76129780145E+02 -0.42720574744E+03  0.50084965513E+03  0.00000000000E+00 0. -1.
         -3    1    3    3    0  502  0.26742089583E+03  0.63085161705E+02 -0.30808601065E+03  0.41280826435E+03  0.00000000000E+00 0.  1.
         11    1    5    5    0    0 -0.11350742930E+03  0.61219552556E+02 -0.57385397628E+02  0.14115542492E+03  0.00000000000E+00 0. -1.
        -11    1    5    5    0    0 -0.53959331544E+03  0.12460467671E+03 -0.12142039346E+03  0.56694813120E+03  0.00000000000E+00 0.  1.
          2    1    6    6  503    0 -0.12012955887E+02 -0.14762776368E+02  0.55477943575E+01  0.19824951386E+02  0.00000000000E+00 0. -1.
         -2    1    6    6    0  503  0.14759305875E+03 -0.31027639475E+03  0.11277549960E+02  0.34377657754E+03  0.00000000000E+00 0.  1.
<mgrwt>
<rscale>  0 0.17710361E+04</rscale>
<asrwt>0</asrwt>
<pdfrwt beam="1">  1        2 0.22174117E+00 0.17710361E+04</pdfrwt>
<pdfrwt beam="2">  1       -1 0.83699292E-01 0.17710361E+04</pdfrwt>
<totfact> 0.20921668E+01</totfact>
</mgrwt>
</event>
<event>
12    6  0.1569942E-007  0.1352653E+04  0.7818608E-02  0.8988822E-01
         -1   -1    0    0    0  501 -0.00000000000E+00  0.00000000000E+00  0.30817440449E+03  0.30817440449E+03  0.00000000000E+00 0.  1.
          2   -1    0    0  501    0  0.00000000000E+00 -0.00000000000E+00 -0.14842811649E+04  0.14842811649E+04  0.00000000000E+00 0. -1.
         24    2    1    2    0    0 -0.16569934652E+03 -0.32962256353E+03 -0.27145008806E+03  0.46480326100E+03  0.79054495771E+02 0.  0.
        254    2    1    2    0    0  0.16569934652E+03  0.32962256353E+03 -0.90465667233E+03  0.13276523084E+04  0.89897143966E+03 0.  0.
         23    2    4    4    0    0 -0.55905789770E+02  0.54415116794E+03 -0.27249488048E+03  0.61750195976E+03  0.88483103029E+02 0.  0.
         23    2    4    4    0    0  0.22160513629E+03 -0.21452860441E+03 -0.63216179185E+03  0.71015034862E+03  0.97742662270E+02 0.  0.
          2    1    3    3  502    0 -0.17269134617E+03 -0.32160796066E+03 -0.25526799214E+03  0.44543880524E+03  0.00000000000E+00 0. -1.
         -1    1    3    3    0  502  0.69919996554E+01 -0.80146028656E+01 -0.16182095919E+02  0.19364455753E+02  0.00000000000E+00 0.  1.
         11    1    5    5    0    0 -0.29149684720E+02  0.45809513829E+02 -0.36739061540E+02  0.65558937753E+02  0.00000000000E+00 0. -1.
        -11    1    5    5    0    0 -0.26756105050E+02  0.49834165411E+03 -0.23575581894E+03  0.55194302201E+03  0.00000000000E+00 0.  1.
          3    1    6    6  503    0 -0.19591035230E+01  0.19835050517E+01 -0.49513081555E+02  0.49591507580E+02  0.00000000000E+00 0. -1.
         -3    1    6    6    0  503  0.22356423981E+03 -0.21651210946E+03 -0.58264871029E+03  0.66055884104E+03  0.00000000000E+00 0.  1.
<mgrwt>
<rscale>  0 0.13526529E+04</rscale>
<asrwt>0</asrwt>
<pdfrwt beam="1">  1        2 0.22835095E+00 0.13526529E+04</pdfrwt>
<pdfrwt beam="2">  1       -1 0.47411447E-01 0.13526529E+04</pdfrwt>
<totfact> 0.64002750E+01</totfact>
</mgrwt>
</event>
<event>
12    6  0.1569942E-007  0.1519708E+04  0.7818608E-02  0.8871452E-01
         -1   -1    0    0    0  501 -0.00000000000E+00  0.00000000000E+00  0.54098871852E+03  0.54098871852E+03  0.00000000000E+00 0.  1.
          2   -1    0    0  501    0  0.00000000000E+00 -0.00000000000E+00 -0.10672645293E+04  0.10672645293E+04  0.00000000000E+00 0. -1.
         24    2    1    2    0    0 -0.42161424111E+03 -0.10524232121E+03 -0.34122271644E+03  0.55827044593E+03  0.79990212519E+02 0.  0.
        254    2    1    2    0    0  0.42161424111E+03  0.10524232121E+03 -0.18505309431E+03  0.10499828019E+04  0.93775515036E+03 0.  0.
         23    2    4    4    0    0 -0.28496515642E+03  0.10535216850E+03 -0.13584061030E+02  0.31736593863E+03  0.90732532799E+02 0.  0.
         23    2    4    4    0    0  0.70657939753E+03 -0.10984728763E+00 -0.17146903328E+03  0.73261686324E+03  0.89840869620E+02 0.  0.
          2    1    3    3  502    0 -0.36625059957E+03 -0.11354949138E+03 -0.31594753477E+03  0.49684588496E+03  0.00000000000E+00 0. -1.
         -1    1    3    3    0  502 -0.55363641545E+02  0.83071701711E+01 -0.25275181671E+02  0.61424560966E+02  0.00000000000E+00 0.  1.
         11    1    5    5    0    0 -0.22620708398E+03  0.41010953540E+02 -0.74197017194E+01  0.23001433679E+03  0.00000000000E+00 0. -1.
        -11    1    5    5    0    0 -0.58758072435E+02  0.64341214958E+02 -0.61643593102E+01  0.87351601841E+02  0.00000000000E+00 0.  1.
          1    1    6    6  503    0  0.57698383742E+03 -0.58305854613E+01 -0.10369235002E+03  0.58625629875E+03  0.00000000000E+00 0. -1.
         -1    1    6    6    0  503  0.12959556011E+03  0.57207381737E+01 -0.67776683257E+02  0.14636056450E+03  0.00000000000E+00 0.  1.
<mgrwt>
<rscale>  0 0.15197080E+04</rscale>
<asrwt>0</asrwt>
<pdfrwt beam="1">  1        2 0.16419454E+00 0.15197080E+04</pdfrwt>
<pdfrwt beam="2">  1       -1 0.83229034E-01 0.15197080E+04</pdfrwt>
<totfact> 0.36011007E+01</totfact>
</mgrwt>
</event>
<event>
12    6  0.1569942E-007  0.2438448E+04  0.7818608E-02  0.8425248E-01
          2   -1    0    0  501    0  0.00000000000E+00  0.00000000000E+00  0.12031514089E+04  0.12031514089E+04  0.00000000000E+00 0. -1.
         -1   -1    0    0    0  501 -0.00000000000E+00 -0.00000000000E+00 -0.12355117446E+04  0.12355117446E+04  0.00000000000E+00 0.  1.
         24    2    1    2    0    0  0.15814680043E+03 -0.35893488191E+03  0.96185132636E+03  0.10416176293E+04  0.77231157191E+02 0.  0.
        254    2    1    2    0    0 -0.15814680043E+03  0.35893488191E+03 -0.99421166205E+03  0.13970455242E+04  0.89968589393E+03 0.  0.
         23    2    4    4    0    0 -0.24272234564E+03  0.62815028564E+03 -0.73900299292E+03  0.10039174399E+04  0.90762790298E+02 0.  0.
         23    2    4    4    0    0  0.84575545213E+02 -0.26921540373E+03 -0.25520866913E+03  0.39312808432E+03  0.98935683267E+02 0.  0.
          2    1    3    3  502    0  0.65477815253E+02 -0.23365753257E+03  0.62564452943E+03  0.67105459094E+03  0.00000000000E+00 0. -1.
         -1    1    3    3    0  502  0.92668985179E+02 -0.12527734933E+03  0.33620679693E+03  0.37056303833E+03  0.00000000000E+00 0.  1.
         11    1    5    5    0    0 -0.94673451630E+02  0.35556279242E+03 -0.43241286277E+03  0.56777534790E+03  0.00000000000E+00 0. -1.
        -11    1    5    5    0    0 -0.14804889401E+03  0.27258749322E+03 -0.30659013015E+03  0.43614209196E+03  0.00000000000E+00 0.  1.
          4    1    6    6  503    0  0.20878788707E+02 -0.21039140006E+03 -0.19451808944E+03  0.28729384288E+03  0.00000000000E+00 0. -1.
         -4    1    6    6    0  503  0.63696756505E+02 -0.58824003671E+02 -0.60690579698E+02  0.10583424144E+03  0.00000000000E+00 0.  1.
<mgrwt>
<rscale>  0 0.24384484E+04</rscale>
<asrwt>0</asrwt>
<pdfrwt beam="1">  1        2 0.18510022E+00 0.24384484E+04</pdfrwt>
<pdfrwt beam="2">  1       -1 0.19007873E+00 0.24384484E+04</pdfrwt>
<totfact> 0.34002529E+00</totfact>
</mgrwt>
</event>
<event>
12    6  0.1569942E-007  0.1735440E+04  0.7818608E-02  0.8741406E-01
         -1   -1    0    0    0  501 -0.00000000000E+00  0.00000000000E+00  0.20469768547E+03  0.20469768547E+03  0.00000000000E+00 0.  1.
          2   -1    0    0  501    0  0.00000000000E+00 -0.00000000000E+00 -0.36782936824E+04  0.36782936824E+04  0.00000000000E+00 0. -1.
         24    2    1    2    0    0 -0.36111995008E+02  0.62175269475E+03 -0.15124764637E+04  0.16375711340E+04  0.78572745197E+02 0.  0.
        254    2    1    2    0    0  0.36111995008E+02 -0.62175269475E+03 -0.19611195333E+04  0.22454202339E+04  0.89891140449E+03 0.  0.
         23    2    4    4    0    0 -0.10577681541E+03 -0.44880339804E+02 -0.14472167220E+04  0.14547006951E+04  0.92276174708E+02 0.  0.
         23    2    4    4    0    0  0.14188881042E+03 -0.57687235494E+03 -0.51390281132E+03  0.79071953874E+03  0.90703588891E+02 0.  0.
          4    1    3    3  502    0 -0.11139326858E+02  0.57120095582E+03 -0.13709738927E+04  0.14852488112E+04  0.00000000000E+00 0. -1.
         -3    1    3    3    0  502 -0.24972668150E+02  0.50551738924E+02 -0.14150257094E+03  0.15232232288E+03  0.00000000000E+00 0.  1.
         11    1    5    5    0    0 -0.11736938574E+03 -0.54380341236E+02 -0.13661253830E+04  0.13722358967E+04  0.00000000000E+00 0.  1.
        -11    1    5    5    0    0  0.11592570331E+02  0.95000014325E+01 -0.81091338976E+02  0.82464798375E+02  0.00000000000E+00 0. -1.
          3    1    6    6  503    0  0.12561909546E+03 -0.32862350151E+03 -0.28760820620E+03  0.45441395573E+03  0.00000000000E+00 0. -1.
         -3    1    6    6    0  503  0.16269714966E+02 -0.24824885344E+03 -0.22629460512E+03  0.33630558301E+03  0.00000000000E+00 0.  1.
<mgrwt>
<rscale>  0 0.17354402E+04</rscale>
<asrwt>0</asrwt>
<pdfrwt beam="1">  1        2 0.56589131E+00 0.17354402E+04</pdfrwt>
<pdfrwt beam="2">  1       -1 0.31491953E-01 0.17354402E+04</pdfrwt>
<totfact> 0.61994641E+00</totfact>
</mgrwt>
</event>
<event>
12    6  0.1569942E-007  0.1986172E+04  0.7818608E-02  0.8613113E-01
          2   -1    0    0  501    0  0.00000000000E+00  0.00000000000E+00  0.10092876067E+04  0.10092876067E+04  0.00000000000E+00 0. -1.
         -1   -1    0    0    0  501 -0.00000000000E+00 -0.00000000000E+00 -0.97714403324E+03  0.97714403324E+03  0.00000000000E+00 0.  1.
         24    2    1    2    0    0  0.15027518122E+03 -0.72679779701E+03 -0.24264920166E+03  0.78502292895E+03  0.81022812092E+02 0.  0.
        254    2    1    2    0    0 -0.15027518122E+03  0.72679779701E+03  0.27479277512E+03  0.12014087110E+04  0.90391047882E+03 0.  0.
         23    2    4    4    0    0 -0.15730794547E+03  0.14718436971E+03  0.51688429700E+03  0.56688720381E+03  0.88219595159E+02 0.  0.
         23    2    4    4    0    0  0.70327642559E+01  0.57961342731E+03 -0.24209152188E+03  0.63452150716E+03  0.89487726534E+02 0.  0.
          2    1    3    3  502    0  0.78404753276E+02 -0.36038925810E+03 -0.78178183248E+02  0.37701399314E+03  0.00000000000E+00 0. -1.
         -1    1    3    3    0  502  0.71870427941E+02 -0.36640853891E+03 -0.16447101841E+03  0.40800893581E+03  0.00000000000E+00 0.  1.
         11    1    5    5    0    0 -0.12835054911E+03  0.15204849687E+03  0.48092278011E+03  0.52046068948E+03  0.00000000000E+00 0. -1.
        -11    1    5    5    0    0 -0.28957396360E+02 -0.48641271605E+01  0.35961516883E+02  0.46426514337E+02  0.00000000000E+00 0.  1.
          3    1    6    6  503    0  0.29192440338E+02  0.53863922045E+03 -0.21549398059E+03  0.58088042147E+03  0.00000000000E+00 0. -1.
         -3    1    6    6    0  503 -0.22159676082E+02  0.40974206859E+02 -0.26597541282E+02  0.53641085690E+02  0.00000000000E+00 0.  1.
<mgrwt>
<rscale>  0 0.19861716E+04</rscale>
<asrwt>0</asrwt>
<pdfrwt beam="1">  1        2 0.15527502E+00 0.19861716E+04</pdfrwt>
<pdfrwt beam="2">  1       -1 0.15032985E+00 0.19861716E+04</pdfrwt>
<totfact> 0.91428809E+00</totfact>
</mgrwt>
</event>
<event>
12    6  0.1569942E-007  0.1545706E+04  0.7818608E-02  0.8854615E-01
          2   -1    0    0  501    0  0.00000000000E+00  0.00000000000E+00  0.23474172531E+04  0.23474172531E+04  0.00000000000E+00 0. -1.
         -1   -1    0    0    0  501 -0.00000000000E+00 -0.00000000000E+00 -0.25445048202E+03  0.25445048202E+03  0.00000000000E+00 0.  1.
         24    2    1    2    0    0 -0.47917867985E+03 -0.25909538365E+01  0.37334332664E+03  0.61273678930E+03  0.80263398638E+02 0.  0.
        254    2    1    2    0    0  0.47917867985E+03  0.25909538365E+01  0.17196234445E+04  0.19891309458E+04  0.87744983256E+03 0.  0.
         23    2    4    4    0    0  0.63289089566E+03  0.19250968859E+03  0.84654279866E+03  0.10782387761E+04  0.91396292330E+02 0.  0.
         23    2    4    4    0    0 -0.15371221582E+03 -0.18991873475E+03  0.87308064581E+03  0.91089216976E+03  0.88080416398E+02 0.  0.
          2    1    3    3  502    0 -0.23237347928E+03 -0.12216416173E+02  0.13258312951E+03  0.26781516187E+03  0.00000000000E+00 0. -1.
         -1    1    3    3    0  502 -0.24680520057E+03  0.96254623368E+01  0.24076019712E+03  0.34492162744E+03  0.00000000000E+00 0.  1.
         11    1    5    5    0    0  0.38825889250E+03  0.71825207583E+02  0.51284644034E+03  0.64723666415E+03  0.00000000000E+00 0. -1.
        -11    1    5    5    0    0  0.24463200316E+03  0.12068448100E+03  0.33369635832E+03  0.43100211192E+03  0.00000000000E+00 0.  1.
          2    1    6    6  503    0 -0.10302482253E+03 -0.15779209938E+03  0.75836151084E+03  0.78142475121E+03  0.00000000000E+00 0. -1.
         -2    1    6    6    0  503 -0.50687393289E+02 -0.32126635370E+02  0.11471913497E+03  0.12946741855E+03  0.00000000000E+00 0.  1.
<mgrwt>
<rscale>  0 0.15457056E+04</rscale>
<asrwt>0</asrwt>
<pdfrwt beam="1">  1        2 0.36114110E+00 0.15457056E+04</pdfrwt>
<pdfrwt beam="2">  1       -1 0.39146230E-01 0.15457056E+04</pdfrwt>
<totfact> 0.29650866E+01</totfact>
</mgrwt>
</event>
<event>
12    6  0.1569942E-007  0.1363598E+04  0.7818608E-02  0.8980598E-01
         -1   -1    0    0    0  501 -0.00000000000E+00  0.00000000000E+00  0.13020564452E+03  0.13020564452E+03  0.00000000000E+00 0.  1.
          2   -1    0    0  501    0  0.00000000000E+00 -0.00000000000E+00 -0.35701200363E+04  0.35701200363E+04  0.00000000000E+00 0. -1.
         24    2    1    2    0    0 -0.17139717441E+03 -0.32381349112E+03 -0.63856698900E+03  0.74041941053E+03  0.78872908037E+02 0.  0.
        254    2    1    2    0    0  0.17139717441E+03  0.32381349112E+03 -0.28013474028E+04  0.29599062703E+04  0.88276026722E+03 0.  0.
         23    2    4    4    0    0  0.15946595913E+03  0.31687165508E+03 -0.34853854920E+03  0.50545271313E+03  0.90367510885E+02 0.  0.
         23    2    4    4    0    0  0.11931215284E+02  0.69418360472E+01 -0.24528088536E+04  0.24544535571E+04  0.88771893259E+02 0.  0.
          4    1    3    3  502    0 -0.72183087015E+01 -0.33248290833E+01 -0.76269031353E+00  0.79837438247E+01  0.00000000000E+00 0. -1.
         -3    1    3    3    0  502 -0.16417886571E+03 -0.32048866204E+03 -0.63780429868E+03  0.73243566670E+03  0.00000000000E+00 0.  1.
         11    1    5    5    0    0  0.16487285477E+03  0.31598907111E+03 -0.32861119635E+03  0.48478600400E+03  0.00000000000E+00 0.  1.
        -11    1    5    5    0    0 -0.54068956482E+01  0.88258396709E+00 -0.19927352849E+02  0.20666709138E+02  0.00000000000E+00 0. -1.
          4    1    6    6  503    0  0.11256140888E+01  0.28109314828E+02 -0.22613916287E+04  0.22615666028E+04  0.00000000000E+00 0.  1.
         -4    1    6    6    0  503  0.10805601195E+02 -0.21167478781E+02 -0.19141722488E+03  0.19288695434E+03  0.00000000000E+00 0. -1.
<mgrwt>
<rscale>  0 0.13635979E+04</rscale>
<asrwt>0</asrwt>
<pdfrwt beam="1">  1        2 0.54924915E+00 0.13635979E+04</pdfrwt>
<pdfrwt beam="2">  1       -1 0.20031641E-01 0.13635979E+04</pdfrwt>
<totfact> 0.16773863E+01</totfact>
</mgrwt>
</event>
<event>
12    6  0.1569942E-007  0.1521406E+04  0.7818608E-02  0.8870342E-01
         -1   -1    0    0    0  501 -0.00000000000E+00  0.00000000000E+00  0.75177304730E+03  0.75177304730E+03  0.00000000000E+00 0.  1.
          2   -1    0    0  501    0  0.00000000000E+00 -0.00000000000E+00 -0.76973909144E+03  0.76973909144E+03  0.00000000000E+00 0. -1.
         24    2    1    2    0    0  0.39320871450E+02  0.26999993785E+03  0.41158716220E+03  0.50033164651E+03  0.80508800976E+02 0.  0.
        254    2    1    2    0    0 -0.39320871450E+02 -0.26999993785E+03 -0.42955320634E+03  0.10211804922E+04  0.88535164950E+03 0.  0.
         23    2    4    4    0    0  0.16402378846E+03 -0.34204912498E+03 -0.61055247529E+03  0.72464578481E+03  0.91846509336E+02 0.  0.
         23    2    4    4    0    0 -0.20334465991E+03  0.72049187133E+02  0.18099926895E+03  0.29653470742E+03  0.92908348739E+02 0.  0.
          2    1    3    3  502    0  0.24121326251E+02  0.66371700138E+02  0.55364501529E+02  0.89734435914E+02  0.00000000000E+00 0. -1.
         -1    1    3    3    0  502  0.15199545198E+02  0.20362823771E+03  0.35622266067E+03  0.41059721059E+03  0.00000000000E+00 0.  1.
         11    1    5    5    0    0  0.11957080850E+03 -0.20530495866E+03 -0.30216166359E+03  0.38438128888E+03  0.00000000000E+00 0. -1.
        -11    1    5    5    0    0  0.44452979962E+02 -0.13674416632E+03 -0.30839081170E+03  0.34026449593E+03  0.00000000000E+00 0.  1.
          1    1    6    6  503    0 -0.16020803546E+03  0.73043021415E+02  0.94403689523E+02  0.19978476969E+03  0.00000000000E+00 0. -1.
         -1    1    6    6    0  503 -0.43136624449E+02 -0.99383428202E+00  0.86595579425E+02  0.96749937734E+02  0.00000000000E+00 0.  1.
<mgrwt>
<rscale>  0 0.15214061E+04</rscale>
<asrwt>0</asrwt>
<pdfrwt beam="1">  1        2 0.11842140E+00 0.15214061E+04</pdfrwt>
<pdfrwt beam="2">  1       -1 0.11565739E+00 0.15214061E+04</pdfrwt>
<totfact> 0.27041072E+01</totfact>
</mgrwt>
</event>
<event>
12    6  0.1569942E-007  0.1588236E+04  0.7818608E-02  0.8827808E-01
         -1   -1    0    0    0  501 -0.00000000000E+00  0.00000000000E+00  0.88719561200E+03  0.88719561200E+03  0.00000000000E+00 0.  1.
          2   -1    0    0  501    0  0.00000000000E+00 -0.00000000000E+00 -0.71080545252E+03  0.71080545252E+03  0.00000000000E+00 0. -1.
         24    2    1    2    0    0  0.32239278439E+03 -0.41261497833E+03  0.99476538183E+02  0.53896956079E+03  0.80027358063E+02 0.  0.
        254    2    1    2    0    0 -0.32239278439E+03  0.41261497833E+03  0.76913621290E+02  0.10590315037E+04  0.91730245446E+03 0.  0.
         23    2    4    4    0    0 -0.40353403007E+03 -0.17388594928E+03 -0.24858299141E+02  0.45129914753E+03  0.99884677232E+02 0.  0.
         23    2    4    4    0    0  0.81141245675E+02  0.58650092761E+03  0.10177192043E+03  0.60773235619E+03  0.91727057799E+02 0.  0.
          2    1    3    3  502    0  0.35041773474E+02 -0.25249712800E+02 -0.10128734914E+02  0.44362880381E+02  0.00000000000E+00 0. -1.
         -1    1    3    3    0  502  0.28735101092E+03 -0.38736526553E+03  0.10960527310E+03  0.49460668041E+03  0.00000000000E+00 0.  1.
         11    1    5    5    0    0 -0.62640654208E+02 -0.64442111637E+02 -0.24945839760E+02  0.93268066524E+02  0.00000000000E+00 0.  1.
        -11    1    5    5    0    0 -0.34089337586E+03 -0.10944383764E+03  0.87540618781E-01  0.35803108101E+03  0.00000000000E+00 0. -1.
          4    1    6    6  503    0  0.68816635558E+02  0.49324416845E+03  0.50437382806E+02  0.50056914470E+03  0.00000000000E+00 0. -1.
         -4    1    6    6    0  503  0.12324610118E+02  0.93256759159E+02  0.51334537626E+02  0.10716321149E+03  0.00000000000E+00 0.  1.
<mgrwt>
<rscale>  0 0.15882361E+04</rscale>
<asrwt>0</asrwt>
<pdfrwt beam="1">  1        2 0.10935468E+00 0.15882361E+04</pdfrwt>
<pdfrwt beam="2">  1       -1 0.13649163E+00 0.15882361E+04</pdfrwt>
<totfact> 0.19726575E+01</totfact>
</mgrwt>
</event>
<event>
12    6  0.1569942E-007  0.2318912E+04  0.7818608E-02  0.8470502E-01
         -1   -1    0    0    0  501 -0.00000000000E+00  0.00000000000E+00  0.73613683999E+03  0.73613683999E+03  0.00000000000E+00 0.  1.
          2   -1    0    0  501    0  0.00000000000E+00 -0.00000000000E+00 -0.18262067434E+04  0.18262067434E+04  0.00000000000E+00 0. -1.
         24    2    1    2    0    0  0.93232408764E+03 -0.27274391339E+03 -0.63518682427E+03  0.11629433853E+04  0.73195417195E+02 0.  0.
        254    2    1    2    0    0 -0.93232408764E+03  0.27274391339E+03 -0.45488307918E+03  0.13994001981E+04  0.89876851968E+03 0.  0.
         23    2    4    4    0    0 -0.36576921215E+03  0.42076455843E+03  0.11615983005E+03  0.57634294342E+03  0.88589796976E+02 0.  0.
         23    2    4    4    0    0 -0.56655487550E+03 -0.14802064504E+03 -0.57104290924E+03  0.82305725466E+03  0.91862407715E+02 0.  0.
          2    1    3    3  502    0  0.47899409932E+03 -0.16045727612E+03 -0.29307597610E+03  0.58401661998E+03  0.00000000000E+00 0. -1.
         -1    1    3    3    0  502  0.45332998832E+03 -0.11228663728E+03 -0.34211084817E+03  0.57892676537E+03  0.00000000000E+00 0.  1.
         11    1    5    5    0    0 -0.16233046668E+03  0.24134482352E+03  0.86635973241E+02  0.30348689611E+03  0.00000000000E+00 0.  1.
        -11    1    5    5    0    0 -0.20343874547E+03  0.17941973491E+03  0.29523856814E+02  0.27285604731E+03  0.00000000000E+00 0. -1.
          4    1    6    6  503    0 -0.11218832931E+03  0.51784542678E+01 -0.12698475582E+03  0.16952334893E+03  0.00000000000E+00 0.  1.
         -4    1    6    6    0  503 -0.45436654619E+03 -0.15319909930E+03 -0.44405815342E+03  0.65353390573E+03  0.00000000000E+00 0. -1.
<mgrwt>
<rscale>  0 0.23189119E+04</rscale>
<asrwt>0</asrwt>
<pdfrwt beam="1">  1        2 0.28095488E+00 0.23189119E+04</pdfrwt>
<pdfrwt beam="2">  1       -1 0.11325182E+00 0.23189119E+04</pdfrwt>
<totfact> 0.61228623E+00</totfact>
</mgrwt>
</event>
<event>
12    6  0.1569942E-007  0.1543550E+04  0.7818608E-02  0.8855998E-01
         -1   -1    0    0    0  501 -0.00000000000E+00  0.00000000000E+00  0.54742677627E+03  0.54742677627E+03  0.00000000000E+00 0.  1.
          2   -1    0    0  501    0  0.00000000000E+00 -0.00000000000E+00 -0.10880670400E+04  0.10880670400E+04  0.00000000000E+00 0. -1.
         24    2    1    2    0    0  0.14645634309E+03  0.14244376964E+03  0.30025806084E+03  0.37214940677E+03  0.81244014690E+02 0.  0.
        254    2    1    2    0    0 -0.14645634309E+03 -0.14244376964E+03 -0.84089832455E+03  0.12633444095E+04  0.92042893087E+03 0.  0.
         23    2    4    4    0    0  0.22740708435E+03 -0.95482524295E+02 -0.83528743637E+03  0.87576659876E+03  0.91821237712E+02 0.  0.
         23    2    4    4    0    0 -0.37386342744E+03 -0.46961245340E+02 -0.56108881832E+01  0.38757781071E+03  0.90586181884E+02 0.  0.
          2    1    3    3  502    0  0.31159888143E+02  0.24472961201E+02  0.12650826084E+03  0.13256773559E+03  0.00000000000E+00 0. -1.
         -1    1    3    3    0  502  0.11529645495E+03  0.11797080843E+03  0.17374980000E+03  0.23958167118E+03  0.00000000000E+00 0.  1.
         11    1    5    5    0    0  0.16478388219E+03 -0.60858562940E+02 -0.43493094304E+03  0.46906547275E+03  0.00000000000E+00 0.  1.
        -11    1    5    5    0    0  0.62623202154E+02 -0.34623961356E+02 -0.40035649333E+03  0.40670112602E+03  0.00000000000E+00 0. -1.
          2    1    6    6  503    0 -0.20330937702E+03 -0.61645187251E+02  0.24175565170E+02  0.21382069556E+03  0.00000000000E+00 0. -1.
         -2    1    6    6    0  503 -0.17055405042E+03  0.14683941911E+02 -0.29786453353E+02  0.17375711516E+03  0.00000000000E+00 0.  1.
<mgrwt>
<rscale>  0 0.15435505E+04</rscale>
<asrwt>0</asrwt>
<pdfrwt beam="1">  1        2 0.16739493E+00 0.15435505E+04</pdfrwt>
<pdfrwt beam="2">  1       -1 0.84219505E-01 0.15435505E+04</pdfrwt>
<totfact> 0.34006125E+01</totfact>
</mgrwt>
</event>
<event>
12    6  0.1569942E-007  0.1304265E+04  0.7818608E-02  0.9026190E-01
          2   -1    0    0  501    0  0.00000000000E+00  0.00000000000E+00  0.68701569845E+03  0.68701569845E+03  0.00000000000E+00 0. -1.
         -1   -1    0    0    0  501 -0.00000000000E+00 -0.00000000000E+00 -0.61902059476E+03  0.61902059476E+03  0.00000000000E+00 0.  1.
         24    2    1    2    0    0 -0.83244541334E+01 -0.12838325946E+03 -0.30412926869E+03  0.33975368083E+03  0.79914915502E+02 0.  0.
        254    2    1    2    0    0  0.83244541334E+01  0.12838325946E+03  0.37212437238E+03  0.96628261238E+03  0.88242505666E+03 0.  0.
         23    2    4    4    0    0 -0.11327275133E+03 -0.27460442155E+03 -0.10098637371E+03  0.32667852681E+03  0.91007184751E+02 0.  0.
         23    2    4    4    0    0  0.12159720546E+03  0.40298768101E+03  0.47311074608E+03  0.63960408557E+03  0.89859094082E+02 0.  0.
          2    1    3    3  502    0 -0.19633962083E+02 -0.99137744028E+02 -0.14006214000E+03  0.17271707449E+03  0.00000000000E+00 0. -1.
         -1    1    3    3    0  502  0.11309507950E+02 -0.29245515432E+02 -0.16406712869E+03  0.16703660635E+03  0.00000000000E+00 0.  1.
         11    1    5    5    0    0 -0.47601622576E+02 -0.75171021724E+02  0.93857848094E+01  0.89468932794E+02  0.00000000000E+00 0.  1.
        -11    1    5    5    0    0 -0.65671128750E+02 -0.19943339983E+03 -0.11037215851E+03  0.23720959402E+03  0.00000000000E+00 0. -1.
          2    1    6    6  503    0  0.13399200347E+03  0.37919355294E+03  0.45485613780E+03  0.60715378091E+03  0.00000000000E+00 0. -1.
         -2    1    6    6    0  503 -0.12394798008E+02  0.23794128073E+02  0.18254608285E+02  0.32450304653E+02  0.00000000000E+00 0.  1.
<mgrwt>
<rscale>  0 0.13042651E+04</rscale>
<asrwt>0</asrwt>
<pdfrwt beam="1">  1        2 0.10569472E+00 0.13042651E+04</pdfrwt>
<pdfrwt beam="2">  1       -1 0.95233938E-01 0.13042651E+04</pdfrwt>
<totfact> 0.50031631E+01</totfact>
</mgrwt>
</event>
<event>
12    6  0.1569942E-007  0.1379386E+04  0.7818608E-02  0.8968877E-01
         -1   -1    0    0    0  501 -0.00000000000E+00  0.00000000000E+00  0.80657148500E+03  0.80657148500E+03  0.00000000000E+00 0.  1.
          2   -1    0    0  501    0  0.00000000000E+00 -0.00000000000E+00 -0.58975101995E+03  0.58975101995E+03  0.00000000000E+00 0. -1.
         24    2    1    2    0    0  0.33210781376E+03 -0.44144293515E+02  0.27173922049E+03  0.43839837292E+03  0.78144806684E+02 0.  0.
        254    2    1    2    0    0 -0.33210781376E+03  0.44144293515E+02 -0.54918755429E+02  0.95792413203E+03  0.89574452520E+03 0.  0.
         23    2    4    4    0    0  0.16636621552E+03  0.90553708334E+02  0.27868968138E+03  0.34926296033E+03  0.91863949380E+02 0.  0.
         23    2    4    4    0    0 -0.49847402928E+03 -0.46409414818E+02 -0.33360843681E+03  0.60866117170E+03  0.92431819051E+02 0.  0.
          4    1    3    3  502    0  0.14924742704E+02 -0.66314243896E+01 -0.35801665284E+01  0.16719489424E+02  0.00000000000E+00 0. -1.
         -3    1    3    3    0  502  0.31718307106E+03 -0.37512869126E+02  0.27531938702E+03  0.42167888349E+03  0.00000000000E+00 0.  1.
         11    1    5    5    0    0  0.15411165429E+03  0.50917229814E+02  0.18091170904E+03  0.24304734672E+03  0.00000000000E+00 0. -1.
        -11    1    5    5    0    0  0.12254561226E+02  0.39636478519E+02  0.97777972345E+02  0.10621561362E+03  0.00000000000E+00 0.  1.
          4    1    6    6  503    0 -0.40685012317E+03 -0.27056774174E+02 -0.30965358930E+03  0.51200042688E+03  0.00000000000E+00 0. -1.
         -4    1    6    6    0  503 -0.91623906108E+02 -0.19352640645E+02 -0.23954847505E+02  0.96660744822E+02  0.00000000000E+00 0.  1.
<mgrwt>
<rscale>  0 0.13793859E+04</rscale>
<asrwt>0</asrwt>
<pdfrwt beam="1">  1        2 0.90730926E-01 0.13793859E+04</pdfrwt>
<pdfrwt beam="2">  1       -1 0.12408792E+00 0.13793859E+04</pdfrwt>
<totfact> 0.32161746E+01</totfact>
</mgrwt>
</event>
<event>
12    6  0.1569942E-007  0.2410316E+04  0.7818608E-02  0.8435651E-01
          2   -1    0    0  501    0  0.00000000000E+00  0.00000000000E+00  0.22313549103E+04  0.22313549103E+04  0.00000000000E+00 0. -1.
         -3   -1    0    0    0  501 -0.00000000000E+00 -0.00000000000E+00 -0.65090763041E+03  0.65090763041E+03  0.00000000000E+00 0.  1.
         24    2    1    2    0    0 -0.40031297424E+03  0.52581567698E+03  0.15616375675E+04  0.16977242476E+04  0.82602210278E+02 0.  0.
        254    2    1    2    0    0  0.40031297424E+03 -0.52581567698E+03  0.18809712328E+02  0.11845382931E+04  0.98287565794E+03 0.  0.
         23    2    4    4    0    0 -0.19899786084E+03 -0.31276229256E+03  0.29503464731E+03  0.48495952804E+03  0.10353695212E+03 0.  0.
         23    2    4    4    0    0  0.59931083508E+03 -0.21305338443E+03 -0.27622493499E+03  0.69957876503E+03  0.92439234709E+02 0.  0.
          2    1    3    3  502    0 -0.31910816301E+03  0.35933822235E+03  0.11454558948E+04  0.12421848432E+04  0.00000000000E+00 0. -1.
         -1    1    3    3    0  502 -0.81204811230E+02  0.16647745463E+03  0.41618167278E+03  0.45553940447E+03  0.00000000000E+00 0.  1.
         11    1    5    5    0    0 -0.15117149840E+03 -0.18996112103E+03  0.13547606662E+03  0.27801405371E+03  0.00000000000E+00 0. -1.
        -11    1    5    5    0    0 -0.47826362442E+02 -0.12280117153E+03  0.15955858070E+03  0.20694547433E+03  0.00000000000E+00 0.  1.
          2    1    6    6  503    0  0.17596356049E+03 -0.20165093212E+02 -0.87302687042E+02  0.19746281870E+03  0.00000000000E+00 0. -1.
         -2    1    6    6    0  503  0.42334727459E+03 -0.19288829121E+03 -0.18892224794E+03  0.50211594633E+03  0.00000000000E+00 0.  1.
<mgrwt>
<rscale>  0 0.24103161E+04</rscale>
<asrwt>0</asrwt>
<pdfrwt beam="1">  1        2 0.34328537E+00 0.24103161E+04</pdfrwt>
<pdfrwt beam="2">  1       -3 0.10013964E+00 0.24103161E+04</pdfrwt>
<totfact> 0.24768606E+00</totfact>
</mgrwt>
</event>
<event>
12    6  0.1569942E-007  0.2482355E+04  0.7818608E-02  0.8409299E-01
          2   -1    0    0  501    0  0.00000000000E+00  0.00000000000E+00  0.79277778416E+03  0.79277778416E+03  0.00000000000E+00 0. -1.
         -1   -1    0    0    0  501 -0.00000000000E+00 -0.00000000000E+00 -0.19431948606E+04  0.19431948606E+04  0.00000000000E+00 0.  1.
         24    2    1    2    0    0 -0.88385734595E+02 -0.22866720251E+02 -0.16824581442E+04  0.16868246637E+04  0.79856833947E+02 0.  0.
        254    2    1    2    0    0  0.88385734595E+02  0.22866720251E+02  0.53204106780E+03  0.10491479811E+04  0.89961595327E+03 0.  0.
         23    2    4    4    0    0  0.44249243751E+03  0.20201708573E+03  0.25028264094E+03  0.55452875954E+03  0.90831077374E+02 0.  0.
         23    2    4    4    0    0 -0.35410670292E+03 -0.17915036548E+03  0.28175842686E+03  0.49461922153E+03  0.88170021538E+02 0.  0.
          4    1    3    3  502    0 -0.22560691907E+02  0.21711813500E+02 -0.22114523959E+03  0.22335085551E+03  0.00000000000E+00 0. -1.
         -3    1    3    3    0  502 -0.65825042688E+02 -0.44578533751E+02 -0.14613129047E+04  0.14634738082E+04  0.00000000000E+00 0.  1.
         11    1    5    5    0    0  0.33129341410E+03  0.11470644421E+03  0.15074643646E+03  0.38162466203E+03  0.00000000000E+00 0.  1.
        -11    1    5    5    0    0  0.11119902341E+03  0.87310641520E+02  0.99536204482E+02  0.17290409750E+03  0.00000000000E+00 0. -1.
          1    1    6    6  503    0 -0.30017788468E+03 -0.18139582582E+03  0.25922297159E+03  0.43612814296E+03  0.00000000000E+00 0. -1.
         -1    1    6    6    0  503 -0.53928818235E+02  0.22454603448E+01  0.22535455266E+02  0.58491078572E+02  0.00000000000E+00 0.  1.
<mgrwt>
<rscale>  0 0.24823551E+04</rscale>
<asrwt>0</asrwt>
<pdfrwt beam="1">  1        2 0.12196581E+00 0.24823551E+04</pdfrwt>
<pdfrwt beam="2">  1       -1 0.29895306E+00 0.24823551E+04</pdfrwt>
<totfact> 0.11915930E+00</totfact>
</mgrwt>
</event>
<event>
12    6  0.1569942E-007  0.3507645E+04  0.7818608E-02  0.8111980E-01
          2   -1    0    0  501    0  0.00000000000E+00  0.00000000000E+00  0.25352380889E+04  0.25352380889E+04  0.00000000000E+00 0. -1.
         -1   -1    0    0    0  501 -0.00000000000E+00 -0.00000000000E+00 -0.12132564422E+04  0.12132564422E+04  0.00000000000E+00 0.  1.
         24    2    1    2    0    0 -0.11200286415E+04  0.11766606467E+04  0.86072290554E+03  0.18401381842E+04  0.79184477477E+02 0.  0.
        254    2    1    2    0    0  0.11200286415E+04 -0.11766606467E+04  0.46125874118E+03  0.19083563470E+04  0.88885875446E+03 0.  0.
         23    2    4    4    0    0  0.10741804707E+04 -0.12901122140E+04  0.34502778549E+03  0.17161720247E+04  0.89157373675E+02 0.  0.
         23    2    4    4    0    0  0.45848170780E+02  0.11345156729E+03  0.11623095569E+03  0.19218432225E+03  0.91934029464E+02 0.  0.
          4    1    3    3  502    0 -0.18206740276E+03  0.22918351403E+03  0.17270663388E+03  0.33985468018E+03  0.00000000000E+00 0. -1.
         -3    1    3    3    0  502 -0.93796123874E+03  0.94747713266E+03  0.68801627166E+03  0.15002835040E+04  0.00000000000E+00 0.  1.
         11    1    5    5    0    0  0.10240645892E+04 -0.12242914341E+04  0.30813676648E+03  0.16255909896E+04  0.00000000000E+00 0. -1.
        -11    1    5    5    0    0  0.50115881495E+02 -0.65820779839E+02  0.36891019013E+02  0.90581035103E+02  0.00000000000E+00 0.  1.
          1    1    6    6  503    0  0.28773460722E+02  0.12762685086E+03  0.10071443654E+03  0.16510579285E+03  0.00000000000E+00 0. -1.
         -1    1    6    6    0  503  0.17074710058E+02 -0.14175283578E+02  0.15516519151E+02  0.27078529403E+02  0.00000000000E+00 0.  1.
<mgrwt>
<rscale>  0 0.35076453E+04</rscale>
<asrwt>0</asrwt>
<pdfrwt beam="1">  1        2 0.39003663E+00 0.35076453E+04</pdfrwt>
<pdfrwt beam="2">  1       -1 0.18665484E+00 0.35076453E+04</pdfrwt>
<totfact> 0.57802801E-01</totfact>
</mgrwt>
</event>
<event>
12    6  0.1569942E-007  0.1862320E+04  0.7818608E-02  0.8673843E-01
          2   -1    0    0  501    0  0.00000000000E+00  0.00000000000E+00  0.17313768299E+04  0.17313768299E+04  0.00000000000E+00 0. -1.
         -1   -1    0    0    0  501 -0.00000000000E+00 -0.00000000000E+00 -0.50079145097E+03  0.50079145097E+03  0.00000000000E+00 0.  1.
         24    2    1    2    0    0  0.64533048277E+03 -0.12946441794E+03  0.13885219816E+03  0.67746695669E+03  0.80430572331E+02 0.  0.
        254    2    1    2    0    0 -0.64533048277E+03  0.12946441794E+03  0.10917331807E+04  0.15547013241E+04  0.88994516789E+03 0.  0.
         23    2    4    4    0    0 -0.73214843745E+03 -0.17998163243E+03  0.86435678705E+03  0.11506529938E+04  0.91950717373E+02 0.  0.
         23    2    4    4    0    0  0.86817954678E+02  0.30944605036E+03  0.22737639369E+03  0.40404833030E+03  0.90889017355E+02 0.  0.
          2    1    3    3  502    0  0.23197507244E+03 -0.60660734011E+02  0.87715384614E+02  0.25531578013E+03  0.00000000000E+00 0. -1.
         -1    1    3    3    0  502  0.41335541033E+03 -0.68803683924E+02  0.51136813543E+02  0.42215117656E+03  0.00000000000E+00 0.  1.
         11    1    5    5    0    0 -0.59471728098E+03 -0.18088197956E+03  0.72329603792E+03  0.95371069686E+03  0.00000000000E+00 0. -1.
        -11    1    5    5    0    0 -0.13743115647E+03  0.90034713273E+00  0.14106074913E+03  0.19694229697E+03  0.00000000000E+00 0.  1.
          3    1    6    6  503    0  0.56390538984E+02  0.28743307230E+03  0.21857368829E+03  0.36547519910E+03  0.00000000000E+00 0. -1.
         -3    1    6    6    0  503  0.30427415694E+02  0.22012978059E+02  0.88027053934E+01  0.38573131207E+02  0.00000000000E+00 0.  1.
<mgrwt>
<rscale>  0 0.18623198E+04</rscale>
<asrwt>0</asrwt>
<pdfrwt beam="1">  1        2 0.26636566E+00 0.18623198E+04</pdfrwt>
<pdfrwt beam="2">  1       -1 0.77044839E-01 0.18623198E+04</pdfrwt>
<totfact> 0.17029490E+01</totfact>
</mgrwt>
</event>
<event>
12    6  0.1569942E-007  0.2918628E+04  0.7818608E-02  0.8267357E-01
         -1   -1    0    0    0  501 -0.00000000000E+00  0.00000000000E+00  0.69452421096E+03  0.69452421096E+03  0.00000000000E+00 0.  1.
          2   -1    0    0  501    0  0.00000000000E+00 -0.00000000000E+00 -0.30662678785E+04  0.30662678785E+04  0.00000000000E+00 0. -1.
         24    2    1    2    0    0 -0.35831035883E+03 -0.35988451153E+03 -0.26296570138E+04  0.26796230078E+04  0.85908548673E+02 0.  0.
        254    2    1    2    0    0  0.35831035883E+03  0.35988451153E+03  0.25791334627E+03  0.10811690817E+04  0.91896904958E+03 0.  0.
         23    2    4    4    0    0  0.49265979372E+03  0.58420323240E+03  0.14892657832E+03  0.78368881085E+03  0.89341689149E+02 0.  0.
         23    2    4    4    0    0 -0.13434943488E+03 -0.22431872088E+03  0.10898676795E+03  0.29748027082E+03  0.90817051001E+02 0.  0.
          4    1    3    3  502    0 -0.34771454529E+03 -0.32438541697E+03 -0.23599463911E+04  0.24073799602E+04  0.00000000000E+00 0. -1.
         -3    1    3    3    0  502 -0.10595813545E+02 -0.35499094556E+02 -0.26971062264E+03  0.27224304756E+03  0.00000000000E+00 0.  1.
         11    1    5    5    0    0  0.37540664289E+03  0.49895772282E+03  0.11808929075E+03  0.63547937596E+03  0.00000000000E+00 0.  1.
        -11    1    5    5    0    0  0.11725315083E+03  0.85245509586E+02  0.30837287576E+02  0.14820943489E+03  0.00000000000E+00 0. -1.
          2    1    6    6  503    0 -0.70559256807E+02 -0.16627343474E+03  0.35299997609E+02  0.18404226051E+03  0.00000000000E+00 0.  1.
         -2    1    6    6    0  503 -0.63790178076E+02 -0.58045286136E+02  0.73686770336E+02  0.11343801031E+03  0.00000000000E+00 0. -1.
<mgrwt>
<rscale>  0 0.29186280E+04</rscale>
<asrwt>0</asrwt>
<pdfrwt beam="1">  1        2 0.47173352E+00 0.29186280E+04</pdfrwt>
<pdfrwt beam="2">  1       -1 0.10684988E+00 0.29186280E+04</pdfrwt>
<totfact> 0.12647219E+00</totfact>
</mgrwt>
</event>
<event>
12    6  0.1569942E-007  0.2382655E+04  0.7818608E-02  0.8446026E-01
         -3   -1    0    0    0  501 -0.00000000000E+00  0.00000000000E+00  0.64542269028E+03  0.64542269028E+03  0.00000000000E+00 0.  1.
          4   -1    0    0  501    0  0.00000000000E+00 -0.00000000000E+00 -0.21989637259E+04  0.21989637259E+04  0.00000000000E+00 0. -1.
         24    2    1    2    0    0  0.94932129993E+03 -0.17909704118E+02 -0.11390689035E+04  0.14849344621E+04  0.77593182731E+02 0.  0.
        254    2    1    2    0    0 -0.94932129993E+03  0.17909704118E+02 -0.41447213216E+03  0.13594519540E+04  0.88022200552E+03 0.  0.
         23    2    4    4    0    0  0.15753672573E+03  0.84844396709E+01 -0.51600896724E+02  0.19046367965E+03  0.93402114816E+02 0.  0.
         23    2    4    4    0    0 -0.11068580257E+04  0.94252644474E+01 -0.36287123544E+03  0.11689882744E+04  0.98155629418E+02 0.  0.
          4    1    3    3  502    0  0.43617308917E+03 -0.11190627704E+02 -0.46362779190E+03  0.63664976501E+03  0.00000000000E+00 0. -1.
         -3    1    3    3    0  502  0.51314821077E+03 -0.67190764139E+01 -0.67544111156E+03  0.84828469713E+03  0.00000000000E+00 0.  1.
         11    1    5    5    0    0  0.87739793968E+02 -0.41254283800E+02 -0.35555289072E+02  0.10326841704E+03  0.00000000000E+00 0. -1.
        -11    1    5    5    0    0  0.69796931758E+02  0.49738723471E+02 -0.16045607652E+02  0.87195262603E+02  0.00000000000E+00 0.  1.
          2    1    6    6  503    0 -0.10706142998E+04 -0.37553208898E+01 -0.36280204245E+03  0.11304222235E+04  0.00000000000E+00 0. -1.
         -2    1    6    6    0  503 -0.36243725840E+02  0.13180585337E+02 -0.69192984586E-01  0.38566050877E+02  0.00000000000E+00 0.  1.
<mgrwt>
<rscale>  0 0.23826549E+04</rscale>
<asrwt>0</asrwt>
<pdfrwt beam="1">  1        4 0.33830211E+00 0.23826549E+04</pdfrwt>
<pdfrwt beam="2">  1       -3 0.99295798E-01 0.23826549E+04</pdfrwt>
<totfact> 0.32160533E-02</totfact>
</mgrwt>
</event>
<event>
12    6  0.1569942E-007  0.1358827E+04  0.7818608E-02  0.8984173E-01
         -1   -1    0    0    0  501 -0.00000000000E+00  0.00000000000E+00  0.13079839532E+04  0.13079839532E+04  0.00000000000E+00 0.  1.
          4   -1    0    0  501    0  0.00000000000E+00 -0.00000000000E+00 -0.35291183397E+03  0.35291183397E+03  0.00000000000E+00 0. -1.
         24    2    1    2    0    0  0.76161079803E+02 -0.60141848045E+02  0.72287879844E+03  0.73350846662E+03  0.77867588940E+02 0.  0.
        254    2    1    2    0    0 -0.76161079803E+02  0.60141848045E+02  0.23219332079E+03  0.92738732056E+03  0.89258946450E+03 0.  0.
         23    2    4    4    0    0  0.35406949349E+03  0.19404096035E+03  0.10919554122E+01  0.41361024487E+03  0.89750441692E+02 0.  0.
         23    2    4    4    0    0 -0.43023057329E+03 -0.13389911231E+03  0.23110136538E+03  0.51377707568E+03  0.86785505372E+02 0.  0.
          4    1    3    3  502    0  0.52634625493E+02  0.36577536948E+01  0.40613279245E+03  0.40954563612E+03  0.00000000000E+00 0. -1.
         -3    1    3    3    0  502  0.23526454310E+02 -0.63799601740E+02  0.31674600600E+03  0.32396283051E+03  0.00000000000E+00 0.  1.
         11    1    5    5    0    0  0.49568197346E+02 -0.49975095990E+01  0.93168386006E+00  0.49828198093E+02  0.00000000000E+00 0.  1.
        -11    1    5    5    0    0  0.30450129614E+03  0.19903846995E+03  0.16027155217E+00  0.36378204678E+03  0.00000000000E+00 0. -1.
          1    1    6    6  503    0 -0.36826988653E+03 -0.10333987386E+03  0.22652333285E+03  0.44453870381E+03  0.00000000000E+00 0. -1.
         -1    1    6    6    0  503 -0.61960686757E+02 -0.30559238445E+02  0.45780325317E+01  0.69238371873E+02  0.00000000000E+00 0.  1.
<mgrwt>
<rscale>  0 0.13588275E+04</rscale>
<asrwt>0</asrwt>
<pdfrwt beam="1">  1        4 0.54294129E-01 0.13588275E+04</pdfrwt>
<pdfrwt beam="2">  1       -1 0.20122830E+00 0.13588275E+04</pdfrwt>
<totfact> 0.19651801E+00</totfact>
</mgrwt>
</event>
<event>
12    6  0.1569942E-007  0.1478030E+04  0.7818608E-02  0.8899196E-01
         -1   -1    0    0    0  501 -0.00000000000E+00  0.00000000000E+00  0.66455115344E+03  0.66455115344E+03  0.00000000000E+00 0.  1.
          2   -1    0    0  501    0  0.00000000000E+00 -0.00000000000E+00 -0.82182233538E+03  0.82182233538E+03  0.00000000000E+00 0. -1.
         24    2    1    2    0    0 -0.37731478399E+03 -0.18496770938E+03 -0.20830130855E+03  0.47535308814E+03  0.77405578207E+02 0.  0.
        254    2    1    2    0    0  0.37731478399E+03  0.18496770938E+03  0.51030126605E+02  0.10110204007E+04  0.91813870251E+03 0.  0.
         23    2    4    4    0    0  0.25030875196E+02 -0.22327567906E+03 -0.28149370270E+03  0.37118118290E+03  0.89767434515E+02 0.  0.
         23    2    4    4    0    0  0.35228390879E+03  0.40824338844E+03  0.33252382931E+03  0.63983921778E+03  0.89752498313E+02 0.  0.
          2    1    3    3  502    0 -0.27680018483E+03 -0.96509776695E+02 -0.13546870836E+03  0.32293072053E+03  0.00000000000E+00 0. -1.
         -1    1    3    3    0  502 -0.10051459916E+03 -0.88457932681E+02 -0.72832600183E+02  0.15242236761E+03  0.00000000000E+00 0.  1.
         11    1    5    5    0    0  0.92952948716E+01 -0.21191646343E+03 -0.28059829875E+03  0.35175331590E+03  0.00000000000E+00 0. -1.
        -11    1    5    5    0    0  0.15735580324E+02 -0.11359215634E+02 -0.89540394968E+00  0.19427867001E+02  0.00000000000E+00 0.  1.
          4    1    6    6  503    0  0.19583908284E+03  0.29057643427E+03  0.20041038476E+03  0.40367305191E+03  0.00000000000E+00 0. -1.
         -4    1    6    6    0  503  0.15644482595E+03  0.11766695417E+03  0.13211344455E+03  0.23616616587E+03  0.00000000000E+00 0.  1.
<mgrwt>
<rscale>  0 0.14780297E+04</rscale>
<asrwt>0</asrwt>
<pdfrwt beam="1">  1        2 0.12643421E+00 0.14780297E+04</pdfrwt>
<pdfrwt beam="2">  1       -1 0.10223864E+00 0.14780297E+04</pdfrwt>
<totfact> 0.33259893E+01</totfact>
</mgrwt>
</event>
<event>
12    6  0.1569942E-007  0.1507049E+04  0.7818608E-02  0.8879779E-01
          2   -1    0    0  501    0  0.00000000000E+00  0.00000000000E+00  0.25168159461E+04  0.25168159461E+04  0.00000000000E+00 0. -1.
         -1   -1    0    0    0  501 -0.00000000000E+00 -0.00000000000E+00 -0.22560204679E+03  0.22560204679E+03  0.00000000000E+00 0.  1.
         24    2    1    2    0    0 -0.10548504120E+03 -0.40236261529E+03  0.36003894835E+03  0.55575035006E+03  0.78788572495E+02 0.  0.
        254    2    1    2    0    0  0.10548504120E+03  0.40236261529E+03  0.19311749510E+04  0.21866676428E+04  0.93757982108E+03 0.  0.
         23    2    4    4    0    0  0.47719002304E+03  0.75319675658E+02  0.69482514751E+03  0.85150494006E+03  0.94314928279E+02 0.  0.
         23    2    4    4    0    0 -0.37170498183E+03  0.32704293963E+03  0.12363498034E+04  0.13351627028E+04  0.94746654369E+02 0.  0.
          2    1    3    3  502    0 -0.11156048087E+03 -0.28904239039E+03  0.25976745523E+03  0.40431469814E+03  0.00000000000E+00 0. -1.
         -1    1    3    3    0  502  0.60754396673E+01 -0.11332022490E+03  0.10027149312E+03  0.15143565192E+03  0.00000000000E+00 0.  1.
         11    1    5    5    0    0  0.25619624834E+03  0.41662425393E+02  0.45369850998E+03  0.52269935270E+03  0.00000000000E+00 0. -1.
        -11    1    5    5    0    0  0.22099377470E+03  0.33657250265E+02  0.24112663754E+03  0.32880558736E+03  0.00000000000E+00 0.  1.
          1    1    6    6  503    0 -0.79680427305E+02  0.78040043125E+02  0.18572917194E+03  0.21664381860E+03  0.00000000000E+00 0. -1.
         -1    1    6    6    0  503 -0.29202455453E+03  0.24900289651E+03  0.10506206315E+04  0.11185188842E+04  0.00000000000E+00 0.  1.
<mgrwt>
<rscale>  0 0.15070485E+04</rscale>
<asrwt>0</asrwt>
<pdfrwt beam="1">  1        2 0.38720243E+00 0.15070485E+04</pdfrwt>
<pdfrwt beam="2">  1       -1 0.34708009E-01 0.15070485E+04</pdfrwt>
<totfact> 0.29571470E+01</totfact>
</mgrwt>
</event>
<event>
12    6  0.1569942E-007  0.3790021E+04  0.7818608E-02  0.8048300E-01
         -1   -1    0    0    0  501 -0.00000000000E+00  0.00000000000E+00  0.27405598076E+04  0.27405598076E+04  0.00000000000E+00 0.  1.
          2   -1    0    0  501    0  0.00000000000E+00 -0.00000000000E+00 -0.13103401247E+04  0.13103401247E+04  0.00000000000E+00 0. -1.
         24    2    1    2    0    0 -0.15251293773E+04  0.50926882759E+03 -0.15411785569E+03  0.16172130395E+04  0.79065450237E+02 0.  0.
        254    2    1    2    0    0  0.15251293773E+04 -0.50926882759E+03  0.15843375386E+04  0.24336868928E+04  0.90957797885E+03 0.  0.
         23    2    4    4    0    0 -0.87094894322E+02 -0.14408541801E+03  0.17767281511E+03  0.26119102168E+03  0.91142702817E+02 0.  0.
         23    2    4    4    0    0  0.16122242717E+04 -0.36518340958E+03  0.14066647235E+04  0.21724958711E+04  0.91687736210E+02 0.  0.
          4    1    3    3  502    0 -0.11573218257E+04  0.35042582145E+03 -0.11574750232E+03  0.12147384693E+04  0.00000000000E+00 0. -1.
         -3    1    3    3    0  502 -0.36780755163E+03  0.15884300614E+03 -0.38370353366E+02  0.40247457019E+03  0.00000000000E+00 0.  1.
         11    1    5    5    0    0  0.19136551985E+02 -0.25677365633E+02  0.35882888150E+02  0.48094868642E+02  0.00000000000E+00 0.  1.
        -11    1    5    5    0    0 -0.10623144631E+03 -0.11840805237E+03  0.14178992696E+03  0.21309615304E+03  0.00000000000E+00 0. -1.
          1    1    6    6  503    0  0.10335101935E+04 -0.27862950748E+03  0.91717111289E+03  0.14096029841E+04  0.00000000000E+00 0. -1.
         -1    1    6    6    0  503  0.57871407814E+03 -0.86553902103E+02  0.48949361060E+03  0.76289288699E+03  0.00000000000E+00 0.  1.
<mgrwt>
<rscale>  0 0.37900214E+04</rscale>
<asrwt>0</asrwt>
<pdfrwt beam="1">  1        2 0.20159079E+00 0.37900214E+04</pdfrwt>
<pdfrwt beam="2">  1       -1 0.42162459E+00 0.37900214E+04</pdfrwt>
<totfact> 0.75667483E-02</totfact>
</mgrwt>
</event>
<event>
12    6  0.1569942E-007  0.1528175E+04  0.7818608E-02  0.8865930E-01
         -1   -1    0    0    0  501 -0.00000000000E+00  0.00000000000E+00  0.50662760857E+03  0.50662760857E+03  0.00000000000E+00 0.  1.
          2   -1    0    0  501    0  0.00000000000E+00 -0.00000000000E+00 -0.11523845839E+04  0.11523845839E+04  0.00000000000E+00 0. -1.
         24    2    1    2    0    0  0.22115414941E+03 -0.11846302735E+03 -0.67323348756E+03  0.72289806433E+03  0.79972720222E+02 0.  0.
        254    2    1    2    0    0 -0.22115414941E+03  0.11846302735E+03  0.27476512241E+02  0.93611412813E+03  0.90144997393E+03 0.  0.
         23    2    4    4    0    0 -0.19135542895E+02  0.37143884673E+03  0.31208950025E+03  0.49505990520E+03  0.96702987035E+02 0.  0.
         23    2    4    4    0    0 -0.20201860651E+03 -0.25297581938E+03 -0.28461298801E+03  0.44105422293E+03  0.93359477561E+02 0.  0.
          2    1    3    3  502    0  0.21140826548E+03 -0.94409574953E+02 -0.54629496089E+03  0.59333363873E+03  0.00000000000E+00 0. -1.
         -3    1    3    3    0  502  0.97458839292E+01 -0.24053452396E+02 -0.12693852667E+03  0.12956442559E+03  0.00000000000E+00 0.  1.
         11    1    5    5    0    0 -0.20997961051E+02  0.10979312121E+02  0.16154276059E+02  0.28677871225E+02  0.00000000000E+00 0.  1.
        -11    1    5    5    0    0  0.18624181568E+01  0.36045953461E+03  0.29593522419E+03  0.46638203397E+03  0.00000000000E+00 0. -1.
          3    1    6    6  503    0 -0.16436194110E+03 -0.24745202008E+03 -0.26570985489E+03  0.39855874964E+03  0.00000000000E+00 0. -1.
         -3    1    6    6    0  503 -0.37656665414E+02 -0.55237993008E+01 -0.18903133117E+02  0.42495473294E+02  0.00000000000E+00 0.  1.
<mgrwt>
<rscale>  0 0.15281752E+04</rscale>
<asrwt>0</asrwt>
<pdfrwt beam="1">  1        2 0.17728993E+00 0.15281752E+04</pdfrwt>
<pdfrwt beam="2">  1       -1 0.77942710E-01 0.15281752E+04</pdfrwt>
<totfact> 0.36686240E+01</totfact>
</mgrwt>
</event>
<event>
12    6  0.1569942E-007  0.1630671E+04  0.7818608E-02  0.8801924E-01
          2   -1    0    0  501    0  0.00000000000E+00  0.00000000000E+00  0.19309348650E+04  0.19309348650E+04  0.00000000000E+00 0. -1.
         -1   -1    0    0    0  501 -0.00000000000E+00 -0.00000000000E+00 -0.34427466545E+03  0.34427466545E+03  0.00000000000E+00 0.  1.
         24    2    1    2    0    0  0.48343647420E+03 -0.10183389470E+03  0.92962793492E+03  0.10558805145E+04  0.81207123213E+02 0.  0.
        254    2    1    2    0    0 -0.48343647420E+03  0.10183389470E+03  0.65703226460E+03  0.12193290159E+04  0.90055032375E+03 0.  0.
         23    2    4    4    0    0 -0.44672457194E+03  0.16803730437E+03 -0.62912257647E+02  0.48981956285E+03  0.90365220930E+02 0.  0.
         23    2    4    4    0    0 -0.36711902257E+02 -0.66203409669E+02  0.71994452225E+03  0.72950945306E+03  0.90184653708E+02 0.  0.
          2    1    3    3  502    0  0.21049884776E+03 -0.77075333809E+02  0.47063597316E+03  0.52129510954E+03  0.00000000000E+00 0. -1.
         -3    1    3    3    0  502  0.27293762644E+03 -0.24758560889E+02  0.45899196175E+03  0.53458540498E+03  0.00000000000E+00 0.  1.
         11    1    5    5    0    0 -0.13188078893E+03  0.17199057406E+02 -0.44417344522E+02  0.14021858136E+03  0.00000000000E+00 0.  1.
        -11    1    5    5    0    0 -0.31484378301E+03  0.15083824696E+03 -0.18494913125E+02  0.34960098149E+03  0.00000000000E+00 0. -1.
          3    1    6    6  503    0 -0.98249470879E+01 -0.40855372337E+02  0.10006707851E+03  0.10853161400E+03  0.00000000000E+00 0. -1.
         -3    1    6    6    0  503 -0.26886955169E+02 -0.25348037332E+02  0.61987744373E+03  0.62097783906E+03  0.00000000000E+00 0.  1.
<mgrwt>
<rscale>  0 0.16306710E+04</rscale>
<asrwt>0</asrwt>
<pdfrwt beam="1">  1        2 0.29706689E+00 0.16306710E+04</pdfrwt>
<pdfrwt beam="2">  1       -1 0.52965335E-01 0.16306710E+04</pdfrwt>
<totfact> 0.28588264E+01</totfact>
</mgrwt>
</event>
<event>
12    6  0.1569942E-007  0.2019613E+04  0.7818608E-02  0.8597505E-01
         -1   -1    0    0    0  501 -0.00000000000E+00  0.00000000000E+00  0.50661571137E+03  0.50661571137E+03  0.00000000000E+00 0.  1.
          2   -1    0    0  501    0  0.00000000000E+00 -0.00000000000E+00 -0.20127872882E+04  0.20127872882E+04  0.00000000000E+00 0. -1.
         24    2    1    2    0    0  0.26570846001E+03  0.76356906972E+03 -0.64567264580E+03  0.10377698786E+04  0.80214994714E+02 0.  0.
        254    2    1    2    0    0 -0.26570846001E+03 -0.76356906972E+03 -0.86049893104E+03  0.14816331210E+04  0.89506401167E+03 0.  0.
         23    2    4    4    0    0 -0.16619138577E+03 -0.88310958077E+03 -0.92178743313E+03  0.12906652783E+04  0.92858388828E+02 0.  0.
         23    2    4    4    0    0 -0.99517074245E+02  0.11954051105E+03  0.61288502091E+02  0.19096784271E+03  0.92297641427E+02 0.  0.
          4    1    3    3  502    0  0.22276153258E+03  0.67718485118E+03 -0.59631757675E+03  0.92940662543E+03  0.00000000000E+00 0. -1.
         -3    1    3    3    0  502  0.42946927435E+02  0.86384218544E+02 -0.49355069056E+02  0.10836325314E+03  0.00000000000E+00 0.  1.
         11    1    5    5    0    0 -0.14021470844E+03 -0.84501822703E+03 -0.88541396878E+03  0.12319390669E+04  0.00000000000E+00 0.  1.
        -11    1    5    5    0    0 -0.25976677327E+02 -0.38091353744E+02 -0.36373464344E+02  0.58726211383E+02  0.00000000000E+00 0. -1.
          3    1    6    6  503    0 -0.44450852952E+02  0.84753144344E+02 -0.77964087764E+01  0.96019569850E+02  0.00000000000E+00 0. -1.
         -3    1    6    6    0  503 -0.55066221292E+02  0.34787366705E+02  0.69084910867E+02  0.94948272861E+02  0.00000000000E+00 0.  1.
<mgrwt>
<rscale>  0 0.20196135E+04</rscale>
<asrwt>0</asrwt>
<pdfrwt beam="1">  1        2 0.30965959E+00 0.20196135E+04</pdfrwt>
<pdfrwt beam="2">  1       -1 0.77940877E-01 0.20196135E+04</pdfrwt>
<totfact> 0.11443873E+01</totfact>
</mgrwt>
</event>
<event>
12    6  0.1569942E-007  0.1584094E+04  0.7818608E-02  0.8830380E-01
         -1   -1    0    0    0  501 -0.00000000000E+00  0.00000000000E+00  0.37358880352E+03  0.37358880352E+03  0.00000000000E+00 0.  1.
          2   -1    0    0  501    0  0.00000000000E+00 -0.00000000000E+00 -0.16792214562E+04  0.16792214562E+04  0.00000000000E+00 0. -1.
         24    2    1    2    0    0  0.28743117989E+03 -0.38323282077E+03 -0.65870154646E+03  0.81825205452E+03  0.78515089805E+02 0.  0.
        254    2    1    2    0    0 -0.28743117989E+03  0.38323282077E+03 -0.64693110622E+03  0.12345582052E+04  0.93601817704E+03 0.  0.
         23    2    4    4    0    0  0.11043514886E+03  0.46350675197E+03 -0.65802226197E+03  0.81765829884E+03  0.92397863584E+02 0.  0.
         23    2    4    4    0    0 -0.39786632875E+03 -0.80273931200E+02  0.11091155750E+02  0.41689990636E+03  0.94556853814E+02 0.  0.
          4    1    3    3  502    0  0.18352347382E+03 -0.20113915671E+03 -0.32290671433E+03  0.42238202135E+03  0.00000000000E+00 0. -1.
         -3    1    3    3    0  502  0.10390770607E+03 -0.18209366406E+03 -0.33579483214E+03  0.39587003317E+03  0.00000000000E+00 0.  1.
         11    1    5    5    0    0  0.18964740048E+02  0.10250056530E+03 -0.86242431402E+02  0.13529147876E+03  0.00000000000E+00 0.  1.
        -11    1    5    5    0    0  0.91470408810E+02  0.36100618667E+03 -0.57177983057E+03  0.68236682008E+03  0.00000000000E+00 0. -1.
          1    1    6    6  503    0 -0.33845264538E+03 -0.31606301585E+02  0.10827234143E+02  0.34009760432E+03  0.00000000000E+00 0. -1.
         -1    1    6    6    0  503 -0.59413683367E+02 -0.48667629615E+02  0.26392160672E+00  0.76802302037E+02  0.00000000000E+00 0.  1.
<mgrwt>
<rscale>  0 0.15840939E+04</rscale>
<asrwt>0</asrwt>
<pdfrwt beam="1">  1        2 0.25834176E+00 0.15840939E+04</pdfrwt>
<pdfrwt beam="2">  1       -1 0.57475200E-01 0.15840939E+04</pdfrwt>
<totfact> 0.33773050E+01</totfact>
</mgrwt>
</event>
<event>
12    6  0.1569942E-007  0.1294685E+04  0.7818608E-02  0.9033791E-01
         -1   -1    0    0    0  501 -0.00000000000E+00  0.00000000000E+00  0.25223825478E+03  0.25223825478E+03  0.00000000000E+00 0.  1.
          2   -1    0    0  501    0  0.00000000000E+00 -0.00000000000E+00 -0.16613352236E+04  0.16613352236E+04  0.00000000000E+00 0. -1.
         24    2    1    2    0    0  0.65060315729E-01 -0.31963832886E+03 -0.44769749772E+03  0.55582821115E+03  0.79644744534E+02 0.  0.
        254    2    1    2    0    0 -0.65060315729E-01  0.31963832886E+03 -0.96139947106E+03  0.13577452672E+04  0.90388860052E+03 0.  0.
         23    2    4    4    0    0 -0.35401672060E+03  0.39743694938E+03 -0.76136041592E+03  0.93334069346E+03  0.90394689813E+02 0.  0.
         23    2    4    4    0    0  0.35395166028E+03 -0.77798620516E+02 -0.20003905514E+03  0.42440457374E+03  0.93644089295E+02 0.  0.
          2    1    3    3  502    0 -0.10509155636E+02 -0.14754931495E+01 -0.20271945513E+02  0.22881678416E+02  0.00000000000E+00 0. -1.
         -1    1    3    3    0  502  0.10574215952E+02 -0.31816283571E+03 -0.42742555221E+03  0.53294653273E+03  0.00000000000E+00 0.  1.
         11    1    5    5    0    0 -0.16539754092E+02  0.80839862470E+01 -0.67682219399E+01  0.19614360232E+02  0.00000000000E+00 0.  1.
        -11    1    5    5    0    0 -0.33747696650E+03  0.38935296313E+03 -0.75459219398E+03  0.91372633323E+03  0.00000000000E+00 0. -1.
          3    1    6    6  503    0  0.28303431836E+03 -0.77946731307E+02 -0.19676259915E+03  0.35341142980E+03  0.00000000000E+00 0. -1.
         -3    1    6    6    0  503  0.70917341920E+02  0.14811079046E+00 -0.32764559850E+01  0.70993143933E+02  0.00000000000E+00 0.  1.
<mgrwt>
<rscale>  0 0.12946850E+04</rscale>
<asrwt>0</asrwt>
<pdfrwt beam="1">  1        2 0.25559003E+00 0.12946850E+04</pdfrwt>
<pdfrwt beam="2">  1       -1 0.38805885E-01 0.12946850E+04</pdfrwt>
<totfact> 0.74106235E+01</totfact>
</mgrwt>
</event>
<event>
12    6  0.1569942E-007  0.1375767E+04  0.7818608E-02  0.8971549E-01
         -1   -1    0    0    0  501 -0.00000000000E+00  0.00000000000E+00  0.17536259244E+03  0.17536259244E+03  0.00000000000E+00 0.  1.
          2   -1    0    0  501    0  0.00000000000E+00 -0.00000000000E+00 -0.26983177936E+04  0.26983177936E+04  0.00000000000E+00 0. -1.
         24    2    1    2    0    0 -0.34342968423E+03  0.35567977113E+02 -0.10022611809E+04  0.10629999671E+04  0.78945718200E+02 0.  0.
        254    2    1    2    0    0  0.34342968423E+03 -0.35567977113E+02 -0.15206940203E+04  0.18106804190E+04  0.92024140698E+03 0.  0.
         23    2    4    4    0    0  0.47524532239E+03 -0.36169390307E+03 -0.80113817177E+03  0.10035011932E+04  0.92258758790E+02 0.  0.
         23    2    4    4    0    0 -0.13181563817E+03  0.32612592596E+03 -0.71955584858E+03  0.80717922574E+03  0.10022076229E+03 0.  0.
          2    1    3    3  502    0 -0.84858884406E+02  0.26336040652E+02 -0.35477732333E+03  0.36573428394E+03  0.00000000000E+00 0. -1.
         -1    1    3    3    0  502 -0.25857079982E+03  0.92319364613E+01 -0.64748385753E+03  0.69726568317E+03  0.00000000000E+00 0.  1.
         11    1    5    5    0    0  0.21871241157E+03 -0.22074018642E+03 -0.38573436363E+03  0.49533054434E+03  0.00000000000E+00 0. -1.
        -11    1    5    5    0    0  0.25653291082E+03 -0.14095371666E+03 -0.41540380814E+03  0.50817064889E+03  0.00000000000E+00 0.  1.
          4    1    6    6  503    0  0.49553317429E+01  0.77466704451E+02 -0.21058757969E+03  0.22443879863E+03  0.00000000000E+00 0. -1.
         -4    1    6    6    0  503 -0.13677096991E+03  0.24865922151E+03 -0.50896826888E+03  0.58274042710E+03  0.00000000000E+00 0.  1.
<mgrwt>
<rscale>  0 0.13757674E+04</rscale>
<asrwt>0</asrwt>
<pdfrwt beam="1">  1        2 0.41512580E+00 0.13757674E+04</pdfrwt>
<pdfrwt beam="2">  1       -1 0.26978861E-01 0.13757674E+04</pdfrwt>
<totfact> 0.36513028E+01</totfact>
</mgrwt>
</event>
<event>
12    6  0.1569942E-007  0.1939991E+04  0.7818608E-02  0.8635203E-01
         -1   -1    0    0    0  501 -0.00000000000E+00  0.00000000000E+00  0.43795638086E+03  0.43795638086E+03  0.00000000000E+00 0.  1.
          2   -1    0    0  501    0  0.00000000000E+00 -0.00000000000E+00 -0.21483666487E+04  0.21483666487E+04  0.00000000000E+00 0. -1.
         24    2    1    2    0    0 -0.17204178133E+03  0.66767466078E+03 -0.23911391870E+03  0.73417238908E+03  0.80285762151E+02 0.  0.
        254    2    1    2    0    0  0.17204178133E+03 -0.66767466078E+03 -0.14712963491E+04  0.18521506405E+04  0.88902262112E+03 0.  0.
         23    2    4    4    0    0 -0.72499355153E+02 -0.70756513353E+03 -0.57919262106E+03  0.92178128073E+03  0.91170513438E+02 0.  0.
         23    2    4    4    0    0  0.24454113649E+03  0.39890472749E+02 -0.89210372809E+03  0.93036935976E+03  0.91358998835E+02 0.  0.
          4    1    3    3  502    0 -0.17299987860E+03  0.63602597662E+03 -0.24250205548E+03  0.70232844727E+03  0.00000000000E+00 0. -1.
         -3    1    3    3    0  502  0.95809726281E+00  0.31648684157E+02  0.33881367834E+01  0.31843941812E+02  0.00000000000E+00 0.  1.
         11    1    5    5    0    0  0.11448794048E+01 -0.27350635329E+02 -0.34702528316E+01  0.27593670587E+02  0.00000000000E+00 0. -1.
        -11    1    5    5    0    0 -0.73644234557E+02 -0.68021449820E+03 -0.57572236823E+03  0.89418761014E+03  0.00000000000E+00 0.  1.
          3    1    6    6  503    0  0.49295017845E+02  0.22200584600E+02 -0.93035580305E+02  0.10760336400E+03  0.00000000000E+00 0. -1.
         -3    1    6    6    0  503  0.19524611864E+03  0.17689888148E+02 -0.79906814778E+03  0.82276599576E+03  0.00000000000E+00 0.  1.
<mgrwt>
<rscale>  0 0.19399906E+04</rscale>
<asrwt>0</asrwt>
<pdfrwt beam="1">  1        2 0.33051795E+00 0.19399906E+04</pdfrwt>
<pdfrwt beam="2">  1       -1 0.67377903E-01 0.19399906E+04</pdfrwt>
<totfact> 0.13091920E+01</totfact>
</mgrwt>
</event>
<event>
12    6  0.1569942E-007  0.1970913E+04  0.7818608E-02  0.8620342E-01
         -1   -1    0    0    0  501 -0.00000000000E+00  0.00000000000E+00  0.14085922143E+04  0.14085922143E+04  0.00000000000E+00 0.  1.
          2   -1    0    0  501    0  0.00000000000E+00 -0.00000000000E+00 -0.68942913682E+03  0.68942913682E+03  0.00000000000E+00 0. -1.
         24    2    1    2    0    0  0.77220061728E+02  0.51285613431E+03 -0.32961966857E+03  0.62033065121E+03  0.84715042862E+02 0.  0.
        254    2    1    2    0    0 -0.77220061728E+02 -0.51285613431E+03  0.10487827461E+04  0.14776907000E+04  0.90257420957E+03 0.  0.
         23    2    4    4    0    0  0.35853329502E+03 -0.41676719724E+03  0.74350701366E+03  0.92963516137E+03  0.95801010272E+02 0.  0.
         23    2    4    4    0    0 -0.43575335675E+03 -0.96088937077E+02  0.30527573244E+03  0.54805553858E+03  0.89763738803E+02 0.  0.
          4    1    3    3  502    0  0.76017073866E+02  0.50864203826E+03 -0.31058522166E+03  0.60079821781E+03  0.00000000000E+00 0. -1.
         -3    1    3    3    0  502  0.12029878621E+01  0.42140960476E+01 -0.19034446915E+02  0.19532433403E+02  0.00000000000E+00 0.  1.
         11    1    5    5    0    0  0.59111828651E+01 -0.13557292920E+02  0.20467487264E+01  0.14930889275E+02  0.00000000000E+00 0. -1.
        -11    1    5    5    0    0  0.35262211216E+03 -0.40320990432E+03  0.74146026494E+03  0.91470427210E+03  0.00000000000E+00 0.  1.
          4    1    6    6  503    0 -0.23007683811E+03 -0.74660802748E+02  0.11828931527E+03  0.26926185955E+03  0.00000000000E+00 0. -1.
         -4    1    6    6    0  503 -0.20567651864E+03 -0.21428134329E+02  0.18698641717E+03  0.27879367903E+03  0.00000000000E+00 0.  1.
<mgrwt>
<rscale>  0 0.19709130E+04</rscale>
<asrwt>0</asrwt>
<pdfrwt beam="1">  1        2 0.10606602E+00 0.19709130E+04</pdfrwt>
<pdfrwt beam="2">  1       -1 0.21670649E+00 0.19709130E+04</pdfrwt>
<totfact> 0.51419021E+00</totfact>
</mgrwt>
</event>
<event>
12    6  0.1569942E-007  0.1259696E+04  0.7818608E-02  0.9062151E-01
          2   -1    0    0  501    0  0.00000000000E+00  0.00000000000E+00  0.40912557944E+03  0.40912557944E+03  0.00000000000E+00 0. -1.
         -1   -1    0    0    0  501 -0.00000000000E+00 -0.00000000000E+00 -0.96965017736E+03  0.96965017736E+03  0.00000000000E+00 0.  1.
         24    2    1    2    0    0  0.55823402446E+02 -0.72536826085E+02 -0.45342170539E+03  0.46913049906E+03  0.78194237829E+02 0.  0.
        254    2    1    2    0    0 -0.55823402446E+02  0.72536826085E+02 -0.10710289252E+03  0.90964525774E+03  0.89866880548E+03 0.  0.
         23    2    4    4    0    0  0.27121849146E+02  0.13677880961E+03  0.37389104367E+03  0.40908943157E+03  0.90086697268E+02 0.  0.
         23    2    4    4    0    0 -0.82945251592E+02 -0.64241983523E+02 -0.48099393619E+03  0.50055582617E+03  0.90520833266E+02 0.  0.
          4    1    3    3  502    0 -0.86981775658E+01 -0.41175592668E+02 -0.99887053412E+02  0.10839054924E+03  0.00000000000E+00 0. -1.
         -3    1    3    3    0  502  0.64521580012E+02 -0.31361233417E+02 -0.35353465198E+03  0.36073994982E+03  0.00000000000E+00 0.  1.
         11    1    5    5    0    0 -0.11633259690E+02 -0.91114736322E+01  0.27020210083E+02  0.30796808856E+02  0.00000000000E+00 0. -1.
        -11    1    5    5    0    0  0.38755108836E+02  0.14589028324E+03  0.34687083358E+03  0.37829262271E+03  0.00000000000E+00 0.  1.
          3    1    6    6  503    0 -0.97730524741E+02 -0.58729223570E+02 -0.33841903549E+03  0.35711037614E+03  0.00000000000E+00 0.  1.
         -3    1    6    6    0  503  0.14785273149E+02 -0.55127599532E+01 -0.14257490070E+03  0.14344545003E+03  0.00000000000E+00 0. -1.
<mgrwt>
<rscale>  0 0.12596963E+04</rscale>
<asrwt>0</asrwt>
<pdfrwt beam="1">  1        2 0.62942398E-01 0.12596963E+04</pdfrwt>
<pdfrwt beam="2">  1       -1 0.14917695E+00 0.12596963E+04</pdfrwt>
<totfact> 0.30876409E+01</totfact>
</mgrwt>
</event>
<event>
12    6  0.1569942E-007  0.1865853E+04  0.7818608E-02  0.8672043E-01
         -1   -1    0    0    0  501 -0.00000000000E+00  0.00000000000E+00  0.16460895348E+04  0.16460895348E+04  0.00000000000E+00 0.  1.
          2   -1    0    0  501    0  0.00000000000E+00 -0.00000000000E+00 -0.52873917840E+03  0.52873917840E+03  0.00000000000E+00 0. -1.
         24    2    1    2    0    0 -0.65532798948E+03 -0.22063308812E+03  0.21057812154E+03  0.72750791762E+03  0.82406865953E+02 0.  0.
        254    2    1    2    0    0  0.65532798948E+03  0.22063308812E+03  0.90677223485E+03  0.14473207956E+04  0.89127317138E+03 0.  0.
         23    2    4    4    0    0  0.69943293333E+03  0.47754683028E+03  0.70489593747E+03  0.11055191355E+04  0.89648608684E+02 0.  0.
         23    2    4    4    0    0 -0.44104943854E+02 -0.25691374216E+03  0.20187629739E+03  0.34180166003E+03  0.90135555529E+02 0.  0.
          4    1    3    3  502    0 -0.48135901340E+03 -0.19131217044E+03  0.18054938883E+03  0.54854801809E+03  0.00000000000E+00 0. -1.
         -3    1    3    3    0  502 -0.17396897608E+03 -0.29320917673E+02  0.30028732712E+02  0.17895989953E+03  0.00000000000E+00 0.  1.
         11    1    5    5    0    0  0.49754558491E+03  0.38086558725E+03  0.54486706427E+03  0.83035553972E+03  0.00000000000E+00 0.  1.
        -11    1    5    5    0    0  0.20188734842E+03  0.96681243037E+02  0.16002887319E+03  0.27516359582E+03  0.00000000000E+00 0. -1.
          3    1    6    6  503    0 -0.50189877210E+02 -0.65786963458E+02  0.43357134727E+02  0.93417286768E+02  0.00000000000E+00 0. -1.
         -3    1    6    6    0  503  0.60849333561E+01 -0.19112677871E+03  0.15851916266E+03  0.24838437327E+03  0.00000000000E+00 0.  1.
<mgrwt>
<rscale>  0 0.18658532E+04</rscale>
<asrwt>0</asrwt>
<pdfrwt beam="1">  1        2 0.81344490E-01 0.18658532E+04</pdfrwt>
<pdfrwt beam="2">  1       -1 0.25324454E+00 0.18658532E+04</pdfrwt>
<totfact> 0.41095388E+00</totfact>
</mgrwt>
</event>
<event>
12    6  0.1569942E-007  0.1374217E+04  0.7818608E-02  0.8972696E-01
         -1   -1    0    0    0  501 -0.00000000000E+00  0.00000000000E+00  0.28924159611E+03  0.28924159611E+03  0.00000000000E+00 0.  1.
          2   -1    0    0  501    0  0.00000000000E+00 -0.00000000000E+00 -0.16322628868E+04  0.16322628868E+04  0.00000000000E+00 0. -1.
         24    2    1    2    0    0 -0.40199614075E+01 -0.30491686996E+03 -0.53076691344E+02  0.31964775863E+03  0.79794089760E+02 0.  0.
        254    2    1    2    0    0  0.40199614075E+01  0.30491686996E+03 -0.12899445994E+04  0.16018567243E+04  0.89944284871E+03 0.  0.
         23    2    4    4    0    0  0.14954518231E+01 -0.21587363097E+03 -0.30438556262E+02  0.23655203391E+03  0.91797048521E+02 0.  0.
         23    2    4    4    0    0  0.25245095844E+01  0.52079050093E+03 -0.12595060431E+04  0.13653046904E+04  0.80450643129E+02 0.  0.
          2    1    3    3  502    0 -0.22073182677E+02 -0.18675621002E+03 -0.66267502441E+02  0.19939029378E+03  0.00000000000E+00 0. -1.
         -1    1    3    3    0  502  0.18053221270E+02 -0.11816065994E+03  0.13190811097E+02  0.12025746486E+03  0.00000000000E+00 0.  1.
         11    1    5    5    0    0 -0.97714030237E+01  0.11183710913E+01  0.11631655074E+02  0.15232415130E+02  0.00000000000E+00 0.  1.
        -11    1    5    5    0    0  0.11266854847E+02 -0.21699200206E+03 -0.42070211336E+02  0.22131961878E+03  0.00000000000E+00 0. -1.
          2    1    6    6  503    0  0.23307083885E+02  0.27251774367E+03 -0.57149999679E+03  0.63357824071E+03  0.00000000000E+00 0. -1.
         -2    1    6    6    0  503 -0.20782574301E+02  0.24827275725E+03 -0.68800604633E+03  0.73172644969E+03  0.00000000000E+00 0.  1.
<mgrwt>
<rscale>  0 0.13742173E+04</rscale>
<asrwt>0</asrwt>
<pdfrwt beam="1">  1        2 0.25111736E+00 0.13742173E+04</pdfrwt>
<pdfrwt beam="2">  1       -1 0.44498708E-01 0.13742173E+04</pdfrwt>
<totfact> 0.59430575E+01</totfact>
</mgrwt>
</event>
<event>
12    6  0.1569942E-007  0.2159968E+04  0.7818608E-02  0.8535277E-01
          2   -1    0    0  501    0  0.00000000000E+00  0.00000000000E+00  0.36703254478E+04  0.36703254478E+04  0.00000000000E+00 0. -1.
         -1   -1    0    0    0  501 -0.00000000000E+00 -0.00000000000E+00 -0.31778269279E+03  0.31778269279E+03  0.00000000000E+00 0.  1.
         24    2    1    2    0    0  0.66224033808E+03  0.39901688142E+03  0.21891888954E+04  0.23231608465E+04  0.82167889517E+02 0.  0.
        254    2    1    2    0    0 -0.66224033808E+03 -0.39901688142E+03  0.11633538596E+04  0.16649472941E+04  0.90602458705E+03 0.  0.
         23    2    4    4    0    0 -0.31896923925E+03  0.23642144949E+03  0.67360635771E+03  0.78732983417E+03  0.92229416425E+02 0.  0.
         23    2    4    4    0    0 -0.34327109883E+03 -0.63543833091E+03  0.48974750192E+03  0.87761745992E+03  0.93503318895E+02 0.  0.
          4    1    3    3  502    0  0.57802220757E+03  0.32473880734E+03  0.19296307579E+04  0.20403528683E+04  0.00000000000E+00 0. -1.
         -3    1    3    3    0  502  0.84218130508E+02  0.74278074082E+02  0.25955813752E+03  0.28280797823E+03  0.00000000000E+00 0.  1.
         11    1    5    5    0    0 -0.39711314485E+02  0.29873411498E+02  0.15808561676E+03  0.16571201356E+03  0.00000000000E+00 0. -1.
        -11    1    5    5    0    0 -0.27925792476E+03  0.20654803799E+03  0.51552074095E+03  0.62161782061E+03  0.00000000000E+00 0.  1.
          1    1    6    6  503    0 -0.30560863836E+02 -0.86496799533E+02  0.98077462892E+02  0.13429389955E+03  0.00000000000E+00 0. -1.
         -1    1    6    6    0  503 -0.31271023500E+03 -0.54894153137E+03  0.39167003902E+03  0.74332356037E+03  0.00000000000E+00 0.  1.
<mgrwt>
<rscale>  0 0.21599684E+04</rscale>
<asrwt>0</asrwt>
<pdfrwt beam="1">  1        2 0.56466542E+00 0.21599684E+04</pdfrwt>
<pdfrwt beam="2">  1       -1 0.48889648E-01 0.21599684E+04</pdfrwt>
<totfact> 0.26969184E+00</totfact>
</mgrwt>
</event>
<event>
12    6  0.1569942E-007  0.1538177E+04  0.7818608E-02  0.8859455E-01
          2   -1    0    0  501    0  0.00000000000E+00  0.00000000000E+00  0.31534508991E+04  0.31534508991E+04  0.00000000000E+00 0. -1.
         -1   -1    0    0    0  501 -0.00000000000E+00 -0.00000000000E+00 -0.18757125835E+03  0.18757125835E+03  0.00000000000E+00 0.  1.
         24    2    1    2    0    0 -0.49822338792E+02 -0.39031507898E+03  0.30654586746E+03  0.50510425041E+03  0.79572662408E+02 0.  0.
        254    2    1    2    0    0  0.49822338792E+02  0.39031507898E+03  0.26593337733E+04  0.28359179071E+04  0.90307592781E+03 0.  0.
         23    2    4    4    0    0 -0.19588383292E+03  0.51333105588E+03  0.94419647749E+03  0.10964300952E+04  0.93662781765E+02 0.  0.
         23    2    4    4    0    0  0.24570617171E+03 -0.12301597689E+03  0.17151372958E+04  0.17394878118E+04  0.92830224712E+02 0.  0.
          4    1    3    3  502    0 -0.18615146591E+02 -0.13537989083E+02  0.22845475706E+02  0.32430180253E+02  0.00000000000E+00 0. -1.
         -3    1    3    3    0  502 -0.31207192201E+02 -0.37677708990E+03  0.28370039176E+03  0.47267407016E+03  0.00000000000E+00 0.  1.
         11    1    5    5    0    0 -0.73407461189E+01  0.15738864199E+02  0.70317553233E+01  0.18736167772E+02  0.00000000000E+00 0. -1.
        -11    1    5    5    0    0 -0.18854308680E+03  0.49759219168E+03  0.93716472217E+03  0.10776939275E+04  0.00000000000E+00 0.  1.
          3    1    6    6  503    0  0.10039177422E+03 -0.14507813165E+01  0.62336058839E+03  0.63139451713E+03  0.00000000000E+00 0. -1.
         -3    1    6    6    0  503  0.14531439749E+03 -0.12156519557E+03  0.10917767074E+04  0.11080932947E+04  0.00000000000E+00 0.  1.
<mgrwt>
<rscale>  0 0.15381765E+04</rscale>
<asrwt>0</asrwt>
<pdfrwt beam="1">  1        2 0.48514625E+00 0.15381765E+04</pdfrwt>
<pdfrwt beam="2">  1       -1 0.28857119E-01 0.15381765E+04</pdfrwt>
<totfact> 0.16802819E+01</totfact>
</mgrwt>
</event>
<event>
12    6  0.1569942E-007  0.1786501E+04  0.7818608E-02  0.8713511E-01
         -1   -1    0    0    0  501 -0.00000000000E+00  0.00000000000E+00  0.34422158379E+03  0.34422158379E+03  0.00000000000E+00 0.  1.
          2   -1    0    0  501    0  0.00000000000E+00 -0.00000000000E+00 -0.23179720930E+04  0.23179720930E+04  0.00000000000E+00 0. -1.
         24    2    1    2    0    0  0.28645955773E+02 -0.23860648655E+03 -0.16648759748E+04  0.16840523783E+04  0.80416137925E+02 0.  0.
        254    2    1    2    0    0 -0.28645955773E+02  0.23860648655E+03 -0.30887453438E+03  0.97814129845E+03  0.89643922021E+03 0.  0.
         23    2    4    4    0    0  0.25520785102E+03  0.11316350323E+03  0.21409025507E+03  0.36306762348E+03  0.89701929850E+02 0.  0.
         23    2    4    4    0    0 -0.28385380679E+03  0.12544298332E+03 -0.52296478945E+03  0.61507367497E+03  0.92274205206E+02 0.  0.
          4    1    3    3  502    0  0.53790573564E+02 -0.16399650660E+03 -0.10379277292E+04  0.10521797617E+04  0.00000000000E+00 0. -1.
         -3    1    3    3    0  502 -0.25144617790E+02 -0.74609979945E+02 -0.62694824564E+03  0.63187261661E+03  0.00000000000E+00 0.  1.
         11    1    5    5    0    0  0.14933392991E+03  0.10050252448E+03  0.17030124599E+03  0.24779809208E+03  0.00000000000E+00 0. -1.
        -11    1    5    5    0    0  0.10587392111E+03  0.12660978746E+02  0.43789009071E+02  0.11526953140E+03  0.00000000000E+00 0.  1.
          2    1    6    6  503    0 -0.72409581895E+02  0.11578635517E+01 -0.74349476711E+02  0.10378984963E+03  0.00000000000E+00 0.  1.
         -2    1    6    6    0  503 -0.21144422490E+03  0.12428511977E+03 -0.44861531274E+03  0.51128382535E+03  0.00000000000E+00 0. -1.
<mgrwt>
<rscale>  0 0.17865005E+04</rscale>
<asrwt>0</asrwt>
<pdfrwt beam="1">  1        2 0.35661108E+00 0.17865005E+04</pdfrwt>
<pdfrwt beam="2">  1       -1 0.52957169E-01 0.17865005E+04</pdfrwt>
<totfact> 0.17142901E+01</totfact>
</mgrwt>
</event>
<event>
12    6  0.1569942E-007  0.1186346E+04  0.7818608E-02  0.9124892E-01
          2   -1    0    0  501    0  0.00000000000E+00  0.00000000000E+00  0.93241370119E+03  0.93241370119E+03  0.00000000000E+00 0. -1.
         -1   -1    0    0    0  501 -0.00000000000E+00 -0.00000000000E+00 -0.37735854402E+03  0.37735854402E+03  0.00000000000E+00 0.  1.
         24    2    1    2    0    0 -0.21370004865E+03  0.37840106889E+02  0.21653387010E+03  0.31677192121E+03  0.79736746152E+02 0.  0.
        254    2    1    2    0    0  0.21370004865E+03 -0.37840106889E+02  0.33852128707E+03  0.99300032400E+03  0.90793909332E+03 0.  0.
         23    2    4    4    0    0 -0.28168956315E+03  0.24815973046E+02  0.38281644971E+03  0.48396858092E+03  0.87819762271E+02 0.  0.
         23    2    4    4    0    0  0.49538961180E+03 -0.62656079935E+02 -0.44295162641E+02  0.50903174308E+03  0.88400238674E+02 0.  0.
          4    1    3    3  502    0 -0.13882058178E+03 -0.14803787913E+02  0.13452997754E+03  0.19387785052E+03  0.00000000000E+00 0. -1.
         -3    1    3    3    0  502 -0.74879466865E+02  0.52643894802E+02  0.82003892552E+02  0.12289407069E+03  0.00000000000E+00 0.  1.
         11    1    5    5    0    0 -0.24596671851E+03 -0.99674162540E+01  0.31420234480E+03  0.39915171236E+03  0.00000000000E+00 0.  1.
        -11    1    5    5    0    0 -0.35722844643E+02  0.34783389300E+02  0.68614104907E+02  0.84816868562E+02  0.00000000000E+00 0. -1.
          2    1    6    6  503    0  0.70192994115E+02  0.15944946626E+02 -0.25006263667E+02  0.76201121832E+02  0.00000000000E+00 0. -1.
         -2    1    6    6    0  503  0.42519661768E+03 -0.78601026561E+02 -0.19288898974E+02  0.43283062124E+03  0.00000000000E+00 0.  1.
<mgrwt>
<rscale>  0 0.11863461E+04</rscale>
<asrwt>0</asrwt>
<pdfrwt beam="1">  1        2 0.14344826E+00 0.11863461E+04</pdfrwt>
<pdfrwt beam="2">  1       -1 0.58055161E-01 0.11863461E+04</pdfrwt>
<totfact> 0.94459484E+01</totfact>
</mgrwt>
</event>
<event>
12    6  0.1569942E-007  0.1291873E+04  0.7818608E-02  0.9036035E-01
         -1   -1    0    0    0  501 -0.00000000000E+00  0.00000000000E+00  0.46221934083E+03  0.46221934083E+03  0.00000000000E+00 0.  1.
          2   -1    0    0  501    0  0.00000000000E+00 -0.00000000000E+00 -0.90267496444E+03  0.90267496444E+03  0.00000000000E+00 0. -1.
         24    2    1    2    0    0  0.76188971736E+01 -0.20344182755E+03  0.18177550678E+03  0.28448086043E+03  0.80252104632E+02 0.  0.
        254    2    1    2    0    0 -0.76188971736E+01  0.20344182755E+03 -0.62223113038E+03  0.10804134448E+04  0.85946204534E+03 0.  0.
         23    2    4    4    0    0 -0.16135827730E+03  0.35835690553E+03 -0.71976686907E+03  0.82426587917E+03  0.83028479234E+02 0.  0.
         23    2    4    4    0    0  0.15373938013E+03 -0.15491507798E+03  0.97535738688E+02  0.25614756567E+03  0.91999329827E+02 0.  0.
          4    1    3    3  502    0 -0.19198383910E+02 -0.12737210545E+02  0.36853592935E+02  0.43462648210E+02  0.00000000000E+00 0. -1.
         -3    1    3    3    0  502  0.26817281084E+02 -0.19070461700E+03  0.14492191384E+03  0.24101821222E+03  0.00000000000E+00 0.  1.
         11    1    5    5    0    0 -0.13822182591E+03  0.32019488506E+03 -0.68118293978E+03  0.76527134732E+03  0.00000000000E+00 0. -1.
        -11    1    5    5    0    0 -0.23136451394E+02  0.38162020471E+02 -0.38583929286E+02  0.58994531853E+02  0.00000000000E+00 0.  1.
          3    1    6    6  503    0  0.96203662589E+02 -0.13723075658E+03  0.10131471610E+03  0.19583691415E+03  0.00000000000E+00 0. -1.
         -3    1    6    6    0  503  0.57535717538E+02 -0.17684321403E+02 -0.37789774091E+01  0.60310651517E+02  0.00000000000E+00 0.  1.
<mgrwt>
<rscale>  0 0.12918728E+04</rscale>
<asrwt>0</asrwt>
<pdfrwt beam="1">  1        2 0.13887307E+00 0.12918728E+04</pdfrwt>
<pdfrwt beam="2">  1       -1 0.71110668E-01 0.12918728E+04</pdfrwt>
<totfact> 0.65290675E+01</totfact>
</mgrwt>
</event>
<event>
12    6  0.1569942E-007  0.2037816E+04  0.7818608E-02  0.8589142E-01
          2   -1    0    0  501    0  0.00000000000E+00  0.00000000000E+00  0.23260197490E+04  0.23260197490E+04  0.00000000000E+00 0. -1.
         -1   -1    0    0    0  501 -0.00000000000E+00 -0.00000000000E+00 -0.44633060173E+03  0.44633060173E+03  0.00000000000E+00 0.  1.
         24    2    1    2    0    0 -0.26048703883E+03 -0.55735728821E+03  0.25473972405E+02  0.62056468981E+03  0.77142510026E+02 0.  0.
        254    2    1    2    0    0  0.26048703883E+03  0.55735728821E+03  0.18542151748E+04  0.21517856609E+04  0.90197947411E+03 0.  0.
         23    2    4    4    0    0 -0.10150011833E+03 -0.70147286737E+01  0.12078908014E+04  0.12156740507E+04  0.92259031561E+02 0.  0.
         23    2    4    4    0    0  0.36198715716E+03  0.56437201688E+03  0.64632437344E+03  0.93611161023E+03  0.94969867496E+02 0.  0.
          4    1    3    3  502    0 -0.11107429598E+03 -0.29508725794E+03  0.42968671035E+02  0.31821422928E+03  0.00000000000E+00 0. -1.
         -3    1    3    3    0  502 -0.14941274285E+03 -0.26227003027E+03 -0.17494698630E+02  0.30235046053E+03  0.00000000000E+00 0.  1.
         11    1    5    5    0    0 -0.31221345486E+02  0.88482026736E+01  0.84916365132E+03  0.84978348409E+03  0.00000000000E+00 0.  1.
        -11    1    5    5    0    0 -0.70278772841E+02 -0.15862931347E+02  0.35872715009E+03  0.36589056658E+03  0.00000000000E+00 0. -1.
          1    1    6    6  503    0  0.33571016094E+03  0.49845261267E+03  0.53791443148E+03  0.80654091951E+03  0.00000000000E+00 0. -1.
         -1    1    6    6    0  503  0.26276996213E+02  0.65919404208E+02  0.10840994195E+03  0.12957069073E+03  0.00000000000E+00 0.  1.
<mgrwt>
<rscale>  0 0.20378163E+04</rscale>
<asrwt>0</asrwt>
<pdfrwt beam="1">  1        2 0.35784918E+00 0.20378163E+04</pdfrwt>
<pdfrwt beam="2">  1       -1 0.68666248E-01 0.20378163E+04</pdfrwt>
<totfact> 0.99172532E+00</totfact>
</mgrwt>
</event>
<event>
12    6  0.1569942E-007  0.3647961E+04  0.7818608E-02  0.8079593E-01
          2   -1    0    0  501    0  0.00000000000E+00  0.00000000000E+00  0.20731739831E+04  0.20731739831E+04  0.00000000000E+00 0. -1.
         -1   -1    0    0    0  501 -0.00000000000E+00 -0.00000000000E+00 -0.16047400790E+04  0.16047400790E+04  0.00000000000E+00 0.  1.
         24    2    1    2    0    0 -0.76376313683E+03 -0.12423277806E+04  0.11205070285E+04  0.18408951895E+04  0.81527013903E+02 0.  0.
        254    2    1    2    0    0  0.76376313683E+03  0.12423277806E+04 -0.65207312442E+03  0.18370188726E+04  0.90704274164E+03 0.  0.
         23    2    4    4    0    0  0.92562903855E+03  0.12068384448E+04 -0.53348530994E+03  0.16146661726E+04  0.96395665236E+02 0.  0.
         23    2    4    4    0    0 -0.16186590172E+03  0.35489335837E+02 -0.11858781448E+03  0.22235270001E+03  0.88980842666E+02 0.  0.
          2    1    3    3  502    0 -0.33274803840E+03 -0.53415207974E+03  0.43308875244E+03  0.76394081501E+03  0.00000000000E+00 0. -1.
         -1    1    3    3    0  502 -0.43101509843E+03 -0.70817570085E+03  0.68741827608E+03  0.10769543744E+04  0.00000000000E+00 0.  1.
         11    1    5    5    0    0  0.50628697176E+02  0.91798279632E+02 -0.17437267680E+02  0.10627439685E+03  0.00000000000E+00 0. -1.
        -11    1    5    5    0    0  0.87500034138E+03  0.11150401651E+04 -0.51604804226E+03  0.15083917758E+04  0.00000000000E+00 0.  1.
          3    1    6    6  503    0 -0.10203581172E+02 -0.88451272722E+01  0.11457658220E+02  0.17709525038E+02  0.00000000000E+00 0. -1.
         -3    1    6    6    0  503 -0.15166232055E+03  0.44334463109E+02 -0.13004547270E+03  0.20464317498E+03  0.00000000000E+00 0.  1.
<mgrwt>
<rscale>  0 0.36479613E+04</rscale>
<asrwt>0</asrwt>
<pdfrwt beam="1">  1        2 0.31894984E+00 0.36479613E+04</pdfrwt>
<pdfrwt beam="2">  1       -1 0.24688309E+00 0.36479613E+04</pdfrwt>
<totfact> 0.41038600E-01</totfact>
</mgrwt>
</event>
<event>
12    6  0.1569942E-007  0.1516218E+04  0.7818608E-02  0.8873740E-01
          2   -1    0    0  501    0  0.00000000000E+00  0.00000000000E+00  0.10771057185E+04  0.10771057185E+04  0.00000000000E+00 0. -1.
         -1   -1    0    0    0  501 -0.00000000000E+00 -0.00000000000E+00 -0.53358634381E+03  0.53358634381E+03  0.00000000000E+00 0.  1.
         24    2    1    2    0    0  0.76233881870E+02  0.10320595274E+03 -0.31464370948E+03  0.34931511902E+03  0.80977250113E+02 0.  0.
        254    2    1    2    0    0 -0.76233881870E+02 -0.10320595274E+03  0.85816308413E+03  0.12613769433E+04  0.91551343005E+03 0.  0.
         23    2    4    4    0    0 -0.40697169464E+03 -0.12947146497E+03  0.80106070192E+03  0.91234991365E+03  0.91078517218E+02 0.  0.
         23    2    4    4    0    0  0.33073781277E+03  0.26265512231E+02  0.57102382215E+02  0.34902702962E+03  0.92096728624E+02 0.  0.
          4    1    3    3  502    0 -0.11868870452E+02  0.34343984033E+02 -0.11354754611E+03  0.11922006774E+03  0.00000000000E+00 0. -1.
         -3    1    3    3    0  502  0.88102752321E+02  0.68861968703E+02 -0.20109616337E+03  0.23009505128E+03  0.00000000000E+00 0.  1.
         11    1    5    5    0    0 -0.63104567188E+02  0.34667674880E+01  0.75203059322E+02  0.98232912042E+02  0.00000000000E+00 0. -1.
        -11    1    5    5    0    0 -0.34386712745E+03 -0.13293823245E+03  0.72585764260E+03  0.81411700160E+03  0.00000000000E+00 0.  1.
          3    1    6    6  503    0  0.11392636675E+02 -0.16504166509E+02  0.12819412665E+02  0.23801618089E+02  0.00000000000E+00 0. -1.
         -3    1    6    6    0  503  0.31934517609E+03  0.42769678740E+02  0.44282969550E+02  0.32522541153E+03  0.00000000000E+00 0.  1.
<mgrwt>
<rscale>  0 0.15162175E+04</rscale>
<asrwt>0</asrwt>
<pdfrwt beam="1">  1        2 0.16570857E+00 0.15162175E+04</pdfrwt>
<pdfrwt beam="2">  1       -1 0.82090207E-01 0.15162175E+04</pdfrwt>
<totfact> 0.36582473E+01</totfact>
</mgrwt>
</event>
<event>
12    6  0.1569942E-007  0.1790159E+04  0.7818608E-02  0.8711550E-01
         -1   -1    0    0    0  501 -0.00000000000E+00  0.00000000000E+00  0.10699600034E+04  0.10699600034E+04  0.00000000000E+00 0.  1.
          2   -1    0    0  501    0  0.00000000000E+00 -0.00000000000E+00 -0.74878261937E+03  0.74878261937E+03  0.00000000000E+00 0. -1.
         24    2    1    2    0    0 -0.27127495322E+02  0.63621400789E+03  0.32761722044E+03  0.72048797282E+03  0.79156244261E+02 0.  0.
        254    2    1    2    0    0  0.27127495322E+02 -0.63621400789E+03 -0.64398363669E+01  0.10982546500E+04  0.89477239559E+03 0.  0.
         23    2    4    4    0    0 -0.39803620554E+03 -0.28545653698E+03 -0.15230486110E+03  0.52093307215E+03  0.90863851580E+02 0.  0.
         23    2    4    4    0    0  0.42516370086E+03 -0.35075747092E+03  0.14586502473E+03  0.57732157784E+03  0.90711757058E+02 0.  0.
          2    1    3    3  502    0 -0.16861858106E+02  0.62429760199E+03  0.31124924179E+03  0.69778786793E+03  0.00000000000E+00 0. -1.
         -1    1    3    3    0  502 -0.10265637216E+02  0.11916405903E+02  0.16367978648E+02  0.22700104892E+02  0.00000000000E+00 0.  1.
         11    1    5    5    0    0 -0.85827933552E+01 -0.32511138205E+02 -0.13632125387E+02  0.36283237063E+02  0.00000000000E+00 0.  1.
        -11    1    5    5    0    0 -0.38945341219E+03 -0.25294539877E+03 -0.13867273571E+03  0.48464983509E+03  0.00000000000E+00 0. -1.
          1    1    6    6  503    0  0.26580291160E+03 -0.24716423719E+03  0.56661225590E+02  0.36735792144E+03  0.00000000000E+00 0. -1.
         -1    1    6    6    0  503  0.15936078927E+03 -0.10359323373E+03  0.89203799143E+02  0.20996365641E+03  0.00000000000E+00 0.  1.
<mgrwt>
<rscale>  0 0.17901592E+04</rscale>
<asrwt>0</asrwt>
<pdfrwt beam="1">  1        2 0.11519733E+00 0.17901592E+04</pdfrwt>
<pdfrwt beam="2">  1       -1 0.16460923E+00 0.17901592E+04</pdfrwt>
<totfact> 0.10936114E+01</totfact>
</mgrwt>
</event>
<event>
12    6  0.1569942E-007  0.1528445E+04  0.7818608E-02  0.8865754E-01
         -1   -1    0    0    0  501 -0.00000000000E+00  0.00000000000E+00  0.35217520958E+03  0.35217520958E+03  0.00000000000E+00 0.  1.
          2   -1    0    0  501    0  0.00000000000E+00 -0.00000000000E+00 -0.16583687114E+04  0.16583687114E+04  0.00000000000E+00 0. -1.
         24    2    1    2    0    0  0.15065185219E+02 -0.10069135473E+03  0.20585138590E+03  0.24328202333E+03  0.80284749954E+02 0.  0.
        254    2    1    2    0    0 -0.15065185219E+02  0.10069135473E+03 -0.15120448877E+04  0.17672618976E+04  0.90915849203E+03 0.  0.
         23    2    4    4    0    0  0.29058781278E+03  0.36976923699E+03 -0.97114814317E+03  0.10830120970E+04  0.92821983388E+02 0.  0.
         23    2    4    4    0    0 -0.30565299800E+03 -0.26907788225E+03 -0.54089674452E+03  0.68424980066E+03  0.99004240140E+02 0.  0.
          2    1    3    3  502    0  0.21276632284E+02 -0.76149411785E+02  0.71609839504E+02  0.10667425702E+03  0.00000000000E+00 0. -1.
         -1    1    3    3    0  502 -0.62114470648E+01 -0.24541942950E+02  0.13424154639E+03  0.13660776631E+03  0.00000000000E+00 0.  1.
         11    1    5    5    0    0  0.12775930711E+03  0.10918441158E+03 -0.41276676921E+03  0.44566812995E+03  0.00000000000E+00 0. -1.
        -11    1    5    5    0    0  0.16282850568E+03  0.26058482541E+03 -0.55838137396E+03  0.63734396700E+03  0.00000000000E+00 0.  1.
          3    1    6    6  503    0 -0.22792308018E+03 -0.15188529031E+03 -0.40322931756E+03  0.48745456653E+03  0.00000000000E+00 0. -1.
         -3    1    6    6    0  503 -0.77729917823E+02 -0.11719259194E+03 -0.13766742696E+03  0.19679523413E+03  0.00000000000E+00 0.  1.
<mgrwt>
<rscale>  0 0.15284454E+04</rscale>
<asrwt>0</asrwt>
<pdfrwt beam="1">  1        2 0.25513365E+00 0.15284454E+04</pdfrwt>
<pdfrwt beam="2">  1       -1 0.54180802E-01 0.15284454E+04</pdfrwt>
<totfact> 0.39084670E+01</totfact>
</mgrwt>
</event>
<event>
12    6  0.1569942E-007  0.2854870E+04  0.7818608E-02  0.8286433E-01
         -1   -1    0    0    0  501 -0.00000000000E+00  0.00000000000E+00  0.12260724806E+04  0.12260724806E+04  0.00000000000E+00 0.  1.
          2   -1    0    0  501    0  0.00000000000E+00 -0.00000000000E+00 -0.16618681105E+04  0.16618681105E+04  0.00000000000E+00 0. -1.
         24    2    1    2    0    0 -0.53577992742E+03 -0.90036522391E+03 -0.94567910535E+03  0.14138094419E+04  0.82646843724E+02 0.  0.
        254    2    1    2    0    0  0.53577992742E+03  0.90036522391E+03  0.50988347551E+03  0.14741311491E+04  0.90297498258E+03 0.  0.
         23    2    4    4    0    0 -0.11608156281E+03  0.53429452700E+02 -0.14654962854E+03  0.21632579210E+03  0.94817820385E+02 0.  0.
         23    2    4    4    0    0  0.65186149024E+03  0.84693577121E+03  0.65643310405E+03  0.12578053570E+04  0.94584845869E+02 0.  0.
          4    1    3    3  502    0 -0.47900243034E+03 -0.83727088231E+03 -0.84749633857E+03  0.12840233263E+04  0.00000000000E+00 0. -1.
         -3    1    3    3    0  502 -0.56777497083E+02 -0.63094341600E+02 -0.98182766780E+02  0.12978611563E+03  0.00000000000E+00 0.  1.
         11    1    5    5    0    0 -0.81108923161E+02  0.46275459303E+02 -0.35872787423E+02  0.10003465613E+03  0.00000000000E+00 0. -1.
        -11    1    5    5    0    0 -0.34972639652E+02  0.71539933968E+01 -0.11067684111E+03  0.11629113597E+03  0.00000000000E+00 0.  1.
          3    1    6    6  503    0  0.84204100641E+02  0.70427232153E+02  0.86514374858E+02  0.13976788848E+03  0.00000000000E+00 0. -1.
         -3    1    6    6    0  503  0.56765738959E+03  0.77650853906E+03  0.56991872919E+03  0.11180374685E+04  0.00000000000E+00 0.  1.
<mgrwt>
<rscale>  0 0.28548701E+04</rscale>
<asrwt>0</asrwt>
<pdfrwt beam="1">  1        2 0.25567202E+00 0.28548701E+04</pdfrwt>
<pdfrwt beam="2">  1       -1 0.18862654E+00 0.28548701E+04</pdfrwt>
<totfact> 0.18349586E+00</totfact>
</mgrwt>
</event>
<event>
12    6  0.1569942E-007  0.1588115E+04  0.7818608E-02  0.8827883E-01
          2   -1    0    0  501    0  0.00000000000E+00  0.00000000000E+00  0.17533565038E+04  0.17533565038E+04  0.00000000000E+00 0. -1.
         -1   -1    0    0    0  501 -0.00000000000E+00 -0.00000000000E+00 -0.35961152087E+03  0.35961152087E+03  0.00000000000E+00 0.  1.
         24    2    1    2    0    0 -0.47914403820E+03  0.13775125730E+03  0.20617464279E+03  0.54557844677E+03  0.81200000114E+02 0.  0.
        254    2    1    2    0    0  0.47914403820E+03 -0.13775125730E+03  0.11875703401E+04  0.15673895779E+04  0.89321462028E+03 0.  0.
         23    2    4    4    0    0  0.38650399502E+03 -0.28128188403E+03  0.12675899181E+04  0.13579065689E+04  0.92850487975E+02 0.  0.
         23    2    4    4    0    0  0.92640043182E+02  0.14353062673E+03 -0.80019577982E+02  0.20948300892E+03  0.91086660682E+02 0.  0.
          2    1    3    3  502    0 -0.25775663131E+03  0.35604735949E+02  0.12441959725E+03  0.28842055125E+03  0.00000000000E+00 0. -1.
         -3    1    3    3    0  502 -0.22138740690E+03  0.10214652135E+03  0.81755045535E+02  0.25715789552E+03  0.00000000000E+00 0.  1.
         11    1    5    5    0    0  0.12045412643E+03 -0.12963246576E+03  0.38560700989E+03  0.42427177473E+03  0.00000000000E+00 0. -1.
        -11    1    5    5    0    0  0.26604986859E+03 -0.15164941827E+03  0.88198290819E+03  0.93363479422E+03  0.00000000000E+00 0.  1.
          3    1    6    6  503    0 -0.14850562504E+01  0.74470813054E+01  0.16331279935E+02  0.18010416884E+02  0.00000000000E+00 0. -1.
         -3    1    6    6    0  503  0.94125099433E+02  0.13608354542E+03 -0.96350857917E+02  0.19147259203E+03  0.00000000000E+00 0.  1.
<mgrwt>
<rscale>  0 0.15881149E+04</rscale>
<asrwt>0</asrwt>
<pdfrwt beam="1">  1        2 0.26974715E+00 0.15881149E+04</pdfrwt>
<pdfrwt beam="2">  1       -1 0.55324850E-01 0.15881149E+04</pdfrwt>
<totfact> 0.33077412E+01</totfact>
</mgrwt>
</event>
<event>
12    6  0.1569942E-007  0.1514123E+04  0.7818608E-02  0.8875115E-01
          2   -1    0    0  501    0  0.00000000000E+00  0.00000000000E+00  0.16076008123E+04  0.16076008123E+04  0.00000000000E+00 0. -1.
         -1   -1    0    0    0  501 -0.00000000000E+00 -0.00000000000E+00 -0.35652034941E+03  0.35652034941E+03  0.00000000000E+00 0.  1.
         24    2    1    2    0    0  0.24112009441E+03 -0.53906245079E+02 -0.13254979230E+03  0.28937084250E+03  0.71562936382E+02 0.  0.
        254    2    1    2    0    0 -0.24112009441E+03  0.53906245079E+02  0.13836302552E+04  0.16747503193E+04  0.91066523238E+03 0.  0.
         23    2    4    4    0    0  0.16850091930E+03  0.26715561085E+03  0.16273679686E+03  0.36618264553E+03  0.88553851541E+02 0.  0.
         23    2    4    4    0    0 -0.40962101370E+03 -0.21324936577E+03  0.12208934584E+04  0.13085676737E+04  0.92216338822E+02 0.  0.
          2    1    3    3  502    0  0.75953596401E+01 -0.16492716311E+02 -0.21358833035E+02  0.28033888920E+02  0.00000000000E+00 0. -1.
         -1    1    3    3    0  502  0.23352473477E+03 -0.37413528768E+02 -0.11119095926E+03  0.26133695358E+03  0.00000000000E+00 0.  1.
         11    1    5    5    0    0  0.57799739173E+01  0.74639982439E+02  0.50158829414E+02  0.90113502014E+02  0.00000000000E+00 0.  1.
        -11    1    5    5    0    0  0.16272094538E+03  0.19251562841E+03  0.11257796745E+03  0.27606914352E+03  0.00000000000E+00 0. -1.
          1    1    6    6  503    0 -0.36569533309E+03 -0.21429095308E+03  0.11441480470E+04  0.12201346002E+04  0.00000000000E+00 0. -1.
         -1    1    6    6    0  503 -0.43925680615E+02  0.10415873097E+01  0.76745411397E+02  0.88433073519E+02  0.00000000000E+00 0.  1.
<mgrwt>
<rscale>  0 0.15141234E+04</rscale>
<asrwt>0</asrwt>
<pdfrwt beam="1">  1        2 0.24732320E+00 0.15141234E+04</pdfrwt>
<pdfrwt beam="2">  1       -1 0.54849286E-01 0.15141234E+04</pdfrwt>
<totfact> 0.40787346E+01</totfact>
</mgrwt>
</event>
<event>
12    6  0.1607780E-007  0.1565785E+04  0.7818608E-02  0.8841848E-01
          2   -1    0    0  501    0  0.00000000000E+00  0.00000000000E+00  0.11528309151E+04  0.11528309151E+04  0.00000000000E+00 0. -1.
         -1   -1    0    0    0  501 -0.00000000000E+00 -0.00000000000E+00 -0.53166551149E+03  0.53166551149E+03  0.00000000000E+00 0.  1.
         24    2    1    2    0    0 -0.44602419534E+03 -0.10944714859E+03 -0.54275695823E+02  0.46999950359E+03  0.83889338173E+02 0.  0.
        254    2    1    2    0    0  0.44602419534E+03  0.10944714859E+03  0.67544109940E+03  0.12144969230E+04  0.89881357131E+03 0.  0.
         23    2    4    4    0    0  0.50967376410E+03  0.42781560054E+03  0.45584379384E+03  0.81174923455E+03  0.91376810674E+02 0.  0.
         23    2    4    4    0    0 -0.63649568755E+02 -0.31836845196E+03  0.21959730556E+03  0.40274768842E+03  0.92590415876E+02 0.  0.
          4    1    3    3  502    0 -0.40712461633E+01  0.33813778368E+01 -0.10521830826E+02  0.11777847228E+02  0.00000000000E+00 0. -1.
         -3    1    3    3    0  502 -0.44195294918E+03 -0.11282852642E+03 -0.43753864998E+02  0.45822165637E+03  0.00000000000E+00 0.  1.
         11    1    5    5    0    0  0.10294807302E+02  0.10655144383E+02 -0.35418028753E+01  0.15233500150E+02  0.00000000000E+00 0.  1.
        -11    1    5    5    0    0  0.49937895679E+03  0.41716045616E+03  0.45938559672E+03  0.79651573440E+03  0.00000000000E+00 0. -1.
          4    1    6    6  503    0 -0.30819484024E+02 -0.26118931782E+03  0.13540756688E+03  0.29581228762E+03  0.00000000000E+00 0. -1.
         -4    1    6    6    0  503 -0.32830084731E+02 -0.57179134135E+02  0.84189738686E+02  0.10693540080E+03  0.00000000000E+00 0.  1.
<mgrwt>
<rscale>  0 0.15657847E+04</rscale>
<asrwt>0</asrwt>
<pdfrwt beam="1">  1        2 0.17735860E+00 0.15657847E+04</pdfrwt>
<pdfrwt beam="2">  1       -1 0.81794694E-01 0.15657847E+04</pdfrwt>
<totfact> 0.32987344E+01</totfact>
</mgrwt>
</event>
<event>
12    6  0.1569942E-007  0.1221404E+04  0.7818608E-02  0.9094325E-01
         -1   -1    0    0    0  501 -0.00000000000E+00  0.00000000000E+00  0.23725084481E+03  0.23725084481E+03  0.00000000000E+00 0.  1.
          2   -1    0    0  501    0  0.00000000000E+00 -0.00000000000E+00 -0.15719944722E+04  0.15719944722E+04  0.00000000000E+00 0. -1.
         24    2    1    2    0    0  0.13227132848E+03 -0.22213827051E+03 -0.17395326895E+03  0.32131276604E+03  0.78364777041E+02 0.  0.
        254    2    1    2    0    0 -0.13227132848E+03  0.22213827051E+03 -0.11607903585E+04  0.14879325510E+04  0.89424152466E+03 0.  0.
         23    2    4    4    0    0 -0.44382246422E+03  0.34888010240E+03 -0.83040543559E+03  0.10081482315E+04  0.89966458803E+02 0.  0.
         23    2    4    4    0    0  0.31155113574E+03 -0.12674183189E+03 -0.33038492288E+03  0.47978431945E+03  0.88944891862E+02 0.  0.
          4    1    3    3  502    0  0.48307174396E+02 -0.22063239890E+02 -0.37046533808E+02  0.64751952246E+02  0.00000000000E+00 0. -1.
         -3    1    3    3    0  502  0.83964154083E+02 -0.20007503062E+03 -0.13690673514E+03  0.25656081379E+03  0.00000000000E+00 0.  1.
         11    1    5    5    0    0 -0.36261065298E+03  0.29977413387E+03 -0.74113402855E+03  0.87785572007E+03  0.00000000000E+00 0.  1.
        -11    1    5    5    0    0 -0.81211811241E+02  0.49105968526E+02 -0.89271407042E+02  0.13029251147E+03  0.00000000000E+00 0. -1.
          4    1    6    6  503    0  0.12423795249E+03 -0.94697369708E+02 -0.17249448145E+03  0.23271658041E+03  0.00000000000E+00 0. -1.
         -4    1    6    6    0  503  0.18731318325E+03 -0.32044462181E+02 -0.15789044143E+03  0.24706773904E+03  0.00000000000E+00 0.  1.
<mgrwt>
<rscale>  0 0.12214041E+04</rscale>
<asrwt>0</asrwt>
<pdfrwt beam="1">  1        2 0.24184530E+00 0.12214041E+04</pdfrwt>
<pdfrwt beam="2">  1       -1 0.36500131E-01 0.12214041E+04</pdfrwt>
<totfact> 0.93363137E+01</totfact>
</mgrwt>
</event>
<event>
12    6  0.1569942E-007  0.2229502E+04  0.7818608E-02  0.8506248E-01
         -1   -1    0    0    0  501 -0.00000000000E+00  0.00000000000E+00  0.18513906175E+04  0.18513906175E+04  0.00000000000E+00 0.  1.
          2   -1    0    0  501    0  0.00000000000E+00 -0.00000000000E+00 -0.67120914120E+03  0.67120914120E+03  0.00000000000E+00 0. -1.
         24    2    1    2    0    0 -0.15905475715E+03  0.43321648127E+03 -0.42031201532E+03  0.62977484459E+03  0.83541781380E+02 0.  0.
        254    2    1    2    0    0  0.15905475715E+03 -0.43321648127E+03  0.16004934916E+04  0.18928249141E+04  0.89901713184E+03 0.  0.
         23    2    4    4    0    0 -0.23758532120E+03 -0.16395019413E+03  0.10651797743E+03  0.32106257139E+03  0.91698659876E+02 0.  0.
         23    2    4    4    0    0  0.39664007835E+03 -0.26926628714E+03  0.14939755142E+04  0.15717623427E+04  0.92985697096E+02 0.  0.
          4    1    3    3  502    0 -0.60067441901E+02  0.11136670187E+03 -0.73245278191E+02  0.14620366151E+03  0.00000000000E+00 0. -1.
         -1    1    3    3    0  502 -0.98987315251E+02  0.32184977940E+03 -0.34706673713E+03  0.48357118308E+03  0.00000000000E+00 0.  1.
         11    1    5    5    0    0 -0.25943839004E+01  0.35315372961E+01  0.19025323028E+02  0.19523460242E+02  0.00000000000E+00 0. -1.
        -11    1    5    5    0    0 -0.23499093730E+03 -0.16748173143E+03  0.87492654406E+02  0.30153911114E+03  0.00000000000E+00 0.  1.
          3    1    6    6  503    0  0.60338104349E+02 -0.63545918425E+01  0.15813498599E+03  0.16937455968E+03  0.00000000000E+00 0. -1.
         -3    1    6    6    0  503  0.33630197400E+03 -0.26291169530E+03  0.13358405282E+04  0.14023877831E+04  0.00000000000E+00 0.  1.
<mgrwt>
<rscale>  0 0.22295025E+04</rscale>
<asrwt>0</asrwt>
<pdfrwt beam="1">  1        2 0.10326295E+00 0.22295025E+04</pdfrwt>
<pdfrwt beam="2">  1       -1 0.28482932E+00 0.22295025E+04</pdfrwt>
<totfact> 0.18622128E+00</totfact>
</mgrwt>
</event>
<event>
12    6  0.1569942E-007  0.2149528E+04  0.7818608E-02  0.8539734E-01
         -1   -1    0    0    0  501 -0.00000000000E+00  0.00000000000E+00  0.15335082606E+04  0.15335082606E+04  0.00000000000E+00 0.  1.
          2   -1    0    0  501    0  0.00000000000E+00 -0.00000000000E+00 -0.75325199005E+03  0.75325199005E+03  0.00000000000E+00 0. -1.
         24    2    1    2    0    0 -0.98879106242E+02 -0.33951306697E+03  0.11819978479E+04  0.12369472174E+04  0.88731650721E+02 0.  0.
        254    2    1    2    0    0  0.98879106242E+02  0.33951306697E+03 -0.40174157736E+03  0.10498130333E+04  0.90314168851E+03 0.  0.
         23    2    4    4    0    0  0.59235926700E+02  0.52116392755E+03 -0.57206241824E+03  0.78080741334E+03  0.85346774842E+02 0.  0.
         23    2    4    4    0    0  0.39643179542E+02 -0.18165086057E+03  0.17032084088E+03  0.26900561992E+03  0.93734827482E+02 0.  0.
          4    1    3    3  502    0  0.10457916837E+02 -0.95919927906E+02  0.27322748588E+03  0.28976414484E+03  0.00000000000E+00 0. -1.
         -3    1    3    3    0  502 -0.10933702308E+03 -0.24359313907E+03  0.90877036201E+03  0.94718307252E+03  0.00000000000E+00 0.  1.
         11    1    5    5    0    0  0.97381747926E+01  0.13043444856E+03 -0.92281338326E+02  0.16007442901E+03  0.00000000000E+00 0.  1.
        -11    1    5    5    0    0  0.49497751908E+02  0.39072947899E+03 -0.47978107991E+03  0.62073298433E+03  0.00000000000E+00 0. -1.
          2    1    6    6  503    0 -0.51703738715E+01 -0.15309538996E+03  0.10981723279E+03  0.18848012047E+03  0.00000000000E+00 0. -1.
         -2    1    6    6    0  503  0.44813553413E+02 -0.28555470610E+02  0.60503608087E+02  0.80525499457E+02  0.00000000000E+00 0.  1.
<mgrwt>
<rscale>  0 0.21495285E+04</rscale>
<asrwt>0</asrwt>
<pdfrwt beam="1">  1        2 0.11588492E+00 0.21495285E+04</pdfrwt>
<pdfrwt beam="2">  1       -1 0.23592435E+00 0.21495285E+04</pdfrwt>
<totfact> 0.33681754E+00</totfact>
</mgrwt>
</event>
<event>
12    6  0.1569942E-007  0.2539211E+04  0.7818608E-02  0.8389148E-01
         -1   -1    0    0    0  501 -0.00000000000E+00  0.00000000000E+00  0.70452078746E+03  0.70452078746E+03  0.00000000000E+00 0.  1.
          2   -1    0    0  501    0  0.00000000000E+00 -0.00000000000E+00 -0.22879347748E+04  0.22879347748E+04  0.00000000000E+00 0. -1.
         24    2    1    2    0    0  0.27819384701E+03 -0.80991983270E+03  0.13614182279E+03  0.87075652355E+03  0.79500789227E+02 0.  0.
        254    2    1    2    0    0 -0.27819384701E+03  0.80991983270E+03 -0.17195558101E+04  0.21216990387E+04  0.90076227428E+03 0.  0.
         23    2    4    4    0    0  0.12890380002E+03  0.47841284687E+03 -0.25590681256E+03  0.56405328092E+03  0.84692179675E+02 0.  0.
         23    2    4    4    0    0 -0.40709764703E+03  0.33150698583E+03 -0.14636489976E+04  0.15576457578E+04  0.91468807556E+02 0.  0.
          4    1    3    3  502    0  0.31751371293E+02 -0.14880998605E+03  0.48951857669E+02  0.15984006349E+03  0.00000000000E+00 0. -1.
         -3    1    3    3    0  502  0.24644247571E+03 -0.66110984664E+03  0.87189965118E+02  0.71091646006E+03  0.00000000000E+00 0.  1.
         11    1    5    5    0    0 -0.28623935687E+00  0.34267402605E+02 -0.42637039766E+02  0.54701498830E+02  0.00000000000E+00 0. -1.
        -11    1    5    5    0    0  0.12919003938E+03  0.44414544426E+03 -0.21326977279E+03  0.50935178209E+03  0.00000000000E+00 0.  1.
          1    1    6    6  503    0 -0.24657843887E+03  0.14353140617E+03 -0.81466384960E+03  0.86317980683E+03  0.00000000000E+00 0. -1.
         -1    1    6    6    0  503 -0.16051920816E+03  0.18797557966E+03 -0.64898514799E+03  0.69446595096E+03  0.00000000000E+00 0.  1.
<mgrwt>
<rscale>  0 0.25392106E+04</rscale>
<asrwt>0</asrwt>
<pdfrwt beam="1">  1        2 0.35198996E+00 0.25392106E+04</pdfrwt>
<pdfrwt beam="2">  1       -1 0.10838781E+00 0.25392106E+04</pdfrwt>
<totfact> 0.36798510E+00</totfact>
</mgrwt>
</event>
<event>
12    6  0.1569942E-007  0.1760051E+04  0.7818608E-02  0.8727837E-01
          2   -1    0    0  501    0  0.00000000000E+00  0.00000000000E+00  0.34392813286E+04  0.34392813286E+04  0.00000000000E+00 0. -1.
         -1   -1    0    0    0  501 -0.00000000000E+00 -0.00000000000E+00 -0.22517627154E+03  0.22517627154E+03  0.00000000000E+00 0.  1.
         24    2    1    2    0    0  0.44795971599E+03 -0.30911867758E+03  0.19088253991E+04  0.19865104287E+04  0.79918804994E+02 0.  0.
        254    2    1    2    0    0 -0.44795971599E+03  0.30911867758E+03  0.13052796580E+04  0.16779471714E+04  0.90306669771E+03 0.  0.
         23    2    4    4    0    0 -0.56328173013E+03 -0.71635710995E+02  0.10478002128E+04  0.11953349511E+04  0.92316719508E+02 0.  0.
         23    2    4    4    0    0  0.11532201414E+03  0.38075438858E+03  0.25747944519E+03  0.48261222035E+03  0.91355455050E+02 0.  0.
          2    1    3    3  502    0  0.39434623560E+03 -0.24151235732E+03  0.16568436315E+04  0.17201651059E+04  0.00000000000E+00 0. -1.
         -1    1    3    3    0  502  0.53613480383E+02 -0.67606320267E+02  0.25198176754E+03  0.26634532282E+03  0.00000000000E+00 0.  1.
         11    1    5    5    0    0 -0.47623767773E+03 -0.91343006912E+02  0.85662037379E+03  0.98434970178E+03  0.00000000000E+00 0. -1.
        -11    1    5    5    0    0 -0.87044052393E+02  0.19707295918E+02  0.19117983905E+03  0.21098524931E+03  0.00000000000E+00 0.  1.
          3    1    6    6  503    0  0.11726992482E+03  0.35156398526E+03  0.26079371485E+03  0.45316976146E+03  0.00000000000E+00 0. -1.
         -3    1    6    6    0  503 -0.19479106767E+01  0.29190403317E+02 -0.33142696605E+01  0.29442458885E+02  0.00000000000E+00 0.  1.
<mgrwt>
<rscale>  0 0.17600506E+04</rscale>
<asrwt>0</asrwt>
<pdfrwt beam="1">  1        2 0.52912017E+00 0.17600506E+04</pdfrwt>
<pdfrwt beam="2">  1       -1 0.34642506E-01 0.17600506E+04</pdfrwt>
<totfact> 0.76989762E+00</totfact>
</mgrwt>
</event>
<event>
12    6  0.1569942E-007  0.2259220E+04  0.7818608E-02  0.8494176E-01
         -1   -1    0    0    0  501 -0.00000000000E+00  0.00000000000E+00  0.86325413996E+03  0.86325413996E+03  0.00000000000E+00 0.  1.
          2   -1    0    0  501    0  0.00000000000E+00 -0.00000000000E+00 -0.14781497697E+04  0.14781497697E+04  0.00000000000E+00 0. -1.
         24    2    1    2    0    0 -0.73753658815E+02 -0.28319639713E+03 -0.11184894439E+04  0.11589391564E+04  0.80507953223E+02 0.  0.
        254    2    1    2    0    0  0.73753658815E+02  0.28319639713E+03  0.50359381409E+03  0.11824647533E+04  0.10290657714E+04 0.  0.
         23    2    4    4    0    0 -0.35818710265E+03  0.32752384493E+03 -0.22189936761E+02  0.49486205823E+03  0.93947825301E+02 0.  0.
         23    2    4    4    0    0  0.43194076147E+03 -0.44327447795E+02  0.52578375085E+03  0.68760269511E+03  0.88380821562E+02 0.  0.
          2    1    3    3  502    0 -0.16730996712E+02 -0.20544554102E+03 -0.71758945487E+03  0.74660727448E+03  0.00000000000E+00 0. -1.
         -1    1    3    3    0  502 -0.57022662104E+02 -0.77750856115E+02 -0.40089998902E+03  0.41233188188E+03  0.00000000000E+00 0.  1.
         11    1    5    5    0    0 -0.96085800986E+02  0.11123470820E+03  0.32845467968E+02  0.15061363227E+03  0.00000000000E+00 0. -1.
        -11    1    5    5    0    0 -0.26210130167E+03  0.21628913672E+03 -0.55035404729E+02  0.34424842596E+03  0.00000000000E+00 0.  1.
          1    1    6    6  503    0  0.61732875401E+02 -0.67768805644E+01  0.33673934459E+02  0.70645650096E+02  0.00000000000E+00 0. -1.
         -1    1    6    6    0  503  0.37020788607E+03 -0.37550567231E+02  0.49210981639E+03  0.61695704502E+03  0.00000000000E+00 0.  1.
<mgrwt>
<rscale>  0 0.22592201E+04</rscale>
<asrwt>0</asrwt>
<pdfrwt beam="1">  1        2 0.22740765E+00 0.22592201E+04</pdfrwt>
<pdfrwt beam="2">  1       -1 0.13280833E+00 0.22592201E+04</pdfrwt>
<totfact> 0.65014313E+00</totfact>
</mgrwt>
</event>
<event>
12    6  0.1569942E-007  0.1648416E+04  0.7818608E-02  0.8791344E-01
          2   -1    0    0  501    0  0.00000000000E+00  0.00000000000E+00  0.11705810513E+04  0.11705810513E+04  0.00000000000E+00 0. -1.
         -1   -1    0    0    0  501 -0.00000000000E+00 -0.00000000000E+00 -0.58032646316E+03  0.58032646316E+03  0.00000000000E+00 0.  1.
         24    2    1    2    0    0  0.26249303263E+03 -0.29241362728E+03 -0.24181879867E+03  0.46826077381E+03  0.79896804040E+02 0.  0.
        254    2    1    2    0    0 -0.26249303263E+03  0.29241362728E+03  0.83207338681E+03  0.12826467406E+04  0.89354810652E+03 0.  0.
         23    2    4    4    0    0  0.12741086433E+03  0.48010153039E+03  0.59605007249E+03  0.78128330589E+03  0.91634640298E+02 0.  0.
         23    2    4    4    0    0 -0.38990389696E+03 -0.18768790311E+03  0.23602331432E+03  0.50136343476E+03  0.91686918243E+02 0.  0.
          2    1    3    3  502    0  0.44894409330E+02 -0.90273810838E+02 -0.87833560802E+02  0.13371463389E+03  0.00000000000E+00 0. -1.
         -1    1    3    3    0  502  0.21759862330E+03 -0.20213981645E+03 -0.15398523787E+03  0.33454613992E+03  0.00000000000E+00 0.  1.
         11    1    5    5    0    0  0.80596982232E+02  0.34790553345E+03  0.36249377799E+03  0.50885741896E+03  0.00000000000E+00 0.  1.
        -11    1    5    5    0    0  0.46813882102E+02  0.13219599694E+03  0.23355629451E+03  0.27242588693E+03  0.00000000000E+00 0. -1.
          1    1    6    6  503    0 -0.21788141907E+03 -0.11175459420E+03  0.18390150898E+03  0.30623710929E+03  0.00000000000E+00 0.  1.
         -1    1    6    6    0  503 -0.17202247788E+03 -0.75933308906E+02  0.52121805338E+02  0.19512632547E+03  0.00000000000E+00 0. -1.
<mgrwt>
<rscale>  0 0.16484164E+04</rscale>
<asrwt>0</asrwt>
<pdfrwt beam="1">  1        2 0.18008939E+00 0.16484164E+04</pdfrwt>
<pdfrwt beam="2">  1       -1 0.89280995E-01 0.16484164E+04</pdfrwt>
<totfact> 0.26429934E+01</totfact>
</mgrwt>
</event>
<event>
12    6  0.1569942E-007  0.1823362E+04  0.7818608E-02  0.8693973E-01
          2   -1    0    0  501    0  0.00000000000E+00  0.00000000000E+00  0.24951027569E+04  0.24951027569E+04  0.00000000000E+00 0. -1.
         -1   -1    0    0    0  501 -0.00000000000E+00 -0.00000000000E+00 -0.33311755739E+03  0.33311755739E+03  0.00000000000E+00 0.  1.
         24    2    1    2    0    0 -0.43352352232E+03  0.48259588951E+03  0.46465281390E+03  0.80209310551E+03  0.81299910548E+02 0.  0.
        254    2    1    2    0    0  0.43352352232E+03 -0.48259588951E+03  0.16973323856E+04  0.20261272088E+04  0.89633297495E+03 0.  0.
         23    2    4    4    0    0  0.41296487553E+03 -0.53851372348E+02  0.21185462798E+03  0.47714811879E+03  0.96684978875E+02 0.  0.
         23    2    4    4    0    0  0.20558646788E+02 -0.42874451716E+03  0.14854777577E+04  0.15489790900E+04  0.91910466622E+02 0.  0.
          4    1    3    3  502    0 -0.65699612821E+02  0.65947939100E+02  0.10387954759E+03  0.13948666676E+03  0.00000000000E+00 0. -1.
         -1    1    3    3    0  502 -0.36782390950E+03  0.41664795041E+03  0.36077326631E+03  0.66260643874E+03  0.00000000000E+00 0.  1.
         11    1    5    5    0    0  0.13610324569E+03 -0.61442062796E+02  0.57051561251E+02  0.15985650193E+03  0.00000000000E+00 0. -1.
        -11    1    5    5    0    0  0.27686162984E+03  0.75906904487E+01  0.15480306673E+03  0.31729161686E+03  0.00000000000E+00 0.  1.
          2    1    6    6  503    0 -0.16602508519E+02 -0.15193216927E+03  0.66246704641E+03  0.67986882185E+03  0.00000000000E+00 0. -1.
         -2    1    6    6    0  503  0.37161155307E+02 -0.27681234789E+03  0.82301071126E+03  0.86911026818E+03  0.00000000000E+00 0.  1.
<mgrwt>
<rscale>  0 0.18233623E+04</rscale>
<asrwt>0</asrwt>
<pdfrwt beam="1">  1        2 0.38386195E+00 0.18233623E+04</pdfrwt>
<pdfrwt beam="2">  1       -1 0.51248857E-01 0.18233623E+04</pdfrwt>
<totfact> 0.14409896E+01</totfact>
</mgrwt>
</event>
<event>
12    6  0.1569942E-007  0.1241955E+04  0.7818608E-02  0.9076906E-01
          2   -1    0    0  501    0  0.00000000000E+00  0.00000000000E+00  0.16075550364E+04  0.16075550364E+04  0.00000000000E+00 0. -1.
         -1   -1    0    0    0  501 -0.00000000000E+00 -0.00000000000E+00 -0.23987542331E+03  0.23987542331E+03  0.00000000000E+00 0.  1.
         24    2    1    2    0    0  0.28532026959E+03  0.85069503311E+01  0.26385052746E+03  0.39708876477E+03  0.81131755905E+02 0.  0.
        254    2    1    2    0    0 -0.28532026959E+03 -0.85069503311E+01  0.11038290856E+04  0.14503416949E+04  0.89642197505E+03 0.  0.
         23    2    4    4    0    0 -0.23901779766E+03 -0.19667829034E+03  0.11793342795E+04  0.12225095546E+04  0.88816726270E+02 0.  0.
         23    2    4    4    0    0 -0.46302471930E+02  0.18817134001E+03 -0.75505193884E+02  0.22783214030E+03  0.93027295693E+02 0.  0.
          2    1    3    3  502    0  0.48440663004E+02 -0.11959047323E+02  0.88727029345E+02  0.10179392114E+03  0.00000000000E+00 0. -1.
         -1    1    3    3    0  502  0.23687960659E+03  0.20465997654E+02  0.17512349812E+03  0.29529484362E+03  0.00000000000E+00 0.  1.
         11    1    5    5    0    0 -0.21764151336E+03 -0.16452159031E+03  0.11111133841E+04  0.11441189337E+04  0.00000000000E+00 0. -1.
        -11    1    5    5    0    0 -0.21376284302E+02 -0.32156700028E+02  0.68220895359E+02  0.78390620937E+02  0.00000000000E+00 0.  1.
          3    1    6    6  503    0 -0.57997846902E+02  0.15466121132E+03 -0.26448310693E+02  0.16728225749E+03  0.00000000000E+00 0. -1.
         -3    1    6    6    0  503  0.11695374972E+02  0.33510128694E+02 -0.49056883191E+02  0.60549882818E+02  0.00000000000E+00 0.  1.
<mgrwt>
<rscale>  0 0.12419548E+04</rscale>
<asrwt>0</asrwt>
<pdfrwt beam="1">  1        2 0.24731615E+00 0.12419548E+04</pdfrwt>
<pdfrwt beam="2">  1       -1 0.36903912E-01 0.12419548E+04</pdfrwt>
<totfact> 0.87305330E+01</totfact>
</mgrwt>
</event>
<event>
12    6  0.1569942E-007  0.1549241E+04  0.7818608E-02  0.8852353E-01
          2   -1    0    0  501    0  0.00000000000E+00  0.00000000000E+00  0.47358577012E+03  0.47358577012E+03  0.00000000000E+00 0. -1.
         -1   -1    0    0    0  501 -0.00000000000E+00 -0.00000000000E+00 -0.12670078252E+04  0.12670078252E+04  0.00000000000E+00 0.  1.
         24    2    1    2    0    0  0.29508634469E+03 -0.30024296880E+03  0.51745267473E+02  0.43188236197E+03  0.81381882120E+02 0.  0.
        254    2    1    2    0    0 -0.29508634469E+03  0.30024296880E+03 -0.84516732254E+03  0.13087112333E+04  0.90619837673E+03 0.  0.
         23    2    4    4    0    0 -0.10733874942E+03 -0.28534767140E+03 -0.51553581865E+03  0.60502043325E+03  0.85601656706E+02 0.  0.
         23    2    4    4    0    0 -0.18774759528E+03  0.58559064021E+03 -0.32963150388E+03  0.70369080007E+03  0.91423499848E+02 0.  0.
          2    1    3    3  502    0  0.25739144795E+03 -0.24116254100E+03  0.69698166855E+02  0.35953798564E+03  0.00000000000E+00 0. -1.
         -3    1    3    3    0  502  0.37694896744E+02 -0.59080427807E+02 -0.17952899382E+02  0.72344376330E+02  0.00000000000E+00 0.  1.
         11    1    5    5    0    0 -0.54115719120E+02 -0.22604543005E+03 -0.42504716252E+03  0.48444828193E+03  0.00000000000E+00 0. -1.
        -11    1    5    5    0    0 -0.53223030298E+02 -0.59302241357E+02 -0.90488656133E+02  0.12057215132E+03  0.00000000000E+00 0.  1.
          1    1    6    6  503    0 -0.12498279124E+03  0.34039346310E+03 -0.14558882280E+03  0.39074865726E+03  0.00000000000E+00 0. -1.
         -1    1    6    6    0  503 -0.62764804031E+02  0.24519717711E+03 -0.18404268108E+03  0.31294214281E+03  0.00000000000E+00 0.  1.
<mgrwt>
<rscale>  0 0.15492409E+04</rscale>
<asrwt>0</asrwt>
<pdfrwt beam="1">  1        2 0.72859349E-01 0.15492409E+04</pdfrwt>
<pdfrwt beam="2">  1       -1 0.19492428E+00 0.15492409E+04</pdfrwt>
<totfact> 0.11778983E+01</totfact>
</mgrwt>
</event>
<event>
12    6  0.1569942E-007  0.1394117E+04  0.7818608E-02  0.8958088E-01
         -1   -1    0    0    0  501 -0.00000000000E+00  0.00000000000E+00  0.18106967392E+03  0.18106967392E+03  0.00000000000E+00 0.  1.
          2   -1    0    0  501    0  0.00000000000E+00 -0.00000000000E+00 -0.26834468116E+04  0.26834468116E+04  0.00000000000E+00 0. -1.
         24    2    1    2    0    0  0.13144858066E+03 -0.15332714355E+03 -0.27346174666E+02  0.22339238186E+03  0.91478963156E+02 0.  0.
        254    2    1    2    0    0 -0.13144858066E+03  0.15332714355E+03 -0.24750309630E+04  0.26411241036E+04  0.89942777404E+03 0.  0.
         23    2    4    4    0    0 -0.18779991619E+03 -0.34152717268E+03 -0.85907233330E+03  0.94764428113E+03  0.90082137569E+02 0.  0.
         23    2    4    4    0    0  0.56351335534E+02  0.49485431623E+03 -0.16159586297E+04  0.16934798225E+04  0.92170217778E+02 0.  0.
          2    1    3    3  502    0 -0.12411696211E+01 -0.38863902663E+02  0.17296515635E+02  0.42557171961E+02  0.00000000000E+00 0. -1.
         -1    1    3    3    0  502  0.13268975028E+03 -0.11446324089E+03 -0.44642690302E+02  0.18083520990E+03  0.00000000000E+00 0.  1.
         11    1    5    5    0    0 -0.21452288535E+02 -0.28165285174E+02 -0.32129012564E+02  0.47809595487E+02  0.00000000000E+00 0. -1.
        -11    1    5    5    0    0 -0.16634762766E+03 -0.31336188751E+03 -0.82694332074E+03  0.89983468564E+03  0.00000000000E+00 0.  1.
          1    1    6    6  503    0  0.41896959568E+02  0.13166054492E+03 -0.55682971173E+03  0.57371524485E+03  0.00000000000E+00 0. -1.
         -1    1    6    6    0  503  0.14454375966E+02  0.36319377131E+03 -0.10591289180E+04  0.11197645777E+04  0.00000000000E+00 0.  1.
<mgrwt>
<rscale>  0 0.13941174E+04</rscale>
<asrwt>0</asrwt>
<pdfrwt beam="1">  1        2 0.41283792E+00 0.13941174E+04</pdfrwt>
<pdfrwt beam="2">  1       -1 0.27856876E-01 0.13941174E+04</pdfrwt>
<totfact> 0.35186716E+01</totfact>
</mgrwt>
</event>
<event>
12    6  0.1569942E-007  0.1250940E+04  0.7818608E-02  0.9069401E-01
         -1   -1    0    0    0  501 -0.00000000000E+00  0.00000000000E+00  0.33225506147E+03  0.33225506147E+03  0.00000000000E+00 0.  1.
          2   -1    0    0  501    0  0.00000000000E+00 -0.00000000000E+00 -0.11774469160E+04  0.11774469160E+04  0.00000000000E+00 0. -1.
         24    2    1    2    0    0 -0.21572658346E+03 -0.18367915472E+03 -0.10705840304E+03  0.31222951659E+03  0.75827295044E+02 0.  0.
        254    2    1    2    0    0  0.21572658346E+03  0.18367915472E+03 -0.73813345153E+03  0.11974724609E+04  0.89934604670E+03 0.  0.
         23    2    4    4    0    0  0.22376550682E+03 -0.32293159249E+03 -0.19262056933E+03  0.44721847279E+03  0.92443838094E+02 0.  0.
         23    2    4    4    0    0 -0.80389233585E+01  0.50661074722E+03 -0.54551288219E+03  0.75025398813E+03  0.92615703797E+02 0.  0.
          2    1    3    3  502    0 -0.59034593233E+01 -0.35087867752E+02 -0.19785863182E+02  0.40712279195E+02  0.00000000000E+00 0. -1.
         -1    1    3    3    0  502 -0.20982312414E+03 -0.14859128697E+03 -0.87272539858E+02  0.27151723739E+03  0.00000000000E+00 0.  1.
         11    1    5    5    0    0  0.71093018188E+02 -0.13405217769E+03 -0.29287933437E+02  0.15453797793E+03  0.00000000000E+00 0.  1.
        -11    1    5    5    0    0  0.15267248863E+03 -0.18887941481E+03 -0.16333263590E+03  0.29268049486E+03  0.00000000000E+00 0. -1.
          2    1    6    6  503    0 -0.16514290435E+02  0.28788047977E+03 -0.24444986155E+03  0.37802596106E+03  0.00000000000E+00 0. -1.
         -2    1    6    6    0  503  0.84753670770E+01  0.21873026745E+03 -0.30106302064E+03  0.37222802708E+03  0.00000000000E+00 0.  1.
<mgrwt>
<rscale>  0 0.12509400E+04</rscale>
<asrwt>0</asrwt>
<pdfrwt beam="1">  1        2 0.18114568E+00 0.12509400E+04</pdfrwt>
<pdfrwt beam="2">  1       -1 0.51116164E-01 0.12509400E+04</pdfrwt>
<totfact> 0.84290763E+01</totfact>
</mgrwt>
</event>
<event>
12    6  0.1569942E-007  0.1423802E+04  0.7818608E-02  0.8936767E-01
          2   -1    0    0  501    0  0.00000000000E+00  0.00000000000E+00  0.62336104525E+03  0.62336104525E+03  0.00000000000E+00 0. -1.
         -1   -1    0    0    0  501 -0.00000000000E+00 -0.00000000000E+00 -0.81301681563E+03  0.81301681563E+03  0.00000000000E+00 0.  1.
         24    2    1    2    0    0  0.25536875343E+02  0.21911755916E+03 -0.42468574765E+03  0.48526830332E+03  0.80390952316E+02 0.  0.
        254    2    1    2    0    0 -0.25536875343E+02 -0.21911755916E+03  0.23502997728E+03  0.95110955756E+03  0.89482158195E+03 0.  0.
         23    2    4    4    0    0  0.18294332550E+03 -0.17796084737E+03  0.51852390486E+03  0.58504239173E+03  0.90935343373E+02 0.  0.
         23    2    4    4    0    0 -0.20848020085E+03 -0.41156711785E+02 -0.28349392758E+03  0.36606716583E+03  0.92078737244E+02 0.  0.
          2    1    3    3  502    0 -0.18220098114E+02  0.10639507024E+03 -0.14679868832E+03  0.18221344034E+03  0.00000000000E+00 0. -1.
         -1    1    3    3    0  502  0.43756973457E+02  0.11272248892E+03 -0.27788705933E+03  0.30305486299E+03  0.00000000000E+00 0.  1.
         11    1    5    5    0    0  0.27955953045E+02 -0.55269864161E+02  0.20724938112E+03  0.21630672474E+03  0.00000000000E+00 0. -1.
        -11    1    5    5    0    0  0.15498737246E+03 -0.12269098321E+03  0.31127452374E+03  0.36873566699E+03  0.00000000000E+00 0.  1.
          3    1    6    6  503    0  0.40035481205E+01  0.96140805535E+00 -0.39810516557E+02  0.40022867608E+02  0.00000000000E+00 0. -1.
         -3    1    6    6    0  503 -0.21248374897E+03 -0.42118119840E+02 -0.24368341102E+03  0.32604429822E+03  0.00000000000E+00 0.  1.
<mgrwt>
<rscale>  0 0.14238020E+04</rscale>
<asrwt>0</asrwt>
<pdfrwt beam="1">  1        2 0.95901700E-01 0.14238020E+04</pdfrwt>
<pdfrwt beam="2">  1       -1 0.12507951E+00 0.14238020E+04</pdfrwt>
<totfact> 0.29375700E+01</totfact>
</mgrwt>
</event>
<event>
12    6  0.1569942E-007  0.2386808E+04  0.7818608E-02  0.8444459E-01
         -1   -1    0    0    0  501 -0.00000000000E+00  0.00000000000E+00  0.58510903692E+03  0.58510903692E+03  0.00000000000E+00 0.  1.
          2   -1    0    0  501    0  0.00000000000E+00 -0.00000000000E+00 -0.24340992428E+04  0.24340992428E+04  0.00000000000E+00 0. -1.
         24    2    1    2    0    0  0.36450244906E+03 -0.53981142906E+03 -0.17877979298E+04  0.19044157313E+04  0.79494812736E+02 0.  0.
        254    2    1    2    0    0 -0.36450244906E+03  0.53981142906E+03 -0.61192276080E+02  0.11147925485E+04  0.90264030333E+03 0.  0.
         23    2    4    4    0    0 -0.39959360099E+03  0.61213206374E+03 -0.33974986340E+03  0.81105390918E+03  0.89430221345E+02 0.  0.
         23    2    4    4    0    0  0.35091151933E+02 -0.72320634683E+02  0.27855758733E+03  0.30373863931E+03  0.90560302607E+02 0.  0.
          4    1    3    3  502    0  0.33365976978E+03 -0.50146632440E+03 -0.17029230900E+04  0.18063068308E+04  0.00000000000E+00 0. -1.
         -1    1    3    3    0  502  0.30842679278E+02 -0.38345104661E+02 -0.84874839817E+02  0.98108900465E+02  0.00000000000E+00 0.  1.
         11    1    5    5    0    0 -0.19900981879E+03  0.37468393109E+03 -0.17149401243E+03  0.45760589211E+03  0.00000000000E+00 0. -1.
        -11    1    5    5    0    0 -0.20058378220E+03  0.23744813266E+03 -0.16825585098E+03  0.35344801707E+03  0.00000000000E+00 0.  1.
          1    1    6    6  503    0 -0.41392319273E+01 -0.74529132909E+02  0.22672404429E+03  0.23869544854E+03  0.00000000000E+00 0. -1.
         -1    1    6    6    0  503  0.39230383860E+02  0.22084982264E+01  0.51833543034E+02  0.65043190771E+02  0.00000000000E+00 0.  1.
<mgrwt>
<rscale>  0 0.23868083E+04</rscale>
<asrwt>0</asrwt>
<pdfrwt beam="1">  1        2 0.37447681E+00 0.23868083E+04</pdfrwt>
<pdfrwt beam="2">  1       -1 0.90016775E-01 0.23868083E+04</pdfrwt>
<totfact> 0.46984166E+00</totfact>
</mgrwt>
</event>
<event>
12    6  0.1569942E-007  0.2061597E+04  0.7818608E-02  0.8578352E-01
          2   -1    0    0  501    0  0.00000000000E+00  0.00000000000E+00  0.21349077557E+04  0.21349077557E+04  0.00000000000E+00 0. -1.
         -1   -1    0    0    0  501 -0.00000000000E+00 -0.00000000000E+00 -0.49770082619E+03  0.49770082619E+03  0.00000000000E+00 0.  1.
         24    2    1    2    0    0 -0.65814351318E+03  0.46712406576E+03  0.41282450172E+03  0.91043793262E+03  0.84352730727E+02 0.  0.
        254    2    1    2    0    0  0.65814351318E+03 -0.46712406576E+03  0.12243824278E+04  0.17221706493E+04  0.90299592413E+03 0.  0.
         23    2    4    4    0    0  0.65936788087E+03 -0.69232075911E+03  0.10538166743E+04  0.14254791690E+04  0.85949069194E+02 0.  0.
         23    2    4    4    0    0 -0.12243676914E+01  0.22519669335E+03  0.17056575349E+03  0.29669148024E+03  0.90653783214E+02 0.  0.
          4    1    3    3  502    0 -0.20018525817E+02  0.35081939515E+02  0.14181228774E+02  0.42808773698E+02  0.00000000000E+00 0. -1.
         -3    1    3    3    0  502 -0.63812498736E+03  0.43204212624E+03  0.39864327294E+03  0.86762915892E+03  0.00000000000E+00 0.  1.
         11    1    5    5    0    0  0.92336508750E+02 -0.57997383402E+02  0.11430835283E+03  0.15797508302E+03  0.00000000000E+00 0. -1.
        -11    1    5    5    0    0  0.56703137212E+03 -0.63432337571E+03  0.93950832149E+03  0.12675040860E+04  0.00000000000E+00 0.  1.
          4    1    6    6  503    0 -0.22171848214E+02  0.18375032830E+03  0.16835726982E+03  0.25019980876E+03  0.00000000000E+00 0.  1.
         -4    1    6    6    0  503  0.20947480522E+02  0.41446365055E+02  0.22084836615E+01  0.46491671475E+02  0.00000000000E+00 0. -1.
<mgrwt>
<rscale>  0 0.20615968E+04</rscale>
<asrwt>0</asrwt>
<pdfrwt beam="1">  1        2 0.32844734E+00 0.20615968E+04</pdfrwt>
<pdfrwt beam="2">  1       -1 0.76569360E-01 0.20615968E+04</pdfrwt>
<totfact> 0.10118645E+01</totfact>
</mgrwt>
</event>
<event>
12    6  0.1569942E-007  0.1112413E+04  0.7818608E-02  0.9193177E-01
         -1   -1    0    0    0  501 -0.00000000000E+00  0.00000000000E+00  0.12995203574E+03  0.12995203574E+03  0.00000000000E+00 0.  1.
          2   -1    0    0  501    0  0.00000000000E+00 -0.00000000000E+00 -0.23806145277E+04  0.23806145277E+04  0.00000000000E+00 0. -1.
         24    2    1    2    0    0 -0.10641711305E+02  0.31385319168E+02  0.68141580059E+00  0.88494101261E+02  0.82051553012E+02 0.  0.
        254    2    1    2    0    0  0.10641711305E+02 -0.31385319168E+02 -0.22513439078E+04  0.24220724622E+04  0.89262945096E+03 0.  0.
         23    2    4    4    0    0  0.91446157492E+02  0.31249173986E+03 -0.18480326186E+04  0.18785054326E+04  0.86859736343E+02 0.  0.
         23    2    4    4    0    0 -0.80804446187E+02 -0.34387705903E+03 -0.40331128921E+03  0.54356702959E+03  0.89578621375E+02 0.  0.
          2    1    3    3  502    0 -0.27223728368E+02  0.86576347676E+00 -0.31151544548E+02  0.41379942730E+02  0.00000000000E+00 0. -1.
         -1    1    3    3    0  502  0.16582017063E+02  0.30519555691E+02  0.31832960349E+02  0.47114158530E+02  0.00000000000E+00 0.  1.
         11    1    5    5    0    0  0.99879619931E+02  0.26640025836E+03 -0.14437016571E+04  0.14714684879E+04  0.00000000000E+00 0. -1.
        -11    1    5    5    0    0 -0.84334624392E+01  0.46091481500E+02 -0.40433096147E+03  0.40703694471E+03  0.00000000000E+00 0.  1.
          1    1    6    6  503    0 -0.96353853922E+02 -0.23905006003E+03 -0.30091097837E+03  0.39620249024E+03  0.00000000000E+00 0. -1.
         -1    1    6    6    0  503  0.15549407735E+02 -0.10482699899E+03 -0.10240031084E+03  0.14736453935E+03  0.00000000000E+00 0.  1.
<mgrwt>
<rscale>  0 0.11124131E+04</rscale>
<asrwt>0</asrwt>
<pdfrwt beam="1">  1        2 0.36624836E+00 0.11124131E+04</pdfrwt>
<pdfrwt beam="2">  1       -1 0.19992623E-01 0.11124131E+04</pdfrwt>
<totfact> 0.94962398E+01</totfact>
</mgrwt>
</event>
<event>
12    6  0.1569942E-007  0.2198312E+04  0.7818608E-02  0.8519131E-01
         -1   -1    0    0    0  501 -0.00000000000E+00  0.00000000000E+00  0.10031543703E+04  0.10031543703E+04  0.00000000000E+00 0.  1.
          4   -1    0    0  501    0  0.00000000000E+00 -0.00000000000E+00 -0.12043450578E+04  0.12043450578E+04  0.00000000000E+00 0. -1.
         24    2    1    2    0    0  0.77982613096E+03 -0.45466914529E+03  0.39740539024E+02  0.90706652828E+03  0.79608731151E+02 0.  0.
        254    2    1    2    0    0 -0.77982613096E+03  0.45466914529E+03 -0.24093122653E+03  0.13004328998E+04  0.90455792782E+03 0.  0.
         23    2    4    4    0    0 -0.66309494147E+01 -0.21258235487E+03 -0.14202232812E+03  0.27123695278E+03  0.90354389916E+02 0.  0.
         23    2    4    4    0    0 -0.77319518155E+03  0.66725150016E+03 -0.98908898405E+02  0.10291959470E+04  0.80037328498E+02 0.  0.
          2    1    3    3  502    0  0.66873165465E+03 -0.41579044803E+03  0.19902794478E+02  0.78770542961E+03  0.00000000000E+00 0. -1.
         -3    1    3    3    0  502  0.11109447631E+03 -0.38878697254E+02  0.19837744546E+02  0.11936109867E+03  0.00000000000E+00 0.  1.
         11    1    5    5    0    0 -0.36028367765E+02 -0.84790963113E+02 -0.93924415855E+02  0.13156499004E+03  0.00000000000E+00 0. -1.
        -11    1    5    5    0    0  0.29397418350E+02 -0.12779139176E+03 -0.48097912266E+02  0.13967196275E+03  0.00000000000E+00 0.  1.
          4    1    6    6  503    0 -0.17442537237E+03  0.17163000230E+03  0.65472469273E+01  0.24479365731E+03  0.00000000000E+00 0. -1.
         -4    1    6    6    0  503 -0.59876980918E+03  0.49562149786E+03 -0.10545614533E+03  0.78440228972E+03  0.00000000000E+00 0.  1.
<mgrwt>
<rscale>  0 0.21983121E+04</rscale>
<asrwt>0</asrwt>
<pdfrwt beam="1">  1        4 0.18528385E+00 0.21983121E+04</pdfrwt>
<pdfrwt beam="2">  1       -1 0.15433144E+00 0.21983121E+04</pdfrwt>
<totfact> 0.20072469E-01</totfact>
</mgrwt>
</event>
<event>
12    6  0.1569942E-007  0.1571937E+04  0.7818608E-02  0.8837976E-01
         -1   -1    0    0    0  501 -0.00000000000E+00  0.00000000000E+00  0.36868065329E+03  0.36868065329E+03  0.00000000000E+00 0.  1.
          2   -1    0    0  501    0  0.00000000000E+00 -0.00000000000E+00 -0.16755594783E+04  0.16755594783E+04  0.00000000000E+00 0. -1.
         24    2    1    2    0    0 -0.17760613397E+03 -0.31798375764E+03  0.43120453156E+02  0.37533982918E+03  0.79768445788E+02 0.  0.
        254    2    1    2    0    0  0.17760613397E+03  0.31798375764E+03 -0.13499992782E+04  0.16689003024E+04  0.91108317918E+03 0.  0.
         23    2    4    4    0    0  0.19122296166E+02 -0.30701741452E+03 -0.55825092818E+03  0.64401737863E+03  0.92135390246E+02 0.  0.
         23    2    4    4    0    0  0.15848383781E+03  0.62500117216E+03 -0.79174835003E+03  0.10248829238E+04  0.88181436301E+02 0.  0.
          4    1    3    3  502    0 -0.11832086375E+03 -0.18290191507E+03 -0.11232385874E+02  0.21812634831E+03  0.00000000000E+00 0. -1.
         -3    1    3    3    0  502 -0.59285270220E+02 -0.13508184257E+03  0.54352839030E+02  0.15721348087E+03  0.00000000000E+00 0.  1.
         11    1    5    5    0    0  0.58786178864E+01 -0.19737286388E+03 -0.43965006394E+03  0.48195724320E+03  0.00000000000E+00 0.  1.
        -11    1    5    5    0    0  0.13243678279E+02 -0.10964455064E+03 -0.11860086423E+03  0.16206013543E+03  0.00000000000E+00 0. -1.
          2    1    6    6  503    0  0.14261119243E+03  0.45240128667E+03 -0.62246537391E+03  0.78260335937E+03  0.00000000000E+00 0. -1.
         -2    1    6    6    0  503  0.15872645378E+02  0.17259988549E+03 -0.16928297612E+03  0.24227956444E+03  0.00000000000E+00 0.  1.
<mgrwt>
<rscale>  0 0.15719368E+04</rscale>
<asrwt>0</asrwt>
<pdfrwt beam="1">  1        2 0.25777838E+00 0.15719368E+04</pdfrwt>
<pdfrwt beam="2">  1       -1 0.56720100E-01 0.15719368E+04</pdfrwt>
<totfact> 0.34855315E+01</totfact>
</mgrwt>
</event>
<event>
12    6  0.1569942E-007  0.2822156E+04  0.7818608E-02  0.8296423E-01
          2   -1    0    0  501    0  0.00000000000E+00  0.00000000000E+00  0.20016902058E+04  0.20016902058E+04  0.00000000000E+00 0. -1.
         -1   -1    0    0    0  501 -0.00000000000E+00 -0.00000000000E+00 -0.99472981897E+03  0.99472981897E+03  0.00000000000E+00 0.  1.
         24    2    1    2    0    0 -0.69855401573E+03  0.43525924415E+03  0.14763231472E+04  0.16932084612E+04  0.99982676797E+02 0.  0.
        254    2    1    2    0    0  0.69855401573E+03 -0.43525924415E+03 -0.46936276034E+03  0.13032115636E+04  0.89477966904E+03 0.  0.
         23    2    4    4    0    0  0.41034727992E+03  0.92431071149E+02  0.12821349824E+03  0.45020720602E+03  0.96537216482E+02 0.  0.
         23    2    4    4    0    0  0.28820673581E+03 -0.52769031530E+03 -0.59757625858E+03  0.85300435756E+03  0.94862309541E+02 0.  0.
          4    1    3    3  502    0 -0.45674821853E+03  0.29713843018E+03  0.10679114776E+04  0.11988932838E+04  0.00000000000E+00 0. -1.
         -3    1    3    3    0  502 -0.24180579720E+03  0.13812081397E+03  0.40841166961E+03  0.49431517748E+03  0.00000000000E+00 0.  1.
         11    1    5    5    0    0  0.10319010661E+03 -0.15688640875E+02  0.47765172993E+02  0.11478607627E+03  0.00000000000E+00 0.  1.
        -11    1    5    5    0    0  0.30715717332E+03  0.10811971202E+03  0.80448325243E+02  0.33542112975E+03  0.00000000000E+00 0. -1.
          3    1    6    6  503    0  0.21827600992E+03 -0.34111163218E+03 -0.44762588072E+03  0.60363108866E+03  0.00000000000E+00 0. -1.
         -3    1    6    6    0  503  0.69930725895E+02 -0.18657868312E+03 -0.14995037786E+03  0.24937326890E+03  0.00000000000E+00 0.  1.
<mgrwt>
<rscale>  0 0.28221559E+04</rscale>
<asrwt>0</asrwt>
<pdfrwt beam="1">  1        2 0.30795234E+00 0.28221559E+04</pdfrwt>
<pdfrwt beam="2">  1       -1 0.15303536E+00 0.28221559E+04</pdfrwt>
<totfact> 0.21768023E+00</totfact>
</mgrwt>
</event>
<event>
12    6  0.1569942E-007  0.4511754E+04  0.7818608E-02  0.7908582E-01
          2   -1    0    0  501    0  0.00000000000E+00  0.00000000000E+00  0.28102334251E+04  0.28102334251E+04  0.00000000000E+00 0. -1.
         -1   -1    0    0    0  501 -0.00000000000E+00 -0.00000000000E+00 -0.18108749492E+04  0.18108749492E+04  0.00000000000E+00 0.  1.
         24    2    1    2    0    0  0.11088148826E+04  0.17957516145E+04 -0.72612574962E+01  0.21120235275E+04  0.79977182904E+02 0.  0.
        254    2    1    2    0    0 -0.11088148826E+04 -0.17957516145E+04  0.10066197334E+04  0.25090848469E+04  0.90996108504E+03 0.  0.
         23    2    4    4    0    0 -0.76041355354E+03 -0.42604446546E+03  0.30043165553E+03  0.92655083111E+03  0.92166176250E+02 0.  0.
         23    2    4    4    0    0 -0.34840132906E+03 -0.13697071491E+04  0.70618807788E+03  0.15825340158E+04  0.90725682535E+02 0.  0.
          4    1    3    3  502    0  0.65596702050E+03  0.10701820433E+04  0.34731700045E+02  0.12557024443E+04  0.00000000000E+00 0. -1.
         -3    1    3    3    0  502  0.45284786209E+03  0.72556957126E+03 -0.41992957541E+02  0.85632108313E+03  0.00000000000E+00 0.  1.
         11    1    5    5    0    0 -0.46914090344E+03 -0.24943000678E+03  0.13682010871E+03  0.54866042113E+03  0.00000000000E+00 0. -1.
        -11    1    5    5    0    0 -0.29127265009E+03 -0.17661445867E+03  0.16361154682E+03  0.37789040998E+03  0.00000000000E+00 0.  1.
          2    1    6    6  503    0 -0.29439490378E+03 -0.12533034333E+04  0.62996237794E+03  0.14332796143E+04  0.00000000000E+00 0. -1.
         -2    1    6    6    0  503 -0.54006425279E+02 -0.11640371579E+03  0.76225699945E+02  0.14925440145E+03  0.00000000000E+00 0.  1.
<mgrwt>
<rscale>  0 0.45117541E+04</rscale>
<asrwt>0</asrwt>
<pdfrwt beam="1">  1        2 0.43234360E+00 0.45117541E+04</pdfrwt>
<pdfrwt beam="2">  1       -1 0.27859615E+00 0.45117541E+04</pdfrwt>
<totfact> 0.89109005E-02</totfact>
</mgrwt>
</event>
<event>
12    6  0.1569942E-007  0.2650362E+04  0.7818608E-02  0.8351293E-01
         -1   -1    0    0    0  501 -0.00000000000E+00  0.00000000000E+00  0.19637705505E+04  0.19637705505E+04  0.00000000000E+00 0.  1.
          2   -1    0    0  501    0  0.00000000000E+00 -0.00000000000E+00 -0.89425115266E+03  0.89425115266E+03  0.00000000000E+00 0. -1.
         24    2    1    2    0    0 -0.53900641938E+03  0.24636616361E+03 -0.61574888536E+03  0.85832595317E+03  0.79702856703E+02 0.  0.
        254    2    1    2    0    0  0.53900641938E+03 -0.24636616361E+03  0.16852682832E+04  0.19996957500E+04  0.89857092068E+03 0.  0.
         23    2    4    4    0    0  0.32716440295E+03 -0.52863443681E+03  0.14074778135E+04  0.15414188478E+04  0.92126838833E+02 0.  0.
         23    2    4    4    0    0  0.21184201643E+03  0.28226827319E+03  0.27779046964E+03  0.45827690217E+03  0.91092019768E+02 0.  0.
          2    1    3    3  502    0 -0.46298998521E+03  0.21313649883E+03 -0.56564743288E+03  0.76140916192E+03  0.00000000000E+00 0. -1.
         -1    1    3    3    0  502 -0.76016434174E+02  0.33229664779E+02 -0.50101452474E+02  0.96916791248E+02  0.00000000000E+00 0.  1.
         11    1    5    5    0    0  0.78117302160E+02 -0.19804893922E+03  0.42595802422E+03  0.47619946832E+03  0.00000000000E+00 0. -1.
        -11    1    5    5    0    0  0.24904710079E+03 -0.33058549759E+03  0.98151978932E+03  0.10652193795E+04  0.00000000000E+00 0.  1.
          3    1    6    6  503    0  0.90163362622E+01  0.56358230498E+02  0.21593241463E+02  0.61023049263E+02  0.00000000000E+00 0. -1.
         -3    1    6    6    0  503  0.20282568017E+03  0.22591004270E+03  0.25619722818E+03  0.39725385291E+03  0.00000000000E+00 0.  1.
<mgrwt>
<rscale>  0 0.26503615E+04</rscale>
<asrwt>0</asrwt>
<pdfrwt beam="1">  1        2 0.13757710E+00 0.26503615E+04</pdfrwt>
<pdfrwt beam="2">  1       -1 0.30211854E+00 0.26503615E+04</pdfrwt>
<totfact> 0.95078346E-01</totfact>
</mgrwt>
</event>
<event>
12    6  0.1569942E-007  0.1332147E+04  0.7818608E-02  0.9004454E-01
          2   -1    0    0  501    0  0.00000000000E+00  0.00000000000E+00  0.13295362748E+04  0.13295362748E+04  0.00000000000E+00 0. -1.
         -1   -1    0    0    0  501 -0.00000000000E+00 -0.00000000000E+00 -0.33369062056E+03  0.33369062056E+03  0.00000000000E+00 0.  1.
         24    2    1    2    0    0  0.21928570420E+03  0.21368541564E+03  0.49535383791E+03  0.58800994621E+03  0.81440746466E+02 0.  0.
        254    2    1    2    0    0 -0.21928570420E+03 -0.21368541564E+03  0.50049181633E+03  0.10752169491E+04  0.90102816415E+03 0.  0.
         23    2    4    4    0    0  0.56313321642E+02 -0.17117816457E+03  0.69495727426E+03  0.72374565642E+03  0.91482282003E+02 0.  0.
         23    2    4    4    0    0 -0.27559902584E+03 -0.42507251063E+02 -0.19446545793E+03  0.35147129273E+03  0.89182766536E+02 0.  0.
          2    1    3    3  502    0  0.15793484488E+02  0.51406433956E+01  0.73219963446E+02  0.75080113304E+02  0.00000000000E+00 0. -1.
         -1    1    3    3    0  502  0.20349221971E+03  0.20854477224E+03  0.42213387447E+03  0.51292983290E+03  0.00000000000E+00 0.  1.
         11    1    5    5    0    0  0.16997250999E+02 -0.93837472443E+02  0.20410549162E+03  0.22528521808E+03  0.00000000000E+00 0. -1.
        -11    1    5    5    0    0  0.39316070643E+02 -0.77340692130E+02  0.49085178264E+03  0.49846043834E+03  0.00000000000E+00 0.  1.
          2    1    6    6  503    0 -0.15828744218E+02 -0.23191379409E+02 -0.39206339511E+02  0.48223710768E+02  0.00000000000E+00 0. -1.
         -2    1    6    6    0  503 -0.25977028162E+03 -0.19315871654E+02 -0.15525911842E+03  0.30324758196E+03  0.00000000000E+00 0.  1.
<mgrwt>
<rscale>  0 0.13321468E+04</rscale>
<asrwt>0</asrwt>
<pdfrwt beam="1">  1        2 0.20454404E+00 0.13321468E+04</pdfrwt>
<pdfrwt beam="2">  1       -1 0.51337019E-01 0.13321468E+04</pdfrwt>
<totfact> 0.67585921E+01</totfact>
</mgrwt>
</event>
<event>
12    6  0.1569942E-007  0.2787474E+04  0.7818608E-02  0.8307168E-01
         -1   -1    0    0    0  501 -0.00000000000E+00  0.00000000000E+00  0.69188189577E+03  0.69188189577E+03  0.00000000000E+00 0.  1.
          2   -1    0    0  501    0  0.00000000000E+00 -0.00000000000E+00 -0.28075646611E+04  0.28075646611E+04  0.00000000000E+00 0. -1.
         24    2    1    2    0    0 -0.97482505415E+03  0.19848313802E+03 -0.18854175088E+04  0.21333101347E+04  0.80830106826E+02 0.  0.
        254    2    1    2    0    0  0.97482505415E+03 -0.19848313802E+03 -0.23026525650E+03  0.13661364221E+04  0.90753908632E+03 0.  0.
         23    2    4    4    0    0 -0.36035009737E+02 -0.27540697835E+03 -0.18112607170E+03  0.34673582564E+03  0.10134867182E+03 0.  0.
         23    2    4    4    0    0  0.10108600639E+04  0.76923840335E+02 -0.49139184804E+02  0.10194005965E+04  0.94908222179E+02 0.  0.
          2    1    3    3  502    0 -0.43508304670E+03  0.57897677403E+02 -0.88741663954E+03  0.99002913629E+03  0.00000000000E+00 0. -1.
         -1    1    3    3    0  502 -0.53974200745E+03  0.14058546061E+03 -0.99800086926E+03  0.11432809984E+04  0.00000000000E+00 0.  1.
         11    1    5    5    0    0  0.26801887038E+02 -0.76609869399E+02 -0.83749695567E+02  0.11662514628E+03  0.00000000000E+00 0.  1.
        -11    1    5    5    0    0 -0.62836896775E+02 -0.19879710895E+03 -0.97376376130E+02  0.23011067935E+03  0.00000000000E+00 0. -1.
          1    1    6    6  503    0  0.45410306142E+03  0.46457931462E+01  0.14624836222E+02  0.45436225594E+03  0.00000000000E+00 0.  1.
         -1    1    6    6    0  503  0.55675700246E+03  0.72278047189E+02 -0.63764021026E+02  0.56503834054E+03  0.00000000000E+00 0. -1.
<mgrwt>
<rscale>  0 0.27874742E+04</rscale>
<asrwt>0</asrwt>
<pdfrwt beam="1">  1        2 0.43193302E+00 0.27874742E+04</pdfrwt>
<pdfrwt beam="2">  1       -1 0.10644337E+00 0.27874742E+04</pdfrwt>
<totfact> 0.18674076E+00</totfact>
</mgrwt>
</event>
<event>
12    6  0.1569942E-007  0.3470335E+04  0.7818608E-02  0.8120856E-01
         -1   -1    0    0    0  501 -0.00000000000E+00  0.00000000000E+00  0.13517473989E+04  0.13517473989E+04  0.00000000000E+00 0.  1.
          2   -1    0    0  501    0  0.00000000000E+00 -0.00000000000E+00 -0.22273438925E+04  0.22273438925E+04  0.00000000000E+00 0. -1.
         24    2    1    2    0    0  0.51647591826E+03  0.20963782295E+02  0.11697773856E+04  0.12812546655E+04  0.77765878814E+02 0.  0.
        254    2    1    2    0    0 -0.51647591826E+03 -0.20963782295E+02 -0.20453738792E+04  0.22978366258E+04  0.91066569008E+03 0.  0.
         23    2    4    4    0    0 -0.57113547610E+03 -0.34892771373E+03 -0.10887539084E+04  0.12810378923E+04  0.87901802275E+02 0.  0.
         23    2    4    4    0    0  0.54659557840E+02  0.32796393143E+03 -0.95661997075E+03  0.10167987336E+04  0.90608435342E+02 0.  0.
          2    1    3    3  502    0  0.15977778789E+03  0.27135457142E+02  0.29617279220E+03  0.33761456926E+03  0.00000000000E+00 0. -1.
         -1    1    3    3    0  502  0.35669813037E+03 -0.61716748466E+01  0.87360459336E+03  0.94364009629E+03  0.00000000000E+00 0.  1.
         11    1    5    5    0    0 -0.54292756125E+03 -0.35029261834E+03 -0.10536687518E+04  0.12359988243E+04  0.00000000000E+00 0. -1.
        -11    1    5    5    0    0 -0.28207914854E+02  0.13649046156E+01 -0.35085156612E+02  0.45039067924E+02  0.00000000000E+00 0.  1.
          3    1    6    6  503    0  0.42266839788E+02  0.31977648303E+03 -0.94302135795E+03  0.99666080810E+03  0.00000000000E+00 0. -1.
         -3    1    6    6    0  503  0.12392718052E+02  0.81874483999E+01 -0.13598612799E+02  0.20137925466E+02  0.00000000000E+00 0.  1.
<mgrwt>
<rscale>  0 0.34703350E+04</rscale>
<asrwt>0</asrwt>
<pdfrwt beam="1">  1        2 0.34266829E+00 0.34703350E+04</pdfrwt>
<pdfrwt beam="2">  1       -1 0.20796114E+00 0.34703350E+04</pdfrwt>
<totfact> 0.61950145E-01</totfact>
</mgrwt>
</event>
<event>
12    6  0.1569942E-007  0.1784024E+04  0.7818608E-02  0.8714842E-01
          2   -1    0    0  501    0  0.00000000000E+00  0.00000000000E+00  0.51330385888E+03  0.51330385888E+03  0.00000000000E+00 0. -1.
         -1   -1    0    0    0  501 -0.00000000000E+00 -0.00000000000E+00 -0.15501253093E+04  0.15501253093E+04  0.00000000000E+00 0.  1.
         24    2    1    2    0    0  0.48490717181E+03  0.44193850432E+03 -0.27530053739E+03  0.71600541861E+03  0.80179590405E+02 0.  0.
        254    2    1    2    0    0 -0.48490717181E+03 -0.44193850432E+03 -0.76152091307E+03  0.13474237496E+04  0.89732494287E+03 0.  0.
         23    2    4    4    0    0 -0.15758576485E+03 -0.58412718217E+03 -0.14421627572E+03  0.62842449576E+03  0.89895352797E+02 0.  0.
         23    2    4    4    0    0 -0.32732140696E+03  0.14218867785E+03 -0.61730463736E+03  0.71899925386E+03  0.92401234699E+02 0.  0.
          2    1    3    3  502    0  0.15104264257E+02 -0.11844920068E+01 -0.60733018269E+01  0.16322586043E+02  0.00000000000E+00 0. -1.
         -1    1    3    3    0  502  0.46980290756E+03  0.44312299633E+03 -0.26922723557E+03  0.69968283257E+03  0.00000000000E+00 0.  1.
         11    1    5    5    0    0 -0.15950065696E+03 -0.49948421115E+03 -0.14404746869E+03  0.54375969876E+03  0.00000000000E+00 0. -1.
        -11    1    5    5    0    0  0.19148921156E+01 -0.84642971026E+02 -0.16880702979E+00  0.84664797004E+02  0.00000000000E+00 0.  1.
          4    1    6    6  503    0 -0.32002522734E+03  0.14810427510E+03 -0.56616108453E+03  0.66700029691E+03  0.00000000000E+00 0. -1.
         -4    1    6    6    0  503 -0.72961796277E+01 -0.59155972518E+01 -0.51143552824E+02  0.51998956946E+02  0.00000000000E+00 0.  1.
<mgrwt>
<rscale>  0 0.17840239E+04</rscale>
<asrwt>0</asrwt>
<pdfrwt beam="1">  1        2 0.78969827E-01 0.17840239E+04</pdfrwt>
<pdfrwt beam="2">  1       -1 0.23848081E+00 0.17840239E+04</pdfrwt>
<totfact> 0.53516690E+00</totfact>
</mgrwt>
</event>
<event>
12    6  0.1569942E-007  0.3292018E+04  0.7818608E-02  0.8164929E-01
         -1   -1    0    0    0  501 -0.00000000000E+00  0.00000000000E+00  0.15903064518E+04  0.15903064518E+04  0.00000000000E+00 0.  1.
          2   -1    0    0  501    0  0.00000000000E+00 -0.00000000000E+00 -0.17036627772E+04  0.17036627772E+04  0.00000000000E+00 0. -1.
         24    2    1    2    0    0 -0.96872214663E+03  0.11323041407E+04 -0.48747605725E+03  0.15698517038E+04  0.79159338866E+02 0.  0.
        254    2    1    2    0    0  0.96872214663E+03 -0.11323041407E+04  0.37411973194E+03  0.17241175252E+04  0.78235567523E+03 0.  0.
         23    2    4    4    0    0  0.49815354701E+03 -0.61130777571E+02  0.12303841252E+03  0.52420967900E+03  0.88110205048E+02 0.  0.
         23    2    4    4    0    0  0.47056859962E+03 -0.10711733632E+04  0.25108131942E+03  0.11999078463E+04  0.88824713048E+02 0.  0.
          2    1    3    3  502    0 -0.79011758873E+03  0.92418232455E+03 -0.42962406726E+03  0.12895641171E+04  0.00000000000E+00 0. -1.
         -1    1    3    3    0  502 -0.17860455790E+03  0.20812181618E+03 -0.57851989995E+02  0.28028758663E+03  0.00000000000E+00 0.  1.
         11    1    5    5    0    0  0.48763527671E+03 -0.57999915288E+02  0.10359136662E+03  0.50187979089E+03  0.00000000000E+00 0.  1.
        -11    1    5    5    0    0  0.10518270302E+02 -0.31308622832E+01  0.19447045898E+02  0.22329888109E+02  0.00000000000E+00 0. -1.
          2    1    6    6  503    0  0.13432293106E+03 -0.24575127209E+03  0.90129031562E+02  0.29421009478E+03  0.00000000000E+00 0. -1.
         -2    1    6    6    0  503  0.33624566856E+03 -0.82542209107E+03  0.16095228786E+03  0.90569775147E+03  0.00000000000E+00 0.  1.
<mgrwt>
<rscale>  0 0.32920182E+04</rscale>
<asrwt>0</asrwt>
<pdfrwt beam="1">  1        2 0.26210197E+00 0.32920182E+04</pdfrwt>
<pdfrwt beam="2">  1       -1 0.24466253E+00 0.32920182E+04</pdfrwt>
<totfact> 0.70151280E-01</totfact>
</mgrwt>
</event>
<event>
12    6  0.1569942E-007  0.1301474E+04  0.7818608E-02  0.9028397E-01
         -1   -1    0    0    0  501 -0.00000000000E+00  0.00000000000E+00  0.23338381215E+03  0.23338381215E+03  0.00000000000E+00 0.  1.
          2   -1    0    0  501    0  0.00000000000E+00 -0.00000000000E+00 -0.18144309377E+04  0.18144309377E+04  0.00000000000E+00 0. -1.
         24    2    1    2    0    0  0.83789279049E+01 -0.25670544003E+03 -0.83194886985E+02  0.28138090722E+03  0.79283897205E+02 0.  0.
        254    2    1    2    0    0 -0.83789279049E+01  0.25670544003E+03 -0.14978522386E+04  0.17664338426E+04  0.90042173587E+03 0.  0.
         23    2    4    4    0    0  0.38177134993E+02  0.51261977198E+03 -0.13627284432E+04  0.14592601119E+04  0.90414268862E+02 0.  0.
         23    2    4    4    0    0 -0.46556062898E+02 -0.25591433195E+03 -0.13512379532E+03  0.30717373068E+03  0.91856673530E+02 0.  0.
          2    1    3    3  502    0  0.13979769303E+02 -0.18592354847E+02  0.10389057338E+02  0.25476305088E+02  0.00000000000E+00 0. -1.
         -1    1    3    3    0  502 -0.56008413980E+01 -0.23811308518E+03 -0.93583944324E+02  0.25590460214E+03  0.00000000000E+00 0.  1.
         11    1    5    5    0    0 -0.21734297007E+02  0.28460491039E+03 -0.70740367190E+03  0.76281864797E+03  0.00000000000E+00 0. -1.
        -11    1    5    5    0    0  0.59911432001E+02  0.22801486159E+03 -0.65532477135E+03  0.69644146397E+03  0.00000000000E+00 0.  1.
          1    1    6    6  503    0  0.17734323230E+02 -0.68117303246E+02 -0.65905630517E+01  0.70695889154E+02  0.00000000000E+00 0. -1.
         -1    1    6    6    0  503 -0.64290386128E+02 -0.18779702870E+03 -0.12853323227E+03  0.23647784153E+03  0.00000000000E+00 0.  1.
<mgrwt>
<rscale>  0 0.13014743E+04</rscale>
<asrwt>0</asrwt>
<pdfrwt beam="1">  1        2 0.27914322E+00 0.13014743E+04</pdfrwt>
<pdfrwt beam="2">  1       -1 0.35905202E-01 0.13014743E+04</pdfrwt>
<totfact> 0.70110077E+01</totfact>
</mgrwt>
</event>
<event>
12    6  0.1569942E-007  0.1988621E+04  0.7818608E-02  0.8611959E-01
          2   -1    0    0  501    0  0.00000000000E+00  0.00000000000E+00  0.20853974168E+04  0.20853974168E+04  0.00000000000E+00 0. -1.
         -1   -1    0    0    0  501 -0.00000000000E+00 -0.00000000000E+00 -0.47408389852E+03  0.47408389852E+03  0.00000000000E+00 0.  1.
         24    2    1    2    0    0  0.49000295854E+03  0.60573521116E+03  0.89478445724E+03  0.11890729657E+04  0.78976245413E+02 0.  0.
        254    2    1    2    0    0 -0.49000295854E+03 -0.60573521116E+03  0.71652906104E+03  0.13704083496E+04  0.87039479781E+03 0.  0.
         23    2    4    4    0    0 -0.50549485098E+03  0.22838164093E+02  0.44390916192E+03  0.67902145894E+03  0.89264615424E+02 0.  0.
         23    2    4    4    0    0  0.15491892434E+02 -0.62857337526E+03  0.27261989912E+03  0.69138689070E+03  0.91376892226E+02 0.  0.
          2    1    3    3  502    0  0.49045330920E+03  0.59206886313E+03  0.88468368662E+03  0.11720730406E+04  0.00000000000E+00 0. -1.
         -1    1    3    3    0  502 -0.45035065819E+00  0.13666348032E+02  0.10100770624E+02  0.16999925042E+02  0.00000000000E+00 0.  1.
         11    1    5    5    0    0 -0.47121878761E+02  0.70295149072E+01  0.12252544196E+02  0.49193600977E+02  0.00000000000E+00 0. -1.
        -11    1    5    5    0    0 -0.45837297222E+03  0.15808649186E+02  0.43165661772E+03  0.62982785797E+03  0.00000000000E+00 0.  1.
          4    1    6    6  503    0  0.52928919158E+02 -0.36788861195E+03  0.14850003240E+03  0.40024462633E+03  0.00000000000E+00 0. -1.
         -4    1    6    6    0  503 -0.37437026724E+02 -0.26068476331E+03  0.12411986672E+03  0.29114226437E+03  0.00000000000E+00 0.  1.
<mgrwt>
<rscale>  0 0.19886210E+04</rscale>
<asrwt>0</asrwt>
<pdfrwt beam="1">  1        2 0.32083037E+00 0.19886210E+04</pdfrwt>
<pdfrwt beam="2">  1       -1 0.72935985E-01 0.19886210E+04</pdfrwt>
<totfact> 0.12012931E+01</totfact>
</mgrwt>
</event>
<event>
12    6  0.1569942E-007  0.3384161E+04  0.7818608E-02  0.8141805E-01
         -1   -1    0    0    0  501 -0.00000000000E+00  0.00000000000E+00  0.83814400881E+03  0.83814400881E+03  0.00000000000E+00 0.  1.
          2   -1    0    0  501    0  0.00000000000E+00 -0.00000000000E+00 -0.34160427754E+04  0.34160427754E+04  0.00000000000E+00 0. -1.
         24    2    1    2    0    0  0.80539052635E+03 -0.18215501093E+03 -0.28444391083E+04  0.29632395854E+04  0.90114659170E+02 0.  0.
        254    2    1    2    0    0 -0.80539052635E+03  0.18215501093E+03  0.26654034176E+03  0.12909471988E+04  0.95585907342E+03 0.  0.
         23    2    4    4    0    0 -0.17128496134E+03 -0.27254957965E+03  0.36897700429E+03  0.49795049482E+03  0.90492288339E+02 0.  0.
         23    2    4    4    0    0 -0.63410556501E+03  0.45470459058E+03 -0.10243666253E+03  0.79299670394E+03  0.97490360305E+02 0.  0.
          2    1    3    3  502    0  0.65947551446E+03 -0.12855149604E+03 -0.21996538658E+04  0.22999805588E+04  0.00000000000E+00 0. -1.
         -3    1    3    3    0  502  0.14591501189E+03 -0.53603514892E+02 -0.64478524250E+03  0.66325902666E+03  0.00000000000E+00 0.  1.
         11    1    5    5    0    0  0.96261883134E+01 -0.28574943544E+02  0.41576157124E+02  0.51359203082E+02  0.00000000000E+00 0. -1.
        -11    1    5    5    0    0 -0.18091114966E+03 -0.24397463611E+03  0.32740084716E+03  0.44659129174E+03  0.00000000000E+00 0.  1.
          3    1    6    6  503    0 -0.29070512099E+03  0.14959958322E+03 -0.38115569192E+02  0.32915391428E+03  0.00000000000E+00 0. -1.
         -3    1    6    6    0  503 -0.34340044402E+03  0.30510500736E+03 -0.64321093338E+02  0.46384278966E+03  0.00000000000E+00 0.  1.
<mgrwt>
<rscale>  0 0.33841606E+04</rscale>
<asrwt>0</asrwt>
<pdfrwt beam="1">  1        2 0.52554504E+00 0.33841606E+04</pdfrwt>
<pdfrwt beam="2">  1       -1 0.12894523E+00 0.33841606E+04</pdfrwt>
<totfact> 0.45259625E-01</totfact>
</mgrwt>
</event>
<event>
12    6  0.1569942E-007  0.1839917E+04  0.7818608E-02  0.8685356E-01
         -1   -1    0    0    0  501 -0.00000000000E+00  0.00000000000E+00  0.87588777261E+03  0.87588777261E+03  0.00000000000E+00 0.  1.
          2   -1    0    0  501    0  0.00000000000E+00 -0.00000000000E+00 -0.96624630612E+03  0.96624630612E+03  0.00000000000E+00 0. -1.
         24    2    1    2    0    0 -0.44712915868E+03  0.54522449045E+03 -0.31766451612E+02  0.71040000330E+03  0.80404152294E+02 0.  0.
        254    2    1    2    0    0  0.44712915868E+03 -0.54522449045E+03 -0.58592081898E+02  0.11317340754E+04  0.88328633855E+03 0.  0.
         23    2    4    4    0    0  0.63110877850E+03 -0.31275093368E+03 -0.26599084052E+03  0.75847640730E+03  0.91781786701E+02 0.  0.
         23    2    4    4    0    0 -0.18397961981E+03 -0.23247355677E+03  0.20739875862E+03  0.37325766812E+03  0.91731055967E+02 0.  0.
          4    1    3    3  502    0 -0.43093645956E+03  0.54082517332E+03 -0.37844403812E+02  0.69255346304E+03  0.00000000000E+00 0. -1.
         -3    1    3    3    0  502 -0.16192699127E+02  0.43993171334E+01  0.60779521995E+01  0.17846540258E+02  0.00000000000E+00 0.  1.
         11    1    5    5    0    0 -0.32720704314E+01 -0.11133812194E+01 -0.64574124530E+00  0.35161121148E+01  0.00000000000E+00 0.  1.
        -11    1    5    5    0    0  0.63438084893E+03 -0.31163755246E+03 -0.26534509928E+03  0.75496029518E+03  0.00000000000E+00 0. -1.
          4    1    6    6  503    0 -0.17036023696E+03 -0.20710135517E+03  0.14575172890E+03  0.30521655939E+03  0.00000000000E+00 0. -1.
         -4    1    6    6    0  503 -0.13619382849E+02 -0.25372201607E+02  0.61647029723E+02  0.68041108730E+02  0.00000000000E+00 0.  1.
<mgrwt>
<rscale>  0 0.18399167E+04</rscale>
<asrwt>0</asrwt>
<pdfrwt beam="1">  1        2 0.14865328E+00 0.18399167E+04</pdfrwt>
<pdfrwt beam="2">  1       -1 0.13475197E+00 0.18399167E+04</pdfrwt>
<totfact> 0.13165473E+01</totfact>
</mgrwt>
</event>
<event>
12    6  0.1569942E-007  0.1395267E+04  0.7818608E-02  0.8957252E-01
          2   -1    0    0  501    0  0.00000000000E+00  0.00000000000E+00  0.27539241308E+04  0.27539241308E+04  0.00000000000E+00 0. -1.
         -1   -1    0    0    0  501 -0.00000000000E+00 -0.00000000000E+00 -0.17672689282E+03  0.17672689282E+03  0.00000000000E+00 0.  1.
         24    2    1    2    0    0 -0.90892852567E+02 -0.19376948103E+03  0.40941250934E+02  0.23125003463E+03  0.77409754317E+02 0.  0.
        254    2    1    2    0    0  0.90892852567E+02  0.19376948103E+03  0.25362559870E+04  0.26994009889E+04  0.89909017629E+03 0.  0.
         23    2    4    4    0    0 -0.23674258222E+03 -0.10674252378E+03  0.18830585144E+04  0.19031796593E+04  0.93500962829E+02 0.  0.
         23    2    4    4    0    0  0.32763543479E+03  0.30051200481E+03  0.65319747255E+03  0.79622132967E+03  0.98229448254E+02 0.  0.
          2    1    3    3  502    0 -0.35038371175E+02 -0.60066823944E+02  0.50642235561E+02  0.86025268474E+02  0.00000000000E+00 0. -1.
         -1    1    3    3    0  502 -0.55854481392E+02 -0.13370265708E+03 -0.97009846269E+01  0.14522476616E+03  0.00000000000E+00 0.  1.
         11    1    5    5    0    0 -0.22383658923E+03 -0.85943206081E+02  0.18166307306E+04  0.18323854029E+04  0.00000000000E+00 0. -1.
        -11    1    5    5    0    0 -0.12905992988E+02 -0.20799317696E+02  0.66427783849E+02  0.70794256397E+02  0.00000000000E+00 0.  1.
          1    1    6    6  503    0  0.24421367398E+03  0.17741660617E+03  0.38131317420E+03  0.48632983409E+03  0.00000000000E+00 0. -1.
         -1    1    6    6    0  503  0.83421760804E+02  0.12309539863E+03  0.27188429835E+03  0.30989149558E+03  0.00000000000E+00 0.  1.
<mgrwt>
<rscale>  0 0.13952669E+04</rscale>
<asrwt>0</asrwt>
<pdfrwt beam="1">  1        2 0.42368060E+00 0.13952669E+04</pdfrwt>
<pdfrwt beam="2">  1       -1 0.27188755E-01 0.13952669E+04</pdfrwt>
<totfact> 0.33331529E+01</totfact>
</mgrwt>
</event>
<event>
12    6  0.1569942E-007  0.1435034E+04  0.7818608E-02  0.8928843E-01
         -1   -1    0    0    0  501 -0.00000000000E+00  0.00000000000E+00  0.48927382610E+03  0.48927382610E+03  0.00000000000E+00 0.  1.
          2   -1    0    0  501    0  0.00000000000E+00 -0.00000000000E+00 -0.10522335015E+04  0.10522335015E+04  0.00000000000E+00 0. -1.
         24    2    1    2    0    0  0.19154293956E+03  0.27675118550E+03  0.11242388176E+03  0.36874683278E+03  0.10027552606E+03 0.  0.
        254    2    1    2    0    0 -0.19154293956E+03 -0.27675118550E+03 -0.67538355714E+03  0.11727604948E+04  0.89774401280E+03 0.  0.
         23    2    4    4    0    0 -0.82795334284E+01 -0.87009666592E+02  0.21053827350E+03  0.24412775020E+03  0.87365674367E+02 0.  0.
         23    2    4    4    0    0 -0.18326340613E+03 -0.18974151891E+03 -0.88592183063E+03  0.92863274458E+03  0.88960464759E+02 0.  0.
          4    1    3    3  502    0  0.89422870207E+01  0.83071223889E+02  0.41415390611E+02  0.93252492273E+02  0.00000000000E+00 0. -1.
         -3    1    3    3    0  502  0.18260065254E+03  0.19367996161E+03  0.71008491146E+02  0.27549434051E+03  0.00000000000E+00 0.  1.
         11    1    5    5    0    0  0.26472208053E+02 -0.30917192014E+01  0.85664462970E+02  0.89714752091E+02  0.00000000000E+00 0.  1.
        -11    1    5    5    0    0 -0.34751741482E+02 -0.83917947391E+02  0.12487381053E+03  0.15441299811E+03  0.00000000000E+00 0. -1.
          2    1    6    6  503    0 -0.13689234725E+03 -0.84089468237E+02 -0.57383876971E+03  0.59590392433E+03  0.00000000000E+00 0. -1.
         -2    1    6    6    0  503 -0.46371058879E+02 -0.10565205067E+03 -0.31208306092E+03  0.33272882025E+03  0.00000000000E+00 0.  1.
<mgrwt>
<rscale>  0 0.14350335E+04</rscale>
<asrwt>0</asrwt>
<pdfrwt beam="1">  1        2 0.16188207E+00 0.14350335E+04</pdfrwt>
<pdfrwt beam="2">  1       -1 0.75272897E-01 0.14350335E+04</pdfrwt>
<totfact> 0.45857121E+01</totfact>
</mgrwt>
</event>
<event>
12    6  0.1569942E-007  0.1927889E+04  0.7818608E-02  0.8641098E-01
          2   -1    0    0  501    0  0.00000000000E+00  0.00000000000E+00  0.11091745607E+04  0.11091745607E+04  0.00000000000E+00 0. -1.
         -1   -1    0    0    0  501 -0.00000000000E+00 -0.00000000000E+00 -0.83772981296E+03  0.83772981296E+03  0.00000000000E+00 0.  1.
         24    2    1    2    0    0  0.31940147610E+03  0.34769907556E+03 -0.48387603560E+03  0.68082460104E+03  0.80462223888E+02 0.  0.
        254    2    1    2    0    0 -0.31940147610E+03 -0.34769907556E+03  0.75532078338E+03  0.12660797727E+04  0.89974249364E+03 0.  0.
         23    2    4    4    0    0  0.82264324859E+02  0.21623850565E+03  0.16033075180E+02  0.24917774246E+03  0.91137134957E+02 0.  0.
         23    2    4    4    0    0 -0.40166580096E+03 -0.56393758120E+03  0.73928770820E+03  0.10169020302E+04  0.90456687822E+02 0.  0.
          2    1    3    3  502    0  0.11481290356E+03  0.73299963847E+02 -0.15130237025E+03  0.20358608687E+03  0.00000000000E+00 0. -1.
         -1    1    3    3    0  502  0.20458857254E+03  0.27439911171E+03 -0.33257366535E+03  0.47723851417E+03  0.00000000000E+00 0.  1.
         11    1    5    5    0    0  0.29120742558E+02  0.17010641169E+03 -0.12957741323E+02  0.17306678481E+03  0.00000000000E+00 0.  1.
        -11    1    5    5    0    0  0.53143582301E+02  0.46132093964E+02  0.28990816503E+02  0.76110957653E+02  0.00000000000E+00 0. -1.
          2    1    6    6  503    0 -0.80503483819E+02 -0.69896449149E+02  0.14528398591E+03  0.18020477539E+03  0.00000000000E+00 0. -1.
         -2    1    6    6    0  503 -0.32116231714E+03 -0.49404113206E+03  0.59400372229E+03  0.83669725481E+03  0.00000000000E+00 0.  1.
<mgrwt>
<rscale>  0 0.19278886E+04</rscale>
<asrwt>0</asrwt>
<pdfrwt beam="1">  1        2 0.17064224E+00 0.19278886E+04</pdfrwt>
<pdfrwt beam="2">  1       -1 0.12888151E+00 0.19278886E+04</pdfrwt>
<totfact> 0.11880046E+01</totfact>
</mgrwt>
</event>
<event>
12    6  0.1569942E-007  0.2022478E+04  0.7818608E-02  0.8596183E-01
         -1   -1    0    0    0  501 -0.00000000000E+00  0.00000000000E+00  0.10799936916E+04  0.10799936916E+04  0.00000000000E+00 0.  1.
          2   -1    0    0  501    0  0.00000000000E+00 -0.00000000000E+00 -0.94686136976E+03  0.94686136976E+03  0.00000000000E+00 0. -1.
         24    2    1    2    0    0  0.24536080385E+03  0.57852134784E+03  0.55956584540E+03  0.84485505492E+03  0.76008252981E+02 0.  0.
        254    2    1    2    0    0 -0.24536080385E+03 -0.57852134784E+03 -0.42643352360E+03  0.11820000064E+04  0.90575360396E+03 0.  0.
         23    2    4    4    0    0  0.50943888923E+02  0.21769551865E+02 -0.49154321052E+03  0.50307647150E+03  0.91662506839E+02 0.  0.
         23    2    4    4    0    0 -0.29630469277E+03 -0.60029089971E+03  0.65109686919E+02  0.67892353489E+03  0.92478428120E+02 0.  0.
          4    1    3    3  502    0  0.73918200008E+02  0.10029575249E+03  0.12176686067E+03  0.17421339391E+03  0.00000000000E+00 0. -1.
         -3    1    3    3    0  502  0.17144260384E+03  0.47822559535E+03  0.43779898473E+03  0.67064166101E+03  0.00000000000E+00 0.  1.
         11    1    5    5    0    0  0.18561101757E+02 -0.35493502820E+02 -0.22483485421E+03  0.22837472475E+03  0.00000000000E+00 0. -1.
        -11    1    5    5    0    0  0.32382787166E+02  0.57263054685E+02 -0.26670835632E+03  0.27470174675E+03  0.00000000000E+00 0.  1.
          1    1    6    6  503    0 -0.28602779537E+03 -0.51919466832E+03  0.70793624690E+02  0.59698135702E+03  0.00000000000E+00 0. -1.
         -1    1    6    6    0  503 -0.10276897407E+02 -0.81096231385E+02 -0.56839377707E+01  0.81942177868E+02  0.00000000000E+00 0.  1.
<mgrwt>
<rscale>  0 0.20224780E+04</rscale>
<asrwt>0</asrwt>
<pdfrwt beam="1">  1        2 0.14567098E+00 0.20224780E+04</pdfrwt>
<pdfrwt beam="2">  1       -1 0.16615288E+00 0.20224780E+04</pdfrwt>
<totfact> 0.75828803E+00</totfact>
</mgrwt>
</event>
<event>
12    6  0.1569942E-007  0.1919569E+04  0.7818608E-02  0.8645177E-01
          2   -1    0    0  501    0  0.00000000000E+00  0.00000000000E+00  0.22856956490E+04  0.22856956490E+04  0.00000000000E+00 0. -1.
         -1   -1    0    0    0  501 -0.00000000000E+00 -0.00000000000E+00 -0.40302211516E+03  0.40302211516E+03  0.00000000000E+00 0.  1.
         24    2    1    2    0    0 -0.16669168392E+03  0.53646363104E+03  0.14231651302E+04  0.15324028628E+04  0.85324095397E+02 0.  0.
        254    2    1    2    0    0  0.16669168392E+03 -0.53646363104E+03  0.45950840360E+03  0.11563149013E+04  0.90018711002E+03 0.  0.
         23    2    4    4    0    0 -0.21969818379E+03 -0.56484960801E+03  0.10212344515E+03  0.62147598702E+03  0.92091436952E+02 0.  0.
         23    2    4    4    0    0  0.38638986771E+03  0.28385976966E+02  0.35738495845E+03  0.53483891428E+03  0.90695987424E+02 0.  0.
          4    1    3    3  502    0 -0.16513257844E+03  0.42096427966E+03  0.11068811393E+04  0.11956862255E+04  0.00000000000E+00 0. -1.
         -3    1    3    3    0  502 -0.15591054821E+01  0.11549935139E+03  0.31628399092E+03  0.33671663738E+03  0.00000000000E+00 0.  1.
         11    1    5    5    0    0 -0.14844568006E+03 -0.29516565345E+03  0.89281129832E+02  0.34224260846E+03  0.00000000000E+00 0. -1.
        -11    1    5    5    0    0 -0.71252503734E+02 -0.26968395456E+03  0.12842315318E+02  0.27923337855E+03  0.00000000000E+00 0.  1.
          1    1    6    6  503    0  0.11290564703E+03  0.54096938284E+01  0.52525999659E+02  0.12464321304E+03  0.00000000000E+00 0. -1.
         -1    1    6    6    0  503  0.27348422069E+03  0.22976283138E+02  0.30485895880E+03  0.41019570123E+03  0.00000000000E+00 0.  1.
<mgrwt>
<rscale>  0 0.19195686E+04</rscale>
<asrwt>0</asrwt>
<pdfrwt beam="1">  1        2 0.35164548E+00 0.19195686E+04</pdfrwt>
<pdfrwt beam="2">  1       -1 0.62003404E-01 0.19195686E+04</pdfrwt>
<totfact> 0.12977753E+01</totfact>
</mgrwt>
</event>
<event>
12    6  0.1569942E-007  0.3040621E+04  0.7818608E-02  0.8232225E-01
         -1   -1    0    0    0  501 -0.00000000000E+00  0.00000000000E+00  0.19227082913E+04  0.19227082913E+04  0.00000000000E+00 0.  1.
          2   -1    0    0  501    0  0.00000000000E+00 -0.00000000000E+00 -0.12021296434E+04  0.12021296434E+04  0.00000000000E+00 0. -1.
         24    2    1    2    0    0  0.80301677048E+03 -0.15510674941E+03  0.14828517920E+04  0.16959979266E+04  0.93088628030E+02 0.  0.
        254    2    1    2    0    0 -0.80301677048E+03  0.15510674941E+03 -0.76227314415E+03  0.14288400081E+04  0.88973557025E+03 0.  0.
         23    2    4    4    0    0 -0.82697934790E+03  0.33014488701E+03 -0.82994046821E+03  0.12205080973E+04  0.89153499798E+02 0.  0.
         23    2    4    4    0    0  0.23962577426E+02 -0.17503813760E+03  0.67667324052E+02  0.20833191076E+03  0.87239690310E+02 0.  0.
          4    1    3    3  502    0  0.25392493774E+03 -0.70348785260E+01  0.48288554953E+03  0.54562424568E+03  0.00000000000E+00 0. -1.
         -3    1    3    3    0  502  0.54909183274E+03 -0.14807187088E+03  0.99996624250E+03  0.11503736810E+04  0.00000000000E+00 0.  1.
         11    1    5    5    0    0 -0.75938324060E+03  0.27865875132E+03 -0.73307892032E+03  0.10916585131E+04  0.00000000000E+00 0.  1.
        -11    1    5    5    0    0 -0.67596107299E+02  0.51486135687E+02 -0.96861547882E+02  0.12884958420E+03  0.00000000000E+00 0. -1.
          4    1    6    6  503    0  0.43561191415E+02 -0.60839089881E+02  0.13735895843E+01  0.74838886973E+02  0.00000000000E+00 0. -1.
         -4    1    6    6    0  503 -0.19598613989E+02 -0.11419904772E+03  0.66293734467E+02  0.13349302379E+03  0.00000000000E+00 0.  1.
<mgrwt>
<rscale>  0 0.30406214E+04</rscale>
<asrwt>0</asrwt>
<pdfrwt beam="1">  1        2 0.18494302E+00 0.30406214E+04</pdfrwt>
<pdfrwt beam="2">  1       -1 0.29580128E+00 0.30406214E+04</pdfrwt>
<totfact> 0.64534173E-01</totfact>
</mgrwt>
</event>
<event>
12    6  0.1569942E-007  0.1949440E+04  0.7818608E-02  0.8630631E-01
          2   -1    0    0  501    0  0.00000000000E+00  0.00000000000E+00  0.33422169620E+04  0.33422169620E+04  0.00000000000E+00 0. -1.
         -1   -1    0    0    0  501 -0.00000000000E+00 -0.00000000000E+00 -0.28426626371E+03  0.28426626371E+03  0.00000000000E+00 0.  1.
         24    2    1    2    0    0 -0.48493829940E+03 -0.33727760752E+03  0.21053005337E+04  0.21880525027E+04  0.79762636957E+02 0.  0.
        254    2    1    2    0    0  0.48493829940E+03  0.33727760752E+03  0.95265016457E+03  0.14384307231E+04  0.90145397568E+03 0.  0.
         23    2    4    4    0    0 -0.10279767378E+03 -0.22110878838E+03  0.22268846657E+03  0.34360927936E+03  0.94977500941E+02 0.  0.
         23    2    4    4    0    0  0.58773597318E+03  0.55838639590E+03  0.72996169800E+03  0.10948214437E+04  0.92525519551E+02 0.  0.
          2    1    3    3  502    0 -0.43897868953E+03 -0.30804521950E+03  0.18101757797E+04  0.18879434580E+04  0.00000000000E+00 0. -1.
         -1    1    3    3    0  502 -0.45959609872E+02 -0.29232388020E+02  0.29512475406E+03  0.30010904470E+03  0.00000000000E+00 0.  1.
         11    1    5    5    0    0 -0.11559518385E+03 -0.15505812916E+03  0.15167085703E+03  0.24578307269E+03  0.00000000000E+00 0.  1.
        -11    1    5    5    0    0  0.12797510065E+02 -0.66050659226E+02  0.71017609534E+02  0.97826206673E+02  0.00000000000E+00 0. -1.
          3    1    6    6  503    0  0.20921285483E+03  0.24177765857E+03  0.24362961077E+03  0.40197243942E+03  0.00000000000E+00 0. -1.
         -3    1    6    6    0  503  0.37852311835E+03  0.31660873733E+03  0.48633208723E+03  0.69284900429E+03  0.00000000000E+00 0.  1.
<mgrwt>
<rscale>  0 0.19494405E+04</rscale>
<asrwt>0</asrwt>
<pdfrwt beam="1">  1        2 0.51418720E+00 0.19494405E+04</pdfrwt>
<pdfrwt beam="2">  1       -1 0.43733274E-01 0.19494405E+04</pdfrwt>
<totfact> 0.57519529E+00</totfact>
</mgrwt>
</event>
<event>
12    6  0.1569942E-007  0.2042030E+04  0.7818608E-02  0.8587219E-01
         -1   -1    0    0    0  501 -0.00000000000E+00  0.00000000000E+00  0.48826332990E+03  0.48826332990E+03  0.00000000000E+00 0.  1.
          2   -1    0    0  501    0  0.00000000000E+00 -0.00000000000E+00 -0.21350598569E+04  0.21350598569E+04  0.00000000000E+00 0. -1.
         24    2    1    2    0    0 -0.40974506236E+03 -0.29822643568E+03 -0.14894993252E+04  0.15750452007E+04  0.73000831022E+02 0.  0.
        254    2    1    2    0    0  0.40974506236E+03  0.29822643568E+03 -0.15729720182E+03  0.10482779861E+04  0.90405436974E+03 0.  0.
         23    2    4    4    0    0  0.15649762454E+03  0.58440597056E+03 -0.22096351004E+03  0.65052041767E+03  0.91269360286E+02 0.  0.
         23    2    4    4    0    0  0.25324743783E+03 -0.28617953488E+03  0.63666308221E+02  0.39775756846E+03  0.90137081803E+02 0.  0.
          2    1    3    3  502    0 -0.35374030555E+03 -0.26777209929E+03 -0.13630299833E+04  0.14334171885E+04  0.00000000000E+00 0. -1.
         -1    1    3    3    0  502 -0.56004756819E+02 -0.30454336392E+02 -0.12646934193E+03  0.14162801220E+03  0.00000000000E+00 0.  1.
         11    1    5    5    0    0  0.28817804330E+02  0.11647928319E+03 -0.64395210782E+01  0.12016387431E+03  0.00000000000E+00 0.  1.
        -11    1    5    5    0    0  0.12767982021E+03  0.46792668738E+03 -0.21452398896E+03  0.53035654336E+03  0.00000000000E+00 0. -1.
          4    1    6    6  503    0  0.21544732900E+03 -0.26196348746E+03  0.27834840060E+02  0.34031925990E+03  0.00000000000E+00 0.  1.
         -4    1    6    6    0  503  0.37800108825E+02 -0.24216047414E+02  0.35831468162E+02  0.57438308560E+02  0.00000000000E+00 0. -1.
<mgrwt>
<rscale>  0 0.20420298E+04</rscale>
<asrwt>0</asrwt>
<pdfrwt beam="1">  1        2 0.32847074E+00 0.20420298E+04</pdfrwt>
<pdfrwt beam="2">  1       -1 0.75117436E-01 0.20420298E+04</pdfrwt>
<totfact> 0.10549119E+01</totfact>
</mgrwt>
</event>
<event>
12    6  0.1569942E-007  0.1185076E+04  0.7818608E-02  0.9126020E-01
          2   -1    0    0  501    0  0.00000000000E+00  0.00000000000E+00  0.31132061938E+03  0.31132061938E+03  0.00000000000E+00 0. -1.
         -1   -1    0    0    0  501 -0.00000000000E+00 -0.00000000000E+00 -0.11277813154E+04  0.11277813154E+04  0.00000000000E+00 0.  1.
         24    2    1    2    0    0  0.49953017185E+02 -0.17398880934E+02 -0.45306916360E+03  0.46298189329E+03  0.79262484984E+02 0.  0.
        254    2    1    2    0    0 -0.49953017185E+02  0.17398880934E+02 -0.36339153245E+03  0.97612004152E+03  0.90441080524E+03 0.  0.
         23    2    4    4    0    0 -0.40681517175E+03  0.22794111556E+03 -0.25093790358E+03  0.53745984913E+03  0.91855984281E+02 0.  0.
         23    2    4    4    0    0  0.35686215456E+03 -0.21054223463E+03 -0.11245362887E+03  0.43866019239E+03  0.89990642972E+02 0.  0.
          4    1    3    3  502    0  0.32556901589E+02  0.28589902025E+02 -0.15750867352E+03  0.16335947041E+03  0.00000000000E+00 0. -1.
         -3    1    3    3    0  502  0.17396115596E+02 -0.45988782958E+02 -0.29556049008E+03  0.29962242288E+03  0.00000000000E+00 0.  1.
         11    1    5    5    0    0 -0.62743762218E+02  0.77018399547E+02 -0.59270137874E+02  0.11567870508E+03  0.00000000000E+00 0.  1.
        -11    1    5    5    0    0 -0.34407140953E+03  0.15092271602E+03 -0.19166776570E+03  0.42178114405E+03  0.00000000000E+00 0. -1.
          4    1    6    6  503    0  0.23307409566E+03 -0.10012983824E+03 -0.36725526098E+02  0.25631676270E+03  0.00000000000E+00 0. -1.
         -4    1    6    6    0  503  0.12378805890E+03 -0.11041239639E+03 -0.75728102772E+02  0.18234342969E+03  0.00000000000E+00 0.  1.
<mgrwt>
<rscale>  0 0.11850765E+04</rscale>
<asrwt>0</asrwt>
<pdfrwt beam="1">  1        2 0.47895479E-01 0.11850765E+04</pdfrwt>
<pdfrwt beam="2">  1       -1 0.17350482E+00 0.11850765E+04</pdfrwt>
<totfact> 0.27648544E+01</totfact>
</mgrwt>
</event>
<event>
12    6  0.1569942E-007  0.2336007E+04  0.7818608E-02  0.8463858E-01
         -1   -1    0    0    0  501 -0.00000000000E+00  0.00000000000E+00  0.47271987709E+03  0.47271987709E+03  0.00000000000E+00 0.  1.
          2   -1    0    0  501    0  0.00000000000E+00 -0.00000000000E+00 -0.28859205460E+04  0.28859205460E+04  0.00000000000E+00 0. -1.
         24    2    1    2    0    0  0.82764882990E+03 -0.13723368630E+03 -0.17941171363E+04  0.19821779637E+04  0.79608484216E+02 0.  0.
        254    2    1    2    0    0 -0.82764882990E+03  0.13723368630E+03 -0.61908353259E+03  0.13764624594E+04  0.89863719678E+03 0.  0.
         23    2    4    4    0    0 -0.55109669662E+02 -0.30457938928E+03 -0.80198906015E+02  0.33193298660E+03  0.89117691860E+02 0.  0.
         23    2    4    4    0    0 -0.77253916024E+03  0.44181307558E+03 -0.53888462657E+03  0.10445294728E+04  0.92895806533E+02 0.  0.
          4    1    3    3  502    0  0.73889783634E+03 -0.10048145242E+03 -0.16179151718E+04  0.17814926432E+04  0.00000000000E+00 0. -1.
         -3    1    3    3    0  502  0.88750993559E+02 -0.36752233887E+02 -0.17620196458E+03  0.20068532052E+03  0.00000000000E+00 0.  1.
         11    1    5    5    0    0 -0.33308144452E+02 -0.24996984068E+02 -0.90442597358E+01  0.42615494054E+02  0.00000000000E+00 0. -1.
        -11    1    5    5    0    0 -0.21801525211E+02 -0.27958240521E+03 -0.71154646279E+02  0.28931749254E+03  0.00000000000E+00 0.  1.
          2    1    6    6  503    0 -0.10468067242E+03  0.55632495673E+02 -0.37055827218E+02  0.12420206151E+03  0.00000000000E+00 0. -1.
         -2    1    6    6    0  503 -0.66785848782E+03  0.38618057991E+03 -0.50182879935E+03  0.92032741126E+03  0.00000000000E+00 0.  1.
<mgrwt>
<rscale>  0 0.23360069E+04</rscale>
<asrwt>0</asrwt>
<pdfrwt beam="1">  1        2 0.44398777E+00 0.23360069E+04</pdfrwt>
<pdfrwt beam="2">  1       -1 0.72726136E-01 0.23360069E+04</pdfrwt>
<totfact> 0.40199759E+00</totfact>
</mgrwt>
</event>
<event>
12    6  0.1569942E-007  0.1730723E+04  0.7818608E-02  0.8744034E-01
         -1   -1    0    0    0  501 -0.00000000000E+00  0.00000000000E+00  0.37907731891E+03  0.37907731891E+03  0.00000000000E+00 0.  1.
          2   -1    0    0  501    0  0.00000000000E+00 -0.00000000000E+00 -0.19754548898E+04  0.19754548898E+04  0.00000000000E+00 0. -1.
         24    2    1    2    0    0  0.33632138279E+03  0.68835522488E+02 -0.13233969550E+04  0.13694884884E+04  0.79175866668E+02 0.  0.
        254    2    1    2    0    0 -0.33632138279E+03 -0.68835522488E+02 -0.27298061591E+03  0.98504372027E+03  0.88201038117E+03 0.  0.
         23    2    4    4    0    0 -0.10916236332E+03  0.19905892962E+03 -0.49991979735E+03  0.55665074243E+03  0.91648056412E+02 0.  0.
         23    2    4    4    0    0 -0.22715901947E+03 -0.26789445211E+03  0.22693918143E+03  0.42839297784E+03  0.93008030798E+02 0.  0.
          2    1    3    3  502    0  0.28082630978E+03  0.42426330982E+02 -0.96754557236E+03  0.10083689029E+04  0.00000000000E+00 0. -1.
         -1    1    3    3    0  502  0.55495073014E+02  0.26409191506E+02 -0.35585138260E+03  0.36111958549E+03  0.00000000000E+00 0.  1.
         11    1    5    5    0    0 -0.11317678876E+03  0.12795160969E+03 -0.31226728210E+03  0.35593743187E+03  0.00000000000E+00 0. -1.
        -11    1    5    5    0    0  0.40144254322E+01  0.71107319930E+02 -0.18765251525E+03  0.20071331056E+03  0.00000000000E+00 0.  1.
          2    1    6    6  503    0 -0.72710150331E+02 -0.14157902267E+03  0.13501413248E+03  0.20871080852E+03  0.00000000000E+00 0. -1.
         -2    1    6    6    0  503 -0.15444886914E+03 -0.12631542944E+03  0.91925048949E+02  0.21968216932E+03  0.00000000000E+00 0.  1.
<mgrwt>
<rscale>  0 0.17307226E+04</rscale>
<asrwt>0</asrwt>
<pdfrwt beam="1">  1        2 0.30391613E+00 0.17307226E+04</pdfrwt>
<pdfrwt beam="2">  1       -1 0.58319588E-01 0.17307226E+04</pdfrwt>
<totfact> 0.22208233E+01</totfact>
</mgrwt>
</event>
<event>
12    6  0.1569942E-007  0.3890495E+04  0.7818608E-02  0.8027009E-01
         -1   -1    0    0    0  501 -0.00000000000E+00  0.00000000000E+00  0.13411015954E+04  0.13411015954E+04  0.00000000000E+00 0.  1.
          2   -1    0    0  501    0  0.00000000000E+00 -0.00000000000E+00 -0.28215520263E+04  0.28215520263E+04  0.00000000000E+00 0. -1.
         24    2    1    2    0    0 -0.86034721758E+03  0.61839280219E+03 -0.23094048665E+04  0.25421176268E+04  0.80026238306E+02 0.  0.
        254    2    1    2    0    0  0.86034721758E+03 -0.61839280219E+03  0.82895443555E+03  0.16205359949E+04  0.90352889389E+03 0.  0.
         23    2    4    4    0    0  0.79730101779E+03 -0.80367021924E+02  0.30626132604E+03  0.86255282733E+03  0.89741901745E+02 0.  0.
         23    2    4    4    0    0  0.63046199791E+02 -0.53802578026E+03  0.52269310951E+03  0.75798316761E+03  0.88790946156E+02 0.  0.
          2    1    3    3  502    0 -0.67497539472E+03  0.51764777532E+03 -0.18062376233E+04  0.19965082907E+04  0.00000000000E+00 0. -1.
         -1    1    3    3    0  502 -0.18537182286E+03  0.10074502687E+03 -0.50316724314E+03  0.54560933617E+03  0.00000000000E+00 0.  1.
         11    1    5    5    0    0  0.23051092250E+03 -0.63379978633E+02  0.81240687956E+02  0.25249228991E+03  0.00000000000E+00 0. -1.
        -11    1    5    5    0    0  0.56679009529E+03 -0.16987043291E+02  0.22502063809E+03  0.61006053743E+03  0.00000000000E+00 0.  1.
          3    1    6    6  503    0  0.77927792932E+01 -0.35004474610E+02  0.71555089826E+02  0.80038562780E+02  0.00000000000E+00 0. -1.
         -3    1    6    6    0  503  0.55253420498E+02 -0.50302130565E+03  0.45113801968E+03  0.67794460483E+03  0.00000000000E+00 0.  1.
<mgrwt>
<rscale>  0 0.38904950E+04</rscale>
<asrwt>0</asrwt>
<pdfrwt beam="1">  1        2 0.43408492E+00 0.38904950E+04</pdfrwt>
<pdfrwt beam="2">  1       -1 0.20632332E+00 0.38904950E+04</pdfrwt>
<totfact> 0.27617089E-01</totfact>
</mgrwt>
</event>
<event>
12    6  0.1569942E-007  0.1532021E+04  0.7818608E-02  0.8863434E-01
          2   -1    0    0  501    0  0.00000000000E+00  0.00000000000E+00  0.16642337515E+04  0.16642337515E+04  0.00000000000E+00 0. -1.
         -1   -1    0    0    0  501 -0.00000000000E+00 -0.00000000000E+00 -0.35257795248E+03  0.35257795248E+03  0.00000000000E+00 0.  1.
         24    2    1    2    0    0 -0.22680022064E+03 -0.39892986191E+03  0.37036826347E+03  0.59361817028E+03  0.68018429115E+02 0.  0.
        254    2    1    2    0    0  0.22680022064E+03  0.39892986191E+03  0.94128753558E+03  0.14231935337E+04  0.96378121741E+03 0.  0.
         23    2    4    4    0    0 -0.34539711572E+03 -0.10277528537E+02  0.34103178836E+03  0.49408930605E+03  0.91742937276E+02 0.  0.
         23    2    4    4    0    0  0.57219733636E+03  0.40920739044E+03  0.60025574722E+03  0.92910422768E+03  0.89817724891E+02 0.  0.
          4    1    3    3  502    0 -0.17651752839E+03 -0.31931162079E+03  0.32699308448E+03  0.48994165601E+03  0.00000000000E+00 0. -1.
         -3    1    3    3    0  502 -0.50282692247E+02 -0.79618241117E+02  0.43375178994E+02  0.10367651427E+03  0.00000000000E+00 0.  1.
         11    1    5    5    0    0 -0.19806336648E+03 -0.48987589132E+02  0.17545385552E+03  0.26909651883E+03  0.00000000000E+00 0.  1.
        -11    1    5    5    0    0 -0.14733374924E+03  0.38710060595E+02  0.16557793285E+03  0.22499278722E+03  0.00000000000E+00 0. -1.
          3    1    6    6  503    0 -0.21615202004E+01 -0.18744229863E+01  0.25267112789E+01  0.38170539681E+01  0.00000000000E+00 0. -1.
         -3    1    6    6    0  503  0.57435885656E+03  0.41108181343E+03  0.59772903594E+03  0.92528717371E+03  0.00000000000E+00 0.  1.
<mgrwt>
<rscale>  0 0.15320211E+04</rscale>
<asrwt>0</asrwt>
<pdfrwt beam="1">  1        2 0.25603596E+00 0.15320211E+04</pdfrwt>
<pdfrwt beam="2">  1       -1 0.54242763E-01 0.15320211E+04</pdfrwt>
<totfact> 0.38695072E+01</totfact>
</mgrwt>
</event>
<event>
12    6  0.1569942E-007  0.2483360E+04  0.7818608E-02  0.8408938E-01
          2   -1    0    0  501    0  0.00000000000E+00  0.00000000000E+00  0.13119998876E+04  0.13119998876E+04  0.00000000000E+00 0. -1.
         -1   -1    0    0    0  501 -0.00000000000E+00 -0.00000000000E+00 -0.11751287807E+04  0.11751287807E+04  0.00000000000E+00 0.  1.
         24    2    1    2    0    0 -0.13980996265E+03 -0.10612181144E+04  0.15444625403E+03  0.10844488353E+04  0.80280253693E+02 0.  0.
        254    2    1    2    0    0  0.13980996265E+03  0.10612181144E+04 -0.17575147090E+02  0.14026798330E+04  0.90635043778E+03 0.  0.
         23    2    4    4    0    0 -0.11059327943E+03  0.40187460982E+03 -0.40899293262E+03  0.59056829841E+03  0.88100060674E+02 0.  0.
         23    2    4    4    0    0  0.25040324208E+03  0.65934350457E+03  0.39141778553E+03  0.81211153455E+03  0.94242352793E+02 0.  0.
          4    1    3    3  502    0 -0.10775518797E+03 -0.70745648668E+03  0.67782602619E+02  0.71881871309E+03  0.00000000000E+00 0. -1.
         -3    1    3    3    0  502 -0.32054774672E+02 -0.35376162771E+03  0.86663651409E+02  0.36563012225E+03  0.00000000000E+00 0.  1.
         11    1    5    5    0    0 -0.85232068926E+02  0.35324853652E+03 -0.38866337775E+03  0.53207918145E+03  0.00000000000E+00 0.  1.
        -11    1    5    5    0    0 -0.25361210505E+02  0.48626073293E+02 -0.20329554869E+02  0.58489116965E+02  0.00000000000E+00 0. -1.
          4    1    6    6  503    0  0.10914590591E+02  0.23946856498E+02 -0.35653613891E+01  0.26557334688E+02  0.00000000000E+00 0. -1.
         -4    1    6    6    0  503  0.23948865149E+03  0.63539664808E+03  0.39498314692E+03  0.78555419987E+03  0.00000000000E+00 0.  1.
<mgrwt>
<rscale>  0 0.24833597E+04</rscale>
<asrwt>0</asrwt>
<pdfrwt beam="1">  1        2 0.20184614E+00 0.24833597E+04</pdfrwt>
<pdfrwt beam="2">  1       -1 0.18078904E+00 0.24833597E+04</pdfrwt>
<totfact> 0.34005610E+00</totfact>
</mgrwt>
</event>
<event>
12    6  0.1569942E-007  0.2961628E+04  0.7818608E-02  0.8254774E-01
         -1   -1    0    0    0  501 -0.00000000000E+00  0.00000000000E+00  0.60435762586E+03  0.60435762586E+03  0.00000000000E+00 0.  1.
          2   -1    0    0  501    0  0.00000000000E+00 -0.00000000000E+00 -0.36283326179E+04  0.36283326179E+04  0.00000000000E+00 0. -1.
         24    2    1    2    0    0  0.11125663834E+03  0.18199575843E+02 -0.32832119846E+04  0.32861611596E+04  0.81639247710E+02 0.  0.
        254    2    1    2    0    0 -0.11125663834E+03 -0.18199575843E+02  0.25923699260E+03  0.94652908414E+03  0.90332952164E+03 0.  0.
         23    2    4    4    0    0 -0.39773766584E+03  0.21585557994E+02 -0.15136998864E+03  0.43605587258E+03  0.92577877502E+02 0.  0.
         23    2    4    4    0    0  0.28648102750E+03 -0.39785133837E+02  0.41060698124E+03  0.51047321157E+03  0.91271960063E+02 0.  0.
          4    1    3    3  502    0  0.18758927565E+02 -0.11018045677E+02 -0.16054106167E+04  0.16055580161E+04  0.00000000000E+00 0. -1.
         -3    1    3    3    0  502  0.92497710780E+02  0.29217621521E+02 -0.16778013679E+04  0.16806031435E+04  0.00000000000E+00 0.  1.
         11    1    5    5    0    0 -0.24516278967E+03  0.33728556401E+02 -0.13560212414E+03  0.28218849202E+03  0.00000000000E+00 0.  1.
        -11    1    5    5    0    0 -0.15257487617E+03 -0.12142998407E+02 -0.15767864504E+02  0.15386738056E+03  0.00000000000E+00 0. -1.
          1    1    6    6  503    0  0.37291623906E+02  0.25110485501E+02  0.48352365674E+02  0.66023881755E+02  0.00000000000E+00 0. -1.
         -1    1    6    6    0  503  0.24918940359E+03 -0.64895619339E+02  0.36225461557E+03  0.44444932981E+03  0.00000000000E+00 0.  1.
<mgrwt>
<rscale>  0 0.29616283E+04</rscale>
<asrwt>0</asrwt>
<pdfrwt beam="1">  1        2 0.55820501E+00 0.29616283E+04</pdfrwt>
<pdfrwt beam="2">  1       -1 0.92978098E-01 0.29616283E+04</pdfrwt>
<totfact> 0.72155469E-01</totfact>
</mgrwt>
</event>
<event>
12    6  0.1569942E-007  0.2734106E+04  0.7818608E-02  0.8324023E-01
         -1   -1    0    0    0  501 -0.00000000000E+00  0.00000000000E+00  0.59186553012E+03  0.59186553012E+03  0.00000000000E+00 0.  1.
          2   -1    0    0  501    0  0.00000000000E+00 -0.00000000000E+00 -0.31575318075E+04  0.31575318075E+04  0.00000000000E+00 0. -1.
         24    2    1    2    0    0 -0.10585953697E+04 -0.54786571663E+03 -0.78402929061E+03  0.14309986122E+04  0.11078853471E+03 0.  0.
        254    2    1    2    0    0  0.10585953697E+04  0.54786571663E+03 -0.17816369868E+04  0.23183987254E+04  0.88315417507E+03 0.  0.
         23    2    4    4    0    0  0.11784737912E+04  0.47415786700E+03 -0.17234380880E+04  0.21429715547E+04  0.91989574244E+02 0.  0.
         23    2    4    4    0    0 -0.11987842147E+03  0.73707849632E+02 -0.58198898763E+02  0.17542717066E+03  0.87085574903E+02 0.  0.
          4    1    3    3  502    0 -0.46159394778E+03 -0.24922028059E+03 -0.28057300294E+03  0.59489573108E+03  0.00000000000E+00 0. -1.
         -3    1    3    3    0  502 -0.59700142195E+03 -0.29864543604E+03 -0.50345628768E+03  0.83610288116E+03  0.00000000000E+00 0.  1.
         11    1    5    5    0    0  0.77406137559E+03  0.35524966242E+03 -0.11777091177E+04  0.14534001864E+04  0.00000000000E+00 0. -1.
        -11    1    5    5    0    0  0.40441241561E+03  0.11890820459E+03 -0.54572897027E+03  0.68957136832E+03  0.00000000000E+00 0.  1.
          1    1    6    6  503    0 -0.92088150195E+02  0.11490140979E+02 -0.13123168504E+02  0.93725494385E+02  0.00000000000E+00 0. -1.
         -1    1    6    6    0  503 -0.27790271277E+02  0.62217708653E+02 -0.45075730259E+02  0.81701676275E+02  0.00000000000E+00 0.  1.
<mgrwt>
<rscale>  0 0.27341062E+04</rscale>
<asrwt>0</asrwt>
<pdfrwt beam="1">  1        2 0.48577412E+00 0.27341062E+04</pdfrwt>
<pdfrwt beam="2">  1       -1 0.91056237E-01 0.27341062E+04</pdfrwt>
<totfact> 0.16171641E+00</totfact>
</mgrwt>
</event>
<event>
12    6  0.1569942E-007  0.1913347E+04  0.7818608E-02  0.8648241E-01
          2   -1    0    0  501    0  0.00000000000E+00  0.00000000000E+00  0.14911499701E+04  0.14911499701E+04  0.00000000000E+00 0. -1.
         -1   -1    0    0    0  501 -0.00000000000E+00 -0.00000000000E+00 -0.61377075624E+03  0.61377075624E+03  0.00000000000E+00 0.  1.
         24    2    1    2    0    0 -0.69034741639E+03  0.26844944489E+03  0.36839595800E+03  0.83113676493E+03  0.80175310227E+02 0.  0.
        254    2    1    2    0    0  0.69034741639E+03 -0.26844944489E+03  0.50898325586E+03  0.12737839614E+04  0.90267212531E+03 0.  0.
         23    2    4    4    0    0  0.69624660825E+03  0.16618682262E+03  0.33951951766E+03  0.79746206746E+03  0.91076048756E+02 0.  0.
         23    2    4    4    0    0 -0.58991918641E+01 -0.43463626751E+03  0.16946373820E+03  0.47632189394E+03  0.96026572271E+02 0.  0.
          2    1    3    3  502    0 -0.37101626466E+03  0.16521686913E+03  0.24039073725E+03  0.47195062140E+03  0.00000000000E+00 0. -1.
         -1    1    3    3    0  502 -0.31933115173E+03  0.10323257576E+03  0.12800522076E+03  0.35918614353E+03  0.00000000000E+00 0.  1.
         11    1    5    5    0    0  0.23237895605E+03  0.98930343850E+02  0.10801554518E+03  0.27468991636E+03  0.00000000000E+00 0.  1.
        -11    1    5    5    0    0  0.46386765220E+03  0.67256478769E+02  0.23150397248E+03  0.52277215111E+03  0.00000000000E+00 0. -1.
          2    1    6    6  503    0 -0.80024697096E+01 -0.43861558252E+03  0.17194501469E+03  0.47118229681E+03  0.00000000000E+00 0. -1.
         -2    1    6    6    0  503  0.21032778456E+01  0.39793150088E+01 -0.24812764911E+01  0.51395971301E+01  0.00000000000E+00 0.  1.
<mgrwt>
<rscale>  0 0.19133471E+04</rscale>
<asrwt>0</asrwt>
<pdfrwt beam="1">  1        2 0.22940769E+00 0.19133471E+04</pdfrwt>
<pdfrwt beam="2">  1       -1 0.94426270E-01 0.19133471E+04</pdfrwt>
<totfact> 0.14858375E+01</totfact>
</mgrwt>
</event>
<event>
12    6  0.1569942E-007  0.1200448E+04  0.7818608E-02  0.9112465E-01
         -1   -1    0    0    0  501 -0.00000000000E+00  0.00000000000E+00  0.10672084511E+04  0.10672084511E+04  0.00000000000E+00 0.  1.
          2   -1    0    0  501    0  0.00000000000E+00 -0.00000000000E+00 -0.33758034093E+03  0.33758034093E+03  0.00000000000E+00 0. -1.
         24    2    1    2    0    0  0.15449034017E+03  0.73036874932E+02  0.37798078996E+03  0.42176908606E+03  0.76276038601E+02 0.  0.
        254    2    1    2    0    0 -0.15449034017E+03 -0.73036874932E+02  0.35164732023E+03  0.98301970601E+03  0.90192585852E+03 0.  0.
         23    2    4    4    0    0 -0.41245074967E+03  0.46446112377E+02 -0.10486182119E+03  0.43751172331E+03  0.90264302091E+02 0.  0.
         23    2    4    4    0    0  0.25796040950E+03 -0.11948298731E+03  0.45650914142E+03  0.54550798270E+03  0.91425411454E+02 0.  0.
          4    1    3    3  502    0  0.46480016552E+02  0.39234028825E+02  0.65318716594E+02  0.89253771316E+02  0.00000000000E+00 0. -1.
         -3    1    3    3    0  502  0.10801032362E+03  0.33802846107E+02  0.31266207337E+03  0.33251531474E+03  0.00000000000E+00 0.  1.
         11    1    5    5    0    0 -0.28831016739E+03 -0.64574926607E+01 -0.54561688186E+02  0.29349860247E+03  0.00000000000E+00 0. -1.
        -11    1    5    5    0    0 -0.12414058228E+03  0.52903605037E+02 -0.50300133006E+02  0.14401312084E+03  0.00000000000E+00 0.  1.
          1    1    6    6  503    0  0.22286310036E+03 -0.11723657224E+03  0.33549450489E+03  0.41948651729E+03  0.00000000000E+00 0. -1.
         -1    1    6    6    0  503  0.35097309131E+02 -0.22464150710E+01  0.12101463653E+03  0.12602146541E+03  0.00000000000E+00 0.  1.
<mgrwt>
<rscale>  0 0.12004476E+04</rscale>
<asrwt>0</asrwt>
<pdfrwt beam="1">  1        2 0.51935438E-01 0.12004476E+04</pdfrwt>
<pdfrwt beam="2">  1       -1 0.16418591E+00 0.12004476E+04</pdfrwt>
<totfact> 0.29552881E+01</totfact>
</mgrwt>
</event>
<event>
12    6  0.1569942E-007  0.2738289E+04  0.7818608E-02  0.8322687E-01
          2   -1    0    0  501    0  0.00000000000E+00  0.00000000000E+00  0.27062086955E+04  0.27062086955E+04  0.00000000000E+00 0. -1.
         -3   -1    0    0    0  501 -0.00000000000E+00 -0.00000000000E+00 -0.69268748671E+03  0.69268748671E+03  0.00000000000E+00 0.  1.
         24    2    1    2    0    0 -0.94019854288E+03  0.54602497803E+03  0.21274149443E+03  0.11107962380E+04  0.80577677756E+02 0.  0.
        254    2    1    2    0    0  0.94019854288E+03 -0.54602497803E+03  0.18007797143E+04  0.22880999442E+04  0.90026507127E+03 0.  0.
         23    2    4    4    0    0  0.98307045165E+03 -0.70245811899E+03  0.14398321912E+04  0.18818484986E+04  0.91444579181E+02 0.  0.
         23    2    4    4    0    0 -0.42871908773E+02  0.15643314096E+03  0.36094752318E+03  0.40625144565E+03  0.91911884170E+02 0.  0.
          4    1    3    3  502    0 -0.12217484357E+03  0.97912187144E+02  0.14472467376E+02  0.15723530490E+03  0.00000000000E+00 0. -1.
         -3    1    3    3    0  502 -0.81802369931E+03  0.44811279088E+03  0.19826902706E+03  0.95356093306E+03  0.00000000000E+00 0.  1.
         11    1    5    5    0    0  0.58048936622E+03 -0.46229002590E+03  0.84779348634E+03  0.11266915140E+04  0.00000000000E+00 0. -1.
        -11    1    5    5    0    0  0.40258108544E+03 -0.24016809308E+03  0.59203870481E+03  0.75515698453E+03  0.00000000000E+00 0.  1.
          2    1    6    6  503    0  0.13807783049E+02  0.10841116603E+03  0.24863394678E+03  0.27159248017E+03  0.00000000000E+00 0. -1.
         -2    1    6    6    0  503 -0.56679691822E+02  0.48021974926E+02  0.11231357640E+03  0.13465896549E+03  0.00000000000E+00 0.  1.
<mgrwt>
<rscale>  0 0.27382892E+04</rscale>
<asrwt>0</asrwt>
<pdfrwt beam="1">  1        2 0.41633979E+00 0.27382892E+04</pdfrwt>
<pdfrwt beam="2">  1       -3 0.10656731E+00 0.27382892E+04</pdfrwt>
<totfact> 0.11061821E+00</totfact>
</mgrwt>
</event>
<event>
12    6  0.1569942E-007  0.1791050E+04  0.7818608E-02  0.8711074E-01
         -1   -1    0    0    0  501 -0.00000000000E+00  0.00000000000E+00  0.54067120169E+03  0.54067120169E+03  0.00000000000E+00 0.  1.
          2   -1    0    0  501    0  0.00000000000E+00 -0.00000000000E+00 -0.14832761812E+04  0.14832761812E+04  0.00000000000E+00 0. -1.
         24    2    1    2    0    0  0.98244874420E+02  0.39627522439E+03  0.24463482932E+03  0.48066755606E+03  0.67149020184E+02 0.  0.
        254    2    1    2    0    0 -0.98244874420E+02 -0.39627522439E+03 -0.11872398088E+04  0.15432798268E+04  0.89748991717E+03 0.  0.
         23    2    4    4    0    0 -0.48034304018E+03 -0.22296794552E+03 -0.80672523366E+03  0.96929920843E+03  0.91056091902E+02 0.  0.
         23    2    4    4    0    0  0.38209816576E+03 -0.17330727887E+03 -0.38051457514E+03  0.57398061837E+03  0.92886959184E+02 0.  0.
          2    1    3    3  502    0  0.65106936401E+02  0.14799722426E+03  0.75593989054E+02  0.17848401255E+03  0.00000000000E+00 0. -1.
         -1    1    3    3    0  502  0.33137938019E+02  0.24827800013E+03  0.16904084027E+03  0.30218354350E+03  0.00000000000E+00 0.  1.
         11    1    5    5    0    0 -0.10699005717E+03 -0.34828839755E+02 -0.11389095876E+03  0.16009706712E+03  0.00000000000E+00 0.  1.
        -11    1    5    5    0    0 -0.37335298301E+03 -0.18813910576E+03 -0.69283427489E+03  0.80920214131E+03  0.00000000000E+00 0. -1.
          2    1    6    6  503    0  0.12563851713E+03 -0.40529078581E+02 -0.68133929193E+02  0.14855933328E+03  0.00000000000E+00 0. -1.
         -2    1    6    6    0  503  0.25645964863E+03 -0.13277820029E+03 -0.31238064594E+03  0.42542128509E+03  0.00000000000E+00 0.  1.
<mgrwt>
<rscale>  0 0.17910497E+04</rscale>
<asrwt>0</asrwt>
<pdfrwt beam="1">  1        2 0.22819633E+00 0.17910497E+04</pdfrwt>
<pdfrwt beam="2">  1       -1 0.83180186E-01 0.17910497E+04</pdfrwt>
<totfact> 0.20038556E+01</totfact>
</mgrwt>
</event>
<event>
12    6  0.1569942E-007  0.1163959E+04  0.7818608E-02  0.9145001E-01
         -1   -1    0    0    0  501 -0.00000000000E+00  0.00000000000E+00  0.26472633373E+03  0.26472633373E+03  0.00000000000E+00 0.  1.
          2   -1    0    0  501    0  0.00000000000E+00 -0.00000000000E+00 -0.12794350647E+04  0.12794350647E+04  0.00000000000E+00 0. -1.
         24    2    1    2    0    0 -0.83680861507E+02 -0.17022558254E+03 -0.39455234512E+02  0.20731854547E+03  0.73790434563E+02 0.  0.
        254    2    1    2    0    0  0.83680861507E+02  0.17022558254E+03 -0.97525349648E+03  0.13368428530E+04  0.89445525079E+03 0.  0.
         23    2    4    4    0    0  0.37531835901E+03  0.16431827922E+03 -0.13151947327E+03  0.43955094536E+03  0.89684414608E+02 0.  0.
         23    2    4    4    0    0 -0.29163749750E+03  0.59073033133E+01 -0.84373402321E+03  0.89729190762E+03  0.90323526200E+02 0.  0.
          4    1    3    3  502    0  0.10704080581E+02 -0.32264127788E+02  0.49770248060E+01  0.34355815503E+02  0.00000000000E+00 0. -1.
         -3    1    3    3    0  502 -0.94384942089E+02 -0.13796145475E+03 -0.44432259318E+02  0.17296272997E+03  0.00000000000E+00 0.  1.
         11    1    5    5    0    0  0.25136501048E+03  0.13446615860E+03 -0.12670957453E+03  0.31196287051E+03  0.00000000000E+00 0.  1.
        -11    1    5    5    0    0  0.12395334853E+03  0.29852120623E+02 -0.48098987395E+01  0.12758807485E+03  0.00000000000E+00 0. -1.
          1    1    6    6  503    0 -0.23831453588E+03  0.38366941988E+02 -0.70445808146E+03  0.74466571613E+03  0.00000000000E+00 0. -1.
         -1    1    6    6    0  503 -0.53322961625E+02 -0.32459638675E+02 -0.13927594175E+03  0.15262619149E+03  0.00000000000E+00 0.  1.
<mgrwt>
<rscale>  0 0.11639590E+04</rscale>
<asrwt>0</asrwt>
<pdfrwt beam="1">  1        2 0.19683616E+00 0.11639590E+04</pdfrwt>
<pdfrwt beam="2">  1       -1 0.40727129E-01 0.11639590E+04</pdfrwt>
<totfact> 0.11282385E+02</totfact>
</mgrwt>
</event>
<event>
12    6  0.1569942E-007  0.1415402E+04  0.7818608E-02  0.8942745E-01
         -1   -1    0    0    0  501 -0.00000000000E+00  0.00000000000E+00  0.55700531727E+03  0.55700531727E+03  0.00000000000E+00 0.  1.
          2   -1    0    0  501    0  0.00000000000E+00 -0.00000000000E+00 -0.89916641109E+03  0.89916641109E+03  0.00000000000E+00 0. -1.
         24    2    1    2    0    0 -0.10338578820E+03  0.61431459133E+02  0.30892745864E+03  0.34124214986E+03  0.80917147527E+02 0.  0.
        254    2    1    2    0    0  0.10338578820E+03 -0.61431459133E+02 -0.65108855246E+03  0.11149295785E+04  0.89704471266E+03 0.  0.
         23    2    4    4    0    0  0.44472238622E+02  0.14353690363E+03  0.18067200296E+03  0.25136890100E+03  0.89237486646E+02 0.  0.
         23    2    4    4    0    0  0.58913549577E+02 -0.20496836276E+03 -0.83176055543E+03  0.86356067751E+03  0.91807331555E+02 0.  0.
          2    1    3    3  502    0 -0.28314706209E+02 -0.19455641140E+02  0.81927631794E+02  0.88839075925E+02  0.00000000000E+00 0. -1.
         -1    1    3    3    0  502 -0.75071081990E+02  0.80887100273E+02  0.22699982685E+03  0.25240307393E+03  0.00000000000E+00 0.  1.
         11    1    5    5    0    0 -0.41465320857E+01  0.33243482551E+02 -0.80458323816E+00  0.33510747748E+02  0.00000000000E+00 0.  1.
        -11    1    5    5    0    0  0.48618770708E+02  0.11029342108E+03  0.18147658620E+03  0.21785815325E+03  0.00000000000E+00 0. -1.
          3    1    6    6  503    0  0.12027804077E+02 -0.31183799760E+02 -0.30645484841E+03  0.30827207391E+03  0.00000000000E+00 0. -1.
         -3    1    6    6    0  503  0.46885745500E+02 -0.17378456300E+03 -0.52530570702E+03  0.55528860361E+03  0.00000000000E+00 0.  1.
<mgrwt>
<rscale>  0 0.14154017E+04</rscale>
<asrwt>0</asrwt>
<pdfrwt beam="1">  1        2 0.13833329E+00 0.14154017E+04</pdfrwt>
<pdfrwt beam="2">  1       -1 0.85693126E-01 0.14154017E+04</pdfrwt>
<totfact> 0.43835320E+01</totfact>
</mgrwt>
</event>
<event>
12    6  0.1569942E-007  0.3195466E+04  0.7818608E-02  0.8190016E-01
          2   -1    0    0  501    0  0.00000000000E+00  0.00000000000E+00  0.17982179731E+04  0.17982179731E+04  0.00000000000E+00 0. -1.
         -1   -1    0    0    0  501 -0.00000000000E+00 -0.00000000000E+00 -0.14195998840E+04  0.14195998840E+04  0.00000000000E+00 0.  1.
         24    2    1    2    0    0 -0.22715888863E+03 -0.82084577952E+02 -0.12853046285E+04  0.13103280219E+04  0.81317269150E+02 0.  0.
        254    2    1    2    0    0  0.22715888863E+03  0.82084577952E+02  0.16639227176E+04  0.19074898352E+04  0.90085493973E+03 0.  0.
         23    2    4    4    0    0  0.16828153362E+03  0.21022589686E+03  0.17103419226E+04  0.17337116820E+04  0.89292226822E+02 0.  0.
         23    2    4    4    0    0  0.58877355008E+02 -0.12814131891E+03 -0.46419204980E+02  0.17377815318E+03  0.90318123254E+02 0.  0.
          4    1    3    3  502    0 -0.11998509638E+03 -0.51271927500E+02 -0.48314430340E+03  0.50045344620E+03  0.00000000000E+00 0. -1.
         -3    1    3    3    0  502 -0.10717379224E+03 -0.30812650453E+02 -0.80216032514E+03  0.80987457572E+03  0.00000000000E+00 0.  1.
         11    1    5    5    0    0  0.11748423814E+02  0.35773563904E+01  0.19041325662E+02  0.22658221992E+02  0.00000000000E+00 0.  1.
        -11    1    5    5    0    0  0.15653310981E+03  0.20664854047E+03  0.16913005970E+04  0.17110534600E+04  0.00000000000E+00 0. -1.
          2    1    6    6  503    0  0.50292526986E+02 -0.28695261828E+02 -0.46016690655E+02  0.73961423329E+02  0.00000000000E+00 0. -1.
         -2    1    6    6    0  503  0.85848280222E+01 -0.99446057079E+02 -0.40251432530E+00  0.99816729853E+02  0.00000000000E+00 0.  1.
<mgrwt>
<rscale>  0 0.31954656E+04</rscale>
<asrwt>0</asrwt>
<pdfrwt beam="1">  1        2 0.27664892E+00 0.31954656E+04</pdfrwt>
<pdfrwt beam="2">  1       -1 0.21839998E+00 0.31954656E+04</pdfrwt>
<totfact> 0.93518722E-01</totfact>
</mgrwt>
</event>
<event>
12    6  0.1569942E-007  0.1857122E+04  0.7818608E-02  0.8676499E-01
          2   -1    0    0  501    0  0.00000000000E+00  0.00000000000E+00  0.23465122863E+04  0.23465122863E+04  0.00000000000E+00 0. -1.
         -1   -1    0    0    0  501 -0.00000000000E+00 -0.00000000000E+00 -0.36744970464E+03  0.36744970464E+03  0.00000000000E+00 0.  1.
         24    2    1    2    0    0 -0.14030379694E+03 -0.44254708163E+03  0.15300933493E+04  0.16008738370E+04  0.77963513203E+02 0.  0.
        254    2    1    2    0    0  0.14030379694E+03  0.44254708163E+03  0.44896923237E+03  0.11130881540E+04  0.90656427904E+03 0.  0.
         23    2    4    4    0    0 -0.36642420047E+03  0.11605050749E+03  0.26709814039E+03  0.47707442146E+03  0.92326442721E+02 0.  0.
         23    2    4    4    0    0  0.50672799742E+03  0.32649657414E+03  0.18187109198E+03  0.63601373253E+03  0.89794752526E+02 0.  0.
          4    1    3    3  502    0 -0.12388414745E+03 -0.43550743631E+03  0.14651827266E+04  0.15335496182E+04  0.00000000000E+00 0. -1.
         -3    1    3    3    0  502 -0.16419649494E+02 -0.70396453134E+01  0.64910622658E+02  0.67324218744E+02  0.00000000000E+00 0.  1.
         11    1    5    5    0    0 -0.11807596169E+03  0.68889361660E+02  0.55968926673E+02  0.14771661258E+03  0.00000000000E+00 0.  1.
        -11    1    5    5    0    0 -0.24834823878E+03  0.47161145833E+02  0.21112921372E+03  0.32935780888E+03  0.00000000000E+00 0. -1.
          3    1    6    6  503    0  0.38671494709E+03  0.22371831845E+03  0.16834128391E+03  0.47742761146E+03  0.00000000000E+00 0. -1.
         -3    1    6    6    0  503  0.12001305033E+03  0.10277825569E+03  0.13529808070E+02  0.15858612107E+03  0.00000000000E+00 0.  1.
<mgrwt>
<rscale>  0 0.18571217E+04</rscale>
<asrwt>0</asrwt>
<pdfrwt beam="1">  1        2 0.36100188E+00 0.18571217E+04</pdfrwt>
<pdfrwt beam="2">  1       -1 0.56530725E-01 0.18571217E+04</pdfrwt>
<totfact> 0.14462216E+01</totfact>
</mgrwt>
</event>
<event>
12    6  0.1569942E-007  0.3749228E+04  0.7818608E-02  0.8057139E-01
         -1   -1    0    0    0  501 -0.00000000000E+00  0.00000000000E+00  0.13468868459E+04  0.13468868459E+04  0.00000000000E+00 0.  1.
          2   -1    0    0  501    0  0.00000000000E+00 -0.00000000000E+00 -0.26091113639E+04  0.26091113639E+04  0.00000000000E+00 0. -1.
         24    2    1    2    0    0  0.19988918420E+03  0.90054976923E+03 -0.21866966258E+04  0.23749910427E+04  0.89413347479E+02 0.  0.
        254    2    1    2    0    0 -0.19988918420E+03 -0.90054976923E+03  0.92447210782E+03  0.15810071671E+04  0.89106083495E+03 0.  0.
         23    2    4    4    0    0  0.25825602975E+03 -0.41914654608E+03  0.72536174193E+03  0.88134489655E+03  0.90769851979E+02 0.  0.
         23    2    4    4    0    0 -0.45814521395E+03 -0.48140322315E+03  0.19911036589E+03  0.69966227058E+03  0.90753813943E+02 0.  0.
          4    1    3    3  502    0  0.13665951823E+03  0.65867895260E+03 -0.16889376246E+04  0.18179780214E+04  0.00000000000E+00 0. -1.
         -3    1    3    3    0  502  0.63229665970E+02  0.24187081663E+03 -0.49775900123E+03  0.55701302130E+03  0.00000000000E+00 0.  1.
         11    1    5    5    0    0  0.41475470969E+02 -0.21844782431E+02  0.51959980447E+02  0.69980345666E+02  0.00000000000E+00 0.  1.
        -11    1    5    5    0    0  0.21678055878E+03 -0.39730176365E+03  0.67340176149E+03  0.81136455089E+03  0.00000000000E+00 0. -1.
          4    1    6    6  503    0 -0.41373892398E+03 -0.45630886930E+03  0.16296184575E+03  0.63714538732E+03  0.00000000000E+00 0. -1.
         -4    1    6    6    0  503 -0.44406289969E+02 -0.25094353851E+02  0.36148520136E+02  0.62516883256E+02  0.00000000000E+00 0.  1.
<mgrwt>
<rscale>  0 0.37492281E+04</rscale>
<asrwt>0</asrwt>
<pdfrwt beam="1">  1        2 0.40140174E+00 0.37492281E+04</pdfrwt>
<pdfrwt beam="2">  1       -1 0.20721336E+00 0.37492281E+04</pdfrwt>
<totfact> 0.36926097E-01</totfact>
</mgrwt>
</event>
<event>
12    6  0.1569942E-007  0.1626135E+04  0.7818608E-02  0.8804651E-01
          2   -1    0    0  501    0  0.00000000000E+00  0.00000000000E+00  0.10432515530E+04  0.10432515530E+04  0.00000000000E+00 0. -1.
         -1   -1    0    0    0  501 -0.00000000000E+00 -0.00000000000E+00 -0.63367168473E+03  0.63367168473E+03  0.00000000000E+00 0.  1.
         24    2    1    2    0    0  0.15251639395E+03 -0.13022457426E+03 -0.40022475883E+03  0.45495024774E+03  0.81118309686E+02 0.  0.
        254    2    1    2    0    0 -0.15251639395E+03  0.13022457426E+03  0.80980462707E+03  0.12219729899E+04  0.89286883918E+03 0.  0.
         23    2    4    4    0    0 -0.35986740929E+03  0.38294975799E+03  0.66663005235E+03  0.85357325110E+03  0.89647079569E+02 0.  0.
         23    2    4    4    0    0  0.20735101534E+03 -0.25272518373E+03  0.14317457471E+03  0.36839973885E+03  0.91405397480E+02 0.  0.
          2    1    3    3  502    0  0.46806191722E+02 -0.12359535267E+02 -0.16065944338E+03  0.16779461982E+03  0.00000000000E+00 0. -1.
         -1    1    3    3    0  502  0.10571020223E+03 -0.11786503899E+03 -0.23956531546E+03  0.28715562791E+03  0.00000000000E+00 0.  1.
         11    1    5    5    0    0 -0.25348854005E+03  0.20604763429E+03  0.40683109668E+03  0.52175052349E+03  0.00000000000E+00 0. -1.
        -11    1    5    5    0    0 -0.10637886924E+03  0.17690212370E+03  0.25979895568E+03  0.33182272761E+03  0.00000000000E+00 0.  1.
          4    1    6    6  503    0  0.15771995433E+03 -0.24166916924E+03  0.12070171510E+03  0.31280740941E+03  0.00000000000E+00 0. -1.
         -4    1    6    6    0  503  0.49631061009E+02 -0.11056014490E+02  0.22472859616E+02  0.55592329440E+02  0.00000000000E+00 0.  1.
<mgrwt>
<rscale>  0 0.16261353E+04</rscale>
<asrwt>0</asrwt>
<pdfrwt beam="1">  1        2 0.16050024E+00 0.16261353E+04</pdfrwt>
<pdfrwt beam="2">  1       -1 0.97487952E-01 0.16261353E+04</pdfrwt>
<totfact> 0.26071289E+01</totfact>
</mgrwt>
</event>
<event>
12    6  0.1569942E-007  0.1612394E+04  0.7818608E-02  0.8812970E-01
         -1   -1    0    0    0  501 -0.00000000000E+00  0.00000000000E+00  0.51724033085E+03  0.51724033085E+03  0.00000000000E+00 0.  1.
          2   -1    0    0  501    0  0.00000000000E+00 -0.00000000000E+00 -0.12565796874E+04  0.12565796874E+04  0.00000000000E+00 0. -1.
         24    2    1    2    0    0  0.49229170112E+03 -0.39731987698E+02  0.62766648611E+00  0.50372846630E+03  0.99056670403E+02 0.  0.
        254    2    1    2    0    0 -0.49229170112E+03  0.39731987698E+02 -0.73996702302E+03  0.12700915519E+04  0.90645000154E+03 0.  0.
         23    2    4    4    0    0  0.10197880504E+03 -0.30467846194E+03 -0.18176704480E+03  0.38014239818E+03  0.90776332114E+02 0.  0.
         23    2    4    4    0    0 -0.59427050616E+03  0.34441044964E+03 -0.55819997822E+03  0.88994915375E+03  0.92985419633E+02 0.  0.
          2    1    3    3  502    0  0.42304369525E+03 -0.19659777889E+02 -0.31760223445E+02  0.42468951806E+03  0.00000000000E+00 0. -1.
         -1    1    3    3    0  502  0.69248005870E+02 -0.20072209808E+02  0.32387889931E+02  0.79038948233E+02  0.00000000000E+00 0.  1.
         11    1    5    5    0    0  0.10665256204E+03 -0.25888511372E+03 -0.18229636209E+03  0.33410811832E+03  0.00000000000E+00 0. -1.
        -11    1    5    5    0    0 -0.46737569961E+01 -0.45793348218E+02  0.52931729182E+00  0.46034279861E+02  0.00000000000E+00 0.  1.
          2    1    6    6  503    0 -0.40473997094E+03  0.22805372430E+03 -0.32028597680E+03  0.56427480201E+03  0.00000000000E+00 0. -1.
         -2    1    6    6    0  503 -0.18953053522E+03  0.11635672534E+03 -0.23791400142E+03  0.32567435174E+03  0.00000000000E+00 0.  1.
<mgrwt>
<rscale>  0 0.16123941E+04</rscale>
<asrwt>0</asrwt>
<pdfrwt beam="1">  1        2 0.19331995E+00 0.16123941E+04</pdfrwt>
<pdfrwt beam="2">  1       -1 0.79575437E-01 0.16123941E+04</pdfrwt>
<totfact> 0.30211309E+01</totfact>
</mgrwt>
</event>
<event>
12    6  0.1569942E-007  0.2632654E+04  0.7818608E-02  0.8357193E-01
         -1   -1    0    0    0  501 -0.00000000000E+00  0.00000000000E+00  0.51788980757E+03  0.51788980757E+03  0.00000000000E+00 0.  1.
          2   -1    0    0  501    0  0.00000000000E+00 -0.00000000000E+00 -0.33457241953E+04  0.33457241953E+04  0.00000000000E+00 0. -1.
         24    2    1    2    0    0 -0.63945669395E+03  0.85940797458E+03 -0.61619048246E+03  0.12385650741E+04  0.82860134557E+02 0.  0.
        254    2    1    2    0    0  0.63945669395E+03 -0.85940797458E+03 -0.22116439053E+04  0.26250489288E+04  0.92305264448E+03 0.  0.
         23    2    4    4    0    0  0.85289075104E+03 -0.51701898801E+03 -0.15211205704E+04  0.18212628885E+04  0.91975280126E+02 0.  0.
         23    2    4    4    0    0 -0.21343405709E+03 -0.34238898658E+03 -0.69052333490E+03  0.80378604029E+03  0.80406515122E+02 0.  0.
          4    1    3    3  502    0 -0.64170816076E+03  0.85269647299E+03 -0.61039018869E+03  0.12294132019E+04  0.00000000000E+00 0. -1.
         -3    1    3    3    0  502  0.22514668100E+01  0.67115015918E+01 -0.58002937642E+01  0.91518721672E+01  0.00000000000E+00 0.  1.
         11    1    5    5    0    0  0.84392963091E+03 -0.50491735256E+03 -0.14753681386E+04  0.17730961336E+04  0.00000000000E+00 0. -1.
        -11    1    5    5    0    0  0.89611201326E+01 -0.12101635441E+02 -0.45752431838E+02  0.48166754857E+02  0.00000000000E+00 0.  1.
          3    1    6    6  503    0 -0.15638250440E+03 -0.17569544400E+03 -0.39361737454E+03  0.45854009014E+03  0.00000000000E+00 0. -1.
         -3    1    6    6    0  503 -0.57051552694E+02 -0.16669354258E+03 -0.29690596036E+03  0.34524595015E+03  0.00000000000E+00 0.  1.
<mgrwt>
<rscale>  0 0.26326538E+04</rscale>
<asrwt>0</asrwt>
<pdfrwt beam="1">  1        2 0.51472677E+00 0.26326538E+04</pdfrwt>
<pdfrwt beam="2">  1       -1 0.79675360E-01 0.26326538E+04</pdfrwt>
<totfact> 0.16382681E+00</totfact>
</mgrwt>
</event>
<event>
12    6  0.1569942E-007  0.1712672E+04  0.7818608E-02  0.8754170E-01
          2   -1    0    0  501    0  0.00000000000E+00  0.00000000000E+00  0.18041007415E+04  0.18041007415E+04  0.00000000000E+00 0. -1.
         -1   -1    0    0    0  501 -0.00000000000E+00 -0.00000000000E+00 -0.40646899672E+03  0.40646899672E+03  0.00000000000E+00 0.  1.
         24    2    1    2    0    0  0.36128054236E+03  0.21508014819E+02 -0.13929093170E+03  0.39516661351E+03  0.75950403457E+02 0.  0.
        254    2    1    2    0    0 -0.36128054236E+03 -0.21508014819E+02  0.15369226765E+04  0.18154031247E+04  0.89586325228E+03 0.  0.
         23    2    4    4    0    0  0.15759539121E+03  0.22496247814E+02 -0.72655063580E+01  0.18327066715E+03  0.90514978642E+02 0.  0.
         23    2    4    4    0    0 -0.51887593358E+03 -0.44004262633E+02  0.15441881829E+04  0.16321324576E+04  0.90391401437E+02 0.  0.
          2    1    3    3  502    0  0.69981249746E+02 -0.22798693698E+02 -0.42690119615E+02  0.85085851133E+02  0.00000000000E+00 0. -1.
         -1    1    3    3    0  502  0.29129929262E+03  0.44306708517E+02 -0.96600812086E+02  0.31008076238E+03  0.00000000000E+00 0.  1.
         11    1    5    5    0    0  0.79294857234E+02 -0.33785526440E+02  0.33587274954E+01  0.86257853156E+02  0.00000000000E+00 0. -1.
        -11    1    5    5    0    0  0.78300533980E+02  0.56281774254E+02 -0.10624233853E+02  0.97012813997E+02  0.00000000000E+00 0.  1.
          3    1    6    6  503    0 -0.57838629924E+02  0.90763737555E+01  0.10832418408E+03  0.12313332827E+03  0.00000000000E+00 0. -1.
         -3    1    6    6    0  503 -0.46103730365E+03 -0.53080636388E+02  0.14358639988E+04  0.15089991293E+04  0.00000000000E+00 0.  1.
<mgrwt>
<rscale>  0 0.17126716E+04</rscale>
<asrwt>0</asrwt>
<pdfrwt beam="1">  1        2 0.27755396E+00 0.17126716E+04</pdfrwt>
<pdfrwt beam="2">  1       -1 0.62533693E-01 0.17126716E+04</pdfrwt>
<totfact> 0.24106707E+01</totfact>
</mgrwt>
</event>
<event>
12    6  0.1569942E-007  0.1539725E+04  0.7818608E-02  0.8858458E-01
         -1   -1    0    0    0  501 -0.00000000000E+00  0.00000000000E+00  0.12405599360E+04  0.12405599360E+04  0.00000000000E+00 0.  1.
          2   -1    0    0  501    0  0.00000000000E+00 -0.00000000000E+00 -0.47775846106E+03  0.47775846106E+03  0.00000000000E+00 0. -1.
         24    2    1    2    0    0 -0.40981965265E+03 -0.22345489312E+02  0.57511726416E+03  0.71105415353E+03  0.79916663618E+02 0.  0.
        254    2    1    2    0    0  0.40981965265E+03  0.22345489312E+02  0.18768421081E+03  0.10072642436E+04  0.90050231802E+03 0.  0.
         23    2    4    4    0    0 -0.25311913560E+03 -0.24613191537E+02 -0.84534251847E+02  0.28319623174E+03  0.91536658956E+02 0.  0.
         23    2    4    4    0    0  0.66293878825E+03  0.46958680850E+02  0.27221846266E+03  0.72406801181E+03  0.92079528898E+02 0.  0.
          2    1    3    3  502    0 -0.12202234488E+03  0.26142401791E+02  0.14557091765E+03  0.19173880641E+03  0.00000000000E+00 0. -1.
         -1    1    3    3    0  502 -0.28779730778E+03 -0.48487891103E+02  0.42954634651E+03  0.51931534712E+03  0.00000000000E+00 0.  1.
         11    1    5    5    0    0 -0.81695819069E+02  0.24056667278E+02  0.18047856234E+01  0.85183257422E+02  0.00000000000E+00 0. -1.
        -11    1    5    5    0    0 -0.17142331653E+03 -0.48669858815E+02 -0.86339037470E+02  0.19801297432E+03  0.00000000000E+00 0.  1.
          2    1    6    6  503    0  0.11111921565E+03 -0.72580352379E+01  0.13397511798E+02  0.11215904994E+03  0.00000000000E+00 0. -1.
         -2    1    6    6    0  503  0.55181957260E+03  0.54216716087E+02  0.25882095086E+03  0.61190896187E+03  0.00000000000E+00 0.  1.
<mgrwt>
<rscale>  0 0.15397247E+04</rscale>
<asrwt>0</asrwt>
<pdfrwt beam="1">  1        2 0.73501302E-01 0.15397247E+04</pdfrwt>
<pdfrwt beam="2">  1       -1 0.19085537E+00 0.15397247E+04</pdfrwt>
<totfact> 0.12458896E+01</totfact>
</mgrwt>
</event>
<event>
12    6  0.1569942E-007  0.1847862E+04  0.7818608E-02  0.8681253E-01
         -1   -1    0    0    0  501 -0.00000000000E+00  0.00000000000E+00  0.22117140785E+03  0.22117140785E+03  0.00000000000E+00 0.  1.
          2   -1    0    0  501    0  0.00000000000E+00 -0.00000000000E+00 -0.38596690104E+04  0.38596690104E+04  0.00000000000E+00 0. -1.
         24    2    1    2    0    0  0.12111823067E+03 -0.42190075895E+02  0.13260089514E+03  0.20175657183E+03  0.81688974644E+02 0.  0.
        254    2    1    2    0    0 -0.12111823067E+03  0.42190075895E+02 -0.37710984977E+04  0.38790838464E+04  0.89980996881E+03 0.  0.
         23    2    4    4    0    0 -0.49469757696E+03  0.10296438751E+03 -0.23465102864E+04  0.24020718435E+04  0.92256486465E+02 0.  0.
         23    2    4    4    0    0  0.37357934629E+03 -0.60774311610E+02 -0.14245882113E+04  0.14770120029E+04  0.94116099382E+02 0.  0.
          2    1    3    3  502    0 -0.10463770307E+02  0.48842566513E+01  0.16118729227E+02  0.19828259731E+02  0.00000000000E+00 0. -1.
         -1    1    3    3    0  502  0.13158200098E+03 -0.47074332547E+02  0.11648216592E+03  0.18192831210E+03  0.00000000000E+00 0.  1.
         11    1    5    5    0    0 -0.38796024394E+03  0.95736323567E+02 -0.19956679721E+04  0.20352811229E+04  0.00000000000E+00 0. -1.
        -11    1    5    5    0    0 -0.10673733302E+03  0.72280639382E+01 -0.35084231433E+03  0.36679072057E+03  0.00000000000E+00 0.  1.
          4    1    6    6  503    0  0.24842372329E+02  0.13559761226E+02 -0.18522422537E+03  0.18737402235E+03  0.00000000000E+00 0.  1.
         -4    1    6    6    0  503  0.34873697396E+03 -0.74334072836E+02 -0.12393639859E+04  0.12896379806E+04  0.00000000000E+00 0. -1.
<mgrwt>
<rscale>  0 0.18478619E+04</rscale>
<asrwt>0</asrwt>
<pdfrwt beam="1">  1        2 0.59379517E+00 0.18478619E+04</pdfrwt>
<pdfrwt beam="2">  1       -1 0.34026374E-01 0.18478619E+04</pdfrwt>
<totfact> 0.39070290E+00</totfact>
</mgrwt>
</event>
<event>
12    6  0.1569942E-007  0.1294283E+04  0.7818608E-02  0.9034111E-01
         -1   -1    0    0    0  501 -0.00000000000E+00  0.00000000000E+00  0.40282610233E+03  0.40282610233E+03  0.00000000000E+00 0.  1.
          2   -1    0    0  501    0  0.00000000000E+00 -0.00000000000E+00 -0.10396344538E+04  0.10396344538E+04  0.00000000000E+00 0. -1.
         24    2    1    2    0    0  0.30480196997E+03 -0.15532363981E+02 -0.28354896958E+03  0.42397579536E+03  0.78803310035E+02 0.  0.
        254    2    1    2    0    0 -0.30480196997E+03  0.15532363981E+02 -0.35325938190E+03  0.10184847608E+04  0.90519253301E+03 0.  0.
         23    2    4    4    0    0 -0.19161953294E+03  0.14718083502E+03  0.26447780757E+03  0.37007667506E+03  0.92886980399E+02 0.  0.
         23    2    4    4    0    0 -0.11318243704E+03 -0.13164847104E+03 -0.61773718947E+03  0.64840808573E+03  0.93232110387E+02 0.  0.
          2    1    3    3  502    0  0.30137309485E+03 -0.27613246753E+02 -0.27300721253E+03  0.40757965085E+03  0.00000000000E+00 0. -1.
         -1    1    3    3    0  502  0.34288751293E+01  0.12080882772E+02 -0.10541757049E+02  0.16396144513E+02  0.00000000000E+00 0.  1.
         11    1    5    5    0    0 -0.11951487272E+03  0.33836191000E+02  0.11800610642E+03  0.17133048116E+03  0.00000000000E+00 0.  1.
        -11    1    5    5    0    0 -0.72104660222E+02  0.11334464402E+03  0.14647170115E+03  0.19874619390E+03  0.00000000000E+00 0. -1.
          2    1    6    6  503    0 -0.10351239580E+03 -0.86129503394E+02 -0.32186157293E+03  0.34889537051E+03  0.00000000000E+00 0. -1.
         -2    1    6    6    0  503 -0.96700412417E+01 -0.45518967642E+02 -0.29587561654E+03  0.29951271521E+03  0.00000000000E+00 0.  1.
<mgrwt>
<rscale>  0 0.12942827E+04</rscale>
<asrwt>0</asrwt>
<pdfrwt beam="1">  1        2 0.15994376E+00 0.12942827E+04</pdfrwt>
<pdfrwt beam="2">  1       -1 0.61973248E-01 0.12942827E+04</pdfrwt>
<totfact> 0.70195564E+01</totfact>
</mgrwt>
</event>
<event>
12    6  0.1569942E-007  0.1088968E+04  0.7818608E-02  0.9216011E-01
          2   -1    0    0  501    0  0.00000000000E+00  0.00000000000E+00  0.14275700343E+04  0.14275700343E+04  0.00000000000E+00 0. -1.
         -1   -1    0    0    0  501 -0.00000000000E+00 -0.00000000000E+00 -0.20766966592E+03  0.20766966592E+03  0.00000000000E+00 0.  1.
         24    2    1    2    0    0  0.96764926140E+02  0.51532823748E+02  0.19696896086E+02  0.13698628329E+03  0.79738267099E+02 0.  0.
        254    2    1    2    0    0 -0.96764926140E+02 -0.51532823748E+02  0.12002034723E+04  0.14982534170E+04  0.89008754830E+03 0.  0.
         23    2    4    4    0    0  0.10146950097E+03  0.30140817987E+03  0.14546253469E+03  0.36466848937E+03  0.10334799282E+03 0.  0.
         23    2    4    4    0    0 -0.19823442711E+03 -0.35294100362E+03  0.10547409376E+04  0.11335849276E+04  0.93124123830E+02 0.  0.
          4    1    3    3  502    0  0.79869441982E+02  0.50820743967E+02  0.46362698572E+02  0.10541050991E+03  0.00000000000E+00 0. -1.
         -3    1    3    3    0  502  0.16895484158E+02  0.71207978156E+00 -0.26665802486E+02  0.31575773384E+02  0.00000000000E+00 0.  1.
         11    1    5    5    0    0  0.11698374314E+03  0.22714350523E+03  0.13211747015E+03  0.28763587058E+03  0.00000000000E+00 0. -1.
        -11    1    5    5    0    0 -0.15514242168E+02  0.74264674640E+02  0.13345064544E+02  0.77032618787E+02  0.00000000000E+00 0.  1.
          2    1    6    6  503    0 -0.69550093782E+02 -0.50903170595E+02  0.19068083819E+03  0.20925470215E+03  0.00000000000E+00 0. -1.
         -2    1    6    6    0  503 -0.12868433333E+03 -0.30203783302E+03  0.86406009945E+03  0.92433022546E+03  0.00000000000E+00 0.  1.
<mgrwt>
<rscale>  0 0.10889683E+04</rscale>
<asrwt>0</asrwt>
<pdfrwt beam="1">  1        2 0.21962615E+00 0.10889683E+04</pdfrwt>
<pdfrwt beam="2">  1       -1 0.31949180E-01 0.10889683E+04</pdfrwt>
<totfact> 0.14411742E+02</totfact>
</mgrwt>
</event>
<event>
12    6  0.1569942E-007  0.1249041E+04  0.7818608E-02  0.9070982E-01
         -1   -1    0    0    0  501 -0.00000000000E+00  0.00000000000E+00  0.29699526460E+03  0.29699526460E+03  0.00000000000E+00 0.  1.
          2   -1    0    0  501    0  0.00000000000E+00 -0.00000000000E+00 -0.13132389189E+04  0.13132389189E+04  0.00000000000E+00 0. -1.
         24    2    1    2    0    0 -0.12621339225E+03  0.53545802086E+01  0.88342867196E+02  0.17329259967E+03  0.79166729132E+02 0.  0.
        254    2    1    2    0    0  0.12621339225E+03 -0.53545802086E+01 -0.11045865215E+04  0.14369415839E+04  0.91034676909E+03 0.  0.
         23    2    4    4    0    0 -0.77583516458E+02  0.37115479149E+03 -0.21625466244E+03  0.44679611409E+03  0.95318451844E+02 0.  0.
         23    2    4    4    0    0  0.20379690871E+03 -0.37650937170E+03 -0.88833185908E+03  0.99014546977E+03  0.89230445918E+02 0.  0.
          4    1    3    3  502    0 -0.37875486618E+02 -0.24506645225E+02  0.39721167342E+00  0.45114143280E+02  0.00000000000E+00 0. -1.
         -3    1    3    3    0  502 -0.88337905637E+02  0.29861225434E+02  0.87945655523E+02  0.12817845639E+03  0.00000000000E+00 0.  1.
         11    1    5    5    0    0  0.21459438292E+02  0.42062879860E+02 -0.29113934861E+02  0.55474449587E+02  0.00000000000E+00 0.  1.
        -11    1    5    5    0    0 -0.99042954750E+02  0.32909191163E+03 -0.18714072758E+03  0.39132166450E+03  0.00000000000E+00 0. -1.
          4    1    6    6  503    0  0.17457151004E+03 -0.25903028897E+03 -0.69606635322E+03  0.76294185283E+03  0.00000000000E+00 0. -1.
         -4    1    6    6    0  503  0.29225398672E+02 -0.11747908273E+03 -0.19226550586E+03  0.22720361694E+03  0.00000000000E+00 0.  1.
<mgrwt>
<rscale>  0 0.12490408E+04</rscale>
<asrwt>0</asrwt>
<pdfrwt beam="1">  1        2 0.20203675E+00 0.12490408E+04</pdfrwt>
<pdfrwt beam="2">  1       -1 0.45691581E-01 0.12490408E+04</pdfrwt>
<totfact> 0.86618351E+01</totfact>
</mgrwt>
</event>
<event>
12    6  0.1569942E-007  0.1932068E+04  0.7818608E-02  0.8639057E-01
          2   -1    0    0  501    0  0.00000000000E+00  0.00000000000E+00  0.15762539205E+04  0.15762539205E+04  0.00000000000E+00 0. -1.
         -1   -1    0    0    0  501 -0.00000000000E+00 -0.00000000000E+00 -0.59205004948E+03  0.59205004948E+03  0.00000000000E+00 0.  1.
         24    2    1    2    0    0  0.90591426493E+02 -0.27726581176E+03 -0.38286342193E+03  0.48788958451E+03  0.79804197201E+02 0.  0.
        254    2    1    2    0    0 -0.90591426493E+02  0.27726581176E+03  0.13670672929E+04  0.16804143855E+04  0.93265019515E+03 0.  0.
         23    2    4    4    0    0 -0.26987797957E+03 -0.19177477998E+03  0.17879902118E+03  0.38706029260E+03  0.90746294894E+02 0.  0.
         23    2    4    4    0    0  0.17928655308E+03  0.46904059174E+03  0.11882682717E+04  0.12933540929E+04  0.92954714966E+02 0.  0.
          2    1    3    3  502    0  0.33414663208E+00 -0.16518806095E+01 -0.34779190023E+02  0.34820000319E+02  0.00000000000E+00 0. -1.
         -1    1    3    3    0  502  0.90257279861E+02 -0.27561393115E+03 -0.34808423191E+03  0.45306958419E+03  0.00000000000E+00 0.  1.
         11    1    5    5    0    0 -0.46166877621E+02 -0.46766217545E+01  0.29233547145E+01  0.46495132897E+02  0.00000000000E+00 0.  1.
        -11    1    5    5    0    0 -0.22371110195E+03 -0.18709815823E+03  0.17587566646E+03  0.34056515970E+03  0.00000000000E+00 0. -1.
          3    1    6    6  503    0  0.15391438371E+03  0.40800391490E+03  0.93641940775E+03  0.10329753818E+04  0.00000000000E+00 0. -1.
         -3    1    6    6    0  503  0.25372169372E+02  0.61036676839E+02  0.25184886399E+03  0.26037871110E+03  0.00000000000E+00 0.  1.
<mgrwt>
<rscale>  0 0.19320675E+04</rscale>
<asrwt>0</asrwt>
<pdfrwt beam="1">  1        2 0.24250060E+00 0.19320675E+04</pdfrwt>
<pdfrwt beam="2">  1       -1 0.91084624E-01 0.19320675E+04</pdfrwt>
<totfact> 0.14395148E+01</totfact>
</mgrwt>
</event>
<event>
12    6  0.1569942E-007  0.1772784E+04  0.7818608E-02  0.8720908E-01
          2   -1    0    0  501    0  0.00000000000E+00  0.00000000000E+00  0.61353553440E+03  0.61353553440E+03  0.00000000000E+00 0. -1.
         -1   -1    0    0    0  501 -0.00000000000E+00 -0.00000000000E+00 -0.12805951646E+04  0.12805951646E+04  0.00000000000E+00 0.  1.
         24    2    1    2    0    0  0.51959431476E+03 -0.10175794335E+02  0.18674143050E+03  0.55808268689E+03  0.80635753944E+02 0.  0.
        254    2    1    2    0    0 -0.51959431476E+03  0.10175794335E+02 -0.85380106069E+03  0.13360480121E+04  0.88654737080E+03 0.  0.
         23    2    4    4    0    0 -0.11533434027E+03  0.41847584592E+03 -0.32659840241E+03  0.55083975819E+03  0.91290082083E+02 0.  0.
         23    2    4    4    0    0 -0.40425997449E+03 -0.40830005158E+03 -0.52720265828E+03  0.78520825391E+03  0.92055961320E+02 0.  0.
          4    1    3    3  502    0  0.39094057799E+03 -0.22166719362E+02  0.10579011973E+03  0.40560750536E+03  0.00000000000E+00 0. -1.
         -3    1    3    3    0  502  0.12865373677E+03  0.11990925027E+02  0.80951310768E+02  0.15247518153E+03  0.00000000000E+00 0.  1.
         11    1    5    5    0    0 -0.40617502076E+02  0.10787328161E+03 -0.41042956850E+02  0.12235583626E+03  0.00000000000E+00 0.  1.
        -11    1    5    5    0    0 -0.74716838195E+02  0.31060256431E+03 -0.28555544556E+03  0.42848392193E+03  0.00000000000E+00 0. -1.
          4    1    6    6  503    0 -0.26973804569E+03 -0.28450362715E+03 -0.41404349787E+03  0.57020430135E+03  0.00000000000E+00 0. -1.
         -4    1    6    6    0  503 -0.13452192880E+03 -0.12379642443E+03 -0.11315916041E+03  0.21500395255E+03  0.00000000000E+00 0.  1.
<mgrwt>
<rscale>  0 0.17727838E+04</rscale>
<asrwt>0</asrwt>
<pdfrwt beam="1">  1        2 0.94390084E-01 0.17727838E+04</pdfrwt>
<pdfrwt beam="2">  1       -1 0.19701464E+00 0.17727838E+04</pdfrwt>
<totfact> 0.82322531E+00</totfact>
</mgrwt>
</event>
<event>
12    6  0.1569942E-007  0.1312085E+04  0.7818608E-02  0.9020036E-01
         -1   -1    0    0    0  501 -0.00000000000E+00  0.00000000000E+00  0.99205355900E+02  0.99205355900E+02  0.00000000000E+00 0.  1.
          2   -1    0    0  501    0  0.00000000000E+00 -0.00000000000E+00 -0.43383949561E+04  0.43383949561E+04  0.00000000000E+00 0. -1.
         24    2    1    2    0    0  0.10872322761E+03  0.16040585478E+02 -0.22766540846E+04  0.22808044484E+04  0.82686578274E+02 0.  0.
        254    2    1    2    0    0 -0.10872322761E+03 -0.16040585478E+02 -0.19625355156E+04  0.21567958636E+04  0.88777514424E+03 0.  0.
         23    2    4    4    0    0 -0.38936597699E+03  0.23715377513E+03 -0.13685880700E+04  0.14453554900E+04  0.90395851166E+02 0.  0.
         23    2    4    4    0    0  0.28064274938E+03 -0.25319436061E+03 -0.59394744554E+03  0.71144037360E+03  0.10249926879E+03 0.  0.
          2    1    3    3  502    0  0.10418891440E+03 -0.14885009037E+02 -0.18635318113E+04  0.18665014613E+04  0.00000000000E+00 0. -1.
         -1    1    3    3    0  502  0.45343132032E+01  0.30925594515E+02 -0.41312227333E+03  0.41430298709E+03  0.00000000000E+00 0.  1.
         11    1    5    5    0    0 -0.24365210823E+03  0.96189603687E+02 -0.78532018485E+03  0.82785661949E+03  0.00000000000E+00 0.  1.
        -11    1    5    5    0    0 -0.14571386876E+03  0.14096417145E+03 -0.58326788519E+03  0.61749887051E+03  0.00000000000E+00 0. -1.
          4    1    6    6  503    0  0.63964075990E+02 -0.98862170295E+02 -0.25241185102E+03  0.27852625418E+03  0.00000000000E+00 0. -1.
         -4    1    6    6    0  503  0.21667867339E+03 -0.15433219032E+03 -0.34153559452E+03  0.43291411942E+03  0.00000000000E+00 0.  1.
<mgrwt>
<rscale>  0 0.13120854E+04</rscale>
<asrwt>0</asrwt>
<pdfrwt beam="1">  1        2 0.66744543E+00 0.13120854E+04</pdfrwt>
<pdfrwt beam="2">  1       -1 0.15262361E-01 0.13120854E+04</pdfrwt>
<totfact> 0.65177295E+00</totfact>
</mgrwt>
</event>
<event>
12    6  0.1569942E-007  0.1865114E+04  0.7818608E-02  0.8672419E-01
          2   -1    0    0  501    0  0.00000000000E+00  0.00000000000E+00  0.25711604653E+04  0.25711604653E+04  0.00000000000E+00 0. -1.
         -1   -1    0    0    0  501 -0.00000000000E+00 -0.00000000000E+00 -0.33823726320E+03  0.33823726320E+03  0.00000000000E+00 0.  1.
         24    2    1    2    0    0  0.62230167727E+03 -0.32921314159E+03  0.10306568234E+04  0.12506984061E+04  0.79701601978E+02 0.  0.
        254    2    1    2    0    0 -0.62230167727E+03  0.32921314159E+03  0.12022663787E+04  0.16586993224E+04  0.90011017467E+03 0.  0.
         23    2    4    4    0    0 -0.18009635934E+02  0.44591545556E+03  0.24502022531E+03  0.51714471434E+03  0.90767859205E+02 0.  0.
         23    2    4    4    0    0 -0.60429204134E+03 -0.11670231397E+03  0.95724615342E+03  0.11415546080E+04  0.89657256310E+02 0.  0.
          2    1    3    3  502    0  0.23873404993E+03 -0.15035490529E+03  0.47098440742E+03  0.54902354792E+03  0.00000000000E+00 0. -1.
         -1    1    3    3    0  502  0.38356762734E+03 -0.17885823630E+03  0.55967241593E+03  0.70167485818E+03  0.00000000000E+00 0.  1.
         11    1    5    5    0    0 -0.12802419635E+02  0.39670795501E+03  0.18101494354E+03  0.43624249369E+03  0.00000000000E+00 0.  1.
        -11    1    5    5    0    0 -0.52072162982E+01  0.49207500553E+02  0.64005281763E+02  0.80902220648E+02  0.00000000000E+00 0. -1.
          3    1    6    6  503    0 -0.36479133881E+03 -0.10202382328E+03  0.52842339710E+03  0.65016372399E+03  0.00000000000E+00 0. -1.
         -3    1    6    6    0  503 -0.23950070253E+03 -0.14678490693E+02  0.42882275632E+03  0.49139088406E+03  0.00000000000E+00 0.  1.
<mgrwt>
<rscale>  0 0.18651137E+04</rscale>
<asrwt>0</asrwt>
<pdfrwt beam="1">  1        2 0.39556314E+00 0.18651137E+04</pdfrwt>
<pdfrwt beam="2">  1       -1 0.52036504E-01 0.18651137E+04</pdfrwt>
<totfact> 0.12595580E+01</totfact>
</mgrwt>
</event>
<event>
12    6  0.1569942E-007  0.2682422E+04  0.7818608E-02  0.8340731E-01
          2   -1    0    0  501    0  0.00000000000E+00  0.00000000000E+00  0.15968250624E+04  0.15968250624E+04  0.00000000000E+00 0. -1.
         -1   -1    0    0    0  501 -0.00000000000E+00 -0.00000000000E+00 -0.11265143237E+04  0.11265143237E+04  0.00000000000E+00 0.  1.
         24    2    1    2    0    0  0.16672826534E+02 -0.15275835883E+03 -0.98837322796E+03  0.10034005432E+04  0.79485300742E+02 0.  0.
        254    2    1    2    0    0 -0.16672826534E+02  0.15275835883E+03  0.14586839667E+04  0.17199388429E+04  0.89823026518E+03 0.  0.
         23    2    4    4    0    0 -0.37332024140E+03  0.20913692429E+02  0.27584532079E+03  0.47376742855E+03  0.92517837072E+02 0.  0.
         23    2    4    4    0    0  0.35664741487E+03  0.13184466640E+03  0.11828386459E+04  0.12461714143E+04  0.96205702117E+02 0.  0.
          2    1    3    3  502    0 -0.27161072766E+02 -0.30713500703E+02 -0.17386697905E+03  0.17863585699E+03  0.00000000000E+00 0. -1.
         -3    1    3    3    0  502  0.43833899300E+02 -0.12204485813E+03 -0.81450624891E+03  0.82476468623E+03  0.00000000000E+00 0.  1.
         11    1    5    5    0    0 -0.30303200570E+03 -0.15716839324E+02  0.19584556021E+03  0.36115218256E+03  0.00000000000E+00 0. -1.
        -11    1    5    5    0    0 -0.70288235708E+02  0.36630531752E+02  0.79999760581E+02  0.11261524599E+03  0.00000000000E+00 0.  1.
          1    1    6    6  503    0  0.32892204804E+03  0.91934794106E+02  0.10735408100E+04  0.11265574068E+04  0.00000000000E+00 0. -1.
         -1    1    6    6    0  503  0.27725366833E+02  0.39909872294E+02  0.10929783584E+03  0.11961400751E+03  0.00000000000E+00 0.  1.
<mgrwt>
<rscale>  0 0.26824215E+04</rscale>
<asrwt>0</asrwt>
<pdfrwt beam="1">  1        2 0.24566539E+00 0.26824215E+04</pdfrwt>
<pdfrwt beam="2">  1       -1 0.17330990E+00 0.26824215E+04</pdfrwt>
<totfact> 0.26067307E+00</totfact>
</mgrwt>
</event>
<event>
12    6  0.1569942E-007  0.1683840E+04  0.7818608E-02  0.8770635E-01
          2   -1    0    0  501    0  0.00000000000E+00  0.00000000000E+00  0.87253942788E+03  0.87253942788E+03  0.00000000000E+00 0. -1.
         -1   -1    0    0    0  501 -0.00000000000E+00 -0.00000000000E+00 -0.81237475848E+03  0.81237475848E+03  0.00000000000E+00 0.  1.
         24    2    1    2    0    0 -0.47415768022E+03  0.24546809006E+03 -0.25450045085E+03  0.59690681230E+03  0.80294297031E+02 0.  0.
        254    2    1    2    0    0  0.47415768022E+03 -0.24546809006E+03  0.31466512026E+03  0.10880073741E+04  0.89424035871E+03 0.  0.
         23    2    4    4    0    0  0.56487043798E+03 -0.14590974721E+03 -0.13878687583E+03  0.60614444115E+03  0.88210093533E+02 0.  0.
         23    2    4    4    0    0 -0.90712757768E+02 -0.99558342850E+02  0.45345199609E+03  0.48186293290E+03  0.91828673611E+02 0.  0.
          4    1    3    3  502    0 -0.68328460399E+01 -0.10526299858E+01  0.47319672435E+01  0.83777878277E+01  0.00000000000E+00 0. -1.
         -3    1    3    3    0  502 -0.46732483418E+03  0.24652072005E+03 -0.25923241810E+03  0.58852902447E+03  0.00000000000E+00 0.  1.
         11    1    5    5    0    0  0.15154277235E+03  0.10390975976E+00 -0.41411147818E+02  0.15709903186E+03  0.00000000000E+00 0. -1.
        -11    1    5    5    0    0  0.41332766564E+03 -0.14601365697E+03 -0.97375728013E+02  0.44904540929E+03  0.00000000000E+00 0.  1.
          4    1    6    6  503    0 -0.47520160660E+02 -0.10507651854E+03  0.27553844673E+03  0.29869830272E+03  0.00000000000E+00 0. -1.
         -4    1    6    6    0  503 -0.43192597108E+02  0.55181756869E+01  0.17791354935E+03  0.18316463019E+03  0.00000000000E+00 0.  1.
<mgrwt>
<rscale>  0 0.16838397E+04</rscale>
<asrwt>0</asrwt>
<pdfrwt beam="1">  1        2 0.13423684E+00 0.16838397E+04</pdfrwt>
<pdfrwt beam="2">  1       -1 0.12498073E+00 0.16838397E+04</pdfrwt>
<totfact> 0.18642088E+01</totfact>
</mgrwt>
</event>
<event>
12    6  0.1569942E-007  0.2561850E+04  0.7818608E-02  0.8381276E-01
         -1   -1    0    0    0  501 -0.00000000000E+00  0.00000000000E+00  0.16011883340E+04  0.16011883340E+04  0.00000000000E+00 0.  1.
          2   -1    0    0  501    0  0.00000000000E+00 -0.00000000000E+00 -0.10247198277E+04  0.10247198277E+04  0.00000000000E+00 0. -1.
         24    2    1    2    0    0 -0.81312375896E+03 -0.66236648132E+03  0.63946904119E+03  0.12309913680E+04  0.80743361455E+02 0.  0.
        254    2    1    2    0    0  0.81312375896E+03  0.66236648132E+03 -0.63000534903E+02  0.13949167937E+04  0.91756427078E+03 0.  0.
         23    2    4    4    0    0 -0.16179967082E+03  0.28000986208E+01 -0.10527281793E+03  0.21334781542E+03  0.90818225699E+02 0.  0.
         23    2    4    4    0    0  0.97492342978E+03  0.65956638270E+03  0.42272283024E+02  0.11815689783E+04  0.93887152658E+02 0.  0.
          4    1    3    3  502    0 -0.18252121876E+03 -0.15688145647E+03  0.10864237127E+03  0.26406240081E+03  0.00000000000E+00 0. -1.
         -3    1    3    3    0  502 -0.63060254020E+03 -0.50548502484E+03  0.53082666992E+03  0.96692896716E+03  0.00000000000E+00 0.  1.
         11    1    5    5    0    0 -0.29013388845E-01  0.49353692888E+01 -0.37694638456E+02  0.38016371212E+02  0.00000000000E+00 0. -1.
        -11    1    5    5    0    0 -0.16177065743E+03 -0.21352706679E+01 -0.67578179471E+02  0.17533144420E+03  0.00000000000E+00 0.  1.
          4    1    6    6  503    0  0.44334406820E+03  0.29405398691E+03  0.65620435898E+02  0.53602961824E+03  0.00000000000E+00 0. -1.
         -4    1    6    6    0  503  0.53157936158E+03  0.36551239579E+03 -0.23348152873E+02  0.64553936005E+03  0.00000000000E+00 0.  1.
<mgrwt>
<rscale>  0 0.25618505E+04</rscale>
<asrwt>0</asrwt>
<pdfrwt beam="1">  1        2 0.15764921E+00 0.25618505E+04</pdfrwt>
<pdfrwt beam="2">  1       -1 0.24633667E+00 0.25618505E+04</pdfrwt>
<totfact> 0.18099855E+00</totfact>
</mgrwt>
</event>
<event>
12    6  0.1569942E-007  0.1302593E+04  0.7818608E-02  0.9027512E-01
          2   -1    0    0  501    0  0.00000000000E+00  0.00000000000E+00  0.21998706901E+04  0.21998706901E+04  0.00000000000E+00 0. -1.
         -1   -1    0    0    0  501 -0.00000000000E+00 -0.00000000000E+00 -0.19282361780E+03  0.19282361780E+03  0.00000000000E+00 0.  1.
         24    2    1    2    0    0  0.34424649672E+02 -0.83754251725E+02  0.11189408508E+04  0.11279876436E+04  0.11012567962E+03 0.  0.
        254    2    1    2    0    0 -0.34424649672E+02  0.83754251725E+02  0.88810622147E+03  0.12647066643E+04  0.89585180408E+03 0.  0.
         23    2    4    4    0    0 -0.27373222403E+03  0.19338006190E+03  0.14008667649E+02  0.34768991343E+03  0.91470510658E+02 0.  0.
         23    2    4    4    0    0  0.23930757436E+03 -0.10962581018E+03  0.87409755382E+03  0.91701675085E+03  0.87104846800E+02 0.  0.
          2    1    3    3  502    0 -0.85868501589E+01 -0.56450012173E+02  0.94541238793E+03  0.94713511239E+03  0.00000000000E+00 0. -1.
         -1    1    3    3    0  502  0.43011499831E+02 -0.27304239553E+02  0.17352846290E+03  0.18085253123E+03  0.00000000000E+00 0.  1.
         11    1    5    5    0    0 -0.22422900737E+02  0.12272475693E+02  0.27606537821E+02  0.37623411164E+02  0.00000000000E+00 0. -1.
        -11    1    5    5    0    0 -0.25130932329E+03  0.18110758621E+03 -0.13597870173E+02  0.31006650227E+03  0.00000000000E+00 0.  1.
          1    1    6    6  503    0  0.53632660200E+02  0.10802472682E+02  0.21023780120E+03  0.21723970335E+03  0.00000000000E+00 0. -1.
         -1    1    6    6    0  503  0.18567491416E+03 -0.12042828286E+03  0.66385975262E+03  0.69977704750E+03  0.00000000000E+00 0.  1.
<mgrwt>
<rscale>  0 0.13025928E+04</rscale>
<asrwt>0</asrwt>
<pdfrwt beam="1">  1        2 0.33844163E+00 0.13025928E+04</pdfrwt>
<pdfrwt beam="2">  1       -1 0.29665173E-01 0.13025928E+04</pdfrwt>
<totfact> 0.60123898E+01</totfact>
</mgrwt>
</event>
<event>
12    6  0.1887578E-007  0.2344470E+04  0.7818608E-02  0.8460591E-01
         -1   -1    0    0    0  501 -0.00000000000E+00  0.00000000000E+00  0.11304104845E+04  0.11304104845E+04  0.00000000000E+00 0.  1.
          2   -1    0    0  501    0  0.00000000000E+00 -0.00000000000E+00 -0.12156067138E+04  0.12156067138E+04  0.00000000000E+00 0. -1.
         24    2    1    2    0    0  0.55066532462E+03  0.47072409023E+02  0.78910951115E+03  0.96662862609E+03  0.78923816135E+02 0.  0.
        254    2    1    2    0    0 -0.55066532462E+03 -0.47072409023E+02 -0.87430574045E+03  0.13793885722E+04  0.91260845604E+03 0.  0.
         23    2    4    4    0    0 -0.38078271254E+03 -0.46387400579E+03 -0.51841198676E+03  0.79816071445E+03  0.90194072172E+02 0.  0.
         23    2    4    4    0    0 -0.16988261208E+03  0.41680159677E+03 -0.35589375369E+03  0.58122785780E+03  0.92637928590E+02 0.  0.
          2    1    3    3  502    0  0.95019485778E+02  0.23747839647E+02  0.18800493234E+03  0.21198706835E+03  0.00000000000E+00 0. -1.
         -1    1    3    3    0  502  0.45564583884E+03  0.23324569377E+02  0.60110457881E+03  0.75464155774E+03  0.00000000000E+00 0.  1.
         11    1    5    5    0    0 -0.32737624749E+02 -0.27052131748E+02 -0.70130083854E+02  0.81986575534E+02  0.00000000000E+00 0. -1.
        -11    1    5    5    0    0 -0.34804508779E+03 -0.43682187404E+03 -0.44828190290E+03  0.71617413891E+03  0.00000000000E+00 0.  1.
          1    1    6    6  503    0 -0.96209544251E+02  0.23072417547E+03 -0.13866984866E+03  0.28586578753E+03  0.00000000000E+00 0. -1.
         -1    1    6    6    0  503 -0.73673067829E+02  0.18607742130E+03 -0.21722390503E+03  0.29536207027E+03  0.00000000000E+00 0.  1.
<mgrwt>
<rscale>  0 0.23444697E+04</rscale>
<asrwt>0</asrwt>
<pdfrwt beam="1">  1        2 0.18701642E+00 0.23444697E+04</pdfrwt>
<pdfrwt beam="2">  1       -1 0.17390931E+00 0.23444697E+04</pdfrwt>
<totfact> 0.43973611E+00</totfact>
</mgrwt>
</event>
<event>
12    6  0.1569942E-007  0.3351759E+04  0.7818608E-02  0.8149849E-01
         -1   -1    0    0    0  501 -0.00000000000E+00  0.00000000000E+00  0.15346846850E+04  0.15346846850E+04  0.00000000000E+00 0.  1.
          2   -1    0    0  501    0  0.00000000000E+00 -0.00000000000E+00 -0.18300651103E+04  0.18300651103E+04  0.00000000000E+00 0. -1.
         24    2    1    2    0    0 -0.11030352971E+04 -0.10195173781E+04  0.26145771397E+03  0.15268098277E+04  0.81765291647E+02 0.  0.
        254    2    1    2    0    0  0.11030352971E+04  0.10195173781E+04 -0.55683813929E+03  0.18379399676E+04  0.90102833489E+03 0.  0.
         23    2    4    4    0    0  0.45212903774E+03  0.11594301324E+03 -0.54128025902E+03  0.72045945679E+03  0.90631456961E+02 0.  0.
         23    2    4    4    0    0  0.65090625936E+03  0.90357436488E+03 -0.15557880272E+02  0.11174805108E+04  0.91624522333E+02 0.  0.
          2    1    3    3  502    0 -0.62301914201E+02 -0.58256947064E+02 -0.41146758818E+01  0.85395145951E+02  0.00000000000E+00 0. -1.
         -1    1    3    3    0  502 -0.10407333829E+04 -0.96126043106E+03  0.26557238985E+03  0.14414146818E+04  0.00000000000E+00 0.  1.
         11    1    5    5    0    0  0.42064320740E+03  0.10916248222E+03 -0.45895219832E+03  0.63205559550E+03  0.00000000000E+00 0.  1.
        -11    1    5    5    0    0  0.31485830336E+02  0.67805310178E+01 -0.82328060703E+02  0.88403861296E+02  0.00000000000E+00 0. -1.
          1    1    6    6  503    0  0.71672149355E+02  0.58229533661E+02  0.55250612182E+01  0.92510009648E+02  0.00000000000E+00 0. -1.
         -1    1    6    6    0  503  0.57923411000E+03  0.84534483122E+03 -0.21082941490E+02  0.10249705012E+04  0.00000000000E+00 0.  1.
<mgrwt>
<rscale>  0 0.33517595E+04</rscale>
<asrwt>0</asrwt>
<pdfrwt beam="1">  1        2 0.28154848E+00 0.33517595E+04</pdfrwt>
<pdfrwt beam="2">  1       -1 0.23610534E+00 0.33517595E+04</pdfrwt>
<totfact> 0.67584087E-01</totfact>
</mgrwt>
</event>
<event>
12    6  0.1569942E-007  0.1867500E+04  0.7818608E-02  0.8671205E-01
         -3   -1    0    0    0  501 -0.00000000000E+00  0.00000000000E+00  0.16796204256E+04  0.16796204256E+04  0.00000000000E+00 0.  1.
          2   -1    0    0  501    0  0.00000000000E+00 -0.00000000000E+00 -0.51909875911E+03  0.51909875911E+03  0.00000000000E+00 0. -1.
         24    2    1    2    0    0  0.49582341305E+03 -0.24802183222E+03 -0.78202062391E+02  0.56541616369E+03  0.78893532138E+02 0.  0.
        254    2    1    2    0    0 -0.49582341305E+03  0.24802183222E+03  0.12387237289E+04  0.16333030210E+04  0.90878303010E+03 0.  0.
         23    2    4    4    0    0  0.49611804433E+02  0.41256621538E+03  0.80819084579E+03  0.91336198276E+03  0.91572130729E+02 0.  0.
         23    2    4    4    0    0 -0.54543521749E+03 -0.16454438316E+03  0.43053288310E+03  0.71994103827E+03  0.91553834696E+02 0.  0.
          4    1    3    3  502    0  0.48765036706E+03 -0.25118890064E+03 -0.69264991787E+02  0.55289816728E+03  0.00000000000E+00 0. -1.
         -3    1    3    3    0  502  0.81730459904E+01  0.31670684150E+01 -0.89370706041E+01  0.12517996409E+02  0.00000000000E+00 0.  1.
         11    1    5    5    0    0  0.50475124155E+02  0.40952489715E+03  0.81047219149E+03  0.90946333226E+03  0.00000000000E+00 0. -1.
        -11    1    5    5    0    0 -0.86331972125E+00  0.30413182281E+01 -0.22813457037E+01  0.38986505006E+01  0.00000000000E+00 0.  1.
          4    1    6    6  503    0 -0.34681981099E+03 -0.64427345277E+02  0.29178035365E+03  0.45778885842E+03  0.00000000000E+00 0. -1.
         -4    1    6    6    0  503 -0.19861540649E+03 -0.10011703788E+03  0.13875252946E+03  0.26215217985E+03  0.00000000000E+00 0.  1.
<mgrwt>
<rscale>  0 0.18674998E+04</rscale>
<asrwt>0</asrwt>
<pdfrwt beam="1">  1        2 0.79861348E-01 0.18674998E+04</pdfrwt>
<pdfrwt beam="2">  1       -3 0.25840314E+00 0.18674998E+04</pdfrwt>
<totfact> 0.22603659E+00</totfact>
</mgrwt>
</event>
<event>
12    6  0.1569942E-007  0.1759464E+04  0.7818608E-02  0.8728158E-01
          2   -1    0    0  501    0  0.00000000000E+00  0.00000000000E+00  0.10181141181E+04  0.10181141181E+04  0.00000000000E+00 0. -1.
         -1   -1    0    0    0  501 -0.00000000000E+00 -0.00000000000E+00 -0.76015859806E+03  0.76015859806E+03  0.00000000000E+00 0.  1.
         24    2    1    2    0    0 -0.24228844892E+03 -0.40122092194E+03  0.54159036842E+03  0.72073512243E+03  0.80355888661E+02 0.  0.
        254    2    1    2    0    0  0.24228844892E+03  0.40122092194E+03 -0.28363484836E+03  0.10575375938E+04  0.90457454880E+03 0.  0.
         23    2    4    4    0    0  0.55457870558E+03  0.12359688667E+03 -0.25324395297E+03  0.62885734623E+03  0.92170120502E+02 0.  0.
         23    2    4    4    0    0 -0.31229025666E+03  0.27762403527E+03 -0.30390895390E+02  0.42868024754E+03  0.90790080647E+02 0.  0.
          2    1    3    3  502    0 -0.22584847331E+03 -0.31418388415E+03  0.43757396566E+03  0.58411473306E+03  0.00000000000E+00 0. -1.
         -1    1    3    3    0  502 -0.16439975610E+02 -0.87037037793E+02  0.10401640276E+03  0.13662038936E+03  0.00000000000E+00 0.  1.
         11    1    5    5    0    0  0.27399883186E+03  0.19675193877E+02 -0.97117520581E+02  0.29136624018E+03  0.00000000000E+00 0.  1.
        -11    1    5    5    0    0  0.28057987372E+03  0.10392169280E+03 -0.15612643239E+03  0.33749110605E+03  0.00000000000E+00 0. -1.
          2    1    6    6  503    0 -0.26569913133E+03  0.19013336190E+03 -0.68151768286E+01  0.32679224338E+03  0.00000000000E+00 0. -1.
         -2    1    6    6    0  503 -0.46591125328E+02  0.87490673369E+02 -0.23575718562E+02  0.10188800416E+03  0.00000000000E+00 0.  1.
<mgrwt>
<rscale>  0 0.17594638E+04</rscale>
<asrwt>0</asrwt>
<pdfrwt beam="1">  1        2 0.15663294E+00 0.17594638E+04</pdfrwt>
<pdfrwt beam="2">  1       -1 0.11694748E+00 0.17594638E+04</pdfrwt>
<totfact> 0.17469530E+01</totfact>
</mgrwt>
</event>
<event>
12    6  0.1569942E-007  0.3497864E+04  0.7818608E-02  0.8114296E-01
         -1   -1    0    0    0  501 -0.00000000000E+00  0.00000000000E+00  0.80728855580E+03  0.80728855580E+03  0.00000000000E+00 0.  1.
          2   -1    0    0  501    0  0.00000000000E+00 -0.00000000000E+00 -0.37889336837E+04  0.37889336837E+04  0.00000000000E+00 0. -1.
         24    2    1    2    0    0 -0.15014790297E+04  0.56860762800E+03 -0.10187713509E+04  0.19031224185E+04  0.78904772064E+02 0.  0.
        254    2    1    2    0    0  0.15014790297E+04 -0.56860762800E+03 -0.19628737770E+04  0.26930998210E+04  0.90672998748E+03 0.  0.
         23    2    4    4    0    0  0.14376486278E+04 -0.30022886130E+03 -0.12778289758E+04  0.19487190979E+04  0.87682865020E+02 0.  0.
         23    2    4    4    0    0  0.63830401856E+02 -0.26837876670E+03 -0.68504480116E+03  0.74438072308E+03  0.93353086046E+02 0.  0.
          4    1    3    3  502    0 -0.13998483819E+03  0.43585603037E+02 -0.69016319557E+02  0.16204540129E+03  0.00000000000E+00 0. -1.
         -3    1    3    3    0  502 -0.13614941915E+04  0.52502202497E+03 -0.94975503133E+03  0.17410770172E+04  0.00000000000E+00 0.  1.
         11    1    5    5    0    0  0.11511878777E+04 -0.27584192521E+03 -0.10304375062E+04  0.15694342138E+04  0.00000000000E+00 0. -1.
        -11    1    5    5    0    0  0.28646075017E+03 -0.24386936098E+02 -0.24739146962E+03  0.37928488407E+03  0.00000000000E+00 0.  1.
          4    1    6    6  503    0  0.19565812542E+02 -0.12394875513E+03 -0.43021326876E+03  0.44814012488E+03  0.00000000000E+00 0. -1.
         -4    1    6    6    0  503  0.44264589314E+02 -0.14443001157E+03 -0.25483153241E+03  0.29624059819E+03  0.00000000000E+00 0.  1.
<mgrwt>
<rscale>  0 0.34978638E+04</rscale>
<asrwt>0</asrwt>
<pdfrwt beam="1">  1        2 0.58291288E+00 0.34978638E+04</pdfrwt>
<pdfrwt beam="2">  1       -1 0.12419824E+00 0.34978638E+04</pdfrwt>
<totfact> 0.26503054E-01</totfact>
</mgrwt>
</event>
<event>
12    6  0.1569942E-007  0.1401563E+04  0.7818608E-02  0.8952688E-01
         -1   -1    0    0    0  501 -0.00000000000E+00  0.00000000000E+00  0.25894634784E+03  0.25894634784E+03  0.00000000000E+00 0.  1.
          2   -1    0    0  501    0  0.00000000000E+00 -0.00000000000E+00 -0.18965104949E+04  0.18965104949E+04  0.00000000000E+00 0. -1.
         24    2    1    2    0    0  0.39658633922E+03  0.84803440565E+01 -0.35480565783E+03  0.53773269650E+03  0.76920461251E+02 0.  0.
        254    2    1    2    0    0 -0.39658633922E+03 -0.84803440565E+01 -0.12827584892E+04  0.16177241463E+04  0.90233554233E+03 0.  0.
         23    2    4    4    0    0  0.94423424144E+02  0.30830991152E+02  0.87779888152E+02  0.15838112507E+03  0.86677211368E+02 0.  0.
         23    2    4    4    0    0 -0.49100976337E+03 -0.39311335208E+02 -0.13705383774E+04  0.14593430212E+04  0.93116275580E+02 0.  0.
          2    1    3    3  502    0  0.39994204685E+03  0.99629060358E+01 -0.34918528234E+03  0.53102096168E+03  0.00000000000E+00 0. -1.
         -1    1    3    3    0  502 -0.33557076254E+01 -0.14825619792E+01 -0.56203754848E+01  0.67117348189E+01  0.00000000000E+00 0.  1.
         11    1    5    5    0    0  0.83410658663E+02  0.58548884576E+02  0.70408351745E+02  0.12386543448E+03  0.00000000000E+00 0. -1.
        -11    1    5    5    0    0  0.11012765481E+02 -0.27717893424E+02  0.17371536407E+02  0.34515690585E+02  0.00000000000E+00 0.  1.
          1    1    6    6  503    0 -0.17193639473E+03 -0.46356303528E+02 -0.40486576344E+03  0.44229776974E+03  0.00000000000E+00 0. -1.
         -1    1    6    6    0  503 -0.31907336864E+03  0.70449683195E+01 -0.96567261396E+03  0.10170452514E+04  0.00000000000E+00 0.  1.
<mgrwt>
<rscale>  0 0.14015627E+04</rscale>
<asrwt>0</asrwt>
<pdfrwt beam="1">  1        2 0.29177085E+00 0.14015627E+04</pdfrwt>
<pdfrwt beam="2">  1       -1 0.39837899E-01 0.14015627E+04</pdfrwt>
<totfact> 0.51904530E+01</totfact>
</mgrwt>
</event>
<event>
12    6  0.1569942E-007  0.3501911E+04  0.7818608E-02  0.8113337E-01
          2   -1    0    0  501    0  0.00000000000E+00  0.00000000000E+00  0.16144767431E+04  0.16144767431E+04  0.00000000000E+00 0. -1.
         -1   -1    0    0    0  501 -0.00000000000E+00 -0.00000000000E+00 -0.18989711588E+04  0.18989711588E+04  0.00000000000E+00 0.  1.
         24    2    1    2    0    0  0.87945063425E+03 -0.77447088196E+03  0.10151716857E+04  0.15521997036E+04  0.74241519942E+02 0.  0.
        254    2    1    2    0    0 -0.87945063425E+03  0.77447088196E+03 -0.12996661014E+04  0.19612481984E+04  0.88550773871E+03 0.  0.
         23    2    4    4    0    0 -0.15516828679E+03 -0.31847169160E+02 -0.69118156000E+03  0.71498224315E+03  0.91521689882E+02 0.  0.
         23    2    4    4    0    0 -0.72428234745E+03  0.80631805112E+03 -0.60848454141E+03  0.12462659552E+04  0.90507875804E+02 0.  0.
          2    1    3    3  502    0  0.81969976812E+03 -0.71505700309E+03  0.96513339058E+03  0.14541996731E+04  0.00000000000E+00 0. -1.
         -1    1    3    3    0  502  0.59750866127E+02 -0.59413878862E+02  0.50038295163E+02  0.98000030547E+02  0.00000000000E+00 0.  1.
         11    1    5    5    0    0 -0.16723059945E+03 -0.34089120572E+02 -0.64377501383E+03  0.66601382115E+03  0.00000000000E+00 0. -1.
        -11    1    5    5    0    0  0.12062312656E+02  0.22419514122E+01 -0.47406546177E+02  0.48968422000E+02  0.00000000000E+00 0.  1.
          3    1    6    6  503    0 -0.60511171349E+03  0.71626605499E+03 -0.51037177142E+03  0.10675563650E+04  0.00000000000E+00 0. -1.
         -3    1    6    6    0  503 -0.11917063397E+03  0.90051996123E+02 -0.98112769991E+02  0.17870959023E+03  0.00000000000E+00 0.  1.
<mgrwt>
<rscale>  0 0.35019108E+04</rscale>
<asrwt>0</asrwt>
<pdfrwt beam="1">  1        2 0.24838104E+00 0.35019108E+04</pdfrwt>
<pdfrwt beam="2">  1       -1 0.29214941E+00 0.35019108E+04</pdfrwt>
<totfact> 0.38005673E-01</totfact>
</mgrwt>
</event>
<event>
12    6  0.1569942E-007  0.1428254E+04  0.7818608E-02  0.8933617E-01
         -1   -1    0    0    0  501 -0.00000000000E+00  0.00000000000E+00  0.19865083470E+03  0.19865083470E+03  0.00000000000E+00 0.  1.
          2   -1    0    0  501    0  0.00000000000E+00 -0.00000000000E+00 -0.25672044412E+04  0.25672044412E+04  0.00000000000E+00 0. -1.
         24    2    1    2    0    0 -0.15523593329E+03  0.35202250002E+03 -0.10535227269E+04  0.11243468427E+04  0.78915468708E+02 0.  0.
        254    2    1    2    0    0  0.15523593329E+03 -0.35202250002E+03 -0.13150308796E+04  0.16415084332E+04  0.90400535747E+03 0.  0.
         23    2    4    4    0    0  0.41580196131E+03 -0.15685669721E+03 -0.23695278034E+03  0.51179166015E+03  0.91042785567E+02 0.  0.
         23    2    4    4    0    0 -0.26056602802E+03 -0.19516580281E+03 -0.10780780993E+04  0.11297167730E+04  0.89572616071E+02 0.  0.
          4    1    3    3  502    0 -0.12327303495E+03  0.24744453886E+03 -0.84211900672E+03  0.88633484780E+03  0.00000000000E+00 0. -1.
         -3    1    3    3    0  502 -0.31962898331E+02  0.10457796116E+03 -0.21140372018E+03  0.23801199494E+03  0.00000000000E+00 0.  1.
         11    1    5    5    0    0  0.13575122998E+02 -0.18085747816E+02  0.37678063521E+01  0.22925413915E+02  0.00000000000E+00 0. -1.
        -11    1    5    5    0    0  0.40222683831E+03 -0.13877094939E+03 -0.24072058669E+03  0.48886624624E+03  0.00000000000E+00 0.  1.
          4    1    6    6  503    0 -0.86385797712E+02 -0.34501507286E+02 -0.20620042882E+03  0.22621113345E+03  0.00000000000E+00 0. -1.
         -4    1    6    6    0  503 -0.17418023031E+03 -0.16066429552E+03 -0.87187767047E+03  0.90350563958E+03  0.00000000000E+00 0.  1.
<mgrwt>
<rscale>  0 0.14282539E+04</rscale>
<asrwt>0</asrwt>
<pdfrwt beam="1">  1        2 0.39495451E+00 0.14282539E+04</pdfrwt>
<pdfrwt beam="2">  1       -1 0.30561668E-01 0.14282539E+04</pdfrwt>
<totfact> 0.34891249E+01</totfact>
</mgrwt>
</event>
<event>
12    6  0.1569942E-007  0.2422123E+04  0.7818608E-02  0.8431267E-01
         -1   -1    0    0    0  501 -0.00000000000E+00  0.00000000000E+00  0.63981494992E+03  0.63981494992E+03  0.00000000000E+00 0.  1.
          2   -1    0    0  501    0  0.00000000000E+00 -0.00000000000E+00 -0.22923340599E+04  0.22923340599E+04  0.00000000000E+00 0. -1.
         24    2    1    2    0    0  0.23080734872E+03 -0.35968986696E+03 -0.18604207637E+04  0.19105344128E+04  0.79545533796E+02 0.  0.
        254    2    1    2    0    0 -0.23080734872E+03  0.35968986696E+03  0.20790165367E+03  0.10216145971E+04  0.90433647207E+03 0.  0.
         23    2    4    4    0    0  0.42066172389E+02  0.60158942397E+03  0.45001038743E+02  0.61179560006E+03  0.92678826420E+02 0.  0.
         23    2    4    4    0    0 -0.27287352111E+03 -0.24189955701E+03  0.16290061492E+03  0.40981899700E+03  0.91867544634E+02 0.  0.
          4    1    3    3  502    0  0.19547832552E+03 -0.24320591064E+03 -0.13936695476E+04  0.14281721530E+04  0.00000000000E+00 0. -1.
         -3    1    3    3    0  502  0.35329023198E+02 -0.11648395633E+03 -0.46675121609E+03  0.48236225980E+03  0.00000000000E+00 0.  1.
         11    1    5    5    0    0  0.20315438472E+02  0.56001210173E+03  0.25437200423E+02  0.56095750488E+03  0.00000000000E+00 0.  1.
        -11    1    5    5    0    0  0.21750733918E+02  0.41577322250E+02  0.19563838320E+02  0.50838095177E+02  0.00000000000E+00 0. -1.
          2    1    6    6  503    0 -0.18362095145E+03 -0.21010970273E+03  0.10153951028E+03  0.29693940988E+03  0.00000000000E+00 0.  1.
         -2    1    6    6    0  503 -0.89252569653E+02 -0.31789854281E+02  0.61361104640E+02  0.11287958712E+03  0.00000000000E+00 0. -1.
<mgrwt>
<rscale>  0 0.24221227E+04</rscale>
<asrwt>0</asrwt>
<pdfrwt beam="1">  1        2 0.35266677E+00 0.24221227E+04</pdfrwt>
<pdfrwt beam="2">  1       -1 0.98433071E-01 0.24221227E+04</pdfrwt>
<totfact> 0.46198389E+00</totfact>
</mgrwt>
</event>
<event>
12    6  0.1569942E-007  0.1714463E+04  0.7818608E-02  0.8753158E-01
          2   -1    0    0  501    0  0.00000000000E+00  0.00000000000E+00  0.42982095789E+04  0.42982095789E+04  0.00000000000E+00 0. -1.
         -1   -1    0    0    0  501 -0.00000000000E+00 -0.00000000000E+00 -0.17096551267E+03  0.17096551267E+03  0.00000000000E+00 0.  1.
         24    2    1    2    0    0  0.49351540890E+03 -0.13881730416E+03  0.60014945952E+03  0.79324736055E+03  0.78957574043E+02 0.  0.
        254    2    1    2    0    0 -0.49351540890E+03  0.13881730416E+03  0.35270946067E+04  0.36759277311E+04  0.89956690485E+03 0.  0.
         23    2    4    4    0    0  0.46560030134E+02 -0.92879765597E+02  0.43920583581E+02  0.14233885004E+03  0.86814994704E+02 0.  0.
         23    2    4    4    0    0 -0.54007543904E+03  0.23169706976E+03  0.34831740232E+04  0.35335888810E+04  0.91564689952E+02 0.  0.
          2    1    3    3  502    0  0.68487410726E+02 -0.32407380651E+02  0.53868623788E+02  0.92965544033E+02  0.00000000000E+00 0. -1.
         -1    1    3    3    0  502  0.42502799818E+03 -0.10640992351E+03  0.54628083574E+03  0.70028181652E+03  0.00000000000E+00 0.  1.
         11    1    5    5    0    0 -0.24799145658E+02 -0.25365457469E+02  0.21819887184E+02  0.41647467327E+02  0.00000000000E+00 0. -1.
        -11    1    5    5    0    0  0.71359175793E+02 -0.67514308127E+02  0.22100696397E+02  0.10069138271E+03  0.00000000000E+00 0.  1.
          3    1    6    6  503    0 -0.55379517024E+02  0.56633821114E+02  0.49734084038E+03  0.50360916603E+03  0.00000000000E+00 0. -1.
         -3    1    6    6    0  503 -0.48469592201E+03  0.17506324864E+03  0.29858331828E+04  0.30299797150E+04  0.00000000000E+00 0.  1.
<mgrwt>
<rscale>  0 0.17144627E+04</rscale>
<asrwt>0</asrwt>
<pdfrwt beam="1">  1        2 0.66126293E+00 0.17144627E+04</pdfrwt>
<pdfrwt beam="2">  1       -1 0.26302390E-01 0.17144627E+04</pdfrwt>
<totfact> 0.27027050E+00</totfact>
</mgrwt>
</event>
<event>
12    6  0.1569942E-007  0.2539526E+04  0.7818608E-02  0.8389038E-01
          2   -1    0    0  501    0  0.00000000000E+00  0.00000000000E+00  0.11209441773E+04  0.11209441773E+04  0.00000000000E+00 0. -1.
         -1   -1    0    0    0  501 -0.00000000000E+00 -0.00000000000E+00 -0.14383395839E+04  0.14383395839E+04  0.00000000000E+00 0.  1.
         24    2    1    2    0    0  0.94373374934E+03  0.56075391215E+03 -0.15990227284E+02  0.11007090980E+04  0.78908120369E+02 0.  0.
        254    2    1    2    0    0 -0.94373374934E+03 -0.56075391215E+03 -0.30140517926E+03  0.14585746632E+04  0.91187533487E+03 0.  0.
         23    2    4    4    0    0 -0.82672188908E+03 -0.32469726016E+02 -0.10392849360E+01  0.83246053165E+03  0.92011366955E+02 0.  0.
         23    2    4    4    0    0 -0.11701186025E+03 -0.52828418613E+03 -0.30036589432E+03  0.62611413152E+03  0.94990938823E+02 0.  0.
          4    1    3    3  502    0  0.33264627746E+03  0.18017313350E+03  0.28845941075E+02  0.37940478681E+03  0.00000000000E+00 0. -1.
         -3    1    3    3    0  502  0.61108747188E+03  0.38058077865E+03 -0.44836168360E+02  0.72130431120E+03  0.00000000000E+00 0.  1.
         11    1    5    5    0    0 -0.96029664969E+02 -0.33116064760E+02 -0.59197037636E+01  0.10175172329E+03  0.00000000000E+00 0. -1.
        -11    1    5    5    0    0 -0.73069222411E+03  0.64633874403E+00  0.48804188276E+01  0.73070880837E+03  0.00000000000E+00 0.  1.
          2    1    6    6  503    0 -0.10633363182E+02 -0.24561351048E+02  0.54331538882E+01  0.27310209429E+02  0.00000000000E+00 0. -1.
         -2    1    6    6    0  503 -0.10637849707E+03 -0.50372283509E+03 -0.30579904821E+03  0.59880392209E+03  0.00000000000E+00 0.  1.
<mgrwt>
<rscale>  0 0.25395262E+04</rscale>
<asrwt>0</asrwt>
<pdfrwt beam="1">  1        2 0.17245295E+00 0.25395262E+04</pdfrwt>
<pdfrwt beam="2">  1       -1 0.22128301E+00 0.25395262E+04</pdfrwt>
<totfact> 0.23120561E+00</totfact>
</mgrwt>
</event>
<event>
12    6  0.1569942E-007  0.2210381E+04  0.7818608E-02  0.8514120E-01
         -3   -1    0    0    0  501 -0.00000000000E+00  0.00000000000E+00  0.19257581654E+04  0.19257581654E+04  0.00000000000E+00 0.  1.
          2   -1    0    0  501    0  0.00000000000E+00 -0.00000000000E+00 -0.63426777300E+03  0.63426777300E+03  0.00000000000E+00 0. -1.
         24    2    1    2    0    0 -0.21586569976E+03  0.32811622011E+03 -0.42310067061E+03  0.58263162317E+03  0.78658608034E+02 0.  0.
        254    2    1    2    0    0  0.21586569976E+03 -0.32811622011E+03  0.17145910630E+04  0.19773943153E+04  0.90333134029E+03 0.  0.
         23    2    4    4    0    0 -0.11159602537E+02 -0.45803804301E+03  0.34723355137E+03  0.58234948251E+03  0.92932206509E+02 0.  0.
         23    2    4    4    0    0  0.22702530229E+03  0.12992182290E+03  0.13673575117E+04  0.13950448328E+04  0.89796173185E+02 0.  0.
          4    1    3    3  502    0 -0.21835479076E+03  0.30032620184E+03 -0.40457149026E+03  0.54913817286E+03  0.00000000000E+00 0. -1.
         -3    1    3    3    0  502  0.24890910019E+01  0.27790018267E+02 -0.18529180347E+02  0.33493450309E+02  0.00000000000E+00 0.  1.
         11    1    5    5    0    0 -0.77725547212E+01 -0.60825996053E+02  0.11809518755E+02  0.62447410963E+02  0.00000000000E+00 0.  1.
        -11    1    5    5    0    0 -0.33870478153E+01 -0.39721204696E+03  0.33542403262E+03  0.51990207155E+03  0.00000000000E+00 0. -1.
          3    1    6    6  503    0  0.19545162651E+03  0.14107716040E+03  0.11374004250E+04  0.11626623888E+04  0.00000000000E+00 0. -1.
         -3    1    6    6    0  503  0.31573675785E+02 -0.11155337494E+02  0.22995708665E+03  0.23238244395E+03  0.00000000000E+00 0.  1.
<mgrwt>
<rscale>  0 0.22103813E+04</rscale>
<asrwt>0</asrwt>
<pdfrwt beam="1">  1        2 0.97579659E-01 0.22103813E+04</pdfrwt>
<pdfrwt beam="2">  1       -3 0.29627048E+00 0.22103813E+04</pdfrwt>
<totfact> 0.10539242E+00</totfact>
</mgrwt>
</event>
<event>
12    6  0.1569942E-007  0.2182661E+04  0.7818608E-02  0.8525680E-01
         -1   -1    0    0    0  501 -0.00000000000E+00  0.00000000000E+00  0.87771294530E+03  0.87771294530E+03  0.00000000000E+00 0.  1.
          2   -1    0    0  501    0  0.00000000000E+00 -0.00000000000E+00 -0.13569387567E+04  0.13569387567E+04  0.00000000000E+00 0. -1.
         24    2    1    2    0    0 -0.22689283553E+03 -0.38369398790E+03  0.60987255323E+03  0.75896312735E+03  0.73342091192E+02 0.  0.
        254    2    1    2    0    0  0.22689283553E+03  0.38369398790E+03 -0.10890983646E+04  0.14756885746E+04  0.89040445098E+03 0.  0.
         23    2    4    4    0    0  0.87387332100E+02 -0.27984654841E+03 -0.40206011430E+03  0.50612127045E+03  0.92497396820E+02 0.  0.
         23    2    4    4    0    0  0.13950550343E+03  0.66354053631E+03 -0.68703825028E+03  0.96956730416E+03  0.91056966378E+02 0.  0.
          4    1    3    3  502    0 -0.10183210354E+03 -0.13089057360E+03  0.27506068963E+03  0.32118608710E+03  0.00000000000E+00 0. -1.
         -3    1    3    3    0  502 -0.12506073199E+03 -0.25280341430E+03  0.33481186360E+03  0.43777704025E+03  0.00000000000E+00 0.  1.
         11    1    5    5    0    0  0.58632198692E+02 -0.68816434758E+02 -0.15938933431E+03  0.18324408942E+03  0.00000000000E+00 0.  1.
        -11    1    5    5    0    0  0.28755133407E+02 -0.21103011365E+03 -0.24267078000E+03  0.32287718103E+03  0.00000000000E+00 0. -1.
          1    1    6    6  503    0  0.76636109323E+02  0.19023846396E+03 -0.23728120000E+03  0.31363375822E+03  0.00000000000E+00 0. -1.
         -1    1    6    6    0  503  0.62869394104E+02  0.47330207236E+03 -0.44975705029E+03  0.65593354594E+03  0.00000000000E+00 0.  1.
<mgrwt>
<rscale>  0 0.21826614E+04</rscale>
<asrwt>0</asrwt>
<pdfrwt beam="1">  1        2 0.20875981E+00 0.21826614E+04</pdfrwt>
<pdfrwt beam="2">  1       -1 0.13503276E+00 0.21826614E+04</pdfrwt>
<totfact> 0.73571374E+00</totfact>
</mgrwt>
</event>
<event>
12    6  0.1569942E-007  0.1425207E+04  0.7818608E-02  0.8935772E-01
         -1   -1    0    0    0  501 -0.00000000000E+00  0.00000000000E+00  0.29665387408E+03  0.29665387408E+03  0.00000000000E+00 0.  1.
          2   -1    0    0  501    0  0.00000000000E+00 -0.00000000000E+00 -0.17117711691E+04  0.17117711691E+04  0.00000000000E+00 0. -1.
         24    2    1    2    0    0  0.46620361348E+02 -0.99854363588E+02 -0.10173657220E+04  0.10263523375E+04  0.78878110171E+02 0.  0.
        254    2    1    2    0    0 -0.46620361348E+02  0.99854363588E+02 -0.39775157304E+03  0.98207270575E+03  0.89113193945E+03 0.  0.
         23    2    4    4    0    0  0.16691052940E+03  0.42441432827E+03 -0.77979230838E+02  0.47233174365E+03  0.95025621554E+02 0.  0.
         23    2    4    4    0    0 -0.21353089075E+03 -0.32455996468E+03 -0.31977234220E+03  0.50974096210E+03  0.81528434442E+02 0.  0.
          4    1    3    3  502    0  0.17591347178E+02 -0.91237424732E+02 -0.91201619268E+03  0.91673729000E+03  0.00000000000E+00 0. -1.
         -3    1    3    3    0  502  0.29029014170E+02 -0.86169388553E+01 -0.10534952933E+03  0.10961504745E+03  0.00000000000E+00 0.  1.
         11    1    5    5    0    0  0.12704089148E+03  0.23459323362E+03 -0.79452394448E+02  0.27836317348E+03  0.00000000000E+00 0. -1.
        -11    1    5    5    0    0  0.39869637928E+02  0.18982109465E+03  0.14731636106E+01  0.19396857017E+03  0.00000000000E+00 0.  1.
          2    1    6    6  503    0 -0.21412073234E+03 -0.28123513291E+03 -0.28935982221E+03  0.45680410978E+03  0.00000000000E+00 0. -1.
         -2    1    6    6    0  503  0.58984158938E+00 -0.43324831771E+02 -0.30412519996E+02  0.52936852320E+02  0.00000000000E+00 0.  1.
<mgrwt>
<rscale>  0 0.14252067E+04</rscale>
<asrwt>0</asrwt>
<pdfrwt beam="1">  1        2 0.26334941E+00 0.14252067E+04</pdfrwt>
<pdfrwt beam="2">  1       -1 0.45639058E-01 0.14252067E+04</pdfrwt>
<totfact> 0.50997057E+01</totfact>
</mgrwt>
</event>
<event>
12    6  0.1569942E-007  0.1832444E+04  0.7818608E-02  0.8689234E-01
          2   -1    0    0  501    0  0.00000000000E+00  0.00000000000E+00  0.12825452011E+04  0.12825452011E+04  0.00000000000E+00 0. -1.
         -1   -1    0    0    0  501 -0.00000000000E+00 -0.00000000000E+00 -0.65452857425E+03  0.65452857425E+03  0.00000000000E+00 0.  1.
         24    2    1    2    0    0 -0.24157059451E+03 -0.39058466186E+03 -0.30221600730E+03  0.55574772450E+03  0.81291377226E+02 0.  0.
        254    2    1    2    0    0  0.24157059451E+03  0.39058466186E+03  0.93023263415E+03  0.13813260508E+04  0.91203956871E+03 0.  0.
         23    2    4    4    0    0  0.10483420447E+03 -0.28827466893E+03  0.22924666735E+03  0.39173916960E+03  0.82541185708E+02 0.  0.
         23    2    4    4    0    0  0.13673639004E+03  0.67885933079E+03  0.70098596680E+03  0.98958688124E+03  0.91400429505E+02 0.  0.
          2    1    3    3  502    0 -0.74503029252E+02 -0.79703184532E+02 -0.40533490123E+02  0.11638841357E+03  0.00000000000E+00 0. -1.
         -1    1    3    3    0  502 -0.16706756526E+03 -0.31088147733E+03 -0.26168251718E+03  0.43935931093E+03  0.00000000000E+00 0.  1.
         11    1    5    5    0    0  0.38650864547E+02 -0.15828684099E+03  0.74759839424E+02  0.17926976028E+03  0.00000000000E+00 0.  1.
        -11    1    5    5    0    0  0.66183339920E+02 -0.12998782794E+03  0.15448682792E+03  0.21246940932E+03  0.00000000000E+00 0. -1.
          4    1    6    6  503    0  0.18861828040E+01  0.12733997526E+03  0.92841422630E+02  0.15760252771E+03  0.00000000000E+00 0. -1.
         -4    1    6    6    0  503  0.13485020724E+03  0.55151935552E+03  0.60814454417E+03  0.83198435353E+03  0.00000000000E+00 0.  1.
<mgrwt>
<rscale>  0 0.18324437E+04</rscale>
<asrwt>0</asrwt>
<pdfrwt beam="1">  1        2 0.19731465E+00 0.18324437E+04</pdfrwt>
<pdfrwt beam="2">  1       -1 0.10069670E+00 0.18324437E+04</pdfrwt>
<totfact> 0.17043704E+01</totfact>
</mgrwt>
</event>
<event>
12    6  0.1569942E-007  0.2056349E+04  0.7818608E-02  0.8580720E-01
          2   -1    0    0  501    0  0.00000000000E+00  0.00000000000E+00  0.17626333813E+04  0.17626333813E+04  0.00000000000E+00 0. -1.
         -1   -1    0    0    0  501 -0.00000000000E+00 -0.00000000000E+00 -0.59975177327E+03  0.59975177327E+03  0.00000000000E+00 0.  1.
         24    2    1    2    0    0  0.52319047669E+03 -0.36082535275E+03  0.10866783066E+04  0.12615101755E+04  0.81332471292E+02 0.  0.
        254    2    1    2    0    0 -0.52319047669E+03  0.36082535275E+03  0.76203301488E+02  0.11008749791E+04  0.89565370891E+03 0.  0.
         23    2    4    4    0    0 -0.58504711573E+03 -0.49334373516E+02 -0.15998870445E+03  0.61509665019E+03  0.89629768988E+02 0.  0.
         23    2    4    4    0    0  0.61856639033E+02  0.41015972626E+03  0.23619200594E+03  0.48577832888E+03  0.90203527097E+02 0.  0.
          4    1    3    3  502    0  0.47364036894E+03 -0.32843871335E+03  0.10255443200E+04  0.11764133371E+04  0.00000000000E+00 0. -1.
         -3    1    3    3    0  502  0.49550107756E+02 -0.32386639399E+02  0.61133986623E+02  0.85096838429E+02  0.00000000000E+00 0.  1.
         11    1    5    5    0    0 -0.42337287481E+03 -0.16307098384E+02 -0.15117119082E+03  0.44984802046E+03  0.00000000000E+00 0. -1.
        -11    1    5    5    0    0 -0.16167424092E+03 -0.33027275132E+02 -0.88175136354E+01  0.16524862972E+03  0.00000000000E+00 0.  1.
          1    1    6    6  503    0  0.45958004151E+02  0.32123427095E+03  0.22471736350E+03  0.39471697257E+03  0.00000000000E+00 0. -1.
         -1    1    6    6    0  503  0.15898634882E+02  0.88925455312E+02  0.11474642438E+02  0.91061356308E+02  0.00000000000E+00 0.  1.
<mgrwt>
<rscale>  0 0.20563487E+04</rscale>
<asrwt>0</asrwt>
<pdfrwt beam="1">  1        2 0.27117436E+00 0.20563487E+04</pdfrwt>
<pdfrwt beam="2">  1       -1 0.92269504E-01 0.20563487E+04</pdfrwt>
<totfact> 0.10895154E+01</totfact>
</mgrwt>
</event>
<event>
12    6  0.1569942E-007  0.3010483E+04  0.7818608E-02  0.8240744E-01
         -3   -1    0    0    0  501 -0.00000000000E+00  0.00000000000E+00  0.87106160871E+03  0.87106160871E+03  0.00000000000E+00 0.  1.
          2   -1    0    0  501    0  0.00000000000E+00 -0.00000000000E+00 -0.26011377632E+04  0.26011377632E+04  0.00000000000E+00 0. -1.
         24    2    1    2    0    0  0.17579415296E+03 -0.76629388134E+03 -0.20849356568E+04  0.22297306162E+04  0.81437282038E+02 0.  0.
        254    2    1    2    0    0 -0.17579415296E+03  0.76629388134E+03  0.35485950233E+03  0.12424687557E+04  0.89425580554E+03 0.  0.
         23    2    4    4    0    0  0.26841530786E+03  0.30009745990E+03 -0.12762986112E+03  0.43248850047E+03  0.93014292735E+02 0.  0.
         23    2    4    4    0    0 -0.44420946082E+03  0.46619642144E+03  0.48248936345E+03  0.80998025525E+03  0.92794825296E+02 0.  0.
          4    1    3    3  502    0  0.76127021652E+02 -0.50249874073E+03 -0.13181010177E+04  0.14126891380E+04  0.00000000000E+00 0. -1.
         -3    1    3    3    0  502  0.99667131305E+02 -0.26379514061E+03 -0.76683463917E+03  0.81704147820E+03  0.00000000000E+00 0.  1.
         11    1    5    5    0    0  0.31698339245E+02  0.69054198479E+02  0.49137728654E+01  0.76140739438E+02  0.00000000000E+00 0.  1.
        -11    1    5    5    0    0  0.23671696862E+03  0.23104326142E+03 -0.13254363399E+03  0.35634776103E+03  0.00000000000E+00 0. -1.
          3    1    6    6  503    0 -0.38191703071E+03  0.36051135604E+03  0.41895181575E+03  0.67182563221E+03  0.00000000000E+00 0. -1.
         -3    1    6    6    0  503 -0.62292430116E+02  0.10568506540E+03  0.63537547706E+02  0.13815462304E+03  0.00000000000E+00 0.  1.
<mgrwt>
<rscale>  0 0.30104825E+04</rscale>
<asrwt>0</asrwt>
<pdfrwt beam="1">  1        2 0.40017504E+00 0.30104825E+04</pdfrwt>
<pdfrwt beam="2">  1       -3 0.13400948E+00 0.30104825E+04</pdfrwt>
<totfact> 0.71198434E-01</totfact>
</mgrwt>
</event>
<event>
12    6  0.1569942E-007  0.1077150E+04  0.7818608E-02  0.9227754E-01
          2   -1    0    0  501    0  0.00000000000E+00  0.00000000000E+00  0.71840777345E+03  0.71840777345E+03  0.00000000000E+00 0. -1.
         -1   -1    0    0    0  501 -0.00000000000E+00 -0.00000000000E+00 -0.40375809219E+03  0.40375809219E+03  0.00000000000E+00 0.  1.
         24    2    1    2    0    0 -0.11935286298E+03 -0.46939388165E+02 -0.53428219735E+02  0.16052336794E+03  0.80403761897E+02 0.  0.
        254    2    1    2    0    0  0.11935286298E+03  0.46939388165E+02  0.36807790100E+03  0.96164249770E+03  0.87910553412E+03 0.  0.
         23    2    4    4    0    0  0.46753807865E+03 -0.96795983882E+02  0.29073632654E+03  0.56615172469E+03  0.89659613612E+02 0.  0.
         23    2    4    4    0    0 -0.34818521567E+03  0.14373537205E+03  0.77341574457E+02  0.39549077302E+03  0.92403629859E+02 0.  0.
          4    1    3    3  502    0  0.60434947818E+01 -0.19264304986E+02  0.27167108322E+01  0.20371985507E+02  0.00000000000E+00 0. -1.
         -3    1    3    3    0  502 -0.12539635776E+03 -0.27675083179E+02 -0.56144930567E+02  0.14015138243E+03  0.00000000000E+00 0.  1.
         11    1    5    5    0    0  0.44495336815E+03 -0.91374501869E+02  0.24804470129E+03  0.51755093784E+03  0.00000000000E+00 0.  1.
        -11    1    5    5    0    0  0.22584710499E+02 -0.54214820128E+01  0.42691625255E+02  0.48600786850E+02  0.00000000000E+00 0. -1.
          2    1    6    6  503    0 -0.21260907685E+02 -0.55576663379E+01 -0.12159121459E+02  0.25114897678E+02  0.00000000000E+00 0. -1.
         -2    1    6    6    0  503 -0.32692430799E+03  0.14929303838E+03  0.89500695916E+02  0.37037587534E+03  0.00000000000E+00 0.  1.
<mgrwt>
<rscale>  0 0.10771499E+04</rscale>
<asrwt>0</asrwt>
<pdfrwt beam="1">  1        2 0.11052427E+00 0.10771499E+04</pdfrwt>
<pdfrwt beam="2">  1       -1 0.62116630E-01 0.10771499E+04</pdfrwt>
<totfact> 0.11832237E+02</totfact>
</mgrwt>
</event>
<event>
12    6  0.1569942E-007  0.1431484E+04  0.7818608E-02  0.8931339E-01
          2   -1    0    0  501    0  0.00000000000E+00  0.00000000000E+00  0.11202187461E+04  0.11202187461E+04  0.00000000000E+00 0. -1.
         -1   -1    0    0    0  501 -0.00000000000E+00 -0.00000000000E+00 -0.45730970467E+03  0.45730970467E+03  0.00000000000E+00 0.  1.
         24    2    1    2    0    0 -0.27233883499E+03 -0.29757045909E+03  0.50870104273E+02  0.41428272041E+03  0.79534808441E+02 0.  0.
        254    2    1    2    0    0  0.27233883499E+03  0.29757045909E+03  0.61203893716E+03  0.11632457304E+04  0.90323438233E+03 0.  0.
         23    2    4    4    0    0  0.27310126526E+03 -0.26303090747E+03  0.11074066665E+03  0.40580633649E+03  0.92982407530E+02 0.  0.
         23    2    4    4    0    0 -0.76243027002E+00  0.56060136656E+03  0.50129827050E+03  0.75743939387E+03  0.90221981146E+02 0.  0.
          2    1    3    3  502    0 -0.96184959352E+02 -0.13527232853E+03  0.54598174536E+02  0.17473153675E+03  0.00000000000E+00 0. -1.
         -1    1    3    3    0  502 -0.17615387564E+03 -0.16229813056E+03 -0.37280702634E+01  0.23955118366E+03  0.00000000000E+00 0.  1.
         11    1    5    5    0    0  0.27221328383E+03 -0.23035369258E+03  0.92621571975E+02  0.36843133847E+03  0.00000000000E+00 0.  1.
        -11    1    5    5    0    0  0.88798143282E+00 -0.32677214898E+02  0.18119094680E+02  0.37374998014E+02  0.00000000000E+00 0. -1.
          4    1    6    6  503    0  0.39911571889E+02  0.15148040912E+03  0.14165487737E+03  0.21119979214E+03  0.00000000000E+00 0. -1.
         -4    1    6    6    0  503 -0.40674002159E+02  0.40912095744E+03  0.35964339314E+03  0.54623960173E+03  0.00000000000E+00 0.  1.
<mgrwt>
<rscale>  0 0.14314844E+04</rscale>
<asrwt>0</asrwt>
<pdfrwt beam="1">  1        2 0.17234134E+00 0.14314844E+04</pdfrwt>
<pdfrwt beam="2">  1       -1 0.70355340E-01 0.14314844E+04</pdfrwt>
<totfact> 0.47879258E+01</totfact>
</mgrwt>
</event>
<event>
12    6  0.1569942E-007  0.1926850E+04  0.7818608E-02  0.8641606E-01
          2   -1    0    0  501    0  0.00000000000E+00  0.00000000000E+00  0.16606012926E+04  0.16606012926E+04  0.00000000000E+00 0. -1.
         -1   -1    0    0    0  501 -0.00000000000E+00 -0.00000000000E+00 -0.55894667687E+03  0.55894667687E+03  0.00000000000E+00 0.  1.
         24    2    1    2    0    0 -0.13448728490E+03 -0.64556344237E+03  0.19336050471E+02  0.66461968409E+03  0.80662591745E+02 0.  0.
        254    2    1    2    0    0  0.13448728490E+03  0.64556344237E+03  0.10823185652E+04  0.15549282853E+04  0.90086042650E+03 0.  0.
         23    2    4    4    0    0  0.89012040844E+02  0.10416640479E+03 -0.13864437544E+03  0.21553501640E+03  0.91974437492E+02 0.  0.
         23    2    4    4    0    0  0.45475244061E+02  0.54139703758E+03  0.12209629407E+04  0.13393932689E+04  0.89694349394E+02 0.  0.
          2    1    3    3  502    0 -0.33336321989E+00 -0.98758599063E+02 -0.17901328138E+02  0.10036846900E+03  0.00000000000E+00 0. -1.
         -1    1    3    3    0  502 -0.13415392168E+03 -0.54680484331E+03  0.37237378609E+02  0.56425121509E+03  0.00000000000E+00 0.  1.
         11    1    5    5    0    0 -0.11179973686E+02  0.42526006710E+02 -0.58545904599E+02  0.73219369047E+02  0.00000000000E+00 0. -1.
        -11    1    5    5    0    0  0.10019201453E+03  0.61640398083E+02 -0.80098470841E+02  0.14231564736E+03  0.00000000000E+00 0.  1.
          1    1    6    6  503    0  0.41886780340E+02  0.92757073746E+02  0.21113723170E+03  0.23438708946E+03  0.00000000000E+00 0. -1.
         -1    1    6    6    0  503  0.35884637205E+01  0.44863996383E+03  0.10098257090E+04  0.11050061795E+04  0.00000000000E+00 0.  1.
<mgrwt>
<rscale>  0 0.19268498E+04</rscale>
<asrwt>0</asrwt>
<pdfrwt beam="1">  1        2 0.25547712E+00 0.19268498E+04</pdfrwt>
<pdfrwt beam="2">  1       -1 0.85991797E-01 0.19268498E+04</pdfrwt>
<totfact> 0.14658855E+01</totfact>
</mgrwt>
</event>
<event>
12    6  0.1569942E-007  0.1299744E+04  0.7818608E-02  0.9029768E-01
         -3   -1    0    0    0  501 -0.00000000000E+00  0.00000000000E+00  0.12420419468E+03  0.12420419468E+03  0.00000000000E+00 0.  1.
          2   -1    0    0  501    0  0.00000000000E+00 -0.00000000000E+00 -0.34003189371E+04  0.34003189371E+04  0.00000000000E+00 0. -1.
         24    2    1    2    0    0  0.11527173071E+03 -0.13581617089E+03 -0.16477218494E+04  0.16592731367E+04  0.80414210082E+02 0.  0.
        254    2    1    2    0    0 -0.11527173071E+03  0.13581617089E+03 -0.16283928930E+04  0.18652499950E+04  0.89205410471E+03 0.  0.
         23    2    4    4    0    0  0.45721432638E+02 -0.17965163154E+03 -0.10723570009E+02  0.20714583059E+03  0.91810903820E+02 0.  0.
         23    2    4    4    0    0 -0.16099316335E+03  0.31546780243E+03 -0.16176693230E+04  0.16581041644E+04  0.83765437326E+02 0.  0.
          4    1    3    3  502    0  0.11553389502E+03 -0.13368134065E+03 -0.16476752598E+04  0.16571217649E+04  0.00000000000E+00 0. -1.
         -3    1    3    3    0  502 -0.26216431172E+00 -0.21348302452E+01 -0.46589544540E-01  0.21513718618E+01  0.00000000000E+00 0.  1.
         11    1    5    5    0    0  0.46821908869E+02 -0.18901838199E+03 -0.17524703099E+02  0.19551817076E+03  0.00000000000E+00 0.  1.
        -11    1    5    5    0    0 -0.11004762312E+01  0.93667504454E+01  0.68011330908E+01  0.11627659832E+02  0.00000000000E+00 0. -1.
          4    1    6    6  503    0 -0.36218865491E+02  0.30804980157E+02 -0.13281013480E+03  0.14106482526E+03  0.00000000000E+00 0. -1.
         -4    1    6    6    0  503 -0.12477429786E+03  0.28466282227E+03 -0.14848591882E+04  0.15170393392E+04  0.00000000000E+00 0.  1.
<mgrwt>
<rscale>  0 0.12997444E+04</rscale>
<asrwt>0</asrwt>
<pdfrwt beam="1">  1        2 0.52312598E+00 0.12997444E+04</pdfrwt>
<pdfrwt beam="2">  1       -3 0.19108338E-01 0.12997444E+04</pdfrwt>
<totfact> 0.15522533E+01</totfact>
</mgrwt>
</event>
<event>
12    6  0.1569942E-007  0.1282378E+04  0.7818608E-02  0.9043658E-01
         -1   -1    0    0    0  501 -0.00000000000E+00  0.00000000000E+00  0.17673386155E+03  0.17673386155E+03  0.00000000000E+00 0.  1.
          2   -1    0    0  501    0  0.00000000000E+00 -0.00000000000E+00 -0.23262280358E+04  0.23262280358E+04  0.00000000000E+00 0. -1.
         24    2    1    2    0    0  0.22697025315E+03  0.20573751027E+03 -0.39291853474E+03  0.50539574994E+03  0.84832011448E+02 0.  0.
        254    2    1    2    0    0 -0.22697025315E+03 -0.20573751027E+03 -0.17565756395E+04  0.19975661474E+04  0.90048271333E+03 0.  0.
         23    2    4    4    0    0  0.25841109434E+03 -0.34102895813E+03 -0.72866532784E+03  0.84915279664E+03  0.83846693884E+02 0.  0.
         23    2    4    4    0    0 -0.48538134750E+03  0.13529144786E+03 -0.10279103116E+04  0.11484133507E+04  0.91404524203E+02 0.  0.
          4    1    3    3  502    0  0.10511104628E+02  0.86987836695E+01 -0.62498993913E+02  0.63970902745E+02  0.00000000000E+00 0. -1.
         -3    1    3    3    0  502  0.21645914852E+03  0.19703872660E+03 -0.33041954082E+03  0.44142484719E+03  0.00000000000E+00 0.  1.
         11    1    5    5    0    0  0.22029601708E+03 -0.23834441830E+03 -0.50855804140E+03  0.60329899581E+03  0.00000000000E+00 0. -1.
        -11    1    5    5    0    0  0.38115077262E+02 -0.10268453983E+03 -0.22010728644E+03  0.24585380083E+03  0.00000000000E+00 0.  1.
          3    1    6    6  503    0 -0.43359855400E+03  0.13072894736E+03 -0.85070951660E+03  0.96374501054E+03  0.00000000000E+00 0. -1.
         -3    1    6    6    0  503 -0.51782793497E+02  0.45625004939E+01 -0.17720079503E+03  0.18466834020E+03  0.00000000000E+00 0.  1.
<mgrwt>
<rscale>  0 0.12823779E+04</rscale>
<asrwt>0</asrwt>
<pdfrwt beam="1">  1        2 0.35788122E+00 0.12823779E+04</pdfrwt>
<pdfrwt beam="2">  1       -1 0.27189826E-01 0.12823779E+04</pdfrwt>
<totfact> 0.59524836E+01</totfact>
</mgrwt>
</event>
<event>
12    6  0.1569942E-007  0.1684828E+04  0.7818608E-02  0.8770065E-01
          2   -1    0    0  501    0  0.00000000000E+00  0.00000000000E+00  0.18546420536E+04  0.18546420536E+04  0.00000000000E+00 0. -1.
         -1   -1    0    0    0  501 -0.00000000000E+00 -0.00000000000E+00 -0.38264044677E+03  0.38264044677E+03  0.00000000000E+00 0.  1.
         24    2    1    2    0    0  0.88024351508E+02 -0.27865440193E+02 -0.25743804553E+03  0.28451622913E+03  0.78424282836E+02 0.  0.
        254    2    1    2    0    0 -0.88024351508E+02  0.27865440193E+02  0.17294396524E+04  0.19527662713E+04  0.90211408909E+03 0.  0.
         23    2    4    4    0    0 -0.43290301048E+03 -0.19120411281E+03  0.10379590797E+04  0.11444962453E+04  0.92458505446E+02 0.  0.
         23    2    4    4    0    0  0.34487865897E+03  0.21906955300E+03  0.69148057274E+03  0.80827002598E+03  0.90676865576E+02 0.  0.
          4    1    3    3  502    0  0.30230700369E+02 -0.39144412427E+02 -0.56314493123E+02  0.74949999365E+02  0.00000000000E+00 0. -1.
         -3    1    3    3    0  502  0.57793651139E+02  0.11278972234E+02 -0.20112355241E+03  0.20956622977E+03  0.00000000000E+00 0.  1.
         11    1    5    5    0    0 -0.11069047254E+03 -0.30338896476E+02  0.17357618135E+03  0.20809017296E+03  0.00000000000E+00 0.  1.
        -11    1    5    5    0    0 -0.32221253794E+03 -0.16086521633E+03  0.86438289830E+03  0.93640607234E+03  0.00000000000E+00 0. -1.
          3    1    6    6  503    0  0.30193542807E+03  0.18309269098E+03  0.52573631275E+03  0.63331398750E+03  0.00000000000E+00 0. -1.
         -3    1    6    6    0  503  0.42943230897E+02  0.35976862020E+02  0.16574425999E+03  0.17495603848E+03  0.00000000000E+00 0.  1.
<mgrwt>
<rscale>  0 0.16848277E+04</rscale>
<asrwt>0</asrwt>
<pdfrwt beam="1">  1        2 0.28532954E+00 0.16848277E+04</pdfrwt>
<pdfrwt beam="2">  1       -1 0.58867762E-01 0.16848277E+04</pdfrwt>
<totfact> 0.25537871E+01</totfact>
</mgrwt>
</event>
<event>
12    6  0.1569942E-007  0.1456751E+04  0.7818608E-02  0.8913733E-01
         -1   -1    0    0    0  501 -0.00000000000E+00  0.00000000000E+00  0.27362121378E+03  0.27362121378E+03  0.00000000000E+00 0.  1.
          2   -1    0    0  501    0  0.00000000000E+00 -0.00000000000E+00 -0.19389247369E+04  0.19389247369E+04  0.00000000000E+00 0. -1.
         24    2    1    2    0    0  0.39563785070E+03 -0.45596725756E+02 -0.79337146748E+03  0.89129454343E+03  0.79745265999E+02 0.  0.
        254    2    1    2    0    0 -0.39563785070E+03  0.45596725756E+02 -0.87193205566E+03  0.13212514073E+04  0.90930270054E+03 0.  0.
         23    2    4    4    0    0 -0.47839560912E+03 -0.24795757709E+03 -0.83784779708E+03  0.10011357961E+04  0.99692689401E+02 0.  0.
         23    2    4    4    0    0  0.82757758427E+02  0.29355430285E+03 -0.34084258578E+02  0.32011561115E+03  0.91045551879E+02 0.  0.
          4    1    3    3  502    0  0.18343599624E+03 -0.47610816859E+02 -0.44034726642E+03  0.47939677684E+03  0.00000000000E+00 0. -1.
         -3    1    3    3    0  502  0.21220185445E+03  0.20140911035E+01 -0.35302420106E+03  0.41189776660E+03  0.00000000000E+00 0.  1.
         11    1    5    5    0    0 -0.41466309617E+03 -0.24676246674E+03 -0.76353845228E+03  0.90323206676E+03  0.00000000000E+00 0.  1.
        -11    1    5    5    0    0 -0.63732512956E+02 -0.11951103520E+01 -0.74309344804E+02  0.97903729355E+02  0.00000000000E+00 0. -1.
          2    1    6    6  503    0 -0.20026628084E+02  0.53086983172E+02 -0.40458237450E+01  0.56882882350E+02  0.00000000000E+00 0. -1.
         -2    1    6    6    0  503  0.10278438651E+03  0.24046731968E+03 -0.30038434833E+02  0.26323272880E+03  0.00000000000E+00 0.  1.
<mgrwt>
<rscale>  0 0.14567511E+04</rscale>
<asrwt>0</asrwt>
<pdfrwt beam="1">  1        2 0.29829612E+00 0.14567511E+04</pdfrwt>
<pdfrwt beam="2">  1       -1 0.42095570E-01 0.14567511E+04</pdfrwt>
<totfact> 0.44242029E+01</totfact>
</mgrwt>
</event>
<event>
12    6  0.1569942E-007  0.1550455E+04  0.7818608E-02  0.8851577E-01
          2   -1    0    0  501    0  0.00000000000E+00  0.00000000000E+00  0.10025314484E+04  0.10025314484E+04  0.00000000000E+00 0. -1.
         -1   -1    0    0    0  501 -0.00000000000E+00 -0.00000000000E+00 -0.59946050889E+03  0.59946050889E+03  0.00000000000E+00 0.  1.
         24    2    1    2    0    0  0.16736045101E+03 -0.41580925356E+03  0.38324355418E+03  0.59409449583E+03  0.71873446037E+02 0.  0.
        254    2    1    2    0    0 -0.16736045101E+03  0.41580925356E+03  0.19827385352E+02  0.10078974615E+04  0.90252828862E+03 0.  0.
         23    2    4    4    0    0 -0.22146419969E+03  0.83120144875E+02  0.41147652179E+03  0.48311649622E+03  0.90184647835E+02 0.  0.
         23    2    4    4    0    0  0.54103748686E+02  0.33268910868E+03 -0.39164913644E+03  0.52478096527E+03  0.91633818940E+02 0.  0.
          4    1    3    3  502    0  0.17367597413E+03 -0.38321908739E+03  0.35658487156E+03  0.55151879710E+03  0.00000000000E+00 0. -1.
         -3    1    3    3    0  502 -0.63155231165E+01 -0.32590166173E+02  0.26658682618E+02  0.42575698730E+02  0.00000000000E+00 0.  1.
         11    1    5    5    0    0 -0.16877996482E+03  0.10112514700E+03  0.33523548471E+03  0.38871043476E+03  0.00000000000E+00 0. -1.
        -11    1    5    5    0    0 -0.52684234878E+02 -0.18005002125E+02  0.76241037083E+02  0.94406061467E+02  0.00000000000E+00 0.  1.
          4    1    6    6  503    0  0.76859931620E+02  0.19318829205E+03 -0.23666533840E+03  0.31502324942E+03  0.00000000000E+00 0. -1.
         -4    1    6    6    0  503 -0.22756182935E+02  0.13950081663E+03 -0.15498379804E+03  0.20975771585E+03  0.00000000000E+00 0.  1.
<mgrwt>
<rscale>  0 0.15504554E+04</rscale>
<asrwt>0</asrwt>
<pdfrwt beam="1">  1        2 0.15423561E+00 0.15504554E+04</pdfrwt>
<pdfrwt beam="2">  1       -1 0.92224693E-01 0.15504554E+04</pdfrwt>
<totfact> 0.31540162E+01</totfact>
</mgrwt>
</event>
<event>
12    6  0.1569942E-007  0.1194399E+04  0.7818608E-02  0.9117773E-01
         -1   -1    0    0    0  501 -0.00000000000E+00  0.00000000000E+00  0.34625616819E+03  0.34625616819E+03  0.00000000000E+00 0.  1.
          2   -1    0    0  501    0  0.00000000000E+00 -0.00000000000E+00 -0.10300105886E+04  0.10300105886E+04  0.00000000000E+00 0. -1.
         24    2    1    2    0    0 -0.25062590344E+03 -0.61280852825E+02 -0.16728490297E+03  0.31789247095E+03  0.80639307581E+02 0.  0.
        254    2    1    2    0    0  0.25062590344E+03  0.61280852825E+02 -0.51646951746E+03  0.10583742859E+04  0.88704378703E+03 0.  0.
         23    2    4    4    0    0  0.42945104866E+03  0.35613076261E+03 -0.28366230204E+03  0.63235483118E+03  0.90282931128E+02 0.  0.
         23    2    4    4    0    0 -0.17882514521E+03 -0.29484990978E+03 -0.23280721542E+03  0.42601945468E+03  0.91534006549E+02 0.  0.
          2    1    3    3  502    0 -0.25489441130E+02 -0.23651966267E+02 -0.50982203105E+02  0.61711523647E+02  0.00000000000E+00 0. -1.
         -1    1    3    3    0  502 -0.22513646231E+03 -0.37628886558E+02 -0.11630269986E+03  0.25618094730E+03  0.00000000000E+00 0.  1.
         11    1    5    5    0    0  0.41078437358E+03  0.31861875700E+03 -0.24259270639E+03  0.57368365419E+03  0.00000000000E+00 0. -1.
        -11    1    5    5    0    0  0.18666675080E+02  0.37512005606E+02 -0.41069595649E+02  0.58671176995E+02  0.00000000000E+00 0.  1.
          1    1    6    6  503    0 -0.18210397406E+03 -0.23933960935E+03 -0.18865520798E+03  0.35501562426E+03  0.00000000000E+00 0. -1.
         -1    1    6    6    0  503  0.32788288496E+01 -0.55510300435E+02 -0.44152007443E+02  0.71003830420E+02  0.00000000000E+00 0.  1.
<mgrwt>
<rscale>  0 0.11943995E+04</rscale>
<asrwt>0</asrwt>
<pdfrwt beam="1">  1        2 0.15846317E+00 0.11943995E+04</pdfrwt>
<pdfrwt beam="2">  1       -1 0.53270180E-01 0.11943995E+04</pdfrwt>
<totfact> 0.96423498E+01</totfact>
</mgrwt>
</event>
<event>
12    6  0.1569942E-007  0.2072028E+04  0.7818608E-02  0.8573666E-01
          2   -1    0    0  501    0  0.00000000000E+00  0.00000000000E+00  0.66612405040E+03  0.66612405040E+03  0.00000000000E+00 0. -1.
         -1   -1    0    0    0  501 -0.00000000000E+00 -0.00000000000E+00 -0.16112996188E+04  0.16112996188E+04  0.00000000000E+00 0.  1.
         24    2    1    2    0    0  0.44900809279E+03 -0.16248540439E+02 -0.11558747451E+04  0.12427412559E+04  0.80542660555E+02 0.  0.
        254    2    1    2    0    0 -0.44900809279E+03  0.16248540439E+02  0.21069917677E+03  0.10346824133E+04  0.90791038698E+03 0.  0.
         23    2    4    4    0    0 -0.49820814178E+03  0.49111086503E+02  0.50731837815E+03  0.71860803658E+03  0.91664180959E+02 0.  0.
         23    2    4    4    0    0  0.49200048987E+02 -0.32862546064E+02 -0.29661920138E+03  0.31607437670E+03  0.91757665748E+02 0.  0.
          4    1    3    3  502    0  0.10205024103E+03 -0.29659813012E+02 -0.33500769302E+03  0.35145997010E+03  0.00000000000E+00 0. -1.
         -3    1    3    3    0  502  0.34695785176E+03  0.13411272573E+02 -0.82086705212E+03  0.89128128578E+03  0.00000000000E+00 0.  1.
         11    1    5    5    0    0 -0.41437390633E+03  0.38164261708E+02  0.46517927468E+03  0.62414261408E+03  0.00000000000E+00 0. -1.
        -11    1    5    5    0    0 -0.83834235448E+02  0.10946824795E+02  0.42139103475E+02  0.94465422499E+02  0.00000000000E+00 0.  1.
          2    1    6    6  503    0 -0.39852784973E+00 -0.44866526968E+02 -0.21637742731E+03  0.22098044057E+03  0.00000000000E+00 0. -1.
         -2    1    6    6    0  503  0.49598576837E+02  0.12003980904E+02 -0.80241774069E+02  0.95093936124E+02  0.00000000000E+00 0.  1.
<mgrwt>
<rscale>  0 0.20720284E+04</rscale>
<asrwt>0</asrwt>
<pdfrwt beam="1">  1        2 0.10248063E+00 0.20720284E+04</pdfrwt>
<pdfrwt beam="2">  1       -1 0.24789224E+00 0.20720284E+04</pdfrwt>
<totfact> 0.33094099E+00</totfact>
</mgrwt>
</event>
<event>
12    6  0.1569942E-007  0.2001667E+04  0.7818608E-02  0.8605841E-01
         -1   -1    0    0    0  501 -0.00000000000E+00  0.00000000000E+00  0.24790203535E+03  0.24790203535E+03  0.00000000000E+00 0.  1.
          2   -1    0    0  501    0  0.00000000000E+00 -0.00000000000E+00 -0.40405806668E+04  0.40405806668E+04  0.00000000000E+00 0. -1.
         24    2    1    2    0    0  0.57180899547E+03 -0.23828152092E+03 -0.25592519753E+04  0.26343772322E+04  0.80181779297E+02 0.  0.
        254    2    1    2    0    0 -0.57180899547E+03  0.23828152092E+03 -0.12334266562E+04  0.16541054700E+04  0.91158103275E+03 0.  0.
         23    2    4    4    0    0 -0.30061100157E+03  0.14530910343E+03  0.37390409805E+02  0.34816743587E+03  0.91328039752E+02 0.  0.
         23    2    4    4    0    0 -0.27119799389E+03  0.92972417498E+02 -0.12708170660E+04  0.13059380341E+04  0.91136773947E+02 0.  0.
          4    1    3    3  502    0  0.36343794665E+03 -0.14980131838E+03 -0.14555277259E+04  0.15076765359E+04  0.00000000000E+00 0. -1.
         -3    1    3    3    0  502  0.20837104882E+03 -0.88480202546E+02 -0.11037242494E+04  0.11267006963E+04  0.00000000000E+00 0.  1.
         11    1    5    5    0    0 -0.26047243348E+03  0.15129436009E+03  0.50694483650E+02  0.30545998538E+03  0.00000000000E+00 0. -1.
        -11    1    5    5    0    0 -0.40138568091E+02 -0.59852566587E+01 -0.13304073845E+02  0.42707450480E+02  0.00000000000E+00 0.  1.
          2    1    6    6  503    0 -0.13947999913E+03  0.85928537849E+02 -0.58264975955E+03  0.60524303059E+03  0.00000000000E+00 0.  1.
         -2    1    6    6    0  503 -0.13171799476E+03  0.70438796485E+01 -0.68816730641E+03  0.70069500355E+03  0.00000000000E+00 0. -1.
<mgrwt>
<rscale>  0 0.20016675E+04</rscale>
<asrwt>0</asrwt>
<pdfrwt beam="1">  1        2 0.62162778E+00 0.20016675E+04</pdfrwt>
<pdfrwt beam="2">  1       -1 0.38138775E-01 0.20016675E+04</pdfrwt>
<totfact> 0.22516764E+00</totfact>
</mgrwt>
</event>
<event>
12    6  0.1569942E-007  0.1768895E+04  0.7818608E-02  0.8723018E-01
         -1   -1    0    0    0  501 -0.00000000000E+00  0.00000000000E+00  0.23890544147E+03  0.23890544147E+03  0.00000000000E+00 0.  1.
          2   -1    0    0  501    0  0.00000000000E+00 -0.00000000000E+00 -0.32742956558E+04  0.32742956558E+04  0.00000000000E+00 0. -1.
         24    2    1    2    0    0  0.36164043979E+03  0.42013309872E+03 -0.18420741560E+04  0.19253038043E+04  0.79132259430E+02 0.  0.
        254    2    1    2    0    0 -0.36164043979E+03 -0.42013309872E+03 -0.11933160584E+04  0.15878972930E+04  0.88888636480E+03 0.  0.
         23    2    4    4    0    0  0.26181371707E+03 -0.22122039823E+03 -0.24245136230E+03  0.42993610779E+03  0.92614829580E+02 0.  0.
         23    2    4    4    0    0 -0.62345415687E+03 -0.19891270048E+03 -0.95086469609E+03  0.11579611852E+04  0.92027648175E+02 0.  0.
          4    1    3    3  502    0  0.84012407438E+02  0.12012113431E+03 -0.38435158718E+03  0.41135545952E+03  0.00000000000E+00 0. -1.
         -3    1    3    3    0  502  0.27762803236E+03  0.30001196441E+03 -0.14577225688E+04  0.15139483448E+04  0.00000000000E+00 0.  1.
         11    1    5    5    0    0  0.21971493700E+03 -0.19909657581E+03 -0.16574912704E+03  0.33968643358E+03  0.00000000000E+00 0. -1.
        -11    1    5    5    0    0  0.42098780072E+02 -0.22123822424E+02 -0.76702235257E+02  0.90249674213E+02  0.00000000000E+00 0.  1.
          3    1    6    6  503    0 -0.24751242331E+03 -0.98123045498E+02 -0.46016303815E+03  0.53163949574E+03  0.00000000000E+00 0. -1.
         -3    1    6    6    0  503 -0.37594173356E+03 -0.10078965498E+03 -0.49070165793E+03  0.62632168946E+03  0.00000000000E+00 0.  1.
<mgrwt>
<rscale>  0 0.17688946E+04</rscale>
<asrwt>0</asrwt>
<pdfrwt beam="1">  1        2 0.50373776E+00 0.17688946E+04</pdfrwt>
<pdfrwt beam="2">  1       -1 0.36754686E-01 0.17688946E+04</pdfrwt>
<totfact> 0.89272980E+00</totfact>
</mgrwt>
</event>
<event>
12    6  0.1569942E-007  0.1847362E+04  0.7818608E-02  0.8681511E-01
          2   -1    0    0  501    0  0.00000000000E+00  0.00000000000E+00  0.16356687983E+04  0.16356687983E+04  0.00000000000E+00 0. -1.
         -1   -1    0    0    0  501 -0.00000000000E+00 -0.00000000000E+00 -0.52161326645E+03  0.52161326645E+03  0.00000000000E+00 0.  1.
         24    2    1    2    0    0 -0.55426235868E+02 -0.27677511691E+03 -0.32272783707E+03  0.43660977193E+03  0.82451823291E+02 0.  0.
        254    2    1    2    0    0  0.55426235868E+02  0.27677511691E+03  0.14367833690E+04  0.17206722929E+04  0.90370911091E+03 0.  0.
         23    2    4    4    0    0  0.39346764205E+03 -0.26248674848E+01  0.31366144469E+03  0.51155036905E+03  0.92068468648E+02 0.  0.
         23    2    4    4    0    0 -0.33804140619E+03  0.27939998439E+03  0.11231219243E+04  0.12091219238E+04  0.90755860946E+02 0.  0.
          4    1    3    3  502    0 -0.30085219863E+02 -0.12754046779E+03 -0.89946777172E+02  0.15894059928E+03  0.00000000000E+00 0. -1.
         -3    1    3    3    0  502 -0.25341016005E+02 -0.14923464912E+03 -0.23278105990E+03  0.27766917265E+03  0.00000000000E+00 0.  1.
         11    1    5    5    0    0  0.68156002466E+02  0.29815654140E+02  0.36089426324E+02  0.82684101231E+02  0.00000000000E+00 0.  1.
        -11    1    5    5    0    0  0.32531163959E+03 -0.32440521625E+02  0.27757201837E+03  0.42886626782E+03  0.00000000000E+00 0. -1.
          1    1    6    6  503    0 -0.28541057281E+03  0.20828227655E+03  0.96904163027E+03  0.10314467427E+04  0.00000000000E+00 0. -1.
         -1    1    6    6    0  503 -0.52630833375E+02  0.71117707837E+02  0.15408029399E+03  0.17767518112E+03  0.00000000000E+00 0.  1.
<mgrwt>
<rscale>  0 0.18473620E+04</rscale>
<asrwt>0</asrwt>
<pdfrwt beam="1">  1        2 0.25164135E+00 0.18473620E+04</pdfrwt>
<pdfrwt beam="2">  1       -1 0.80248196E-01 0.18473620E+04</pdfrwt>
<totfact> 0.17683206E+01</totfact>
</mgrwt>
</event>
<event>
12    6  0.1569942E-007  0.1876233E+04  0.7818608E-02  0.8666778E-01
         -1   -1    0    0    0  501 -0.00000000000E+00  0.00000000000E+00  0.91467037942E+03  0.91467037942E+03  0.00000000000E+00 0.  1.
          2   -1    0    0  501    0  0.00000000000E+00 -0.00000000000E+00 -0.96216341324E+03  0.96216341324E+03  0.00000000000E+00 0. -1.
         24    2    1    2    0    0 -0.30927477205E+03  0.34643499114E+02  0.63064893838E+03  0.70915655963E+03  0.91290119553E+02 0.  0.
        254    2    1    2    0    0  0.30927477205E+03 -0.34643499114E+02 -0.67814197220E+03  0.11676772330E+04  0.89818847099E+03 0.  0.
         23    2    4    4    0    0  0.29397881961E+02  0.39548760735E+03 -0.42172489267E+03  0.58682819916E+03  0.96128909297E+02 0.  0.
         23    2    4    4    0    0  0.27987689009E+03 -0.43013110646E+03 -0.25641707953E+03  0.58084903387E+03  0.91060634316E+02 0.  0.
          2    1    3    3  502    0  0.55593684675E+01  0.11286069883E+01  0.26187900590E+02  0.26795269523E+02  0.00000000000E+00 0. -1.
         -1    1    3    3    0  502 -0.31483414052E+03  0.33514892125E+02  0.60446103779E+03  0.68236129011E+03  0.00000000000E+00 0.  1.
         11    1    5    5    0    0  0.46119764633E+02  0.82069119350E+02 -0.93148015422E+02  0.13243460959E+03  0.00000000000E+00 0. -1.
        -11    1    5    5    0    0 -0.16721882671E+02  0.31341848800E+03 -0.32857687725E+03  0.45439358957E+03  0.00000000000E+00 0.  1.
          2    1    6    6  503    0  0.15310961090E+03 -0.16303109427E+03 -0.86178077873E+02  0.23968385793E+03  0.00000000000E+00 0. -1.
         -2    1    6    6    0  503  0.12676727919E+03 -0.26710001219E+03 -0.17023900165E+03  0.34116517593E+03  0.00000000000E+00 0.  1.
<mgrwt>
<rscale>  0 0.18762328E+04</rscale>
<asrwt>0</asrwt>
<pdfrwt beam="1">  1        2 0.14802514E+00 0.18762328E+04</pdfrwt>
<pdfrwt beam="2">  1       -1 0.14071852E+00 0.18762328E+04</pdfrwt>
<totfact> 0.11802577E+01</totfact>
</mgrwt>
</event>
<event>
12    6  0.1569942E-007  0.2975515E+04  0.7818608E-02  0.8250758E-01
          2   -1    0    0  501    0  0.00000000000E+00  0.00000000000E+00  0.15624229469E+04  0.15624229469E+04  0.00000000000E+00 0. -1.
         -1   -1    0    0    0  501 -0.00000000000E+00 -0.00000000000E+00 -0.14166598803E+04  0.14166598803E+04  0.00000000000E+00 0.  1.
         24    2    1    2    0    0  0.87371281509E+03  0.68253230679E+02  0.10954857173E+04  0.14051282895E+04  0.79145222905E+02 0.  0.
        254    2    1    2    0    0 -0.87371281509E+03 -0.68253230679E+02 -0.94972265078E+03  0.15739545377E+04  0.89851387660E+03 0.  0.
         23    2    4    4    0    0 -0.95512295820E+03 -0.15997397803E+03 -0.10174948138E+04  0.14076862896E+04  0.91833843891E+02 0.  0.
         23    2    4    4    0    0  0.81410143108E+02  0.91720747351E+02  0.67772163021E+02  0.16626824806E+03  0.89508420474E+02 0.  0.
          2    1    3    3  502    0  0.58943951501E+03  0.77453486637E+02  0.70900764786E+03  0.92527284040E+03  0.00000000000E+00 0. -1.
         -1    1    3    3    0  502  0.28427330008E+03 -0.92002559575E+01  0.38647806948E+03  0.47985544911E+03  0.00000000000E+00 0.  1.
         11    1    5    5    0    0 -0.44487157133E+03 -0.32816123071E+02 -0.49611092161E+03  0.66716838913E+03  0.00000000000E+00 0.  1.
        -11    1    5    5    0    0 -0.51025138687E+03 -0.12715785496E+03 -0.52138389219E+03  0.74051790047E+03  0.00000000000E+00 0. -1.
          1    1    6    6  503    0  0.92173306369E+02  0.68306969901E+02  0.26714983262E+02  0.11779410374E+03  0.00000000000E+00 0. -1.
         -1    1    6    6    0  503 -0.10763163261E+02  0.23413777450E+02  0.41057179759E+02  0.48474144321E+02  0.00000000000E+00 0.  1.
<mgrwt>
<rscale>  0 0.29755147E+04</rscale>
<asrwt>0</asrwt>
<pdfrwt beam="1">  1        2 0.24037276E+00 0.29755147E+04</pdfrwt>
<pdfrwt beam="2">  1       -1 0.21794767E+00 0.29755147E+04</pdfrwt>
<totfact> 0.12986798E+00</totfact>
</mgrwt>
</event>
<event>
12    6  0.1569942E-007  0.1288562E+04  0.7818608E-02  0.9038685E-01
          2   -1    0    0  501    0  0.00000000000E+00  0.00000000000E+00  0.11062074019E+04  0.11062074019E+04  0.00000000000E+00 0. -1.
         -1   -1    0    0    0  501 -0.00000000000E+00 -0.00000000000E+00 -0.37524424946E+03  0.37524424946E+03  0.00000000000E+00 0.  1.
         24    2    1    2    0    0 -0.11267713989E+03  0.14657780552E+03 -0.11491379810E+03  0.23197940672E+03  0.80175265660E+02 0.  0.
        254    2    1    2    0    0  0.11267713989E+03 -0.14657780552E+03  0.84587695060E+03  0.12494722447E+04  0.90082844303E+03 0.  0.
         23    2    4    4    0    0  0.91048805691E+02  0.37023728737E+03  0.34439766935E+03  0.52163763414E+03  0.90169466684E+02 0.  0.
         23    2    4    4    0    0  0.21628334202E+02 -0.51681509289E+03  0.50147928124E+03  0.72783461054E+03  0.10342207552E+03 0.  0.
          2    1    3    3  502    0 -0.85894638406E+02  0.55952972915E+02 -0.84062851248E+02  0.13257144129E+03  0.00000000000E+00 0. -1.
         -1    1    3    3    0  502 -0.26782501488E+02  0.90624832601E+02 -0.30850946855E+02  0.99407965434E+02  0.00000000000E+00 0.  1.
         11    1    5    5    0    0  0.71895644604E+02  0.12704684043E+03  0.10474681857E+03  0.17967130928E+03  0.00000000000E+00 0. -1.
        -11    1    5    5    0    0  0.19153161087E+02  0.24319044694E+03  0.23965085078E+03  0.34196632487E+03  0.00000000000E+00 0.  1.
          3    1    6    6  503    0 -0.26216216489E+02 -0.90693367959E+02  0.57226041195E+02  0.11039654338E+03  0.00000000000E+00 0. -1.
         -3    1    6    6    0  503  0.47844550692E+02 -0.42612172493E+03  0.44425324005E+03  0.61743806716E+03  0.00000000000E+00 0.  1.
<mgrwt>
<rscale>  0 0.12885619E+04</rscale>
<asrwt>0</asrwt>
<pdfrwt beam="1">  1        2 0.17018575E+00 0.12885619E+04</pdfrwt>
<pdfrwt beam="2">  1       -1 0.57729885E-01 0.12885619E+04</pdfrwt>
<totfact> 0.73418498E+01</totfact>
</mgrwt>
</event>
<event>
12    6  0.1569942E-007  0.1572754E+04  0.7818608E-02  0.8837464E-01
         -1   -1    0    0    0  501 -0.00000000000E+00  0.00000000000E+00  0.81264100258E+03  0.81264100258E+03  0.00000000000E+00 0.  1.
          2   -1    0    0  501    0  0.00000000000E+00 -0.00000000000E+00 -0.76096138907E+03  0.76096138907E+03  0.00000000000E+00 0. -1.
         24    2    1    2    0    0  0.16205506903E+03  0.47539869638E+03  0.20756872408E+03  0.55096533750E+03  0.90621531607E+02 0.  0.
        254    2    1    2    0    0 -0.16205506903E+03 -0.47539869638E+03 -0.15588911057E+03  0.10226370541E+04  0.87705151719E+03 0.  0.
         23    2    4    4    0    0  0.39455183939E+02 -0.69295145260E+03 -0.14170684551E+03  0.71425410316E+03  0.91321775135E+02 0.  0.
         23    2    4    4    0    0 -0.20151025297E+03  0.21755275622E+03 -0.14182265064E+02  0.30838295099E+03  0.83446533942E+02 0.  0.
          4    1    3    3  502    0  0.29394643638E+02  0.82128799237E+02  0.75644185984E+02  0.11546093544E+03  0.00000000000E+00 0. -1.
         -3    1    3    3    0  502  0.13266042539E+03  0.39326989714E+03  0.13192453810E+03  0.43550440206E+03  0.00000000000E+00 0.  1.
         11    1    5    5    0    0  0.44014149126E+02 -0.13589557599E+03 -0.23268798442E+02  0.14472833129E+03  0.00000000000E+00 0.  1.
        -11    1    5    5    0    0 -0.45589651871E+01 -0.55705587661E+03 -0.11843804707E+03  0.56952577186E+03  0.00000000000E+00 0. -1.
          3    1    6    6  503    0 -0.19309505122E+03  0.22391666348E+03 -0.72619752351E+01  0.29576529085E+03  0.00000000000E+00 0. -1.
         -3    1    6    6    0  503 -0.84152017458E+01 -0.63639072551E+01 -0.69202898284E+01  0.12617660135E+02  0.00000000000E+00 0.  1.
<mgrwt>
<rscale>  0 0.15727535E+04</rscale>
<asrwt>0</asrwt>
<pdfrwt beam="1">  1        2 0.11707098E+00 0.15727535E+04</pdfrwt>
<pdfrwt beam="2">  1       -1 0.12502169E+00 0.15727535E+04</pdfrwt>
<totfact> 0.22590737E+01</totfact>
</mgrwt>
</event>
<event>
12    6  0.1569942E-007  0.4470244E+04  0.7818608E-02  0.7915867E-01
         -1   -1    0    0    0  501 -0.00000000000E+00  0.00000000000E+00  0.14001193978E+04  0.14001193978E+04  0.00000000000E+00 0.  1.
          2   -1    0    0  501    0  0.00000000000E+00 -0.00000000000E+00 -0.35681037605E+04  0.35681037605E+04  0.00000000000E+00 0. -1.
         24    2    1    2    0    0 -0.56370443300E+03 -0.10657333975E+04 -0.30099339784E+04  0.32434754884E+04  0.82947740212E+02 0.  0.
        254    2    1    2    0    0  0.56370443300E+03  0.10657333975E+04  0.84194961563E+03  0.17247476699E+04  0.90129074510E+03 0.  0.
         23    2    4    4    0    0  0.57652929340E+03  0.11909827179E+04  0.83788287107E+03  0.15689194684E+04  0.92923260573E+02 0.  0.
         23    2    4    4    0    0 -0.12824860398E+02 -0.12524932039E+03  0.40667445673E+01  0.15582820146E+03  0.91727970958E+02 0.  0.
          2    1    3    3  502    0 -0.56058287919E+03 -0.10484094360E+04 -0.29381517359E+04  0.31695663951E+04  0.00000000000E+00 0. -1.
         -1    1    3    3    0  502 -0.31215538118E+01 -0.17323961525E+02 -0.71782242487E+02  0.73909093335E+02  0.00000000000E+00 0.  1.
         11    1    5    5    0    0  0.47504507213E+03  0.10454154794E+04  0.70792497505E+03  0.13489696496E+04  0.00000000000E+00 0. -1.
        -11    1    5    5    0    0  0.10148422127E+03  0.14556723848E+03  0.12995789602E+03  0.21994981887E+03  0.00000000000E+00 0.  1.
          2    1    6    6  503    0  0.13761750077E+02 -0.87444199878E+02  0.40142998649E+02  0.97197398103E+02  0.00000000000E+00 0. -1.
         -2    1    6    6    0  503 -0.26586610476E+02 -0.37805120511E+02 -0.36076254082E+02  0.58630803355E+02  0.00000000000E+00 0.  1.
<mgrwt>
<rscale>  0 0.44702444E+04</rscale>
<asrwt>0</asrwt>
<pdfrwt beam="1">  1        2 0.54893904E+00 0.44702444E+04</pdfrwt>
<pdfrwt beam="2">  1       -1 0.21540298E+00 0.44702444E+04</pdfrwt>
<totfact> 0.73970868E-02</totfact>
</mgrwt>
</event>
<event>
12    6  0.1569942E-007  0.2577970E+04  0.7818608E-02  0.8375723E-01
          2   -1    0    0  501    0  0.00000000000E+00  0.00000000000E+00  0.10402884452E+04  0.10402884452E+04  0.00000000000E+00 0. -1.
         -1   -1    0    0    0  501 -0.00000000000E+00 -0.00000000000E+00 -0.15971358055E+04  0.15971358055E+04  0.00000000000E+00 0.  1.
         24    2    1    2    0    0 -0.61477896129E+03  0.63161907243E+03 -0.96737870340E+03  0.13109721247E+04  0.77009947853E+02 0.  0.
        254    2    1    2    0    0  0.61477896129E+03 -0.63161907243E+03  0.41053134308E+03  0.13264521259E+04  0.90224355625E+03 0.  0.
         23    2    4    4    0    0 -0.21092308117E+03 -0.16854519843E+03  0.20794026743E+03  0.35399785942E+03  0.95808661226E+02 0.  0.
         23    2    4    4    0    0  0.82570204247E+03 -0.46307387399E+03  0.20259107565E+03  0.97245426650E+03  0.91667228588E+02 0.  0.
          4    1    3    3  502    0 -0.34040577162E+03  0.39245959493E+03 -0.60329658730E+03  0.79615789593E+03  0.00000000000E+00 0. -1.
         -3    1    3    3    0  502 -0.27437318967E+03  0.23915947749E+03 -0.36408211609E+03  0.51481422877E+03  0.00000000000E+00 0.  1.
         11    1    5    5    0    0 -0.17753506737E+03 -0.14294023019E+03  0.21257079441E+03  0.31166801599E+03  0.00000000000E+00 0.  1.
        -11    1    5    5    0    0 -0.33388013803E+02 -0.25604968244E+02 -0.46305269835E+01  0.42329843428E+02  0.00000000000E+00 0. -1.
          4    1    6    6  503    0  0.30235868164E+03 -0.16402664366E+03  0.11868453488E+03  0.36388395267E+03  0.00000000000E+00 0. -1.
         -4    1    6    6    0  503  0.52334336083E+03 -0.29904723033E+03  0.83906540775E+02  0.60857031383E+03  0.00000000000E+00 0.  1.
<mgrwt>
<rscale>  0 0.25779697E+04</rscale>
<asrwt>0</asrwt>
<pdfrwt beam="1">  1        2 0.16004438E+00 0.25779697E+04</pdfrwt>
<pdfrwt beam="2">  1       -1 0.24571320E+00 0.25779697E+04</pdfrwt>
<totfact> 0.17835345E+00</totfact>
</mgrwt>
</event>
<event>
12    6  0.1569942E-007  0.2039199E+04  0.7818608E-02  0.8588510E-01
          2   -1    0    0  501    0  0.00000000000E+00  0.00000000000E+00  0.14677505447E+04  0.14677505447E+04  0.00000000000E+00 0. -1.
         -1   -1    0    0    0  501 -0.00000000000E+00 -0.00000000000E+00 -0.70828327192E+03  0.70828327192E+03  0.00000000000E+00 0.  1.
         24    2    1    2    0    0  0.38619875030E+03  0.15294403734E+03  0.10753365577E+04  0.11554782938E+04  0.78993807865E+02 0.  0.
        254    2    1    2    0    0 -0.38619875030E+03 -0.15294403734E+03 -0.31586928491E+03  0.10205555229E+04  0.87705120537E+03 0.  0.
         23    2    4    4    0    0 -0.74553061170E+02 -0.33576994477E+03  0.18269455144E+03  0.39944171085E+03  0.88751149294E+02 0.  0.
         23    2    4    4    0    0 -0.31164568913E+03  0.18282590743E+03 -0.49856383635E+03  0.62111381203E+03  0.81658561095E+02 0.  0.
          4    1    3    3  502    0  0.27707387515E+03  0.14650851379E+03  0.80741851428E+03  0.86611739049E+03  0.00000000000E+00 0. -1.
         -3    1    3    3    0  502  0.10912487515E+03  0.64355235566E+01  0.26791804345E+03  0.28936090328E+03  0.00000000000E+00 0.  1.
         11    1    5    5    0    0 -0.87361784724E+02 -0.19595488962E+03  0.11795304567E+03  0.24483325178E+03  0.00000000000E+00 0. -1.
        -11    1    5    5    0    0  0.12808723554E+02 -0.13981505515E+03  0.64741505769E+02  0.15460845907E+03  0.00000000000E+00 0.  1.
          1    1    6    6  503    0 -0.38999855350E+02  0.57233507150E+02 -0.76575067919E+02  0.10324923285E+03  0.00000000000E+00 0. -1.
         -1    1    6    6    0  503 -0.27264583378E+03  0.12559240028E+03 -0.42198876843E+03  0.51786457918E+03  0.00000000000E+00 0.  1.
<mgrwt>
<rscale>  0 0.20391990E+04</rscale>
<asrwt>0</asrwt>
<pdfrwt beam="1">  1        2 0.22580778E+00 0.20391990E+04</pdfrwt>
<pdfrwt beam="2">  1       -1 0.10896666E+00 0.20391990E+04</pdfrwt>
<totfact> 0.10902865E+01</totfact>
</mgrwt>
</event>
<event>
12    6  0.1569942E-007  0.1351190E+04  0.7818608E-02  0.8989928E-01
         -1   -1    0    0    0  501 -0.00000000000E+00  0.00000000000E+00  0.14358124307E+04  0.14358124307E+04  0.00000000000E+00 0.  1.
          2   -1    0    0  501    0  0.00000000000E+00 -0.00000000000E+00 -0.31788875233E+03  0.31788875233E+03  0.00000000000E+00 0. -1.
         24    2    1    2    0    0 -0.67698538486E+01  0.12874984124E+03  0.78566809111E+03  0.80000888232E+03  0.78214511832E+02 0.  0.
        254    2    1    2    0    0  0.67698538486E+01 -0.12874984124E+03  0.33225558729E+03  0.95369230074E+03  0.88459757894E+03 0.  0.
         23    2    4    4    0    0  0.17344710399E+03  0.10360492229E+03 -0.22808661441E+03  0.31800840843E+03  0.91038268625E+02 0.  0.
         23    2    4    4    0    0 -0.16667725014E+03 -0.23235476353E+03  0.56034220169E+03  0.63568389232E+03  0.91326809334E+02 0.  0.
          2    1    3    3  502    0 -0.21591389234E+02  0.49736379894E+02  0.50952564751E+03  0.51240246003E+03  0.00000000000E+00 0. -1.
         -1    1    3    3    0  502  0.14821535385E+02  0.79013461344E+02  0.27614244360E+03  0.28760642229E+03  0.00000000000E+00 0.  1.
         11    1    5    5    0    0  0.14252824849E+03  0.73554126267E+02 -0.11607406554E+03  0.19798408977E+03  0.00000000000E+00 0.  1.
        -11    1    5    5    0    0  0.30918855496E+02  0.30050796024E+02 -0.11201254886E+03  0.12002431866E+03  0.00000000000E+00 0. -1.
          1    1    6    6  503    0 -0.17404787225E+03 -0.21543338179E+03  0.54629748150E+03  0.61249093227E+03  0.00000000000E+00 0. -1.
         -1    1    6    6    0  503  0.73706221143E+01 -0.16921381734E+02  0.14044720197E+02  0.23192960043E+02  0.00000000000E+00 0.  1.
<mgrwt>
<rscale>  0 0.13511900E+04</rscale>
<asrwt>0</asrwt>
<pdfrwt beam="1">  1        2 0.48905962E-01 0.13511900E+04</pdfrwt>
<pdfrwt beam="2">  1       -1 0.22089422E+00 0.13511900E+04</pdfrwt>
<totfact> 0.12498894E+01</totfact>
</mgrwt>
</event>
<event>
12    6  0.1569942E-007  0.2402699E+04  0.7818608E-02  0.8438494E-01
          2   -1    0    0  501    0  0.00000000000E+00  0.00000000000E+00  0.19573679881E+04  0.19573679881E+04  0.00000000000E+00 0. -1.
         -1   -1    0    0    0  501 -0.00000000000E+00 -0.00000000000E+00 -0.73733750253E+03  0.73733750253E+03  0.00000000000E+00 0.  1.
         24    2    1    2    0    0  0.35690532489E+03 -0.79816830274E+03  0.11386262341E+04  0.14377788303E+04  0.79273031054E+02 0.  0.
        254    2    1    2    0    0 -0.35690532489E+03  0.79816830274E+03  0.81404251375E+02  0.12569266602E+04  0.89932414993E+03 0.  0.
         23    2    4    4    0    0 -0.54791295774E+03  0.52412415714E+03  0.32912271368E+03  0.83143215903E+03  0.89682401042E+02 0.  0.
         23    2    4    4    0    0  0.19100763285E+03  0.27404414560E+03 -0.24771846230E+03  0.42549450121E+03  0.89983467623E+02 0.  0.
          2    1    3    3  502    0  0.28155079178E+03 -0.69508327436E+03  0.95976627833E+03  0.12180159751E+04  0.00000000000E+00 0. -1.
         -1    1    3    3    0  502  0.75354533108E+02 -0.10308502838E+03  0.17885995582E+03  0.21976285521E+03  0.00000000000E+00 0.  1.
         11    1    5    5    0    0 -0.28840683044E+03  0.21617211057E+03  0.14244914961E+03  0.38755727507E+03  0.00000000000E+00 0.  1.
        -11    1    5    5    0    0 -0.25950612730E+03  0.30795204657E+03  0.18667356407E+03  0.44387488396E+03  0.00000000000E+00 0. -1.
          3    1    6    6  503    0  0.16828500864E+03  0.26709168499E+03 -0.24843921340E+03  0.40172111605E+03  0.00000000000E+00 0. -1.
         -3    1    6    6    0  503  0.22722624212E+02  0.69524606100E+01  0.72075110095E+00  0.23773385156E+02  0.00000000000E+00 0.  1.
<mgrwt>
<rscale>  0 0.24026992E+04</rscale>
<asrwt>0</asrwt>
<pdfrwt beam="1">  1        2 0.30113353E+00 0.24026992E+04</pdfrwt>
<pdfrwt beam="2">  1       -1 0.11343654E+00 0.24026992E+04</pdfrwt>
<totfact> 0.51205636E+00</totfact>
</mgrwt>
</event>
<event>
12    6  0.1569942E-007  0.2140617E+04  0.7818608E-02  0.8543559E-01
         -1   -1    0    0    0  501 -0.00000000000E+00  0.00000000000E+00  0.19360339763E+04  0.19360339763E+04  0.00000000000E+00 0.  1.
          2   -1    0    0  501    0  0.00000000000E+00 -0.00000000000E+00 -0.59170469772E+03  0.59170469772E+03  0.00000000000E+00 0. -1.
         24    2    1    2    0    0 -0.77983371647E+03 -0.28593923848E+03  0.21528911291E+03  0.86173136402E+03  0.79559211626E+02 0.  0.
        254    2    1    2    0    0  0.77983371647E+03  0.28593923848E+03  0.11290401657E+04  0.16660073100E+04  0.90052583964E+03 0.  0.
         23    2    4    4    0    0  0.19340206128E+03 -0.22676710561E+03  0.21843508603E+02  0.30919065492E+03  0.79335015761E+02 0.  0.
         23    2    4    4    0    0  0.58643165519E+03  0.51270634409E+03  0.11071966571E+04  0.13568166551E+04  0.91088509808E+02 0.  0.
          2    1    3    3  502    0 -0.41910430267E+03 -0.18490063412E+03  0.90933258712E+02  0.46701768549E+03  0.00000000000E+00 0. -1.
         -1    1    3    3    0  502 -0.36072941380E+03 -0.10103860436E+03  0.12435585420E+03  0.39471367853E+03  0.00000000000E+00 0.  1.
         11    1    5    5    0    0  0.33454565664E+02 -0.24497833680E+02  0.30022311179E+02  0.51192684901E+02  0.00000000000E+00 0. -1.
        -11    1    5    5    0    0  0.15994749562E+03 -0.20226927193E+03 -0.81788025760E+01  0.25799797002E+03  0.00000000000E+00 0.  1.
          1    1    6    6  503    0  0.35562041474E+03  0.36501310463E+03  0.69375558069E+03  0.86081197231E+03  0.00000000000E+00 0. -1.
         -1    1    6    6    0  503  0.23081124045E+03  0.14769323946E+03  0.41344107642E+03  0.49600468281E+03  0.00000000000E+00 0.  1.
<mgrwt>
<rscale>  0 0.21406171E+04</rscale>
<asrwt>0</asrwt>
<pdfrwt beam="1">  1        2 0.91031493E-01 0.21406171E+04</pdfrwt>
<pdfrwt beam="2">  1       -1 0.29785138E+00 0.21406171E+04</pdfrwt>
<totfact> 0.18045182E+00</totfact>
</mgrwt>
</event>
<event>
12    6  0.1569942E-007  0.1500607E+04  0.7818608E-02  0.8884049E-01
         -1   -1    0    0    0  501 -0.00000000000E+00  0.00000000000E+00  0.53527119412E+03  0.53527119412E+03  0.00000000000E+00 0.  1.
          2   -1    0    0  501    0  0.00000000000E+00 -0.00000000000E+00 -0.10517199582E+04  0.10517199582E+04  0.00000000000E+00 0. -1.
         24    2    1    2    0    0 -0.41508332176E+03 -0.16786473689E+03  0.70786580065E+01  0.45490614169E+03  0.80104659338E+02 0.  0.
        254    2    1    2    0    0  0.41508332176E+03  0.16786473689E+03 -0.52352742206E+03  0.11320850106E+04  0.89836672672E+03 0.  0.
         23    2    4    4    0    0 -0.13854602201E+03  0.23992593525E+03  0.81603836499E+02  0.30354385247E+03  0.93382169718E+02 0.  0.
         23    2    4    4    0    0  0.55362934377E+03 -0.72061198355E+02 -0.60513125856E+03  0.82854115812E+03  0.92727256150E+02 0.  0.
          2    1    3    3  502    0 -0.14028688986E+03 -0.44113270216E+02 -0.33455014813E+02  0.15081654449E+03  0.00000000000E+00 0. -1.
         -1    1    3    3    0  502 -0.27479643190E+03 -0.12375146668E+03  0.40533672819E+02  0.30408959719E+03  0.00000000000E+00 0.  1.
         11    1    5    5    0    0 -0.89335816829E+02  0.20775060077E+03  0.35685850073E+02  0.22894252594E+03  0.00000000000E+00 0. -1.
        -11    1    5    5    0    0 -0.49210205181E+02  0.32175334482E+02  0.45917986426E+02  0.74601326533E+02  0.00000000000E+00 0.  1.
          3    1    6    6  503    0  0.87769262208E+02 -0.15094301841E+01 -0.52374322309E+02  0.10221932990E+03  0.00000000000E+00 0. -1.
         -3    1    6    6    0  503  0.46586008156E+03 -0.70551768171E+02 -0.55275693625E+03  0.72632182822E+03  0.00000000000E+00 0.  1.
<mgrwt>
<rscale>  0 0.15006071E+04</rscale>
<asrwt>0</asrwt>
<pdfrwt beam="1">  1        2 0.16180307E+00 0.15006071E+04</pdfrwt>
<pdfrwt beam="2">  1       -1 0.82349416E-01 0.15006071E+04</pdfrwt>
<totfact> 0.37737824E+01</totfact>
</mgrwt>
</event>
<event>
12    6  0.1569942E-007  0.1476461E+04  0.7818608E-02  0.8900258E-01
         -1   -1    0    0    0  501 -0.00000000000E+00  0.00000000000E+00  0.29192865829E+03  0.29192865829E+03  0.00000000000E+00 0.  1.
          2   -1    0    0  501    0  0.00000000000E+00 -0.00000000000E+00 -0.18668415094E+04  0.18668415094E+04  0.00000000000E+00 0. -1.
         24    2    1    2    0    0  0.99013775200E+02  0.10563526285E+03 -0.10803031855E+04  0.10929658197E+04  0.80973908751E+02 0.  0.
        254    2    1    2    0    0 -0.99013775200E+02 -0.10563526285E+03 -0.49460966558E+03  0.10658043480E+04  0.93291888742E+03 0.  0.
         23    2    4    4    0    0 -0.18064137202E+02  0.39910573942E+03 -0.31095104889E+03  0.51502151430E+03  0.94577487247E+02 0.  0.
         23    2    4    4    0    0 -0.80949637998E+02 -0.50474100226E+03 -0.18365861669E+03  0.55078283370E+03  0.91186178550E+02 0.  0.
          2    1    3    3  502    0  0.10907318945E+03  0.86577491433E+02 -0.10062645292E+04  0.10158547757E+04  0.00000000000E+00 0. -1.
         -1    1    3    3    0  502 -0.10059414246E+02  0.19057771413E+02 -0.74038656298E+02  0.77111043908E+02  0.00000000000E+00 0.  1.
         11    1    5    5    0    0  0.13958922951E+02  0.15516179889E+02 -0.37287192513E+02  0.42730996874E+02  0.00000000000E+00 0. -1.
        -11    1    5    5    0    0 -0.32023060153E+02  0.38358955953E+03 -0.27366385638E+03  0.47229051742E+03  0.00000000000E+00 0.  1.
          3    1    6    6  503    0 -0.38941760252E+02 -0.30516419150E+03 -0.63681944539E+02  0.31416084181E+03  0.00000000000E+00 0. -1.
         -3    1    6    6    0  503 -0.42007877747E+02 -0.19957681076E+03 -0.11997667215E+03  0.23662199189E+03  0.00000000000E+00 0.  1.
<mgrwt>
<rscale>  0 0.14764614E+04</rscale>
<asrwt>0</asrwt>
<pdfrwt beam="1">  1        2 0.28720639E+00 0.14764614E+04</pdfrwt>
<pdfrwt beam="2">  1       -1 0.44912100E-01 0.14764614E+04</pdfrwt>
<totfact> 0.42940736E+01</totfact>
</mgrwt>
</event>
<event>
12    6  0.1569942E-007  0.2221093E+04  0.7818608E-02  0.8509700E-01
          2   -1    0    0  501    0  0.00000000000E+00  0.00000000000E+00  0.22224683252E+04  0.22224683252E+04  0.00000000000E+00 0. -1.
         -1   -1    0    0    0  501 -0.00000000000E+00 -0.00000000000E+00 -0.55492975868E+03  0.55492975868E+03  0.00000000000E+00 0.  1.
         24    2    1    2    0    0 -0.20811261107E+03  0.84616316811E+03  0.11203416198E+04  0.14215757347E+04  0.80057845100E+02 0.  0.
        254    2    1    2    0    0  0.20811261107E+03 -0.84616316811E+03  0.54719694672E+03  0.13558223491E+04  0.88290813677E+03 0.  0.
         23    2    4    4    0    0  0.29277340561E+03 -0.72934048944E+03  0.75162538666E+03  0.10912566688E+04  0.90810675713E+02 0.  0.
         23    2    4    4    0    0 -0.84660794540E+02 -0.11682267868E+03 -0.20442843994E+03  0.26456568032E+03  0.85959430891E+02 0.  0.
          4    1    3    3  502    0 -0.51259656683E+02  0.36381782934E+03  0.44870943461E+03  0.57994061943E+03  0.00000000000E+00 0. -1.
         -3    1    3    3    0  502 -0.15685295439E+03  0.48234533877E+03  0.67163218514E+03  0.84163511527E+03  0.00000000000E+00 0.  1.
         11    1    5    5    0    0  0.91919717898E+02 -0.35028402455E+03  0.34709998598E+03  0.50162389562E+03  0.00000000000E+00 0.  1.
        -11    1    5    5    0    0  0.20085368772E+03 -0.37905646489E+03  0.40452540068E+03  0.58963277321E+03  0.00000000000E+00 0. -1.
          2    1    6    6  503    0 -0.95643919223E+02 -0.97271583272E+02 -0.13629325665E+03  0.19283509018E+03  0.00000000000E+00 0. -1.
         -2    1    6    6    0  503  0.10983124683E+02 -0.19551095404E+02 -0.68135183286E+02  0.71730590132E+02  0.00000000000E+00 0.  1.
<mgrwt>
<rscale>  0 0.22210933E+04</rscale>
<asrwt>0</asrwt>
<pdfrwt beam="1">  1        2 0.34191820E+00 0.22210933E+04</pdfrwt>
<pdfrwt beam="2">  1       -1 0.85373810E-01 0.22210933E+04</pdfrwt>
<totfact> 0.70619506E+00</totfact>
</mgrwt>
</event>
<event>
12    6  0.1569942E-007  0.1641767E+04  0.7818608E-02  0.8795292E-01
         -1   -1    0    0    0  501 -0.00000000000E+00  0.00000000000E+00  0.85842618776E+03  0.85842618776E+03  0.00000000000E+00 0.  1.
          2   -1    0    0  501    0  0.00000000000E+00 -0.00000000000E+00 -0.78498311067E+03  0.78498311067E+03  0.00000000000E+00 0. -1.
         24    2    1    2    0    0 -0.78382997371E+02 -0.53319618946E+03  0.20386436902E+03  0.58162593342E+03  0.79284139204E+02 0.  0.
        254    2    1    2    0    0  0.78382997371E+02  0.53319618946E+03 -0.13042129194E+03  0.10617833650E+04  0.90550103815E+03 0.  0.
         23    2    4    4    0    0 -0.30357933672E+03  0.11768428931E+03 -0.31440669659E+03  0.46077092697E+03  0.86303364041E+02 0.  0.
         23    2    4    4    0    0  0.38196233409E+03  0.41551190015E+03  0.18398540465E+03  0.60101243804E+03  0.93914629966E+02 0.  0.
          4    1    3    3  502    0 -0.48365156308E+02 -0.16148326374E+03  0.93250444270E+02  0.19264391547E+03  0.00000000000E+00 0. -1.
         -3    1    3    3    0  502 -0.30017841064E+02 -0.37171292573E+03  0.11061392475E+03  0.38898201794E+03  0.00000000000E+00 0.  1.
         11    1    5    5    0    0 -0.17302556226E+03  0.11178860855E+03 -0.18558077374E+03  0.27726298306E+03  0.00000000000E+00 0.  1.
        -11    1    5    5    0    0 -0.13055377446E+03  0.58956807648E+01 -0.12882592285E+03  0.18350794391E+03  0.00000000000E+00 0. -1.
          4    1    6    6  503    0  0.34028124261E+02  0.82390171075E+01  0.12182565620E+01  0.35032539056E+02  0.00000000000E+00 0. -1.
         -4    1    6    6    0  503  0.34793420983E+03  0.40727288305E+03  0.18276714809E+03  0.56597989899E+03  0.00000000000E+00 0.  1.
<mgrwt>
<rscale>  0 0.16417674E+04</rscale>
<asrwt>0</asrwt>
<pdfrwt beam="1">  1        2 0.12076663E+00 0.16417674E+04</pdfrwt>
<pdfrwt beam="2">  1       -1 0.13206557E+00 0.16417674E+04</pdfrwt>
<totfact> 0.18786919E+01</totfact>
</mgrwt>
</event>
<event>
12    6  0.1569942E-007  0.1895267E+04  0.7818608E-02  0.8657216E-01
         -1   -1    0    0    0  501 -0.00000000000E+00  0.00000000000E+00  0.89396238750E+03  0.89396238750E+03  0.00000000000E+00 0.  1.
          2   -1    0    0  501    0  0.00000000000E+00 -0.00000000000E+00 -0.10045271037E+04  0.10045271037E+04  0.00000000000E+00 0. -1.
         24    2    1    2    0    0  0.16507059663E+02 -0.35368329678E+03  0.56955657628E+03  0.67411780923E+03  0.68379599972E+02 0.  0.
        254    2    1    2    0    0 -0.16507059663E+02  0.35368329678E+03 -0.68012129250E+03  0.12243716820E+04  0.95454527692E+03 0.  0.
         23    2    4    4    0    0 -0.37059658264E+03 -0.13001141831E+03 -0.19724796035E+03  0.44882105536E+03  0.91042769736E+02 0.  0.
         23    2    4    4    0    0  0.35408952297E+03  0.48369471509E+03 -0.48287333215E+03  0.77555062662E+03  0.94721443552E+02 0.  0.
          4    1    3    3  502    0 -0.17896457356E+02 -0.23472873886E+03  0.34463598051E+03  0.41736293930E+03  0.00000000000E+00 0. -1.
         -3    1    3    3    0  502  0.34403517018E+02 -0.11895455792E+03  0.22492059577E+03  0.25675486993E+03  0.00000000000E+00 0.  1.
         11    1    5    5    0    0 -0.27050311502E+03 -0.95574955649E+02 -0.96492999886E+02  0.30268367384E+03  0.00000000000E+00 0.  1.
        -11    1    5    5    0    0 -0.10009346762E+03 -0.34436462659E+02 -0.10075496046E+03  0.14613738152E+03  0.00000000000E+00 0. -1.
          1    1    6    6  503    0  0.19633358256E+02  0.75883064994E+02 -0.78715355591E+02  0.11108472224E+03  0.00000000000E+00 0. -1.
         -1    1    6    6    0  503  0.33445616472E+03  0.40781165009E+03 -0.40415797656E+03  0.66446590438E+03  0.00000000000E+00 0.  1.
<mgrwt>
<rscale>  0 0.18952672E+04</rscale>
<asrwt>0</asrwt>
<pdfrwt beam="1">  1        2 0.15454263E+00 0.18952672E+04</pdfrwt>
<pdfrwt beam="2">  1       -1 0.13753267E+00 0.18952672E+04</pdfrwt>
<totfact> 0.11742562E+01</totfact>
</mgrwt>
</event>
<event>
12    6  0.1569942E-007  0.1819291E+04  0.7818608E-02  0.8696108E-01
          2   -1    0    0  501    0  0.00000000000E+00  0.00000000000E+00  0.89218604146E+03  0.89218604146E+03  0.00000000000E+00 0. -1.
         -1   -1    0    0    0  501 -0.00000000000E+00 -0.00000000000E+00 -0.92744617177E+03  0.92744617177E+03  0.00000000000E+00 0.  1.
         24    2    1    2    0    0 -0.86674813623E+02  0.21363227676E+03  0.63505218619E+03  0.68025803377E+03  0.79425690656E+02 0.  0.
        254    2    1    2    0    0  0.86674813623E+02 -0.21363227676E+03 -0.67031231650E+03  0.11393741795E+04  0.89202222292E+03 0.  0.
         23    2    4    4    0    0  0.11806595661E+03  0.15784985737E+03  0.12857553771E+03  0.25324250014E+03  0.93509076555E+02 0.  0.
         23    2    4    4    0    0 -0.31391142983E+02 -0.37148213413E+03 -0.79888785421E+03  0.88613167931E+03  0.89572147695E+02 0.  0.
          2    1    3    3  502    0 -0.79648010539E+02  0.20912463126E+03  0.53577549955E+03  0.58063095241E+03  0.00000000000E+00 0. -1.
         -1    1    3    3    0  502 -0.70268030837E+01  0.45076454960E+01  0.99276686639E+02  0.99627081356E+02  0.00000000000E+00 0.  1.
         11    1    5    5    0    0  0.47230117626E+02  0.36986807475E+01  0.39211901006E+02  0.61497458734E+02  0.00000000000E+00 0. -1.
        -11    1    5    5    0    0  0.70835838980E+02  0.15415117663E+03  0.89363636707E+02  0.19174504141E+03  0.00000000000E+00 0.  1.
          2    1    6    6  503    0 -0.33699322499E+02 -0.32168750226E+03 -0.74780127034E+03  0.81475470749E+03  0.00000000000E+00 0. -1.
         -2    1    6    6    0  503  0.23081795152E+01 -0.49794631869E+02 -0.51086583866E+02  0.71376971824E+02  0.00000000000E+00 0.  1.
<mgrwt>
<rscale>  0 0.18192906E+04</rscale>
<asrwt>0</asrwt>
<pdfrwt beam="1">  1        2 0.13725939E+00 0.18192906E+04</pdfrwt>
<pdfrwt beam="2">  1       -1 0.14268403E+00 0.18192906E+04</pdfrwt>
<totfact> 0.12732401E+01</totfact>
</mgrwt>
</event>
<event>
12    6  0.1569942E-007  0.1412957E+04  0.7818608E-02  0.8944493E-01
          2   -1    0    0  501    0  0.00000000000E+00  0.00000000000E+00  0.10846701050E+04  0.10846701050E+04  0.00000000000E+00 0. -1.
         -1   -1    0    0    0  501 -0.00000000000E+00 -0.00000000000E+00 -0.46015092980E+03  0.46015092980E+03  0.00000000000E+00 0.  1.
         24    2    1    2    0    0  0.24230770388E+03 -0.14493820688E+03  0.50898488102E+03  0.58846312929E+03  0.86620657220E+02 0.  0.
        254    2    1    2    0    0 -0.24230770388E+03  0.14493820688E+03  0.11553429417E+03  0.95635790551E+03  0.90639514734E+03 0.  0.
         23    2    4    4    0    0 -0.24372545685E+03  0.25035060532E+03 -0.33013833736E+03  0.48923759497E+03  0.91019660732E+02 0.  0.
         23    2    4    4    0    0  0.14177529729E+01 -0.10541239844E+03  0.44567263153E+03  0.46712031053E+03  0.91997316542E+02 0.  0.
          2    1    3    3  502    0  0.16512113164E+03 -0.10425854030E+03  0.26379008875E+03  0.32820731598E+03  0.00000000000E+00 0. -1.
         -1    1    3    3    0  502  0.77186572234E+02 -0.40679666578E+02  0.24519479226E+03  0.26025581331E+03  0.00000000000E+00 0.  1.
         11    1    5    5    0    0 -0.17940210170E+03  0.13101754267E+03 -0.23652345673E+03  0.32449045620E+03  0.00000000000E+00 0. -1.
        -11    1    5    5    0    0 -0.64323355147E+02  0.11933306264E+03 -0.93614880631E+02  0.16474713877E+03  0.00000000000E+00 0.  1.
          1    1    6    6  503    0  0.27201871548E+02 -0.73639282502E+02  0.39115561620E+03  0.39895538827E+03  0.00000000000E+00 0. -1.
         -1    1    6    6    0  503 -0.25784118575E+02 -0.31773115939E+02  0.54517015327E+02  0.68164922265E+02  0.00000000000E+00 0.  1.
<mgrwt>
<rscale>  0 0.14129571E+04</rscale>
<asrwt>0</asrwt>
<pdfrwt beam="1">  1        2 0.16687232E+00 0.14129571E+04</pdfrwt>
<pdfrwt beam="2">  1       -1 0.70792451E-01 0.14129571E+04</pdfrwt>
<totfact> 0.49795261E+01</totfact>
</mgrwt>
</event>
<event>
12    6  0.1569942E-007  0.1563341E+04  0.7818608E-02  0.8843391E-01
         -1   -1    0    0    0  501 -0.00000000000E+00  0.00000000000E+00  0.75890270760E+03  0.75890270760E+03  0.00000000000E+00 0.  1.
          2   -1    0    0  501    0  0.00000000000E+00 -0.00000000000E+00 -0.80512146532E+03  0.80512146532E+03  0.00000000000E+00 0. -1.
         24    2    1    2    0    0 -0.43930442028E+03 -0.21041515202E+03  0.16245828881E+03  0.51968675039E+03  0.80116871169E+02 0.  0.
        254    2    1    2    0    0  0.43930442028E+03  0.21041515202E+03 -0.20867704653E+03  0.10443374225E+04  0.89990645763E+03 0.  0.
         23    2    4    4    0    0 -0.18017849367E+02 -0.30847276916E+03 -0.10419489741E+03  0.33895674936E+03  0.92493292071E+02 0.  0.
         23    2    4    4    0    0  0.45732226965E+03  0.51888792119E+03 -0.10448214912E+03  0.70538067318E+03  0.90868264754E+02 0.  0.
          4    1    3    3  502    0 -0.31136980029E+03 -0.14807131305E+03  0.75655818133E+02  0.35298734977E+03  0.00000000000E+00 0. -1.
         -3    1    3    3    0  502 -0.12793461999E+03 -0.62343838972E+02  0.86802470678E+02  0.16669940062E+03  0.00000000000E+00 0.  1.
         11    1    5    5    0    0 -0.18221883559E+02 -0.71373264774E+02  0.12467161663E+02  0.74710173905E+02  0.00000000000E+00 0. -1.
        -11    1    5    5    0    0  0.20403419223E+00 -0.23709950439E+03 -0.11666205907E+03  0.26424657545E+03  0.00000000000E+00 0.  1.
          2    1    6    6  503    0  0.37848723806E+03  0.43412086317E+03 -0.12079487486E+03  0.58847677525E+03  0.00000000000E+00 0. -1.
         -2    1    6    6    0  503  0.78835031590E+02  0.84767058012E+02  0.16312725739E+02  0.11690389793E+03  0.00000000000E+00 0.  1.
<mgrwt>
<rscale>  0 0.15633411E+04</rscale>
<asrwt>0</asrwt>
<pdfrwt beam="1">  1        2 0.12386484E+00 0.15633411E+04</pdfrwt>
<pdfrwt beam="2">  1       -1 0.11675426E+00 0.15633411E+04</pdfrwt>
<totfact> 0.24821983E+01</totfact>
</mgrwt>
</event>
<event>
12    6  0.1569942E-007  0.2535310E+04  0.7818608E-02  0.8390513E-01
          2   -1    0    0  501    0  0.00000000000E+00  0.00000000000E+00  0.12261098556E+04  0.12261098556E+04  0.00000000000E+00 0. -1.
         -1   -1    0    0    0  501 -0.00000000000E+00 -0.00000000000E+00 -0.13106082339E+04  0.13106082339E+04  0.00000000000E+00 0.  1.
         24    2    1    2    0    0 -0.87207211408E+03  0.10992536506E+03  0.63219838264E+03  0.10856459553E+04  0.79743257517E+02 0.  0.
        254    2    1    2    0    0  0.87207211408E+03 -0.10992536506E+03 -0.71669676088E+03  0.14510721342E+04  0.90518657392E+03 0.  0.
         23    2    4    4    0    0  0.45815947623E+02 -0.26716599107E+03 -0.50393198389E+03  0.57903356404E+03  0.88632138910E+02 0.  0.
         23    2    4    4    0    0  0.82625616646E+03  0.15724062601E+03 -0.21276477699E+03  0.87203857018E+03  0.88082634408E+02 0.  0.
          4    1    3    3  502    0 -0.74342775445E+03  0.84749084469E+02  0.50302326343E+03  0.90160947031E+03  0.00000000000E+00 0. -1.
         -3    1    3    3    0  502 -0.12864435963E+03  0.25176280592E+02  0.12917511921E+03  0.18403648494E+03  0.00000000000E+00 0.  1.
         11    1    5    5    0    0  0.59211284179E+02 -0.10559451030E+03 -0.18207092637E+03  0.21864583008E+03  0.00000000000E+00 0. -1.
        -11    1    5    5    0    0 -0.13395336557E+02 -0.16157148077E+03 -0.32186105752E+03  0.36038773396E+03  0.00000000000E+00 0.  1.
          3    1    6    6  503    0  0.19607063923E+03  0.73848887772E+02 -0.40005865250E+02  0.21330218716E+03  0.00000000000E+00 0. -1.
         -3    1    6    6    0  503  0.63018552722E+03  0.83391738241E+02 -0.17275891174E+03  0.65873638302E+03  0.00000000000E+00 0.  1.
<mgrwt>
<rscale>  0 0.25353104E+04</rscale>
<asrwt>0</asrwt>
<pdfrwt beam="1">  1        2 0.18863229E+00 0.25353104E+04</pdfrwt>
<pdfrwt beam="2">  1       -1 0.20163204E+00 0.25353104E+04</pdfrwt>
<totfact> 0.27159492E+00</totfact>
</mgrwt>
</event>
<event>
12    6  0.1569942E-007  0.1679488E+04  0.7818608E-02  0.8773150E-01
         -1   -1    0    0    0  501 -0.00000000000E+00  0.00000000000E+00  0.30647911661E+03  0.30647911661E+03  0.00000000000E+00 0.  1.
          2   -1    0    0  501    0  0.00000000000E+00 -0.00000000000E+00 -0.23008746366E+04  0.23008746366E+04  0.00000000000E+00 0. -1.
         24    2    1    2    0    0  0.42209339073E+03  0.20334701487E+03 -0.12392365135E+03  0.49123465394E+03  0.80259422574E+02 0.  0.
        254    2    1    2    0    0 -0.42209339073E+03 -0.20334701487E+03 -0.18704718686E+04  0.21161190992E+04  0.87165485826E+03 0.  0.
         23    2    4    4    0    0 -0.57311611463E+03  0.13644855859E+03 -0.12821841877E+04  0.14140063940E+04  0.91309917265E+02 0.  0.
         23    2    4    4    0    0  0.15102272390E+03 -0.33979557346E+03 -0.58828768090E+03  0.70211270527E+03  0.92795261294E+02 0.  0.
          2    1    3    3  502    0  0.13142289284E+03  0.10583617849E+03 -0.42069456290E+02  0.17390547027E+03  0.00000000000E+00 0. -1.
         -1    1    3    3    0  502  0.29067049789E+03  0.97510836386E+02 -0.81854195059E+02  0.31732918367E+03  0.00000000000E+00 0.  1.
         11    1    5    5    0    0 -0.26933121001E+03  0.22387950142E+02 -0.63142897872E+03  0.68683555249E+03  0.00000000000E+00 0.  1.
        -11    1    5    5    0    0 -0.30378490462E+03  0.11406060844E+03 -0.65075520899E+03  0.72717084148E+03  0.00000000000E+00 0. -1.
          1    1    6    6  503    0  0.10927844931E+02 -0.22654031019E+01 -0.51748523504E+02  0.52938261503E+02  0.00000000000E+00 0. -1.
         -1    1    6    6    0  503  0.14009487896E+03 -0.33753017036E+03 -0.53653915740E+03  0.64917444376E+03  0.00000000000E+00 0.  1.
<mgrwt>
<rscale>  0 0.16794880E+04</rscale>
<asrwt>0</asrwt>
<pdfrwt beam="1">  1        2 0.35398073E+00 0.16794880E+04</pdfrwt>
<pdfrwt beam="2">  1       -1 0.47150631E-01 0.16794880E+04</pdfrwt>
<totfact> 0.22069768E+01</totfact>
</mgrwt>
</event>
<event>
12    6  0.1569942E-007  0.1435349E+04  0.7818608E-02  0.8928621E-01
         -1   -1    0    0    0  501 -0.00000000000E+00  0.00000000000E+00  0.48418331511E+03  0.48418331511E+03  0.00000000000E+00 0.  1.
          2   -1    0    0  501    0  0.00000000000E+00 -0.00000000000E+00 -0.10637642910E+04  0.10637642910E+04  0.00000000000E+00 0. -1.
         24    2    1    2    0    0 -0.73347329412E+02  0.20786598356E+03 -0.55133102588E+03  0.59913447796E+03  0.80050763449E+02 0.  0.
        254    2    1    2    0    0  0.73347329412E+02 -0.20786598356E+03 -0.28249950025E+02  0.94881312817E+03  0.92242083381E+03 0.  0.
         23    2    4    4    0    0 -0.17492086637E+03 -0.40703280028E+03 -0.28106646979E+03  0.53231379206E+03  0.89925540146E+02 0.  0.
         23    2    4    4    0    0  0.24826819578E+03  0.19916681672E+03  0.25281651977E+03  0.41649933611E+03  0.90834940372E+02 0.  0.
          2    1    3    3  502    0 -0.20533277171E+01  0.10710878203E+03 -0.31147763062E+03  0.32938552142E+03  0.00000000000E+00 0. -1.
         -1    1    3    3    0  502 -0.71294001695E+02  0.10075720153E+03 -0.23985339526E+03  0.26974895654E+03  0.00000000000E+00 0.  1.
         11    1    5    5    0    0 -0.14351358902E+02 -0.13579734662E+03 -0.76016703303E+02  0.15628633987E+03  0.00000000000E+00 0. -1.
        -11    1    5    5    0    0 -0.16056950747E+03 -0.27123545367E+03 -0.20504976649E+03  0.37602745218E+03  0.00000000000E+00 0.  1.
          1    1    6    6  503    0  0.68733820147E+02  0.11201512146E+03  0.10060598371E+03  0.16550918230E+03  0.00000000000E+00 0. -1.
         -1    1    6    6    0  503  0.17953437564E+03  0.87151695262E+02  0.15221053605E+03  0.25099015381E+03  0.00000000000E+00 0.  1.
<mgrwt>
<rscale>  0 0.14353493E+04</rscale>
<asrwt>0</asrwt>
<pdfrwt beam="1">  1        2 0.16365605E+00 0.14353493E+04</pdfrwt>
<pdfrwt beam="2">  1       -1 0.74489740E-01 0.14353493E+04</pdfrwt>
<totfact> 0.46094420E+01</totfact>
</mgrwt>
</event>
<event>
12    6  0.1569942E-007  0.1341142E+04  0.7818608E-02  0.8997561E-01
         -1   -1    0    0    0  501 -0.00000000000E+00  0.00000000000E+00  0.89929103573E+03  0.89929103573E+03  0.00000000000E+00 0.  1.
          2   -1    0    0  501    0  0.00000000000E+00 -0.00000000000E+00 -0.50002217338E+03  0.50002217338E+03  0.00000000000E+00 0. -1.
         24    2    1    2    0    0  0.59608881946E+02 -0.13199567856E+03  0.47305819942E+03  0.50101408715E+03  0.79088415799E+02 0.  0.
        254    2    1    2    0    0 -0.59608881946E+02  0.13199567856E+03 -0.73789337075E+02  0.89829912196E+03  0.88347063804E+03 0.  0.
         23    2    4    4    0    0  0.74431343007E+02  0.11250587813E+03  0.38134937477E+03  0.41458408712E+03  0.90857152838E+02 0.  0.
         23    2    4    4    0    0 -0.13404022495E+03  0.19489800430E+02 -0.45513871184E+03  0.48371503484E+03  0.92099694277E+02 0.  0.
          4    1    3    3  502    0  0.39653303971E+02 -0.94116361283E+01  0.12307261393E+03  0.12964502193E+03  0.00000000000E+00 0. -1.
         -3    1    3    3    0  502  0.19955577975E+02 -0.12258404243E+03  0.34998558549E+03  0.37136906522E+03  0.00000000000E+00 0.  1.
         11    1    5    5    0    0  0.67827256643E+02  0.31015626574E+02  0.23968165290E+03  0.25101753041E+03  0.00000000000E+00 0. -1.
        -11    1    5    5    0    0  0.66040863642E+01  0.81490251556E+02  0.14166772187E+03  0.16356655671E+03  0.00000000000E+00 0.  1.
          1    1    6    6  503    0 -0.97900502434E+02  0.52100782785E+02 -0.26135582761E+03  0.28391172672E+03  0.00000000000E+00 0. -1.
         -1    1    6    6    0  503 -0.36139722519E+02 -0.32610982355E+02 -0.19378288423E+03  0.19980330812E+03  0.00000000000E+00 0.  1.
<mgrwt>
<rscale>  0 0.13411420E+04</rscale>
<asrwt>0</asrwt>
<pdfrwt beam="1">  1        2 0.76926488E-01 0.13411420E+04</pdfrwt>
<pdfrwt beam="2">  1       -1 0.13835247E+00 0.13411420E+04</pdfrwt>
<totfact> 0.29758381E+01</totfact>
</mgrwt>
</event>
<event>
12    6  0.1569942E-007  0.2110766E+04  0.7818608E-02  0.8556516E-01
          2   -1    0    0  501    0  0.00000000000E+00  0.00000000000E+00  0.17946154881E+04  0.17946154881E+04  0.00000000000E+00 0. -1.
         -3   -1    0    0    0  501 -0.00000000000E+00 -0.00000000000E+00 -0.62065259623E+03  0.62065259623E+03  0.00000000000E+00 0.  1.
         24    2    1    2    0    0  0.66665362107E+03 -0.52059910575E+03  0.48777418035E+03  0.97967583613E+03  0.79941312710E+02 0.  0.
        254    2    1    2    0    0 -0.66665362107E+03  0.52059910575E+03  0.68618871149E+03  0.14355922482E+04  0.93521103280E+03 0.  0.
         23    2    4    4    0    0 -0.72071413332E+03  0.72782988097E+03  0.56911462855E+03  0.11749641700E+04  0.86510939743E+02 0.  0.
         23    2    4    4    0    0  0.54060512245E+02 -0.20723077523E+03  0.11707408295E+03  0.26062807821E+03  0.91397598815E+02 0.  0.
          4    1    3    3  502    0  0.62114907737E+03 -0.50064219907E+03  0.47454139356E+03  0.92825552625E+03  0.00000000000E+00 0. -1.
         -3    1    3    3    0  502  0.45504543704E+02 -0.19956906677E+02  0.13232786792E+02  0.51420309880E+02  0.00000000000E+00 0.  1.
         11    1    5    5    0    0 -0.62512143139E+03  0.59430698581E+03  0.49829010819E+03  0.99612781775E+03  0.00000000000E+00 0.  1.
        -11    1    5    5    0    0 -0.95592701926E+02  0.13352289516E+03  0.70824520353E+02  0.17883635223E+03  0.00000000000E+00 0. -1.
          3    1    6    6  503    0 -0.21774093991E+02 -0.93953949655E+02  0.52115870884E+02  0.10962444902E+03  0.00000000000E+00 0. -1.
         -3    1    6    6    0  503  0.75834606236E+02 -0.11327682557E+03  0.64958212064E+02  0.15100362919E+03  0.00000000000E+00 0.  1.
<mgrwt>
<rscale>  0 0.21107655E+04</rscale>
<asrwt>0</asrwt>
<pdfrwt beam="1">  1        2 0.27609469E+00 0.21107655E+04</pdfrwt>
<pdfrwt beam="2">  1       -3 0.95485016E-01 0.21107655E+04</pdfrwt>
<totfact> 0.49623598E+00</totfact>
</mgrwt>
</event>
<event>
12    6  0.1569942E-007  0.1684369E+04  0.7818608E-02  0.8770330E-01
         -1   -1    0    0    0  501 -0.00000000000E+00  0.00000000000E+00  0.23177297948E+03  0.23177297948E+03  0.00000000000E+00 0.  1.
          2   -1    0    0  501    0  0.00000000000E+00 -0.00000000000E+00 -0.30602149828E+04  0.30602149828E+04  0.00000000000E+00 0. -1.
         24    2    1    2    0    0  0.22555785138E+03  0.52509266138E+02 -0.20621245127E+04  0.20765393369E+04  0.77617938311E+02 0.  0.
        254    2    1    2    0    0 -0.22555785138E+03 -0.52509266138E+02 -0.76631749063E+03  0.12154486254E+04  0.91457055345E+03 0.  0.
         23    2    4    4    0    0  0.68440888555E+02  0.29371484800E+03 -0.67084794908E+03  0.74102693410E+03  0.90174159969E+02 0.  0.
         23    2    4    4    0    0 -0.29399873994E+03 -0.34622411414E+03 -0.95469541552E+02  0.47442169132E+03  0.98260427101E+02 0.  0.
          2    1    3    3  502    0  0.19700926558E+03  0.24648656208E+02 -0.18560761569E+04  0.18666651835E+04  0.00000000000E+00 0. -1.
         -1    1    3    3    0  502  0.28548585804E+02  0.27860609930E+02 -0.20604835578E+03  0.20987415338E+03  0.00000000000E+00 0.  1.
         11    1    5    5    0    0 -0.17624436745E+02  0.10276963739E+03 -0.19508085441E+03  0.22119846043E+03  0.00000000000E+00 0. -1.
        -11    1    5    5    0    0  0.86065325300E+02  0.19094521061E+03 -0.47576709467E+03  0.51982847367E+03  0.00000000000E+00 0.  1.
          3    1    6    6  503    0 -0.74968375343E+02 -0.31593803251E+02 -0.16391860529E+02  0.82988666679E+02  0.00000000000E+00 0. -1.
         -3    1    6    6    0  503 -0.21903036460E+03 -0.31463031088E+03 -0.79077681023E+02  0.39143302464E+03  0.00000000000E+00 0.  1.
<mgrwt>
<rscale>  0 0.16843695E+04</rscale>
<asrwt>0</asrwt>
<pdfrwt beam="1">  1        2 0.47080227E+00 0.16843695E+04</pdfrwt>
<pdfrwt beam="2">  1       -1 0.35657384E-01 0.16843695E+04</pdfrwt>
<totfact> 0.13058747E+01</totfact>
</mgrwt>
</event>
<event>
12    6  0.1569942E-007  0.1523843E+04  0.7818608E-02  0.8868751E-01
          2   -1    0    0  501    0  0.00000000000E+00  0.00000000000E+00  0.66461030837E+03  0.66461030837E+03  0.00000000000E+00 0. -1.
         -1   -1    0    0    0  501 -0.00000000000E+00 -0.00000000000E+00 -0.87348087638E+03  0.87348087638E+03  0.00000000000E+00 0.  1.
         24    2    1    2    0    0 -0.18302417159E+03  0.38722436151E+03  0.17368507628E+03  0.46918646023E+03  0.80801455493E+02 0.  0.
        254    2    1    2    0    0  0.18302417159E+03 -0.38722436151E+03 -0.38255564430E+03  0.10689047245E+04  0.90153643054E+03 0.  0.
         23    2    4    4    0    0  0.32002083716E+03 -0.18222003636E+03 -0.61197516964E+03  0.72007774958E+03  0.91547142593E+02 0.  0.
         23    2    4    4    0    0 -0.13699666557E+03 -0.20500432515E+03  0.22941952535E+03  0.34882697494E+03  0.90840960635E+02 0.  0.
          2    1    3    3  502    0 -0.18312926925E+03  0.34773287771E+03  0.13974071386E+03  0.41711143667E+03  0.00000000000E+00 0. -1.
         -1    1    3    3    0  502  0.10509765969E+00  0.39491483799E+02  0.33944362420E+02  0.52075023555E+02  0.00000000000E+00 0.  1.
         11    1    5    5    0    0  0.24635161842E+03 -0.14379821794E+03 -0.53748881571E+03  0.60849098136E+03  0.00000000000E+00 0.  1.
        -11    1    5    5    0    0  0.73669218740E+02 -0.38421818425E+02 -0.74486353934E+02  0.11158676823E+03  0.00000000000E+00 0. -1.
          1    1    6    6  503    0  0.11270654970E+02 -0.32877432680E+02  0.21529883022E+02  0.40883848963E+02  0.00000000000E+00 0. -1.
         -1    1    6    6    0  503 -0.14826732054E+03 -0.17212689247E+03  0.20788964232E+03  0.30794312598E+03  0.00000000000E+00 0.  1.
<mgrwt>
<rscale>  0 0.15238430E+04</rscale>
<asrwt>0</asrwt>
<pdfrwt beam="1">  1        2 0.10224774E+00 0.15238430E+04</pdfrwt>
<pdfrwt beam="2">  1       -1 0.13438167E+00 0.15238430E+04</pdfrwt>
<totfact> 0.22463627E+01</totfact>
</mgrwt>
</event>
<event>
12    6  0.1569942E-007  0.3038202E+04  0.7818608E-02  0.8232905E-01
          2   -1    0    0  501    0  0.00000000000E+00  0.00000000000E+00  0.21382094839E+04  0.21382094839E+04  0.00000000000E+00 0. -1.
         -1   -1    0    0    0  501 -0.00000000000E+00 -0.00000000000E+00 -0.10792526931E+04  0.10792526931E+04  0.00000000000E+00 0.  1.
         24    2    1    2    0    0  0.26681753503E+03 -0.39490242788E+03 -0.88803836482E+03  0.10110306762E+04  0.80195799814E+02 0.  0.
        254    2    1    2    0    0 -0.26681753503E+03  0.39490242788E+03  0.19469951556E+04  0.22064315007E+04  0.92217693890E+03 0.  0.
         23    2    4    4    0    0  0.73925764575E+02 -0.25038039457E+03  0.77145190620E+03  0.81973074571E+03  0.93086471800E+02 0.  0.
         23    2    4    4    0    0 -0.34074329960E+03  0.64528282245E+03  0.11755432494E+04  0.13867007550E+04  0.92418263369E+02 0.  0.
          2    1    3    3  502    0  0.75874645151E+02 -0.67927483001E+02 -0.23579242129E+03  0.25684464304E+03  0.00000000000E+00 0. -1.
         -1    1    3    3    0  502  0.19094288988E+03 -0.32697494488E+03 -0.65224594354E+03  0.75418603317E+03  0.00000000000E+00 0.  1.
         11    1    5    5    0    0  0.49654307779E+02 -0.24079003743E+03  0.73401504446E+03  0.77409526410E+03  0.00000000000E+00 0. -1.
        -11    1    5    5    0    0  0.24271456797E+02 -0.95903571430E+01  0.37436861739E+02  0.45635481613E+02  0.00000000000E+00 0.  1.
          3    1    6    6  503    0 -0.65091496198E+02  0.20036952448E+03  0.29846904999E+03  0.36533357773E+03  0.00000000000E+00 0. -1.
         -3    1    6    6    0  503 -0.27565180340E+03  0.44491329797E+03  0.87707419943E+03  0.10213671772E+04  0.00000000000E+00 0.  1.
<mgrwt>
<rscale>  0 0.30382023E+04</rscale>
<asrwt>0</asrwt>
<pdfrwt beam="1">  1        2 0.32895531E+00 0.30382023E+04</pdfrwt>
<pdfrwt beam="2">  1       -1 0.16603888E+00 0.30382023E+04</pdfrwt>
<totfact> 0.14288712E+00</totfact>
</mgrwt>
</event>
<event>
12    6  0.1569942E-007  0.2190053E+04  0.7818608E-02  0.8522580E-01
         -1   -1    0    0    0  501 -0.00000000000E+00  0.00000000000E+00  0.14015192968E+04  0.14015192968E+04  0.00000000000E+00 0.  1.
          2   -1    0    0  501    0  0.00000000000E+00 -0.00000000000E+00 -0.85555914247E+03  0.85555914247E+03  0.00000000000E+00 0. -1.
         24    2    1    2    0    0  0.13785699441E+03  0.39615879825E+03 -0.60570972165E+03  0.74104827809E+03  0.79510623297E+02 0.  0.
        254    2    1    2    0    0 -0.13785699441E+03 -0.39615879825E+03  0.11516698760E+04  0.15160301612E+04  0.89222060166E+03 0.  0.
         23    2    4    4    0    0 -0.45026758312E+03 -0.33581547060E+03  0.10037694645E+04  0.11538260935E+04  0.90821745264E+02 0.  0.
         23    2    4    4    0    0  0.31241058871E+03 -0.60343327642E+02  0.14790041151E+03  0.36220406773E+03  0.89864129791E+02 0.  0.
          2    1    3    3  502    0  0.11359118654E+03  0.22770343766E+03 -0.39973186702E+03  0.47385375243E+03  0.00000000000E+00 0. -1.
         -1    1    3    3    0  502  0.24265807869E+02  0.16845536059E+03 -0.20597785464E+03  0.26719452566E+03  0.00000000000E+00 0.  1.
         11    1    5    5    0    0 -0.12262116835E+03 -0.14177565343E+03  0.35961133325E+03  0.40553248678E+03  0.00000000000E+00 0.  1.
        -11    1    5    5    0    0 -0.32764641478E+03 -0.19403981718E+03  0.64415813122E+03  0.74829360667E+03  0.00000000000E+00 0. -1.
          4    1    6    6  503    0  0.29373020679E+03 -0.47420663947E+02  0.10845079363E+03  0.31668237777E+03  0.00000000000E+00 0. -1.
         -4    1    6    6    0  503  0.18680381919E+02 -0.12922663695E+02  0.39449617880E+02  0.45521689957E+02  0.00000000000E+00 0.  1.
<mgrwt>
<rscale>  0 0.21900526E+04</rscale>
<asrwt>0</asrwt>
<pdfrwt beam="1">  1        2 0.13162448E+00 0.21900526E+04</pdfrwt>
<pdfrwt beam="2">  1       -1 0.21561835E+00 0.21900526E+04</pdfrwt>
<totfact> 0.38661138E+00</totfact>
</mgrwt>
</event>
<event>
12    6  0.1569942E-007  0.1172446E+04  0.7818608E-02  0.9137322E-01
          2   -1    0    0  501    0  0.00000000000E+00  0.00000000000E+00  0.62151800401E+03  0.62151800401E+03  0.00000000000E+00 0. -1.
         -1   -1    0    0    0  501 -0.00000000000E+00 -0.00000000000E+00 -0.55293215675E+03  0.55293215675E+03  0.00000000000E+00 0.  1.
         24    2    1    2    0    0 -0.35371513746E+02  0.21925088028E+03  0.73903337488E+02  0.24631902498E+03  0.76741555147E+02 0.  0.
        254    2    1    2    0    0  0.35371513746E+02 -0.21925088028E+03 -0.53174902262E+01  0.92813113578E+03  0.90115317068E+03 0.  0.
         23    2    4    4    0    0  0.40723043940E+03 -0.24647319010E+03 -0.16577975648E+03  0.51217725693E+03  0.90867764584E+02 0.  0.
         23    2    4    4    0    0 -0.37185892566E+03  0.27222309821E+02  0.16046226625E+03  0.41595387885E+03  0.90826073886E+02 0.  0.
          4    1    3    3  502    0 -0.12131861801E+02  0.74832425687E+02  0.64850126066E+02  0.99762782919E+02  0.00000000000E+00 0. -1.
         -3    1    3    3    0  502 -0.23239651945E+02  0.14441845460E+03  0.90532114218E+01  0.14655624206E+03  0.00000000000E+00 0.  1.
         11    1    5    5    0    0  0.23090354531E+03 -0.16173326338E+03 -0.54569343450E+02  0.28714440438E+03  0.00000000000E+00 0. -1.
        -11    1    5    5    0    0  0.17632689409E+03 -0.84739926726E+02 -0.11121041303E+03  0.22503285255E+03  0.00000000000E+00 0.  1.
          2    1    6    6  503    0 -0.36288365519E+02  0.15209780212E+02 -0.81956881088E+01  0.40191444235E+02  0.00000000000E+00 0. -1.
         -2    1    6    6    0  503 -0.33557056014E+03  0.12012529609E+02  0.16865795436E+03  0.37576243462E+03  0.00000000000E+00 0.  1.
<mgrwt>
<rscale>  0 0.11724458E+04</rscale>
<asrwt>0</asrwt>
<pdfrwt beam="1">  1        2 0.95618154E-01 0.11724458E+04</pdfrwt>
<pdfrwt beam="2">  1       -1 0.85066486E-01 0.11724458E+04</pdfrwt>
<totfact> 0.73390927E+01</totfact>
</mgrwt>
</event>
<event>
12    6  0.1569942E-007  0.1676692E+04  0.7818608E-02  0.8774771E-01
         -1   -1    0    0    0  501 -0.00000000000E+00  0.00000000000E+00  0.67524839423E+03  0.67524839423E+03  0.00000000000E+00 0.  1.
          2   -1    0    0  501    0  0.00000000000E+00 -0.00000000000E+00 -0.10408373738E+04  0.10408373738E+04  0.00000000000E+00 0. -1.
         24    2    1    2    0    0 -0.41309528973E+03 -0.65522734637E+02  0.29830580769E+03  0.52258420915E+03  0.95744209254E+02 0.  0.
        254    2    1    2    0    0  0.41309528973E+03  0.65522734637E+02 -0.66389478722E+03  0.11935015588E+04  0.89930458427E+03 0.  0.
         23    2    4    4    0    0  0.88538631757E+02  0.14315645033E+03 -0.79915559816E+03  0.82182640632E+03  0.91739378012E+02 0.  0.
         23    2    4    4    0    0  0.32455665797E+03 -0.77633715694E+02  0.13526081094E+03  0.37167515251E+03  0.92102735955E+02 0.  0.
          2    1    3    3  502    0 -0.96516005904E+01 -0.43476511777E+00  0.35317100291E+02  0.36614750957E+02  0.00000000000E+00 0. -1.
         -1    1    3    3    0  502 -0.40344368914E+03 -0.65087969519E+02  0.26298870740E+03  0.48596945820E+03  0.00000000000E+00 0.  1.
         11    1    5    5    0    0 -0.14034336192E+02 -0.14312230062E+01 -0.72431489122E+02  0.73792490187E+02  0.00000000000E+00 0. -1.
        -11    1    5    5    0    0  0.10257296795E+03  0.14458767334E+03 -0.72672410904E+03  0.74803391614E+03  0.00000000000E+00 0.  1.
          1    1    6    6  503    0  0.28212376367E+01 -0.60275924972E+01 -0.95657787120E+01  0.11653127283E+02  0.00000000000E+00 0. -1.
         -1    1    6    6    0  503  0.32173542033E+03 -0.71606123196E+02  0.14482658965E+03  0.36002202522E+03  0.00000000000E+00 0.  1.
<mgrwt>
<rscale>  0 0.16766917E+04</rscale>
<asrwt>0</asrwt>
<pdfrwt beam="1">  1        2 0.16012883E+00 0.16766917E+04</pdfrwt>
<pdfrwt beam="2">  1       -1 0.10388437E+00 0.16766917E+04</pdfrwt>
<totfact> 0.22520240E+01</totfact>
</mgrwt>
</event>
<event>
12    6  0.1569942E-007  0.2697898E+04  0.7818608E-02  0.8335687E-01
          2   -1    0    0  501    0  0.00000000000E+00  0.00000000000E+00  0.27477190614E+04  0.27477190614E+04  0.00000000000E+00 0. -1.
         -1   -1    0    0    0  501 -0.00000000000E+00 -0.00000000000E+00 -0.66224514387E+03  0.66224514387E+03  0.00000000000E+00 0.  1.
         24    2    1    2    0    0  0.30452688958E+03 -0.84531222226E+03  0.19282965945E+04  0.21288829122E+04  0.80779438732E+02 0.  0.
        254    2    1    2    0    0 -0.30452688958E+03  0.84531222226E+03  0.15717732303E+03  0.12810812931E+04  0.89954165504E+03 0.  0.
         23    2    4    4    0    0 -0.46090372646E+03  0.90025997775E+03  0.28171065727E+03  0.10536190423E+04  0.88611056458E+02 0.  0.
         23    2    4    4    0    0  0.15637683688E+03 -0.54947755490E+02 -0.12453333424E+03  0.22746225080E+03  0.93581799819E+02 0.  0.
          4    1    3    3  502    0  0.11579660463E+03 -0.43884568579E+03  0.95398432220E+03  0.10564471007E+04  0.00000000000E+00 0. -1.
         -3    1    3    3    0  502  0.18873028496E+03 -0.40646653646E+03  0.97431227230E+03  0.10724358115E+04  0.00000000000E+00 0.  1.
         11    1    5    5    0    0 -0.16055315984E+03  0.23159919671E+03  0.92055480512E+02  0.29646199848E+03  0.00000000000E+00 0. -1.
        -11    1    5    5    0    0 -0.30035056662E+03  0.66866078104E+03  0.18965517676E+03  0.75715704385E+03  0.00000000000E+00 0.  1.
          1    1    6    6  503    0  0.13803900783E+02 -0.12418093559E+02 -0.64340645694E+02  0.66966225911E+02  0.00000000000E+00 0. -1.
         -1    1    6    6    0  503  0.14257293610E+03 -0.42529661930E+02 -0.60192688542E+02  0.16049602489E+03  0.00000000000E+00 0.  1.
<mgrwt>
<rscale>  0 0.26978981E+04</rscale>
<asrwt>0</asrwt>
<pdfrwt beam="1">  1        2 0.42272600E+00 0.26978981E+04</pdfrwt>
<pdfrwt beam="2">  1       -1 0.10188387E+00 0.26978981E+04</pdfrwt>
<totfact> 0.22639762E+00</totfact>
</mgrwt>
</event>
<event>
12    6  0.1569942E-007  0.2990251E+04  0.7818608E-02  0.8246520E-01
          2   -1    0    0  501    0  0.00000000000E+00  0.00000000000E+00  0.18146635660E+04  0.18146635660E+04  0.00000000000E+00 0. -1.
         -1   -1    0    0    0  501 -0.00000000000E+00 -0.00000000000E+00 -0.12318540133E+04  0.12318540133E+04  0.00000000000E+00 0.  1.
         24    2    1    2    0    0 -0.48583434506E+03  0.31613128714E+03 -0.98771857719E+03  0.11480268365E+04  0.80022672516E+02 0.  0.
        254    2    1    2    0    0  0.48583434506E+03 -0.31613128714E+03  0.15705281299E+04  0.18984907428E+04  0.89539627662E+03 0.  0.
         23    2    4    4    0    0 -0.44961709735E+02 -0.41158572284E+03  0.10959397919E+04  0.11751818272E+04  0.92433419389E+02 0.  0.
         23    2    4    4    0    0  0.53079605480E+03  0.95454435698E+02  0.47458833800E+03  0.72330891558E+03  0.84176574520E+02 0.  0.
          2    1    3    3  502    0 -0.88953664465E+02  0.73014042959E+02 -0.14281696885E+03  0.18341344412E+03  0.00000000000E+00 0. -1.
         -1    1    3    3    0  502 -0.39688068060E+03  0.24311724418E+03 -0.84490160834E+03  0.96461339241E+03  0.00000000000E+00 0.  1.
         11    1    5    5    0    0 -0.19160862168E+01  0.38066278567E+00  0.52481369861E+02  0.52517715802E+02  0.00000000000E+00 0. -1.
        -11    1    5    5    0    0 -0.43045623518E+02 -0.41196638563E+03  0.10434584220E+04  0.11226641114E+04  0.00000000000E+00 0.  1.
          2    1    6    6  503    0  0.22023593338E+03  0.80862182519E+02  0.19177116849E+03  0.30301607215E+03  0.00000000000E+00 0.  1.
         -2    1    6    6    0  503  0.31056012142E+03  0.14592253179E+02  0.28281716951E+03  0.42029284343E+03  0.00000000000E+00 0. -1.
<mgrwt>
<rscale>  0 0.29902512E+04</rscale>
<asrwt>0</asrwt>
<pdfrwt beam="1">  1        2 0.27917901E+00 0.29902512E+04</pdfrwt>
<pdfrwt beam="2">  1       -1 0.18951600E+00 0.29902512E+04</pdfrwt>
<totfact> 0.14703278E+00</totfact>
</mgrwt>
</event>
<event>
12    6  0.1569942E-007  0.1644097E+04  0.7818608E-02  0.8793906E-01
         -1   -1    0    0    0  501 -0.00000000000E+00  0.00000000000E+00  0.10552068948E+04  0.10552068948E+04  0.00000000000E+00 0.  1.
          2   -1    0    0  501    0  0.00000000000E+00 -0.00000000000E+00 -0.64040895738E+03  0.64040895738E+03  0.00000000000E+00 0. -1.
         24    2    1    2    0    0  0.34543082231E+03  0.27609706521E+03 -0.23130466807E+03  0.50516423249E+03  0.78339070029E+02 0.  0.
        254    2    1    2    0    0 -0.34543082231E+03 -0.27609706521E+03  0.64610260545E+03  0.11904516196E+04  0.89675773735E+03 0.  0.
         23    2    4    4    0    0  0.31677043086E+02 -0.52594050768E+03  0.39896932480E+03  0.66668801736E+03  0.87632971467E+02 0.  0.
         23    2    4    4    0    0 -0.37710786540E+03  0.24984344246E+03  0.24713328065E+03  0.52376360227E+03  0.92851304624E+02 0.  0.
          2    1    3    3  502    0  0.27375429410E+03  0.17906361516E+03 -0.18601719930E+03  0.37630783974E+03  0.00000000000E+00 0. -1.
         -1    1    3    3    0  502  0.71676528217E+02  0.97033450053E+02 -0.45287468774E+02  0.12885639276E+03  0.00000000000E+00 0.  1.
         11    1    5    5    0    0  0.62278356031E+02 -0.34994865069E+03  0.26113307542E+03  0.44105910582E+03  0.00000000000E+00 0.  1.
        -11    1    5    5    0    0 -0.30601312945E+02 -0.17599185698E+03  0.13783624938E+03  0.22562891154E+03  0.00000000000E+00 0. -1.
          1    1    6    6  503    0 -0.26986759517E+03  0.22556595147E+03  0.18320810169E+03  0.39657751564E+03  0.00000000000E+00 0. -1.
         -1    1    6    6    0  503 -0.10724027023E+03  0.24277490997E+02  0.63925178959E+02  0.12718608663E+03  0.00000000000E+00 0.  1.
<mgrwt>
<rscale>  0 0.16440973E+04</rscale>
<asrwt>0</asrwt>
<pdfrwt beam="1">  1        2 0.98524455E-01 0.16440973E+04</pdfrwt>
<pdfrwt beam="2">  1       -1 0.16233952E+00 0.16440973E+04</pdfrwt>
<totfact> 0.14027695E+01</totfact>
</mgrwt>
</event>
<event>
12    6  0.1569942E-007  0.2275160E+04  0.7818608E-02  0.8487780E-01
         -1   -1    0    0    0  501 -0.00000000000E+00  0.00000000000E+00  0.93117672208E+03  0.93117672208E+03  0.00000000000E+00 0.  1.
          2   -1    0    0  501    0  0.00000000000E+00 -0.00000000000E+00 -0.13897345904E+04  0.13897345904E+04  0.00000000000E+00 0. -1.
         24    2    1    2    0    0 -0.38736986123E+03  0.84988103716E+03  0.12150767671E+02  0.93903369480E+03  0.96350672534E+02 0.  0.
        254    2    1    2    0    0  0.38736986123E+03 -0.84988103716E+03 -0.47070863599E+03  0.13818776177E+04  0.90314226096E+03 0.  0.
         23    2    4    4    0    0 -0.66196929670E+02 -0.90297703909E+02  0.21551686542E+03  0.25851389109E+03  0.88578799834E+02 0.  0.
         23    2    4    4    0    0  0.45356679090E+03 -0.75958333325E+03 -0.68622550141E+03  0.11233637266E+04  0.91383529526E+02 0.  0.
          4    1    3    3  502    0 -0.28265224928E+03  0.64114299980E+03  0.49954107721E+02  0.70246142463E+03  0.00000000000E+00 0. -1.
         -3    1    3    3    0  502 -0.10471761195E+03  0.20873803736E+03 -0.37803340050E+02  0.23657227017E+03  0.00000000000E+00 0.  1.
         11    1    5    5    0    0 -0.81003389482E+02 -0.53677766535E+02  0.11526491389E+03  0.15076091039E+03  0.00000000000E+00 0. -1.
        -11    1    5    5    0    0  0.14806459812E+02 -0.36619937374E+02  0.10025195152E+03  0.10775298070E+03  0.00000000000E+00 0.  1.
          1    1    6    6  503    0  0.45465333990E+03 -0.75987117827E+03 -0.67851052975E+03  0.11155673023E+04  0.00000000000E+00 0. -1.
         -1    1    6    6    0  503 -0.10865490032E+01  0.28784502092E+00 -0.77149716525E+01  0.77964242504E+01  0.00000000000E+00 0.  1.
<mgrwt>
<rscale>  0 0.22751602E+04</rscale>
<asrwt>0</asrwt>
<pdfrwt beam="1">  1        2 0.21380532E+00 0.22751602E+04</pdfrwt>
<pdfrwt beam="2">  1       -1 0.14325796E+00 0.22751602E+04</pdfrwt>
<totfact> 0.59906240E+00</totfact>
</mgrwt>
</event>
<event>
12    6  0.1569942E-007  0.2383564E+04  0.7818608E-02  0.8445683E-01
          2   -1    0    0  501    0  0.00000000000E+00  0.00000000000E+00  0.37032562720E+04  0.37032562720E+04  0.00000000000E+00 0. -1.
         -1   -1    0    0    0  501 -0.00000000000E+00 -0.00000000000E+00 -0.38353940104E+03  0.38353940104E+03  0.00000000000E+00 0.  1.
         24    2    1    2    0    0 -0.97999723386E+03 -0.27963042016E+03  0.14862369249E+04  0.18038686785E+04  0.80338423057E+02 0.  0.
        254    2    1    2    0    0  0.97999723386E+03  0.27963042016E+03  0.18334799461E+04  0.22829269946E+04  0.90084360430E+03 0.  0.
         23    2    4    4    0    0  0.85708035386E+03 -0.27458698254E+02  0.17161819629E+04  0.19206519185E+04  0.91008510315E+02 0.  0.
         23    2    4    4    0    0  0.12291688000E+03  0.30708911841E+03  0.11729798319E+03  0.36227507609E+03  0.89845021355E+02 0.  0.
          4    1    3    3  502    0 -0.55589357699E+03 -0.13132204068E+03  0.88456495594E+03  0.10529569358E+04  0.00000000000E+00 0. -1.
         -3    1    3    3    0  502 -0.42410365687E+03 -0.14830837948E+03  0.60167196894E+03  0.75091174275E+03  0.00000000000E+00 0.  1.
         11    1    5    5    0    0  0.18481709230E+03  0.13510697948E+02  0.30287121180E+03  0.35506459624E+03  0.00000000000E+00 0. -1.
        -11    1    5    5    0    0  0.67226326156E+03 -0.40969396202E+02  0.14133107511E+04  0.15655873222E+04  0.00000000000E+00 0.  1.
          1    1    6    6  503    0  0.25621043464E+02  0.18437705052E+03  0.64903230891E+02  0.19713894594E+03  0.00000000000E+00 0. -1.
         -1    1    6    6    0  503  0.97295836534E+02  0.12271206789E+03  0.52394752303E+02  0.16513613015E+03  0.00000000000E+00 0.  1.
<mgrwt>
<rscale>  0 0.23835643E+04</rscale>
<asrwt>0</asrwt>
<pdfrwt beam="1">  1        2 0.56973171E+00 0.23835643E+04</pdfrwt>
<pdfrwt beam="2">  1       -1 0.59006064E-01 0.23835643E+04</pdfrwt>
<totfact> 0.17361103E+00</totfact>
</mgrwt>
</event>
<event>
12    6  0.1569942E-007  0.1447098E+04  0.7818608E-02  0.8920415E-01
          2   -1    0    0  501    0  0.00000000000E+00  0.00000000000E+00  0.79212927201E+03  0.79212927201E+03  0.00000000000E+00 0. -1.
         -1   -1    0    0    0  501 -0.00000000000E+00 -0.00000000000E+00 -0.66090602065E+03  0.66090602065E+03  0.00000000000E+00 0.  1.
         24    2    1    2    0    0 -0.41572319038E+03 -0.54834668694E+02  0.19195186007E+03  0.46812327508E+03  0.80382038859E+02 0.  0.
        254    2    1    2    0    0  0.41572319038E+03  0.54834668694E+02 -0.60728608706E+02  0.98491201758E+03  0.88911816231E+03 0.  0.
         23    2    4    4    0    0 -0.11774691292E+03  0.46834699541E+02  0.29821890609E+03  0.33551188823E+03  0.87039569221E+02 0.  0.
         23    2    4    4    0    0  0.53347010330E+03  0.79999691535E+01 -0.35894751479E+03  0.64940012935E+03  0.90679981305E+02 0.  0.
          2    1    3    3  502    0 -0.40306607909E+03 -0.57758169772E+02  0.16721071695E+03  0.44017916143E+03  0.00000000000E+00 0. -1.
         -1    1    3    3    0  502 -0.12657111289E+02  0.29235010779E+01  0.24741143122E+02  0.27944113651E+02  0.00000000000E+00 0.  1.
         11    1    5    5    0    0 -0.12240746206E+03  0.62081873627E+02  0.27497327989E+03  0.30732401542E+03  0.00000000000E+00 0. -1.
        -11    1    5    5    0    0  0.46605491442E+01 -0.15247174086E+02  0.23245626200E+02  0.28187872807E+02  0.00000000000E+00 0.  1.
          2    1    6    6  503    0  0.50734642395E+03  0.27825654601E+02 -0.34199409383E+03  0.61248234355E+03  0.00000000000E+00 0. -1.
         -2    1    6    6    0  503  0.26123679351E+02 -0.19825685447E+02 -0.16953420959E+02  0.36917785802E+02  0.00000000000E+00 0.  1.
<mgrwt>
<rscale>  0 0.14470978E+04</rscale>
<asrwt>0</asrwt>
<pdfrwt beam="1">  1        2 0.12186604E+00 0.14470978E+04</pdfrwt>
<pdfrwt beam="2">  1       -1 0.10167785E+00 0.14470978E+04</pdfrwt>
<totfact> 0.35471299E+01</totfact>
</mgrwt>
</event>
<event>
12    6  0.1569942E-007  0.1595224E+04  0.7818608E-02  0.8823487E-01
         -1   -1    0    0    0  501 -0.00000000000E+00  0.00000000000E+00  0.60840353117E+03  0.60840353117E+03  0.00000000000E+00 0.  1.
          2   -1    0    0  501    0  0.00000000000E+00 -0.00000000000E+00 -0.10456628663E+04  0.10456628663E+04  0.00000000000E+00 0. -1.
         24    2    1    2    0    0 -0.49539221584E+03  0.16547235582E+03 -0.13156650065E+02  0.52862595319E+03  0.80484488512E+02 0.  0.
        254    2    1    2    0    0  0.49539221584E+03 -0.16547235582E+03 -0.42410268511E+03  0.11254404443E+04  0.90219651858E+03 0.  0.
         23    2    4    4    0    0  0.12872697885E+03  0.36113885126E+03 -0.15022614889E+03  0.42179901916E+03  0.91403565512E+02 0.  0.
         23    2    4    4    0    0  0.36666523699E+03 -0.52661120708E+03 -0.27387653622E+03  0.70364142515E+03  0.91324359639E+02 0.  0.
          2    1    3    3  502    0 -0.38930654866E+02 -0.54030423357E+01 -0.12450667449E+02  0.41228726329E+02  0.00000000000E+00 0. -1.
         -1    1    3    3    0  502 -0.45646156097E+03  0.17087539816E+03 -0.70598261600E+00  0.48739722686E+03  0.00000000000E+00 0.  1.
         11    1    5    5    0    0  0.11307772935E+03  0.34981312966E+03 -0.15904513125E+03  0.40056354344E+03  0.00000000000E+00 0.  1.
        -11    1    5    5    0    0  0.15649249497E+02  0.11325721599E+02  0.88189823605E+01  0.21235475729E+02  0.00000000000E+00 0. -1.
          2    1    6    6  503    0  0.83173057108E+02 -0.74056143657E+02 -0.23381780515E+02  0.11379269529E+03  0.00000000000E+00 0. -1.
         -2    1    6    6    0  503  0.28349217988E+03 -0.45255506342E+03 -0.25049475571E+03  0.58984872986E+03  0.00000000000E+00 0.  1.
<mgrwt>
<rscale>  0 0.15952241E+04</rscale>
<asrwt>0</asrwt>
<pdfrwt beam="1">  1        2 0.16087121E+00 0.15952241E+04</pdfrwt>
<pdfrwt beam="2">  1       -1 0.93600545E-01 0.15952241E+04</pdfrwt>
<totfact> 0.28542518E+01</totfact>
</mgrwt>
</event>
<event>
12    6  0.1569942E-007  0.2271841E+04  0.7818608E-02  0.8489107E-01
          2   -1    0    0  501    0  0.00000000000E+00  0.00000000000E+00  0.28835243449E+04  0.28835243449E+04  0.00000000000E+00 0. -1.
         -3   -1    0    0    0  501 -0.00000000000E+00 -0.00000000000E+00 -0.44747853077E+03  0.44747853077E+03  0.00000000000E+00 0.  1.
         24    2    1    2    0    0 -0.36705960483E+02  0.50888380224E+03  0.22075665884E+04  0.22671682491E+04  0.79947330454E+02 0.  0.
        254    2    1    2    0    0  0.36705960483E+02 -0.50888380224E+03  0.22847922571E+03  0.10638346266E+04  0.90511397317E+03 0.  0.
         23    2    4    4    0    0  0.85795877136E+02  0.24670071821E+03  0.59113867156E+02  0.28243405825E+03  0.89735004696E+02 0.  0.
         23    2    4    4    0    0 -0.49089916653E+02 -0.75558452045E+03  0.16936535855E+03  0.78140056834E+03  0.92652231803E+02 0.  0.
          4    1    3    3  502    0 -0.29421667545E+02  0.29278862192E+03  0.14382864144E+04  0.14680799098E+04  0.00000000000E+00 0. -1.
         -3    1    3    3    0  502 -0.72842929379E+01  0.21609518032E+03  0.76928017406E+03  0.79908833935E+03  0.00000000000E+00 0.  1.
         11    1    5    5    0    0  0.42034756294E+02  0.18403238421E+03  0.77101950115E+02  0.20391064191E+03  0.00000000000E+00 0.  1.
        -11    1    5    5    0    0  0.43761120841E+02  0.62668334006E+02 -0.17988082959E+02  0.78523416335E+02  0.00000000000E+00 0. -1.
          2    1    6    6  503    0 -0.53680126735E+02 -0.64141743907E+03  0.11122283368E+03  0.65319859605E+03  0.00000000000E+00 0.  1.
         -2    1    6    6    0  503  0.45902100820E+01 -0.11416708138E+03  0.58142524875E+02  0.12820197228E+03  0.00000000000E+00 0. -1.
<mgrwt>
<rscale>  0 0.22718409E+04</rscale>
<asrwt>0</asrwt>
<pdfrwt beam="1">  1        2 0.44361912E+00 0.22718409E+04</pdfrwt>
<pdfrwt beam="2">  1       -3 0.68842853E-01 0.22718409E+04</pdfrwt>
<totfact> 0.24312902E+00</totfact>
</mgrwt>
</event>
<event>
12    6  0.1569942E-007  0.1254003E+04  0.7818608E-02  0.9066858E-01
         -1   -1    0    0    0  501 -0.00000000000E+00  0.00000000000E+00  0.14463367358E+03  0.14463367358E+03  0.00000000000E+00 0.  1.
          2   -1    0    0  501    0  0.00000000000E+00 -0.00000000000E+00 -0.27181127892E+04  0.27181127892E+04  0.00000000000E+00 0. -1.
         24    2    1    2    0    0 -0.11810946458E+03  0.27390015271E+03 -0.71340868740E+03  0.77735438347E+03  0.79729185187E+02 0.  0.
        254    2    1    2    0    0  0.11810946458E+03 -0.27390015271E+03 -0.18600704282E+04  0.20853920793E+04  0.89444227719E+03 0.  0.
         23    2    4    4    0    0  0.36079043765E+03  0.40012329101E+02 -0.31970068101E+03  0.49226530997E+03  0.91355807572E+02 0.  0.
         23    2    4    4    0    0 -0.24268097306E+03 -0.31391248181E+03 -0.15403697472E+04  0.15931267694E+04  0.88762853436E+02 0.  0.
          4    1    3    3  502    0 -0.86957461973E+01  0.33260672051E+02 -0.34090116408E+02  0.48415125157E+02  0.00000000000E+00 0. -1.
         -3    1    3    3    0  502 -0.10941371839E+03  0.24063948066E+03 -0.67931857099E+03  0.72893925831E+03  0.00000000000E+00 0.  1.
         11    1    5    5    0    0  0.10020408024E+03 -0.29801220626E+02 -0.90264252923E+02  0.13811808645E+03  0.00000000000E+00 0. -1.
        -11    1    5    5    0    0  0.26058635740E+03  0.69813549727E+02 -0.22943642809E+03  0.35414722352E+03  0.00000000000E+00 0.  1.
          2    1    6    6  503    0 -0.20421520561E+03 -0.26369345767E+03 -0.13997057522E+04  0.14388934230E+04  0.00000000000E+00 0. -1.
         -2    1    6    6    0  503 -0.38465767457E+02 -0.50219024145E+02 -0.14066399500E+03  0.15423334640E+03  0.00000000000E+00 0.  1.
<mgrwt>
<rscale>  0 0.12540026E+04</rscale>
<asrwt>0</asrwt>
<pdfrwt beam="1">  1        2 0.41817120E+00 0.12540026E+04</pdfrwt>
<pdfrwt beam="2">  1       -1 0.22251334E-01 0.12540026E+04</pdfrwt>
<totfact> 0.49976925E+01</totfact>
</mgrwt>
</event>
<event>
12    6  0.1569942E-007  0.2322578E+04  0.7818608E-02  0.8469072E-01
          2   -1    0    0  501    0  0.00000000000E+00  0.00000000000E+00  0.14267428550E+04  0.14267428550E+04  0.00000000000E+00 0. -1.
         -1   -1    0    0    0  501 -0.00000000000E+00 -0.00000000000E+00 -0.94522436285E+03  0.94522436285E+03  0.00000000000E+00 0.  1.
         24    2    1    2    0    0 -0.34486134119E+03  0.56075512919E+03 -0.53810670109E+03  0.85405892009E+03  0.80511847950E+02 0.  0.
        254    2    1    2    0    0  0.34486134119E+03 -0.56075512919E+03  0.10196251933E+04  0.15179082978E+04  0.91161088530E+03 0.  0.
         23    2    4    4    0    0  0.61586410756E+03 -0.38458604229E+03  0.90118415032E+03  0.11608471889E+04  0.90765082448E+02 0.  0.
         23    2    4    4    0    0 -0.27100276637E+03 -0.17616908690E+03  0.11844104296E+03  0.35706110894E+03  0.94796140752E+02 0.  0.
          4    1    3    3  502    0  0.32607749623E+00  0.16623453236E+02 -0.40075521804E+01  0.17102806743E+02  0.00000000000E+00 0. -1.
         -3    1    3    3    0  502 -0.34518741868E+03  0.54413167596E+03 -0.53409914891E+03  0.83695611334E+03  0.00000000000E+00 0.  1.
         11    1    5    5    0    0  0.31466386044E+03 -0.15719437883E+03  0.48363744594E+03  0.59802056563E+03  0.00000000000E+00 0. -1.
        -11    1    5    5    0    0  0.30120024712E+03 -0.22739166346E+03  0.41754670438E+03  0.56282662323E+03  0.00000000000E+00 0.  1.
          1    1    6    6  503    0 -0.32619185297E+02 -0.44513526329E+02 -0.98069830872E+01  0.56050354084E+02  0.00000000000E+00 0. -1.
         -1    1    6    6    0  503 -0.23838358107E+03 -0.13165556057E+03  0.12824802605E+03  0.30101075486E+03  0.00000000000E+00 0.  1.
<mgrwt>
<rscale>  0 0.23225780E+04</rscale>
<asrwt>0</asrwt>
<pdfrwt beam="1">  1        2 0.21949890E+00 0.23225780E+04</pdfrwt>
<pdfrwt beam="2">  1       -1 0.14541913E+00 0.23225780E+04</pdfrwt>
<totfact> 0.54613366E+00</totfact>
</mgrwt>
</event>
<event>
12    6  0.1569942E-007  0.1227536E+04  0.7818608E-02  0.9089090E-01
          2   -1    0    0  501    0  0.00000000000E+00  0.00000000000E+00  0.66283764376E+03  0.66283764376E+03  0.00000000000E+00 0. -1.
         -1   -1    0    0    0  501 -0.00000000000E+00 -0.00000000000E+00 -0.56833092989E+03  0.56833092989E+03  0.00000000000E+00 0.  1.
         24    2    1    2    0    0 -0.41729682328E+02 -0.10228605900E+03  0.23323853113E+03  0.26932574718E+03  0.77021694583E+02 0.  0.
        254    2    1    2    0    0  0.41729682328E+02  0.10228605900E+03 -0.13873181726E+03  0.96184282646E+03  0.94535247471E+03 0.  0.
         23    2    4    4    0    0  0.23800773809E+03  0.21585533557E+03 -0.45318734606E+03  0.56375972031E+03  0.95942911789E+02 0.  0.
         23    2    4    4    0    0 -0.19627805576E+03 -0.11356927658E+03  0.31445552880E+03  0.39808310616E+03  0.90359415991E+02 0.  0.
          2    1    3    3  502    0 -0.10991410482E+02 -0.10333095807E+03  0.17963774431E+03  0.20752787085E+03  0.00000000000E+00 0. -1.
         -1    1    3    3    0  502 -0.30738271846E+02  0.10448990777E+01  0.53600786823E+02  0.61797876325E+02  0.00000000000E+00 0.  1.
         11    1    5    5    0    0  0.11354953475E+03  0.15414632065E+03 -0.21386589406E+03  0.28704216703E+03  0.00000000000E+00 0.  1.
        -11    1    5    5    0    0  0.12445820334E+03  0.61709014919E+02 -0.23932145200E+03  0.27671755327E+03  0.00000000000E+00 0. -1.
          4    1    6    6  503    0 -0.53135659342E+02  0.10558923222E+02  0.80475939546E+02  0.97011679705E+02  0.00000000000E+00 0.  1.
         -4    1    6    6    0  503 -0.14314239642E+03 -0.12412819980E+03  0.23397958926E+03  0.30107142645E+03  0.00000000000E+00 0. -1.
<mgrwt>
<rscale>  0 0.12275360E+04</rscale>
<asrwt>0</asrwt>
<pdfrwt beam="1">  1        2 0.10197502E+00 0.12275360E+04</pdfrwt>
<pdfrwt beam="2">  1       -1 0.87435528E-01 0.12275360E+04</pdfrwt>
<totfact> 0.63598431E+01</totfact>
</mgrwt>
</event>
<event>
12    6  0.1569942E-007  0.1074178E+04  0.7818608E-02  0.9230732E-01
          2   -1    0    0  501    0  0.00000000000E+00  0.00000000000E+00  0.40199189540E+04  0.40199189540E+04  0.00000000000E+00 0. -1.
         -1   -1    0    0    0  501 -0.00000000000E+00 -0.00000000000E+00 -0.71758758975E+02  0.71758758975E+02  0.00000000000E+00 0.  1.
         24    2    1    2    0    0 -0.80946555878E+02  0.83982573706E+02  0.29437460357E+03  0.32689908478E+03  0.81247688007E+02 0.  0.
        254    2    1    2    0    0  0.80946555878E+02 -0.83982573706E+02  0.36537855915E+04  0.37647786282E+04  0.89989085640E+03 0.  0.
         23    2    4    4    0    0 -0.49745257294E+02  0.10350318965E+03  0.34251561560E+04  0.34283293300E+04  0.92519193474E+02 0.  0.
         23    2    4    4    0    0  0.13069181317E+03 -0.18748576336E+03  0.22862943548E+03  0.33644929821E+03  0.93249396810E+02 0.  0.
          2    1    3    3  502    0 -0.22960906620E+02  0.57662501914E+02  0.22193016843E+03  0.23044558364E+03  0.00000000000E+00 0. -1.
         -1    1    3    3    0  502 -0.57985649259E+02  0.26320071792E+02  0.72444435146E+02  0.96453501143E+02  0.00000000000E+00 0.  1.
         11    1    5    5    0    0 -0.42233303584E+02  0.70512260613E+02  0.31539360638E+04  0.31550068662E+04  0.00000000000E+00 0. -1.
        -11    1    5    5    0    0 -0.75119537093E+01  0.32990929038E+02  0.27122009216E+03  0.27332246384E+03  0.00000000000E+00 0.  1.
          4    1    6    6  503    0  0.44797417295E+02 -0.70799455287E+02  0.26734912657E+02  0.87943885632E+02  0.00000000000E+00 0. -1.
         -4    1    6    6    0  503  0.85894395877E+02 -0.11668630807E+03  0.20189452282E+03  0.24850541257E+03  0.00000000000E+00 0.  1.
<mgrwt>
<rscale>  0 0.10741776E+04</rscale>
<asrwt>0</asrwt>
<pdfrwt beam="1">  1        2 0.61844889E+00 0.10741776E+04</pdfrwt>
<pdfrwt beam="2">  1       -1 0.11039812E-01 0.10741776E+04</pdfrwt>
<totfact> 0.21178494E+01</totfact>
</mgrwt>
</event>
<event>
12    6  0.1569942E-007  0.2851975E+04  0.7818608E-02  0.8287311E-01
          2   -1    0    0  501    0  0.00000000000E+00  0.00000000000E+00  0.20798570686E+04  0.20798570686E+04  0.00000000000E+00 0. -1.
         -1   -1    0    0    0  501 -0.00000000000E+00 -0.00000000000E+00 -0.97768279168E+03  0.97768279168E+03  0.00000000000E+00 0.  1.
         24    2    1    2    0    0 -0.62660717629E+03 -0.10659934468E+04  0.86495109867E+03  0.15110763054E+04  0.78946916917E+02 0.  0.
        254    2    1    2    0    0  0.62660717629E+03  0.10659934468E+04  0.23722317828E+03  0.15464635549E+04  0.89793992460E+03 0.  0.
         23    2    4    4    0    0  0.27082267795E+03 -0.84294702652E+02  0.15588563518E+03  0.33631453346E+03  0.91414519490E+02 0.  0.
         23    2    4    4    0    0  0.35578449835E+03  0.11502881495E+04  0.81337543108E+02  0.12101490214E+04  0.89996789061E+02 0.  0.
          2    1    3    3  502    0 -0.30181680892E+03 -0.53375404783E+03  0.38240000392E+03  0.72264550972E+03  0.00000000000E+00 0. -1.
         -1    1    3    3    0  502 -0.32479036738E+03 -0.53223939900E+03  0.48255109475E+03  0.78843079572E+03  0.00000000000E+00 0.  1.
         11    1    5    5    0    0  0.50645011423E+02 -0.11793269802E+01  0.68662739650E+02  0.85328071644E+02  0.00000000000E+00 0. -1.
        -11    1    5    5    0    0  0.22017766652E+03 -0.83115375672E+02  0.87222895526E+02  0.25098646181E+03  0.00000000000E+00 0.  1.
          4    1    6    6  503    0  0.44982378876E+02  0.10182624011E+03 -0.15134265717E+02  0.11234341807E+03  0.00000000000E+00 0. -1.
         -4    1    6    6    0  503  0.31080211947E+03  0.10484619094E+04  0.96471808825E+02  0.10978056034E+04  0.00000000000E+00 0.  1.
<mgrwt>
<rscale>  0 0.28519751E+04</rscale>
<asrwt>0</asrwt>
<pdfrwt beam="1">  1        2 0.31997801E+00 0.28519751E+04</pdfrwt>
<pdfrwt beam="2">  1       -1 0.15041274E+00 0.28519751E+04</pdfrwt>
<totfact> 0.20581122E+00</totfact>
</mgrwt>
</event>
<event>
12    6  0.1569942E-007  0.2088731E+04  0.7818608E-02  0.8566224E-01
         -1   -1    0    0    0  501 -0.00000000000E+00  0.00000000000E+00  0.34224003001E+03  0.34224003001E+03  0.00000000000E+00 0.  1.
          2   -1    0    0  501    0  0.00000000000E+00 -0.00000000000E+00 -0.31869418677E+04  0.31869418677E+04  0.00000000000E+00 0. -1.
         24    2    1    2    0    0  0.60862721149E+03 -0.56334148689E+03 -0.14912530972E+04  0.17079230933E+04  0.73381054661E+02 0.  0.
        254    2    1    2    0    0 -0.60862721149E+03  0.56334148689E+03 -0.13534487405E+04  0.18212588045E+04  0.89296104406E+03 0.  0.
         23    2    4    4    0    0 -0.38910578126E+03  0.71672488921E+03 -0.60097701967E+03  0.10171712708E+04  0.91466606398E+02 0.  0.
         23    2    4    4    0    0 -0.21952143023E+03 -0.15338340231E+03 -0.75247172086E+03  0.80408753370E+03  0.92881347582E+02 0.  0.
          2    1    3    3  502    0  0.43938682168E+03 -0.38949112274E+03 -0.11165900961E+04  0.12615615547E+04  0.00000000000E+00 0. -1.
         -1    1    3    3    0  502  0.16924038981E+03 -0.17385036415E+03 -0.37466300113E+03  0.44636153853E+03  0.00000000000E+00 0.  1.
         11    1    5    5    0    0 -0.25830745507E+03  0.55432029086E+03 -0.43142710003E+03  0.74841370167E+03  0.00000000000E+00 0.  1.
        -11    1    5    5    0    0 -0.13079832620E+03  0.16240459834E+03 -0.16954991963E+03  0.26875756910E+03  0.00000000000E+00 0. -1.
          1    1    6    6  503    0  0.75269551242E+01  0.13204230516E+01 -0.34667473592E+02  0.35499750643E+02  0.00000000000E+00 0. -1.
         -1    1    6    6    0  503 -0.22704838535E+03 -0.15470382536E+03 -0.71780424727E+03  0.76858778306E+03  0.00000000000E+00 0.  1.
<mgrwt>
<rscale>  0 0.20887308E+04</rscale>
<asrwt>0</asrwt>
<pdfrwt beam="1">  1        2 0.49029876E+00 0.20887308E+04</pdfrwt>
<pdfrwt beam="2">  1       -1 0.52652311E-01 0.20887308E+04</pdfrwt>
<totfact> 0.50604863E+00</totfact>
</mgrwt>
</event>
<event>
12    6  0.1569942E-007  0.1617960E+04  0.7818608E-02  0.8809590E-01
          2   -1    0    0  501    0  0.00000000000E+00  0.00000000000E+00  0.11540057023E+04  0.11540057023E+04  0.00000000000E+00 0. -1.
         -1   -1    0    0    0  501 -0.00000000000E+00 -0.00000000000E+00 -0.56711049648E+03  0.56711049648E+03  0.00000000000E+00 0.  1.
         24    2    1    2    0    0 -0.34467705798E+03  0.75735652782E+02  0.53864865485E+03  0.64897725264E+03  0.80566355718E+02 0.  0.
        254    2    1    2    0    0  0.34467705798E+03 -0.75735652782E+02  0.48246550964E+02  0.10721389461E+04  0.10112447907E+04 0.  0.
         23    2    4    4    0    0  0.40091175834E+02  0.37221732308E+03  0.28069742844E+03  0.47599221056E+03  0.87318384072E+02 0.  0.
         23    2    4    4    0    0  0.30458588214E+03 -0.44795297587E+03 -0.23245087748E+03  0.59614673557E+03  0.89011750397E+02 0.  0.
          4    1    3    3  502    0 -0.31926417687E+03  0.69553761277E+02  0.44715266654E+03  0.55381661905E+03  0.00000000000E+00 0. -1.
         -3    1    3    3    0  502 -0.25412881105E+02  0.61818915045E+01  0.91495988303E+02  0.95160633584E+02  0.00000000000E+00 0.  1.
         11    1    5    5    0    0  0.12321951384E+02  0.67553459173E+02  0.13877799100E+02  0.70056360453E+02  0.00000000000E+00 0. -1.
        -11    1    5    5    0    0  0.27769224450E+02  0.30466386391E+03  0.26681962934E+03  0.40593585011E+03  0.00000000000E+00 0.  1.
          3    1    6    6  503    0  0.16162008726E+03 -0.31128729255E+03 -0.13715632111E+03  0.37660680760E+03  0.00000000000E+00 0. -1.
         -3    1    6    6    0  503  0.14296579489E+03 -0.13666568332E+03 -0.95294556366E+02  0.21953992798E+03  0.00000000000E+00 0.  1.
<mgrwt>
<rscale>  0 0.16179601E+04</rscale>
<asrwt>0</asrwt>
<pdfrwt beam="1">  1        2 0.17753934E+00 0.16179601E+04</pdfrwt>
<pdfrwt beam="2">  1       -1 0.87247769E-01 0.16179601E+04</pdfrwt>
<totfact> 0.28519976E+01</totfact>
</mgrwt>
</event>
<event>
12    6  0.1569942E-007  0.1355285E+04  0.7818608E-02  0.8986837E-01
         -1   -1    0    0    0  501 -0.00000000000E+00  0.00000000000E+00  0.16220088831E+03  0.16220088831E+03  0.00000000000E+00 0.  1.
          2   -1    0    0  501    0  0.00000000000E+00 -0.00000000000E+00 -0.28310519725E+04  0.28310519725E+04  0.00000000000E+00 0. -1.
         24    2    1    2    0    0 -0.12104081810E+03  0.25732477882E+03 -0.21864489104E+03  0.36768608012E+03  0.80749883562E+02 0.  0.
        254    2    1    2    0    0  0.12104081810E+03 -0.25732477882E+03 -0.24502061931E+04  0.26255667807E+04  0.89956856853E+03 0.  0.
         23    2    4    4    0    0  0.38287816237E+03 -0.10504240310E+03 -0.21594791581E+04  0.21975942937E+04  0.91874108592E+02 0.  0.
         23    2    4    4    0    0 -0.26183734427E+03 -0.15228237571E+03 -0.29072703507E+03  0.42797248700E+03  0.83003155952E+02 0.  0.
          4    1    3    3  502    0 -0.47847873097E+02  0.35621021674E+02 -0.64838447545E+02  0.88103918329E+02  0.00000000000E+00 0. -1.
         -3    1    3    3    0  502 -0.73192945001E+02  0.22170375714E+03 -0.15380644349E+03  0.27958216179E+03  0.00000000000E+00 0.  1.
         11    1    5    5    0    0  0.22081750349E+03 -0.36737333182E+02 -0.14168803843E+04  0.14344546089E+04  0.00000000000E+00 0. -1.
        -11    1    5    5    0    0  0.16206065888E+03 -0.68305069922E+02 -0.74259877376E+03  0.76313968481E+03  0.00000000000E+00 0.  1.
          2    1    6    6  503    0 -0.18872885387E+03 -0.14345986458E+03 -0.19351776697E+03  0.30602032475E+03  0.00000000000E+00 0. -1.
         -2    1    6    6    0  503 -0.73108490402E+02 -0.88225111335E+01 -0.97209268107E+02  0.12195216225E+03  0.00000000000E+00 0.  1.
<mgrwt>
<rscale>  0 0.13552847E+04</rscale>
<asrwt>0</asrwt>
<pdfrwt beam="1">  1        2 0.43554643E+00 0.13552847E+04</pdfrwt>
<pdfrwt beam="2">  1       -1 0.24953984E-01 0.13552847E+04</pdfrwt>
<totfact> 0.34868596E+01</totfact>
</mgrwt>
</event>
<event>
12    6  0.1569942E-007  0.1223243E+04  0.7818608E-02  0.9092752E-01
         -1   -1    0    0    0  501 -0.00000000000E+00  0.00000000000E+00  0.20506901309E+03  0.20506901309E+03  0.00000000000E+00 0.  1.
          2   -1    0    0  501    0  0.00000000000E+00 -0.00000000000E+00 -0.18241692372E+04  0.18241692372E+04  0.00000000000E+00 0. -1.
         24    2    1    2    0    0 -0.21384331857E+03 -0.23545889850E+02 -0.63007793366E+03  0.67130052798E+03  0.85806891104E+02 0.  0.
        254    2    1    2    0    0  0.21384331857E+03  0.23545889850E+02 -0.98902229043E+03  0.13579377223E+04  0.90528801651E+03 0.  0.
         23    2    4    4    0    0  0.52045266728E+03 -0.12779154716E+03 -0.41247201854E+03  0.68153839881E+03  0.84615392022E+02 0.  0.
         23    2    4    4    0    0 -0.30660934871E+03  0.15133743701E+03 -0.57655027189E+03  0.67639932348E+03  0.90518043696E+02 0.  0.
          4    1    3    3  502    0 -0.15896025500E+03 -0.10756345762E+02 -0.55506310281E+03  0.57747650146E+03  0.00000000000E+00 0. -1.
         -3    1    3    3    0  502 -0.54883063571E+02 -0.12789544088E+02 -0.75014830855E+02  0.93824026524E+02  0.00000000000E+00 0.  1.
         11    1    5    5    0    0  0.28594022288E+03 -0.28930647699E+02 -0.20205530402E+03  0.35131914169E+03  0.00000000000E+00 0. -1.
        -11    1    5    5    0    0  0.23451244440E+03 -0.98860899461E+02 -0.21041671452E+03  0.33021925712E+03  0.00000000000E+00 0.  1.
          2    1    6    6  503    0 -0.27879561264E+03  0.10413806542E+03 -0.46432126483E+03  0.55151243618E+03  0.00000000000E+00 0. -1.
         -2    1    6    6    0  503 -0.27813736075E+02  0.47199371593E+02 -0.11222900706E+03  0.12488688730E+03  0.00000000000E+00 0.  1.
<mgrwt>
<rscale>  0 0.12232426E+04</rscale>
<asrwt>0</asrwt>
<pdfrwt beam="1">  1        2 0.28064142E+00 0.12232426E+04</pdfrwt>
<pdfrwt beam="2">  1       -1 0.31549079E-01 0.12232426E+04</pdfrwt>
<totfact> 0.87703136E+01</totfact>
</mgrwt>
</event>
<event>
12    6  0.1569942E-007  0.3904831E+04  0.7818608E-02  0.8024025E-01
         -1   -1    0    0    0  501 -0.00000000000E+00  0.00000000000E+00  0.16266306470E+04  0.16266306470E+04  0.00000000000E+00 0.  1.
          2   -1    0    0  501    0  0.00000000000E+00 -0.00000000000E+00 -0.23434490855E+04  0.23434490855E+04  0.00000000000E+00 0. -1.
         24    2    1    2    0    0  0.72146108835E+03  0.27531295324E+03  0.13644092556E+04  0.15699627006E+04  0.82867002210E+02 0.  0.
        254    2    1    2    0    0 -0.72146108835E+03 -0.27531295324E+03 -0.20812276941E+04  0.24001170320E+04  0.91255121954E+03 0.  0.
         23    2    4    4    0    0 -0.75774837365E+03 -0.36889459948E+02 -0.19796626792E+04  0.21221640785E+04  0.94723927759E+02 0.  0.
         23    2    4    4    0    0  0.36287285296E+02 -0.23842349329E+03 -0.10156501489E+03  0.27795295350E+03  0.93700922544E+02 0.  0.
          4    1    3    3  502    0  0.27313554038E+03  0.14111772925E+03  0.49828578872E+03  0.58549634001E+03  0.00000000000E+00 0. -1.
         -3    1    3    3    0  502  0.44832554798E+03  0.13419522398E+03  0.86612346691E+03  0.98446636054E+03  0.00000000000E+00 0.  1.
         11    1    5    5    0    0 -0.35762539579E+03 -0.53900423935E+02 -0.85604384251E+03  0.92930739786E+03  0.00000000000E+00 0. -1.
        -11    1    5    5    0    0 -0.40012297786E+03  0.17010963987E+02 -0.11236188367E+04  0.11928566806E+04  0.00000000000E+00 0.  1.
          1    1    6    6  503    0  0.78170186542E+01 -0.29394837449E+01 -0.28586379928E+02  0.29781327417E+02  0.00000000000E+00 0. -1.
         -1    1    6    6    0  503  0.28470266642E+02 -0.23548400954E+03 -0.72978634961E+02  0.24817162609E+03  0.00000000000E+00 0.  1.
<mgrwt>
<rscale>  0 0.39048309E+04</rscale>
<asrwt>0</asrwt>
<pdfrwt beam="1">  1        2 0.36053063E+00 0.39048309E+04</pdfrwt>
<pdfrwt beam="2">  1       -1 0.25025087E+00 0.39048309E+04</pdfrwt>
<totfact> 0.26885260E-01</totfact>
</mgrwt>
</event>
<event>
12    6  0.1569942E-007  0.4331612E+04  0.7818608E-02  0.7940799E-01
          2   -1    0    0  501    0  0.00000000000E+00  0.00000000000E+00  0.24379567897E+04  0.24379567897E+04  0.00000000000E+00 0. -1.
         -1   -1    0    0    0  501 -0.00000000000E+00 -0.00000000000E+00 -0.19240353483E+04  0.19240353483E+04  0.00000000000E+00 0.  1.
         24    2    1    2    0    0 -0.17751631207E+04 -0.83351165140E+03 -0.42823199262E+03  0.20089930930E+04  0.82005061168E+02 0.  0.
        254    2    1    2    0    0  0.17751631207E+04  0.83351165140E+03  0.94215343402E+03  0.23529990450E+04  0.89610581637E+03 0.  0.
         23    2    4    4    0    0  0.94929115494E+03  0.43914555630E+03  0.97503541333E+03  0.14325474758E+04  0.86577692175E+02 0.  0.
         23    2    4    4    0    0  0.82587196577E+03  0.39436609510E+03 -0.32881979314E+02  0.92045156912E+03  0.92524297996E+02 0.  0.
          2    1    3    3  502    0 -0.13815784196E+03 -0.76980394730E+02 -0.14829227001E+02  0.15885048454E+03  0.00000000000E+00 0. -1.
         -1    1    3    3    0  502 -0.16370052788E+04 -0.75653125667E+03 -0.41340276562E+03  0.18501426085E+04  0.00000000000E+00 0.  1.
         11    1    5    5    0    0  0.33796765383E+03  0.18903989043E+03  0.32063183399E+03  0.50275539597E+03  0.00000000000E+00 0.  1.
        -11    1    5    5    0    0  0.61132350111E+03  0.25010566587E+03  0.65440357934E+03  0.92979207986E+03  0.00000000000E+00 0. -1.
          2    1    6    6  503    0  0.70508253597E+03  0.29950335883E+03 -0.19881707715E+02  0.76631516153E+03  0.00000000000E+00 0. -1.
         -2    1    6    6    0  503  0.12078942980E+03  0.94862736274E+02 -0.13000271599E+02  0.15413640760E+03  0.00000000000E+00 0.  1.
<mgrwt>
<rscale>  0 0.43316117E+04</rscale>
<asrwt>0</asrwt>
<pdfrwt beam="1">  1        2 0.37507028E+00 0.43316117E+04</pdfrwt>
<pdfrwt beam="2">  1       -1 0.29600544E+00 0.43316117E+04</pdfrwt>
<totfact> 0.11574593E-01</totfact>
</mgrwt>
</event>
<event>
12    6  0.1569942E-007  0.1520225E+04  0.7818608E-02  0.8871114E-01
          2   -1    0    0  501    0  0.00000000000E+00  0.00000000000E+00  0.10625347900E+04  0.10625347900E+04  0.00000000000E+00 0. -1.
         -1   -1    0    0    0  501 -0.00000000000E+00 -0.00000000000E+00 -0.54376703270E+03  0.54376703270E+03  0.00000000000E+00 0.  1.
         24    2    1    2    0    0 -0.12707913279E+03 -0.31290298204E+03 -0.20847440577E+03  0.40384908807E+03  0.74666765815E+02 0.  0.
        254    2    1    2    0    0  0.12707913279E+03  0.31290298204E+03  0.72724216307E+03  0.12024527346E+04  0.89607702410E+03 0.  0.
         23    2    4    4    0    0 -0.16766920060E+03 -0.11155245600E+03  0.63171388117E+03  0.66922441164E+03  0.90785319308E+02 0.  0.
         23    2    4    4    0    0  0.29474833339E+03  0.42445543803E+03  0.95528281895E+02  0.53322832299E+03  0.90375842394E+02 0.  0.
          4    1    3    3  502    0 -0.54618610376E+02 -0.68325349434E+02 -0.29793028099E+02  0.92407632250E+02  0.00000000000E+00 0. -1.
         -3    1    3    3    0  502 -0.72460522412E+02 -0.24457763260E+03 -0.17868137767E+03  0.31144145582E+03  0.00000000000E+00 0.  1.
         11    1    5    5    0    0 -0.15320417169E+03 -0.84777685580E+02  0.41561040742E+03  0.45098867497E+03  0.00000000000E+00 0.  1.
        -11    1    5    5    0    0 -0.14465028907E+02 -0.26774770417E+02  0.21610347375E+03  0.21823573667E+03  0.00000000000E+00 0. -1.
          3    1    6    6  503    0  0.45037948045E+02  0.25249403334E+02 -0.45680318312E+01  0.51834506341E+02  0.00000000000E+00 0.  1.
         -3    1    6    6    0  503  0.24971038534E+03  0.39920603470E+03  0.10009631373E+03  0.48139381665E+03  0.00000000000E+00 0. -1.
<mgrwt>
<rscale>  0 0.15202255E+04</rscale>
<asrwt>0</asrwt>
<pdfrwt beam="1">  1        2 0.16346689E+00 0.15202255E+04</pdfrwt>
<pdfrwt beam="2">  1       -1 0.83656467E-01 0.15202255E+04</pdfrwt>
<totfact> 0.35857733E+01</totfact>
</mgrwt>
</event>
<event>
12    6  0.1569942E-007  0.1170043E+04  0.7818608E-02  0.9139489E-01
          2   -1    0    0  501    0  0.00000000000E+00  0.00000000000E+00  0.64945245552E+03  0.64945245552E+03  0.00000000000E+00 0. -1.
         -1   -1    0    0    0  501 -0.00000000000E+00 -0.00000000000E+00 -0.52698305011E+03  0.52698305011E+03  0.00000000000E+00 0.  1.
         24    2    1    2    0    0 -0.18451768687E+03  0.78421587345E+02 -0.88103258779E+02  0.23305355179E+03  0.79718577918E+02 0.  0.
        254    2    1    2    0    0  0.18451768687E+03 -0.78421587345E+02  0.21057266419E+03  0.94338195383E+03  0.89745860171E+03 0.  0.
         23    2    4    4    0    0  0.92080834941E+02  0.22595113858E+03 -0.25957752963E+03  0.36797741612E+03  0.92163375037E+02 0.  0.
         23    2    4    4    0    0  0.92436851932E+02 -0.30437272593E+03  0.47015019382E+03  0.57540453771E+03  0.94137396284E+02 0.  0.
          4    1    3    3  502    0 -0.13449700031E+03  0.52858038103E+02 -0.21788423987E+02  0.14614428044E+03  0.00000000000E+00 0. -1.
         -3    1    3    3    0  502 -0.50020686562E+02  0.25563549242E+02 -0.66314834793E+02  0.86909271356E+02  0.00000000000E+00 0.  1.
         11    1    5    5    0    0 -0.79507365362E+01 -0.34748366671E+00 -0.27927166807E+02  0.29038966962E+02  0.00000000000E+00 0.  1.
        -11    1    5    5    0    0  0.10003157148E+03  0.22629862225E+03 -0.23165036282E+03  0.33893844916E+03  0.00000000000E+00 0. -1.
          3    1    6    6  503    0  0.25838283283E+02 -0.11211378189E+03  0.97427219775E+02  0.15076199828E+03  0.00000000000E+00 0.  1.
         -3    1    6    6    0  503  0.66598568649E+02 -0.19225894404E+03  0.37272297405E+03  0.42464253943E+03  0.00000000000E+00 0. -1.
<mgrwt>
<rscale>  0 0.11700435E+04</rscale>
<asrwt>0</asrwt>
<pdfrwt beam="1">  1        2 0.99915762E-01 0.11700435E+04</pdfrwt>
<pdfrwt beam="2">  1       -1 0.81074316E-01 0.11700435E+04</pdfrwt>
<totfact> 0.77114067E+01</totfact>
</mgrwt>
</event>
<event>
12    6  0.1844240E-007  0.1981650E+04  0.7818608E-02  0.8615248E-01
         -1   -1    0    0    0  501 -0.00000000000E+00  0.00000000000E+00  0.76823190967E+03  0.76823190967E+03  0.00000000000E+00 0.  1.
          2   -1    0    0  501    0  0.00000000000E+00 -0.00000000000E+00 -0.12779138109E+04  0.12779138109E+04  0.00000000000E+00 0. -1.
         24    2    1    2    0    0  0.12373439806E+03  0.68883820419E+03 -0.53174782781E+03  0.88240573469E+03  0.77947773605E+02 0.  0.
        254    2    1    2    0    0 -0.12373439806E+03 -0.68883820419E+03  0.22065926550E+02  0.11637399859E+04  0.92951362384E+03 0.  0.
         23    2    4    4    0    0 -0.13378116721E+03  0.20361527393E+03  0.52360526525E+02  0.26604764822E+03  0.93183399301E+02 0.  0.
         23    2    4    4    0    0  0.10046769145E+02 -0.89245347813E+03 -0.30294599975E+02  0.89769233771E+03  0.91430969589E+02 0.  0.
          4    1    3    3  502    0  0.10755023728E+03  0.58496434121E+03 -0.41465106266E+03  0.72504195588E+03  0.00000000000E+00 0. -1.
         -3    1    3    3    0  502  0.16184160785E+02  0.10387386299E+03 -0.11709676515E+03  0.15736377881E+03  0.00000000000E+00 0.  1.
         11    1    5    5    0    0 -0.14155416576E+03  0.18424546787E+03  0.65480444211E+02  0.24139524197E+03  0.00000000000E+00 0.  1.
        -11    1    5    5    0    0  0.77729985511E+01  0.19369806064E+02 -0.13119917686E+02  0.24652406242E+02  0.00000000000E+00 0. -1.
          1    1    6    6  503    0  0.18093830017E+01 -0.43942828698E+02  0.18561232170E+02  0.47736415874E+02  0.00000000000E+00 0. -1.
         -1    1    6    6    0  503  0.82373861431E+01 -0.84851064943E+03 -0.48855832145E+02  0.84995592183E+03  0.00000000000E+00 0.  1.
<mgrwt>
<rscale>  0 0.19816500E+04</rscale>
<asrwt>0</asrwt>
<pdfrwt beam="1">  1        2 0.19660212E+00 0.19816500E+04</pdfrwt>
<pdfrwt beam="2">  1       -1 0.11818953E+00 0.19816500E+04</pdfrwt>
<totfact> 0.11607642E+01</totfact>
</mgrwt>
</event>
<event>
12    6  0.1569942E-007  0.2270132E+04  0.7818608E-02  0.8489792E-01
          2   -1    0    0  501    0  0.00000000000E+00  0.00000000000E+00  0.66196150670E+03  0.66196150670E+03  0.00000000000E+00 0. -1.
         -1   -1    0    0    0  501 -0.00000000000E+00 -0.00000000000E+00 -0.19462987834E+04  0.19462987834E+04  0.00000000000E+00 0.  1.
         24    2    1    2    0    0 -0.88237245888E+02  0.45189352579E+03 -0.15082443311E+04  0.15789795522E+04  0.79886757301E+02 0.  0.
        254    2    1    2    0    0  0.88237245888E+02 -0.45189352579E+03  0.22390705433E+03  0.10292807379E+04  0.89291147277E+03 0.  0.
         23    2    4    4    0    0 -0.18103833041E+01 -0.68790813775E+03  0.29108791475E+03  0.75236511805E+03  0.90001184810E+02 0.  0.
         23    2    4    4    0    0  0.90047629192E+02  0.23601461196E+03 -0.67180860411E+02  0.27691561984E+03  0.91419472350E+02 0.  0.
          2    1    3    3  502    0 -0.60434995702E+02  0.36029398602E+03 -0.10782326092E+04  0.11384417880E+04  0.00000000000E+00 0. -1.
         -1    1    3    3    0  502 -0.27802250185E+02  0.91599539766E+02 -0.43001172188E+03  0.44053776428E+03  0.00000000000E+00 0.  1.
         11    1    5    5    0    0 -0.40307713697E+01 -0.15300567629E+02  0.23824957523E+02  0.28600403644E+02  0.00000000000E+00 0.  1.
        -11    1    5    5    0    0  0.22203880657E+01 -0.67260757012E+03  0.26726295722E+03  0.72376471440E+03  0.00000000000E+00 0. -1.
          1    1    6    6  503    0  0.48256341085E+02  0.11205245646E+03  0.14239490346E+02  0.12282992526E+03  0.00000000000E+00 0. -1.
         -1    1    6    6    0  503  0.41791288107E+02  0.12396215551E+03 -0.81420350757E+02  0.15408569459E+03  0.00000000000E+00 0.  1.
<mgrwt>
<rscale>  0 0.22701320E+04</rscale>
<asrwt>0</asrwt>
<pdfrwt beam="1">  1        2 0.10184023E+00 0.22701320E+04</pdfrwt>
<pdfrwt beam="2">  1       -1 0.29943058E+00 0.22701320E+04</pdfrwt>
<totfact> 0.15188890E+00</totfact>
</mgrwt>
</event>
<event>
12    6  0.1569942E-007  0.1913386E+04  0.7818608E-02  0.8648222E-01
         -1   -1    0    0    0  501 -0.00000000000E+00  0.00000000000E+00  0.47273837641E+03  0.47273837641E+03  0.00000000000E+00 0.  1.
          2   -1    0    0  501    0  0.00000000000E+00 -0.00000000000E+00 -0.19360848117E+04  0.19360848117E+04  0.00000000000E+00 0. -1.
         24    2    1    2    0    0 -0.12171887789E+03 -0.27840298579E+02 -0.15081100529E+04  0.15156735414E+04  0.85321654662E+02 0.  0.
        254    2    1    2    0    0  0.12171887789E+03  0.27840298579E+02  0.44763617668E+02  0.89314964673E+03  0.88324512029E+03 0.  0.
         23    2    4    4    0    0  0.72377513222E+02 -0.40725791878E+03 -0.72928017550E+02  0.43006207908E+03  0.92397939846E+02 0.  0.
         23    2    4    4    0    0  0.49341364668E+02  0.43509821736E+03  0.11769163522E+03  0.46308756765E+03  0.94094342531E+02 0.  0.
          2    1    3    3  502    0 -0.93227173706E+02 -0.49280080503E+02 -0.13205870689E+04  0.13247905641E+04  0.00000000000E+00 0. -1.
         -1    1    3    3    0  502 -0.28491704184E+02  0.21439781924E+02 -0.18752298405E+03  0.19088297725E+03  0.00000000000E+00 0.  1.
         11    1    5    5    0    0 -0.14964704636E+02 -0.10224262691E+03 -0.41061479327E+02  0.11119146652E+03  0.00000000000E+00 0.  1.
        -11    1    5    5    0    0  0.87342217858E+02 -0.30501529187E+03 -0.31866538223E+02  0.31887061256E+03  0.00000000000E+00 0. -1.
          1    1    6    6  503    0  0.53230609658E+02  0.10491630029E+03  0.33289188054E+02  0.12226650364E+03  0.00000000000E+00 0.  1.
         -1    1    6    6    0  503 -0.38892449898E+01  0.33018191707E+03  0.84402447164E+02  0.34082106401E+03  0.00000000000E+00 0. -1.
<mgrwt>
<rscale>  0 0.19133861E+04</rscale>
<asrwt>0</asrwt>
<pdfrwt beam="1">  1        2 0.29785920E+00 0.19133861E+04</pdfrwt>
<pdfrwt beam="2">  1       -1 0.72728982E-01 0.19133861E+04</pdfrwt>
<totfact> 0.14725673E+01</totfact>
</mgrwt>
</event>
<event>
12    6  0.1569942E-007  0.3440930E+04  0.7818608E-02  0.8127933E-01
          2   -1    0    0  501    0  0.00000000000E+00  0.00000000000E+00  0.13080523999E+04  0.13080523999E+04  0.00000000000E+00 0. -1.
         -1   -1    0    0    0  501 -0.00000000000E+00 -0.00000000000E+00 -0.22629061805E+04  0.22629061805E+04  0.00000000000E+00 0.  1.
         24    2    1    2    0    0  0.14228159299E+04 -0.46700267013E+03 -0.10371248666E+04  0.18233778392E+04  0.81130090102E+02 0.  0.
        254    2    1    2    0    0 -0.14228159299E+04  0.46700267013E+03  0.82271086086E+02  0.17475807412E+04  0.89709155117E+03 0.  0.
         23    2    4    4    0    0 -0.12993593921E+04  0.68545492089E+03  0.15791655165E+02  0.14719466348E+04  0.90522046876E+02 0.  0.
         23    2    4    4    0    0 -0.12345653777E+03 -0.21845225076E+03  0.66479430921E+02  0.27563410637E+03  0.92691657020E+02 0.  0.
          2    1    3    3  502    0  0.13427556803E+04 -0.43953834541E+03 -0.10000238719E+04  0.17309634654E+04  0.00000000000E+00 0. -1.
         -1    1    3    3    0  502  0.80060249506E+02 -0.27464324722E+02 -0.37100994742E+02  0.92414373851E+02  0.00000000000E+00 0.  1.
         11    1    5    5    0    0 -0.95516571301E+03  0.45988514763E+03  0.22999422512E+02  0.10603607225E+04  0.00000000000E+00 0.  1.
        -11    1    5    5    0    0 -0.34419367908E+03  0.22556977325E+03 -0.72077673477E+01  0.41158591233E+03  0.00000000000E+00 0. -1.
          3    1    6    6  503    0 -0.97777171482E+02 -0.96561640791E+02  0.70086162975E+01  0.13759958735E+03  0.00000000000E+00 0. -1.
         -3    1    6    6    0  503 -0.25679366286E+02 -0.12189060997E+03  0.59470814624E+02  0.13803451903E+03  0.00000000000E+00 0.  1.
<mgrwt>
<rscale>  0 0.34409300E+04</rscale>
<asrwt>0</asrwt>
<pdfrwt beam="1">  1        2 0.20123883E+00 0.34409300E+04</pdfrwt>
<pdfrwt beam="2">  1       -1 0.34813941E+00 0.34409300E+04</pdfrwt>
<totfact> 0.24573375E-01</totfact>
</mgrwt>
</event>
<event>
12    6  0.1569942E-007  0.1872465E+04  0.7818608E-02  0.8668685E-01
          2   -1    0    0  501    0  0.00000000000E+00  0.00000000000E+00  0.16357192492E+04  0.16357192492E+04  0.00000000000E+00 0. -1.
         -3   -1    0    0    0  501 -0.00000000000E+00 -0.00000000000E+00 -0.53586898933E+03  0.53586898933E+03  0.00000000000E+00 0.  1.
         24    2    1    2    0    0 -0.53731392828E+03 -0.38883045874E+03  0.80805480872E+03  0.10485125109E+04  0.80811684515E+02 0.  0.
        254    2    1    2    0    0  0.53731392828E+03  0.38883045874E+03  0.29179545111E+03  0.11230757276E+04  0.85805543035E+03 0.  0.
         23    2    4    4    0    0  0.32821556091E+03  0.20773843838E+03 -0.27585146248E+03  0.48482119576E+03  0.89871292976E+02 0.  0.
         23    2    4    4    0    0  0.20909836737E+03  0.18109202037E+03  0.56764691358E+03  0.63825453188E+03  0.92894466387E+02 0.  0.
          2    1    3    3  502    0 -0.45963281271E+03 -0.33060771788E+03  0.64053859794E+03  0.85489969066E+03  0.00000000000E+00 0. -1.
         -1    1    3    3    0  502 -0.77681115576E+02 -0.58222740861E+02  0.16751621077E+03  0.19361282019E+03  0.00000000000E+00 0.  1.
         11    1    5    5    0    0 -0.31823787882E+01 -0.32766248195E+01 -0.83648577054E+01  0.95307213469E+01  0.00000000000E+00 0. -1.
        -11    1    5    5    0    0  0.33139793970E+03  0.21101506320E+03 -0.26748660477E+03  0.47529047441E+03  0.00000000000E+00 0.  1.
          1    1    6    6  503    0  0.18238569428E+03  0.10486119256E+03  0.39067928015E+03  0.44372368781E+03  0.00000000000E+00 0. -1.
         -1    1    6    6    0  503  0.26712673087E+02  0.76230827805E+02  0.17696763343E+03  0.19453084407E+03  0.00000000000E+00 0.  1.
<mgrwt>
<rscale>  0 0.18724649E+04</rscale>
<asrwt>0</asrwt>
<pdfrwt beam="1">  1        2 0.25164911E+00 0.18724649E+04</pdfrwt>
<pdfrwt beam="2">  1       -3 0.82441384E-01 0.18724649E+04</pdfrwt>
<totfact> 0.86703011E+00</totfact>
</mgrwt>
</event>
<event>
12    6  0.1569942E-007  0.2215218E+04  0.7818608E-02  0.8512121E-01
         -1   -1    0    0    0  501 -0.00000000000E+00  0.00000000000E+00  0.49851038797E+03  0.49851038797E+03  0.00000000000E+00 0.  1.
          2   -1    0    0  501    0  0.00000000000E+00 -0.00000000000E+00 -0.24609270060E+04  0.24609270060E+04  0.00000000000E+00 0. -1.
         24    2    1    2    0    0 -0.13665785062E+03  0.46692110573E+03  0.24120641927E+03  0.55161814672E+03  0.97012143495E+02 0.  0.
        254    2    1    2    0    0  0.13665785062E+03 -0.46692110573E+03 -0.22036230373E+04  0.24078192472E+04  0.83961202339E+03 0.  0.
         23    2    4    4    0    0  0.45931918055E+03 -0.25010624044E+03 -0.15845815185E+04  0.16713442443E+04  0.94687660959E+02 0.  0.
         23    2    4    4    0    0 -0.32266132993E+03 -0.21681486529E+03 -0.61904151884E+03  0.73647500297E+03  0.89799823536E+02 0.  0.
          2    1    3    3  502    0 -0.74183246077E+02  0.28419177521E+03  0.92669352615E+02  0.30798657115E+03  0.00000000000E+00 0. -1.
         -1    1    3    3    0  502 -0.62474604541E+02  0.18272933052E+03  0.14853706666E+03  0.24363157557E+03  0.00000000000E+00 0.  1.
         11    1    5    5    0    0  0.19143188452E+03 -0.15223460505E+03 -0.66514249690E+03  0.70868616649E+03  0.00000000000E+00 0. -1.
        -11    1    5    5    0    0  0.26788729603E+03 -0.97871635383E+02 -0.91943902155E+03  0.96265807779E+03  0.00000000000E+00 0.  1.
          4    1    6    6  503    0 -0.76636806607E+02 -0.11488606153E+02 -0.10049082868E+03  0.12689994030E+03  0.00000000000E+00 0. -1.
         -4    1    6    6    0  503 -0.24602452332E+03 -0.20532625914E+03 -0.51855069016E+03  0.60957506267E+03  0.00000000000E+00 0.  1.
<mgrwt>
<rscale>  0 0.22152180E+04</rscale>
<asrwt>0</asrwt>
<pdfrwt beam="1">  1        2 0.37860415E+00 0.22152180E+04</pdfrwt>
<pdfrwt beam="2">  1       -1 0.76693906E-01 0.22152180E+04</pdfrwt>
<totfact> 0.64990974E+00</totfact>
</mgrwt>
</event>
<event>
12    6  0.1569942E-007  0.1842662E+04  0.7818608E-02  0.8683936E-01
          2   -1    0    0  501    0  0.00000000000E+00  0.00000000000E+00  0.49448690840E+03  0.49448690840E+03  0.00000000000E+00 0. -1.
         -1   -1    0    0    0  501 -0.00000000000E+00 -0.00000000000E+00 -0.17166292801E+04  0.17166292801E+04  0.00000000000E+00 0.  1.
         24    2    1    2    0    0 -0.28774421558E+03 -0.64281721532E+03 -0.43742265453E+03  0.83287794621E+03  0.79601436375E+02 0.  0.
        254    2    1    2    0    0  0.28774421558E+03  0.64281721532E+03 -0.78471971717E+03  0.13782382423E+04  0.88754994907E+03 0.  0.
         23    2    4    4    0    0  0.42833420055E+03  0.79167380472E+03 -0.62694228582E+03  0.11006263287E+04  0.90022692556E+02 0.  0.
         23    2    4    4    0    0 -0.14058998497E+03 -0.14885658940E+03 -0.15777743135E+03  0.27761191362E+03  0.10124637603E+03 0.  0.
          4    1    3    3  502    0 -0.12819949942E+03 -0.27814822162E+03 -0.23677716827E+03  0.38712397530E+03  0.00000000000E+00 0. -1.
         -3    1    3    3    0  502 -0.15954471616E+03 -0.36466899369E+03 -0.20064548627E+03  0.44575397090E+03  0.00000000000E+00 0.  1.
         11    1    5    5    0    0  0.32464142577E+03  0.51786116881E+03 -0.44274923093E+03  0.75471791219E+03  0.00000000000E+00 0. -1.
        -11    1    5    5    0    0  0.10369277478E+03  0.27381263590E+03 -0.18419305489E+03  0.34590841648E+03  0.00000000000E+00 0.  1.
          4    1    6    6  503    0 -0.12612313271E+03 -0.63479766983E+02 -0.10767055888E+03  0.17756597273E+03  0.00000000000E+00 0. -1.
         -4    1    6    6    0  503 -0.14466852256E+02 -0.85376822416E+02 -0.50106872465E+02  0.10004594089E+03  0.00000000000E+00 0.  1.
<mgrwt>
<rscale>  0 0.18426619E+04</rscale>
<asrwt>0</asrwt>
<pdfrwt beam="1">  1        2 0.76074910E-01 0.18426619E+04</pdfrwt>
<pdfrwt beam="2">  1       -1 0.26409681E+00 0.18426619E+04</pdfrwt>
<totfact> 0.37858966E+00</totfact>
</mgrwt>
</event>
<event>
12    6  0.1569942E-007  0.2040413E+04  0.7818608E-02  0.8587956E-01
          2   -1    0    0  501    0  0.00000000000E+00  0.00000000000E+00  0.91086432618E+03  0.91086432618E+03  0.00000000000E+00 0. -1.
         -1   -1    0    0    0  501 -0.00000000000E+00 -0.00000000000E+00 -0.11426745371E+04  0.11426745371E+04  0.00000000000E+00 0.  1.
         24    2    1    2    0    0 -0.72733513314E+03  0.53420975609E+02  0.28181188350E+03  0.78596854110E+03  0.80364254457E+02 0.  0.
        254    2    1    2    0    0  0.72733513314E+03 -0.53420975609E+02 -0.51362209437E+03  0.12675703221E+04  0.90058684712E+03 0.  0.
         23    2    4    4    0    0  0.38056510987E+02  0.30712560366E+03 -0.33542648990E+03  0.46446645057E+03  0.86276990718E+02 0.  0.
         23    2    4    4    0    0  0.68927862215E+03 -0.36054657927E+03 -0.17819560447E+03  0.80310387156E+03  0.90129353137E+02 0.  0.
          2    1    3    3  502    0 -0.37562900279E+03  0.11315854122E+02  0.18438639936E+03  0.41859711008E+03  0.00000000000E+00 0. -1.
         -1    1    3    3    0  502 -0.35170613034E+03  0.42105121487E+02  0.97425484134E+02  0.36737143103E+03  0.00000000000E+00 0.  1.
         11    1    5    5    0    0  0.46345298789E+02  0.80857255035E+02 -0.77084213518E+02  0.12094527021E+03  0.00000000000E+00 0. -1.
        -11    1    5    5    0    0 -0.82887878024E+01  0.22626834862E+03 -0.25834227638E+03  0.34352118036E+03  0.00000000000E+00 0.  1.
          3    1    6    6  503    0  0.24648398577E+03 -0.17648443525E+03 -0.81641180075E+02  0.31395285221E+03  0.00000000000E+00 0. -1.
         -3    1    6    6    0  503  0.44279463638E+03 -0.18406214402E+03 -0.96554424390E+02  0.48915101935E+03  0.00000000000E+00 0.  1.
<mgrwt>
<rscale>  0 0.20404132E+04</rscale>
<asrwt>0</asrwt>
<pdfrwt beam="1">  1        2 0.14013297E+00 0.20404132E+04</pdfrwt>
<pdfrwt beam="2">  1       -1 0.17579608E+00 0.20404132E+04</pdfrwt>
<totfact> 0.67980790E+00</totfact>
</mgrwt>
</event>
<event>
12    6  0.1569942E-007  0.1732456E+04  0.7818608E-02  0.8743067E-01
          2   -1    0    0  501    0  0.00000000000E+00  0.00000000000E+00  0.24354547186E+04  0.24354547186E+04  0.00000000000E+00 0. -1.
         -1   -1    0    0    0  501 -0.00000000000E+00 -0.00000000000E+00 -0.30809495749E+03  0.30809495749E+03  0.00000000000E+00 0.  1.
         24    2    1    2    0    0 -0.59491233076E+03  0.12364219811E+03  0.10473840541E+04  0.12133987155E+04  0.78198539151E+02 0.  0.
        254    2    1    2    0    0  0.59491233076E+03 -0.12364219811E+03  0.10799757070E+04  0.15301509606E+04  0.89766717667E+03 0.  0.
         23    2    4    4    0    0  0.14360930513E+02 -0.35441592103E+03  0.70820944068E+03  0.79733293273E+03  0.91445679734E+02 0.  0.
         23    2    4    4    0    0  0.58055140024E+03  0.23077372291E+03  0.37176626633E+03  0.73281802788E+03  0.92280364596E+02 0.  0.
          4    1    3    3  502    0 -0.11184404688E+03  0.68152243947E+00  0.23534991729E+03  0.26057463204E+03  0.00000000000E+00 0. -1.
         -3    1    3    3    0  502 -0.48306828388E+03  0.12296067567E+03  0.81203413677E+03  0.95282408341E+03  0.00000000000E+00 0.  1.
         11    1    5    5    0    0  0.90089514609E+01  0.23806443325E+01  0.14692948591E+02  0.17398603742E+02  0.00000000000E+00 0. -1.
        -11    1    5    5    0    0  0.53519790518E+01 -0.35679656536E+03  0.69351649209E+03  0.77993432899E+03  0.00000000000E+00 0.  1.
          1    1    6    6  503    0  0.19440346598E+03  0.83080672024E+02  0.76709413296E+02  0.22489873219E+03  0.00000000000E+00 0. -1.
         -1    1    6    6    0  503  0.38614793426E+03  0.14769305089E+03  0.29505685304E+03  0.50791929569E+03  0.00000000000E+00 0.  1.
<mgrwt>
<rscale>  0 0.17324564E+04</rscale>
<asrwt>0</asrwt>
<pdfrwt beam="1">  1        2 0.37468533E+00 0.17324564E+04</pdfrwt>
<pdfrwt beam="2">  1       -1 0.47399226E-01 0.17324564E+04</pdfrwt>
<totfact> 0.18232991E+01</totfact>
</mgrwt>
</event>
<event>
12    6  0.1569942E-007  0.1876066E+04  0.7818608E-02  0.8666862E-01
          2   -1    0    0  501    0  0.00000000000E+00  0.00000000000E+00  0.65973416850E+03  0.65973416850E+03  0.00000000000E+00 0. -1.
         -1   -1    0    0    0  501 -0.00000000000E+00 -0.00000000000E+00 -0.13337284905E+04  0.13337284905E+04  0.00000000000E+00 0.  1.
         24    2    1    2    0    0  0.61146863109E+03  0.28185681248E+03 -0.53048060493E+03  0.86053142297E+03  0.75944112082E+02 0.  0.
        254    2    1    2    0    0 -0.61146863109E+03 -0.28185681248E+03 -0.14351371704E+03  0.11329312360E+04  0.89977766643E+03 0.  0.
         23    2    4    4    0    0 -0.33638530920E+03 -0.89347419503E+02  0.36783237965E+03  0.51454013414E+03  0.91174845809E+02 0.  0.
         23    2    4    4    0    0 -0.27508332189E+03 -0.19250939298E+03 -0.51134609669E+03  0.61839110187E+03  0.90565025854E+02 0.  0.
          4    1    3    3  502    0  0.92754287484E+02  0.36982032172E+02 -0.11473080146E+03  0.15209926152E+03  0.00000000000E+00 0. -1.
         -3    1    3    3    0  502  0.51871434360E+03  0.24487478031E+03 -0.41574980347E+03  0.70843216145E+03  0.00000000000E+00 0.  1.
         11    1    5    5    0    0 -0.95189121435E+02 -0.62690008783E+02  0.86989632324E+02  0.14338131738E+03  0.00000000000E+00 0. -1.
        -11    1    5    5    0    0 -0.24119618776E+03 -0.26657410720E+02  0.28084274732E+03  0.37115881676E+03  0.00000000000E+00 0.  1.
          2    1    6    6  503    0 -0.36319822703E+02 -0.11883949845E+01 -0.95003156613E+02  0.10171598483E+03  0.00000000000E+00 0. -1.
         -2    1    6    6    0  503 -0.23876349919E+03 -0.19132099799E+03 -0.41634294008E+03  0.51667511704E+03  0.00000000000E+00 0.  1.
<mgrwt>
<rscale>  0 0.18760664E+04</rscale>
<asrwt>0</asrwt>
<pdfrwt beam="1">  1        2 0.10149757E+00 0.18760664E+04</pdfrwt>
<pdfrwt beam="2">  1       -1 0.20518899E+00 0.18760664E+04</pdfrwt>
<totfact> 0.65560708E+00</totfact>
</mgrwt>
</event>
<event>
12    6  0.1569942E-007  0.1912475E+04  0.7818608E-02  0.8648672E-01
         -1   -1    0    0    0  501 -0.00000000000E+00  0.00000000000E+00  0.16317559990E+04  0.16317559990E+04  0.00000000000E+00 0.  1.
          2   -1    0    0  501    0  0.00000000000E+00 -0.00000000000E+00 -0.56037176322E+03  0.56037176322E+03  0.00000000000E+00 0. -1.
         24    2    1    2    0    0 -0.73568805346E+03 -0.79283730388E+02  0.44775395419E+03  0.86891763102E+03  0.83734246860E+02 0.  0.
        254    2    1    2    0    0  0.73568805346E+03  0.79283730388E+02  0.62363028154E+03  0.13232101311E+04  0.90246745161E+03 0.  0.
         23    2    4    4    0    0  0.21350258206E+02 -0.32721761176E+03  0.16153275754E+03  0.37669122082E+03  0.90973870512E+02 0.  0.
         23    2    4    4    0    0  0.71433779525E+03  0.40650134215E+03  0.46209752400E+03  0.94651891032E+03  0.82716981417E+02 0.  0.
          2    1    3    3  502    0 -0.33722095211E+03 -0.87400609277E+01  0.16708025836E+03  0.37644411530E+03  0.00000000000E+00 0. -1.
         -1    1    3    3    0  502 -0.39846710135E+03 -0.70543669460E+02  0.28067369583E+03  0.49247351573E+03  0.00000000000E+00 0.  1.
         11    1    5    5    0    0  0.19407126927E+01 -0.10312310870E+03  0.61843262939E+01  0.10332660745E+03  0.00000000000E+00 0. -1.
        -11    1    5    5    0    0  0.19409545513E+02 -0.22409450306E+03  0.15534843124E+03  0.27336461338E+03  0.00000000000E+00 0.  1.
          3    1    6    6  503    0  0.19359134174E+03  0.12943632904E+03  0.16977135590E+03  0.28819036097E+03  0.00000000000E+00 0. -1.
         -3    1    6    6    0  503  0.52074645351E+03  0.27706501311E+03  0.29232616810E+03  0.65832854935E+03  0.00000000000E+00 0.  1.
<mgrwt>
<rscale>  0 0.19124748E+04</rscale>
<asrwt>0</asrwt>
<pdfrwt beam="1">  1        2 0.86211041E-01 0.19124748E+04</pdfrwt>
<pdfrwt beam="2">  1       -1 0.25103938E+00 0.19124748E+04</pdfrwt>
<totfact> 0.39497374E+00</totfact>
</mgrwt>
</event>
<event>
12    6  0.1569942E-007  0.2912784E+04  0.7818608E-02  0.8269084E-01
         -1   -1    0    0    0  501 -0.00000000000E+00  0.00000000000E+00  0.13666947832E+04  0.13666947832E+04  0.00000000000E+00 0.  1.
          2   -1    0    0  501    0  0.00000000000E+00 -0.00000000000E+00 -0.15519766063E+04  0.15519766063E+04  0.00000000000E+00 0. -1.
         24    2    1    2    0    0 -0.17613250930E+03  0.85735581113E+03 -0.10737751721E+04  0.13874873730E+04  0.77758872966E+02 0.  0.
        254    2    1    2    0    0  0.17613250930E+03 -0.85735581113E+03  0.88849334899E+03  0.15311840165E+04  0.88826933611E+03 0.  0.
         23    2    4    4    0    0  0.63970793509E+02 -0.99864275657E+03  0.86830795677E+03  0.13278133879E+04  0.88034468646E+02 0.  0.
         23    2    4    4    0    0  0.11216171579E+03  0.14128694544E+03  0.20185392214E+02  0.20337062858E+03  0.91705567269E+02 0.  0.
          2    1    3    3  502    0 -0.89347186260E+02  0.57444776080E+03 -0.74846650969E+03  0.94772109067E+03  0.00000000000E+00 0. -1.
         -1    1    3    3    0  502 -0.86785323038E+02  0.28290805033E+03 -0.32530866236E+03  0.43976628230E+03  0.00000000000E+00 0.  1.
         11    1    5    5    0    0  0.53434093993E+02 -0.73130692381E+03  0.68548832117E+03  0.10037725129E+04  0.00000000000E+00 0. -1.
        -11    1    5    5    0    0  0.10536699516E+02 -0.26733583276E+03  0.18281963560E+03  0.32404087500E+03  0.00000000000E+00 0.  1.
          1    1    6    6  503    0  0.88429809843E+02  0.14841528745E+03  0.22426584117E+01  0.17277719275E+03  0.00000000000E+00 0. -1.
         -1    1    6    6    0  503  0.23731905947E+02 -0.71283420056E+01  0.17942733803E+02  0.30593435831E+02  0.00000000000E+00 0.  1.
<mgrwt>
<rscale>  0 0.29127845E+04</rscale>
<asrwt>0</asrwt>
<pdfrwt beam="1">  1        2 0.23876563E+00 0.29127845E+04</pdfrwt>
<pdfrwt beam="2">  1       -1 0.21026074E+00 0.29127845E+04</pdfrwt>
<totfact> 0.14914023E+00</totfact>
</mgrwt>
</event>
<event>
12    6  0.1569942E-007  0.1242880E+04  0.7818608E-02  0.9076130E-01
          2   -1    0    0  501    0  0.00000000000E+00  0.00000000000E+00  0.13533349622E+04  0.13533349622E+04  0.00000000000E+00 0. -1.
         -1   -1    0    0    0  501 -0.00000000000E+00 -0.00000000000E+00 -0.28536004058E+03  0.28536004058E+03  0.00000000000E+00 0.  1.
         24    2    1    2    0    0 -0.23549728763E+03 -0.12065737221E+03  0.39274301807E+03  0.48025741862E+03  0.79893278492E+02 0.  0.
        254    2    1    2    0    0  0.23549728763E+03  0.12065737221E+03  0.67523190358E+03  0.11584375842E+04  0.90333954794E+03 0.  0.
         23    2    4    4    0    0 -0.25584729565E+03  0.89803863400E+02  0.58397230542E+03  0.65001701433E+03  0.89307854296E+02 0.  0.
         23    2    4    4    0    0  0.49134458328E+03  0.30853508806E+02  0.91259598156E+02  0.50842056985E+03  0.88270737319E+02 0.  0.
          4    1    3    3  502    0 -0.20967988852E+03 -0.11170395260E+03  0.29503110344E+03  0.37879648979E+03  0.00000000000E+00 0. -1.
         -3    1    3    3    0  502 -0.25817399107E+02 -0.89534196026E+01  0.97711914622E+02  0.10146092883E+03  0.00000000000E+00 0.  1.
         11    1    5    5    0    0 -0.17547786321E+03  0.15733418062E+02  0.36134873520E+03  0.40201110601E+03  0.00000000000E+00 0.  1.
        -11    1    5    5    0    0 -0.80369432441E+02  0.74070445337E+02  0.22262357022E+03  0.24800590832E+03  0.00000000000E+00 0. -1.
          1    1    6    6  503    0  0.29473918641E+03 -0.24693405504E+02  0.58707466640E+02  0.30154190243E+03  0.00000000000E+00 0. -1.
         -1    1    6    6    0  503  0.19660539687E+03  0.55546914310E+02  0.32552131516E+02  0.20687866742E+03  0.00000000000E+00 0.  1.
<mgrwt>
<rscale>  0 0.12428801E+04</rscale>
<asrwt>0</asrwt>
<pdfrwt beam="1">  1        2 0.20820537E+00 0.12428801E+04</pdfrwt>
<pdfrwt beam="2">  1       -1 0.43901546E-01 0.12428801E+04</pdfrwt>
<totfact> 0.88495017E+01</totfact>
</mgrwt>
</event>
<event>
12    6  0.1569942E-007  0.1234044E+04  0.7818608E-02  0.9083569E-01
          2   -1    0    0  501    0  0.00000000000E+00  0.00000000000E+00  0.14490775224E+04  0.14490775224E+04  0.00000000000E+00 0. -1.
         -1   -1    0    0    0  501 -0.00000000000E+00 -0.00000000000E+00 -0.26272990505E+03  0.26272990505E+03  0.00000000000E+00 0.  1.
         24    2    1    2    0    0 -0.75198913524E+01  0.28537001715E+03  0.17658898995E+03  0.34543954077E+03  0.81561078316E+02 0.  0.
        254    2    1    2    0    0  0.75198913524E+01 -0.28537001715E+03  0.10097586274E+04  0.13663678866E+04  0.87513205899E+03 0.  0.
         23    2    4    4    0    0 -0.28755703368E+03 -0.39091942668E+03  0.28027652951E+03  0.56747617516E+03  0.89259344679E+02 0.  0.
         23    2    4    4    0    0  0.29507692503E+03  0.10554940952E+03  0.72948209784E+03  0.79889171148E+03  0.88728609050E+02 0.  0.
          2    1    3    3  502    0 -0.28477107776E+02  0.23252663034E+03  0.11283505160E+03  0.26002178439E+03  0.00000000000E+00 0. -1.
         -1    1    3    3    0  502  0.20957216423E+02  0.52843386814E+02  0.63753938350E+02  0.85417756382E+02  0.00000000000E+00 0.  1.
         11    1    5    5    0    0 -0.87339160523E+02 -0.19235612361E+03  0.11222527625E+03  0.23921438058E+03  0.00000000000E+00 0. -1.
        -11    1    5    5    0    0 -0.20021787315E+03 -0.19856330307E+03  0.16805125326E+03  0.32826179458E+03  0.00000000000E+00 0.  1.
          1    1    6    6  503    0  0.12596338606E+03  0.91891173857E+02  0.36027031592E+03  0.39256268671E+03  0.00000000000E+00 0. -1.
         -1    1    6    6    0  503  0.16911353896E+03  0.13658235666E+02  0.36921178192E+03  0.40632902477E+03  0.00000000000E+00 0.  1.
<mgrwt>
<rscale>  0 0.12340438E+04</rscale>
<asrwt>0</asrwt>
<pdfrwt beam="1">  1        2 0.22293500E+00 0.12340438E+04</pdfrwt>
<pdfrwt beam="2">  1       -1 0.40419986E-01 0.12340438E+04</pdfrwt>
<totfact> 0.90904878E+01</totfact>
</mgrwt>
</event>
<event>
12    6  0.1569942E-007  0.1405700E+04  0.7818608E-02  0.8949703E-01
         -1   -1    0    0    0  501 -0.00000000000E+00  0.00000000000E+00  0.47472480453E+03  0.47472480453E+03  0.00000000000E+00 0.  1.
          2   -1    0    0  501    0  0.00000000000E+00 -0.00000000000E+00 -0.10405989346E+04  0.10405989346E+04  0.00000000000E+00 0. -1.
         24    2    1    2    0    0 -0.37837743913E+03 -0.80977989500E+02 -0.29300738681E+03  0.49285346956E+03  0.85582080533E+02 0.  0.
        254    2    1    2    0    0  0.37837743913E+03  0.80977989500E+02 -0.27286674326E+03  0.10224702696E+04  0.90623521857E+03 0.  0.
         23    2    4    4    0    0 -0.92832837066E+02  0.18728756750E+03 -0.44617060205E+03  0.50124750554E+03  0.92121045891E+02 0.  0.
         23    2    4    4    0    0  0.47121027619E+03 -0.10630957800E+03  0.17330385879E+03  0.52122276404E+03  0.91093861043E+02 0.  0.
          2    1    3    3  502    0 -0.23188026467E+03 -0.41095139378E+02 -0.22770271391E+03  0.32757563027E+03  0.00000000000E+00 0. -1.
         -1    1    3    3    0  502 -0.14649717446E+03 -0.39882850122E+02 -0.65304672897E+02  0.16527783929E+03  0.00000000000E+00 0.  1.
         11    1    5    5    0    0 -0.70480997183E+02  0.44272978780E+02 -0.17823269203E+03  0.19670932901E+03  0.00000000000E+00 0. -1.
        -11    1    5    5    0    0 -0.22351839883E+02  0.14301458872E+03 -0.26793791003E+03  0.30453817653E+03  0.00000000000E+00 0.  1.
          4    1    6    6  503    0  0.57229083482E+02 -0.41157189545E+02  0.88980335734E+01  0.71051089005E+02  0.00000000000E+00 0. -1.
         -4    1    6    6    0  503  0.41398119271E+03 -0.65152388453E+02  0.16440582522E+03  0.45017167504E+03  0.00000000000E+00 0.  1.
<mgrwt>
<rscale>  0 0.14057000E+04</rscale>
<asrwt>0</asrwt>
<pdfrwt beam="1">  1        2 0.16009214E+00 0.14057000E+04</pdfrwt>
<pdfrwt beam="2">  1       -1 0.73034586E-01 0.14057000E+04</pdfrwt>
<totfact> 0.49780641E+01</totfact>
</mgrwt>
</event>
<event>
12    6  0.1569942E-007  0.1847187E+04  0.7818608E-02  0.8681601E-01
          2   -1    0    0  501    0  0.00000000000E+00  0.00000000000E+00  0.68710331991E+03  0.68710331991E+03  0.00000000000E+00 0. -1.
         -1   -1    0    0    0  501 -0.00000000000E+00 -0.00000000000E+00 -0.12414792956E+04  0.12414792956E+04  0.00000000000E+00 0.  1.
         24    2    1    2    0    0  0.83262761176E+02  0.64171947331E+03  0.54947647588E+02  0.65416433768E+03  0.78582230152E+02 0.  0.
        254    2    1    2    0    0 -0.83262761176E+02 -0.64171947331E+03 -0.60932362329E+03  0.12744182778E+04  0.91330723153E+03 0.  0.
         23    2    4    4    0    0 -0.27378272105E+03 -0.49499971645E+03 -0.77876453593E+03  0.96665860026E+03  0.89291373639E+02 0.  0.
         23    2    4    4    0    0  0.19051995988E+03 -0.14671975686E+03  0.16944091264E+03  0.30775967757E+03  0.90450285231E+02 0.  0.
          2    1    3    3  502    0  0.12809967836E+02  0.18540920851E+03  0.49844006311E+02  0.19241906049E+03  0.00000000000E+00 0. -1.
         -3    1    3    3    0  502  0.70452793340E+02  0.45631026480E+03  0.51036412768E+01  0.46174527719E+03  0.00000000000E+00 0.  1.
         11    1    5    5    0    0  0.33362640533E+01 -0.27243084498E+02 -0.23968033881E+02  0.36438756276E+02  0.00000000000E+00 0.  1.
        -11    1    5    5    0    0 -0.27711898510E+03 -0.46775663195E+03 -0.75479650205E+03  0.93021984399E+03  0.00000000000E+00 0. -1.
          4    1    6    6  503    0  0.55163947960E+01  0.56838511897E+01  0.28760722689E+02  0.29831458990E+02  0.00000000000E+00 0.  1.
         -4    1    6    6    0  503  0.18500356508E+03 -0.15240360805E+03  0.14068018995E+03  0.27792821858E+03  0.00000000000E+00 0. -1.
<mgrwt>
<rscale>  0 0.18471866E+04</rscale>
<asrwt>0</asrwt>
<pdfrwt beam="1">  1        2 0.10570820E+00 0.18471866E+04</pdfrwt>
<pdfrwt beam="2">  1       -1 0.19099681E+00 0.18471866E+04</pdfrwt>
<totfact> 0.78317719E+00</totfact>
</mgrwt>
</event>
<event>
12    6  0.1569942E-007  0.2667239E+04  0.7818608E-02  0.8345714E-01
         -1   -1    0    0    0  501 -0.00000000000E+00  0.00000000000E+00  0.83842187740E+03  0.83842187740E+03  0.00000000000E+00 0.  1.
          2   -1    0    0  501    0  0.00000000000E+00 -0.00000000000E+00 -0.21212960198E+04  0.21212960198E+04  0.00000000000E+00 0. -1.
         24    2    1    2    0    0  0.98506899867E+03  0.12613156490E+03 -0.12793529975E+04  0.16215864567E+04  0.80798766728E+02 0.  0.
        254    2    1    2    0    0 -0.98506899867E+03 -0.12613156490E+03 -0.35211449451E+01  0.13381314405E+04  0.89683512966E+03 0.  0.
         23    2    4    4    0    0 -0.60555432777E+03  0.33813194977E+03  0.14116956037E+03  0.71361972558E+03  0.91076937986E+02 0.  0.
         23    2    4    4    0    0 -0.37951467090E+03 -0.46426351468E+03 -0.14469070532E+03  0.62451171492E+03  0.97506335047E+02 0.  0.
          2    1    3    3  502    0  0.72411222039E+03  0.86018498888E+02 -0.99449674151E+03  0.12331915742E+04  0.00000000000E+00 0. -1.
         -1    1    3    3    0  502  0.26095677828E+03  0.40113066015E+02 -0.28485625599E+03  0.38839488252E+03  0.00000000000E+00 0.  1.
         11    1    5    5    0    0 -0.46411770954E+03  0.30115167723E+03  0.10769646831E+03  0.56364537636E+03  0.00000000000E+00 0. -1.
        -11    1    5    5    0    0 -0.14143661823E+03  0.36980272544E+02  0.33473092056E+02  0.14997434922E+03  0.00000000000E+00 0.  1.
          3    1    6    6  503    0 -0.32736645543E+03 -0.41310309506E+03 -0.15798893919E+03  0.55025763801E+03  0.00000000000E+00 0. -1.
         -3    1    6    6    0  503 -0.52148215471E+02 -0.51160419620E+02  0.13298233875E+02  0.74254076903E+02  0.00000000000E+00 0.  1.
<mgrwt>
<rscale>  0 0.26672390E+04</rscale>
<asrwt>0</asrwt>
<pdfrwt beam="1">  1        2 0.32635323E+00 0.26672390E+04</pdfrwt>
<pdfrwt beam="2">  1       -1 0.12898798E+00 0.26672390E+04</pdfrwt>
<totfact> 0.29586277E+00</totfact>
</mgrwt>
</event>
<event>
12    6  0.1569942E-007  0.1064115E+04  0.7818608E-02  0.9240891E-01
         -1   -1    0    0    0  501 -0.00000000000E+00  0.00000000000E+00  0.14753731153E+04  0.14753731153E+04  0.00000000000E+00 0.  1.
          2   -1    0    0  501    0  0.00000000000E+00 -0.00000000000E+00 -0.19187366284E+03  0.19187366284E+03  0.00000000000E+00 0. -1.
         24    2    1    2    0    0  0.13304813301E+03 -0.85275507030E+02  0.24806115985E+03  0.30477581751E+03  0.79876417746E+02 0.  0.
        254    2    1    2    0    0 -0.13304813301E+03  0.85275507030E+02  0.10354382926E+04  0.13624709606E+04  0.87133285428E+03 0.  0.
         23    2    4    4    0    0  0.30909263918E+03 -0.17037937850E+03  0.42033002155E+03  0.55632252991E+03  0.90829720118E+02 0.  0.
         23    2    4    4    0    0 -0.44214077219E+03  0.25565488553E+03  0.61510827103E+03  0.80614843070E+03  0.10329193723E+03 0.  0.
          4    1    3    3  502    0 -0.21624138019E+01  0.85802581802E+01  0.31777918582E+02  0.32986860616E+02  0.00000000000E+00 0. -1.
         -3    1    3    3    0  502  0.13521054681E+03 -0.93855765210E+02  0.21628324127E+03  0.27178895689E+03  0.00000000000E+00 0.  1.
         11    1    5    5    0    0  0.14915622284E+03 -0.77568511934E+02  0.13181021129E+03  0.21363142244E+03  0.00000000000E+00 0.  1.
        -11    1    5    5    0    0  0.15993641634E+03 -0.92810866561E+02  0.28851981026E+03  0.34269110746E+03  0.00000000000E+00 0. -1.
          1    1    6    6  503    0 -0.33830731805E+02  0.23325319328E+02  0.14366642783E+02  0.43531475521E+02  0.00000000000E+00 0. -1.
         -1    1    6    6    0  503 -0.40831004039E+03  0.23232956620E+03  0.60074162825E+03  0.76261695517E+03  0.00000000000E+00 0.  1.
<mgrwt>
<rscale>  0 0.10641151E+04</rscale>
<asrwt>0</asrwt>
<pdfrwt beam="1">  1        2 0.29519026E-01 0.10641151E+04</pdfrwt>
<pdfrwt beam="2">  1       -1 0.22698047E+00 0.10641151E+04</pdfrwt>
<totfact> 0.20534882E+01</totfact>
</mgrwt>
</event>
<event>
12    6  0.1569942E-007  0.3743178E+04  0.7818608E-02  0.8058460E-01
         -1   -1    0    0    0  501 -0.00000000000E+00  0.00000000000E+00  0.20089211042E+04  0.20089211042E+04  0.00000000000E+00 0.  1.
          2   -1    0    0  501    0  0.00000000000E+00 -0.00000000000E+00 -0.17436446846E+04  0.17436446846E+04  0.00000000000E+00 0. -1.
         24    2    1    2    0    0 -0.98042775551E+03 -0.12734919898E+04 -0.61200011081E+03  0.17216325228E+04  0.80336641693E+02 0.  0.
        254    2    1    2    0    0  0.98042775551E+03  0.12734919898E+04  0.87727653035E+03  0.20309332660E+04  0.87866682444E+03 0.  0.
         23    2    4    4    0    0  0.92814848118E+03  0.13474620759E+04  0.63703777912E+03  0.17582224801E+04  0.91736079057E+02 0.  0.
         23    2    4    4    0    0  0.52279274333E+02 -0.73970086107E+02  0.24023875123E+03  0.27271078595E+03  0.91933775159E+02 0.  0.
          4    1    3    3  502    0 -0.54816893510E+03 -0.74127779947E+03 -0.31291066314E+03  0.97359901422E+03  0.00000000000E+00 0. -1.
         -3    1    3    3    0  502 -0.43225882041E+03 -0.53221419036E+03 -0.29908944767E+03  0.74803350857E+03  0.00000000000E+00 0.  1.
         11    1    5    5    0    0  0.65429793258E+03  0.87366907467E+03  0.42560862683E+03  0.11715571432E+04  0.00000000000E+00 0.  1.
        -11    1    5    5    0    0  0.27385054859E+03  0.47379300126E+03  0.21142915229E+03  0.58666533684E+03  0.00000000000E+00 0. -1.
          1    1    6    6  503    0  0.63935361612E+02 -0.56968735480E+02  0.23680553900E+03  0.25181348373E+03  0.00000000000E+00 0. -1.
         -1    1    6    6    0  503 -0.11656087279E+02 -0.17001350627E+02  0.34332122333E+01  0.20897302219E+02  0.00000000000E+00 0.  1.
<mgrwt>
<rscale>  0 0.37431776E+04</rscale>
<asrwt>0</asrwt>
<pdfrwt beam="1">  1        2 0.26825303E+00 0.37431776E+04</pdfrwt>
<pdfrwt beam="2">  1       -1 0.30906479E+00 0.37431776E+04</pdfrwt>
<totfact> 0.24515842E-01</totfact>
</mgrwt>
</event>
<event>
12    6  0.1569942E-007  0.1741294E+04  0.7818608E-02  0.8738157E-01
          2   -1    0    0  501    0  0.00000000000E+00  0.00000000000E+00  0.20343579529E+04  0.20343579529E+04  0.00000000000E+00 0. -1.
         -1   -1    0    0    0  501 -0.00000000000E+00 -0.00000000000E+00 -0.37261217070E+03  0.37261217070E+03  0.00000000000E+00 0.  1.
         24    2    1    2    0    0  0.42651555579E+03  0.14373047442E+03  0.12294406054E+04  0.13119496552E+04  0.84342913042E+02 0.  0.
        254    2    1    2    0    0 -0.42651555579E+03 -0.14373047442E+03  0.43230517675E+03  0.10950204683E+04  0.89978224678E+03 0.  0.
         23    2    4    4    0    0 -0.49291988610E+03 -0.21160638711E+03  0.64554450917E+03  0.84423995439E+03  0.90918150535E+02 0.  0.
         23    2    4    4    0    0  0.66404330305E+02  0.67875912688E+02 -0.21323933241E+03  0.25078051395E+03  0.91668853393E+02 0.  0.
          2    1    3    3  502    0  0.42549642506E+03  0.13294723416E+03  0.12124124222E+04  0.12917685769E+04  0.00000000000E+00 0. -1.
         -1    1    3    3    0  502  0.10191307304E+01  0.10783240265E+02  0.17028183277E+02  0.20181078360E+02  0.00000000000E+00 0.  1.
         11    1    5    5    0    0 -0.90860770180E+02 -0.79856192787E+02  0.14139206847E+03  0.18607635022E+03  0.00000000000E+00 0.  1.
        -11    1    5    5    0    0 -0.40205911592E+03 -0.13175019432E+03  0.50415244070E+03  0.65816360417E+03  0.00000000000E+00 0. -1.
          2    1    6    6  503    0 -0.94921644561E+01  0.78122273093E+01 -0.10443735321E+03  0.10515841777E+03  0.00000000000E+00 0. -1.
         -2    1    6    6    0  503  0.75896494762E+02  0.60063685379E+02 -0.10880197920E+03  0.14562209618E+03  0.00000000000E+00 0.  1.
<mgrwt>
<rscale>  0 0.17412944E+04</rscale>
<asrwt>0</asrwt>
<pdfrwt beam="1">  1        2 0.31297814E+00 0.17412944E+04</pdfrwt>
<pdfrwt beam="2">  1       -1 0.57324950E-01 0.17412944E+04</pdfrwt>
<totfact> 0.21284166E+01</totfact>
</mgrwt>
</event>
<event>
12    6  0.1569942E-007  0.3784453E+04  0.7818608E-02  0.8049500E-01
          2   -1    0    0  501    0  0.00000000000E+00  0.00000000000E+00  0.33105723193E+04  0.33105723193E+04  0.00000000000E+00 0. -1.
         -1   -1    0    0    0  501 -0.00000000000E+00 -0.00000000000E+00 -0.10815413361E+04  0.10815413361E+04  0.00000000000E+00 0.  1.
         24    2    1    2    0    0  0.11582511948E+04  0.13421141059E+04  0.80390010628E+03  0.19481965430E+04  0.79989284774E+02 0.  0.
        254    2    1    2    0    0 -0.11582511948E+04 -0.13421141059E+04  0.14251308769E+04  0.24439171125E+04  0.89382142115E+03 0.  0.
         23    2    4    4    0    0 -0.10191939370E+04 -0.11595412197E+04  0.73727488964E+03  0.17132221291E+04  0.90904782286E+02 0.  0.
         23    2    4    4    0    0 -0.13905725785E+03 -0.18257288615E+03  0.68785598727E+03  0.73069498337E+03  0.89997332068E+02 0.  0.
          4    1    3    3  502    0  0.27459174376E+03  0.35783300560E+03  0.23015754502E+03  0.50637691611E+03  0.00000000000E+00 0. -1.
         -3    1    3    3    0  502  0.88365945105E+03  0.98428110026E+03  0.57374256126E+03  0.14418196268E+04  0.00000000000E+00 0.  1.
         11    1    5    5    0    0 -0.32252413106E+03 -0.39304932539E+03  0.28642256363E+03  0.58356445425E+03  0.00000000000E+00 0. -1.
        -11    1    5    5    0    0 -0.69666980590E+03 -0.76649189432E+03  0.45085232601E+03  0.11296576749E+04  0.00000000000E+00 0.  1.
          4    1    6    6  503    0 -0.10149282215E+03 -0.59090991537E+02  0.32963239716E+03  0.34992864342E+03  0.00000000000E+00 0. -1.
         -4    1    6    6    0  503 -0.37564435706E+02 -0.12348189462E+03  0.35822359010E+03  0.38076633995E+03  0.00000000000E+00 0.  1.
<mgrwt>
<rscale>  0 0.37844528E+04</rscale>
<asrwt>0</asrwt>
<pdfrwt beam="1">  1        2 0.50931882E+00 0.37844528E+04</pdfrwt>
<pdfrwt beam="2">  1       -1 0.16639098E+00 0.37844528E+04</pdfrwt>
<totfact> 0.26098930E-01</totfact>
</mgrwt>
</event>
<event>
12    6  0.1569942E-007  0.2130571E+04  0.7818608E-02  0.8547895E-01
         -1   -1    0    0    0  501 -0.00000000000E+00  0.00000000000E+00  0.40854997881E+03  0.40854997881E+03  0.00000000000E+00 0.  1.
          2   -1    0    0  501    0  0.00000000000E+00 -0.00000000000E+00 -0.27777108573E+04  0.27777108573E+04  0.00000000000E+00 0. -1.
         24    2    1    2    0    0 -0.49712271480E+03 -0.30659233097E+03 -0.39697573954E+01  0.58961019484E+03  0.80588906809E+02 0.  0.
        254    2    1    2    0    0  0.49712271480E+03  0.30659233097E+03 -0.23651911211E+04  0.25966506413E+04  0.89851859334E+03 0.  0.
         23    2    4    4    0    0  0.30860094618E+03 -0.26916167383E+03 -0.63672975971E+03  0.76265626542E+03  0.92397195034E+02 0.  0.
         23    2    4    4    0    0  0.18852176862E+03  0.57575400480E+03 -0.17284613614E+04  0.18339943759E+04  0.94464604959E+02 0.  0.
          4    1    3    3  502    0 -0.59898102313E+02 -0.61055702144E+02  0.19063851068E+02  0.87629971143E+02  0.00000000000E+00 0. -1.
         -3    1    3    3    0  502 -0.43722461249E+03 -0.24553662883E+03 -0.23033608464E+02  0.50198022369E+03  0.00000000000E+00 0.  1.
         11    1    5    5    0    0  0.54747810338E+02 -0.10204857159E+03 -0.17009330398E+03  0.20577406484E+03  0.00000000000E+00 0. -1.
        -11    1    5    5    0    0  0.25385313584E+03 -0.16711310224E+03 -0.46663645572E+03  0.55688220058E+03  0.00000000000E+00 0.  1.
          2    1    6    6  503    0  0.15681071749E+03  0.39021437866E+03 -0.10880868666E+04  0.11665289931E+04  0.00000000000E+00 0. -1.
         -2    1    6    6    0  503  0.31711051135E+02  0.18553962614E+03 -0.64037449485E+03  0.66746538284E+03  0.00000000000E+00 0.  1.
<mgrwt>
<rscale>  0 0.21305715E+04</rscale>
<asrwt>0</asrwt>
<pdfrwt beam="1">  1        2 0.42734014E+00 0.21305715E+04</pdfrwt>
<pdfrwt beam="2">  1       -1 0.62853842E-01 0.21305715E+04</pdfrwt>
<totfact> 0.64120098E+00</totfact>
</mgrwt>
</event>
<event>
12    6  0.2400205E-007  0.1417551E+04  0.7818608E-02  0.8941211E-01
         -1   -1    0    0    0  501 -0.00000000000E+00  0.00000000000E+00  0.20997333948E+03  0.20997333948E+03  0.00000000000E+00 0.  1.
          2   -1    0    0  501    0  0.00000000000E+00 -0.00000000000E+00 -0.23925075857E+04  0.23925075857E+04  0.00000000000E+00 0. -1.
         24    2    1    2    0    0 -0.39887172757E+03  0.41399021704E+01 -0.45410143445E+03  0.61357055963E+03  0.10556952703E+03 0.  0.
        254    2    1    2    0    0  0.39887172757E+03 -0.41399021704E+01 -0.17284328117E+04  0.19889103655E+04  0.89953802782E+03 0.  0.
         23    2    4    4    0    0  0.16973431025E+03  0.43636167565E+03 -0.89013840155E+03  0.10095939284E+04  0.87819578224E+02 0.  0.
         23    2    4    4    0    0  0.22913741731E+03 -0.44050157782E+03 -0.83829441017E+03  0.97931643708E+03  0.98881594503E+02 0.  0.
          4    1    3    3  502    0 -0.57693988652E+02  0.31494510693E+02 -0.11057619106E+03  0.12863745395E+03  0.00000000000E+00 0. -1.
         -3    1    3    3    0  502 -0.34117773891E+03 -0.27354608522E+02 -0.34352524339E+03  0.48493310568E+03  0.00000000000E+00 0.  1.
         11    1    5    5    0    0  0.28772192972E+02  0.33231380322E+02 -0.46305296312E+02  0.63846254339E+02  0.00000000000E+00 0. -1.
        -11    1    5    5    0    0  0.14096211728E+03  0.40313029533E+03 -0.84383310524E+03  0.94574767408E+03  0.00000000000E+00 0.  1.
          1    1    6    6  503    0  0.14697594965E+02  0.61714279905E+00 -0.37112203451E+02  0.39921370317E+02  0.00000000000E+00 0. -1.
         -1    1    6    6    0  503  0.21443982235E+03 -0.44111872062E+03 -0.80118220672E+03  0.93939506677E+03  0.00000000000E+00 0.  1.
<mgrwt>
<rscale>  0 0.14175511E+04</rscale>
<asrwt>0</asrwt>
<pdfrwt beam="1">  1        2 0.36807807E+00 0.14175511E+04</pdfrwt>
<pdfrwt beam="2">  1       -1 0.32303592E-01 0.14175511E+04</pdfrwt>
<totfact> 0.39907344E+01</totfact>
</mgrwt>
</event>
<event>
12    6  0.1569942E-007  0.1148743E+04  0.7818608E-02  0.9158944E-01
          2   -1    0    0  501    0  0.00000000000E+00  0.00000000000E+00  0.19246399168E+04  0.19246399168E+04  0.00000000000E+00 0. -1.
         -1   -1    0    0    0  501 -0.00000000000E+00 -0.00000000000E+00 -0.17141003962E+03  0.17141003962E+03  0.00000000000E+00 0.  1.
         24    2    1    2    0    0  0.88924292072E+01  0.17473133041E+03  0.12891269155E+03  0.23159504455E+03  0.80047919978E+02 0.  0.
        254    2    1    2    0    0 -0.88924292072E+01 -0.17473133041E+03  0.16243171856E+04  0.18644549118E+04  0.89842956635E+03 0.  0.
         23    2    4    4    0    0  0.36220500305E+03 -0.26410407499E+03  0.12093905607E+04  0.12929942436E+04  0.90912919507E+02 0.  0.
         23    2    4    4    0    0 -0.37109743226E+03  0.89372744585E+02  0.41492662489E+03  0.57146066825E+03  0.93286652921E+02 0.  0.
          2    1    3    3  502    0 -0.22990620109E+02  0.56021138222E+02  0.77515953463E+02  0.98364930651E+02  0.00000000000E+00 0. -1.
         -1    1    3    3    0  502  0.31883049316E+02  0.11871019219E+03  0.51396738082E+02  0.13323011389E+03  0.00000000000E+00 0.  1.
         11    1    5    5    0    0  0.20243942568E+03 -0.11787513755E+03  0.73669611092E+03  0.77304426068E+03  0.00000000000E+00 0. -1.
        -11    1    5    5    0    0  0.15976557737E+03 -0.14622893744E+03  0.47269444981E+03  0.51994998292E+03  0.00000000000E+00 0.  1.
          3    1    6    6  503    0 -0.41921205768E+02  0.91676880314E+01  0.10031396470E+03  0.10910694530E+03  0.00000000000E+00 0. -1.
         -3    1    6    6    0  503 -0.32917622649E+03  0.80205056554E+02  0.31461266018E+03  0.46235372295E+03  0.00000000000E+00 0.  1.
<mgrwt>
<rscale>  0 0.11487430E+04</rscale>
<asrwt>0</asrwt>
<pdfrwt beam="1">  1        2 0.29609843E+00 0.11487430E+04</pdfrwt>
<pdfrwt beam="2">  1       -1 0.26370777E-01 0.11487430E+04</pdfrwt>
<totfact> 0.10613462E+02</totfact>
</mgrwt>
</event>
<event>
12    6  0.1569942E-007  0.1742752E+04  0.7818608E-02  0.8737350E-01
          2   -1    0    0  501    0  0.00000000000E+00  0.00000000000E+00  0.98459340735E+03  0.98459340735E+03  0.00000000000E+00 0. -1.
         -1   -1    0    0    0  501 -0.00000000000E+00 -0.00000000000E+00 -0.77117720550E+03  0.77117720550E+03  0.00000000000E+00 0.  1.
         24    2    1    2    0    0  0.43542125196E+03 -0.10242959724E+03  0.53425445600E+03  0.70136443000E+03  0.80004692779E+02 0.  0.
        254    2    1    2    0    0 -0.43542125196E+03  0.10242959724E+03 -0.32083825415E+03  0.10544061829E+04  0.89930624599E+03 0.  0.
         23    2    4    4    0    0  0.83690712496E+02  0.19276833646E+03  0.20283314234E+03  0.30612385803E+03  0.91688417606E+02 0.  0.
         23    2    4    4    0    0 -0.51911196445E+03 -0.90338739215E+02 -0.52367139649E+03  0.74828232483E+03  0.89757376934E+02 0.  0.
          4    1    3    3  502    0  0.39508283873E+03 -0.83227036397E+02  0.51017763722E+03  0.65061387210E+03  0.00000000000E+00 0. -1.
         -3    1    3    3    0  502  0.40338413229E+02 -0.19202560847E+02  0.24076818777E+02  0.50750557901E+02  0.00000000000E+00 0.  1.
         11    1    5    5    0    0 -0.10764417449E+01  0.24905072593E+01 -0.87786638440E+01  0.91883781009E+01  0.00000000000E+00 0. -1.
        -11    1    5    5    0    0  0.84767154241E+02  0.19027782920E+03  0.21161180618E+03  0.29693547993E+03  0.00000000000E+00 0.  1.
          2    1    6    6  503    0 -0.12968443774E+03 -0.41878494170E+02 -0.18593681315E+03  0.23053060567E+03  0.00000000000E+00 0. -1.
         -2    1    6    6    0  503 -0.38942752672E+03 -0.48460245045E+02 -0.33773458334E+03  0.51775171916E+03  0.00000000000E+00 0.  1.
<mgrwt>
<rscale>  0 0.17427518E+04</rscale>
<asrwt>0</asrwt>
<pdfrwt beam="1">  1        2 0.15147591E+00 0.17427518E+04</pdfrwt>
<pdfrwt beam="2">  1       -1 0.11864265E+00 0.17427518E+04</pdfrwt>
<totfact> 0.17754409E+01</totfact>
</mgrwt>
</event>
<event>
12    6  0.1569942E-007  0.1850149E+04  0.7818608E-02  0.8680076E-01
          2   -1    0    0  501    0  0.00000000000E+00  0.00000000000E+00  0.19861147360E+04  0.19861147360E+04  0.00000000000E+00 0. -1.
         -1   -1    0    0    0  501 -0.00000000000E+00 -0.00000000000E+00 -0.43087275365E+03  0.43087275365E+03  0.00000000000E+00 0.  1.
         24    2    1    2    0    0  0.49880013384E+03  0.26681047688E+03  0.62263195481E+02  0.57461158476E+03  0.79450385386E+02 0.  0.
        254    2    1    2    0    0 -0.49880013384E+03 -0.26681047688E+03  0.14929787869E+04  0.18423759049E+04  0.91944217478E+03 0.  0.
         23    2    4    4    0    0 -0.13082560728E+03  0.26161793479E+03  0.13184919327E+03  0.33376553982E+03  0.91956198702E+02 0.  0.
         23    2    4    4    0    0 -0.36797452656E+03 -0.52842841167E+03  0.13611295936E+04  0.15086103651E+04  0.92680227399E+02 0.  0.
          2    1    3    3  502    0  0.10747666618E+01  0.95617360867E+01 -0.40239564992E+01  0.10429484468E+02  0.00000000000E+00 0. -1.
         -1    1    3    3    0  502  0.49772536718E+03  0.25724874079E+03  0.66287151980E+02  0.56418210029E+03  0.00000000000E+00 0.  1.
         11    1    5    5    0    0 -0.11367875361E+03  0.15356764524E+03  0.11518943086E+03  0.22310196249E+03  0.00000000000E+00 0. -1.
        -11    1    5    5    0    0 -0.17146853667E+02  0.10805028955E+03  0.16659762415E+02  0.11066357732E+03  0.00000000000E+00 0.  1.
          4    1    6    6  503    0 -0.18192858062E+03 -0.18391377561E+03  0.51817487073E+03  0.57916101558E+03  0.00000000000E+00 0. -1.
         -4    1    6    6    0  503 -0.18604594595E+03 -0.34451463605E+03  0.84295472287E+03  0.92944934949E+03  0.00000000000E+00 0.  1.
<mgrwt>
<rscale>  0 0.18501489E+04</rscale>
<asrwt>0</asrwt>
<pdfrwt beam="1">  1        2 0.30555611E+00 0.18501489E+04</pdfrwt>
<pdfrwt beam="2">  1       -1 0.66288117E-01 0.18501489E+04</pdfrwt>
<totfact> 0.16794753E+01</totfact>
</mgrwt>
</event>
<event>
12    6  0.1569942E-007  0.2200729E+04  0.7818608E-02  0.8518125E-01
          2   -1    0    0  501    0  0.00000000000E+00  0.00000000000E+00  0.13408490248E+04  0.13408490248E+04  0.00000000000E+00 0. -1.
         -1   -1    0    0    0  501 -0.00000000000E+00 -0.00000000000E+00 -0.90301140175E+03  0.90301140175E+03  0.00000000000E+00 0.  1.
         24    2    1    2    0    0 -0.81308795991E+03 -0.26152432936E+03 -0.10998484883E+03  0.86468816467E+03  0.77986856310E+02 0.  0.
        254    2    1    2    0    0  0.81308795991E+03  0.26152432936E+03  0.54782247190E+03  0.13791722619E+04  0.93407690362E+03 0.  0.
         23    2    4    4    0    0  0.55761009419E+03  0.34290257126E+03  0.77313964288E+03  0.10170864798E+04  0.90602480177E+02 0.  0.
         23    2    4    4    0    0  0.25547786572E+03 -0.81378241903E+02 -0.22531717098E+03  0.36208578213E+03  0.91907170323E+02 0.  0.
          4    1    3    3  502    0 -0.24589070033E+03 -0.95744320115E+02 -0.14597568413E+01  0.26387751370E+03  0.00000000000E+00 0. -1.
         -3    1    3    3    0  502 -0.56719725957E+03 -0.16578000925E+03 -0.10852509199E+03  0.60081065098E+03  0.00000000000E+00 0.  1.
         11    1    5    5    0    0  0.21640478018E+03  0.17929284223E+03  0.36264167924E+03  0.45878746678E+03  0.00000000000E+00 0.  1.
        -11    1    5    5    0    0  0.34120531401E+03  0.16360972904E+03  0.41049796364E+03  0.55829901298E+03  0.00000000000E+00 0. -1.
          1    1    6    6  503    0  0.10736029552E+03 -0.63712922469E+02 -0.14945292416E+03  0.19473506640E+03  0.00000000000E+00 0. -1.
         -1    1    6    6    0  503  0.14811757020E+03 -0.17665319433E+02 -0.75864246814E+02  0.16735071573E+03  0.00000000000E+00 0.  1.
<mgrwt>
<rscale>  0 0.22007289E+04</rscale>
<asrwt>0</asrwt>
<pdfrwt beam="1">  1        2 0.20628447E+00 0.22007289E+04</pdfrwt>
<pdfrwt beam="2">  1       -1 0.13892483E+00 0.22007289E+04</pdfrwt>
<totfact> 0.69730343E+00</totfact>
</mgrwt>
</event>
<event>
12    6  0.1569942E-007  0.3671506E+04  0.7818608E-02  0.8074306E-01
          2   -1    0    0  501    0  0.00000000000E+00  0.00000000000E+00  0.22289402475E+04  0.22289402475E+04  0.00000000000E+00 0. -1.
         -1   -1    0    0    0  501 -0.00000000000E+00 -0.00000000000E+00 -0.15119241886E+04  0.15119241886E+04  0.00000000000E+00 0.  1.
         24    2    1    2    0    0 -0.32613155699E+03 -0.28427711268E+03 -0.13620269132E+04  0.14312193192E+04  0.78077898094E+02 0.  0.
        254    2    1    2    0    0  0.32613155699E+03  0.28427711268E+03  0.20790429722E+04  0.23096451168E+04  0.90822112751E+03 0.  0.
         23    2    4    4    0    0  0.28144262990E+02  0.52202979592E+03  0.71440954444E+03  0.88987402383E+03  0.90485212820E+02 0.  0.
         23    2    4    4    0    0  0.29798729400E+03 -0.23775268325E+03  0.13646334277E+04  0.14197710930E+04  0.90569303504E+02 0.  0.
          2    1    3    3  502    0 -0.23122326852E+03 -0.24434390916E+03 -0.10630474600E+04  0.11150058512E+04  0.00000000000E+00 0. -1.
         -1    1    3    3    0  502 -0.94908288471E+02 -0.39933203516E+02 -0.29897945317E+03  0.31621346806E+03  0.00000000000E+00 0.  1.
         11    1    5    5    0    0  0.14781478570E+02  0.33210287782E+03  0.37851263916E+03  0.50376843050E+03  0.00000000000E+00 0. -1.
        -11    1    5    5    0    0  0.13362784420E+02  0.18992691810E+03  0.33589690528E+03  0.38610559333E+03  0.00000000000E+00 0.  1.
          1    1    6    6  503    0  0.51616354154E+02 -0.17723833549E+02  0.30505367659E+03  0.30989696335E+03  0.00000000000E+00 0. -1.
         -1    1    6    6    0  503  0.24637093984E+03 -0.22002884970E+03  0.10595797511E+04  0.11098741297E+04  0.00000000000E+00 0.  1.
<mgrwt>
<rscale>  0 0.36715058E+04</rscale>
<asrwt>0</asrwt>
<pdfrwt beam="1">  1        2 0.34291389E+00 0.36715058E+04</pdfrwt>
<pdfrwt beam="2">  1       -1 0.23260372E+00 0.36715058E+04</pdfrwt>
<totfact> 0.41567387E-01</totfact>
</mgrwt>
</event>
<event>
12    6  0.1569942E-007  0.1899141E+04  0.7818608E-02  0.8655284E-01
         -3   -1    0    0    0  501 -0.00000000000E+00  0.00000000000E+00  0.80663761009E+03  0.80663761009E+03  0.00000000000E+00 0.  1.
          2   -1    0    0  501    0  0.00000000000E+00 -0.00000000000E+00 -0.11178303476E+04  0.11178303476E+04  0.00000000000E+00 0. -1.
         24    2    1    2    0    0 -0.69294909537E+03 -0.25121096263E+03 -0.51977356818E+02  0.74327292233E+03  0.80421358676E+02 0.  0.
        254    2    1    2    0    0  0.69294909537E+03  0.25121096263E+03 -0.25921538071E+03  0.11811950354E+04  0.88585760791E+03 0.  0.
         23    2    4    4    0    0  0.77487479735E+02 -0.22761160240E+03 -0.30018647660E+03  0.39517086803E+03  0.90756504680E+02 0.  0.
         23    2    4    4    0    0  0.61546161563E+03  0.47882256503E+03  0.40971095886E+02  0.78602416735E+03  0.89951719623E+02 0.  0.
          4    1    3    3  502    0 -0.55077773459E+03 -0.22218447378E+03 -0.65671802277E+02  0.59752392330E+03  0.00000000000E+00 0. -1.
         -3    1    3    3    0  502 -0.14217136078E+03 -0.29026488856E+02  0.13694445459E+02  0.14574899903E+03  0.00000000000E+00 0.  1.
         11    1    5    5    0    0  0.23156985517E+02 -0.17496311982E+03 -0.17271332779E+03  0.24693771051E+03  0.00000000000E+00 0.  1.
        -11    1    5    5    0    0  0.54330494219E+02 -0.52648482576E+02 -0.12747314881E+03  0.14823315752E+03  0.00000000000E+00 0. -1.
          2    1    6    6  503    0  0.60115230976E+03  0.46701967693E+03  0.25173202567E+02  0.76165948317E+03  0.00000000000E+00 0.  1.
         -2    1    6    6    0  503  0.14309305867E+02  0.11802888101E+02  0.15797893319E+02  0.24364684181E+02  0.00000000000E+00 0. -1.
<mgrwt>
<rscale>  0 0.18991409E+04</rscale>
<asrwt>0</asrwt>
<pdfrwt beam="1">  1        2 0.17197390E+00 0.18991409E+04</pdfrwt>
<pdfrwt beam="2">  1       -3 0.12409809E+00 0.18991409E+04</pdfrwt>
<totfact> 0.65607702E+00</totfact>
</mgrwt>
</event>
<event>
12    6  0.1569942E-007  0.2403322E+04  0.7818608E-02  0.8438261E-01
          2   -1    0    0  501    0  0.00000000000E+00  0.00000000000E+00  0.17791290422E+04  0.17791290422E+04  0.00000000000E+00 0. -1.
         -1   -1    0    0    0  501 -0.00000000000E+00 -0.00000000000E+00 -0.81162688920E+03  0.81162688920E+03  0.00000000000E+00 0.  1.
         24    2    1    2    0    0  0.55581400037E+03  0.18433255004E+03  0.13426373085E+04  0.14670270308E+04  0.81152171364E+02 0.  0.
        254    2    1    2    0    0 -0.55581400037E+03 -0.18433255004E+03 -0.37513515549E+03  0.11237289006E+04  0.88268486176E+03 0.  0.
         23    2    4    4    0    0 -0.39048427975E+02 -0.36073367446E+03  0.10755205217E+03  0.38935386987E+03  0.91517366874E+02 0.  0.
         23    2    4    4    0    0 -0.51676557239E+03  0.17640112442E+03 -0.48268720766E+03  0.73437503074E+03  0.90309090500E+02 0.  0.
          2    1    3    3  502    0  0.39429396562E+03  0.95514396122E+02  0.87976080889E+03  0.96879812761E+03  0.00000000000E+00 0. -1.
         -1    1    3    3    0  502  0.16152003475E+03  0.88818153918E+02  0.46287649956E+03  0.49822890315E+03  0.00000000000E+00 0.  1.
         11    1    5    5    0    0 -0.65161622433E+02 -0.19121658543E+03  0.69786658450E+02  0.21372879375E+03  0.00000000000E+00 0.  1.
        -11    1    5    5    0    0  0.26113194458E+02 -0.16951708903E+03  0.37765393725E+02  0.17562507612E+03  0.00000000000E+00 0. -1.
          4    1    6    6  503    0 -0.69067400975E+02  0.31302626067E+02 -0.30547710023E+02  0.81751592424E+02  0.00000000000E+00 0. -1.
         -4    1    6    6    0  503 -0.44769817142E+03  0.14509849836E+03 -0.45213949764E+03  0.65262343832E+03  0.00000000000E+00 0.  1.
<mgrwt>
<rscale>  0 0.24033218E+04</rscale>
<asrwt>0</asrwt>
<pdfrwt beam="1">  1        2 0.27371216E+00 0.24033218E+04</pdfrwt>
<pdfrwt beam="2">  1       -1 0.12486568E+00 0.24033218E+04</pdfrwt>
<totfact> 0.50892395E+00</totfact>
</mgrwt>
</event>
<event>
12    6  0.1569942E-007  0.1902087E+04  0.7818608E-02  0.8653818E-01
          2   -1    0    0  501    0  0.00000000000E+00  0.00000000000E+00  0.50938623877E+04  0.50938623877E+04  0.00000000000E+00 0. -1.
         -1   -1    0    0    0  501 -0.00000000000E+00 -0.00000000000E+00 -0.17756348690E+03  0.17756348690E+03  0.00000000000E+00 0.  1.
         24    2    1    2    0    0  0.39766604756E+03 -0.19105021238E+03  0.29989842517E+03  0.53930693272E+03  0.79211320092E+02 0.  0.
        254    2    1    2    0    0 -0.39766604756E+03  0.19105021238E+03  0.46164004756E+04  0.47321189418E+04  0.94189057729E+03 0.  0.
         23    2    4    4    0    0  0.21469341427E+03  0.13885922112E+03  0.27844928417E+04  0.27977501008E+04  0.92898307649E+02 0.  0.
         23    2    4    4    0    0 -0.61235946183E+03  0.52190991268E+02  0.18319076339E+04  0.19343688411E+04  0.90494331525E+02 0.  0.
          2    1    3    3  502    0  0.70453929734E+02 -0.64431079066E+02  0.44475821433E+02  0.10532435073E+03  0.00000000000E+00 0. -1.
         -1    1    3    3    0  502  0.32721211782E+03 -0.12661913332E+03  0.25542260374E+03  0.43398258199E+03  0.00000000000E+00 0.  1.
         11    1    5    5    0    0  0.16585836710E+03  0.14039370694E+03  0.24628102175E+04  0.24723781180E+04  0.00000000000E+00 0. -1.
        -11    1    5    5    0    0  0.48835047168E+02 -0.15344858272E+01  0.32168262415E+03  0.32537198275E+03  0.00000000000E+00 0.  1.
          2    1    6    6  503    0 -0.34719770924E+03  0.23808613800E+02  0.11731489171E+04  0.12236794846E+04  0.00000000000E+00 0. -1.
         -2    1    6    6    0  503 -0.26516175258E+03  0.28382377467E+02  0.65875871683E+03  0.71068935646E+03  0.00000000000E+00 0.  1.
<mgrwt>
<rscale>  0 0.19020872E+04</rscale>
<asrwt>0</asrwt>
<pdfrwt beam="1">  1        2 0.78367103E+00 0.19020872E+04</pdfrwt>
<pdfrwt beam="2">  1       -1 0.27317463E-01 0.19020872E+04</pdfrwt>
<totfact> 0.34251971E-01</totfact>
</mgrwt>
</event>
<event>
12    6  0.1569942E-007  0.1317909E+04  0.7818608E-02  0.9015483E-01
         -1   -1    0    0    0  501 -0.00000000000E+00  0.00000000000E+00  0.28090994457E+03  0.28090994457E+03  0.00000000000E+00 0.  1.
          2   -1    0    0  501    0  0.00000000000E+00 -0.00000000000E+00 -0.15457658729E+04  0.15457658729E+04  0.00000000000E+00 0. -1.
         24    2    1    2    0    0 -0.36147716482E+02 -0.14915762102E+03  0.89658679644E+02  0.19474513264E+03  0.79575967076E+02 0.  0.
        254    2    1    2    0    0  0.36147716482E+02  0.14915762102E+03 -0.13545146079E+04  0.16319306848E+04  0.89718074185E+03 0.  0.
         23    2    4    4    0    0  0.94833810924E+02  0.26156716345E+03 -0.25861745695E+02  0.29411738363E+03  0.91789829348E+02 0.  0.
         23    2    4    4    0    0 -0.58686094442E+02 -0.11240954243E+03 -0.13286528622E+04  0.13378133012E+04  0.91356650164E+02 0.  0.
          2    1    3    3  502    0 -0.83025418629E+01  0.88912549496E+01  0.38374285068E+01  0.12755879958E+02  0.00000000000E+00 0. -1.
         -1    1    3    3    0  502 -0.27845174619E+02 -0.15804887597E+03  0.85821251137E+02  0.18198925268E+03  0.00000000000E+00 0.  1.
         11    1    5    5    0    0  0.21361881502E+02  0.15628223617E+03  0.17273698623E+02  0.15867844210E+03  0.00000000000E+00 0. -1.
        -11    1    5    5    0    0  0.73471929421E+02  0.10528492728E+03 -0.43135444318E+02  0.13543894153E+03  0.00000000000E+00 0.  1.
          3    1    6    6  503    0 -0.63704669229E+02 -0.11954300329E+03 -0.10102344188E+04  0.10192754267E+04  0.00000000000E+00 0. -1.
         -3    1    6    6    0  503  0.50185747871E+01  0.71334608534E+01 -0.31841844339E+03  0.31853787443E+03  0.00000000000E+00 0.  1.
<mgrwt>
<rscale>  0 0.13179090E+04</rscale>
<asrwt>0</asrwt>
<pdfrwt beam="1">  1        2 0.23781013E+00 0.13179090E+04</pdfrwt>
<pdfrwt beam="2">  1       -1 0.43216915E-01 0.13179090E+04</pdfrwt>
<totfact> 0.70440823E+01</totfact>
</mgrwt>
</event>
<event>
12    6  0.1569942E-007  0.1542675E+04  0.7818608E-02  0.8856560E-01
          2   -1    0    0  501    0  0.00000000000E+00  0.00000000000E+00  0.13503387401E+04  0.13503387401E+04  0.00000000000E+00 0. -1.
         -1   -1    0    0    0  501 -0.00000000000E+00 -0.00000000000E+00 -0.44060141198E+03  0.44060141198E+03  0.00000000000E+00 0.  1.
         24    2    1    2    0    0 -0.28697824457E+03  0.29886705547E+02 -0.17507765799E+03  0.34678787774E+03  0.79749092744E+02 0.  0.
        254    2    1    2    0    0  0.28697824457E+03 -0.29886705547E+02  0.10848149861E+04  0.14441522743E+04  0.90857168641E+03 0.  0.
         23    2    4    4    0    0 -0.29954297600E+03  0.11191967714E+03  0.27881075351E+03  0.43310753152E+03  0.87147512793E+02 0.  0.
         23    2    4    4    0    0  0.58652122057E+03 -0.14180638269E+03  0.80600423257E+03  0.10110447428E+04  0.91937242961E+02 0.  0.
          4    1    3    3  502    0 -0.12749237412E+03 -0.15288647444E+02 -0.44930836038E+02  0.13603980383E+03  0.00000000000E+00 0. -1.
         -3    1    3    3    0  502 -0.15948587046E+03  0.45175352991E+02 -0.13014682196E+03  0.21074807391E+03  0.00000000000E+00 0.  1.
         11    1    5    5    0    0 -0.23987447829E+03  0.12473876075E+03  0.22978383776E+03  0.35482409144E+03  0.00000000000E+00 0. -1.
        -11    1    5    5    0    0 -0.59668497704E+02 -0.12819083611E+02  0.49026915750E+02  0.78283440081E+02  0.00000000000E+00 0.  1.
          3    1    6    6  503    0  0.43869527256E+03 -0.13960788907E+03  0.57204957922E+03  0.73429192147E+03  0.00000000000E+00 0. -1.
         -3    1    6    6    0  503  0.14782594802E+03 -0.21984936167E+01  0.23395465336E+03  0.27675282132E+03  0.00000000000E+00 0.  1.
<mgrwt>
<rscale>  0 0.15426745E+04</rscale>
<asrwt>0</asrwt>
<pdfrwt beam="1">  1        2 0.20774442E+00 0.15426745E+04</pdfrwt>
<pdfrwt beam="2">  1       -1 0.67784833E-01 0.15426745E+04</pdfrwt>
<totfact> 0.37389767E+01</totfact>
</mgrwt>
</event>
<event>
12    6  0.1569942E-007  0.2056032E+04  0.7818608E-02  0.8580863E-01
          2   -1    0    0  501    0  0.00000000000E+00  0.00000000000E+00  0.43326414375E+03  0.43326414375E+03  0.00000000000E+00 0. -1.
         -1   -1    0    0    0  501 -0.00000000000E+00 -0.00000000000E+00 -0.24391974303E+04  0.24391974303E+04  0.00000000000E+00 0.  1.
         24    2    1    2    0    0  0.27964062589E+03  0.26050420649E+03  0.21290506939E+03  0.44477734118E+03  0.80230875629E+02 0.  0.
        254    2    1    2    0    0 -0.27964062589E+03 -0.26050420649E+03 -0.22188383559E+04  0.24276842328E+04  0.90793488944E+03 0.  0.
         23    2    4    4    0    0 -0.54221287976E+03 -0.26667292125E+02 -0.85969143625E+03  0.10208092970E+04  0.90974193723E+02 0.  0.
         23    2    4    4    0    0  0.26257225387E+03 -0.23383691437E+03 -0.13591469197E+04  0.14068749358E+04  0.91612470286E+02 0.  0.
          4    1    3    3  502    0  0.17937771119E+03  0.11518104978E+03  0.10240863653E+03  0.23649644043E+03  0.00000000000E+00 0. -1.
         -3    1    3    3    0  502  0.10026291470E+03  0.14532315671E+03  0.11049643286E+03  0.20828090075E+03  0.00000000000E+00 0.  1.
         11    1    5    5    0    0 -0.17950948012E+03 -0.49110786108E+02 -0.26348082991E+03  0.32257971184E+03  0.00000000000E+00 0. -1.
        -11    1    5    5    0    0 -0.36270339964E+03  0.22443493983E+02 -0.59621060634E+03  0.69822958520E+03  0.00000000000E+00 0.  1.
          2    1    6    6  503    0  0.16423629539E+03 -0.14189189386E+03 -0.10010436767E+04  0.10243023543E+04  0.00000000000E+00 0.  1.
         -2    1    6    6    0  503  0.98335958479E+02 -0.91945020505E+02 -0.35810324295E+03  0.38257258153E+03  0.00000000000E+00 0. -1.
<mgrwt>
<rscale>  0 0.20560319E+04</rscale>
<asrwt>0</asrwt>
<pdfrwt beam="1">  1        2 0.66656022E-01 0.20560319E+04</pdfrwt>
<pdfrwt beam="2">  1       -1 0.37526114E+00 0.20560319E+04</pdfrwt>
<totfact> 0.80957857E-01</totfact>
</mgrwt>
</event>
<event>
12    6  0.1569942E-007  0.1454851E+04  0.7818608E-02  0.8915044E-01
         -1   -1    0    0    0  501 -0.00000000000E+00  0.00000000000E+00  0.45742226916E+03  0.45742226916E+03  0.00000000000E+00 0.  1.
          2   -1    0    0  501    0  0.00000000000E+00 -0.00000000000E+00 -0.11568041998E+04  0.11568041998E+04  0.00000000000E+00 0. -1.
         24    2    1    2    0    0  0.33274812035E+03 -0.25871788178E+03 -0.38643971108E+03  0.57727281403E+03  0.79069574249E+02 0.  0.
        254    2    1    2    0    0 -0.33274812035E+03  0.25871788178E+03 -0.31294221953E+03  0.10369536549E+04  0.89425040996E+03 0.  0.
         23    2    4    4    0    0  0.47656797551E+02  0.50988534577E+03 -0.21608253303E+03  0.56254275912E+03  0.86651362191E+02 0.  0.
         23    2    4    4    0    0 -0.38040491790E+03 -0.25116746399E+03 -0.96859686501E+02  0.47441089579E+03  0.88830752821E+02 0.  0.
          2    1    3    3  502    0  0.11242543555E+03 -0.98125581990E+02 -0.18819487380E+03  0.24017789016E+03  0.00000000000E+00 0. -1.
         -1    1    3    3    0  502  0.22032268480E+03 -0.16059229979E+03 -0.19824483728E+03  0.33709492387E+03  0.00000000000E+00 0.  1.
         11    1    5    5    0    0  0.48745299919E+02  0.30984265607E+03 -0.17192103591E+03  0.35768060945E+03  0.00000000000E+00 0. -1.
        -11    1    5    5    0    0 -0.10885023678E+01  0.20004268970E+03 -0.44161497119E+02  0.20486214967E+03  0.00000000000E+00 0.  1.
          1    1    6    6  503    0  0.17871543974E+01 -0.12307165022E+02 -0.86952831942E+01  0.15174589996E+02  0.00000000000E+00 0. -1.
         -1    1    6    6    0  503 -0.38219207230E+03 -0.23886029897E+03 -0.88164403307E+02  0.45923630579E+03  0.00000000000E+00 0.  1.
<mgrwt>
<rscale>  0 0.14548512E+04</rscale>
<asrwt>0</asrwt>
<pdfrwt beam="1">  1        2 0.17796988E+00 0.14548512E+04</pdfrwt>
<pdfrwt beam="2">  1       -1 0.70372656E-01 0.14548512E+04</pdfrwt>
<totfact> 0.45375669E+01</totfact>
</mgrwt>
</event>
<event>
12    6  0.1569942E-007  0.3030839E+04  0.7818608E-02  0.8234979E-01
          2   -1    0    0  501    0  0.00000000000E+00  0.00000000000E+00  0.12197901791E+04  0.12197901791E+04  0.00000000000E+00 0. -1.
         -1   -1    0    0    0  501 -0.00000000000E+00 -0.00000000000E+00 -0.18826976910E+04  0.18826976910E+04  0.00000000000E+00 0.  1.
         24    2    1    2    0    0 -0.29329714645E+03  0.49829121841E+03  0.98385842083E+03  0.11439650942E+04  0.79758322864E+02 0.  0.
        254    2    1    2    0    0  0.29329714645E+03 -0.49829121841E+03 -0.16467659327E+04  0.19585227758E+04  0.88862594600E+03 0.  0.
         23    2    4    4    0    0  0.43837670122E+03 -0.46960619680E+03 -0.55581665933E+03  0.85428337563E+03  0.90353831402E+02 0.  0.
         23    2    4    4    0    0 -0.14507955477E+03 -0.28685021609E+02 -0.10909492734E+04  0.11042394002E+04  0.85460097228E+02 0.  0.
          2    1    3    3  502    0 -0.21880521080E+03  0.42953787412E+03  0.79996382880E+03  0.93398106671E+03  0.00000000000E+00 0. -1.
         -1    1    3    3    0  502 -0.74491935645E+02  0.68753344288E+02  0.18389459202E+03  0.20998402749E+03  0.00000000000E+00 0.  1.
         11    1    5    5    0    0  0.13010971208E+03 -0.83235323877E+02 -0.13426401312E+03  0.20465454194E+03  0.00000000000E+00 0.  1.
        -11    1    5    5    0    0  0.30826698914E+03 -0.38637087292E+03 -0.42155264622E+03  0.64962883370E+03  0.00000000000E+00 0. -1.
          4    1    6    6  503    0 -0.12915781175E+03  0.91770496550E+01 -0.85285192509E+03  0.86262527479E+03  0.00000000000E+00 0. -1.
         -4    1    6    6    0  503 -0.15921743014E+02 -0.37862071264E+02 -0.23809734828E+03  0.24161412541E+03  0.00000000000E+00 0.  1.
<mgrwt>
<rscale>  0 0.30308389E+04</rscale>
<asrwt>0</asrwt>
<pdfrwt beam="1">  1        2 0.18766003E+00 0.30308389E+04</pdfrwt>
<pdfrwt beam="2">  1       -1 0.28964580E+00 0.30308389E+04</pdfrwt>
<totfact> 0.69100838E-01</totfact>
</mgrwt>
</event>
<event>
12    6  0.1569942E-007  0.1597903E+04  0.7818608E-02  0.8821837E-01
         -1   -1    0    0    0  501 -0.00000000000E+00  0.00000000000E+00  0.19758582383E+04  0.19758582383E+04  0.00000000000E+00 0.  1.
          2   -1    0    0  501    0  0.00000000000E+00 -0.00000000000E+00 -0.32306136226E+03  0.32306136226E+03  0.00000000000E+00 0. -1.
         24    2    1    2    0    0 -0.50882712690E+03  0.19899969896E+03  0.54310371930E+03  0.77449425542E+03  0.79835934989E+02 0.  0.
        254    2    1    2    0    0  0.50882712690E+03 -0.19899969896E+03  0.11096931567E+04  0.15244253451E+04  0.89103748828E+03 0.  0.
         23    2    4    4    0    0  0.33401374127E+02  0.31722087995E+03  0.43019884952E+03  0.54330464909E+03  0.91455744096E+02 0.  0.
         23    2    4    4    0    0  0.47542575277E+03 -0.51622057890E+03  0.67949430723E+03  0.98112069605E+03  0.91498492767E+02 0.  0.
          2    1    3    3  502    0 -0.26166121715E+03  0.83999092631E+02  0.32323579884E+03  0.42426857269E+03  0.00000000000E+00 0. -1.
         -1    1    3    3    0  502 -0.24716590975E+03  0.11500060633E+03  0.21986792045E+03  0.35022568273E+03  0.00000000000E+00 0.  1.
         11    1    5    5    0    0 -0.28888907096E+02  0.13466157155E+03  0.20229864754E+03  0.24473056736E+03  0.00000000000E+00 0.  1.
        -11    1    5    5    0    0  0.62290281223E+02  0.18255930840E+03  0.22790020198E+03  0.29857408173E+03  0.00000000000E+00 0. -1.
          1    1    6    6  503    0  0.65413050236E+02 -0.11751466620E+03  0.10650884797E+03  0.17155960658E+03  0.00000000000E+00 0. -1.
         -1    1    6    6    0  503  0.41001270254E+03 -0.39870591270E+03  0.57298545926E+03  0.80956108947E+03  0.00000000000E+00 0.  1.
<mgrwt>
<rscale>  0 0.15979029E+04</rscale>
<asrwt>0</asrwt>
<pdfrwt beam="1">  1        2 0.49701749E-01 0.15979029E+04</pdfrwt>
<pdfrwt beam="2">  1       -1 0.30397818E+00 0.15979029E+04</pdfrwt>
<totfact> 0.34601599E+00</totfact>
</mgrwt>
</event>
<event>
12    6  0.1569942E-007  0.1889930E+04  0.7818608E-02  0.8659885E-01
          2   -1    0    0  501    0  0.00000000000E+00  0.00000000000E+00  0.90069212603E+03  0.90069212603E+03  0.00000000000E+00 0. -1.
         -1   -1    0    0    0  501 -0.00000000000E+00 -0.00000000000E+00 -0.99141458611E+03  0.99141458611E+03  0.00000000000E+00 0.  1.
         24    2    1    2    0    0  0.61358775105E+03 -0.37051825735E+03 -0.14902417873E+03  0.73634318960E+03  0.78863044317E+02 0.  0.
        254    2    1    2    0    0 -0.61358775105E+03  0.37051825735E+03  0.58301718655E+02  0.11557635225E+04  0.90477429362E+03 0.  0.
         23    2    4    4    0    0  0.13718613350E+03  0.31772858822E+03 -0.12022691249E+03  0.37723502177E+03  0.89890267321E+02 0.  0.
         23    2    4    4    0    0 -0.75077388455E+03  0.52789669123E+02  0.17852863115E+03  0.77852850078E+03  0.88238197543E+02 0.  0.
          2    1    3    3  502    0  0.16133405269E+02 -0.30381769528E+00 -0.12348290577E+02  0.20318940695E+02  0.00000000000E+00 0. -1.
         -1    1    3    3    0  502  0.59745434578E+03 -0.37021443965E+03 -0.13667588815E+03  0.71602424890E+03  0.00000000000E+00 0.  1.
         11    1    5    5    0    0  0.13266942087E+02  0.62174058463E+02 -0.58921368573E+02  0.86679599518E+02  0.00000000000E+00 0.  1.
        -11    1    5    5    0    0  0.12391919141E+03  0.25555452976E+03 -0.61305543919E+02  0.29055542225E+03  0.00000000000E+00 0. -1.
          3    1    6    6  503    0 -0.39295046085E+03  0.99116081173E+01  0.13457798059E+03  0.41547507449E+03  0.00000000000E+00 0. -1.
         -3    1    6    6    0  503 -0.35782342369E+03  0.42878061006E+02  0.43950650556E+02  0.36305342629E+03  0.00000000000E+00 0.  1.
<mgrwt>
<rscale>  0 0.18899305E+04</rscale>
<asrwt>0</asrwt>
<pdfrwt beam="1">  1        2 0.13856802E+00 0.18899305E+04</pdfrwt>
<pdfrwt beam="2">  1       -1 0.15252532E+00 0.18899305E+04</pdfrwt>
<totfact> 0.10447118E+01</totfact>
</mgrwt>
</event>
<event>
12    6  0.1569942E-007  0.1911000E+04  0.7818608E-02  0.8649400E-01
         -1   -1    0    0    0  501 -0.00000000000E+00  0.00000000000E+00  0.15167387655E+04  0.15167387655E+04  0.00000000000E+00 0.  1.
          2   -1    0    0  501    0  0.00000000000E+00 -0.00000000000E+00 -0.60193621228E+03  0.60193621228E+03  0.00000000000E+00 0. -1.
         24    2    1    2    0    0 -0.31815023833E+03  0.19473000266E+03 -0.35592921011E+03  0.52155993901E+03  0.78738931191E+02 0.  0.
        254    2    1    2    0    0  0.31815023833E+03 -0.19473000266E+03  0.12707317633E+04  0.15971150387E+04  0.89268016930E+03 0.  0.
         23    2    4    4    0    0  0.20757660563E+03 -0.18434111375E+03 -0.25199336407E+02  0.29326573367E+03  0.91104832849E+02 0.  0.
         23    2    4    4    0    0  0.11057363269E+03 -0.10388888917E+02  0.12959310997E+04  0.13038493051E+04  0.90835774398E+02 0.  0.
          2    1    3    3  502    0 -0.25488261024E+03  0.14474453233E+03 -0.31790975860E+03  0.43241500813E+03  0.00000000000E+00 0. -1.
         -1    1    3    3    0  502 -0.63267628093E+02  0.49985470329E+02 -0.38019451503E+02  0.89144930877E+02  0.00000000000E+00 0.  1.
         11    1    5    5    0    0  0.12590125284E+03 -0.70518053488E+02  0.20835352404E+02  0.14580134857E+03  0.00000000000E+00 0. -1.
        -11    1    5    5    0    0  0.81675352790E+02 -0.11382306026E+03 -0.46034688811E+02  0.14746438510E+03  0.00000000000E+00 0.  1.
          1    1    6    6  503    0  0.90577255882E+00  0.71930467473E+01  0.67918892882E+01  0.99342893828E+01  0.00000000000E+00 0. -1.
         -1    1    6    6    0  503  0.10966786013E+03 -0.17581935664E+02  0.12891392104E+04  0.12939150157E+04  0.00000000000E+00 0.  1.
<mgrwt>
<rscale>  0 0.19109997E+04</rscale>
<asrwt>0</asrwt>
<pdfrwt beam="1">  1        2 0.92605572E-01 0.19109997E+04</pdfrwt>
<pdfrwt beam="2">  1       -1 0.23334442E+00 0.19109997E+04</pdfrwt>
<totfact> 0.47352134E+00</totfact>
</mgrwt>
</event>
<event>
12    6  0.1569942E-007  0.1278113E+04  0.7818608E-02  0.9047104E-01
          2   -1    0    0  501    0  0.00000000000E+00  0.00000000000E+00  0.17089188883E+04  0.17089188883E+04  0.00000000000E+00 0. -1.
         -1   -1    0    0    0  501 -0.00000000000E+00 -0.00000000000E+00 -0.23897761509E+03  0.23897761509E+03  0.00000000000E+00 0.  1.
         24    2    1    2    0    0  0.10867686857E+03  0.28533163872E+03  0.29479298107E+03  0.43224119956E+03  0.81882520055E+02 0.  0.
        254    2    1    2    0    0 -0.10867686857E+03 -0.28533163872E+03  0.11751482921E+04  0.15156553038E+04  0.90720046607E+03 0.  0.
         23    2    4    4    0    0  0.34463444340E+02  0.14070395121E+03 -0.73191962367E+02  0.18575854563E+03  0.90353987394E+02 0.  0.
         23    2    4    4    0    0 -0.14314031291E+03 -0.42603558993E+03  0.12483402545E+04  0.13298967582E+04  0.90975399652E+02 0.  0.
          2    1    3    3  502    0 -0.17663567008E+00 -0.40737967771E+01  0.13958961498E+02  0.14542339098E+02  0.00000000000E+00 0. -1.
         -1    1    3    3    0  502  0.10885350424E+03  0.28940543550E+03  0.28083401957E+03  0.41769886046E+03  0.00000000000E+00 0.  1.
         11    1    5    5    0    0 -0.23819531595E+02  0.10699004889E+02 -0.12218839270E+01  0.26140615742E+02  0.00000000000E+00 0.  1.
        -11    1    5    5    0    0  0.58282975934E+02  0.13000494632E+03 -0.71970078440E+02  0.15961792989E+03  0.00000000000E+00 0. -1.
          2    1    6    6  503    0 -0.11724098630E+03 -0.38385963147E+03  0.11728791356E+04  0.12396528273E+04  0.00000000000E+00 0. -1.
         -2    1    6    6    0  503 -0.25899326614E+02 -0.42175958467E+02  0.75461118842E+02  0.90243930813E+02  0.00000000000E+00 0.  1.
<mgrwt>
<rscale>  0 0.12781132E+04</rscale>
<asrwt>0</asrwt>
<pdfrwt beam="1">  1        2 0.26291059E+00 0.12781132E+04</pdfrwt>
<pdfrwt beam="2">  1       -1 0.36765788E-01 0.12781132E+04</pdfrwt>
<totfact> 0.76991250E+01</totfact>
</mgrwt>
</event>
<event>
12    6  0.1569942E-007  0.2229969E+04  0.7818608E-02  0.8506057E-01
         -1   -1    0    0    0  501 -0.00000000000E+00  0.00000000000E+00  0.76956362995E+03  0.76956362995E+03  0.00000000000E+00 0.  1.
          2   -1    0    0  501    0  0.00000000000E+00 -0.00000000000E+00 -0.16154482949E+04  0.16154482949E+04  0.00000000000E+00 0. -1.
         24    2    1    2    0    0 -0.20745965279E+03  0.86624058537E+03 -0.68166837441E+03  0.11245065893E+04  0.80193750012E+02 0.  0.
        254    2    1    2    0    0  0.20745965279E+03 -0.86624058537E+03 -0.16421629059E+03  0.12605053355E+04  0.87663815314E+03 0.  0.
         23    2    4    4    0    0  0.20437935806E+02 -0.77769250136E+03  0.22159954375E+03  0.81409199625E+03  0.91739221049E+02 0.  0.
         23    2    4    4    0    0  0.18702171698E+03 -0.88548084013E+02 -0.38581583434E+03  0.44641333929E+03  0.87253227244E+02 0.  0.
          2    1    3    3  502    0 -0.20399926778E+03  0.79006337871E+03 -0.60039165518E+03  0.10130577393E+04  0.00000000000E+00 0. -1.
         -1    1    3    3    0  502 -0.34603850039E+01  0.76177206667E+02 -0.81276719224E+02  0.11144885001E+03  0.00000000000E+00 0.  1.
         11    1    5    5    0    0 -0.21530388117E+02 -0.58624565712E+03  0.18110181316E+03  0.61395878920E+03  0.00000000000E+00 0. -1.
        -11    1    5    5    0    0  0.41968323923E+02 -0.19144684424E+03  0.40497730594E+02  0.20013320705E+03  0.00000000000E+00 0.  1.
          1    1    6    6  503    0  0.18230988526E+03 -0.98403237517E+02 -0.33076425360E+03  0.39028846111E+03  0.00000000000E+00 0. -1.
         -1    1    6    6    0  503  0.47118317213E+01  0.98551535040E+01 -0.55051580734E+02  0.56124878174E+02  0.00000000000E+00 0.  1.
<mgrwt>
<rscale>  0 0.22299688E+04</rscale>
<asrwt>0</asrwt>
<pdfrwt beam="1">  1        2 0.24853050E+00 0.22299688E+04</pdfrwt>
<pdfrwt beam="2">  1       -1 0.11839441E+00 0.22299688E+04</pdfrwt>
<totfact> 0.72639055E+00</totfact>
</mgrwt>
</event>
<event>
12    6  0.1569942E-007  0.1926132E+04  0.7818608E-02  0.8641957E-01
          2   -1    0    0  501    0  0.00000000000E+00  0.00000000000E+00  0.10320706043E+04  0.10320706043E+04  0.00000000000E+00 0. -1.
         -1   -1    0    0    0  501 -0.00000000000E+00 -0.00000000000E+00 -0.89867551436E+03  0.89867551436E+03  0.00000000000E+00 0.  1.
         24    2    1    2    0    0  0.64158169173E+03 -0.23487316607E+03 -0.26573742752E+03  0.73756134899E+03  0.81165829259E+02 0.  0.
        254    2    1    2    0    0 -0.64158169173E+03  0.23487316607E+03  0.39913251745E+03  0.11931847697E+04  0.89307931156E+03 0.  0.
         23    2    4    4    0    0 -0.60054269888E+02  0.14033385673E+03 -0.25302901526E+03  0.30961433106E+03  0.92397211868E+02 0.  0.
         23    2    4    4    0    0 -0.58152742184E+03  0.94539309347E+02  0.65216153271E+03  0.88357043859E+03  0.90940815030E+02 0.  0.
          2    1    3    3  502    0  0.28282745408E+01  0.42548423240E+01 -0.56224192659E+01  0.75970006240E+01  0.00000000000E+00 0. -1.
         -1    1    3    3    0  502  0.63875341719E+03 -0.23912800840E+03 -0.26011500825E+03  0.72996434837E+03  0.00000000000E+00 0.  1.
         11    1    5    5    0    0 -0.53561046606E+02  0.11577392734E+03 -0.12326972120E+03  0.17739169127E+03  0.00000000000E+00 0.  1.
        -11    1    5    5    0    0 -0.64932232821E+01  0.24559929386E+02 -0.12975929406E+03  0.13222263980E+03  0.00000000000E+00 0. -1.
          1    1    6    6  503    0 -0.54616119430E+02  0.17855980148E+02  0.30520076542E+02  0.65063289194E+02  0.00000000000E+00 0. -1.
         -1    1    6    6    0  503 -0.52691130241E+03  0.76683329199E+02  0.62164145616E+03  0.81850714940E+03  0.00000000000E+00 0.  1.
<mgrwt>
<rscale>  0 0.19261325E+04</rscale>
<asrwt>0</asrwt>
<pdfrwt beam="1">  1        2 0.15878009E+00 0.19261325E+04</pdfrwt>
<pdfrwt beam="2">  1       -1 0.13825777E+00 0.19261325E+04</pdfrwt>
<totfact> 0.11094869E+01</totfact>
</mgrwt>
</event>
<event>
12    6  0.1569942E-007  0.1613653E+04  0.7818608E-02  0.8812204E-01
          2   -1    0    0  501    0  0.00000000000E+00  0.00000000000E+00  0.20799720633E+04  0.20799720633E+04  0.00000000000E+00 0. -1.
         -1   -1    0    0    0  501 -0.00000000000E+00 -0.00000000000E+00 -0.31297002082E+03  0.31297002082E+03  0.00000000000E+00 0.  1.
         24    2    1    2    0    0 -0.54079420327E+03  0.63984936340E+02  0.74470653613E+03  0.92651818749E+03  0.85414778728E+02 0.  0.
        254    2    1    2    0    0  0.54079420327E+03 -0.63984936340E+02  0.10222955064E+04  0.14664238966E+04  0.89931001326E+03 0.  0.
         23    2    4    4    0    0  0.63242600011E+03  0.25615439598E+03  0.54783079735E+03  0.87973741665E+03  0.90783365861E+02 0.  0.
         23    2    4    4    0    0 -0.91631796847E+02 -0.32013933232E+03  0.47446470901E+03  0.58668647999E+03  0.90546603565E+02 0.  0.
          2    1    3    3  502    0 -0.45781845424E+03  0.66858364868E+02  0.57880632311E+03  0.74100238709E+03  0.00000000000E+00 0. -1.
         -1    1    3    3    0  502 -0.82975749025E+02 -0.28734285285E+01  0.16590021302E+03  0.18551580040E+03  0.00000000000E+00 0.  1.
         11    1    5    5    0    0  0.53354954792E+02 -0.37304742457E+01  0.37838026358E+02  0.65516287117E+02  0.00000000000E+00 0. -1.
        -11    1    5    5    0    0  0.57907104532E+03  0.25988487023E+03  0.50999277099E+03  0.81422112953E+03  0.00000000000E+00 0.  1.
          2    1    6    6  503    0 -0.24150836816E+02 -0.13081292324E+03  0.11974725669E+03  0.17898237145E+03  0.00000000000E+00 0. -1.
         -2    1    6    6    0  503 -0.67480960030E+02 -0.18932640909E+03  0.35471745232E+03  0.40770410854E+03  0.00000000000E+00 0.  1.
<mgrwt>
<rscale>  0 0.16136529E+04</rscale>
<asrwt>0</asrwt>
<pdfrwt beam="1">  1        2 0.31999569E+00 0.16136529E+04</pdfrwt>
<pdfrwt beam="2">  1       -1 0.48149235E-01 0.16136529E+04</pdfrwt>
<totfact> 0.28377234E+01</totfact>
</mgrwt>
</event>
<event>
12    6  0.1569942E-007  0.2966840E+04  0.7818608E-02  0.8253264E-01
         -1   -1    0    0    0  501 -0.00000000000E+00  0.00000000000E+00  0.68553715382E+03  0.68553715382E+03  0.00000000000E+00 0.  1.
          2   -1    0    0  501    0  0.00000000000E+00 -0.00000000000E+00 -0.32099421058E+04  0.32099421058E+04  0.00000000000E+00 0. -1.
         24    2    1    2    0    0 -0.94573000487E+03  0.21524751028E+03 -0.23547290485E+04  0.25475569218E+04  0.67532551922E+02 0.  0.
        254    2    1    2    0    0  0.94573000487E+03 -0.21524751028E+03 -0.16967590348E+03  0.13479223377E+04  0.92052592769E+03 0.  0.
         23    2    4    4    0    0  0.99043765305E+02 -0.39737414722E+03  0.11013257291E+03  0.43353421797E+03  0.90038070900E+02 0.  0.
         23    2    4    4    0    0  0.84668623956E+03  0.18212663694E+03 -0.27980847639E+03  0.91438811977E+03  0.88120088315E+02 0.  0.
          2    1    3    3  502    0 -0.80388132839E+03  0.16087926375E+03 -0.20163328163E+04  0.21766270589E+04  0.00000000000E+00 0. -1.
         -1    1    3    3    0  502 -0.14184867647E+03  0.54368246525E+02 -0.33839623219E+03  0.37092986292E+03  0.00000000000E+00 0.  1.
         11    1    5    5    0    0 -0.62007974037E+01 -0.97330893939E+02  0.15538246429E+01  0.97540592445E+02  0.00000000000E+00 0. -1.
        -11    1    5    5    0    0  0.10524456271E+03 -0.30004325328E+03  0.10857874827E+03  0.33599362552E+03  0.00000000000E+00 0.  1.
          1    1    6    6  503    0  0.15904625271E+02  0.14260980244E+02 -0.16068467601E+02  0.26730662423E+02  0.00000000000E+00 0. -1.
         -1    1    6    6    0  503  0.83078161429E+03  0.16786565670E+03 -0.26374000879E+03  0.88765745734E+03  0.00000000000E+00 0.  1.
<mgrwt>
<rscale>  0 0.29668398E+04</rscale>
<asrwt>0</asrwt>
<pdfrwt beam="1">  1        2 0.49383724E+00 0.29668398E+04</pdfrwt>
<pdfrwt beam="2">  1       -1 0.10546725E+00 0.29668398E+04</pdfrwt>
<totfact> 0.10490121E+00</totfact>
</mgrwt>
</event>
<event>
12    6  0.1569942E-007  0.1778586E+04  0.7818608E-02  0.8717771E-01
         -1   -1    0    0    0  501 -0.00000000000E+00  0.00000000000E+00  0.38060643440E+03  0.38060643440E+03  0.00000000000E+00 0.  1.
          2   -1    0    0  501    0  0.00000000000E+00 -0.00000000000E+00 -0.20778468236E+04  0.20778468236E+04  0.00000000000E+00 0. -1.
         24    2    1    2    0    0  0.50512371140E+03  0.52164970930E+02 -0.48749965667E+02  0.51624216022E+03  0.79109170325E+02 0.  0.
        254    2    1    2    0    0 -0.50512371140E+03 -0.52164970930E+02 -0.16484904236E+04  0.19422110978E+04  0.89263213245E+03 0.  0.
         23    2    4    4    0    0  0.18747242251E+03  0.19678160350E+03 -0.41660719793E+03  0.50438184759E+03  0.83490012181E+02 0.  0.
         23    2    4    4    0    0 -0.69259613391E+03 -0.24894657443E+03 -0.12318832256E+04  0.14378292502E+04  0.90293242188E+02 0.  0.
          4    1    3    3  502    0  0.30421047982E+02  0.12913208165E+02  0.13831375150E+02  0.35825940936E+02  0.00000000000E+00 0. -1.
         -3    1    3    3    0  502  0.47470266341E+03  0.39251762766E+02 -0.62581340817E+02  0.48041621928E+03  0.00000000000E+00 0.  1.
         11    1    5    5    0    0  0.92772345596E+02  0.11330234589E+03 -0.29374461829E+03  0.32822253193E+03  0.00000000000E+00 0.  1.
        -11    1    5    5    0    0  0.94700076912E+02  0.83479257610E+02 -0.12286257964E+03  0.17615931566E+03  0.00000000000E+00 0. -1.
          3    1    6    6  503    0 -0.48296824290E+03 -0.17926049064E+03 -0.93826929196E+03  0.10703933442E+04  0.00000000000E+00 0. -1.
         -3    1    6    6    0  503 -0.20962789101E+03 -0.69686083790E+02 -0.29361393368E+03  0.36743590600E+03  0.00000000000E+00 0.  1.
<mgrwt>
<rscale>  0 0.17785858E+04</rscale>
<asrwt>0</asrwt>
<pdfrwt beam="1">  1        2 0.31966874E+00 0.17785858E+04</pdfrwt>
<pdfrwt beam="2">  1       -1 0.58554837E-01 0.17785858E+04</pdfrwt>
<totfact> 0.19246587E+01</totfact>
</mgrwt>
</event>
<event>
12    6  0.1569942E-007  0.1758543E+04  0.7818608E-02  0.8728662E-01
         -1   -1    0    0    0  501 -0.00000000000E+00  0.00000000000E+00  0.24074936727E+03  0.24074936727E+03  0.00000000000E+00 0.  1.
          2   -1    0    0  501    0  0.00000000000E+00 -0.00000000000E+00 -0.32112986271E+04  0.32112986271E+04  0.00000000000E+00 0. -1.
         24    2    1    2    0    0 -0.53340025641E+03 -0.34154562451E+03 -0.99157048479E+03  0.11792861540E+04  0.79589945679E+02 0.  0.
        254    2    1    2    0    0  0.53340025641E+03  0.34154562451E+03 -0.19789787750E+04  0.22727618404E+04  0.92082579461E+03 0.  0.
         23    2    4    4    0    0  0.27407539334E+03  0.55027869497E+03 -0.65177826271E+03  0.90061652512E+03  0.91494580227E+02 0.  0.
         23    2    4    4    0    0  0.25932486307E+03 -0.20873307046E+03 -0.13272005123E+04  0.13721453153E+04  0.10248261827E+03 0.  0.
          4    1    3    3  502    0 -0.27517685600E+03 -0.20783784563E+03 -0.59184015013E+03  0.68497710579E+03  0.00000000000E+00 0. -1.
         -3    1    3    3    0  502 -0.25822340041E+03 -0.13370777888E+03 -0.39973033466E+03  0.49430904817E+03  0.00000000000E+00 0.  1.
         11    1    5    5    0    0  0.26177291679E+02  0.22500000351E+02 -0.16352293361E+02  0.38195524785E+02  0.00000000000E+00 0. -1.
        -11    1    5    5    0    0  0.24789810166E+03  0.52777869462E+03 -0.63542596935E+03  0.86242100034E+03  0.00000000000E+00 0.  1.
          1    1    6    6  503    0  0.24990717369E+03 -0.20858101916E+03 -0.13217923275E+04  0.13612841710E+04  0.00000000000E+00 0. -1.
         -1    1    6    6    0  503  0.94176893855E+01 -0.15205129704E+00 -0.54081847731E+01  0.10861144300E+02  0.00000000000E+00 0.  1.
<mgrwt>
<rscale>  0 0.17585427E+04</rscale>
<asrwt>0</asrwt>
<pdfrwt beam="1">  1        2 0.49404592E+00 0.17585427E+04</pdfrwt>
<pdfrwt beam="2">  1       -1 0.37038366E-01 0.17585427E+04</pdfrwt>
<totfact> 0.96912197E+00</totfact>
</mgrwt>
</event>
<event>
12    6  0.1569942E-007  0.1612602E+04  0.7818608E-02  0.8812844E-01
         -1   -1    0    0    0  501 -0.00000000000E+00  0.00000000000E+00  0.36839922879E+03  0.36839922879E+03  0.00000000000E+00 0.  1.
          2   -1    0    0  501    0  0.00000000000E+00 -0.00000000000E+00 -0.17647184841E+04  0.17647184841E+04  0.00000000000E+00 0. -1.
         24    2    1    2    0    0  0.33415302226E+03  0.45160246576E+03 -0.45267763832E+03  0.72580197562E+03  0.79173443922E+02 0.  0.
        254    2    1    2    0    0 -0.33415302226E+03 -0.45160246576E+03 -0.94364161696E+03  0.14073157372E+04  0.88004264309E+03 0.  0.
         23    2    4    4    0    0  0.21333734229E+03 -0.84267552576E+02 -0.62137825217E+03  0.66826822373E+03  0.88643355887E+02 0.  0.
         23    2    4    4    0    0 -0.54749036455E+03 -0.36733491318E+03 -0.32226336479E+03  0.73904751351E+03  0.87503789781E+02 0.  0.
          4    1    3    3  502    0  0.16957149549E+03  0.28465816028E+03 -0.23831690915E+03  0.40814177620E+03  0.00000000000E+00 0. -1.
         -3    1    3    3    0  502  0.16458152677E+03  0.16694430548E+03 -0.21436072917E+03  0.31766019942E+03  0.00000000000E+00 0.  1.
         11    1    5    5    0    0  0.21741730781E+01 -0.25980030431E+02 -0.84098449960E+02  0.88046796055E+02  0.00000000000E+00 0.  1.
        -11    1    5    5    0    0  0.21116316921E+03 -0.58287522145E+02 -0.53727980221E+03  0.58022142767E+03  0.00000000000E+00 0. -1.
          1    1    6    6  503    0 -0.16113420396E+03 -0.15608370430E+03 -0.12111076954E+03  0.25493954760E+03  0.00000000000E+00 0. -1.
         -1    1    6    6    0  503 -0.38635616059E+03 -0.21125120888E+03 -0.20115259525E+03  0.48410796591E+03  0.00000000000E+00 0.  1.
<mgrwt>
<rscale>  0 0.16126015E+04</rscale>
<asrwt>0</asrwt>
<pdfrwt beam="1">  1        2 0.27149515E+00 0.16126015E+04</pdfrwt>
<pdfrwt beam="2">  1       -1 0.56676804E-01 0.16126015E+04</pdfrwt>
<totfact> 0.31041584E+01</totfact>
</mgrwt>
</event>
<event>
12    6  0.1569942E-007  0.1656958E+04  0.7818608E-02  0.8786301E-01
         -1   -1    0    0    0  501 -0.00000000000E+00  0.00000000000E+00  0.72862509278E+03  0.72862509278E+03  0.00000000000E+00 0.  1.
          2   -1    0    0  501    0  0.00000000000E+00 -0.00000000000E+00 -0.94201772332E+03  0.94201772332E+03  0.00000000000E+00 0. -1.
         24    2    1    2    0    0 -0.56191067118E+03  0.14647415826E+03 -0.59768151634E+01  0.58652475005E+03  0.82324228982E+02 0.  0.
        254    2    1    2    0    0  0.56191067118E+03 -0.14647415826E+03 -0.20741581537E+03  0.10841180661E+04  0.89167952722E+03 0.  0.
         23    2    4    4    0    0  0.58036095993E+03  0.21366957147E+03 -0.31217040949E+03  0.69872349074E+03  0.91052854854E+02 0.  0.
         23    2    4    4    0    0 -0.18450288749E+02 -0.36014372972E+03  0.10475459411E+03  0.38539457531E+03  0.86669109130E+02 0.  0.
          4    1    3    3  502    0 -0.16447440448E+02  0.12710289365E+02 -0.13613707541E+02  0.24847591152E+02  0.00000000000E+00 0. -1.
         -3    1    3    3    0  502 -0.54546323073E+03  0.13376386889E+03  0.76368923779E+01  0.56167715890E+03  0.00000000000E+00 0.  1.
         11    1    5    5    0    0  0.10247512727E+03  0.65749406935E+02 -0.34382207306E+02  0.12651589782E+03  0.00000000000E+00 0.  1.
        -11    1    5    5    0    0  0.47788583266E+03  0.14792016453E+03 -0.27778820218E+03  0.57220759293E+03  0.00000000000E+00 0. -1.
          4    1    6    6  503    0 -0.40100453657E+02 -0.26673353749E+03  0.10516497982E+03  0.28950733909E+03  0.00000000000E+00 0. -1.
         -4    1    6    6    0  503  0.21650164908E+02 -0.93410192236E+02 -0.41038571286E+00  0.95887236223E+02  0.00000000000E+00 0.  1.
<mgrwt>
<rscale>  0 0.16569584E+04</rscale>
<asrwt>0</asrwt>
<pdfrwt beam="1">  1        2 0.14492580E+00 0.16569584E+04</pdfrwt>
<pdfrwt beam="2">  1       -1 0.11209617E+00 0.16569584E+04</pdfrwt>
<totfact> 0.21852790E+01</totfact>
</mgrwt>
</event>
<event>
12    6  0.1569942E-007  0.1085662E+04  0.7818608E-02  0.9219280E-01
          2   -1    0    0  501    0  0.00000000000E+00  0.00000000000E+00  0.13489138821E+04  0.13489138821E+04  0.00000000000E+00 0. -1.
         -1   -1    0    0    0  501 -0.00000000000E+00 -0.00000000000E+00 -0.21844662864E+03  0.21844662864E+03  0.00000000000E+00 0.  1.
         24    2    1    2    0    0  0.45222540285E+02  0.12790596192E+02  0.83813282976E+02  0.12435642389E+03  0.78937799936E+02 0.  0.
        254    2    1    2    0    0 -0.45222540285E+02 -0.12790596192E+02  0.10466539705E+04  0.14430040869E+04  0.99225378973E+03 0.  0.
         23    2    4    4    0    0  0.45425242088E+03  0.69497786773E+02  0.60713972869E+03  0.76654181408E+03  0.88275128617E+02 0.  0.
         23    2    4    4    0    0 -0.49947496116E+03 -0.82288382965E+02  0.43951424182E+03  0.67646227279E+03  0.90453429689E+02 0.  0.
          4    1    3    3  502    0  0.22109271880E+02  0.25638759653E+01  0.94374749099E+02  0.96963841872E+02  0.00000000000E+00 0. -1.
         -3    1    3    3    0  502  0.23113268405E+02  0.10226720227E+02 -0.10561466123E+02  0.27392582018E+02  0.00000000000E+00 0.  1.
         11    1    5    5    0    0  0.25902560853E+02 -0.70534786297E+01  0.71854042961E+02  0.76705265200E+02  0.00000000000E+00 0.  1.
        -11    1    5    5    0    0  0.42834986003E+03  0.76551265403E+02  0.53528568573E+03  0.68983654888E+03  0.00000000000E+00 0. -1.
          2    1    6    6  503    0 -0.33302263877E+03 -0.28205367358E+02  0.33183930023E+03  0.47097445988E+03  0.00000000000E+00 0. -1.
         -2    1    6    6    0  503 -0.16645232240E+03 -0.54083015607E+02  0.10767494159E+03  0.20548781291E+03  0.00000000000E+00 0.  1.
<mgrwt>
<rscale>  0 0.10856624E+04</rscale>
<asrwt>0</asrwt>
<pdfrwt beam="1">  1        2 0.20752521E+00 0.10856624E+04</pdfrwt>
<pdfrwt beam="2">  1       -1 0.33607174E-01 0.10856624E+04</pdfrwt>
<totfact> 0.14617869E+02</totfact>
</mgrwt>
</event>
<event>
12    6  0.1569942E-007  0.2772103E+04  0.7818608E-02  0.8311982E-01
          2   -1    0    0  501    0  0.00000000000E+00  0.00000000000E+00  0.17476715718E+04  0.17476715718E+04  0.00000000000E+00 0. -1.
         -1   -1    0    0    0  501 -0.00000000000E+00 -0.00000000000E+00 -0.10992563294E+04  0.10992563294E+04  0.00000000000E+00 0.  1.
         24    2    1    2    0    0 -0.34931506137E+03  0.81863977405E+03 -0.60438879956E+03  0.10788121556E+04  0.79735527071E+02 0.  0.
        254    2    1    2    0    0  0.34931506137E+03 -0.81863977405E+03  0.12528040420E+04  0.17681157456E+04  0.87437019067E+03 0.  0.
         23    2    4    4    0    0  0.14369746438E+03  0.15246514259E+03  0.11957952389E+03  0.25829361940E+03  0.92313326838E+02 0.  0.
         23    2    4    4    0    0  0.20561759699E+03 -0.97110491664E+03  0.11332245181E+04  0.15098221262E+04  0.10020822790E+03 0.  0.
          4    1    3    3  502    0 -0.10903593878E+03  0.17328866228E+03 -0.12793609186E+03  0.24142377684E+03  0.00000000000E+00 0. -1.
         -3    1    3    3    0  502 -0.24027912259E+03  0.64535111177E+03 -0.47645270770E+03  0.83738837876E+03  0.00000000000E+00 0.  1.
         11    1    5    5    0    0  0.15141259487E+03  0.11620873027E+03  0.10875731330E+03  0.21967793715E+03  0.00000000000E+00 0.  1.
        -11    1    5    5    0    0 -0.77151304878E+01  0.36256412325E+02  0.10822210591E+02  0.38615682244E+02  0.00000000000E+00 0. -1.
          3    1    6    6  503    0  0.79006064492E+02 -0.23266348087E+03  0.23308026960E+03  0.33867486714E+03  0.00000000000E+00 0. -1.
         -3    1    6    6    0  503  0.12661153250E+03 -0.73844143578E+03  0.90014424851E+03  0.11711472590E+04  0.00000000000E+00 0.  1.
<mgrwt>
<rscale>  0 0.27721032E+04</rscale>
<asrwt>0</asrwt>
<pdfrwt beam="1">  1        2 0.26887255E+00 0.27721032E+04</pdfrwt>
<pdfrwt beam="2">  1       -1 0.16911636E+00 0.27721032E+04</pdfrwt>
<totfact> 0.22877227E+00</totfact>
</mgrwt>
</event>
<event>
12    6  0.1569942E-007  0.2681392E+04  0.7818608E-02  0.8341068E-01
          2   -1    0    0  501    0  0.00000000000E+00  0.00000000000E+00  0.29156526551E+04  0.29156526551E+04  0.00000000000E+00 0. -1.
         -1   -1    0    0    0  501 -0.00000000000E+00 -0.00000000000E+00 -0.61648811527E+03  0.61648811527E+03  0.00000000000E+00 0.  1.
         24    2    1    2    0    0 -0.44351042226E+03  0.63774789867E+03  0.21961881595E+04  0.23309119957E+04  0.80525913715E+02 0.  0.
        254    2    1    2    0    0  0.44351042226E+03 -0.63774789867E+03  0.10297638038E+03  0.12012287747E+04  0.91045184245E+03 0.  0.
         23    2    4    4    0    0 -0.80668473270E+02 -0.80277015674E+02  0.35997798084E+03  0.38861084346E+03  0.92100158177E+02 0.  0.
         23    2    4    4    0    0  0.52417889553E+03 -0.55747088299E+03 -0.25700160047E+03  0.81261793128E+03  0.93599036766E+02 0.  0.
          4    1    3    3  502    0 -0.42346062572E+03  0.58394179497E+03  0.20752058009E+04  0.21969947742E+04  0.00000000000E+00 0. -1.
         -3    1    3    3    0  502 -0.20049796541E+02  0.53806103699E+02  0.12098235855E+03  0.13391722151E+03  0.00000000000E+00 0.  1.
         11    1    5    5    0    0  0.38507583095E+01  0.98171670332E+00  0.13372165202E+03  0.13378068742E+03  0.00000000000E+00 0. -1.
        -11    1    5    5    0    0 -0.84519231580E+02 -0.81258732377E+02  0.22625632882E+03  0.25483015603E+03  0.00000000000E+00 0.  1.
          2    1    6    6  503    0  0.10646935358E+03 -0.16796619774E+03 -0.83752634338E+02  0.21578431499E+03  0.00000000000E+00 0. -1.
         -2    1    6    6    0  503  0.41770954195E+03 -0.38950468525E+03 -0.17324896613E+03  0.59683361629E+03  0.00000000000E+00 0.  1.
<mgrwt>
<rscale>  0 0.26813916E+04</rscale>
<asrwt>0</asrwt>
<pdfrwt beam="1">  1        2 0.44856194E+00 0.26813916E+04</pdfrwt>
<pdfrwt beam="2">  1       -1 0.94844327E-01 0.26813916E+04</pdfrwt>
<totfact> 0.21086788E+00</totfact>
</mgrwt>
</event>
<event>
12    6  0.1569942E-007  0.4603488E+04  0.7818608E-02  0.7892765E-01
          2   -1    0    0  501    0  0.00000000000E+00  0.00000000000E+00  0.16833552887E+04  0.16833552887E+04  0.00000000000E+00 0. -1.
         -1   -1    0    0    0  501 -0.00000000000E+00 -0.00000000000E+00 -0.31473011337E+04  0.31473011337E+04  0.00000000000E+00 0.  1.
         24    2    1    2    0    0 -0.26650775172E+03 -0.28143597880E+03 -0.29903609069E+04  0.30166694378E+04  0.88337712999E+02 0.  0.
        254    2    1    2    0    0  0.26650775172E+03  0.28143597880E+03  0.15264150619E+04  0.18139869846E+04  0.90020733558E+03 0.  0.
         23    2    4    4    0    0  0.18343071638E+03 -0.20471953027E+03  0.11527460095E+04  0.11886707356E+04  0.92508602134E+02 0.  0.
         23    2    4    4    0    0  0.83077035337E+02  0.48615550907E+03  0.37366905247E+03  0.62531624902E+03  0.90237895100E+02 0.  0.
          4    1    3    3  502    0 -0.32678269298E+02 -0.10674020910E+02 -0.43964914932E+03  0.44099113200E+03  0.00000000000E+00 0. -1.
         -3    1    3    3    0  502 -0.23382948242E+03 -0.27076195789E+03 -0.25507117576E+04  0.25756783058E+04  0.00000000000E+00 0.  1.
         11    1    5    5    0    0  0.14011399358E+03 -0.15533907876E+03  0.68196093326E+03  0.71332522392E+03  0.00000000000E+00 0.  1.
        -11    1    5    5    0    0  0.43316722802E+02 -0.49380451506E+02  0.47078507620E+03  0.47534551164E+03  0.00000000000E+00 0. -1.
          1    1    6    6  503    0  0.65547106010E+02  0.17060588584E+03  0.16802286253E+03  0.24826291250E+03  0.00000000000E+00 0. -1.
         -1    1    6    6    0  503  0.17529929327E+02  0.31554962323E+03  0.20564618994E+03  0.37705333652E+03  0.00000000000E+00 0.  1.
<mgrwt>
<rscale>  0 0.46034882E+04</rscale>
<asrwt>0</asrwt>
<pdfrwt beam="1">  1        2 0.25897774E+00 0.46034882E+04</pdfrwt>
<pdfrwt beam="2">  1       -1 0.48420017E+00 0.46034882E+04</pdfrwt>
<totfact> 0.16283933E-02</totfact>
</mgrwt>
</event>
<event>
12    6  0.1569942E-007  0.1548952E+04  0.7818608E-02  0.8852538E-01
         -1   -1    0    0    0  501 -0.00000000000E+00  0.00000000000E+00  0.21083224335E+03  0.21083224335E+03  0.00000000000E+00 0.  1.
          2   -1    0    0  501    0  0.00000000000E+00 -0.00000000000E+00 -0.28449767181E+04  0.28449767181E+04  0.00000000000E+00 0. -1.
         24    2    1    2    0    0  0.45821320813E+03 -0.73315552401E+02 -0.45567423069E+03  0.65524649068E+03  0.79840119688E+02 0.  0.
        254    2    1    2    0    0 -0.45821320813E+03  0.73315552401E+02 -0.21784702441E+04  0.24005624708E+04  0.89533963248E+03 0.  0.
         23    2    4    4    0    0  0.26421845841E+02  0.26096234506E+03 -0.15704757427E+04  0.15947499338E+04  0.89631655173E+02 0.  0.
         23    2    4    4    0    0 -0.48463505397E+03 -0.18764679266E+03 -0.60799450140E+03  0.80581253696E+03  0.97949357655E+02 0.  0.
          2    1    3    3  502    0  0.13825718318E+02 -0.15375886227E+02 -0.34640669165E+02  0.40342834860E+02  0.00000000000E+00 0. -1.
         -1    1    3    3    0  502  0.44438748981E+03 -0.57939666173E+02 -0.42103356152E+03  0.61490365582E+03  0.00000000000E+00 0.  1.
         11    1    5    5    0    0 -0.31998829134E+01  0.24954533540E+02 -0.52102579505E+02  0.57858852269E+02  0.00000000000E+00 0. -1.
        -11    1    5    5    0    0  0.29621728755E+02  0.23600781152E+03 -0.15183731632E+04  0.15368910815E+04  0.00000000000E+00 0.  1.
          1    1    6    6  503    0 -0.37859427595E+02 -0.71850064458E+01 -0.14098548081E+02  0.41033274710E+02  0.00000000000E+00 0. -1.
         -1    1    6    6    0  503 -0.44677562637E+03 -0.18046178622E+03 -0.59389595332E+03  0.76477926225E+03  0.00000000000E+00 0.  1.
<mgrwt>
<rscale>  0 0.15489517E+04</rscale>
<asrwt>0</asrwt>
<pdfrwt beam="1">  1        2 0.43768867E+00 0.15489517E+04</pdfrwt>
<pdfrwt beam="2">  1       -1 0.32435734E-01 0.15489517E+04</pdfrwt>
<totfact> 0.21266420E+01</totfact>
</mgrwt>
</event>
<event>
12    6  0.1569942E-007  0.1570175E+04  0.7818608E-02  0.8839083E-01
         -1   -1    0    0    0  501 -0.00000000000E+00  0.00000000000E+00  0.19259427904E+03  0.19259427904E+03  0.00000000000E+00 0.  1.
          2   -1    0    0  501    0  0.00000000000E+00 -0.00000000000E+00 -0.32003155433E+04  0.32003155433E+04  0.00000000000E+00 0. -1.
         24    2    1    2    0    0 -0.52322018078E+03  0.38688160110E+02 -0.10243879143E+04  0.11536850017E+04  0.79764358479E+02 0.  0.
        254    2    1    2    0    0  0.52322018078E+03 -0.38688160110E+02 -0.19833333499E+04  0.22392248206E+04  0.89736307533E+03 0.  0.
         23    2    4    4    0    0  0.44792362331E+03  0.98830397284E+02 -0.20029605870E+04  0.20568942684E+04  0.92519721026E+02 0.  0.
         23    2    4    4    0    0  0.75296557468E+02 -0.13751855739E+03  0.19627237038E+02  0.18233055218E+03  0.90985035204E+02 0.  0.
          2    1    3    3  502    0 -0.45481423520E+03  0.22664846766E+02 -0.82579739044E+03  0.94303288060E+03  0.00000000000E+00 0. -1.
         -1    1    3    3    0  502 -0.68405945576E+02  0.16023313343E+02 -0.19859052388E+03  0.21065212113E+03  0.00000000000E+00 0.  1.
         11    1    5    5    0    0  0.39531177997E+03  0.11667630562E+03 -0.17842161372E+04  0.18312050645E+04  0.00000000000E+00 0.  1.
        -11    1    5    5    0    0  0.52611843343E+02 -0.17845908332E+02 -0.21874444973E+03  0.22568920398E+03  0.00000000000E+00 0. -1.
          1    1    6    6  503    0  0.24167590732E+02  0.91891021525E+01  0.43557599653E+01  0.26219929158E+02  0.00000000000E+00 0. -1.
         -1    1    6    6    0  503  0.51128966736E+02 -0.14670765955E+03  0.15271477073E+02  0.15611062302E+03  0.00000000000E+00 0.  1.
<mgrwt>
<rscale>  0 0.15701751E+04</rscale>
<asrwt>0</asrwt>
<pdfrwt beam="1">  1        2 0.49235627E+00 0.15701751E+04</pdfrwt>
<pdfrwt beam="2">  1       -1 0.29629887E-01 0.15701751E+04</pdfrwt>
<totfact> 0.14920180E+01</totfact>
</mgrwt>
</event>
<event>
12    6  0.1569942E-007  0.2576661E+04  0.7818608E-02  0.8376172E-01
          2   -1    0    0  501    0  0.00000000000E+00  0.00000000000E+00  0.24880936090E+04  0.24880936090E+04  0.00000000000E+00 0. -1.
         -1   -1    0    0    0  501 -0.00000000000E+00 -0.00000000000E+00 -0.66709552564E+03  0.66709552564E+03  0.00000000000E+00 0.  1.
         24    2    1    2    0    0 -0.10535692413E+04  0.31011948823E+03  0.11167405511E+04  0.15685967100E+04  0.84876008218E+02 0.  0.
        254    2    1    2    0    0  0.10535692413E+04 -0.31011948823E+03  0.70425753224E+03  0.15865924247E+04  0.90283697711E+03 0.  0.
         23    2    4    4    0    0  0.82085267847E+03 -0.41984013162E+03  0.86661625276E+03  0.12683823100E+04  0.87778692448E+02 0.  0.
         23    2    4    4    0    0  0.23271656282E+03  0.10972064339E+03 -0.16235872052E+03  0.31821011473E+03  0.93282928684E+02 0.  0.
          2    1    3    3  502    0 -0.83575962194E+03  0.23955995944E+03  0.83371692938E+03  0.12045609317E+04  0.00000000000E+00 0. -1.
         -1    1    3    3    0  502 -0.21780961936E+03  0.70559528789E+02  0.28302362176E+03  0.36403577827E+03  0.00000000000E+00 0.  1.
         11    1    5    5    0    0  0.74128191491E+03 -0.37565826530E+03  0.74210603113E+03  0.11141541056E+04  0.00000000000E+00 0.  1.
        -11    1    5    5    0    0  0.79570763558E+02 -0.44181866320E+02  0.12451022163E+03  0.15422820434E+03  0.00000000000E+00 0. -1.
          3    1    6    6  503    0  0.21452432086E+03  0.63348754616E+02 -0.12828009321E+03  0.25785564036E+03  0.00000000000E+00 0. -1.
         -3    1    6    6    0  503  0.18192241969E+02  0.46371888778E+02 -0.34078627312E+02  0.60354474368E+02  0.00000000000E+00 0.  1.
<mgrwt>
<rscale>  0 0.25766615E+04</rscale>
<asrwt>0</asrwt>
<pdfrwt beam="1">  1        2 0.38278363E+00 0.25766615E+04</pdfrwt>
<pdfrwt beam="2">  1       -1 0.10263008E+00 0.25766615E+04</pdfrwt>
<totfact> 0.31996160E+00</totfact>
</mgrwt>
</event>
<event>
12    6  0.1569942E-007  0.1395551E+04  0.7818608E-02  0.8957045E-01
         -1   -1    0    0    0  501 -0.00000000000E+00  0.00000000000E+00  0.15866229246E+03  0.15866229246E+03  0.00000000000E+00 0.  1.
          2   -1    0    0  501    0  0.00000000000E+00 -0.00000000000E+00 -0.30687223083E+04  0.30687223083E+04  0.00000000000E+00 0. -1.
         24    2    1    2    0    0 -0.33920981864E+03 -0.20427426519E+03 -0.65102863281E+03  0.76600199054E+03  0.78291074087E+02 0.  0.
        254    2    1    2    0    0  0.33920981864E+03  0.20427426519E+03 -0.22590313830E+04  0.24613826102E+04  0.89352688146E+03 0.  0.
         23    2    4    4    0    0  0.51640861480E+03 -0.50692773659E+02 -0.19314862958E+04  0.20020538493E+04  0.91283568131E+02 0.  0.
         23    2    4    4    0    0 -0.17719879616E+03  0.25496703885E+03 -0.32754508722E+03  0.45932876093E+03  0.85378698706E+02 0.  0.
          4    1    3    3  502    0 -0.21670002621E+03 -0.15263864952E+03 -0.37035862851E+03  0.45543712234E+03  0.00000000000E+00 0. -1.
         -3    1    3    3    0  502 -0.12250979243E+03 -0.51635615672E+02 -0.28067000430E+03  0.31056486820E+03  0.00000000000E+00 0.  1.
         11    1    5    5    0    0  0.34020651581E+03 -0.68892746085E+02 -0.13699133954E+04  0.14132053619E+04  0.00000000000E+00 0. -1.
        -11    1    5    5    0    0  0.17620209899E+03  0.18199972426E+02 -0.56157290035E+03  0.58884848738E+03  0.00000000000E+00 0.  1.
          1    1    6    6  503    0 -0.13815090752E+01  0.25120200214E+02 -0.43826406493E+01  0.25537043000E+02  0.00000000000E+00 0. -1.
         -1    1    6    6    0  503 -0.17581728709E+03  0.22984683864E+03 -0.32316244657E+03  0.43379171793E+03  0.00000000000E+00 0.  1.
<mgrwt>
<rscale>  0 0.13955508E+04</rscale>
<asrwt>0</asrwt>
<pdfrwt beam="1">  1        2 0.47211109E+00 0.13955508E+04</pdfrwt>
<pdfrwt beam="2">  1       -1 0.24409585E-01 0.13955508E+04</pdfrwt>
<totfact> 0.25755991E+01</totfact>
</mgrwt>
</event>
<event>
12    6  0.1569942E-007  0.1468460E+04  0.7818608E-02  0.8905702E-01
         -1   -1    0    0    0  501 -0.00000000000E+00  0.00000000000E+00  0.21896830522E+03  0.21896830522E+03  0.00000000000E+00 0.  1.
          2   -1    0    0  501    0  0.00000000000E+00 -0.00000000000E+00 -0.24619710911E+04  0.24619710911E+04  0.00000000000E+00 0. -1.
         24    2    1    2    0    0  0.64448711372E+02  0.75466802790E+02 -0.14725817646E+04  0.14780625666E+04  0.79517436101E+02 0.  0.
        254    2    1    2    0    0 -0.64448711372E+02 -0.75466802790E+02 -0.77042102124E+03  0.12028768297E+04  0.91843085896E+03 0.  0.
         23    2    4    4    0    0 -0.44617622109E+03 -0.20534800353E+03 -0.51303910763E+03  0.71597144516E+03  0.90360176546E+02 0.  0.
         23    2    4    4    0    0  0.38172750972E+03  0.12988120074E+03 -0.25738191361E+03  0.48690538452E+03  0.90809614282E+02 0.  0.
          2    1    3    3  502    0  0.83388190544E+02  0.60343914298E+02 -0.11934030283E+04  0.11978337808E+04  0.00000000000E+00 0. -1.
         -1    1    3    3    0  502 -0.18939479172E+02  0.15122888491E+02 -0.27917873628E+03  0.28022878585E+03  0.00000000000E+00 0.  1.
         11    1    5    5    0    0 -0.33559743958E+03 -0.17804715869E+03 -0.34636079063E+03  0.51409359990E+03  0.00000000000E+00 0.  1.
        -11    1    5    5    0    0 -0.11057878150E+03 -0.27300844838E+02 -0.16667831700E+03  0.20187784526E+03  0.00000000000E+00 0. -1.
          1    1    6    6  503    0  0.49880737670E+02  0.50364291646E+02 -0.58731321473E+02  0.92054429472E+02  0.00000000000E+00 0. -1.
         -1    1    6    6    0  503  0.33184677205E+03  0.79516909091E+02 -0.19865059213E+03  0.39485095505E+03  0.00000000000E+00 0.  1.
<mgrwt>
<rscale>  0 0.14684599E+04</rscale>
<asrwt>0</asrwt>
<pdfrwt beam="1">  1        2 0.37876476E+00 0.14684599E+04</pdfrwt>
<pdfrwt beam="2">  1       -1 0.33687434E-01 0.14684599E+04</pdfrwt>
<totfact> 0.33656636E+01</totfact>
</mgrwt>
</event>
<event>
12    6  0.1569942E-007  0.1647356E+04  0.7818608E-02  0.8791972E-01
         -1   -1    0    0    0  501 -0.00000000000E+00  0.00000000000E+00  0.85467959775E+03  0.85467959775E+03  0.00000000000E+00 0.  1.
          2   -1    0    0  501    0  0.00000000000E+00 -0.00000000000E+00 -0.79380116297E+03  0.79380116297E+03  0.00000000000E+00 0. -1.
         24    2    1    2    0    0 -0.50691214385E+03 -0.24329792229E+03  0.23536965999E+03  0.61474623465E+03  0.79751210637E+02 0.  0.
        254    2    1    2    0    0  0.50691214385E+03  0.24329792229E+03 -0.17449122521E+03  0.10337345261E+04  0.84970941041E+03 0.  0.
         23    2    4    4    0    0  0.15773038638E+02  0.42839924095E+03 -0.23541596264E+03  0.49648197626E+03  0.85434061636E+02 0.  0.
         23    2    4    4    0    0  0.49113910522E+03 -0.18510131867E+03  0.60924737435E+02  0.53725254981E+03  0.97202673846E+02 0.  0.
          4    1    3    3  502    0 -0.40753092193E+02  0.17219858331E+01  0.23660255762E+02  0.47154930402E+02  0.00000000000E+00 0. -1.
         -3    1    3    3    0  502 -0.46615905166E+03 -0.24501990812E+03  0.21170940423E+03  0.56759130425E+03  0.00000000000E+00 0.  1.
         11    1    5    5    0    0  0.27996907530E+02  0.74269999811E+02 -0.68291391307E+02  0.10470708586E+03  0.00000000000E+00 0. -1.
        -11    1    5    5    0    0 -0.12223868892E+02  0.35412924114E+03 -0.16712457134E+03  0.39177489040E+03  0.00000000000E+00 0.  1.
          1    1    6    6  503    0  0.43360403243E+03 -0.19192113148E+03  0.67433025041E+02  0.47895030067E+03  0.00000000000E+00 0. -1.
         -1    1    6    6    0  503  0.57535072785E+02  0.68198128101E+01 -0.65082876058E+01  0.58302249140E+02  0.00000000000E+00 0.  1.
<mgrwt>
<rscale>  0 0.16473563E+04</rscale>
<asrwt>0</asrwt>
<pdfrwt beam="1">  1        2 0.12212326E+00 0.16473563E+04</pdfrwt>
<pdfrwt beam="2">  1       -1 0.13148917E+00 0.16473563E+04</pdfrwt>
<totfact> 0.18709040E+01</totfact>
</mgrwt>
</event>
<event>
12    6  0.1569942E-007  0.2131112E+04  0.7818608E-02  0.8547661E-01
          2   -1    0    0  501    0  0.00000000000E+00  0.00000000000E+00  0.11710730589E+04  0.11710730589E+04  0.00000000000E+00 0. -1.
         -1   -1    0    0    0  501 -0.00000000000E+00 -0.00000000000E+00 -0.96954596214E+03  0.96954596214E+03  0.00000000000E+00 0.  1.
         24    2    1    2    0    0  0.54749677124E+02 -0.29792441356E+03  0.90774285687E+03  0.95992106217E+03  0.75464349546E+02 0.  0.
        254    2    1    2    0    0 -0.54749677124E+02  0.29792441356E+03 -0.70621576015E+03  0.11806979588E+04  0.89640977614E+03 0.  0.
         23    2    4    4    0    0  0.99019821395E+02  0.15966808176E+03 -0.87350756764E+03  0.89846895712E+03  0.94510183673E+02 0.  0.
         23    2    4    4    0    0 -0.15376949852E+03  0.13825633180E+03  0.16729180749E+03  0.28222900172E+03  0.94375783975E+02 0.  0.
          4    1    3    3  502    0 -0.12109998055E+00 -0.15374021340E+03  0.53119889433E+03  0.55299939713E+03  0.00000000000E+00 0. -1.
         -3    1    3    3    0  502  0.54870777105E+02 -0.14418420017E+03  0.37654396254E+03  0.40692166504E+03  0.00000000000E+00 0.  1.
         11    1    5    5    0    0  0.16910287731E+01  0.89643698488E+02 -0.33664465724E+03  0.34837978918E+03  0.00000000000E+00 0. -1.
        -11    1    5    5    0    0  0.97328792622E+02  0.70024383277E+02 -0.53686291039E+03  0.55008916794E+03  0.00000000000E+00 0.  1.
          2    1    6    6  503    0 -0.37194990031E+02 -0.99086239737E+01  0.23208130819E+02  0.44947363088E+02  0.00000000000E+00 0. -1.
         -2    1    6    6    0  503 -0.11657450849E+03  0.14816495577E+03  0.14408367667E+03  0.23728163863E+03  0.00000000000E+00 0.  1.
<mgrwt>
<rscale>  0 0.21311116E+04</rscale>
<asrwt>0</asrwt>
<pdfrwt beam="1">  1        2 0.18016509E+00 0.21311116E+04</pdfrwt>
<pdfrwt beam="2">  1       -1 0.14916092E+00 0.21311116E+04</pdfrwt>
<totfact> 0.73190307E+00</totfact>
</mgrwt>
</event>
<event>
12    6  0.1569942E-007  0.1939045E+04  0.7818608E-02  0.8635661E-01
          2   -1    0    0  501    0  0.00000000000E+00  0.00000000000E+00  0.12602366760E+04  0.12602366760E+04  0.00000000000E+00 0. -1.
         -1   -1    0    0    0  501 -0.00000000000E+00 -0.00000000000E+00 -0.74587118353E+03  0.74587118353E+03  0.00000000000E+00 0.  1.
         24    2    1    2    0    0  0.62739288911E+03  0.29073831979E+03  0.51917054063E+03  0.86838309372E+03  0.80003370624E+02 0.  0.
        254    2    1    2    0    0 -0.62739288911E+03 -0.29073831979E+03 -0.48050481662E+01  0.11377247658E+04  0.90346219972E+03 0.  0.
         23    2    4    4    0    0 -0.40900021913E+03 -0.41425865361E+03  0.35616675139E+03  0.68865029530E+03  0.92157816163E+02 0.  0.
         23    2    4    4    0    0 -0.21839266998E+03  0.12352033382E+03 -0.36097179956E+03  0.44907447050E+03  0.91731176861E+02 0.  0.
          2    1    3    3  502    0  0.51694527539E+03  0.21605779637E+03  0.44721977365E+03  0.71688138145E+03  0.00000000000E+00 0. -1.
         -1    1    3    3    0  502  0.11044761372E+03  0.74680523416E+02  0.71950766972E+02  0.15150171227E+03  0.00000000000E+00 0.  1.
         11    1    5    5    0    0 -0.94745207403E+02 -0.46831413343E+02  0.56761722629E+02  0.11996553154E+03  0.00000000000E+00 0.  1.
        -11    1    5    5    0    0 -0.31425501173E+03 -0.36742724026E+03  0.29940502876E+03  0.56868476376E+03  0.00000000000E+00 0. -1.
          3    1    6    6  503    0 -0.22427626075E+03  0.11829062555E+03 -0.36106335068E+03  0.44120205851E+03  0.00000000000E+00 0. -1.
         -3    1    6    6    0  503  0.58835907705E+01  0.52297082667E+01  0.91551119476E-01  0.78724119885E+01  0.00000000000E+00 0.  1.
<mgrwt>
<rscale>  0 0.19390454E+04</rscale>
<asrwt>0</asrwt>
<pdfrwt beam="1">  1        2 0.19388257E+00 0.19390454E+04</pdfrwt>
<pdfrwt beam="2">  1       -1 0.11474941E+00 0.19390454E+04</pdfrwt>
<totfact> 0.12811986E+01</totfact>
</mgrwt>
</event>
<event>
12    6  0.1569942E-007  0.1536548E+04  0.7818608E-02  0.8860506E-01
         -1   -1    0    0    0  501 -0.00000000000E+00  0.00000000000E+00  0.19921930415E+04  0.19921930415E+04  0.00000000000E+00 0.  1.
          2   -1    0    0  501    0  0.00000000000E+00 -0.00000000000E+00 -0.29627917881E+03  0.29627917881E+03  0.00000000000E+00 0. -1.
         24    2    1    2    0    0  0.27874499714E+03  0.81695834012E+02 -0.42377748846E+02  0.30407300226E+03  0.79319193028E+02 0.  0.
        254    2    1    2    0    0 -0.27874499714E+03 -0.81695834012E+02  0.17382916115E+04  0.19843992180E+04  0.91203593520E+03 0.  0.
         23    2    4    4    0    0 -0.45780306751E+03 -0.19132380159E+02  0.35960339652E+03  0.58974957077E+03  0.92413510047E+02 0.  0.
         23    2    4    4    0    0  0.17905807037E+03 -0.62563453853E+02  0.13786882150E+04  0.13946496473E+04  0.91051996657E+02 0.  0.
          4    1    3    3  502    0  0.24005040749E+03  0.80218977441E+02 -0.95036132829E+01  0.25327771545E+03  0.00000000000E+00 0. -1.
         -3    1    3    3    0  502  0.38694589650E+02  0.14768565714E+01 -0.32874135563E+02  0.50795286814E+02  0.00000000000E+00 0.  1.
         11    1    5    5    0    0 -0.38891365871E+03 -0.49592841813E+02  0.29868671529E+03  0.49287629055E+03  0.00000000000E+00 0.  1.
        -11    1    5    5    0    0 -0.68889408799E+02  0.30460461654E+02  0.60916681232E+02  0.96873280223E+02  0.00000000000E+00 0. -1.
          3    1    6    6  503    0  0.15961780293E+03 -0.74167481814E+02  0.10064958129E+04  0.10217692889E+04  0.00000000000E+00 0. -1.
         -3    1    6    6    0  503  0.19440267445E+02  0.11604027961E+02  0.37219240205E+03  0.37288035831E+03  0.00000000000E+00 0.  1.
<mgrwt>
<rscale>  0 0.15365485E+04</rscale>
<asrwt>0</asrwt>
<pdfrwt beam="1">  1        2 0.45581413E-01 0.15365485E+04</pdfrwt>
<pdfrwt beam="2">  1       -1 0.30649123E+00 0.15365485E+04</pdfrwt>
<totfact> 0.36908725E+00</totfact>
</mgrwt>
</event>
<event>
12    6  0.1569942E-007  0.1271331E+04  0.7818608E-02  0.9052614E-01
         -1   -1    0    0    0  501 -0.00000000000E+00  0.00000000000E+00  0.94225957902E+03  0.94225957902E+03  0.00000000000E+00 0.  1.
          2   -1    0    0  501    0  0.00000000000E+00 -0.00000000000E+00 -0.42883180664E+03  0.42883180664E+03  0.00000000000E+00 0. -1.
         24    2    1    2    0    0  0.45663388956E+02 -0.10501469068E+02  0.45599438248E+03  0.46521840163E+03  0.79384245432E+02 0.  0.
        254    2    1    2    0    0 -0.45663388956E+02  0.10501469068E+02  0.57433389897E+02  0.90587298403E+03  0.90283544623E+03 0.  0.
         23    2    4    4    0    0 -0.74490098118E+02 -0.30590922793E+03 -0.28193649405E+03  0.43246442155E+03  0.91695467600E+02 0.  0.
         23    2    4    4    0    0  0.28826709162E+02  0.31641069700E+03  0.33936988395E+03  0.47340856248E+03  0.89426173807E+02 0.  0.
          4    1    3    3  502    0  0.25769956594E+01  0.23290219097E+02  0.46409944257E+02  0.51989981133E+02  0.00000000000E+00 0. -1.
         -3    1    3    3    0  502  0.43086393296E+02 -0.33791688166E+02  0.40958443822E+03  0.41322842050E+03  0.00000000000E+00 0.  1.
         11    1    5    5    0    0 -0.70812270376E+02 -0.30830732587E+03 -0.25821917319E+03  0.40834412721E+03  0.00000000000E+00 0. -1.
        -11    1    5    5    0    0 -0.36778277418E+01  0.23980979361E+01 -0.23717320857E+02  0.24120294344E+02  0.00000000000E+00 0.  1.
          2    1    6    6  503    0  0.29574762571E+01  0.29826226791E+03  0.31142247067E+03  0.43122277579E+03  0.00000000000E+00 0. -1.
         -2    1    6    6    0  503  0.25869232905E+02  0.18148429091E+02  0.27947413281E+02  0.42185786690E+02  0.00000000000E+00 0.  1.
<mgrwt>
<rscale>  0 0.12713314E+04</rscale>
<asrwt>0</asrwt>
<pdfrwt beam="1">  1        2 0.65974124E-01 0.12713314E+04</pdfrwt>
<pdfrwt beam="2">  1       -1 0.14496301E+00 0.12713314E+04</pdfrwt>
<totfact> 0.31573941E+01</totfact>
</mgrwt>
</event>
<event>
12    6  0.1569942E-007  0.2637490E+04  0.7818608E-02  0.8355577E-01
          2   -1    0    0  501    0  0.00000000000E+00  0.00000000000E+00  0.15227214630E+04  0.15227214630E+04  0.00000000000E+00 0. -1.
         -1   -1    0    0    0  501 -0.00000000000E+00 -0.00000000000E+00 -0.11420925754E+04  0.11420925754E+04  0.00000000000E+00 0.  1.
         24    2    1    2    0    0 -0.94732331980E+03  0.65620453875E+03  0.12910120158E+02  0.11551538942E+04  0.78663709889E+02 0.  0.
        254    2    1    2    0    0  0.94732331980E+03 -0.65620453875E+03  0.36771876746E+03  0.15096601441E+04  0.90323351901E+03 0.  0.
         23    2    4    4    0    0  0.18491546020E+03 -0.93497389141E+02 -0.27854027075E+03  0.35909587153E+03  0.91813252460E+02 0.  0.
         23    2    4    4    0    0  0.76240785960E+03 -0.56270714961E+03  0.64625903822E+03  0.11505642726E+04  0.90787225163E+02 0.  0.
          4    1    3    3  502    0 -0.12537392184E+03  0.10460495688E+03  0.25095333920E+02  0.16519864729E+03  0.00000000000E+00 0. -1.
         -3    1    3    3    0  502 -0.82194939795E+03  0.55159958187E+03 -0.12185213762E+02  0.98995524694E+03  0.00000000000E+00 0.  1.
         11    1    5    5    0    0  0.42368021584E+02 -0.70261544578E+02 -0.10750736156E+03  0.13523892446E+03  0.00000000000E+00 0. -1.
        -11    1    5    5    0    0  0.14254743861E+03 -0.23235844563E+02 -0.17103290919E+03  0.22385694708E+03  0.00000000000E+00 0.  1.
          1    1    6    6  503    0  0.63059283480E+03 -0.42115345469E+03  0.52421305932E+03  0.92185513355E+03  0.00000000000E+00 0. -1.
         -1    1    6    6    0  503  0.13181502480E+03 -0.14155369491E+03  0.12204597890E+03  0.22870913902E+03  0.00000000000E+00 0.  1.
<mgrwt>
<rscale>  0 0.26374904E+04</rscale>
<asrwt>0</asrwt>
<pdfrwt beam="1">  1        2 0.23426484E+00 0.26374904E+04</pdfrwt>
<pdfrwt beam="2">  1       -1 0.17570655E+00 0.26374904E+04</pdfrwt>
<totfact> 0.27666738E+00</totfact>
</mgrwt>
</event>
<event>
12    6  0.1569942E-007  0.1807241E+04  0.7818608E-02  0.8702458E-01
          2   -1    0    0  501    0  0.00000000000E+00  0.00000000000E+00  0.17592451771E+04  0.17592451771E+04  0.00000000000E+00 0. -1.
         -1   -1    0    0    0  501 -0.00000000000E+00 -0.00000000000E+00 -0.46413656286E+03  0.46413656286E+03  0.00000000000E+00 0.  1.
         24    2    1    2    0    0 -0.32577294019E+03  0.97759803877E+02  0.11891074057E+04  0.12395930960E+04  0.83244419773E+02 0.  0.
        254    2    1    2    0    0  0.32577294019E+03 -0.97759803877E+02  0.10600120850E+03  0.98378864398E+03  0.91701627685E+03 0.  0.
         23    2    4    4    0    0  0.32934696278E+03  0.32961205662E+03 -0.12221513194E+03  0.49082492896E+03  0.94122487479E+02 0.  0.
         23    2    4    4    0    0 -0.35740225841E+01 -0.42737186050E+03  0.22821634045E+03  0.49296371503E+03  0.90945288505E+02 0.  0.
          4    1    3    3  502    0 -0.18223001276E+03  0.97106428758E+02  0.71806084885E+03  0.74716050398E+03  0.00000000000E+00 0. -1.
         -3    1    3    3    0  502 -0.14354292744E+03  0.65337511943E+00  0.47104655686E+03  0.49243259198E+03  0.00000000000E+00 0.  1.
         11    1    5    5    0    0  0.27454824707E+03  0.27643216636E+03 -0.64049101965E+02  0.39483385116E+03  0.00000000000E+00 0. -1.
        -11    1    5    5    0    0  0.54798715709E+02  0.53179890264E+02 -0.58166029978E+02  0.95991077790E+02  0.00000000000E+00 0.  1.
          3    1    6    6  503    0  0.20524781476E+02 -0.47323662802E+02  0.56740233193E+01  0.51894029100E+02  0.00000000000E+00 0.  1.
         -3    1    6    6    0  503 -0.24098804060E+02 -0.38004819770E+03  0.22254231713E+03  0.44106968592E+03  0.00000000000E+00 0. -1.
<mgrwt>
<rscale>  0 0.18072410E+04</rscale>
<asrwt>0</asrwt>
<pdfrwt beam="1">  1        2 0.27065310E+00 0.18072410E+04</pdfrwt>
<pdfrwt beam="2">  1       -1 0.71405626E-01 0.18072410E+04</pdfrwt>
<totfact> 0.19345667E+01</totfact>
</mgrwt>
</event>
<event>
12    6  0.1569942E-007  0.2275218E+04  0.7818608E-02  0.8487757E-01
          2   -1    0    0  501    0  0.00000000000E+00  0.00000000000E+00  0.23873296659E+04  0.23873296659E+04  0.00000000000E+00 0. -1.
         -1   -1    0    0    0  501 -0.00000000000E+00 -0.00000000000E+00 -0.54209289318E+03  0.54209289318E+03  0.00000000000E+00 0.  1.
         24    2    1    2    0    0  0.28740753709E+03  0.73416794544E+03  0.74403228945E+02  0.79596081720E+03  0.80075698854E+02 0.  0.
        254    2    1    2    0    0 -0.28740753709E+03 -0.73416794544E+03  0.17708335438E+04  0.21334617419E+04  0.89118006031E+03 0.  0.
         23    2    4    4    0    0 -0.57230915927E+03 -0.32628405381E+03  0.11911936399E+04  0.13642091213E+04  0.90139788285E+02 0.  0.
         23    2    4    4    0    0  0.28490162218E+03 -0.40788389163E+03  0.57963990392E+03  0.76925262060E+03  0.90713685384E+02 0.  0.
          4    1    3    3  502    0  0.10263228308E+03  0.26519614188E+03  0.65562794527E+02  0.29182333564E+03  0.00000000000E+00 0. -1.
         -3    1    3    3    0  502  0.18477525401E+03  0.46897180356E+03  0.88404344178E+01  0.50413748155E+03  0.00000000000E+00 0.  1.
         11    1    5    5    0    0 -0.55717719437E+03 -0.29727836224E+03  0.11179500896E+04  0.12839911423E+04  0.00000000000E+00 0.  1.
        -11    1    5    5    0    0 -0.15131964901E+02 -0.29005691572E+02  0.73243550242E+02  0.80217979016E+02  0.00000000000E+00 0. -1.
          1    1    6    6  503    0  0.46484104779E+02 -0.88255376142E+02  0.68650782074E+02  0.12108969112E+03  0.00000000000E+00 0. -1.
         -1    1    6    6    0  503  0.23841751740E+03 -0.31962851549E+03  0.51098912184E+03  0.64816292948E+03  0.00000000000E+00 0.  1.
<mgrwt>
<rscale>  0 0.22752182E+04</rscale>
<asrwt>0</asrwt>
<pdfrwt beam="1">  1        2 0.36728148E+00 0.22752182E+04</pdfrwt>
<pdfrwt beam="2">  1       -1 0.83398908E-01 0.22752182E+04</pdfrwt>
<totfact> 0.59610768E+00</totfact>
</mgrwt>
</event>
<event>
12    6  0.1569942E-007  0.1631617E+04  0.7818608E-02  0.8801356E-01
         -1   -1    0    0    0  501 -0.00000000000E+00  0.00000000000E+00  0.64467358434E+03  0.64467358434E+03  0.00000000000E+00 0.  1.
          2   -1    0    0  501    0  0.00000000000E+00 -0.00000000000E+00 -0.10323733537E+04  0.10323733537E+04  0.00000000000E+00 0. -1.
         24    2    1    2    0    0  0.93260577936E-01 -0.53753867150E+03  0.31223574968E+02  0.54578130405E+03  0.89187937275E+02 0.  0.
        254    2    1    2    0    0 -0.93260577936E-01  0.53753867150E+03 -0.41892334434E+03  0.11312656340E+04  0.90294924230E+03 0.  0.
         23    2    4    4    0    0 -0.23732518154E+03  0.64002643188E+03 -0.49435885898E+03  0.84783011853E+03  0.92022568589E+02 0.  0.
         23    2    4    4    0    0  0.23723192096E+03 -0.10248776038E+03  0.75435514640E+02  0.28343551547E+03  0.88670452858E+02 0.  0.
          4    1    3    3  502    0  0.52269275530E+01 -0.23168692244E+03 -0.30429860711E+02  0.23373516472E+03  0.00000000000E+00 0. -1.
         -3    1    3    3    0  502 -0.51336669750E+01 -0.30585174906E+03  0.61653435679E+02  0.31204613933E+03  0.00000000000E+00 0.  1.
         11    1    5    5    0    0 -0.16360177406E+03  0.31679749538E+03 -0.23694768197E+03  0.42810091982E+03  0.00000000000E+00 0. -1.
        -11    1    5    5    0    0 -0.73723407477E+02  0.32322893650E+03 -0.25741117700E+03  0.41972919871E+03  0.00000000000E+00 0.  1.
          1    1    6    6  503    0  0.96935368114E+02  0.38841001992E+01  0.22518219089E+02  0.99592278901E+02  0.00000000000E+00 0. -1.
         -1    1    6    6    0  503  0.14029655285E+03 -0.10637186058E+03  0.52917295551E+02  0.18384323657E+03  0.00000000000E+00 0.  1.
<mgrwt>
<rscale>  0 0.16316174E+04</rscale>
<asrwt>0</asrwt>
<pdfrwt beam="1">  1        2 0.15882667E+00 0.16316174E+04</pdfrwt>
<pdfrwt beam="2">  1       -1 0.99180552E-01 0.16316174E+04</pdfrwt>
<totfact> 0.25460722E+01</totfact>
</mgrwt>
</event>
<event>
12    6  0.1569942E-007  0.1943116E+04  0.7818608E-02  0.8633687E-01
          2   -1    0    0  501    0  0.00000000000E+00  0.00000000000E+00  0.24167378726E+04  0.24167378726E+04  0.00000000000E+00 0. -1.
         -1   -1    0    0    0  501 -0.00000000000E+00 -0.00000000000E+00 -0.39057817503E+03  0.39057817503E+03  0.00000000000E+00 0.  1.
         24    2    1    2    0    0 -0.59997072507E+03  0.38501495646E+03  0.11718327584E+04  0.13739103790E+04  0.78970426269E+02 0.  0.
        254    2    1    2    0    0  0.59997072507E+03 -0.38501495646E+03  0.85432693913E+03  0.14334056686E+04  0.90364589537E+03 0.  0.
         23    2    4    4    0    0  0.57632530335E+03 -0.53608156318E+03  0.94455384276E+03  0.12328546618E+04  0.90633092677E+02 0.  0.
         23    2    4    4    0    0  0.23645421718E+02  0.15106660672E+03 -0.90226903630E+02  0.20055100684E+03  0.93271574294E+02 0.  0.
          2    1    3    3  502    0 -0.41556233657E+02  0.63364936267E+01  0.57328513842E+02  0.71088889473E+02  0.00000000000E+00 0. -1.
         -1    1    3    3    0  502 -0.55841449142E+03  0.37867846283E+03  0.11145042446E+04  0.13028214896E+04  0.00000000000E+00 0.  1.
         11    1    5    5    0    0  0.55225818210E+03 -0.48214227503E+03  0.87988413355E+03  0.11452713048E+04  0.00000000000E+00 0. -1.
        -11    1    5    5    0    0  0.24067121250E+02 -0.53939288153E+02  0.64669709205E+02  0.87583356982E+02  0.00000000000E+00 0.  1.
          3    1    6    6  503    0  0.16496089546E+01  0.15533373439E+03 -0.86608617163E+02  0.17785483636E+03  0.00000000000E+00 0. -1.
         -3    1    6    6    0  503  0.21995812764E+02 -0.42671276661E+01 -0.36182864674E+01  0.22696170483E+02  0.00000000000E+00 0.  1.
<mgrwt>
<rscale>  0 0.19431161E+04</rscale>
<asrwt>0</asrwt>
<pdfrwt beam="1">  1        2 0.37180582E+00 0.19431161E+04</pdfrwt>
<pdfrwt beam="2">  1       -1 0.60088951E-01 0.19431161E+04</pdfrwt>
<totfact> 0.11608614E+01</totfact>
</mgrwt>
</event>
<event>
12    6  0.1569942E-007  0.1692424E+04  0.7818608E-02  0.8765697E-01
         -1   -1    0    0    0  501 -0.00000000000E+00  0.00000000000E+00  0.32109861391E+03  0.32109861391E+03  0.00000000000E+00 0.  1.
          2   -1    0    0  501    0  0.00000000000E+00 -0.00000000000E+00 -0.22300784052E+04  0.22300784052E+04  0.00000000000E+00 0. -1.
         24    2    1    2    0    0 -0.22539367460E+03 -0.20152235118E+02  0.15449797925E+03  0.28534853169E+03  0.79660139444E+02 0.  0.
        254    2    1    2    0    0  0.22539367460E+03  0.20152235118E+02 -0.20634777705E+04  0.22658284874E+04  0.90820141145E+03 0.  0.
         23    2    4    4    0    0  0.49767830479E+03  0.16270706386E+03 -0.78912231816E+03  0.95134030794E+03  0.90427124299E+02 0.  0.
         23    2    4    4    0    0 -0.27228463020E+03 -0.14255482875E+03 -0.12743554524E+04  0.13144881794E+04  0.97141937015E+02 0.  0.
          4    1    3    3  502    0 -0.14428014509E+02  0.20469715353E+02  0.17265877251E+02  0.30418536562E+02  0.00000000000E+00 0. -1.
         -3    1    3    3    0  502 -0.21096566009E+03 -0.40621950472E+02  0.13723210200E+03  0.25492999513E+03  0.00000000000E+00 0.  1.
         11    1    5    5    0    0  0.16408038689E+03  0.98066014272E+01 -0.24674312401E+03  0.29648054243E+03  0.00000000000E+00 0.  1.
        -11    1    5    5    0    0  0.33359791790E+03  0.15290046244E+03 -0.54237919415E+03  0.65485976551E+03  0.00000000000E+00 0. -1.
          4    1    6    6  503    0 -0.22132090556E+03 -0.15321743617E+03 -0.11047058099E+04  0.11370283429E+04  0.00000000000E+00 0. -1.
         -4    1    6    6    0  503 -0.50963724640E+02  0.10662607423E+02 -0.16964964241E+03  0.17745983657E+03  0.00000000000E+00 0.  1.
<mgrwt>
<rscale>  0 0.16924244E+04</rscale>
<asrwt>0</asrwt>
<pdfrwt beam="1">  1        2 0.34308898E+00 0.16924244E+04</pdfrwt>
<pdfrwt beam="2">  1       -1 0.49399787E-01 0.16924244E+04</pdfrwt>
<totfact> 0.22130345E+01</totfact>
</mgrwt>
</event>
<event>
12    6  0.1569942E-007  0.1777600E+04  0.7818608E-02  0.8718303E-01
          2   -1    0    0  501    0  0.00000000000E+00  0.00000000000E+00  0.77304152554E+03  0.77304152554E+03  0.00000000000E+00 0. -1.
         -1   -1    0    0    0  501 -0.00000000000E+00 -0.00000000000E+00 -0.10218929192E+04  0.10218929192E+04  0.00000000000E+00 0.  1.
         24    2    1    2    0    0 -0.59567703536E+03  0.26744344471E+03 -0.24803243275E+02  0.65817101018E+03  0.78846377131E+02 0.  0.
        254    2    1    2    0    0  0.59567703536E+03 -0.26744344471E+03 -0.22404815042E+03  0.11367634346E+04  0.90314805319E+03 0.  0.
         23    2    4    4    0    0  0.49104893802E+03 -0.56769273775E+03 -0.37153865781E+02  0.75688058342E+03  0.89909419924E+02 0.  0.
         23    2    4    4    0    0  0.10462809734E+03  0.30024929303E+03 -0.18689428464E+03  0.37988285119E+03  0.91021043038E+02 0.  0.
          2    1    3    3  502    0 -0.23615364460E+03  0.82595470234E+02 -0.41338720375E+02  0.25357335302E+03  0.00000000000E+00 0. -1.
         -1    1    3    3    0  502 -0.35952339076E+03  0.18484797448E+03  0.16535477100E+02  0.40459765715E+03  0.00000000000E+00 0.  1.
         11    1    5    5    0    0  0.15124143398E+03 -0.21498252522E+03  0.20904250524E+02  0.26368247039E+03  0.00000000000E+00 0.  1.
        -11    1    5    5    0    0  0.33980750404E+03 -0.35271021253E+03 -0.58058116304E+02  0.49319811303E+03  0.00000000000E+00 0. -1.
          1    1    6    6  503    0  0.24587302280E+02  0.20422344196E+03 -0.11418924990E+03  0.23526779311E+03  0.00000000000E+00 0. -1.
         -1    1    6    6    0  503  0.80040795057E+02  0.96025851071E+02 -0.72705034740E+02  0.14461505808E+03  0.00000000000E+00 0.  1.
<mgrwt>
<rscale>  0 0.17776002E+04</rscale>
<asrwt>0</asrwt>
<pdfrwt beam="1">  1        2 0.11892947E+00 0.17776002E+04</pdfrwt>
<pdfrwt beam="2">  1       -1 0.15721429E+00 0.17776002E+04</pdfrwt>
<totfact> 0.11943190E+01</totfact>
</mgrwt>
</event>
<event>
12    6  0.1569942E-007  0.1960871E+04  0.7818608E-02  0.8625137E-01
         -1   -1    0    0    0  501 -0.00000000000E+00  0.00000000000E+00  0.91398529674E+03  0.91398529674E+03  0.00000000000E+00 0.  1.
          2   -1    0    0  501    0  0.00000000000E+00 -0.00000000000E+00 -0.10517164627E+04  0.10517164627E+04  0.00000000000E+00 0. -1.
         24    2    1    2    0    0 -0.75510478653E+03  0.13936098975E+03 -0.62148761915E+02  0.77461781664E+03  0.81028199731E+02 0.  0.
        254    2    1    2    0    0  0.75510478653E+03 -0.13936098975E+03 -0.75582404025E+02  0.11910839428E+04  0.90739381465E+03 0.  0.
         23    2    4    4    0    0  0.19046626110E+03 -0.47088456441E+03  0.47592967388E+02  0.51886117120E+03  0.94562967484E+02 0.  0.
         23    2    4    4    0    0  0.56463852542E+03  0.33152357466E+03 -0.12317537141E+03  0.67222277158E+03  0.89368549042E+02 0.  0.
          4    1    3    3  502    0 -0.73975664810E+03  0.14761592996E+03 -0.57225605861E+02  0.75650851360E+03  0.00000000000E+00 0. -1.
         -3    1    3    3    0  502 -0.15348138427E+02 -0.82549402110E+01 -0.49231560540E+01  0.18109303040E+02  0.00000000000E+00 0.  1.
         11    1    5    5    0    0  0.19379126412E+03 -0.44765863936E+03  0.28543499747E+02  0.48863896981E+03  0.00000000000E+00 0. -1.
        -11    1    5    5    0    0 -0.33250030163E+01 -0.23225925056E+02  0.19049467641E+02  0.30222201395E+02  0.00000000000E+00 0.  1.
          1    1    6    6  503    0  0.42130902125E+03  0.28375918112E+03 -0.11565238468E+03  0.52095684882E+03  0.00000000000E+00 0. -1.
         -1    1    6    6    0  503  0.14332950418E+03  0.47764393541E+02 -0.75229867376E+01  0.15126592276E+03  0.00000000000E+00 0.  1.
<mgrwt>
<rscale>  0 0.19608706E+04</rscale>
<asrwt>0</asrwt>
<pdfrwt beam="1">  1        2 0.16180253E+00 0.19608706E+04</pdfrwt>
<pdfrwt beam="2">  1       -1 0.14061312E+00 0.19608706E+04</pdfrwt>
<totfact> 0.10286709E+01</totfact>
</mgrwt>
</event>
<event>
12    6  0.1569942E-007  0.1424855E+04  0.7818608E-02  0.8936021E-01
          2   -1    0    0  501    0  0.00000000000E+00  0.00000000000E+00  0.12534332864E+04  0.12534332864E+04  0.00000000000E+00 0. -1.
         -1   -1    0    0    0  501 -0.00000000000E+00 -0.00000000000E+00 -0.40492992452E+03  0.40492992452E+03  0.00000000000E+00 0.  1.
         24    2    1    2    0    0  0.14592914646E+03  0.23789701032E+03 -0.11267352052E+03  0.31132333527E+03  0.79602723271E+02 0.  0.
        254    2    1    2    0    0 -0.14592914646E+03 -0.23789701032E+03  0.96117688242E+03  0.13470398757E+04  0.90153487122E+03 0.  0.
         23    2    4    4    0    0 -0.46344348681E+02 -0.22310061551E+03 -0.10915974495E+03  0.26839385747E+03  0.90541313865E+02 0.  0.
         23    2    4    4    0    0 -0.99584797778E+02 -0.14796394808E+02  0.10703366274E+04  0.10786460182E+04  0.87867351278E+02 0.  0.
          2    1    3    3  502    0  0.27410369842E+02  0.10625250479E+03 -0.20458206878E+02  0.11162195741E+03  0.00000000000E+00 0. -1.
         -1    1    3    3    0  502  0.11851877662E+03  0.13164450553E+03 -0.92215313638E+02  0.19970137785E+03  0.00000000000E+00 0.  1.
         11    1    5    5    0    0 -0.32774242131E+02 -0.24644538029E+02 -0.41347420288E+02  0.58233266836E+02  0.00000000000E+00 0.  1.
        -11    1    5    5    0    0 -0.13570106549E+02 -0.19845607748E+03 -0.67812324663E+02  0.21016059064E+03  0.00000000000E+00 0. -1.
          2    1    6    6  503    0  0.36978459553E+01  0.21058513463E+02  0.10623129129E+03  0.10836153516E+03  0.00000000000E+00 0. -1.
         -2    1    6    6    0  503 -0.10328264373E+03 -0.35854908271E+02  0.96410533608E+03  0.97028448303E+03  0.00000000000E+00 0.  1.
<mgrwt>
<rscale>  0 0.14248546E+04</rscale>
<asrwt>0</asrwt>
<pdfrwt beam="1">  1        2 0.19283589E+00 0.14248546E+04</pdfrwt>
<pdfrwt beam="2">  1       -1 0.62296912E-01 0.14248546E+04</pdfrwt>
<totfact> 0.50964428E+01</totfact>
</mgrwt>
</event>
<event>
12    6  0.1569942E-007  0.1243472E+04  0.7818608E-02  0.9075634E-01
         -1   -1    0    0    0  501 -0.00000000000E+00  0.00000000000E+00  0.34514651630E+03  0.34514651630E+03  0.00000000000E+00 0.  1.
          2   -1    0    0  501    0  0.00000000000E+00 -0.00000000000E+00 -0.11199747767E+04  0.11199747767E+04  0.00000000000E+00 0. -1.
         24    2    1    2    0    0  0.27233984926E+03  0.51993075934E+02 -0.70812014104E+02  0.29704181186E+03  0.79669462225E+02 0.  0.
        254    2    1    2    0    0 -0.27233984926E+03 -0.51993075934E+02 -0.70401624627E+03  0.11680794811E+04  0.88988680501E+03 0.  0.
         23    2    4    4    0    0  0.10463513802E+03  0.88669011588E+02 -0.73591832711E+03  0.75420713800E+03  0.91879905939E+02 0.  0.
         23    2    4    4    0    0 -0.37697498728E+03 -0.14066208752E+03  0.31902080839E+02  0.41387234311E+03  0.91523820551E+02 0.  0.
          2    1    3    3  502    0  0.31431731251E+02  0.34876262678E+02 -0.12544229926E+02  0.48596966287E+02  0.00000000000E+00 0. -1.
         -1    1    3    3    0  502  0.24090811801E+03  0.17116813256E+02 -0.58267784177E+02  0.24844484557E+03  0.00000000000E+00 0.  1.
         11    1    5    5    0    0  0.11888666655E+03  0.89077035800E+02 -0.69943088705E+03  0.71503309263E+03  0.00000000000E+00 0.  1.
        -11    1    5    5    0    0 -0.14251528529E+02 -0.40802421209E+00 -0.36487440056E+02  0.39174045375E+02  0.00000000000E+00 0. -1.
          4    1    6    6  503    0 -0.30895403963E+03 -0.11735562202E+03  0.61411888478E+02  0.33614931306E+03  0.00000000000E+00 0.  1.
         -4    1    6    6    0  503 -0.68020947646E+02 -0.23306465503E+02 -0.29509807639E+02  0.77723030048E+02  0.00000000000E+00 0. -1.
<mgrwt>
<rscale>  0 0.12434716E+04</rscale>
<asrwt>0</asrwt>
<pdfrwt beam="1">  1        2 0.17230381E+00 0.12434716E+04</pdfrwt>
<pdfrwt beam="2">  1       -1 0.53099464E-01 0.12434716E+04</pdfrwt>
<totfact> 0.84966105E+01</totfact>
</mgrwt>
</event>
<event>
12    6  0.1569942E-007  0.1902413E+04  0.7818608E-02  0.8653656E-01
         -1   -1    0    0    0  501 -0.00000000000E+00  0.00000000000E+00  0.89964290446E+03  0.89964290446E+03  0.00000000000E+00 0.  1.
          2   -1    0    0  501    0  0.00000000000E+00 -0.00000000000E+00 -0.10057250490E+04  0.10057250490E+04  0.00000000000E+00 0. -1.
         24    2    1    2    0    0 -0.72313373676E+03 -0.76935241673E+02  0.59874430701E+02  0.73440374939E+03  0.83201484396E+02 0.  0.
        254    2    1    2    0    0  0.72313373676E+03  0.76935241673E+02 -0.16595657521E+03  0.11709642040E+04  0.90264840864E+03 0.  0.
         23    2    4    4    0    0  0.20811919189E+03  0.25467479377E+03 -0.43793665829E+03  0.55515515198E+03  0.90751735422E+02 0.  0.
         23    2    4    4    0    0  0.51501454487E+03 -0.17773955210E+03  0.27198008308E+03  0.61580905205E+03  0.91740357460E+02 0.  0.
          4    1    3    3  502    0 -0.97862085517E+02 -0.27765790601E+02  0.31777938926E+02  0.10657281225E+03  0.00000000000E+00 0. -1.
         -3    1    3    3    0  502 -0.62527165125E+03 -0.49169451072E+02  0.28096491775E+02  0.62783093713E+03  0.00000000000E+00 0.  1.
         11    1    5    5    0    0  0.15662447329E+03  0.20179436239E+03 -0.39305770565E+03  0.46877131984E+03  0.00000000000E+00 0.  1.
        -11    1    5    5    0    0  0.51494718597E+02  0.52880431378E+02 -0.44878952634E+02  0.86383832143E+02  0.00000000000E+00 0. -1.
          1    1    6    6  503    0  0.24459372547E+03 -0.11775428068E+03  0.17178238409E+03  0.32124966715E+03  0.00000000000E+00 0. -1.
         -1    1    6    6    0  503  0.27042081940E+03 -0.59985271414E+02  0.10019769899E+03  0.29455938490E+03  0.00000000000E+00 0.  1.
<mgrwt>
<rscale>  0 0.19024126E+04</rscale>
<asrwt>0</asrwt>
<pdfrwt beam="1">  1        2 0.15472693E+00 0.19024126E+04</pdfrwt>
<pdfrwt beam="2">  1       -1 0.13840660E+00 0.19024126E+04</pdfrwt>
<totfact> 0.11523414E+01</totfact>
</mgrwt>
</event>
<event>
12    6  0.1569942E-007  0.1610814E+04  0.7818608E-02  0.8813932E-01
          2   -1    0    0  501    0  0.00000000000E+00  0.00000000000E+00  0.18714862101E+04  0.18714862101E+04  0.00000000000E+00 0. -1.
         -1   -1    0    0    0  501 -0.00000000000E+00 -0.00000000000E+00 -0.34661232387E+03  0.34661232387E+03  0.00000000000E+00 0.  1.
         24    2    1    2    0    0 -0.31492663327E+03  0.30902078478E+03  0.97248852570E+03  0.10708459929E+04  0.79401373511E+02 0.  0.
        254    2    1    2    0    0  0.31492663327E+03 -0.30902078478E+03  0.55238536050E+03  0.11472525410E+04  0.90354091034E+03 0.  0.
         23    2    4    4    0    0 -0.20781449826E+03 -0.27705640271E+03 -0.29624008125E+02  0.35952869713E+03  0.91848713827E+02 0.  0.
         23    2    4    4    0    0  0.52274113153E+03 -0.31964382066E+02  0.58200936862E+03  0.78772384390E+03  0.86567527246E+02 0.  0.
          4    1    3    3  502    0 -0.12269738021E+03  0.14712830120E+03  0.50441505513E+03  0.53957013628E+03  0.00000000000E+00 0. -1.
         -3    1    3    3    0  502 -0.19222925306E+03  0.16189248358E+03  0.46807347058E+03  0.53127585662E+03  0.00000000000E+00 0.  1.
         11    1    5    5    0    0 -0.14105216892E+03 -0.13039473918E+03 -0.46106131562E+02  0.19754563455E+03  0.00000000000E+00 0. -1.
        -11    1    5    5    0    0 -0.66762329340E+02 -0.14666166354E+03  0.16482123437E+02  0.16198306258E+03  0.00000000000E+00 0.  1.
          2    1    6    6  503    0  0.32177759385E+03 -0.61785126643E+02  0.35773415907E+03  0.48511024556E+03  0.00000000000E+00 0. -1.
         -2    1    6    6    0  503  0.20096353768E+03  0.29820744577E+02  0.22427520955E+03  0.30261359835E+03  0.00000000000E+00 0.  1.
<mgrwt>
<rscale>  0 0.16108137E+04</rscale>
<asrwt>0</asrwt>
<pdfrwt beam="1">  1        2 0.28792095E+00 0.16108137E+04</pdfrwt>
<pdfrwt beam="2">  1       -1 0.53324974E-01 0.16108137E+04</pdfrwt>
<totfact> 0.30491841E+01</totfact>
</mgrwt>
</event>
<event>
12    6  0.1569942E-007  0.2538772E+04  0.7818608E-02  0.8389302E-01
          2   -1    0    0  501    0  0.00000000000E+00  0.00000000000E+00  0.88300766595E+03  0.88300766595E+03  0.00000000000E+00 0. -1.
         -1   -1    0    0    0  501 -0.00000000000E+00 -0.00000000000E+00 -0.18248315496E+04  0.18248315496E+04  0.00000000000E+00 0.  1.
         24    2    1    2    0    0 -0.64289144466E+03 -0.18176229146E+03  0.53074348673E+03  0.85696983910E+03  0.79760367356E+02 0.  0.
        254    2    1    2    0    0  0.64289144466E+03  0.18176229146E+03 -0.14725673704E+04  0.18508693765E+04  0.90050866082E+03 0.  0.
         23    2    4    4    0    0 -0.17583350288E+03 -0.67280121676E+02 -0.55386056587E+03  0.59202671421E+03  0.91049812752E+02 0.  0.
         23    2    4    4    0    0  0.81872494754E+03  0.24904241313E+03 -0.91870680452E+03  0.12588426623E+04  0.91268792020E+02 0.  0.
          2    1    3    3  502    0 -0.61597694415E+03 -0.17443695140E+03  0.52622003506E+03  0.82871187456E+03  0.00000000000E+00 0. -1.
         -1    1    3    3    0  502 -0.26914500511E+02 -0.73253400629E+01  0.45234516696E+01  0.28257964538E+02  0.00000000000E+00 0.  1.
         11    1    5    5    0    0 -0.17206558286E+03 -0.72717689020E+02 -0.55474577497E+03  0.58535228875E+03  0.00000000000E+00 0. -1.
        -11    1    5    5    0    0 -0.37679200266E+01  0.54375673442E+01  0.88520910544E+00  0.66744254517E+01  0.00000000000E+00 0.  1.
          3    1    6    6  503    0  0.50769218252E+03  0.14101743761E+03 -0.62649956335E+03  0.81862016392E+03  0.00000000000E+00 0. -1.
         -3    1    6    6    0  503  0.31103276502E+03  0.10802497552E+03 -0.29220724117E+03  0.44022249834E+03  0.00000000000E+00 0.  1.
<mgrwt>
<rscale>  0 0.25387716E+04</rscale>
<asrwt>0</asrwt>
<pdfrwt beam="1">  1        2 0.13584733E+00 0.25387716E+04</pdfrwt>
<pdfrwt beam="2">  1       -1 0.28074331E+00 0.25387716E+04</pdfrwt>
<totfact> 0.13437685E+00</totfact>
</mgrwt>
</event>
<event>
12    6  0.1569942E-007  0.1572425E+04  0.7818608E-02  0.8837670E-01
          2   -1    0    0  501    0  0.00000000000E+00  0.00000000000E+00  0.12684762542E+04  0.12684762542E+04  0.00000000000E+00 0. -1.
         -1   -1    0    0    0  501 -0.00000000000E+00 -0.00000000000E+00 -0.48730143113E+03  0.48730143113E+03  0.00000000000E+00 0.  1.
         24    2    1    2    0    0 -0.39985568309E+03  0.21958994770E+03 -0.16049454268E+02  0.46387119351E+03  0.82550510339E+02 0.  0.
        254    2    1    2    0    0  0.39985568309E+03 -0.21958994770E+03  0.79722427738E+03  0.12919064919E+04  0.90848859258E+03 0.  0.
         23    2    4    4    0    0  0.65868839142E+03 -0.10357337635E+03  0.71601963330E+03  0.98308509328E+03  0.95782796390E+02 0.  0.
         23    2    4    4    0    0 -0.25883270833E+03 -0.11601657135E+03  0.81204644081E+02  0.30882139858E+03  0.91226346350E+02 0.  0.
          2    1    3    3  502    0  0.63145411468E+00  0.58672320196E+01  0.72248327405E+01  0.93285236774E+01  0.00000000000E+00 0. -1.
         -1    1    3    3    0  502 -0.40048713720E+03  0.21372271568E+03 -0.23274287008E+02  0.45454266983E+03  0.00000000000E+00 0.  1.
         11    1    5    5    0    0  0.52755241796E+03 -0.53481887437E+02  0.52655647580E+03  0.74728414154E+03  0.00000000000E+00 0. -1.
        -11    1    5    5    0    0  0.13113597346E+03 -0.50091488912E+02  0.18946315750E+03  0.23580095175E+03  0.00000000000E+00 0.  1.
          1    1    6    6  503    0 -0.20027502442E+03 -0.12394589086E+03  0.82941582026E+02  0.24970377510E+03  0.00000000000E+00 0. -1.
         -1    1    6    6    0  503 -0.58557683912E+02  0.79293195066E+01 -0.17369379448E+01  0.59117623484E+02  0.00000000000E+00 0.  1.
<mgrwt>
<rscale>  0 0.15724253E+04</rscale>
<asrwt>0</asrwt>
<pdfrwt beam="1">  1        2 0.19515019E+00 0.15724253E+04</pdfrwt>
<pdfrwt beam="2">  1       -1 0.74969452E-01 0.15724253E+04</pdfrwt>
<totfact> 0.33818619E+01</totfact>
</mgrwt>
</event>
<event>
12    6  0.1569942E-007  0.1995522E+04  0.7818608E-02  0.8608717E-01
          2   -1    0    0  501    0  0.00000000000E+00  0.00000000000E+00  0.13023528401E+04  0.13023528401E+04  0.00000000000E+00 0. -1.
         -1   -1    0    0    0  501 -0.00000000000E+00 -0.00000000000E+00 -0.76440652687E+03  0.76440652687E+03  0.00000000000E+00 0.  1.
         24    2    1    2    0    0  0.59053025975E+03 -0.47081365157E+03 -0.51243538951E+02  0.76111596901E+03  0.79247307914E+02 0.  0.
        254    2    1    2    0    0 -0.59053025975E+03  0.47081365157E+03  0.58918985214E+03  0.13056433979E+04  0.88722517913E+03 0.  0.
         23    2    4    4    0    0 -0.45240286843E+03  0.48150125330E+03 -0.26865516182E+02  0.66721997041E+03  0.89156719677E+02 0.  0.
         23    2    4    4    0    0 -0.13812739132E+03 -0.10687601731E+02  0.61605536832E+03  0.63842342750E+03  0.94163978710E+02 0.  0.
          2    1    3    3  502    0  0.43549919165E+02 -0.29324742648E+02 -0.23834084452E+02  0.57659340721E+02  0.00000000000E+00 0. -1.
         -1    1    3    3    0  502  0.54698034058E+03 -0.44148890893E+03 -0.27409454499E+02  0.70345662829E+03  0.00000000000E+00 0.  1.
         11    1    5    5    0    0 -0.15506066376E+03  0.22840951579E+03 -0.44538980490E+01  0.27610605491E+03  0.00000000000E+00 0. -1.
        -11    1    5    5    0    0 -0.29734220467E+03  0.25309173752E+03 -0.22411618133E+02  0.39111391551E+03  0.00000000000E+00 0.  1.
          3    1    6    6  503    0 -0.15335991980E+00 -0.28303370359E+02  0.11327808461E+03  0.11676056160E+03  0.00000000000E+00 0. -1.
         -3    1    6    6    0  503 -0.13797403140E+03  0.17615768628E+02  0.50277728371E+03  0.52166286590E+03  0.00000000000E+00 0.  1.
<mgrwt>
<rscale>  0 0.19955220E+04</rscale>
<asrwt>0</asrwt>
<pdfrwt beam="1">  1        2 0.20036198E+00 0.19955220E+04</pdfrwt>
<pdfrwt beam="2">  1       -1 0.11760100E+00 0.19955220E+04</pdfrwt>
<totfact> 0.11354808E+01</totfact>
</mgrwt>
</event>
<event>
12    6  0.1569942E-007  0.2574201E+04  0.7818608E-02  0.8377018E-01
          2   -1    0    0  501    0  0.00000000000E+00  0.00000000000E+00  0.23746441875E+04  0.23746441875E+04  0.00000000000E+00 0. -1.
         -1   -1    0    0    0  501 -0.00000000000E+00 -0.00000000000E+00 -0.69763179530E+03  0.69763179530E+03  0.00000000000E+00 0.  1.
         24    2    1    2    0    0 -0.77971615458E+03  0.33380979895E+03 -0.75610121951E+02  0.85525134691E+03  0.79697630164E+02 0.  0.
        254    2    1    2    0    0  0.77971615458E+03 -0.33380979895E+03  0.17526225142E+04  0.22170246359E+04  0.10602482235E+04 0.  0.
         23    2    4    4    0    0  0.17415241886E+03 -0.64162853169E+03  0.82675154141E+03  0.10650040764E+04  0.93270219073E+02 0.  0.
         23    2    4    4    0    0  0.60556373572E+03  0.30781873273E+03  0.92587097276E+03  0.11520205596E+04  0.91948361583E+02 0.  0.
          2    1    3    3  502    0 -0.44280102922E+02  0.43786622095E+01 -0.15679695976E+02  0.47177887441E+02  0.00000000000E+00 0. -1.
         -1    1    3    3    0  502 -0.73543605166E+03  0.32943113674E+03 -0.59930425976E+02  0.80807345947E+03  0.00000000000E+00 0.  1.
         11    1    5    5    0    0 -0.98473863820E+01 -0.72067226204E+02  0.94491823996E+02  0.11924496179E+03  0.00000000000E+00 0.  1.
        -11    1    5    5    0    0  0.18399980524E+03 -0.56956130548E+03  0.73225971741E+03  0.94575911456E+03  0.00000000000E+00 0. -1.
          3    1    6    6  503    0  0.51111061313E+03  0.22001150544E+03  0.74439643883E+03  0.92938968120E+03  0.00000000000E+00 0. -1.
         -3    1    6    6    0  503  0.94453122592E+02  0.87807227292E+02  0.18147453393E+03  0.22263087835E+03  0.00000000000E+00 0.  1.
<mgrwt>
<rscale>  0 0.25742007E+04</rscale>
<asrwt>0</asrwt>
<pdfrwt beam="1">  1        2 0.36532987E+00 0.25742007E+04</pdfrwt>
<pdfrwt beam="2">  1       -1 0.10732797E+00 0.25742007E+04</pdfrwt>
<totfact> 0.33510349E+00</totfact>
</mgrwt>
</event>
<event>
12    6  0.1569942E-007  0.2318573E+04  0.7818608E-02  0.8470634E-01
          2   -1    0    0  501    0  0.00000000000E+00  0.00000000000E+00  0.29741020485E+04  0.29741020485E+04  0.00000000000E+00 0. -1.
         -1   -1    0    0    0  501 -0.00000000000E+00 -0.00000000000E+00 -0.45188272345E+03  0.45188272345E+03  0.00000000000E+00 0.  1.
         24    2    1    2    0    0 -0.36615642248E+03 -0.72107745940E+03  0.18957075439E+04  0.20624455496E+04  0.77144830429E+02 0.  0.
        254    2    1    2    0    0  0.36615642248E+03  0.72107745940E+03  0.62651178117E+03  0.13635392224E+04  0.90149818128E+03 0.  0.
         23    2    4    4    0    0  0.33535493113E+03  0.83868934587E+03  0.74235644061E+03  0.11727595103E+04  0.91700792327E+02 0.  0.
         23    2    4    4    0    0  0.30801491343E+02 -0.11761188647E+03 -0.11584465944E+03  0.19077971211E+03  0.90529695248E+02 0.  0.
          4    1    3    3  502    0 -0.25708590747E+03 -0.48037036086E+03  0.11869557997E+04  0.13060294475E+04  0.00000000000E+00 0. -1.
         -3    1    3    3    0  502 -0.10907051501E+03 -0.24070709853E+03  0.70875174420E+03  0.75641610205E+03  0.00000000000E+00 0.  1.
         11    1    5    5    0    0  0.97881576564E+02  0.15590296524E+03  0.13002222774E+03  0.22537150953E+03  0.00000000000E+00 0. -1.
        -11    1    5    5    0    0  0.23747335457E+03  0.68278638063E+03  0.61233421287E+03  0.94738800074E+03  0.00000000000E+00 0.  1.
          4    1    6    6  503    0 -0.80736479114E+01 -0.39683088677E+02  0.60770990310E+01  0.40949510988E+02  0.00000000000E+00 0. -1.
         -4    1    6    6    0  503  0.38875139255E+02 -0.77928797793E+02 -0.12192175847E+03  0.14983020112E+03  0.00000000000E+00 0.  1.
<mgrwt>
<rscale>  0 0.23185731E+04</rscale>
<asrwt>0</asrwt>
<pdfrwt beam="1">  1        2 0.45755415E+00 0.23185731E+04</pdfrwt>
<pdfrwt beam="2">  1       -1 0.69520421E-01 0.23185731E+04</pdfrwt>
<totfact> 0.38975428E+00</totfact>
</mgrwt>
</event>
<event>
12    6  0.1569942E-007  0.1779158E+04  0.7818608E-02  0.8717462E-01
         -1   -1    0    0    0  501 -0.00000000000E+00  0.00000000000E+00  0.23590552389E+03  0.23590552389E+03  0.00000000000E+00 0.  1.
          2   -1    0    0  501    0  0.00000000000E+00 -0.00000000000E+00 -0.33545226536E+04  0.33545226536E+04  0.00000000000E+00 0. -1.
         24    2    1    2    0    0 -0.14457946466E+03 -0.43063567378E+03 -0.21288243763E+03  0.50765333643E+03  0.77734629373E+02 0.  0.
        254    2    1    2    0    0  0.14457946466E+03  0.43063567378E+03 -0.29057346921E+04  0.30827748411E+04  0.92404345935E+03 0.  0.
         23    2    4    4    0    0 -0.24799463615E+03 -0.15577260839E+03 -0.68144904117E+03  0.74733518258E+03  0.91491170730E+02 0.  0.
         23    2    4    4    0    0  0.39257410081E+03  0.58640828217E+03 -0.22242856510E+04  0.23354396585E+04  0.94035331341E+02 0.  0.
          2    1    3    3  502    0 -0.14947343863E+02 -0.95587499034E+02 -0.76671992370E+02  0.12344629389E+03  0.00000000000E+00 0. -1.
         -1    1    3    3    0  502 -0.12963212080E+03 -0.33504817475E+03 -0.13621044526E+03  0.38420704255E+03  0.00000000000E+00 0.  1.
         11    1    5    5    0    0 -0.85062416310E+02 -0.91201949960E+01 -0.15441466608E+03  0.17652954916E+03  0.00000000000E+00 0. -1.
        -11    1    5    5    0    0 -0.16293221984E+03 -0.14665241339E+03 -0.52703437509E+03  0.57080563342E+03  0.00000000000E+00 0.  1.
          4    1    6    6  503    0  0.29546117836E+03  0.39287561372E+03 -0.16508236143E+04  0.17224596254E+04  0.00000000000E+00 0. -1.
         -4    1    6    6    0  503  0.97112922443E+02  0.19353266845E+03 -0.57346203668E+03  0.61298003310E+03  0.00000000000E+00 0.  1.
<mgrwt>
<rscale>  0 0.17791576E+04</rscale>
<asrwt>0</asrwt>
<pdfrwt beam="1">  1        2 0.51608037E+00 0.17791576E+04</pdfrwt>
<pdfrwt beam="2">  1       -1 0.36293160E-01 0.17791576E+04</pdfrwt>
<totfact> 0.80686163E+00</totfact>
</mgrwt>
</event>
<event>
12    6  0.1569942E-007  0.1859255E+04  0.7818608E-02  0.8675408E-01
         -1   -1    0    0    0  501 -0.00000000000E+00  0.00000000000E+00  0.40617318960E+03  0.40617318960E+03  0.00000000000E+00 0.  1.
          2   -1    0    0  501    0  0.00000000000E+00 -0.00000000000E+00 -0.21276811380E+04  0.21276811380E+04  0.00000000000E+00 0. -1.
         24    2    1    2    0    0 -0.12489314204E+03  0.36410676698E+03 -0.14645803643E+04  0.15164054751E+04  0.79485134762E+02 0.  0.
        254    2    1    2    0    0  0.12489314204E+03 -0.36410676698E+03 -0.25692758406E+03  0.10174488525E+04  0.90610062868E+03 0.  0.
         23    2    4    4    0    0 -0.16914160108E+03 -0.52933079338E+03  0.32736700073E+02  0.56365831068E+03  0.88538294703E+02 0.  0.
         23    2    4    4    0    0  0.29403474312E+03  0.16522402640E+03 -0.28966428413E+03  0.45379054181E+03  0.90912316421E+02 0.  0.
          4    1    3    3  502    0 -0.10747976586E+03  0.32613024280E+03 -0.11860082804E+04  0.12347179745E+04  0.00000000000E+00 0. -1.
         -3    1    3    3    0  502 -0.17413376174E+02  0.37976524177E+02 -0.27857208391E+03  0.28168750059E+03  0.00000000000E+00 0.  1.
         11    1    5    5    0    0 -0.66454357478E+02 -0.15947174228E+03  0.48636872009E+02  0.17947970228E+03  0.00000000000E+00 0.  1.
        -11    1    5    5    0    0 -0.10268724360E+03 -0.36985905110E+03 -0.15900171936E+02  0.38417860839E+03  0.00000000000E+00 0. -1.
          2    1    6    6  503    0  0.34609306570E+02 -0.65655988317E+01 -0.13379792963E+02  0.37681959199E+02  0.00000000000E+00 0. -1.
         -2    1    6    6    0  503  0.25942543655E+03  0.17178962523E+03 -0.27628449117E+03  0.41610858261E+03  0.00000000000E+00 0.  1.
<mgrwt>
<rscale>  0 0.18592547E+04</rscale>
<asrwt>0</asrwt>
<pdfrwt beam="1">  1        2 0.32733556E+00 0.18592547E+04</pdfrwt>
<pdfrwt beam="2">  1       -1 0.62488183E-01 0.18592547E+04</pdfrwt>
<totfact> 0.15759302E+01</totfact>
</mgrwt>
</event>
<event>
12    6  0.1569942E-007  0.2406440E+04  0.7818608E-02  0.8437096E-01
         -1   -1    0    0    0  501 -0.00000000000E+00  0.00000000000E+00  0.76496890454E+03  0.76496890454E+03  0.00000000000E+00 0.  1.
          2   -1    0    0  501    0  0.00000000000E+00 -0.00000000000E+00 -0.18925460240E+04  0.18925460240E+04  0.00000000000E+00 0. -1.
         24    2    1    2    0    0  0.13987644882E+03  0.47870860706E+03  0.51566865281E+03  0.72195618628E+03  0.81112415796E+02 0.  0.
        254    2    1    2    0    0 -0.13987644882E+03 -0.47870860706E+03 -0.16432457722E+04  0.19355587422E+04  0.89297459384E+03 0.  0.
         23    2    4    4    0    0 -0.50439081113E+03 -0.29650214261E+03 -0.81142731189E+03  0.10046258185E+04  0.92385830656E+02 0.  0.
         23    2    4    4    0    0  0.36451436231E+03 -0.18220646446E+03 -0.83181846035E+03  0.93093292378E+03  0.92974413532E+02 0.  0.
          2    1    3    3  502    0  0.32585315264E+02  0.24155369622E+03  0.22413329970E+03  0.33112796161E+03  0.00000000000E+00 0. -1.
         -1    1    3    3    0  502  0.10729113356E+03  0.23715491085E+03  0.29153535312E+03  0.39082822466E+03  0.00000000000E+00 0.  1.
         11    1    5    5    0    0 -0.95592753796E+02 -0.17803912978E+02 -0.12105287023E+03  0.15526993040E+03  0.00000000000E+00 0. -1.
        -11    1    5    5    0    0 -0.40879805734E+03 -0.27869822963E+03 -0.69037444166E+03  0.84935588806E+03  0.00000000000E+00 0.  1.
          3    1    6    6  503    0  0.20007631526E+03 -0.11624080405E+03 -0.37120933669E+03  0.43742293961E+03  0.00000000000E+00 0. -1.
         -3    1    6    6    0  503  0.16443804705E+03 -0.65965660410E+02 -0.46060912366E+03  0.49350998416E+03  0.00000000000E+00 0.  1.
<mgrwt>
<rscale>  0 0.24064404E+04</rscale>
<asrwt>0</asrwt>
<pdfrwt beam="1">  1        2 0.29116093E+00 0.24064404E+04</pdfrwt>
<pdfrwt beam="2">  1       -1 0.11768752E+00 0.24064404E+04</pdfrwt>
<totfact> 0.50908802E+00</totfact>
</mgrwt>
</event>
<event>
12    6  0.1569942E-007  0.1215270E+04  0.7818608E-02  0.9099594E-01
         -1   -1    0    0    0  501 -0.00000000000E+00  0.00000000000E+00  0.24693900741E+03  0.24693900741E+03  0.00000000000E+00 0.  1.
          2   -1    0    0  501    0  0.00000000000E+00 -0.00000000000E+00 -0.14951894263E+04  0.14951894263E+04  0.00000000000E+00 0. -1.
         24    2    1    2    0    0  0.13149614414E+03  0.19273782031E+03 -0.44414784150E+03  0.50788342141E+03  0.78988361962E+02 0.  0.
        254    2    1    2    0    0 -0.13149614414E+03 -0.19273782031E+03 -0.80410257740E+03  0.12342450123E+04  0.90683002384E+03 0.  0.
         23    2    4    4    0    0 -0.60007442192E+02  0.10544579552E+03  0.15725617451E+03  0.22038473895E+03  0.95499842055E+02 0.  0.
         23    2    4    4    0    0 -0.71488701952E+02 -0.29818361583E+03 -0.96135875191E+03  0.10138602734E+04  0.98376322184E+02 0.  0.
          4    1    3    3  502    0  0.33791847770E+02  0.69185738347E+02 -0.22640520547E+03  0.23913985956E+03  0.00000000000E+00 0. -1.
         -3    1    3    3    0  502  0.97704296374E+02  0.12355208197E+03 -0.21774263603E+03  0.26874356184E+03  0.00000000000E+00 0.  1.
         11    1    5    5    0    0  0.16392236758E+02  0.63687398927E+02  0.52357386640E+02  0.84060015131E+02  0.00000000000E+00 0. -1.
        -11    1    5    5    0    0 -0.76399678951E+02  0.41758396592E+02  0.10489878787E+03  0.13632472382E+03  0.00000000000E+00 0.  1.
          2    1    6    6  503    0 -0.55307079191E+02 -0.56253164400E+02 -0.26514592810E+03  0.27663270722E+03  0.00000000000E+00 0. -1.
         -2    1    6    6    0  503 -0.16181622760E+02 -0.24193045143E+03 -0.69621282381E+03  0.73722756614E+03  0.00000000000E+00 0.  1.
<mgrwt>
<rscale>  0 0.12152705E+04</rscale>
<asrwt>0</asrwt>
<pdfrwt beam="1">  1        2 0.23002914E+00 0.12152705E+04</pdfrwt>
<pdfrwt beam="2">  1       -1 0.37990617E-01 0.12152705E+04</pdfrwt>
<totfact> 0.95964250E+01</totfact>
</mgrwt>
</event>
<event>
12    6  0.1569942E-007  0.1759616E+04  0.7818608E-02  0.8728075E-01
         -1   -1    0    0    0  501 -0.00000000000E+00  0.00000000000E+00  0.34481706379E+03  0.34481706379E+03  0.00000000000E+00 0.  1.
          2   -1    0    0  501    0  0.00000000000E+00 -0.00000000000E+00 -0.22448494162E+04  0.22448494162E+04  0.00000000000E+00 0. -1.
         24    2    1    2    0    0 -0.29727631717E+03 -0.28854054350E+03 -0.14423398380E+04  0.15028246556E+04  0.80677650605E+02 0.  0.
        254    2    1    2    0    0  0.29727631717E+03  0.28854054350E+03 -0.45769251440E+03  0.10868418243E+04  0.89449083808E+03 0.  0.
         23    2    4    4    0    0  0.21115353320E+03  0.46826420837E+03  0.60958873247E+02  0.52498704174E+03  0.89656156201E+02 0.  0.
         23    2    4    4    0    0  0.86122783973E+02 -0.17972366487E+03 -0.51865138764E+03  0.56185478260E+03  0.83449416965E+02 0.  0.
          4    1    3    3  502    0 -0.20799294588E+03 -0.15949314614E+03 -0.98672234895E+03  0.10209408029E+04  0.00000000000E+00 0. -1.
         -3    1    3    3    0  502 -0.89283371289E+02 -0.12904739735E+03 -0.45561748902E+03  0.48188385266E+03  0.00000000000E+00 0.  1.
         11    1    5    5    0    0 -0.39255158280E+01  0.56649688781E+02  0.17925316231E+01  0.56813819473E+02  0.00000000000E+00 0.  1.
        -11    1    5    5    0    0  0.21507904903E+03  0.41161451959E+03  0.59166341624E+02  0.46817322227E+03  0.00000000000E+00 0. -1.
          4    1    6    6  503    0  0.45594846894E+02 -0.26142106040E+02 -0.18505243316E+03  0.19237126290E+03  0.00000000000E+00 0. -1.
         -4    1    6    6    0  503  0.40527937078E+02 -0.15358155883E+03 -0.33359895449E+03  0.36948351970E+03  0.00000000000E+00 0.  1.
<mgrwt>
<rscale>  0 0.17596163E+04</rscale>
<asrwt>0</asrwt>
<pdfrwt beam="1">  1        2 0.34536145E+00 0.17596163E+04</pdfrwt>
<pdfrwt beam="2">  1       -1 0.53048778E-01 0.17596163E+04</pdfrwt>
<totfact> 0.18835550E+01</totfact>
</mgrwt>
</event>
<event>
12    6  0.1569942E-007  0.2440226E+04  0.7818608E-02  0.8424595E-01
          2   -1    0    0  501    0  0.00000000000E+00  0.00000000000E+00  0.22700806402E+04  0.22700806402E+04  0.00000000000E+00 0. -1.
         -1   -1    0    0    0  501 -0.00000000000E+00 -0.00000000000E+00 -0.65578100657E+03  0.65578100657E+03  0.00000000000E+00 0.  1.
         24    2    1    2    0    0  0.32657029939E+03 -0.36829905390E+03 -0.41788791389E+03  0.64918644261E+03  0.67233735118E+02 0.  0.
        254    2    1    2    0    0 -0.32657029939E+03  0.36829905390E+03  0.20321875475E+04  0.22766752042E+04  0.90065054454E+03 0.  0.
         23    2    4    4    0    0 -0.61478956779E+03  0.13749127525E+03  0.14116552578E+04  0.15485233324E+04  0.91015826586E+02 0.  0.
         23    2    4    4    0    0  0.28821926840E+03  0.23080777865E+03  0.62053228974E+03  0.72815187178E+03  0.93820298427E+02 0.  0.
          2    1    3    3  502    0  0.96834869672E+02 -0.86228779098E+02 -0.77942231363E+02  0.15128577514E+03  0.00000000000E+00 0. -1.
         -1    1    3    3    0  502  0.22973542972E+03 -0.28207027480E+03 -0.33994568253E+03  0.49790066747E+03  0.00000000000E+00 0.  1.
         11    1    5    5    0    0 -0.61701635414E+03  0.13332757596E+03  0.13943832660E+04  0.15306175604E+04  0.00000000000E+00 0.  1.
        -11    1    5    5    0    0  0.22267863492E+01  0.41636992938E+01  0.17271991842E+02  0.17905772015E+02  0.00000000000E+00 0. -1.
          2    1    6    6  503    0  0.87276519261E+01  0.40535971369E+02  0.49981813162E+02  0.64942424731E+02  0.00000000000E+00 0. -1.
         -2    1    6    6    0  503  0.27949161647E+03  0.19027180728E+03  0.57055047658E+03  0.66320944705E+03  0.00000000000E+00 0.  1.
<mgrwt>
<rscale>  0 0.24402260E+04</rscale>
<asrwt>0</asrwt>
<pdfrwt beam="1">  1        2 0.34924317E+00 0.24402260E+04</pdfrwt>
<pdfrwt beam="2">  1       -1 0.10088939E+00 0.24402260E+04</pdfrwt>
<totfact> 0.44884192E+00</totfact>
</mgrwt>
</event>
<event>
12    6  0.1569942E-007  0.1725730E+04  0.7818608E-02  0.8746824E-01
         -1   -1    0    0    0  501 -0.00000000000E+00  0.00000000000E+00  0.23821102399E+03  0.23821102399E+03  0.00000000000E+00 0.  1.
          2   -1    0    0  501    0  0.00000000000E+00 -0.00000000000E+00 -0.31255329938E+04  0.31255329938E+04  0.00000000000E+00 0. -1.
         24    2    1    2    0    0  0.24558288084E+03 -0.12775903363E+02 -0.21055917998E+04  0.21214068455E+04  0.79849871051E+02 0.  0.
        254    2    1    2    0    0 -0.24558288084E+03  0.12775903363E+02 -0.78173017005E+03  0.12423371723E+04  0.93371591815E+03 0.  0.
         23    2    4    4    0    0 -0.35758523372E+03 -0.96494835278E+02  0.55906235454E+02  0.38572077015E+03  0.92068196209E+02 0.  0.
         23    2    4    4    0    0  0.11200235288E+03  0.10927073864E+03 -0.83763640551E+03  0.85661640214E+03  0.87591616040E+02 0.  0.
          2    1    3    3  502    0  0.20764719121E+03 -0.33089269507E+02 -0.18821794318E+04  0.18938879769E+04  0.00000000000E+00 0. -1.
         -1    1    3    3    0  502  0.37935689624E+02  0.20313366144E+02 -0.22341236800E+03  0.22751886860E+03  0.00000000000E+00 0.  1.
         11    1    5    5    0    0 -0.35771223812E+03 -0.89947914890E+02  0.43125623346E+02  0.37136032648E+03  0.00000000000E+00 0. -1.
        -11    1    5    5    0    0  0.12700439648E+00 -0.65469203879E+01  0.12780612108E+02  0.14360443675E+02  0.00000000000E+00 0.  1.
          4    1    6    6  503    0  0.10219882099E+03  0.41168533606E+02 -0.54092350088E+03  0.55203050728E+03  0.00000000000E+00 0. -1.
         -4    1    6    6    0  503  0.98035318966E+01  0.68102205035E+02 -0.29671290463E+03  0.30458589485E+03  0.00000000000E+00 0.  1.
<mgrwt>
<rscale>  0 0.17257305E+04</rscale>
<asrwt>0</asrwt>
<pdfrwt beam="1">  1        2 0.48085122E+00 0.17257305E+04</pdfrwt>
<pdfrwt beam="2">  1       -1 0.36647850E-01 0.17257305E+04</pdfrwt>
<totfact> 0.11254620E+01</totfact>
</mgrwt>
</event>
<event>
12    6  0.1569942E-007  0.1671874E+04  0.7818608E-02  0.8777570E-01
         -1   -1    0    0    0  501 -0.00000000000E+00  0.00000000000E+00  0.64293764380E+03  0.64293764380E+03  0.00000000000E+00 0.  1.
          2   -1    0    0  501    0  0.00000000000E+00 -0.00000000000E+00 -0.10868714868E+04  0.10868714868E+04  0.00000000000E+00 0. -1.
         24    2    1    2    0    0 -0.11470405384E+03  0.54019745766E+01  0.43744674256E+03  0.45927084566E+03  0.79899035057E+02 0.  0.
        254    2    1    2    0    0  0.11470405384E+03 -0.54019745766E+01 -0.88138058561E+03  0.12705382850E+04  0.90788192825E+03 0.  0.
         23    2    4    4    0    0 -0.20513704711E+03 -0.28345132517E+03 -0.97812302188E+02  0.37484352649E+03  0.92274379214E+02 0.  0.
         23    2    4    4    0    0  0.31984110095E+03  0.27804935059E+03 -0.78356828342E+03  0.89569475849E+03  0.93166916837E+02 0.  0.
          4    1    3    3  502    0 -0.10604052457E+03 -0.12319691102E+02  0.26492393371E+03  0.28562398059E+03  0.00000000000E+00 0. -1.
         -3    1    3    3    0  502 -0.86635292715E+01  0.17721665678E+02  0.17252280885E+03  0.17364686507E+03  0.00000000000E+00 0.  1.
         11    1    5    5    0    0 -0.19678760836E+03 -0.27585115879E+03 -0.11184628215E+03  0.35683163459E+03  0.00000000000E+00 0.  1.
        -11    1    5    5    0    0 -0.83494387476E+01 -0.76001663738E+01  0.14033979965E+02  0.18011891904E+02  0.00000000000E+00 0. -1.
          3    1    6    6  503    0  0.26622870064E+03  0.17849161326E+03 -0.59410851298E+03  0.67505696222E+03  0.00000000000E+00 0. -1.
         -3    1    6    6    0  503  0.53612400308E+02  0.99557737327E+02 -0.18945977044E+03  0.22063779628E+03  0.00000000000E+00 0.  1.
<mgrwt>
<rscale>  0 0.16718739E+04</rscale>
<asrwt>0</asrwt>
<pdfrwt beam="1">  1        2 0.16721100E+00 0.16718739E+04</pdfrwt>
<pdfrwt beam="2">  1       -1 0.98913484E-01 0.16718739E+04</pdfrwt>
<totfact> 0.23599636E+01</totfact>
</mgrwt>
</event>
<event>
12    6  0.1569942E-007  0.2294030E+04  0.7818608E-02  0.8480279E-01
          2   -1    0    0  501    0  0.00000000000E+00  0.00000000000E+00  0.51432149737E+03  0.51432149737E+03  0.00000000000E+00 0. -1.
         -1   -1    0    0    0  501 -0.00000000000E+00 -0.00000000000E+00 -0.25580172867E+04  0.25580172867E+04  0.00000000000E+00 0.  1.
         24    2    1    2    0    0 -0.58288267774E+03  0.23960046630E+03  0.11491408215E+03  0.64568724706E+03  0.80908437651E+02 0.  0.
        254    2    1    2    0    0  0.58288267774E+03 -0.23960046630E+03 -0.21586098715E+04  0.24266515370E+04  0.91207483539E+03 0.  0.
         23    2    4    4    0    0  0.73000626170E+02 -0.43651749827E+03 -0.14983027565E+04  0.15648733344E+04  0.89670423037E+02 0.  0.
         23    2    4    4    0    0  0.50988205157E+03  0.19691703197E+03 -0.66030711493E+03  0.86177820260E+03  0.88882846760E+02 0.  0.
          4    1    3    3  502    0 -0.39563584216E+03  0.14617380084E+03  0.11205742381E+03  0.43640733940E+03  0.00000000000E+00 0. -1.
         -1    1    3    3    0  502 -0.18724683558E+03  0.93426665458E+02  0.28566583422E+01  0.20927990766E+03  0.00000000000E+00 0.  1.
         11    1    5    5    0    0  0.34694393056E+02 -0.38530682618E+03 -0.13155619999E+04  0.13712652649E+04  0.00000000000E+00 0.  1.
        -11    1    5    5    0    0  0.38306233114E+02 -0.51210672090E+02 -0.18274075665E+03  0.19360806949E+03  0.00000000000E+00 0. -1.
          4    1    6    6  503    0  0.15282275631E+03  0.17932356261E+02 -0.20007209096E+03  0.25239890219E+03  0.00000000000E+00 0. -1.
         -4    1    6    6    0  503  0.35705929526E+03  0.17898467571E+03 -0.46023502398E+03  0.60937930041E+03  0.00000000000E+00 0.  1.
<mgrwt>
<rscale>  0 0.22940299E+04</rscale>
<asrwt>0</asrwt>
<pdfrwt beam="1">  1        2 0.79126383E-01 0.22940299E+04</pdfrwt>
<pdfrwt beam="2">  1       -1 0.39354113E+00 0.22940299E+04</pdfrwt>
<totfact> 0.48888637E-01</totfact>
</mgrwt>
</event>
<event>
12    6  0.1569942E-007  0.1224466E+04  0.7818608E-02  0.9091707E-01
         -1   -1    0    0    0  501 -0.00000000000E+00  0.00000000000E+00  0.13675159485E+03  0.13675159485E+03  0.00000000000E+00 0.  1.
          2   -1    0    0  501    0  0.00000000000E+00 -0.00000000000E+00 -0.27409501961E+04  0.27409501961E+04  0.00000000000E+00 0. -1.
         24    2    1    2    0    0  0.12570722861E+03 -0.96462495290E+02 -0.25865544186E+02  0.17960268651E+03  0.80503281321E+02 0.  0.
        254    2    1    2    0    0 -0.12570722861E+03  0.96462495290E+02 -0.25783330571E+04  0.26980991044E+04  0.77899300635E+03 0.  0.
         23    2    4    4    0    0  0.22736866287E+03  0.46784560232E+02 -0.29944350263E+03  0.38963156419E+03  0.90890266877E+02 0.  0.
         23    2    4    4    0    0 -0.35307589148E+03  0.49677935058E+02 -0.22788895544E+04  0.23084675403E+04  0.92489462798E+02 0.  0.
          4    1    3    3  502    0 -0.11196884340E+02 -0.54370318578E+01  0.26993908520E+01  0.12736492662E+02  0.00000000000E+00 0. -1.
         -3    1    3    3    0  502  0.13690411295E+03 -0.91025463433E+02 -0.28564935038E+02  0.16686619385E+03  0.00000000000E+00 0.  1.
         11    1    5    5    0    0  0.22661962968E+01 -0.15160772344E+02 -0.13044315921E+02  0.20128061048E+02  0.00000000000E+00 0. -1.
        -11    1    5    5    0    0  0.22510246658E+03  0.61945332575E+02 -0.28639918671E+03  0.36950350314E+03  0.00000000000E+00 0.  1.
          3    1    6    6  503    0 -0.37014232184E+02  0.25070859404E+02 -0.16544040013E+03  0.17137423194E+03  0.00000000000E+00 0. -1.
         -3    1    6    6    0  503 -0.31606165930E+03  0.24607075655E+02 -0.21134491543E+04  0.21370933083E+04  0.00000000000E+00 0.  1.
<mgrwt>
<rscale>  0 0.12244661E+04</rscale>
<asrwt>0</asrwt>
<pdfrwt beam="1">  1        2 0.42168465E+00 0.12244661E+04</pdfrwt>
<pdfrwt beam="2">  1       -1 0.21038707E-01 0.12244661E+04</pdfrwt>
<totfact> 0.53401405E+01</totfact>
</mgrwt>
</event>
<event>
12    6  0.1569942E-007  0.2605425E+04  0.7818608E-02  0.8366361E-01
         -1   -1    0    0    0  501 -0.00000000000E+00  0.00000000000E+00  0.90157780632E+03  0.90157780632E+03  0.00000000000E+00 0.  1.
          2   -1    0    0  501    0  0.00000000000E+00 -0.00000000000E+00 -0.18823215087E+04  0.18823215087E+04  0.00000000000E+00 0. -1.
         24    2    1    2    0    0 -0.81748619016E+03  0.79249703411E+03 -0.31519399485E+03  0.11841409225E+04  0.80667525750E+02 0.  0.
        254    2    1    2    0    0  0.81748619016E+03 -0.79249703411E+03 -0.66554970757E+03  0.15997583926E+04  0.90550277814E+03 0.  0.
         23    2    4    4    0    0 -0.54221170681E+02 -0.12746694250E+03  0.15195070199E+03  0.22959184357E+03  0.10215499017E+03 0.  0.
         23    2    4    4    0    0  0.87170736084E+03 -0.66503009161E+03 -0.81750040956E+03  0.13701665490E+04  0.83130660446E+02 0.  0.
          4    1    3    3  502    0 -0.81007281741E+03  0.78022008766E+03 -0.31943071860E+03  0.11691866141E+04  0.00000000000E+00 0. -1.
         -3    1    3    3    0  502 -0.74133727487E+01  0.12276946458E+02  0.42367237459E+01  0.14954308340E+02  0.00000000000E+00 0.  1.
         11    1    5    5    0    0 -0.71244590454E+02 -0.54242838529E+02  0.48875520514E+02  0.10201418385E+03  0.00000000000E+00 0. -1.
        -11    1    5    5    0    0  0.17023419773E+02 -0.73224103972E+02  0.10307518148E+03  0.12757765972E+03  0.00000000000E+00 0.  1.
          3    1    6    6  503    0  0.99413518088E+01 -0.13200177960E+02 -0.25834285088E+02  0.30667335390E+02  0.00000000000E+00 0. -1.
         -3    1    6    6    0  503  0.86176600903E+03 -0.65182991365E+03 -0.79166612447E+03  0.13394992136E+04  0.00000000000E+00 0.  1.
<mgrwt>
<rscale>  0 0.26054246E+04</rscale>
<asrwt>0</asrwt>
<pdfrwt beam="1">  1        2 0.28958792E+00 0.26054246E+04</pdfrwt>
<pdfrwt beam="2">  1       -1 0.13870428E+00 0.26054246E+04</pdfrwt>
<totfact> 0.33563827E+00</totfact>
</mgrwt>
</event>
<event>
12    6  0.1569942E-007  0.1352105E+04  0.7818608E-02  0.8989236E-01
          2   -1    0    0  501    0  0.00000000000E+00  0.00000000000E+00  0.38422381089E+03  0.38422381089E+03  0.00000000000E+00 0. -1.
         -1   -1    0    0    0  501 -0.00000000000E+00 -0.00000000000E+00 -0.11895338611E+04  0.11895338611E+04  0.00000000000E+00 0.  1.
         24    2    1    2    0    0  0.11601233835E+03  0.19423745645E+03 -0.56052073821E+03  0.60983496691E+03  0.80796885917E+02 0.  0.
        254    2    1    2    0    0 -0.11601233835E+03 -0.19423745645E+03 -0.24478931205E+03  0.96392270511E+03  0.90445459919E+03 0.  0.
         23    2    4    4    0    0 -0.41061098621E+02 -0.12301654102E+03  0.33318417544E+03  0.36970539894E+03  0.94081369342E+02 0.  0.
         23    2    4    4    0    0 -0.74951239727E+02 -0.71220915432E+02 -0.57797348749E+03  0.59421730617E+03  0.91382424868E+02 0.  0.
          4    1    3    3  502    0  0.26283032317E+02  0.11864474547E+03 -0.25235493968E+03  0.28008996589E+03  0.00000000000E+00 0. -1.
         -3    1    3    3    0  502  0.89729306031E+02  0.75592710983E+02 -0.30816579853E+03  0.32974500102E+03  0.00000000000E+00 0.  1.
         11    1    5    5    0    0  0.11675523410E+02 -0.13556909223E+02  0.33478141673E+01  0.18202073900E+02  0.00000000000E+00 0. -1.
        -11    1    5    5    0    0 -0.52736622031E+02 -0.10945963180E+03  0.32983636128E+03  0.35150332504E+03  0.00000000000E+00 0.  1.
          1    1    6    6  503    0  0.18689422868E+01  0.18902051868E+02 -0.62860571684E+02  0.65667587001E+02  0.00000000000E+00 0. -1.
         -1    1    6    6    0  503 -0.76820182013E+02 -0.90122967300E+02 -0.51511291581E+03  0.52854971917E+03  0.00000000000E+00 0.  1.
<mgrwt>
<rscale>  0 0.13521054E+04</rscale>
<asrwt>0</asrwt>
<pdfrwt beam="1">  1        2 0.59111356E-01 0.13521054E+04</pdfrwt>
<pdfrwt beam="2">  1       -1 0.18300521E+00 0.13521054E+04</pdfrwt>
<totfact> 0.18418378E+01</totfact>
</mgrwt>
</event>
<event>
12    6  0.1569942E-007  0.1335909E+04  0.7818608E-02  0.9001564E-01
          2   -1    0    0  501    0  0.00000000000E+00  0.00000000000E+00  0.69773063814E+03  0.69773063814E+03  0.00000000000E+00 0. -1.
         -1   -1    0    0    0  501 -0.00000000000E+00 -0.00000000000E+00 -0.63944892438E+03  0.63944892438E+03  0.00000000000E+00 0.  1.
         24    2    1    2    0    0  0.62817978406E+02  0.37965688525E+02  0.35369126191E+03  0.36985532164E+03  0.79422655966E+02 0.  0.
        254    2    1    2    0    0 -0.62817978406E+02 -0.37965688525E+02 -0.29540954815E+03  0.96732424088E+03  0.91818401965E+03 0.  0.
         23    2    4    4    0    0 -0.39294457081E+03 -0.26105811330E+03 -0.28367563652E+03  0.55823517155E+03  0.92724677138E+02 0.  0.
         23    2    4    4    0    0  0.33012659240E+03  0.22309242478E+03 -0.11733911624E+02  0.40908906933E+03  0.91991222197E+02 0.  0.
          4    1    3    3  502    0  0.51698475900E+02 -0.42303587533E+01  0.27523668132E+03  0.28008187926E+03  0.00000000000E+00 0. -1.
         -3    1    3    3    0  502  0.11119502506E+02  0.42196047278E+02  0.78454580583E+02  0.89773442378E+02  0.00000000000E+00 0.  1.
         11    1    5    5    0    0 -0.37405745322E+03 -0.24296971643E+03 -0.28908572627E+03  0.53152969677E+03  0.00000000000E+00 0.  1.
        -11    1    5    5    0    0 -0.18887117592E+02 -0.18088396870E+02  0.54100897517E+01  0.26705474783E+02  0.00000000000E+00 0. -1.
          2    1    6    6  503    0  0.13397666156E+02  0.36339485085E+02  0.12246819560E+02  0.40620687144E+02  0.00000000000E+00 0. -1.
         -2    1    6    6    0  503  0.31672892625E+03  0.18675293969E+03 -0.23980731185E+02  0.36846838219E+03  0.00000000000E+00 0.  1.
<mgrwt>
<rscale>  0 0.13359088E+04</rscale>
<asrwt>0</asrwt>
<pdfrwt beam="1">  1        2 0.10734318E+00 0.13359088E+04</pdfrwt>
<pdfrwt beam="2">  1       -1 0.98376757E-01 0.13359088E+04</pdfrwt>
<totfact> 0.45482923E+01</totfact>
</mgrwt>
</event>
<event>
12    6  0.1569942E-007  0.1547389E+04  0.7818608E-02  0.8853537E-01
          2   -1    0    0  501    0  0.00000000000E+00  0.00000000000E+00  0.12025729608E+04  0.12025729608E+04  0.00000000000E+00 0. -1.
         -1   -1    0    0    0  501 -0.00000000000E+00 -0.00000000000E+00 -0.49776851309E+03  0.49776851309E+03  0.00000000000E+00 0.  1.
         24    2    1    2    0    0  0.90050555418E+02 -0.29964544013E+03  0.66448930217E+03  0.74005443773E+03  0.90763680976E+02 0.  0.
        254    2    1    2    0    0 -0.90050555418E+02  0.29964544013E+03  0.40315145549E+02  0.96028703617E+03  0.90698918878E+03 0.  0.
         23    2    4    4    0    0  0.11311168243E+03  0.49359896418E+03 -0.22726491848E+03  0.56155973350E+03  0.85239667847E+02 0.  0.
         23    2    4    4    0    0 -0.20316223785E+03 -0.19395352405E+03  0.26758006403E+03  0.39872730267E+03  0.92149372503E+02 0.  0.
          4    1    3    3  502    0  0.10864251162E+03 -0.24369696611E+03  0.54209444586E+03  0.60420012815E+03  0.00000000000E+00 0. -1.
         -3    1    3    3    0  502 -0.18591956205E+02 -0.55948474012E+02  0.12239485631E+03  0.13585430958E+03  0.00000000000E+00 0.  1.
         11    1    5    5    0    0  0.76870802882E+02  0.16114905853E+03 -0.66760661374E+02  0.19061774657E+03  0.00000000000E+00 0.  1.
        -11    1    5    5    0    0  0.36240879547E+02  0.33244990565E+03 -0.16050425711E+03  0.37094198692E+03  0.00000000000E+00 0. -1.
          1    1    6    6  503    0 -0.97314094284E+02 -0.13497640308E+03  0.19933900674E+03  0.25966266952E+03  0.00000000000E+00 0. -1.
         -1    1    6    6    0  503 -0.10584814356E+03 -0.58977120974E+02  0.68241057286E+02  0.13906463315E+03  0.00000000000E+00 0.  1.
<mgrwt>
<rscale>  0 0.15473887E+04</rscale>
<asrwt>0</asrwt>
<pdfrwt beam="1">  1        2 0.18501122E+00 0.15473887E+04</pdfrwt>
<pdfrwt beam="2">  1       -1 0.76579771E-01 0.15473887E+04</pdfrwt>
<totfact> 0.35460916E+01</totfact>
</mgrwt>
</event>
<event>
12    6  0.1569942E-007  0.2390168E+04  0.7818608E-02  0.8443194E-01
         -1   -1    0    0    0  501 -0.00000000000E+00  0.00000000000E+00  0.51832074458E+03  0.51832074458E+03  0.00000000000E+00 0.  1.
          2   -1    0    0  501    0  0.00000000000E+00 -0.00000000000E+00 -0.27554862697E+04  0.27554862697E+04  0.00000000000E+00 0. -1.
         24    2    1    2    0    0 -0.75052788906E+03 -0.69387985595E+03 -0.10311931860E+04  0.14541654384E+04  0.80475889008E+02 0.  0.
        254    2    1    2    0    0  0.75052788906E+03  0.69387985595E+03 -0.12059723391E+04  0.18196415758E+04  0.90109090278E+03 0.  0.
         23    2    4    4    0    0  0.47526493498E+03  0.73234507221E+03 -0.12452553877E+04  0.15234228052E+04  0.89162769643E+02 0.  0.
         23    2    4    4    0    0  0.27526295408E+03 -0.38465216260E+02  0.39283048617E+02  0.29621877065E+03  0.94621009427E+02 0.  0.
          2    1    3    3  502    0 -0.17597363501E+02 -0.24928088357E+02 -0.15613884738E+02  0.34276379446E+02  0.00000000000E+00 0. -1.
         -1    1    3    3    0  502 -0.73293052556E+03 -0.66895176760E+03 -0.10155793012E+04  0.14198890590E+04  0.00000000000E+00 0.  1.
         11    1    5    5    0    0  0.13076070506E+03  0.20431195924E+03 -0.41820802681E+03  0.48346633012E+03  0.00000000000E+00 0.  1.
        -11    1    5    5    0    0  0.34450422992E+03  0.52803311297E+03 -0.82704736093E+03  0.10399564751E+04  0.00000000000E+00 0. -1.
          1    1    6    6  503    0  0.15273204860E+03 -0.66760394415E+02  0.35401917618E+02  0.17040341753E+03  0.00000000000E+00 0. -1.
         -1    1    6    6    0  503  0.12253090548E+03  0.28295178155E+02  0.38811309993E+01  0.12581535313E+03  0.00000000000E+00 0.  1.
<mgrwt>
<rscale>  0 0.23901679E+04</rscale>
<asrwt>0</asrwt>
<pdfrwt beam="1">  1        2 0.42392096E+00 0.23901679E+04</pdfrwt>
<pdfrwt beam="2">  1       -1 0.79741654E-01 0.23901679E+04</pdfrwt>
<totfact> 0.39558602E+00</totfact>
</mgrwt>
</event>
<event>
12    6  0.1569942E-007  0.1908268E+04  0.7818608E-02  0.8650752E-01
         -1   -1    0    0    0  501 -0.00000000000E+00  0.00000000000E+00  0.39519880124E+03  0.39519880124E+03  0.00000000000E+00 0.  1.
          2   -1    0    0  501    0  0.00000000000E+00 -0.00000000000E+00 -0.23035800480E+04  0.23035800480E+04  0.00000000000E+00 0. -1.
         24    2    1    2    0    0  0.41873973388E+03  0.11083309248E+03  0.10596178648E+03  0.45267354855E+03  0.77836381228E+02 0.  0.
        254    2    1    2    0    0 -0.41873973388E+03 -0.11083309248E+03 -0.20143430333E+04  0.22461053007E+04  0.89430656217E+03 0.  0.
         23    2    4    4    0    0 -0.24812488613E+03  0.30920278200E+03 -0.41560919979E+03  0.58152284176E+03  0.90914734935E+02 0.  0.
         23    2    4    4    0    0 -0.17061484775E+03 -0.42003587448E+03 -0.15987338335E+04  0.16645824590E+04  0.96671248293E+02 0.  0.
          4    1    3    3  502    0  0.51775092825E+02  0.34801046669E+02 -0.28150626250E+01  0.62447559311E+02  0.00000000000E+00 0. -1.
         -1    1    3    3    0  502  0.36696464105E+03  0.76032045808E+02  0.10877684911E+03  0.39022598923E+03  0.00000000000E+00 0.  1.
         11    1    5    5    0    0 -0.12304789680E+03  0.14020839885E+03 -0.13218409620E+03  0.22863030268E+03  0.00000000000E+00 0.  1.
        -11    1    5    5    0    0 -0.12507698933E+03  0.16899438315E+03 -0.28342510358E+03  0.35289253908E+03  0.00000000000E+00 0. -1.
          1    1    6    6  503    0  0.34976411625E+01 -0.80797658918E+02 -0.33156668524E+03  0.34128721327E+03  0.00000000000E+00 0. -1.
         -1    1    6    6    0  503 -0.17411248891E+03 -0.33923821556E+03 -0.12671671482E+04  0.13232952457E+04  0.00000000000E+00 0.  1.
<mgrwt>
<rscale>  0 0.19082684E+04</rscale>
<asrwt>0</asrwt>
<pdfrwt beam="1">  1        2 0.35439692E+00 0.19082684E+04</pdfrwt>
<pdfrwt beam="2">  1       -1 0.60799818E-01 0.19082684E+04</pdfrwt>
<totfact> 0.13195836E+01</totfact>
</mgrwt>
</event>
<event>
12    6  0.1993248E-007  0.1922854E+04  0.7818608E-02  0.8643563E-01
          2   -1    0    0  501    0  0.00000000000E+00  0.00000000000E+00  0.16839426553E+04  0.16839426553E+04  0.00000000000E+00 0. -1.
         -1   -1    0    0    0  501 -0.00000000000E+00 -0.00000000000E+00 -0.54891528030E+03  0.54891528030E+03  0.00000000000E+00 0.  1.
         24    2    1    2    0    0  0.29960160753E+03 -0.32741677544E+03  0.11510167685E+04  0.12362411692E+04  0.80559040547E+02 0.  0.
        254    2    1    2    0    0 -0.29960160753E+03  0.32741677544E+03 -0.15989393452E+02  0.99661676644E+03  0.89220314412E+03 0.  0.
         23    2    4    4    0    0 -0.47402258011E+03  0.13235507759E+03  0.29345453282E+03  0.58005656460E+03  0.90193027937E+02 0.  0.
         23    2    4    4    0    0  0.17442097259E+03  0.19506169785E+03 -0.30944392627E+03  0.41656020184E+03  0.96411185063E+02 0.  0.
          4    1    3    3  502    0  0.28729278266E+03 -0.28253919486E+03  0.99702474908E+03  0.10753715125E+04  0.00000000000E+00 0. -1.
         -3    1    3    3    0  502  0.12308824863E+02 -0.44877580581E+02  0.15399201937E+03  0.16086965668E+03  0.00000000000E+00 0.  1.
         11    1    5    5    0    0 -0.42434907944E+03  0.91990728682E+02  0.27284465731E+03  0.51281443272E+03  0.00000000000E+00 0. -1.
        -11    1    5    5    0    0 -0.49673500672E+02  0.40364348907E+02  0.20609875512E+02  0.67242131884E+02  0.00000000000E+00 0.  1.
          1    1    6    6  503    0  0.16903291400E+03  0.13034479931E+03 -0.24725335011E+03  0.32664370783E+03  0.00000000000E+00 0. -1.
         -1    1    6    6    0  503  0.53880585826E+01  0.64716898541E+02 -0.62190576157E+02  0.89916494008E+02  0.00000000000E+00 0.  1.
<mgrwt>
<rscale>  0 0.19228540E+04</rscale>
<asrwt>0</asrwt>
<pdfrwt beam="1">  1        2 0.25906810E+00 0.19228540E+04</pdfrwt>
<pdfrwt beam="2">  1       -1 0.84448506E-01 0.19228540E+04</pdfrwt>
<totfact> 0.14801501E+01</totfact>
</mgrwt>
</event>
<event>
12    6  0.1569942E-007  0.2004171E+04  0.7818608E-02  0.8604673E-01
          2   -1    0    0  501    0  0.00000000000E+00  0.00000000000E+00  0.12526688018E+04  0.12526688018E+04  0.00000000000E+00 0. -1.
         -1   -1    0    0    0  501 -0.00000000000E+00 -0.00000000000E+00 -0.80162872923E+03  0.80162872923E+03  0.00000000000E+00 0.  1.
         24    2    1    2    0    0 -0.14553902777E+03 -0.58935704468E+03  0.71348687629E+03  0.94004093003E+03  0.78039046474E+02 0.  0.
        254    2    1    2    0    0  0.14553902777E+03  0.58935704468E+03 -0.26244680376E+03  0.11142566010E+04  0.89675309494E+03 0.  0.
         23    2    4    4    0    0  0.47116988770E+03  0.50848489140E+03 -0.30610043704E+03  0.76345085986E+03  0.92745835487E+02 0.  0.
         23    2    4    4    0    0 -0.32563085993E+03  0.80872153276E+02  0.43653633284E+02  0.35080574111E+03  0.92645918317E+02 0.  0.
          4    1    3    3  502    0 -0.12353049461E+03 -0.34737372158E+03  0.44638411103E+03  0.57895341792E+03  0.00000000000E+00 0. -1.
         -3    1    3    3    0  502 -0.22008533156E+02 -0.24198332311E+03  0.26710276526E+03  0.36108751211E+03  0.00000000000E+00 0.  1.
         11    1    5    5    0    0  0.28100139826E+03  0.26373453446E+03 -0.21035876571E+03  0.43905409781E+03  0.00000000000E+00 0. -1.
        -11    1    5    5    0    0  0.19016848944E+03  0.24475035694E+03 -0.95741671334E+02  0.32439676205E+03  0.00000000000E+00 0.  1.
          4    1    6    6  503    0 -0.11587629768E+03 -0.10706127747E+02 -0.63111887148E+01  0.11654084537E+03  0.00000000000E+00 0.  1.
         -4    1    6    6    0  503 -0.20975456225E+03  0.91578281023E+02  0.49964821998E+02  0.23426489574E+03  0.00000000000E+00 0. -1.
<mgrwt>
<rscale>  0 0.20041710E+04</rscale>
<asrwt>0</asrwt>
<pdfrwt beam="1">  1        2 0.19271828E+00 0.20041710E+04</pdfrwt>
<pdfrwt beam="2">  1       -1 0.12332750E+00 0.20041710E+04</pdfrwt>
<totfact> 0.10798943E+01</totfact>
</mgrwt>
</event>
<event>
12    6  0.1569942E-007  0.1420614E+04  0.7818608E-02  0.8939031E-01
          2   -1    0    0  501    0  0.00000000000E+00  0.00000000000E+00  0.55757742211E+03  0.55757742211E+03  0.00000000000E+00 0. -1.
         -1   -1    0    0    0  501 -0.00000000000E+00 -0.00000000000E+00 -0.90487188788E+03  0.90487188788E+03  0.00000000000E+00 0.  1.
         24    2    1    2    0    0  0.12540085343E+03 -0.39053413948E+03 -0.16545124402E+03  0.44983470803E+03  0.82066206564E+02 0.  0.
        254    2    1    2    0    0 -0.12540085343E+03  0.39053413948E+03 -0.18184322176E+03  0.10126146020E+04  0.90778801857E+03 0.  0.
         23    2    4    4    0    0 -0.12207934893E+03  0.14333212753E+03  0.35637012460E+03  0.41336694295E+03  0.91788330385E+02 0.  0.
         23    2    4    4    0    0 -0.33215045016E+01  0.24720201195E+03 -0.53821334636E+03  0.59924765901E+03  0.91127841698E+02 0.  0.
          4    1    3    3  502    0  0.78297249271E+02 -0.20775467630E+03 -0.46830465068E+02  0.22690429089E+03  0.00000000000E+00 0. -1.
         -3    1    3    3    0  502  0.47103604162E+02 -0.18277946318E+03 -0.11862077895E+03  0.22293041713E+03  0.00000000000E+00 0.  1.
         11    1    5    5    0    0 -0.12739538743E+03  0.13468142198E+03  0.35793288741E+03  0.40309381297E+03  0.00000000000E+00 0.  1.
        -11    1    5    5    0    0  0.53160385030E+01  0.86507055466E+01 -0.15627628109E+01  0.10273129972E+02  0.00000000000E+00 0. -1.
          3    1    6    6  503    0 -0.21496062502E+02  0.11728445492E+03 -0.16443302905E+03  0.20311559544E+03  0.00000000000E+00 0. -1.
         -3    1    6    6    0  503  0.18174558000E+02  0.12991755703E+03 -0.37378031731E+03  0.39613206357E+03  0.00000000000E+00 0.  1.
<mgrwt>
<rscale>  0 0.14206141E+04</rscale>
<asrwt>0</asrwt>
<pdfrwt beam="1">  1        2 0.85781142E-01 0.14206141E+04</pdfrwt>
<pdfrwt beam="2">  1       -1 0.13921106E+00 0.14206141E+04</pdfrwt>
<totfact> 0.25599820E+01</totfact>
</mgrwt>
</event>
<event>
12    6  0.1569942E-007  0.1910675E+04  0.7818608E-02  0.8649561E-01
         -1   -1    0    0    0  501 -0.00000000000E+00  0.00000000000E+00  0.70285235976E+03  0.70285235976E+03  0.00000000000E+00 0.  1.
          2   -1    0    0  501    0  0.00000000000E+00 -0.00000000000E+00 -0.12985222401E+04  0.12985222401E+04  0.00000000000E+00 0. -1.
         24    2    1    2    0    0 -0.48056832161E+03 -0.50816858658E+03 -0.46925976636E+03  0.84626187249E+03  0.82299479865E+02 0.  0.
        254    2    1    2    0    0  0.48056832161E+03  0.50816858658E+03 -0.12641011399E+03  0.11551127274E+04  0.91056283248E+03 0.  0.
         23    2    4    4    0    0 -0.89597393358E+02 -0.13406151281E+03 -0.21885727048E+03  0.28665116277E+03  0.90940651867E+02 0.  0.
         23    2    4    4    0    0  0.57016571496E+03  0.64223009939E+03  0.92447156490E+02  0.86846156461E+03  0.90169669900E+02 0.  0.
          4    1    3    3  502    0 -0.15919866985E+03 -0.17833010309E+03 -0.11512790142E+03  0.26533050302E+03  0.00000000000E+00 0. -1.
         -3    1    3    3    0  502 -0.32136965175E+03 -0.32983848349E+03 -0.35413186494E+03  0.58093136947E+03  0.00000000000E+00 0.  1.
         11    1    5    5    0    0  0.16316780837E+02 -0.40261452670E+01 -0.27226625204E+02  0.31995879462E+02  0.00000000000E+00 0. -1.
        -11    1    5    5    0    0 -0.10591417420E+03 -0.13003536754E+03 -0.19163064527E+03  0.25465528330E+03  0.00000000000E+00 0.  1.
          1    1    6    6  503    0  0.17424639955E+03  0.17864828504E+03  0.66538231849E+02  0.25827186026E+03  0.00000000000E+00 0. -1.
         -1    1    6    6    0  503  0.39591931541E+03  0.46358181435E+03  0.25908924641E+02  0.61018970434E+03  0.00000000000E+00 0.  1.
<mgrwt>
<rscale>  0 0.19106747E+04</rscale>
<asrwt>0</asrwt>
<pdfrwt beam="1">  1        2 0.19977265E+00 0.19106747E+04</pdfrwt>
<pdfrwt beam="2">  1       -1 0.10813113E+00 0.19106747E+04</pdfrwt>
<totfact> 0.14042776E+01</totfact>
</mgrwt>
</event>
<event>
12    6  0.1569942E-007  0.1437025E+04  0.7818608E-02  0.8927446E-01
         -1   -1    0    0    0  501 -0.00000000000E+00  0.00000000000E+00  0.21456057014E+03  0.21456057014E+03  0.00000000000E+00 0.  1.
          2   -1    0    0  501    0  0.00000000000E+00 -0.00000000000E+00 -0.24061281813E+04  0.24061281813E+04  0.00000000000E+00 0. -1.
         24    2    1    2    0    0  0.34449447122E+03 -0.44661106095E+02 -0.22931529313E+03  0.42367018012E+03  0.78992801980E+02 0.  0.
        254    2    1    2    0    0 -0.34449447122E+03  0.44661106095E+02 -0.19622523180E+04  0.21970185713E+04  0.92508669218E+03 0.  0.
         23    2    4    4    0    0 -0.29099908165E+03 -0.35544400005E+03 -0.15230072460E+04  0.15933475248E+04  0.90467457504E+02 0.  0.
         23    2    4    4    0    0 -0.53495389570E+02  0.40010510615E+03 -0.43924507203E+03  0.60367104648E+03  0.92393973766E+02 0.  0.
          2    1    3    3  502    0  0.72270439922E+02  0.19827207086E+02 -0.65155740304E+02  0.99304607758E+02  0.00000000000E+00 0. -1.
         -1    1    3    3    0  502  0.27222403129E+03 -0.64488313180E+02 -0.16415955283E+03  0.32436557236E+03  0.00000000000E+00 0.  1.
         11    1    5    5    0    0 -0.26273132248E+02 -0.86823335348E+02 -0.31994855795E+03  0.33255924100E+03  0.00000000000E+00 0. -1.
        -11    1    5    5    0    0 -0.26472594940E+03 -0.26862066470E+03 -0.12030586880E+04  0.12607882838E+04  0.00000000000E+00 0.  1.
          3    1    6    6  503    0 -0.25177111085E+02  0.98839974582E+02 -0.17195976060E+03  0.19993345584E+03  0.00000000000E+00 0. -1.
         -3    1    6    6    0  503 -0.28318278485E+02  0.30126513156E+03 -0.26728531143E+03  0.40373759064E+03  0.00000000000E+00 0.  1.
<mgrwt>
<rscale>  0 0.14370250E+04</rscale>
<asrwt>0</asrwt>
<pdfrwt beam="1">  1        2 0.37017356E+00 0.14370250E+04</pdfrwt>
<pdfrwt beam="2">  1       -1 0.33009319E-01 0.14370250E+04</pdfrwt>
<totfact> 0.37662828E+01</totfact>
</mgrwt>
</event>
<event>
12    6  0.1569942E-007  0.1171845E+04  0.7818608E-02  0.9137864E-01
         -1   -1    0    0    0  501 -0.00000000000E+00  0.00000000000E+00  0.12844307505E+03  0.12844307505E+03  0.00000000000E+00 0.  1.
          2   -1    0    0  501    0  0.00000000000E+00 -0.00000000000E+00 -0.26728202647E+04  0.26728202647E+04  0.00000000000E+00 0. -1.
         24    2    1    2    0    0 -0.95981587237E+02  0.12754232343E+03 -0.90577357743E+03  0.92315850055E+03  0.79475368652E+02 0.  0.
        254    2    1    2    0    0  0.95981587237E+02 -0.12754232343E+03 -0.16386036122E+04  0.18781048392E+04  0.90375686978E+03 0.  0.
         23    2    4    4    0    0  0.30562757118E+02  0.35825134632E+03 -0.10062092208E+04  0.10725241665E+04  0.92590401346E+02 0.  0.
         23    2    4    4    0    0  0.65418830119E+02 -0.48579366975E+03 -0.63239439133E+03  0.80558067262E+03  0.93607911045E+02 0.  0.
          2    1    3    3  502    0 -0.70385638230E+02  0.51020330857E+02 -0.62512806394E+03  0.63114365128E+03  0.00000000000E+00 0. -1.
         -1    1    3    3    0  502 -0.25595949007E+02  0.76521992576E+02 -0.28064551349E+03  0.29201484927E+03  0.00000000000E+00 0.  1.
         11    1    5    5    0    0  0.31005130671E+02  0.10667364500E+03 -0.42347453704E+03  0.43780277316E+03  0.00000000000E+00 0. -1.
        -11    1    5    5    0    0 -0.44237355337E+00  0.25157770132E+03 -0.58273468380E+03  0.63472139337E+03  0.00000000000E+00 0.  1.
          2    1    6    6  503    0 -0.11969718841E+02 -0.55820669537E+02 -0.40864655501E+02  0.70207844191E+02  0.00000000000E+00 0. -1.
         -2    1    6    6    0  503  0.77388548961E+02 -0.42997300022E+03 -0.59152973583E+03  0.73537282843E+03  0.00000000000E+00 0.  1.
<mgrwt>
<rscale>  0 0.11718451E+04</rscale>
<asrwt>0</asrwt>
<pdfrwt beam="1">  1        2 0.41120310E+00 0.11718451E+04</pdfrwt>
<pdfrwt beam="2">  1       -1 0.19760474E-01 0.11718451E+04</pdfrwt>
<totfact> 0.65399643E+01</totfact>
</mgrwt>
</event>
<event>
12    6  0.1569942E-007  0.2216875E+04  0.7818608E-02  0.8511437E-01
         -1   -1    0    0    0  501 -0.00000000000E+00  0.00000000000E+00  0.51366649650E+03  0.51366649650E+03  0.00000000000E+00 0.  1.
          2   -1    0    0  501    0  0.00000000000E+00 -0.00000000000E+00 -0.23918903301E+04  0.23918903301E+04  0.00000000000E+00 0. -1.
         24    2    1    2    0    0  0.83979290318E+02 -0.45800354147E+03  0.25987194880E+03  0.53916537808E+03  0.79662475147E+02 0.  0.
        254    2    1    2    0    0 -0.83979290318E+02  0.45800354147E+03 -0.21380957824E+04  0.23663914485E+04  0.90085245610E+03 0.  0.
         23    2    4    4    0    0  0.17389198859E+03 -0.19496457785E+03 -0.89238893393E+03  0.93353583773E+03  0.82955051723E+02 0.  0.
         23    2    4    4    0    0 -0.25787127891E+03  0.65296811932E+03 -0.12457068485E+04  0.14328556108E+04  0.91786097434E+02 0.  0.
          2    1    3    3  502    0  0.11456555388E+02 -0.55119620426E+02  0.64377143240E+02  0.85521002034E+02  0.00000000000E+00 0. -1.
         -1    1    3    3    0  502  0.72522734930E+02 -0.40288392104E+03  0.19549480556E+03  0.45364437605E+03  0.00000000000E+00 0.  1.
         11    1    5    5    0    0  0.16037759393E+03 -0.19041902058E+03 -0.88034875201E+03  0.91487392639E+03  0.00000000000E+00 0.  1.
        -11    1    5    5    0    0  0.13514394659E+02 -0.45455572752E+01 -0.12040181927E+02  0.18661911338E+02  0.00000000000E+00 0. -1.
          1    1    6    6  503    0 -0.57934064668E+02  0.15966061687E+03 -0.38585936306E+03  0.42158666546E+03  0.00000000000E+00 0. -1.
         -1    1    6    6    0  503 -0.19993721424E+03  0.49330750245E+03 -0.85984748540E+03  0.10112689453E+04  0.00000000000E+00 0.  1.
<mgrwt>
<rscale>  0 0.22168752E+04</rscale>
<asrwt>0</asrwt>
<pdfrwt beam="1">  1        2 0.36798312E+00 0.22168752E+04</pdfrwt>
<pdfrwt beam="2">  1       -1 0.79025616E-01 0.22168752E+04</pdfrwt>
<totfact> 0.66826644E+00</totfact>
</mgrwt>
</event>
<event>
12    6  0.1569942E-007  0.1319786E+04  0.7818608E-02  0.9014020E-01
         -1   -1    0    0    0  501 -0.00000000000E+00  0.00000000000E+00  0.30165279834E+03  0.30165279834E+03  0.00000000000E+00 0.  1.
          2   -1    0    0  501    0  0.00000000000E+00 -0.00000000000E+00 -0.14435768540E+04  0.14435768540E+04  0.00000000000E+00 0. -1.
         24    2    1    2    0    0 -0.25839124918E+03 -0.20737246865E+03 -0.44379215499E+03  0.55951834473E+03  0.79623632521E+02 0.  0.
        254    2    1    2    0    0  0.25839124918E+03  0.20737246865E+03 -0.69813190068E+03  0.11857113076E+04  0.89930738674E+03 0.  0.
         23    2    4    4    0    0 -0.57297746961E+02  0.46801080854E+03 -0.57431554435E+03  0.74853364949E+03  0.90261460355E+02 0.  0.
         23    2    4    4    0    0  0.31568899614E+03 -0.26063833989E+03 -0.12381635633E+03  0.43717765812E+03  0.90564497257E+02 0.  0.
          4    1    3    3  502    0 -0.22224658603E+03 -0.19850584035E+03 -0.42129528059E+03  0.51603083930E+03  0.00000000000E+00 0. -1.
         -3    1    3    3    0  502 -0.36144663148E+02 -0.88666282946E+01 -0.22496874404E+02  0.43487505439E+02  0.00000000000E+00 0.  1.
         11    1    5    5    0    0 -0.77728964728E+02  0.37655644543E+03 -0.43421020650E+03  0.57997849269E+03  0.00000000000E+00 0.  1.
        -11    1    5    5    0    0  0.20431217767E+02  0.91454363106E+02 -0.14010533786E+03  0.16855515681E+03  0.00000000000E+00 0. -1.
          2    1    6    6  503    0 -0.59507421791E+00 -0.16209342134E+02 -0.16846240576E+02  0.23385737262E+02  0.00000000000E+00 0. -1.
         -2    1    6    6    0  503  0.31628407036E+03 -0.24442899776E+03 -0.10697011576E+03  0.41379192086E+03  0.00000000000E+00 0.  1.
<mgrwt>
<rscale>  0 0.13197863E+04</rscale>
<asrwt>0</asrwt>
<pdfrwt beam="1">  1        2 0.22208875E+00 0.13197863E+04</pdfrwt>
<pdfrwt beam="2">  1       -1 0.46408123E-01 0.13197863E+04</pdfrwt>
<totfact> 0.70438265E+01</totfact>
</mgrwt>
</event>
<event>
12    6  0.1569942E-007  0.1484407E+04  0.7818608E-02  0.8894889E-01
          4   -1    0    0  501    0  0.00000000000E+00  0.00000000000E+00  0.15601486519E+04  0.15601486519E+04  0.00000000000E+00 0. -1.
         -3   -1    0    0    0  501 -0.00000000000E+00 -0.00000000000E+00 -0.35308540129E+03  0.35308540129E+03  0.00000000000E+00 0.  1.
         24    2    1    2    0    0  0.35281970179E+03  0.17109816155E+03  0.70885400053E+03  0.81427773828E+03  0.82570685705E+02 0.  0.
        254    2    1    2    0    0 -0.35281970179E+03 -0.17109816155E+03  0.49820925007E+03  0.10989563149E+04  0.89762809801E+03 0.  0.
         23    2    4    4    0    0 -0.57964191970E+03 -0.27987943548E+03  0.52092794649E+03  0.83299093229E+03  0.90502565474E+02 0.  0.
         23    2    4    4    0    0  0.22682221791E+03  0.10878127393E+03 -0.22718696421E+02  0.26596538261E+03  0.83305230820E+02 0.  0.
          4    1    3    3  502    0  0.20489048957E+03  0.11076177287E+03  0.33802719710E+03  0.41050051038E+03  0.00000000000E+00 0. -1.
         -3    1    3    3    0  502  0.14792921222E+03  0.60336388675E+02  0.37082680343E+03  0.40377722790E+03  0.00000000000E+00 0.  1.
         11    1    5    5    0    0 -0.25504243490E+03 -0.16214657043E+03  0.27963562094E+03  0.41174535140E+03  0.00000000000E+00 0. -1.
        -11    1    5    5    0    0 -0.32459948480E+03 -0.11773286505E+03  0.24129232555E+03  0.42124558089E+03  0.00000000000E+00 0.  1.
          3    1    6    6  503    0  0.28879874345E+02  0.40760257221E+02 -0.26662593511E+02  0.56624549479E+02  0.00000000000E+00 0. -1.
         -3    1    6    6    0  503  0.19794234357E+03  0.68021016712E+02  0.39438970899E+01  0.20934083313E+03  0.00000000000E+00 0.  1.
<mgrwt>
<rscale>  0 0.14844066E+04</rscale>
<asrwt>0</asrwt>
<pdfrwt beam="1">  1        4 0.24002287E+00 0.14844066E+04</pdfrwt>
<pdfrwt beam="2">  1       -3 0.54320832E-01 0.14844066E+04</pdfrwt>
<totfact> 0.53983606E-01</totfact>
</mgrwt>
</event>
<event>
12    6  0.1569942E-007  0.1576483E+04  0.7818608E-02  0.8835127E-01
         -1   -1    0    0    0  501 -0.00000000000E+00  0.00000000000E+00  0.12446084984E+04  0.12446084984E+04  0.00000000000E+00 0.  1.
          2   -1    0    0  501    0  0.00000000000E+00 -0.00000000000E+00 -0.49921302298E+03  0.49921302298E+03  0.00000000000E+00 0. -1.
         24    2    1    2    0    0 -0.29170116086E+03  0.40482291138E+03  0.23522968707E+03  0.55737760107E+03  0.79784883685E+02 0.  0.
        254    2    1    2    0    0  0.29170116086E+03 -0.40482291138E+03  0.51016578838E+03  0.11864439203E+04  0.94784433726E+03 0.  0.
         23    2    4    4    0    0  0.25093994700E+03 -0.57124566391E+03  0.68032138755E+03  0.92742801389E+03  0.89403943152E+02 0.  0.
         23    2    4    4    0    0  0.40761213865E+02  0.16642275252E+03 -0.17015559917E+03  0.25901590646E+03  0.93692597129E+02 0.  0.
          4    1    3    3  502    0 -0.11098187350E+03  0.16214371129E+03  0.50524990426E+02  0.20288009763E+03  0.00000000000E+00 0. -1.
         -3    1    3    3    0  502 -0.18071928736E+03  0.24267920010E+03  0.18470469664E+03  0.35449750344E+03  0.00000000000E+00 0.  1.
         11    1    5    5    0    0  0.19940957626E+02 -0.84846653087E+01  0.29021038936E+02  0.36219498028E+02  0.00000000000E+00 0.  1.
        -11    1    5    5    0    0  0.23099898937E+03 -0.56276099860E+03  0.65130034862E+03  0.89120851586E+03  0.00000000000E+00 0. -1.
          1    1    6    6  503    0  0.56595543324E+02  0.14898499735E+03 -0.17308198427E+03  0.23528059469E+03  0.00000000000E+00 0. -1.
         -1    1    6    6    0  503 -0.15834329459E+02  0.17437755172E+02  0.29263851007E+01  0.23735311766E+02  0.00000000000E+00 0.  1.
<mgrwt>
<rscale>  0 0.15764831E+04</rscale>
<asrwt>0</asrwt>
<pdfrwt beam="1">  1        2 0.76802004E-01 0.15764831E+04</pdfrwt>
<pdfrwt beam="2">  1       -1 0.19147823E+00 0.15764831E+04</pdfrwt>
<totfact> 0.11686828E+01</totfact>
</mgrwt>
</event>
<event>
12    6  0.1569942E-007  0.2115815E+04  0.7818608E-02  0.8554309E-01
         -1   -1    0    0    0  501 -0.00000000000E+00  0.00000000000E+00  0.13718654758E+04  0.13718654758E+04  0.00000000000E+00 0.  1.
          2   -1    0    0  501    0  0.00000000000E+00 -0.00000000000E+00 -0.81580034271E+03  0.81580034271E+03  0.00000000000E+00 0. -1.
         24    2    1    2    0    0  0.84879190710E+02 -0.29129221332E+03  0.10804057054E+04  0.11249817471E+04  0.79068404804E+02 0.  0.
        254    2    1    2    0    0 -0.84879190710E+02  0.29129221332E+03 -0.52434057225E+03  0.10626840714E+04  0.87310295460E+03 0.  0.
         23    2    4    4    0    0  0.94372894870E+02  0.56641198693E+03 -0.29271363571E+03  0.65093394458E+03  0.91131473485E+02 0.  0.
         23    2    4    4    0    0 -0.17925208558E+03 -0.27511977360E+03 -0.23162693653E+03  0.41175012681E+03  0.89804950814E+02 0.  0.
          2    1    3    3  502    0  0.41290007072E+02 -0.17873946059E+03  0.51117349999E+03  0.54309392056E+03  0.00000000000E+00 0. -1.
         -1    1    3    3    0  502  0.43589183638E+02 -0.11255275273E+03  0.56923220538E+03  0.58188782658E+03  0.00000000000E+00 0.  1.
         11    1    5    5    0    0  0.49226042139E+02  0.48848600577E+03 -0.25580934489E+03  0.55360654078E+03  0.00000000000E+00 0.  1.
        -11    1    5    5    0    0  0.45146852732E+02  0.77925981156E+02 -0.36904290825E+02  0.97327403808E+02  0.00000000000E+00 0. -1.
          2    1    6    6  503    0 -0.45724350554E+02 -0.23848640519E+02 -0.61353439572E+02  0.80148103131E+02  0.00000000000E+00 0. -1.
         -2    1    6    6    0  503 -0.13352773503E+03 -0.25127113308E+03 -0.17027349696E+03  0.33160202368E+03  0.00000000000E+00 0.  1.
<mgrwt>
<rscale>  0 0.21158150E+04</rscale>
<asrwt>0</asrwt>
<pdfrwt beam="1">  1        2 0.12550775E+00 0.21158150E+04</pdfrwt>
<pdfrwt beam="2">  1       -1 0.21105623E+00 0.21158150E+04</pdfrwt>
<totfact> 0.44557652E+00</totfact>
</mgrwt>
</event>
<event>
12    6  0.1569942E-007  0.1708223E+04  0.7818608E-02  0.8756688E-01
          2   -1    0    0  501    0  0.00000000000E+00  0.00000000000E+00  0.17034957141E+04  0.17034957141E+04  0.00000000000E+00 0. -1.
         -1   -1    0    0    0  501 -0.00000000000E+00 -0.00000000000E+00 -0.42824104559E+03  0.42824104559E+03  0.00000000000E+00 0.  1.
         24    2    1    2    0    0 -0.53308280092E+03  0.27610414507E+03  0.65902155329E+03  0.89502525828E+03  0.79687098684E+02 0.  0.
        254    2    1    2    0    0  0.53308280092E+03 -0.27610414507E+03  0.61623311522E+03  0.12367115014E+04  0.88842631314E+03 0.  0.
         23    2    4    4    0    0  0.36430389673E+03  0.19850434388E+03  0.58594337788E+03  0.72372706099E+03  0.91268357132E+02 0.  0.
         23    2    4    4    0    0  0.16877890419E+03 -0.47460848895E+03  0.30289737343E+02  0.51298444043E+03  0.92173920647E+02 0.  0.
          2    1    3    3  502    0 -0.73016394934E+02  0.30193334670E+02  0.12952009746E+03  0.15171844658E+03  0.00000000000E+00 0. -1.
         -3    1    3    3    0  502 -0.46006640598E+03  0.24591081040E+03  0.52950145583E+03  0.74330681170E+03  0.00000000000E+00 0.  1.
         11    1    5    5    0    0  0.36596517789E+03  0.18681673094E+03  0.57916335096E+03  0.71011350465E+03  0.00000000000E+00 0.  1.
        -11    1    5    5    0    0 -0.16612811566E+01  0.11687612935E+02  0.67800269164E+01  0.13613556339E+02  0.00000000000E+00 0. -1.
          1    1    6    6  503    0  0.74475060689E+02 -0.13978809431E+03 -0.26317246676E+02  0.16056102718E+03  0.00000000000E+00 0. -1.
         -1    1    6    6    0  503  0.94303843499E+02 -0.33482039464E+03  0.56606984019E+02  0.35242341325E+03  0.00000000000E+00 0.  1.
<mgrwt>
<rscale>  0 0.17082234E+04</rscale>
<asrwt>0</asrwt>
<pdfrwt beam="1">  1        2 0.26207626E+00 0.17082234E+04</pdfrwt>
<pdfrwt beam="2">  1       -1 0.65883239E-01 0.17082234E+04</pdfrwt>
<totfact> 0.24694488E+01</totfact>
</mgrwt>
</event>
<event>
12    6  0.1569942E-007  0.2102861E+04  0.7818608E-02  0.8559984E-01
         -1   -1    0    0    0  501 -0.00000000000E+00  0.00000000000E+00  0.15474774202E+04  0.15474774202E+04  0.00000000000E+00 0.  1.
          2   -1    0    0  501    0  0.00000000000E+00 -0.00000000000E+00 -0.71439231643E+03  0.71439231643E+03  0.00000000000E+00 0. -1.
         24    2    1    2    0    0 -0.15139424573E+03  0.17993695418E+03  0.12191980541E+04  0.12443260427E+04  0.81276567566E+02 0.  0.
        254    2    1    2    0    0  0.15139424573E+03 -0.17993695418E+03 -0.38611295033E+03  0.10175436939E+04  0.91159993058E+03 0.  0.
         23    2    4    4    0    0  0.46294926580E+03 -0.32355568147E+03 -0.15047867676E+03  0.59160389486E+03  0.91329264394E+02 0.  0.
         23    2    4    4    0    0 -0.31155502007E+03  0.14361872729E+03 -0.23563427356E+03  0.42593979902E+03  0.90599846325E+02 0.  0.
          4    1    3    3  502    0  0.85571869527E+01  0.20736124987E+02  0.13985104508E+03  0.14163872048E+03  0.00000000000E+00 0. -1.
         -3    1    3    3    0  502 -0.15995143269E+03  0.15920082919E+03  0.10793470090E+04  0.11026873222E+04  0.00000000000E+00 0.  1.
         11    1    5    5    0    0  0.45417283561E+03 -0.32170514142E+03 -0.15940993151E+03  0.57894618825E+03  0.00000000000E+00 0. -1.
        -11    1    5    5    0    0  0.87764301897E+01 -0.18505400466E+01  0.89312547429E+01  0.12657706610E+02  0.00000000000E+00 0.  1.
          1    1    6    6  503    0 -0.28656261925E+03  0.15429273417E+03 -0.22904099349E+03  0.39797507367E+03  0.00000000000E+00 0. -1.
         -1    1    6    6    0  503 -0.24992400825E+02 -0.10674006876E+02 -0.65932800735E+01  0.27964725351E+02  0.00000000000E+00 0.  1.
<mgrwt>
<rscale>  0 0.21028609E+04</rscale>
<asrwt>0</asrwt>
<pdfrwt beam="1">  1        2 0.10990651E+00 0.21028609E+04</pdfrwt>
<pdfrwt beam="2">  1       -1 0.23807345E+00 0.21028609E+04</pdfrwt>
<totfact> 0.35044182E+00</totfact>
</mgrwt>
</event>
<event>
12    6  0.1569942E-007  0.1367254E+04  0.7818608E-02  0.8977869E-01
         -1   -1    0    0    0  501 -0.00000000000E+00  0.00000000000E+00  0.91046412894E+03  0.91046412894E+03  0.00000000000E+00 0.  1.
          2   -1    0    0  501    0  0.00000000000E+00 -0.00000000000E+00 -0.51330472566E+03  0.51330472566E+03  0.00000000000E+00 0. -1.
         24    2    1    2    0    0 -0.23276042933E+03 -0.63948511526E+02  0.42017606403E+03  0.48882464366E+03  0.64302238460E+02 0.  0.
        254    2    1    2    0    0  0.23276042933E+03  0.63948511526E+02 -0.23016660755E+02  0.93494421094E+03  0.90295297846E+03 0.  0.
         23    2    4    4    0    0  0.39500197300E+03  0.14673489938E+03 -0.34593712773E+03  0.55251467844E+03  0.89678783337E+02 0.  0.
         23    2    4    4    0    0 -0.16224154367E+03 -0.82786387852E+02  0.32292046698E+03  0.38242953250E+03  0.93801997997E+02 0.  0.
          4    1    3    3  502    0 -0.11578945265E+03 -0.43789172065E+02  0.15554846577E+03  0.19879641379E+03  0.00000000000E+00 0. -1.
         -3    1    3    3    0  502 -0.11697097669E+03 -0.20159339461E+02  0.26462759827E+03  0.29002822986E+03  0.00000000000E+00 0.  1.
         11    1    5    5    0    0  0.20667960816E+03  0.11558993539E+03 -0.22430333977E+03  0.32617400544E+03  0.00000000000E+00 0. -1.
        -11    1    5    5    0    0  0.18832236484E+03  0.31144963987E+02 -0.12163378796E+03  0.22634067301E+03  0.00000000000E+00 0.  1.
          3    1    6    6  503    0 -0.10304296611E+03 -0.39851275555E+02  0.10442778311E+03  0.15202348145E+03  0.00000000000E+00 0. -1.
         -3    1    6    6    0  503 -0.59198577555E+02 -0.42935112297E+02  0.21849268387E+03  0.23040605104E+03  0.00000000000E+00 0.  1.
<mgrwt>
<rscale>  0 0.13672535E+04</rscale>
<asrwt>0</asrwt>
<pdfrwt beam="1">  1        2 0.78969958E-01 0.13672535E+04</pdfrwt>
<pdfrwt beam="2">  1       -1 0.14007140E+00 0.13672535E+04</pdfrwt>
<totfact> 0.27889865E+01</totfact>
</mgrwt>
</event>
<event>
12    6  0.1569942E-007  0.1396685E+04  0.7818608E-02  0.8956222E-01
         -1   -1    0    0    0  501 -0.00000000000E+00  0.00000000000E+00  0.29261592802E+03  0.29261592802E+03  0.00000000000E+00 0.  1.
          2   -1    0    0  501    0  0.00000000000E+00 -0.00000000000E+00 -0.16666295332E+04  0.16666295332E+04  0.00000000000E+00 0. -1.
         24    2    1    2    0    0 -0.10250856779E+03 -0.29955674688E+03 -0.75022501601E+03  0.81828272147E+03  0.80664654788E+02 0.  0.
        254    2    1    2    0    0  0.10250856779E+03  0.29955674688E+03 -0.62378858914E+03  0.11409627397E+04  0.90135537853E+03 0.  0.
         23    2    4    4    0    0  0.17885226266E+03  0.46723165492E+03 -0.74457680379E+03  0.90225875926E+03  0.96864341781E+02 0.  0.
         23    2    4    4    0    0 -0.76343694864E+02 -0.16767490804E+03  0.12078821465E+03  0.23870398046E+03  0.91905184605E+02 0.  0.
          2    1    3    3  502    0 -0.56922156297E+02 -0.24071897299E+03 -0.51053741161E+03  0.56730433146E+03  0.00000000000E+00 0. -1.
         -1    1    3    3    0  502 -0.45586411496E+02 -0.58837773886E+02 -0.23968760440E+03  0.25097839001E+03  0.00000000000E+00 0.  1.
         11    1    5    5    0    0  0.36555159855E+02  0.13248372814E+03 -0.28283170843E+03  0.31445507346E+03  0.00000000000E+00 0. -1.
        -11    1    5    5    0    0  0.14229710280E+03  0.33474792678E+03 -0.46174509535E+03  0.58780368580E+03  0.00000000000E+00 0.  1.
          1    1    6    6  503    0 -0.17789774308E+02 -0.29975415539E+01 -0.97982750750E+01  0.20529674127E+02  0.00000000000E+00 0. -1.
         -1    1    6    6    0  503 -0.58553920556E+02 -0.16467736648E+03  0.13058648973E+03  0.21817430633E+03  0.00000000000E+00 0.  1.
<mgrwt>
<rscale>  0 0.13966851E+04</rscale>
<asrwt>0</asrwt>
<pdfrwt beam="1">  1        2 0.25640455E+00 0.13966851E+04</pdfrwt>
<pdfrwt beam="2">  1       -1 0.45017834E-01 0.13966851E+04</pdfrwt>
<totfact> 0.55555244E+01</totfact>
</mgrwt>
</event>
<event>
12    6  0.1569942E-007  0.1130297E+04  0.7818608E-02  0.9176155E-01
         -1   -1    0    0    0  501 -0.00000000000E+00  0.00000000000E+00  0.26688780560E+03  0.26688780560E+03  0.00000000000E+00 0.  1.
          2   -1    0    0  501    0  0.00000000000E+00 -0.00000000000E+00 -0.11967305634E+04  0.11967305634E+04  0.00000000000E+00 0. -1.
         24    2    1    2    0    0  0.15064267914E+03  0.39066985157E+02 -0.24009944804E+02  0.17672656570E+03  0.80226899902E+02 0.  0.
        254    2    1    2    0    0 -0.15064267914E+03 -0.39066985157E+02 -0.90583281300E+03  0.12868918033E+04  0.90074301674E+03 0.  0.
         23    2    4    4    0    0  0.14393631424E+03 -0.24068656487E+03 -0.86765439068E+03  0.91593231865E+03  0.86372366073E+02 0.  0.
         23    2    4    4    0    0 -0.29457899338E+03  0.20161957971E+03 -0.38178422323E+02  0.37095948466E+03  0.93413644956E+02 0.  0.
          4    1    3    3  502    0  0.94526593665E+01 -0.58538075539E+01 -0.26290901756E+02  0.28545250868E+02  0.00000000000E+00 0. -1.
         -3    1    3    3    0  502  0.14119001977E+03  0.44920792711E+02  0.22809569526E+01  0.14818131483E+03  0.00000000000E+00 0.  1.
         11    1    5    5    0    0  0.51326991243E+02 -0.83481590145E+02 -0.18545158412E+03  0.20975205833E+03  0.00000000000E+00 0. -1.
        -11    1    5    5    0    0  0.92609322998E+02 -0.15720497472E+03 -0.68220280656E+03  0.70618026032E+03  0.00000000000E+00 0.  1.
          2    1    6    6  503    0 -0.13136386545E+03  0.12017781617E+03 -0.58542308831E+02  0.18742031525E+03  0.00000000000E+00 0. -1.
         -2    1    6    6    0  503 -0.16321512793E+03  0.81441763544E+02  0.20363886508E+02  0.18353916941E+03  0.00000000000E+00 0.  1.
<mgrwt>
<rscale>  0 0.11302969E+04</rscale>
<asrwt>0</asrwt>
<pdfrwt beam="1">  1        2 0.18411239E+00 0.11302969E+04</pdfrwt>
<pdfrwt beam="2">  1       -1 0.41059663E-01 0.11302969E+04</pdfrwt>
<totfact> 0.12469368E+02</totfact>
</mgrwt>
</event>
<event>
12    6  0.1569942E-007  0.2551556E+04  0.7818608E-02  0.8384845E-01
         -1   -1    0    0    0  501 -0.00000000000E+00  0.00000000000E+00  0.87007790127E+03  0.87007790127E+03  0.00000000000E+00 0.  1.
          2   -1    0    0  501    0  0.00000000000E+00 -0.00000000000E+00 -0.18706475328E+04  0.18706475328E+04  0.00000000000E+00 0. -1.
         24    2    1    2    0    0 -0.67191932497E+03  0.87997071619E+03 -0.50882611622E+03  0.12210650624E+04  0.79194882376E+02 0.  0.
        254    2    1    2    0    0  0.67191932497E+03 -0.87997071619E+03 -0.49174351533E+03  0.15196603717E+04  0.91745949222E+03 0.  0.
         23    2    4    4    0    0  0.31771883082E+03 -0.67206736941E+03 -0.72177712111E+03  0.10404033499E+04  0.94112238586E+02 0.  0.
         23    2    4    4    0    0  0.35420049415E+03 -0.20790334678E+03  0.23003360579E+03  0.47925702180E+03  0.89944657973E+02 0.  0.
          4    1    3    3  502    0 -0.37835184060E+03  0.51891542675E+03 -0.25479829238E+03  0.69090195050E+03  0.00000000000E+00 0. -1.
         -3    1    3    3    0  502 -0.29356748436E+03  0.36105528944E+03 -0.25402782384E+03  0.53016311187E+03  0.00000000000E+00 0.  1.
         11    1    5    5    0    0  0.25114201985E+03 -0.55086535249E+03 -0.53445458675E+03  0.80756835996E+03  0.00000000000E+00 0.  1.
        -11    1    5    5    0    0  0.66576810968E+02 -0.12120201693E+03 -0.18732253436E+03  0.23283498995E+03  0.00000000000E+00 0. -1.
          3    1    6    6  503    0  0.30484943907E+03 -0.21081179946E+03  0.19637105594E+03  0.41944771654E+03  0.00000000000E+00 0. -1.
         -3    1    6    6    0  503  0.49351055078E+02  0.29084526859E+01  0.33662549844E+02  0.59809305266E+02  0.00000000000E+00 0.  1.
<mgrwt>
<rscale>  0 0.25515557E+04</rscale>
<asrwt>0</asrwt>
<pdfrwt beam="1">  1        2 0.28779193E+00 0.25515557E+04</pdfrwt>
<pdfrwt beam="2">  1       -1 0.13385814E+00 0.25515557E+04</pdfrwt>
<totfact> 0.37513499E+00</totfact>
</mgrwt>
</event>
<event>
12    6  0.1569942E-007  0.3482241E+04  0.7818608E-02  0.8118012E-01
          2   -1    0    0  501    0  0.00000000000E+00  0.00000000000E+00  0.74376839832E+03  0.74376839832E+03  0.00000000000E+00 0. -1.
         -1   -1    0    0    0  501 -0.00000000000E+00 -0.00000000000E+00 -0.40758663145E+04  0.40758663145E+04  0.00000000000E+00 0.  1.
         24    2    1    2    0    0 -0.15497793407E+04 -0.33037248500E+03 -0.19867473674E+04  0.25425387558E+04  0.79851355397E+02 0.  0.
        254    2    1    2    0    0  0.15497793407E+04  0.33037248500E+03 -0.13453505488E+04  0.22770959571E+04  0.92964289629E+03 0.  0.
         23    2    4    4    0    0  0.10513110337E+04 -0.28262545710E+02 -0.12697469041E+04  0.16516745545E+04  0.98579776759E+02 0.  0.
         23    2    4    4    0    0  0.49846830705E+03  0.35863503072E+03 -0.75603644703E+02  0.62542140257E+03  0.91357984380E+02 0.  0.
          4    1    3    3  502    0 -0.59529484328E+02 -0.10643214450E+02 -0.53623061331E+02  0.80823698410E+02  0.00000000000E+00 0. -1.
         -3    1    3    3    0  502 -0.14902498564E+04 -0.31972927055E+03 -0.19331243060E+04  0.24617150574E+04  0.00000000000E+00 0.  1.
         11    1    5    5    0    0  0.49195097847E+03 -0.50145493995E+02 -0.64656935114E+03  0.81399156115E+03  0.00000000000E+00 0. -1.
        -11    1    5    5    0    0  0.55936005522E+03  0.21882948284E+02 -0.62317755300E+03  0.83768299336E+03  0.00000000000E+00 0.  1.
          3    1    6    6  503    0  0.31269520047E+03  0.21252562468E+03 -0.89970402625E+02  0.38863878202E+03  0.00000000000E+00 0. -1.
         -3    1    6    6    0  503  0.18577310658E+03  0.14610940604E+03  0.14366757922E+02  0.23678262055E+03  0.00000000000E+00 0.  1.
<mgrwt>
<rscale>  0 0.34822410E+04</rscale>
<asrwt>0</asrwt>
<pdfrwt beam="1">  1        2 0.11442591E+00 0.34822410E+04</pdfrwt>
<pdfrwt beam="2">  1       -1 0.62705636E+00 0.34822410E+04</pdfrwt>
<totfact> 0.12359745E-02</totfact>
</mgrwt>
</event>
<event>
12    6  0.1569942E-007  0.1486999E+04  0.7818608E-02  0.8893144E-01
          2   -1    0    0  501    0  0.00000000000E+00  0.00000000000E+00  0.18968631225E+04  0.18968631225E+04  0.00000000000E+00 0. -1.
         -1   -1    0    0    0  501 -0.00000000000E+00 -0.00000000000E+00 -0.29142421927E+03  0.29142421927E+03  0.00000000000E+00 0.  1.
         24    2    1    2    0    0 -0.40095913869E+03 -0.57484451612E+02  0.17088389484E+03  0.44677354678E+03  0.79577657097E+02 0.  0.
        254    2    1    2    0    0  0.40095913869E+03  0.57484451612E+02  0.14345550084E+04  0.17415137950E+04  0.90047183906E+03 0.  0.
         23    2    4    4    0    0 -0.68938568757E+01  0.36935754312E+03  0.97444437023E+03  0.10460702747E+04  0.90822183888E+02 0.  0.
         23    2    4    4    0    0  0.40785299557E+03 -0.31187309151E+03  0.46011063815E+03  0.69544352024E+03  0.91274308007E+02 0.  0.
          4    1    3    3  502    0 -0.40166319840E+03 -0.59751767633E+02  0.16137557119E+03  0.43697331001E+03  0.00000000000E+00 0. -1.
         -3    1    3    3    0  502  0.70405971327E+00  0.22673160204E+01  0.95083236509E+01  0.98002367658E+01  0.00000000000E+00 0.  1.
         11    1    5    5    0    0  0.23206109226E+01  0.36411675253E+03  0.89990376498E+03  0.97077967682E+03  0.00000000000E+00 0.  1.
        -11    1    5    5    0    0 -0.92144677983E+01  0.52407905938E+01  0.74540605251E+02  0.75290597913E+02  0.00000000000E+00 0. -1.
          1    1    6    6  503    0  0.74444023820E+02 -0.69853180431E+02  0.14223768863E+03  0.17507980913E+03  0.00000000000E+00 0. -1.
         -1    1    6    6    0  503  0.33340897175E+03 -0.24201991108E+03  0.31787294952E+03  0.52036371110E+03  0.00000000000E+00 0.  1.
<mgrwt>
<rscale>  0 0.14869995E+04</rscale>
<asrwt>0</asrwt>
<pdfrwt beam="1">  1        2 0.29182509E+00 0.14869995E+04</pdfrwt>
<pdfrwt beam="2">  1       -1 0.44834496E-01 0.14869995E+04</pdfrwt>
<totfact> 0.41426503E+01</totfact>
</mgrwt>
</event>
<event>
12    6  0.1569942E-007  0.2266408E+04  0.7818608E-02  0.8491285E-01
         -1   -1    0    0    0  501 -0.00000000000E+00  0.00000000000E+00  0.16155406558E+04  0.16155406558E+04  0.00000000000E+00 0.  1.
          2   -1    0    0  501    0  0.00000000000E+00 -0.00000000000E+00 -0.79487422477E+03  0.79487422477E+03  0.00000000000E+00 0. -1.
         24    2    1    2    0    0 -0.73765494122E+03  0.60035382754E+03  0.29970225153E+03  0.10003946387E+04  0.80052876264E+02 0.  0.
        254    2    1    2    0    0  0.73765494122E+03 -0.60035382754E+03  0.52096417949E+03  0.14100202419E+04  0.90121799562E+03 0.  0.
         23    2    4    4    0    0  0.29271971535E+03  0.15001535364E+03  0.39857214282E+03  0.52486438577E+03  0.91833721126E+02 0.  0.
         23    2    4    4    0    0  0.44493522587E+03 -0.75036918117E+03  0.12239203667E+03  0.88515585610E+03  0.86601476142E+02 0.  0.
          4    1    3    3  502    0 -0.96372286347E+02  0.10181488697E+03  0.67433665752E+02  0.15556731039E+03  0.00000000000E+00 0. -1.
         -3    1    3    3    0  502 -0.64128265487E+03  0.49853894056E+03  0.23226858577E+03  0.84482732830E+03  0.00000000000E+00 0.  1.
         11    1    5    5    0    0  0.14698933046E+03  0.31334015671E+02  0.21351074112E+03  0.26110250933E+03  0.00000000000E+00 0. -1.
        -11    1    5    5    0    0  0.14573038489E+03  0.11868133797E+03  0.18506140171E+03  0.26376187644E+03  0.00000000000E+00 0.  1.
          4    1    6    6  503    0  0.35122314992E+03 -0.63421817165E+03  0.76411855547E+02  0.72899188058E+03  0.00000000000E+00 0. -1.
         -4    1    6    6    0  503  0.93712075954E+02 -0.11615100953E+03  0.45980181121E+02  0.15616397552E+03  0.00000000000E+00 0.  1.
<mgrwt>
<rscale>  0 0.22664083E+04</rscale>
<asrwt>0</asrwt>
<pdfrwt beam="1">  1        2 0.12228834E+00 0.22664083E+04</pdfrwt>
<pdfrwt beam="2">  1       -1 0.24854471E+00 0.22664083E+04</pdfrwt>
<totfact> 0.25677881E+00</totfact>
</mgrwt>
</event>
<event>
12    6  0.1569942E-007  0.2058757E+04  0.7818608E-02  0.8579632E-01
          2   -1    0    0  501    0  0.00000000000E+00  0.00000000000E+00  0.25081287051E+04  0.25081287051E+04  0.00000000000E+00 0. -1.
         -1   -1    0    0    0  501 -0.00000000000E+00 -0.00000000000E+00 -0.42247423094E+03  0.42247423094E+03  0.00000000000E+00 0.  1.
         24    2    1    2    0    0 -0.13147391726E+03  0.67957123816E+03  0.14768912841E+04  0.16330448711E+04  0.80778878418E+02 0.  0.
        254    2    1    2    0    0  0.13147391726E+03 -0.67957123816E+03  0.60876319007E+03  0.12975580650E+04  0.91321511802E+03 0.  0.
         23    2    4    4    0    0 -0.26601682847E+03 -0.11625115844E+03  0.51208054086E+03  0.59563358345E+03  0.90959334552E+02 0.  0.
         23    2    4    4    0    0  0.39749074572E+03 -0.56332007972E+03  0.96682649209E+02  0.70192448153E+03  0.89565830380E+02 0.  0.
          2    1    3    3  502    0 -0.88359281854E+02  0.59876492921E+03  0.12774701110E+04  0.14135970740E+04  0.00000000000E+00 0. -1.
         -1    1    3    3    0  502 -0.43114635402E+02  0.80806308954E+02  0.19942117311E+03  0.21944779707E+03  0.00000000000E+00 0.  1.
         11    1    5    5    0    0 -0.16683525547E+03 -0.42107558142E+02  0.36384943042E+03  0.40248410769E+03  0.00000000000E+00 0. -1.
        -11    1    5    5    0    0 -0.99181572995E+02 -0.74143600300E+02  0.14823111044E+03  0.19314947577E+03  0.00000000000E+00 0.  1.
          4    1    6    6  503    0  0.71329006727E+02 -0.50205506004E+02  0.12967917611E+02  0.88184958587E+02  0.00000000000E+00 0.  1.
         -4    1    6    6    0  503  0.32616173900E+03 -0.51311457371E+03  0.83714731597E+02  0.61373952295E+03  0.00000000000E+00 0. -1.
<mgrwt>
<rscale>  0 0.20587567E+04</rscale>
<asrwt>0</asrwt>
<pdfrwt beam="1">  1        2 0.38586595E+00 0.20587567E+04</pdfrwt>
<pdfrwt beam="2">  1       -1 0.64996036E-01 0.20587567E+04</pdfrwt>
<totfact> 0.87015481E+00</totfact>
</mgrwt>
</event>
<event>
12    6  0.2391137E-007  0.1463610E+04  0.7818608E-02  0.8909019E-01
          2   -1    0    0  501    0  0.00000000000E+00  0.00000000000E+00  0.12146819055E+04  0.12146819055E+04  0.00000000000E+00 0. -1.
         -1   -1    0    0    0  501 -0.00000000000E+00 -0.00000000000E+00 -0.44088775031E+03  0.44088775031E+03  0.00000000000E+00 0.  1.
         24    2    1    2    0    0 -0.26709695926E+03 -0.10010498202E+03 -0.15319654051E+03  0.33337170138E+03  0.79408552355E+02 0.  0.
        254    2    1    2    0    0  0.26709695926E+03  0.10010498202E+03  0.92699069573E+03  0.13221979545E+04  0.89862889322E+03 0.  0.
         23    2    4    4    0    0  0.41835275988E+03  0.12125865627E+03  0.10249996983E+04  0.11175772635E+04  0.92907831111E+02 0.  0.
         23    2    4    4    0    0 -0.15125580063E+03 -0.21153674249E+02 -0.98009002540E+02  0.20462069093E+03  0.94541352963E+02 0.  0.
          2    1    3    3  502    0  0.52589329195E+01 -0.44412098817E+01 -0.69085745694E+01  0.97523906426E+01  0.00000000000E+00 0. -1.
         -1    1    3    3    0  502 -0.27235589218E+03 -0.95663772141E+02 -0.14628796594E+03  0.32361931074E+03  0.00000000000E+00 0.  1.
         11    1    5    5    0    0  0.41442299169E+03  0.13117921264E+03  0.10016047108E+04  0.10918637271E+04  0.00000000000E+00 0. -1.
        -11    1    5    5    0    0  0.39297681921E+01 -0.99205563700E+01  0.23394987514E+02  0.25713536465E+02  0.00000000000E+00 0.  1.
          2    1    6    6  503    0 -0.12911791504E+03 -0.22244226685E+02 -0.11682977411E+03  0.17554326454E+03  0.00000000000E+00 0. -1.
         -2    1    6    6    0  503 -0.22137885587E+02  0.10905524363E+01  0.18820771574E+02  0.29077426391E+02  0.00000000000E+00 0.  1.
<mgrwt>
<rscale>  0 0.14636097E+04</rscale>
<asrwt>0</asrwt>
<pdfrwt beam="1">  1        2 0.18687414E+00 0.14636097E+04</pdfrwt>
<pdfrwt beam="2">  1       -1 0.67828885E-01 0.14636097E+04</pdfrwt>
<totfact> 0.45129067E+01</totfact>
</mgrwt>
</event>
<event>
12    6  0.1569942E-007  0.3154574E+04  0.7818608E-02  0.8200918E-01
          2   -1    0    0  501    0  0.00000000000E+00  0.00000000000E+00  0.24504589764E+04  0.24504589764E+04  0.00000000000E+00 0. -1.
         -1   -1    0    0    0  501 -0.00000000000E+00 -0.00000000000E+00 -0.10152520711E+04  0.10152520711E+04  0.00000000000E+00 0.  1.
         24    2    1    2    0    0 -0.10602160993E+04  0.24478573944E+03  0.17110830753E+04  0.20293389172E+04  0.80205454800E+02 0.  0.
        254    2    1    2    0    0  0.10602160993E+04 -0.24478573944E+03 -0.27587616997E+03  0.14363721303E+04  0.89614675147E+03 0.  0.
         23    2    4    4    0    0  0.48618154147E+02 -0.36738593002E+03 -0.12843009353E+03  0.40256063393E+03  0.90689738023E+02 0.  0.
         23    2    4    4    0    0  0.10115979452E+04  0.12260019058E+03 -0.14744607643E+03  0.10338114964E+04  0.93084129922E+02 0.  0.
          4    1    3    3  502    0 -0.88835923149E+03  0.23504075710E+03  0.14410379407E+04  0.17090981915E+04  0.00000000000E+00 0. -1.
         -3    1    3    3    0  502 -0.17185686783E+03  0.97449823367E+01  0.27004513452E+03  0.32024072567E+03  0.00000000000E+00 0.  1.
         11    1    5    5    0    0  0.57033261907E+01 -0.10027712631E+03  0.57002206920E+01  0.10060080768E+03  0.00000000000E+00 0.  1.
        -11    1    5    5    0    0  0.42914827957E+02 -0.26710880371E+03 -0.13413031422E+03  0.30195982625E+03  0.00000000000E+00 0. -1.
          4    1    6    6  503    0  0.91177562860E+03  0.13499087640E+03 -0.11961148100E+03  0.92944297297E+03  0.00000000000E+00 0. -1.
         -4    1    6    6    0  503  0.99822316573E+02 -0.12390685825E+02 -0.27834595437E+02  0.10436852344E+03  0.00000000000E+00 0.  1.
<mgrwt>
<rscale>  0 0.31545735E+04</rscale>
<asrwt>0</asrwt>
<pdfrwt beam="1">  1        2 0.37699369E+00 0.31545735E+04</pdfrwt>
<pdfrwt beam="2">  1       -1 0.15619263E+00 0.31545735E+04</pdfrwt>
<totfact> 0.11159739E+00</totfact>
</mgrwt>
</event>
<event>
12    6  0.1569942E-007  0.1341870E+04  0.7818608E-02  0.8997005E-01
         -1   -1    0    0    0  501 -0.00000000000E+00  0.00000000000E+00  0.30364493996E+03  0.30364493996E+03  0.00000000000E+00 0.  1.
          2   -1    0    0  501    0  0.00000000000E+00 -0.00000000000E+00 -0.14825005238E+04  0.14825005238E+04  0.00000000000E+00 0. -1.
         24    2    1    2    0    0 -0.35525906407E+03 -0.56100343909E+02 -0.35884404487E+03  0.51421890250E+03  0.79345951084E+02 0.  0.
        254    2    1    2    0    0  0.35525906407E+03  0.56100343909E+02 -0.82001153895E+03  0.12719265613E+04  0.90333936149E+03 0.  0.
         23    2    4    4    0    0  0.63218889517E+03 -0.86953965772E+02 -0.58616922055E+03  0.87141111022E+03  0.92407665107E+02 0.  0.
         23    2    4    4    0    0 -0.27692983109E+03  0.14305430968E+03 -0.23384231841E+03  0.40051545103E+03  0.92605236185E+02 0.  0.
          4    1    3    3  502    0 -0.34460483049E+02 -0.14154555649E+01 -0.74545038191E+01  0.35285946687E+02  0.00000000000E+00 0. -1.
         -3    1    3    3    0  502 -0.32079858102E+03 -0.54684888344E+02 -0.35138954105E+03  0.47893295581E+03  0.00000000000E+00 0.  1.
         11    1    5    5    0    0  0.35485290805E+03 -0.44665285435E+02 -0.38952110454E+03  0.52881212634E+03  0.00000000000E+00 0.  1.
        -11    1    5    5    0    0  0.27733598711E+03 -0.42288680337E+02 -0.19664811600E+03  0.34259898389E+03  0.00000000000E+00 0. -1.
          4    1    6    6  503    0 -0.25291821097E+03  0.94165789455E+02 -0.18356406065E+03  0.32639022919E+03  0.00000000000E+00 0.  1.
         -4    1    6    6    0  503 -0.24011620121E+02  0.48888520226E+02 -0.50278257753E+02  0.74125221844E+02  0.00000000000E+00 0. -1.
<mgrwt>
<rscale>  0 0.13418700E+04</rscale>
<asrwt>0</asrwt>
<pdfrwt beam="1">  1        2 0.22807700E+00 0.13418700E+04</pdfrwt>
<pdfrwt beam="2">  1       -1 0.46714606E-01 0.13418700E+04</pdfrwt>
<totfact> 0.66016528E+01</totfact>
</mgrwt>
</event>
<event>
12    6  0.1569942E-007  0.1446722E+04  0.7818608E-02  0.8920676E-01
          2   -1    0    0  501    0  0.00000000000E+00  0.00000000000E+00  0.13924291741E+04  0.13924291741E+04  0.00000000000E+00 0. -1.
         -1   -1    0    0    0  501 -0.00000000000E+00 -0.00000000000E+00 -0.37578310015E+03  0.37578310015E+03  0.00000000000E+00 0.  1.
         24    2    1    2    0    0  0.12657931923E+03 -0.65767519066E+02 -0.21440779556E+03  0.26931793858E+03  0.78827397672E+02 0.  0.
        254    2    1    2    0    0 -0.12657931923E+03  0.65767519066E+02  0.12310538695E+04  0.14988943357E+04  0.84311500360E+03 0.  0.
         23    2    4    4    0    0 -0.92496482903E+02 -0.37538854374E+03  0.66645324808E+03  0.77581944638E+03  0.90905024005E+02 0.  0.
         23    2    4    4    0    0 -0.34082836331E+02  0.44115606280E+03  0.56460062146E+03  0.72307488933E+03  0.91011660483E+02 0.  0.
          2    1    3    3  502    0 -0.96085895628E+01 -0.12209250176E+02 -0.31057115529E+02  0.34726577837E+02  0.00000000000E+00 0. -1.
         -1    1    3    3    0  502  0.13618790880E+03 -0.53558268890E+02 -0.18335068003E+03  0.23459136074E+03  0.00000000000E+00 0.  1.
         11    1    5    5    0    0 -0.44415503615E+02 -0.45652322591E+02  0.97259952404E+02  0.11625992371E+03  0.00000000000E+00 0. -1.
        -11    1    5    5    0    0 -0.48080979287E+02 -0.32973622115E+03  0.56919329567E+03  0.65955952267E+03  0.00000000000E+00 0.  1.
          4    1    6    6  503    0  0.72406410602E+01  0.27268480421E+03  0.28880400601E+03  0.39726210897E+03  0.00000000000E+00 0.  1.
         -4    1    6    6    0  503 -0.41323477391E+02  0.16847125859E+03  0.27579661545E+03  0.32581278036E+03  0.00000000000E+00 0. -1.
<mgrwt>
<rscale>  0 0.14467223E+04</rscale>
<asrwt>0</asrwt>
<pdfrwt beam="1">  1        2 0.21421987E+00 0.14467223E+04</pdfrwt>
<pdfrwt beam="2">  1       -1 0.57812785E-01 0.14467223E+04</pdfrwt>
<totfact> 0.48969734E+01</totfact>
</mgrwt>
</event>
<event>
12    6  0.1569942E-007  0.1685589E+04  0.7818608E-02  0.8769626E-01
         -1   -1    0    0    0  501 -0.00000000000E+00  0.00000000000E+00  0.14872346457E+04  0.14872346457E+04  0.00000000000E+00 0.  1.
          2   -1    0    0  501    0  0.00000000000E+00 -0.00000000000E+00 -0.47759975461E+03  0.47759975461E+03  0.00000000000E+00 0. -1.
         24    2    1    2    0    0  0.39190828618E+03 -0.44943316157E+03  0.37221167386E+03  0.70748856619E+03  0.80101620705E+02 0.  0.
        254    2    1    2    0    0 -0.39190828618E+03  0.44943316157E+03  0.63742321726E+03  0.12573458341E+04  0.90500161174E+03 0.  0.
         23    2    4    4    0    0  0.36050400795E+02 -0.63426897038E+02 -0.16923230299E+03  0.20559640548E+03  0.91146623107E+02 0.  0.
         23    2    4    4    0    0 -0.42795868698E+03  0.51286005860E+03  0.80665552025E+03  0.10517494287E+04  0.96486552924E+02 0.  0.
          4    1    3    3  502    0  0.16331891361E+03 -0.19673771134E+03  0.11397859961E+03  0.27994627301E+03  0.00000000000E+00 0. -1.
         -3    1    3    3    0  502  0.22858937257E+03 -0.25269545023E+03  0.25823307425E+03  0.42754229318E+03  0.00000000000E+00 0.  1.
         11    1    5    5    0    0  0.14590930197E+01  0.22991754451E+02 -0.42628018050E+02  0.48455109617E+02  0.00000000000E+00 0.  1.
        -11    1    5    5    0    0  0.34591307776E+02 -0.86418651489E+02 -0.12660428494E+03  0.15714129586E+03  0.00000000000E+00 0. -1.
          1    1    6    6  503    0 -0.10567384734E+03  0.17477289388E+03  0.19731094132E+03  0.28397910840E+03  0.00000000000E+00 0. -1.
         -1    1    6    6    0  503 -0.32228483964E+03  0.33808716473E+03  0.60934457893E+03  0.76777032027E+03  0.00000000000E+00 0.  1.
<mgrwt>
<rscale>  0 0.16855894E+04</rscale>
<asrwt>0</asrwt>
<pdfrwt beam="1">  1        2 0.73476886E-01 0.16855894E+04</pdfrwt>
<pdfrwt beam="2">  1       -1 0.22880533E+00 0.16855894E+04</pdfrwt>
<totfact> 0.67982762E+00</totfact>
</mgrwt>
</event>
<event>
12    6  0.1569942E-007  0.1783639E+04  0.7818608E-02  0.8715049E-01
          2   -1    0    0  501    0  0.00000000000E+00  0.00000000000E+00  0.22951823483E+04  0.22951823483E+04  0.00000000000E+00 0. -1.
         -1   -1    0    0    0  501 -0.00000000000E+00 -0.00000000000E+00 -0.34652683969E+03  0.34652683969E+03  0.00000000000E+00 0.  1.
         24    2    1    2    0    0 -0.60782222642E+03  0.23184522244E+03  0.56091484900E+03  0.86262731248E+03  0.79374720870E+02 0.  0.
        254    2    1    2    0    0  0.60782222642E+03 -0.23184522244E+03  0.13877406596E+04  0.17790818755E+04  0.90338702411E+03 0.  0.
         23    2    4    4    0    0  0.16571193918E+03 -0.13730336428E+03 -0.75447778065E+02  0.24478123606E+03  0.88954065016E+02 0.  0.
         23    2    4    4    0    0  0.44211028723E+03 -0.94541858162E+02  0.14631884376E+04  0.15343006394E+04  0.93586211935E+02 0.  0.
          2    1    3    3  502    0 -0.27174853468E+03  0.85665003936E+02  0.19889275553E+03  0.34748249914E+03  0.00000000000E+00 0. -1.
         -1    1    3    3    0  502 -0.33607369173E+03  0.14618021850E+03  0.36202209347E+03  0.51514481334E+03  0.00000000000E+00 0.  1.
         11    1    5    5    0    0  0.13239269011E+03 -0.81250082629E+02 -0.87771142327E+02  0.17841853532E+03  0.00000000000E+00 0.  1.
        -11    1    5    5    0    0  0.33319249072E+02 -0.56053281647E+02  0.12323364262E+02  0.66362700735E+02  0.00000000000E+00 0. -1.
          1    1    6    6  503    0  0.11810713251E+03 -0.13616659612E+02  0.52956342990E+03  0.54274499948E+03  0.00000000000E+00 0. -1.
         -1    1    6    6    0  503  0.32400315472E+03 -0.80925198550E+02  0.93362500773E+03  0.99155563993E+03  0.00000000000E+00 0.  1.
<mgrwt>
<rscale>  0 0.17836393E+04</rscale>
<asrwt>0</asrwt>
<pdfrwt beam="1">  1        2 0.35310497E+00 0.17836393E+04</pdfrwt>
<pdfrwt beam="2">  1       -1 0.53311823E-01 0.17836393E+04</pdfrwt>
<totfact> 0.17438813E+01</totfact>
</mgrwt>
</event>
<event>
12    6  0.1569942E-007  0.2097256E+04  0.7818608E-02  0.8562453E-01
          2   -1    0    0  501    0  0.00000000000E+00  0.00000000000E+00  0.10740946714E+04  0.10740946714E+04  0.00000000000E+00 0. -1.
         -1   -1    0    0    0  501 -0.00000000000E+00 -0.00000000000E+00 -0.10237647622E+04  0.10237647622E+04  0.00000000000E+00 0.  1.
         24    2    1    2    0    0  0.24640807229E+03 -0.53629942488E+03  0.63961972169E+03  0.87391440574E+03  0.79240071739E+02 0.  0.
        254    2    1    2    0    0 -0.24640807229E+03  0.53629942488E+03 -0.58928981245E+03  0.12239450279E+04  0.89579290969E+03 0.  0.
         23    2    4    4    0    0  0.23398036039E+03 -0.91345512195E+02 -0.77955402484E+02  0.27809279958E+03  0.90375598209E+02 0.  0.
         23    2    4    4    0    0 -0.48038843268E+03  0.62764493708E+03 -0.51133440997E+03  0.94585222833E+03  0.91991008909E+02 0.  0.
          2    1    3    3  502    0  0.20465924238E+03 -0.45629178185E+03  0.57965403093E+03  0.76556279379E+03  0.00000000000E+00 0. -1.
         -1    1    3    3    0  502  0.41748829909E+02 -0.80007643035E+02  0.59965690765E+02  0.10835161195E+03  0.00000000000E+00 0.  1.
         11    1    5    5    0    0  0.10435758986E+03 -0.76027295366E+01  0.12309016413E+01  0.10464140278E+03  0.00000000000E+00 0.  1.
        -11    1    5    5    0    0  0.12962277053E+03 -0.83742782659E+02 -0.79186304125E+02  0.17345139679E+03  0.00000000000E+00 0. -1.
          1    1    6    6  503    0 -0.43200268847E+03  0.59883837617E+03 -0.48681843810E+03  0.88443536524E+03  0.00000000000E+00 0. -1.
         -1    1    6    6    0  503 -0.48385744214E+02  0.28806560902E+02 -0.24515971872E+02  0.61416863083E+02  0.00000000000E+00 0.  1.
<mgrwt>
<rscale>  0 0.20972556E+04</rscale>
<asrwt>0</asrwt>
<pdfrwt beam="1">  1        2 0.16524534E+00 0.20972556E+04</pdfrwt>
<pdfrwt beam="2">  1       -1 0.15750227E+00 0.20972556E+04</pdfrwt>
<totfact> 0.72563903E+00</totfact>
</mgrwt>
</event>
<event>
12    6  0.1569942E-007  0.1699306E+04  0.7818608E-02  0.8761760E-01
          2   -1    0    0  501    0  0.00000000000E+00  0.00000000000E+00  0.61876488075E+03  0.61876488075E+03  0.00000000000E+00 0. -1.
         -1   -1    0    0    0  501 -0.00000000000E+00 -0.00000000000E+00 -0.11666960845E+04  0.11666960845E+04  0.00000000000E+00 0.  1.
         24    2    1    2    0    0 -0.19868346948E+03 -0.56566764456E+03 -0.28991814891E+03  0.67063570831E+03  0.79023509449E+02 0.  0.
        254    2    1    2    0    0  0.19868346948E+03  0.56566764456E+03 -0.25801305482E+03  0.11148252569E+04  0.90377519983E+03 0.  0.
         23    2    4    4    0    0  0.35006845252E+03 -0.88361826133E+02 -0.22812427823E+03  0.43670150960E+03  0.91169010111E+02 0.  0.
         23    2    4    4    0    0 -0.15138498304E+03  0.65402947070E+03 -0.29888776590E+02  0.67812374731E+03  0.91030302993E+02 0.  0.
          2    1    3    3  502    0 -0.68141011189E+02 -0.10468194301E+03 -0.46966077740E+02  0.13344406715E+03  0.00000000000E+00 0. -1.
         -1    1    3    3    0  502 -0.13054245829E+03 -0.46098570155E+03 -0.24295207117E+03  0.53719164117E+03  0.00000000000E+00 0.  1.
         11    1    5    5    0    0  0.34337104038E+03 -0.95378913018E+02 -0.23306350241E+03  0.42581616289E+03  0.00000000000E+00 0. -1.
        -11    1    5    5    0    0  0.66974121370E+01  0.70170868854E+01  0.49392241750E+01  0.10885346717E+02  0.00000000000E+00 0.  1.
          4    1    6    6  503    0 -0.11154891254E+03  0.47322971543E+03 -0.62291608082E+02  0.49017320193E+03  0.00000000000E+00 0. -1.
         -4    1    6    6    0  503 -0.39836070500E+02  0.18079975527E+03  0.32402831491E+02  0.18795054537E+03  0.00000000000E+00 0.  1.
<mgrwt>
<rscale>  0 0.16993064E+04</rscale>
<asrwt>0</asrwt>
<pdfrwt beam="1">  1        2 0.95194598E-01 0.16993064E+04</pdfrwt>
<pdfrwt beam="2">  1       -1 0.17949170E+00 0.16993064E+04</pdfrwt>
<totfact> 0.10897273E+01</totfact>
</mgrwt>
</event>
<event>
12    6  0.1569942E-007  0.2189841E+04  0.7818608E-02  0.8522669E-01
          2   -1    0    0  501    0  0.00000000000E+00  0.00000000000E+00  0.45443664422E+04  0.45443664422E+04  0.00000000000E+00 0. -1.
         -1   -1    0    0    0  501 -0.00000000000E+00 -0.00000000000E+00 -0.26381029057E+03  0.26381029057E+03  0.00000000000E+00 0.  1.
         24    2    1    2    0    0 -0.33653319548E+03  0.29120233197E+03  0.34743628574E+04  0.35036902028E+04  0.81205805222E+02 0.  0.
        254    2    1    2    0    0  0.33653319548E+03 -0.29120233197E+03  0.80619329425E+03  0.13044865300E+04  0.92395026346E+03 0.  0.
         23    2    4    4    0    0  0.52498358860E+03  0.66691213741E+02  0.20827070112E+03  0.57694547291E+03  0.97128304217E+02 0.  0.
         23    2    4    4    0    0 -0.18845039312E+03 -0.35789354571E+03  0.59792259314E+03  0.72754105705E+03  0.90571637857E+02 0.  0.
          2    1    3    3  502    0 -0.17345858323E+03  0.16648901346E+03  0.15716608918E+04  0.15899447885E+04  0.00000000000E+00 0. -1.
         -1    1    3    3    0  502 -0.16307461225E+03  0.12471331851E+03  0.19027019656E+04  0.19137454143E+04  0.00000000000E+00 0.  1.
         11    1    5    5    0    0  0.32507065019E+03  0.40423909649E+02  0.17873102665E+03  0.37316189512E+03  0.00000000000E+00 0.  1.
        -11    1    5    5    0    0  0.19991293841E+03  0.26267304093E+02  0.29539674469E+02  0.20378357779E+03  0.00000000000E+00 0. -1.
          1    1    6    6  503    0 -0.27318749960E+02 -0.11506223106E+03  0.22568148624E+03  0.25478964726E+03  0.00000000000E+00 0. -1.
         -1    1    6    6    0  503 -0.16113164316E+03 -0.24283131466E+03  0.37224110689E+03  0.47275140980E+03  0.00000000000E+00 0.  1.
<mgrwt>
<rscale>  0 0.21898408E+04</rscale>
<asrwt>0</asrwt>
<pdfrwt beam="1">  1        2 0.69913324E+00 0.21898408E+04</pdfrwt>
<pdfrwt beam="2">  1       -1 0.40586202E-01 0.21898408E+04</pdfrwt>
<totfact> 0.69530867E-01</totfact>
</mgrwt>
</event>
<event>
12    6  0.1569942E-007  0.1457039E+04  0.7818608E-02  0.8913535E-01
         -1   -1    0    0    0  501 -0.00000000000E+00  0.00000000000E+00  0.96228145446E+03  0.96228145446E+03  0.00000000000E+00 0.  1.
          2   -1    0    0  501    0  0.00000000000E+00 -0.00000000000E+00 -0.55154428222E+03  0.55154428222E+03  0.00000000000E+00 0. -1.
         24    2    1    2    0    0 -0.96874139398E+02 -0.43258751948E+03  0.18342484096E+03  0.48673704460E+03  0.82168834808E+02 0.  0.
        254    2    1    2    0    0  0.96874139398E+02  0.43258751948E+03  0.22731233128E+03  0.10270886921E+04  0.89817800271E+03 0.  0.
         23    2    4    4    0    0 -0.13771286572E+02  0.14144268805E+03  0.54568041116E+03  0.57128689592E+03  0.91683826193E+02 0.  0.
         23    2    4    4    0    0  0.11064542597E+03  0.29114483143E+03 -0.31836807989E+03  0.45580179616E+03  0.96898503272E+02 0.  0.
          4    1    3    3  502    0  0.12943516365E+02 -0.52272237046E+02  0.11006124854E+02  0.54964135270E+02  0.00000000000E+00 0. -1.
         -3    1    3    3    0  502 -0.10981765576E+03 -0.38031528243E+03  0.17241871611E+03  0.43177290933E+03  0.00000000000E+00 0.  1.
         11    1    5    5    0    0 -0.12292002762E+02  0.90267170597E+02  0.17699748497E+03  0.19906623296E+03  0.00000000000E+00 0. -1.
        -11    1    5    5    0    0 -0.14792838108E+01  0.51175517455E+02  0.36868292619E+03  0.37222066296E+03  0.00000000000E+00 0.  1.
          3    1    6    6  503    0  0.10161808004E+03  0.14132637568E+03 -0.19611920512E+03  0.26222532538E+03  0.00000000000E+00 0. -1.
         -3    1    6    6    0  503  0.90273459274E+01  0.14981845575E+03 -0.12224887477E+03  0.19357647078E+03  0.00000000000E+00 0.  1.
<mgrwt>
<rscale>  0 0.14570392E+04</rscale>
<asrwt>0</asrwt>
<pdfrwt beam="1">  1        2 0.84852966E-01 0.14570392E+04</pdfrwt>
<pdfrwt beam="2">  1       -1 0.14804330E+00 0.14570392E+04</pdfrwt>
<totfact> 0.21974309E+01</totfact>
</mgrwt>
</event>
<event>
12    6  0.1569942E-007  0.1564581E+04  0.7818608E-02  0.8842607E-01
         -1   -1    0    0    0  501 -0.00000000000E+00  0.00000000000E+00  0.54097623362E+03  0.54097623362E+03  0.00000000000E+00 0.  1.
          2   -1    0    0  501    0  0.00000000000E+00 -0.00000000000E+00 -0.11312489616E+04  0.11312489616E+04  0.00000000000E+00 0. -1.
         24    2    1    2    0    0 -0.40682356976E+03  0.31494882241E+03 -0.94451493323E+02  0.52916836523E+03  0.79999353193E+02 0.  0.
        254    2    1    2    0    0  0.40682356976E+03 -0.31494882241E+03 -0.49582123468E+03  0.11430568300E+04  0.89221188193E+03 0.  0.
         23    2    4    4    0    0  0.51543126451E+03 -0.45602567531E+03 -0.10186460230E+03  0.70169326870E+03  0.91478091157E+02 0.  0.
         23    2    4    4    0    0 -0.10860769475E+03  0.14107685289E+03 -0.39395663239E+03  0.44136356133E+03  0.88891255418E+02 0.  0.
          2    1    3    3  502    0 -0.56583616559E+02  0.42893543074E+02  0.14553439810E+02  0.72480095962E+02  0.00000000000E+00 0. -1.
         -1    1    3    3    0  502 -0.35023995320E+03  0.27205527934E+03 -0.10900493313E+03  0.45668826926E+03  0.00000000000E+00 0.  1.
         11    1    5    5    0    0  0.16607158079E+03 -0.18242359793E+03 -0.71797805734E+02  0.25693007597E+03  0.00000000000E+00 0.  1.
        -11    1    5    5    0    0  0.34935968372E+03 -0.27360207738E+03 -0.30066796564E+02  0.44476319273E+03  0.00000000000E+00 0. -1.
          1    1    6    6  503    0 -0.75535375220E+02  0.88093227505E+02 -0.33849969922E+03  0.35783803042E+03  0.00000000000E+00 0. -1.
         -1    1    6    6    0  503 -0.33072319528E+02  0.52983625385E+02 -0.55456933165E+02  0.83525530911E+02  0.00000000000E+00 0.  1.
<mgrwt>
<rscale>  0 0.15645815E+04</rscale>
<asrwt>0</asrwt>
<pdfrwt beam="1">  1        2 0.17403830E+00 0.15645815E+04</pdfrwt>
<pdfrwt beam="2">  1       -1 0.83227113E-01 0.15645815E+04</pdfrwt>
<totfact> 0.32759549E+01</totfact>
</mgrwt>
</event>
<event>
12    6  0.1569942E-007  0.1519688E+04  0.7818608E-02  0.8871465E-01
         -1   -1    0    0    0  501 -0.00000000000E+00  0.00000000000E+00  0.44045552381E+03  0.44045552381E+03  0.00000000000E+00 0.  1.
          2   -1    0    0  501    0  0.00000000000E+00 -0.00000000000E+00 -0.13108321999E+04  0.13108321999E+04  0.00000000000E+00 0. -1.
         24    2    1    2    0    0  0.18981002311E+03  0.20287561794E+03 -0.74818290727E+03  0.80209670917E+03  0.79969412269E+02 0.  0.
        254    2    1    2    0    0 -0.18981002311E+03 -0.20287561794E+03 -0.12219376883E+03  0.94919101455E+03  0.89935860687E+03 0.  0.
         23    2    4    4    0    0 -0.13762990555E+03 -0.11448774867E+03 -0.50469290039E+03  0.54294367513E+03  0.89573853124E+02 0.  0.
         23    2    4    4    0    0 -0.52180117562E+02 -0.88387869265E+02  0.38249913155E+03  0.40624733942E+03  0.90532508237E+02 0.  0.
          4    1    3    3  502    0  0.14458372457E+03  0.15467026962E+03 -0.45934022502E+03  0.50578729525E+03  0.00000000000E+00 0. -1.
         -3    1    3    3    0  502  0.45226298542E+02  0.48205348314E+02 -0.28884268226E+03  0.29630941392E+03  0.00000000000E+00 0.  1.
         11    1    5    5    0    0  0.35021762833E+01 -0.25218105544E+02 -0.13364109658E+03  0.13604470141E+03  0.00000000000E+00 0. -1.
        -11    1    5    5    0    0 -0.14113208183E+03 -0.89269643131E+02 -0.37105180380E+03  0.40689897372E+03  0.00000000000E+00 0.  1.
          4    1    6    6  503    0 -0.64554971427E+02 -0.60032616776E+02  0.35174781997E+03  0.36262623769E+03  0.00000000000E+00 0.  1.
         -4    1    6    6    0  503  0.12374853864E+02 -0.28355252489E+02  0.30751311590E+02  0.43621101732E+02  0.00000000000E+00 0. -1.
<mgrwt>
<rscale>  0 0.15196885E+04</rscale>
<asrwt>0</asrwt>
<pdfrwt beam="1">  1        2 0.20166649E+00 0.15196885E+04</pdfrwt>
<pdfrwt beam="2">  1       -1 0.67762389E-01 0.15196885E+04</pdfrwt>
<totfact> 0.39514999E+01</totfact>
</mgrwt>
</event>
<event>
12    6  0.1569942E-007  0.1525032E+04  0.7818608E-02  0.8867976E-01
          2   -1    0    0  501    0  0.00000000000E+00  0.00000000000E+00  0.29956436196E+04  0.29956436196E+04  0.00000000000E+00 0. -1.
         -1   -1    0    0    0  501 -0.00000000000E+00 -0.00000000000E+00 -0.19409197510E+03  0.19409197510E+03  0.00000000000E+00 0.  1.
         24    2    1    2    0    0  0.15391873331E+03  0.96085533780E+02 -0.42216232309E+02  0.20285829110E+03  0.80286173972E+02 0.  0.
        254    2    1    2    0    0 -0.15391873331E+03 -0.96085533780E+02  0.28437678768E+04  0.29868773036E+04  0.89526358319E+03 0.  0.
         23    2    4    4    0    0  0.16935226775E+03 -0.25759484154E+03  0.38581974464E+03  0.50092089191E+03  0.83842540612E+02 0.  0.
         23    2    4    4    0    0 -0.32327100106E+03  0.16150930776E+03  0.24579481321E+04  0.24859564117E+04  0.88774229571E+02 0.  0.
          2    1    3    3  502    0 -0.25541112671E+01 -0.87485470124E+01 -0.64035327480E+01  0.11138482430E+02  0.00000000000E+00 0. -1.
         -1    1    3    3    0  502  0.15647284458E+03  0.10483408079E+03 -0.35812699561E+02  0.19171980867E+03  0.00000000000E+00 0.  1.
         11    1    5    5    0    0  0.25422055757E+02 -0.22214964697E+01  0.41496444348E+02  0.48715201519E+02  0.00000000000E+00 0. -1.
        -11    1    5    5    0    0  0.14393021199E+03 -0.25537334507E+03  0.34432330030E+03  0.45220569039E+03  0.00000000000E+00 0.  1.
          2    1    6    6  503    0 -0.97680433136E+01  0.13080474931E+02  0.28779471560E+03  0.28825737080E+03  0.00000000000E+00 0. -1.
         -2    1    6    6    0  503 -0.31350295774E+03  0.14842883283E+03  0.21701534165E+04  0.21976990409E+04  0.00000000000E+00 0.  1.
<mgrwt>
<rscale>  0 0.15250317E+04</rscale>
<asrwt>0</asrwt>
<pdfrwt beam="1">  1        2 0.46086821E+00 0.15250317E+04</pdfrwt>
<pdfrwt beam="2">  1       -1 0.29860306E-01 0.15250317E+04</pdfrwt>
<totfact> 0.19932491E+01</totfact>
</mgrwt>
</event>
<event>
12    6  0.1569942E-007  0.1178392E+04  0.7818608E-02  0.9131983E-01
          2   -1    0    0  501    0  0.00000000000E+00  0.00000000000E+00  0.13919934211E+04  0.13919934211E+04  0.00000000000E+00 0. -1.
         -1   -1    0    0    0  501 -0.00000000000E+00 -0.00000000000E+00 -0.24939191508E+03  0.24939191508E+03  0.00000000000E+00 0.  1.
         24    2    1    2    0    0 -0.16591411848E+03  0.16060693474E+03  0.32888557815E+03  0.41069024887E+03  0.84727060680E+02 0.  0.
        254    2    1    2    0    0  0.16591411848E+03 -0.16060693474E+03  0.81371592783E+03  0.12306950873E+04  0.89395453152E+03 0.  0.
         23    2    4    4    0    0  0.42372518405E+03  0.18093409486E+03  0.30556385681E+03  0.56038059769E+03  0.91525763550E+02 0.  0.
         23    2    4    4    0    0 -0.25781106558E+03 -0.34154102960E+03  0.50815207102E+03  0.67031448958E+03  0.89365358094E+02 0.  0.
          4    1    3    3  502    0 -0.48066394797E+02  0.55168422836E+02  0.17658036912E+03  0.19114015786E+03  0.00000000000E+00 0. -1.
         -3    1    3    3    0  502 -0.11784772368E+03  0.10543851190E+03  0.15230520902E+03  0.21955009101E+03  0.00000000000E+00 0.  1.
         11    1    5    5    0    0  0.95500481266E+01  0.25591728309E+02  0.15433873077E+02  0.31374263580E+02  0.00000000000E+00 0.  1.
        -11    1    5    5    0    0  0.41417513593E+03  0.15534236656E+03  0.29012998374E+03  0.52900633411E+03  0.00000000000E+00 0. -1.
          3    1    6    6  503    0 -0.17482274335E+03 -0.16155452292E+03  0.25558560373E+03  0.34926616828E+03  0.00000000000E+00 0. -1.
         -3    1    6    6    0  503 -0.82988322223E+02 -0.17998650669E+03  0.25256646729E+03  0.32104832131E+03  0.00000000000E+00 0.  1.
<mgrwt>
<rscale>  0 0.11783920E+04</rscale>
<asrwt>0</asrwt>
<pdfrwt beam="1">  1        2 0.21415283E+00 0.11783920E+04</pdfrwt>
<pdfrwt beam="2">  1       -1 0.38367988E-01 0.11783920E+04</pdfrwt>
<totfact> 0.10816441E+02</totfact>
</mgrwt>
</event>
<event>
12    6  0.1569942E-007  0.2545122E+04  0.7818608E-02  0.8387085E-01
          2   -1    0    0  501    0  0.00000000000E+00  0.00000000000E+00  0.16090389057E+04  0.16090389057E+04  0.00000000000E+00 0. -1.
         -1   -1    0    0    0  501 -0.00000000000E+00 -0.00000000000E+00 -0.10064463109E+04  0.10064463109E+04  0.00000000000E+00 0.  1.
         24    2    1    2    0    0  0.66409961188E+03 -0.36719149375E+03 -0.57473727731E+03  0.95532519617E+03  0.80407741678E+02 0.  0.
        254    2    1    2    0    0 -0.66409961188E+03  0.36719149375E+03  0.11773298721E+04  0.16601600205E+04  0.89116091606E+03 0.  0.
         23    2    4    4    0    0 -0.20084191849E+03  0.40074170150E+03  0.10856630334E+04  0.11778518228E+04  0.87973330414E+02 0.  0.
         23    2    4    4    0    0 -0.46325769339E+03 -0.33550207749E+02  0.91666838733E+02  0.48230819771E+03  0.92114501179E+02 0.  0.
          4    1    3    3  502    0  0.52236150242E+03 -0.27018315238E+03 -0.40660769371E+03  0.71497572799E+03  0.00000000000E+00 0. -1.
         -3    1    3    3    0  502  0.14173810946E+03 -0.97008341373E+02 -0.16812958360E+03  0.24034946817E+03  0.00000000000E+00 0.  1.
         11    1    5    5    0    0 -0.18428745945E+03  0.37629428020E+03  0.93892410189E+03  0.10281720294E+04  0.00000000000E+00 0. -1.
        -11    1    5    5    0    0 -0.16554459040E+02  0.24447421305E+02  0.14673893149E+03  0.14967979335E+03  0.00000000000E+00 0.  1.
          2    1    6    6  503    0 -0.44987897646E+03 -0.49602030160E+02  0.86813016187E+02  0.46085567658E+03  0.00000000000E+00 0. -1.
         -2    1    6    6    0  503 -0.13378716929E+02  0.16051822410E+02  0.48538225461E+01  0.21452521126E+02  0.00000000000E+00 0.  1.
<mgrwt>
<rscale>  0 0.25451218E+04</rscale>
<asrwt>0</asrwt>
<pdfrwt beam="1">  1        2 0.24754445E+00 0.25451218E+04</pdfrwt>
<pdfrwt beam="2">  1       -1 0.15483789E+00 0.25451218E+04</pdfrwt>
<totfact> 0.35695641E+00</totfact>
</mgrwt>
</event>
<event>
12    6  0.1569942E-007  0.1374773E+04  0.7818608E-02  0.8972284E-01
          2   -1    0    0  501    0  0.00000000000E+00  0.00000000000E+00  0.13824092723E+04  0.13824092723E+04  0.00000000000E+00 0. -1.
         -1   -1    0    0    0  501 -0.00000000000E+00 -0.00000000000E+00 -0.34179462033E+03  0.34179462033E+03  0.00000000000E+00 0.  1.
         24    2    1    2    0    0 -0.22714296158E+03 -0.76816870084E+02 -0.77227960412E+02  0.26428467395E+03  0.79921677237E+02 0.  0.
        254    2    1    2    0    0  0.22714296158E+03  0.76816870084E+02  0.11178426124E+04  0.14599192187E+04  0.90790817952E+03 0.  0.
         23    2    4    4    0    0 -0.30258624744E+03 -0.13436004285E+03  0.56147578753E+03  0.65803920369E+03  0.90274444640E+02 0.  0.
         23    2    4    4    0    0  0.52972920902E+03  0.21117691294E+03  0.55636682485E+03  0.80188001497E+03  0.90877891533E+02 0.  0.
          4    1    3    3  502    0 -0.39500684270E+01 -0.41025523109E+01 -0.22554800842E+02  0.23262695826E+02  0.00000000000E+00 0. -1.
         -3    1    3    3    0  502 -0.22319289315E+03 -0.72714317773E+02 -0.54673159569E+02  0.24102197813E+03  0.00000000000E+00 0.  1.
         11    1    5    5    0    0 -0.32241714151E+02  0.11344598161E+02  0.79491304987E+02  0.86528004758E+02  0.00000000000E+00 0. -1.
        -11    1    5    5    0    0 -0.27034453329E+03 -0.14570464101E+03  0.48198448254E+03  0.57151119893E+03  0.00000000000E+00 0.  1.
          4    1    6    6  503    0  0.24095953033E+03  0.48237899842E+02  0.24613532843E+03  0.34780884137E+03  0.00000000000E+00 0. -1.
         -4    1    6    6    0  503  0.28876967870E+03  0.16293901309E+03  0.31023149642E+03  0.45407117360E+03  0.00000000000E+00 0.  1.
<mgrwt>
<rscale>  0 0.13747728E+04</rscale>
<asrwt>0</asrwt>
<pdfrwt beam="1">  1        2 0.21267835E+00 0.13747728E+04</pdfrwt>
<pdfrwt beam="2">  1       -1 0.52583788E-01 0.13747728E+04</pdfrwt>
<totfact> 0.59976447E+01</totfact>
</mgrwt>
</event>
<event>
12    6  0.1569942E-007  0.2076609E+04  0.7818608E-02  0.8571618E-01
          2   -1    0    0  501    0  0.00000000000E+00  0.00000000000E+00  0.55932035224E+03  0.55932035224E+03  0.00000000000E+00 0. -1.
         -1   -1    0    0    0  501 -0.00000000000E+00 -0.00000000000E+00 -0.19274747040E+04  0.19274747040E+04  0.00000000000E+00 0.  1.
         24    2    1    2    0    0  0.30915313152E+02 -0.22349781599E+03  0.41132084834E+03  0.47598084976E+03  0.80410812203E+02 0.  0.
        254    2    1    2    0    0 -0.30915313152E+02  0.22349781599E+03 -0.17794752001E+04  0.20108142065E+04  0.90880952617E+03 0.  0.
         23    2    4    4    0    0 -0.28254842619E+03  0.15809676423E+02 -0.15992949021E+04  0.16266758351E+04  0.90810404703E+02 0.  0.
         23    2    4    4    0    0  0.25163311304E+03  0.20768813957E+03 -0.18018029805E+03  0.38413837142E+03  0.92971832829E+02 0.  0.
          4    1    3    3  502    0 -0.47014478569E+01 -0.36111134802E+02  0.13772964863E+03  0.14246253466E+03  0.00000000000E+00 0. -1.
         -3    1    3    3    0  502  0.35616761009E+02 -0.18738668119E+03  0.27359119971E+03  0.33351831511E+03  0.00000000000E+00 0.  1.
         11    1    5    5    0    0 -0.18667486897E+03 -0.29206943002E+02 -0.92344303513E+03  0.94257497917E+03  0.00000000000E+00 0. -1.
        -11    1    5    5    0    0 -0.95873557217E+02  0.45016619425E+02 -0.67585186695E+03  0.68410085591E+03  0.00000000000E+00 0.  1.
          2    1    6    6  503    0  0.19079868200E+03  0.11335535161E+03 -0.15011879710E+03  0.26793511535E+03  0.00000000000E+00 0. -1.
         -2    1    6    6    0  503  0.60834431035E+02  0.94332787957E+02 -0.30061500945E+02  0.11620325607E+03  0.00000000000E+00 0.  1.
<mgrwt>
<rscale>  0 0.20766086E+04</rscale>
<asrwt>0</asrwt>
<pdfrwt beam="1">  1        2 0.86049286E-01 0.20766086E+04</pdfrwt>
<pdfrwt beam="2">  1       -1 0.29653457E+00 0.20766086E+04</pdfrwt>
<totfact> 0.19797871E+00</totfact>
</mgrwt>
</event>
<event>
12    6  0.1569942E-007  0.2119429E+04  0.7818608E-02  0.8552733E-01
          2   -1    0    0  501    0  0.00000000000E+00  0.00000000000E+00  0.15494357138E+04  0.15494357138E+04  0.00000000000E+00 0. -1.
         -1   -1    0    0    0  501 -0.00000000000E+00 -0.00000000000E+00 -0.72477681725E+03  0.72477681725E+03  0.00000000000E+00 0.  1.
         24    2    1    2    0    0  0.43645892130E+03  0.64753533055E+02 -0.45624686627E+03  0.63979806222E+03  0.80566416181E+02 0.  0.
        254    2    1    2    0    0 -0.43645892130E+03 -0.64753533055E+02  0.12809057628E+04  0.16344144688E+04  0.91427658434E+03 0.  0.
         23    2    4    4    0    0 -0.46837886494E+03  0.31663345354E+03  0.50106879642E+03  0.76082112133E+03  0.90240428259E+02 0.  0.
         23    2    4    4    0    0  0.31919943644E+02 -0.38138698660E+03  0.77983696642E+03  0.87359334751E+03  0.92437688618E+02 0.  0.
          4    1    3    3  502    0  0.25277060619E+02  0.18438124064E+02 -0.55806209810E+02  0.63978334348E+02  0.00000000000E+00 0. -1.
         -3    1    3    3    0  502  0.41118186068E+03  0.46315408991E+02 -0.40044065646E+03  0.57581972787E+03  0.00000000000E+00 0.  1.
         11    1    5    5    0    0 -0.11870087641E+03  0.10749360663E+03  0.18817885472E+03  0.24709523446E+03  0.00000000000E+00 0.  1.
        -11    1    5    5    0    0 -0.34967798853E+03  0.20913984692E+03  0.31288994169E+03  0.51372588687E+03  0.00000000000E+00 0. -1.
          1    1    6    6  503    0  0.53361479133E+01 -0.34172750871E+03  0.72036076128E+03  0.79732414429E+03  0.00000000000E+00 0. -1.
         -1    1    6    6    0  503  0.26583795730E+02 -0.39659477890E+02  0.59476205140E+02  0.76269203220E+02  0.00000000000E+00 0.  1.
<mgrwt>
<rscale>  0 0.21194292E+04</rscale>
<asrwt>0</asrwt>
<pdfrwt beam="1">  1        2 0.23837472E+00 0.21194292E+04</pdfrwt>
<pdfrwt beam="2">  1       -1 0.11150413E+00 0.21194292E+04</pdfrwt>
<totfact> 0.92209486E+00</totfact>
</mgrwt>
</event>
<event>
12    6  0.1569942E-007  0.1125110E+04  0.7818608E-02  0.9181057E-01
         -1   -1    0    0    0  501 -0.00000000000E+00  0.00000000000E+00  0.21685248979E+03  0.21685248979E+03  0.00000000000E+00 0.  1.
          2   -1    0    0  501    0  0.00000000000E+00 -0.00000000000E+00 -0.14593716735E+04  0.14593716735E+04  0.00000000000E+00 0. -1.
         24    2    1    2    0    0 -0.38279570038E+02  0.12961130218E+03 -0.56635717165E+02  0.16891844785E+03  0.84032270158E+02 0.  0.
        254    2    1    2    0    0  0.38279570038E+02 -0.12961130218E+03 -0.11858834665E+04  0.15073057154E+04  0.92053598976E+03 0.  0.
         23    2    4    4    0    0  0.18056721172E+03  0.35933629443E+03 -0.51037333096E+03  0.65639336965E+03  0.92974342343E+02 0.  0.
         23    2    4    4    0    0 -0.14228764168E+03 -0.48894759661E+03 -0.67551013554E+03  0.85091234575E+03  0.91773371550E+02 0.  0.
          4    1    3    3  502    0 -0.29881547191E+02  0.24779077222E+02  0.15058915611E+02  0.41637488756E+02  0.00000000000E+00 0. -1.
         -3    1    3    3    0  502 -0.83980228464E+01  0.10483222496E+03 -0.71694632776E+02  0.12728095909E+03  0.00000000000E+00 0.  1.
         11    1    5    5    0    0  0.36303403636E+02  0.78669144648E+02 -0.17860608231E+03  0.19851172276E+03  0.00000000000E+00 0. -1.
        -11    1    5    5    0    0  0.14426380808E+03  0.28066714978E+03 -0.33176724864E+03  0.45788164689E+03  0.00000000000E+00 0.  1.
          4    1    6    6  503    0 -0.14502093172E+03 -0.39942135214E+03 -0.52097915426E+03  0.67230035427E+03  0.00000000000E+00 0. -1.
         -4    1    6    6    0  503  0.27332900459E+01 -0.89526244474E+02 -0.15453098128E+03  0.17861199148E+03  0.00000000000E+00 0.  1.
<mgrwt>
<rscale>  0 0.11251104E+04</rscale>
<asrwt>0</asrwt>
<pdfrwt beam="1">  1        2 0.22451872E+00 0.11251104E+04</pdfrwt>
<pdfrwt beam="2">  1       -1 0.33361922E-01 0.11251104E+04</pdfrwt>
<totfact> 0.12774038E+02</totfact>
</mgrwt>
</event>
<event>
12    6  0.1569942E-007  0.4169166E+04  0.7818608E-02  0.7971264E-01
         -1   -1    0    0    0  501 -0.00000000000E+00  0.00000000000E+00  0.25914371871E+04  0.25914371871E+04  0.00000000000E+00 0.  1.
          2   -1    0    0  501    0  0.00000000000E+00 -0.00000000000E+00 -0.16768632963E+04  0.16768632963E+04  0.00000000000E+00 0. -1.
         24    2    1    2    0    0 -0.80491384614E+03  0.15917564685E+04 -0.46242968050E+03  0.18446909957E+04  0.86421673491E+02 0.  0.
        254    2    1    2    0    0  0.80491384614E+03 -0.15917564685E+04  0.13770035712E+04  0.24236094876E+04  0.89228311576E+03 0.  0.
         23    2    4    4    0    0  0.13162716185E+02  0.92373053549E+02  0.71321212832E+02  0.14859478242E+03  0.91036563221E+02 0.  0.
         23    2    4    4    0    0  0.79175112995E+03 -0.16841295220E+04  0.13056823584E+04  0.22750147052E+04  0.87882814628E+02 0.  0.
          2    1    3    3  502    0 -0.78260464355E+03  0.15714704210E+04 -0.45680295480E+03  0.18140171586E+04  0.00000000000E+00 0. -1.
         -1    1    3    3    0  502 -0.22309202585E+02  0.20286047526E+02 -0.56267257051E+01  0.30673837164E+02  0.00000000000E+00 0.  1.
         11    1    5    5    0    0  0.10939640898E+00  0.66063777166E+01  0.60853596117E+02  0.61211243694E+02  0.00000000000E+00 0.  1.
        -11    1    5    5    0    0  0.13053319776E+02  0.85766675833E+02  0.10467616715E+02  0.87383538726E+02  0.00000000000E+00 0. -1.
          1    1    6    6  503    0  0.48081416877E+03 -0.93778276883E+03  0.76846467386E+03  0.13042839957E+04  0.00000000000E+00 0. -1.
         -1    1    6    6    0  503  0.31093696118E+03 -0.74634675320E+03  0.53721768455E+03  0.97073070954E+03  0.00000000000E+00 0.  1.
<mgrwt>
<rscale>  0 0.41691658E+04</rscale>
<asrwt>0</asrwt>
<pdfrwt beam="1">  1        2 0.25797897E+00 0.41691658E+04</pdfrwt>
<pdfrwt beam="2">  1       -1 0.39868264E+00 0.41691658E+04</pdfrwt>
<totfact> 0.65349484E-02</totfact>
</mgrwt>
</event>
<event>
12    6  0.1569942E-007  0.2352862E+04  0.7818608E-02  0.8457365E-01
         -1   -1    0    0    0  501 -0.00000000000E+00  0.00000000000E+00  0.47030557872E+03  0.47030557872E+03  0.00000000000E+00 0.  1.
          2   -1    0    0  501    0  0.00000000000E+00 -0.00000000000E+00 -0.29427462342E+04  0.29427462342E+04  0.00000000000E+00 0. -1.
         24    2    1    2    0    0 -0.14332366522E+03 -0.64189741897E+03  0.46463289092E+02  0.66425241374E+03  0.80613041357E+02 0.  0.
        254    2    1    2    0    0  0.14332366522E+03  0.64189741897E+03 -0.25189039446E+04  0.27487993992E+04  0.88229648388E+03 0.  0.
         23    2    4    4    0    0  0.18794770767E+02  0.78919339684E+03 -0.14005514856E+04  0.16103320735E+04  0.91899195485E+02 0.  0.
         23    2    4    4    0    0  0.12452889445E+03 -0.14729597786E+03 -0.11183524590E+04  0.11384673257E+04  0.90510101552E+02 0.  0.
          4    1    3    3  502    0 -0.96756172102E+02 -0.36115248552E+03 -0.10456585330E+02  0.37403504490E+03  0.00000000000E+00 0. -1.
         -3    1    3    3    0  502 -0.46567493117E+02 -0.28074493345E+03  0.56919874421E+02  0.29021736884E+03  0.00000000000E+00 0.  1.
         11    1    5    5    0    0 -0.19979534369E+02  0.41670904707E+02 -0.83127603115E+02  0.95109644581E+02  0.00000000000E+00 0.  1.
        -11    1    5    5    0    0  0.38774305136E+02  0.74752249213E+03 -0.13174238825E+04  0.15152224289E+04  0.00000000000E+00 0. -1.
          1    1    6    6  503    0  0.16248669406E+02 -0.64097097690E+02 -0.54903087988E+03  0.55299852102E+03  0.00000000000E+00 0. -1.
         -1    1    6    6    0  503  0.10828022505E+03 -0.83198880174E+02 -0.56932157911E+03  0.58546880467E+03  0.00000000000E+00 0.  1.
<mgrwt>
<rscale>  0 0.23528621E+04</rscale>
<asrwt>0</asrwt>
<pdfrwt beam="1">  1        2 0.45273018E+00 0.23528621E+04</pdfrwt>
<pdfrwt beam="2">  1       -1 0.72354705E-01 0.23528621E+04</pdfrwt>
<totfact> 0.37424927E+00</totfact>
</mgrwt>
</event>
<event>
12    6  0.1569942E-007  0.2802106E+04  0.7818608E-02  0.8302615E-01
         -1   -1    0    0    0  501 -0.00000000000E+00  0.00000000000E+00  0.11427120687E+04  0.11427120687E+04  0.00000000000E+00 0.  1.
          2   -1    0    0  501    0  0.00000000000E+00 -0.00000000000E+00 -0.17177986687E+04  0.17177986687E+04  0.00000000000E+00 0. -1.
         24    2    1    2    0    0  0.52417954970E+03  0.81656809575E+03 -0.10766598458E+04  0.14514942948E+04  0.78048760805E+02 0.  0.
        254    2    1    2    0    0 -0.52417954970E+03 -0.81656809575E+03  0.50157324579E+03  0.14090164425E+04  0.89005840206E+03 0.  0.
         23    2    4    4    0    0  0.55421997053E+02 -0.35989273412E+03  0.54764825646E+03  0.66385779181E+03  0.90521694164E+02 0.  0.
         23    2    4    4    0    0 -0.57960154675E+03 -0.45667536163E+03 -0.46075010666E+02  0.74515865071E+03  0.92995533253E+02 0.  0.
          4    1    3    3  502    0  0.38557306467E+02  0.81401064569E+02 -0.72767937737E+02  0.11579279752E+03  0.00000000000E+00 0. -1.
         -3    1    3    3    0  502  0.48562224323E+03  0.73516703118E+03 -0.10038919081E+04  0.13357014973E+04  0.00000000000E+00 0.  1.
         11    1    5    5    0    0  0.24724591422E+02 -0.17468333207E+03  0.34576367194E+03  0.38817275633E+03  0.00000000000E+00 0. -1.
        -11    1    5    5    0    0  0.30697405631E+02 -0.18520940206E+03  0.20188458452E+03  0.27568503548E+03  0.00000000000E+00 0.  1.
          3    1    6    6  503    0 -0.57419387963E+03 -0.45582999217E+03 -0.36388218061E+02  0.73403248946E+03  0.00000000000E+00 0. -1.
         -3    1    6    6    0  503 -0.54076671172E+01 -0.84536945917E+00 -0.96867926049E+01  0.11126161249E+02  0.00000000000E+00 0.  1.
<mgrwt>
<rscale>  0 0.28021058E+04</rscale>
<asrwt>0</asrwt>
<pdfrwt beam="1">  1        2 0.26427672E+00 0.28021058E+04</pdfrwt>
<pdfrwt beam="2">  1       -1 0.17580186E+00 0.28021058E+04</pdfrwt>
<totfact> 0.21186008E+00</totfact>
</mgrwt>
</event>
<event>
12    6  0.1569942E-007  0.1717080E+04  0.7818608E-02  0.8751682E-01
         -1   -1    0    0    0  501 -0.00000000000E+00  0.00000000000E+00  0.46461776082E+03  0.46461776082E+03  0.00000000000E+00 0.  1.
          2   -1    0    0  501    0  0.00000000000E+00 -0.00000000000E+00 -0.15864461867E+04  0.15864461867E+04  0.00000000000E+00 0. -1.
         24    2    1    2    0    0  0.26659142626E+03 -0.49414481858E+03 -0.62886666922E+03  0.84687402492E+03  0.80450209109E+02 0.  0.
        254    2    1    2    0    0 -0.26659142626E+03  0.49414481858E+03 -0.49296175667E+03  0.12041899226E+04  0.94435797551E+03 0.  0.
         23    2    4    4    0    0 -0.57921093523E+03  0.43913869429E+03 -0.19294669415E+03  0.75766745617E+03  0.92214136881E+02 0.  0.
         23    2    4    4    0    0  0.31261950897E+03  0.55006124286E+02 -0.30001506252E+03  0.44652246644E+03  0.92825881118E+02 0.  0.
          4    1    3    3  502    0  0.25789951979E+03 -0.48443887847E+03 -0.58956431788E+03  0.80546835705E+03  0.00000000000E+00 0. -1.
         -3    1    3    3    0  502  0.86919064756E+01 -0.97059401038E+01 -0.39302351335E+02  0.41405667872E+02  0.00000000000E+00 0.  1.
         11    1    5    5    0    0 -0.47380412244E+02  0.60261640679E+02 -0.42202850998E+02  0.87506853640E+02  0.00000000000E+00 0.  1.
        -11    1    5    5    0    0 -0.53183052299E+03  0.37887705361E+03 -0.15074384316E+03  0.67016060253E+03  0.00000000000E+00 0. -1.
          4    1    6    6  503    0  0.27426038280E+03  0.69235973859E+02 -0.28846386865E+03  0.40400963004E+03  0.00000000000E+00 0. -1.
         -4    1    6    6    0  503  0.38359126166E+02 -0.14229849573E+02 -0.11551193868E+02  0.42512836401E+02  0.00000000000E+00 0.  1.
<mgrwt>
<rscale>  0 0.17170802E+04</rscale>
<asrwt>0</asrwt>
<pdfrwt beam="1">  1        2 0.24406864E+00 0.17170802E+04</pdfrwt>
<pdfrwt beam="2">  1       -1 0.71479656E-01 0.17170802E+04</pdfrwt>
<totfact> 0.24279381E+01</totfact>
</mgrwt>
</event>
<event>
12    6  0.1569942E-007  0.2083381E+04  0.7818608E-02  0.8568600E-01
          2   -1    0    0  501    0  0.00000000000E+00  0.00000000000E+00  0.21945311580E+04  0.21945311580E+04  0.00000000000E+00 0. -1.
         -1   -1    0    0    0  501 -0.00000000000E+00 -0.00000000000E+00 -0.49446527557E+03  0.49446527557E+03  0.00000000000E+00 0.  1.
         24    2    1    2    0    0 -0.10472209722E+03 -0.25432282616E+03  0.17294077999E+04  0.17528924881E+04  0.78319339243E+02 0.  0.
        254    2    1    2    0    0  0.10472209722E+03  0.25432282616E+03 -0.29341917500E+02  0.93610394544E+03  0.89430578160E+03 0.  0.
         23    2    4    4    0    0  0.11660372733E+03  0.39644521280E+03 -0.36586854799E+03  0.55945225542E+03  0.91442854806E+02 0.  0.
         23    2    4    4    0    0 -0.11881630118E+02 -0.14212238664E+03  0.33652663049E+03  0.37665169003E+03  0.90974593430E+02 0.  0.
          4    1    3    3  502    0 -0.67129927106E+02 -0.19889401965E+03  0.14729851769E+04  0.14878677997E+04  0.00000000000E+00 0. -1.
         -3    1    3    3    0  502 -0.37592170109E+02 -0.55428806513E+02  0.25642262307E+03  0.26502468841E+03  0.00000000000E+00 0.  1.
         11    1    5    5    0    0  0.45294964963E+02  0.10851403991E+03 -0.15923424236E+03  0.19794563559E+03  0.00000000000E+00 0.  1.
        -11    1    5    5    0    0  0.71308762371E+02  0.28793117289E+03 -0.20663430564E+03  0.36150661983E+03  0.00000000000E+00 0. -1.
          1    1    6    6  503    0 -0.90524053353E+01 -0.12488758705E+03  0.33665345768E+03  0.35918575419E+03  0.00000000000E+00 0. -1.
         -1    1    6    6    0  503 -0.28292247828E+01 -0.17234799588E+02 -0.12682718455E+00  0.17465935842E+02  0.00000000000E+00 0.  1.
<mgrwt>
<rscale>  0 0.20833813E+04</rscale>
<asrwt>0</asrwt>
<pdfrwt beam="1">  1        2 0.33762017E+00 0.20833813E+04</pdfrwt>
<pdfrwt beam="2">  1       -1 0.76071582E-01 0.20833813E+04</pdfrwt>
<totfact> 0.94800994E+00</totfact>
</mgrwt>
</event>
<event>
12    6  0.1569942E-007  0.1691975E+04  0.7818608E-02  0.8765955E-01
         -1   -1    0    0    0  501 -0.00000000000E+00  0.00000000000E+00  0.41331064457E+03  0.41331064457E+03  0.00000000000E+00 0.  1.
          2   -1    0    0  501    0  0.00000000000E+00 -0.00000000000E+00 -0.17316141335E+04  0.17316141335E+04  0.00000000000E+00 0. -1.
         24    2    1    2    0    0  0.32868027207E+03  0.24723348856E+03 -0.10314130773E+04  0.11135913797E+04  0.84366496899E+02 0.  0.
        254    2    1    2    0    0 -0.32868027207E+03 -0.24723348856E+03 -0.28689041167E+03  0.10313333984E+04  0.90121437586E+03 0.  0.
         23    2    4    4    0    0 -0.22302313238E+03 -0.58038457055E+03 -0.15456829563E+03  0.64722477141E+03  0.91776791230E+02 0.  0.
         23    2    4    4    0    0 -0.10565713969E+03  0.33315108199E+03 -0.13232211604E+03  0.38410862700E+03  0.88753706085E+02 0.  0.
          2    1    3    3  502    0  0.32656012250E+03  0.25319591196E+03 -0.10203403941E+04  0.11008379551E+04  0.00000000000E+00 0. -1.
         -1    1    3    3    0  502  0.21201495689E+01 -0.59624234021E+01 -0.11072683175E+02  0.12753424627E+02  0.00000000000E+00 0.  1.
         11    1    5    5    0    0 -0.89827007652E+02 -0.15728850975E+03 -0.77490230347E+02  0.19701091950E+03  0.00000000000E+00 0. -1.
        -11    1    5    5    0    0 -0.13319612473E+03 -0.42309606080E+03 -0.77078065279E+02  0.45021385191E+03  0.00000000000E+00 0.  1.
          1    1    6    6  503    0  0.90355327321E+01  0.75362650283E+02 -0.99075448595E+01  0.76546256306E+02  0.00000000000E+00 0. -1.
         -1    1    6    6    0  503 -0.11469267242E+03  0.25778843171E+03 -0.12241457118E+03  0.30756237069E+03  0.00000000000E+00 0.  1.
<mgrwt>
<rscale>  0 0.16919746E+04</rscale>
<asrwt>0</asrwt>
<pdfrwt beam="1">  1        2 0.26640218E+00 0.16919746E+04</pdfrwt>
<pdfrwt beam="2">  1       -1 0.63586252E-01 0.16919746E+04</pdfrwt>
<totfact> 0.25621260E+01</totfact>
</mgrwt>
</event>
<event>
12    6  0.1569942E-007  0.2905204E+04  0.7818608E-02  0.8271331E-01
          2   -1    0    0  501    0  0.00000000000E+00  0.00000000000E+00  0.32673096700E+04  0.32673096700E+04  0.00000000000E+00 0. -1.
         -1   -1    0    0    0  501 -0.00000000000E+00 -0.00000000000E+00 -0.64580716773E+03  0.64580716773E+03  0.00000000000E+00 0.  1.
         24    2    1    2    0    0 -0.29397885895E+03  0.88659456867E+03  0.22755768254E+04  0.24611620529E+04  0.81211229665E+02 0.  0.
        254    2    1    2    0    0  0.29397885895E+03 -0.88659456867E+03  0.34592567687E+03  0.14519547848E+04  0.10564253994E+04 0.  0.
         23    2    4    4    0    0 -0.20850931314E+03 -0.48082458163E+03 -0.23233375829E+03  0.58041461612E+03  0.90739954852E+02 0.  0.
         23    2    4    4    0    0  0.50248817210E+03 -0.40576998704E+03  0.57825943516E+03  0.87154016866E+03  0.89747678253E+02 0.  0.
          2    1    3    3  502    0 -0.27021075144E+03  0.82510567649E+03  0.21623276708E+04  0.23301232121E+04  0.00000000000E+00 0. -1.
         -1    1    3    3    0  502 -0.23768107511E+02  0.61488892174E+02  0.11324915461E+03  0.13103884086E+03  0.00000000000E+00 0.  1.
         11    1    5    5    0    0 -0.65759843259E+02 -0.78064877774E+02 -0.23204484837E+02  0.10467535643E+03  0.00000000000E+00 0. -1.
        -11    1    5    5    0    0 -0.14274946989E+03 -0.40275970385E+03 -0.20912927345E+03  0.47573925969E+03  0.00000000000E+00 0.  1.
          4    1    6    6  503    0  0.11510125287E+03 -0.12001904904E+03  0.19463855999E+03  0.25600203042E+03  0.00000000000E+00 0. -1.
         -4    1    6    6    0  503  0.38738691923E+03 -0.28575093800E+03  0.38362087517E+03  0.61553813824E+03  0.00000000000E+00 0.  1.
<mgrwt>
<rscale>  0 0.29052036E+04</rscale>
<asrwt>0</asrwt>
<pdfrwt beam="1">  1        2 0.50266302E+00 0.29052036E+04</pdfrwt>
<pdfrwt beam="2">  1       -1 0.99354951E-01 0.29052036E+04</pdfrwt>
<totfact> 0.11098050E+00</totfact>
</mgrwt>
</event>
<event>
12    6  0.1569942E-007  0.1871892E+04  0.7818608E-02  0.8668975E-01
         -1   -1    0    0    0  501 -0.00000000000E+00  0.00000000000E+00  0.31161469872E+03  0.31161469872E+03  0.00000000000E+00 0.  1.
          2   -1    0    0  501    0  0.00000000000E+00 -0.00000000000E+00 -0.28111477068E+04  0.28111477068E+04  0.00000000000E+00 0. -1.
         24    2    1    2    0    0 -0.49359393080E+03  0.51594445099E+03 -0.86132696618E+03  0.11217358239E+04  0.81076944321E+02 0.  0.
        254    2    1    2    0    0  0.49359393080E+03 -0.51594445099E+03 -0.16382060419E+04  0.20010265816E+04  0.90030811373E+03 0.  0.
         23    2    4    4    0    0  0.71843649896E+03 -0.53378472837E+03 -0.12104884052E+04  0.15084781211E+04  0.95639548718E+02 0.  0.
         23    2    4    4    0    0 -0.22484256816E+03  0.17840277375E+02 -0.42771763666E+03  0.49254846055E+03  0.93750484425E+02 0.  0.
          2    1    3    3  502    0 -0.13819995663E+02  0.26784392473E+02 -0.17818765788E+02  0.35012917252E+02  0.00000000000E+00 0. -1.
         -1    1    3    3    0  502 -0.47977393514E+03  0.48916005852E+03 -0.84350820039E+03  0.10867229066E+04  0.00000000000E+00 0.  1.
         11    1    5    5    0    0  0.32567025146E+03 -0.25771984391E+03 -0.63899119850E+03  0.76209604538E+03  0.00000000000E+00 0. -1.
        -11    1    5    5    0    0  0.39276624750E+03 -0.27606488446E+03 -0.57149720674E+03  0.74638207570E+03  0.00000000000E+00 0.  1.
          2    1    6    6  503    0 -0.17336038529E+03 -0.20503293454E+02 -0.26197997750E+03  0.31481378121E+03  0.00000000000E+00 0. -1.
         -2    1    6    6    0  503 -0.51482182875E+02  0.38343570829E+02 -0.16573765916E+03  0.17773467934E+03  0.00000000000E+00 0.  1.
<mgrwt>
<rscale>  0 0.18718920E+04</rscale>
<asrwt>0</asrwt>
<pdfrwt beam="1">  1        2 0.43248428E+00 0.18718920E+04</pdfrwt>
<pdfrwt beam="2">  1       -1 0.47940721E-01 0.18718920E+04</pdfrwt>
<totfact> 0.10600827E+01</totfact>
</mgrwt>
</event>
<event>
12    6  0.1569942E-007  0.2697641E+04  0.7818608E-02  0.8335771E-01
         -1   -1    0    0    0  501 -0.00000000000E+00  0.00000000000E+00  0.19974747895E+04  0.19974747895E+04  0.00000000000E+00 0.  1.
          2   -1    0    0  501    0  0.00000000000E+00 -0.00000000000E+00 -0.91080806113E+03  0.91080806113E+03  0.00000000000E+00 0. -1.
         24    2    1    2    0    0  0.32265791680E+03 -0.79256139632E+03 -0.42132213555E+03  0.95717299177E+03  0.80038091269E+02 0.  0.
        254    2    1    2    0    0 -0.32265791680E+03  0.79256139632E+03  0.15079888639E+04  0.19511098588E+04  0.89472765099E+03 0.  0.
         23    2    4    4    0    0 -0.33258691719E+03  0.68002194255E+03  0.16046178504E+04  0.17766901830E+04  0.93731855139E+02 0.  0.
         23    2    4    4    0    0  0.99290003940E+01  0.11253945377E+03 -0.96628986561E+02  0.17441967581E+03  0.91221426002E+02 0.  0.
          2    1    3    3  502    0  0.12243471685E+03 -0.37670846223E+03 -0.22559393812E+03  0.45584224280E+03  0.00000000000E+00 0. -1.
         -1    1    3    3    0  502  0.20022319995E+03 -0.41585293409E+03 -0.19572819743E+03  0.50133074897E+03  0.00000000000E+00 0.  1.
         11    1    5    5    0    0 -0.32714333944E+03  0.63016719346E+03  0.15307924768E+04  0.16874415733E+04  0.00000000000E+00 0. -1.
        -11    1    5    5    0    0 -0.54435777452E+01  0.49854749084E+02  0.73825373627E+02  0.89248609715E+02  0.00000000000E+00 0.  1.
          4    1    6    6  503    0  0.21965071325E+02  0.99625228614E+02 -0.11165073962E+03  0.15124000196E+03  0.00000000000E+00 0. -1.
         -4    1    6    6    0  503 -0.12036070931E+02  0.12914225158E+02  0.15021753059E+02  0.23179673852E+02  0.00000000000E+00 0.  1.
<mgrwt>
<rscale>  0 0.26976406E+04</rscale>
<asrwt>0</asrwt>
<pdfrwt beam="1">  1        2 0.14012432E+00 0.26976406E+04</pdfrwt>
<pdfrwt beam="2">  1       -1 0.30730381E+00 0.26976406E+04</pdfrwt>
<totfact> 0.85399172E-01</totfact>
</mgrwt>
</event>
<event>
12    6  0.1569942E-007  0.1858554E+04  0.7818608E-02  0.8675766E-01
         -1   -1    0    0    0  501 -0.00000000000E+00  0.00000000000E+00  0.19771302893E+04  0.19771302893E+04  0.00000000000E+00 0.  1.
          2   -1    0    0  501    0  0.00000000000E+00 -0.00000000000E+00 -0.43677220955E+03  0.43677220955E+03  0.00000000000E+00 0. -1.
         24    2    1    2    0    0  0.24944028846E+03  0.27529424153E+03  0.13496675801E+04  0.14022394545E+04  0.81642721222E+02 0.  0.
        254    2    1    2    0    0 -0.24944028846E+03 -0.27529424153E+03  0.19069049959E+03  0.10116630443E+04  0.92146181240E+03 0.  0.
         23    2    4    4    0    0 -0.43061259242E+03  0.64902520352E+02  0.36722369371E+03  0.57707106824E+03  0.92294283047E+02 0.  0.
         23    2    4    4    0    0  0.18117230395E+03 -0.34019676189E+03 -0.17653319412E+03  0.43459197609E+03  0.95650282498E+02 0.  0.
          2    1    3    3  502    0  0.36478404077E+02  0.12764924389E+02  0.20866069873E+03  0.21220957672E+03  0.00000000000E+00 0. -1.
         -1    1    3    3    0  502  0.21296188439E+03  0.26252931714E+03  0.11410068814E+04  0.11900298778E+04  0.00000000000E+00 0.  1.
         11    1    5    5    0    0 -0.15851872525E+03  0.48752845731E+02  0.91730443909E+02  0.18952440625E+03  0.00000000000E+00 0.  1.
        -11    1    5    5    0    0 -0.27209386716E+03  0.16149674622E+02  0.27549324980E+03  0.38754666200E+03  0.00000000000E+00 0. -1.
          3    1    6    6  503    0  0.13575040092E+03 -0.31960951700E+03 -0.15531578165E+03  0.38039638108E+03  0.00000000000E+00 0. -1.
         -3    1    6    6    0  503  0.45421903034E+02 -0.20587244883E+02 -0.21217412462E+02  0.54195595012E+02  0.00000000000E+00 0.  1.
<mgrwt>
<rscale>  0 0.18585538E+04</rscale>
<asrwt>0</asrwt>
<pdfrwt beam="1">  1        2 0.67195726E-01 0.18585538E+04</pdfrwt>
<pdfrwt beam="2">  1       -1 0.30417388E+00 0.18585538E+04</pdfrwt>
<totfact> 0.24007534E+00</totfact>
</mgrwt>
</event>
<event>
12    6  0.1569942E-007  0.2363982E+04  0.7818608E-02  0.8453113E-01
         -1   -1    0    0    0  501 -0.00000000000E+00  0.00000000000E+00  0.13950879028E+04  0.13950879028E+04  0.00000000000E+00 0.  1.
          2   -1    0    0  501    0  0.00000000000E+00 -0.00000000000E+00 -0.10014440768E+04  0.10014440768E+04  0.00000000000E+00 0. -1.
         24    2    1    2    0    0  0.70658963020E+03  0.64664257322E+03 -0.16293701535E+03  0.97524623086E+03  0.84505720664E+02 0.  0.
        254    2    1    2    0    0 -0.70658963020E+03 -0.64664257322E+03  0.55658084140E+03  0.14212857488E+04  0.89042429418E+03 0.  0.
         23    2    4    4    0    0 -0.61597287394E+03 -0.11489665680E+03  0.60000654456E+03  0.87236562468E+03  0.91597524176E+02 0.  0.
         23    2    4    4    0    0 -0.90616756268E+02 -0.53174591642E+03 -0.43425703166E+02  0.54892012410E+03  0.91991275700E+02 0.  0.
          2    1    3    3  502    0  0.66040265329E+03  0.57360897355E+03 -0.15620990292E+03  0.88857214270E+03  0.00000000000E+00 0. -1.
         -1    1    3    3    0  502  0.46186976915E+02  0.73033599667E+02 -0.67271124263E+01  0.86674088160E+02  0.00000000000E+00 0.  1.
         11    1    5    5    0    0 -0.29318717145E+03 -0.63649111482E+02  0.34928567400E+03  0.46044588060E+03  0.00000000000E+00 0.  1.
        -11    1    5    5    0    0 -0.32278570249E+03 -0.51247545319E+02  0.25072087056E+03  0.41191974408E+03  0.00000000000E+00 0. -1.
          2    1    6    6  503    0  0.58868249012E+01 -0.16346831165E+03 -0.39106476427E+02  0.16818400673E+03  0.00000000000E+00 0.  1.
         -2    1    6    6    0  503 -0.96503581169E+02 -0.36827760477E+03 -0.43192267386E+01  0.38073611737E+03  0.00000000000E+00 0. -1.
<mgrwt>
<rscale>  0 0.23639818E+04</rscale>
<asrwt>0</asrwt>
<pdfrwt beam="1">  1        2 0.15406832E+00 0.23639818E+04</pdfrwt>
<pdfrwt beam="2">  1       -1 0.21462891E+00 0.23639818E+04</pdfrwt>
<totfact> 0.30913399E+00</totfact>
</mgrwt>
</event>
<event>
12    6  0.1569942E-007  0.1589644E+04  0.7818608E-02  0.8826936E-01
          2   -1    0    0  501    0  0.00000000000E+00  0.00000000000E+00  0.22626518291E+04  0.22626518291E+04  0.00000000000E+00 0. -1.
         -1   -1    0    0    0  501 -0.00000000000E+00 -0.00000000000E+00 -0.27920413853E+03  0.27920413853E+03  0.00000000000E+00 0.  1.
         24    2    1    2    0    0 -0.19383487753E+03 -0.42899531376E+03  0.39146663513E+03  0.61727630967E+03  0.78581022424E+02 0.  0.
        254    2    1    2    0    0  0.19383487753E+03  0.42899531376E+03  0.15919810555E+04  0.19245796580E+04  0.97364995766E+03 0.  0.
         23    2    4    4    0    0  0.31208936892E+03  0.16734705804E+03  0.68557257046E+02  0.37176367243E+03  0.90018434867E+02 0.  0.
         23    2    4    4    0    0 -0.11825449140E+03  0.26164825572E+03  0.15234237984E+04  0.15528159856E+04  0.89294350247E+02 0.  0.
          4    1    3    3  502    0 -0.96602545987E+02 -0.17483751617E+03  0.21212803768E+03  0.29137349455E+03  0.00000000000E+00 0. -1.
         -3    1    3    3    0  502 -0.97232331539E+02 -0.25415779758E+03  0.17933859745E+03  0.32590281512E+03  0.00000000000E+00 0.  1.
         11    1    5    5    0    0  0.16119205488E+03  0.35943341385E+02  0.36204723131E+02  0.16907271904E+03  0.00000000000E+00 0. -1.
        -11    1    5    5    0    0  0.15089731404E+03  0.13140371665E+03  0.32352533915E+02  0.20269095339E+03  0.00000000000E+00 0.  1.
          4    1    6    6  503    0 -0.12470951664E+03  0.22016585534E+03  0.11792497142E+04  0.12060909401E+04  0.00000000000E+00 0. -1.
         -4    1    6    6    0  503  0.64550252450E+01  0.41482400378E+02  0.34417408421E+03  0.34672504544E+03  0.00000000000E+00 0.  1.
<mgrwt>
<rscale>  0 0.15896437E+04</rscale>
<asrwt>0</asrwt>
<pdfrwt beam="1">  1        2 0.34810027E+00 0.15896437E+04</pdfrwt>
<pdfrwt beam="2">  1       -1 0.42954484E-01 0.15896437E+04</pdfrwt>
<totfact> 0.27815032E+01</totfact>
</mgrwt>
</event>
<event>
12    6  0.1569942E-007  0.1244837E+04  0.7818608E-02  0.9074491E-01
          2   -1    0    0  501    0  0.00000000000E+00  0.00000000000E+00  0.17166255647E+04  0.17166255647E+04  0.00000000000E+00 0. -1.
         -1   -1    0    0    0  501 -0.00000000000E+00 -0.00000000000E+00 -0.22567825806E+03  0.22567825806E+03  0.00000000000E+00 0.  1.
         24    2    1    2    0    0 -0.63108597653E+02 -0.26725087581E+03  0.21815613631E+03  0.35977668124E+03  0.80258549939E+02 0.  0.
        254    2    1    2    0    0  0.63108597653E+02  0.26725087581E+03  0.12727911703E+04  0.15825271415E+04  0.89943819390E+03 0.  0.
         23    2    4    4    0    0 -0.17668325949E+02  0.58678938901E+03  0.73943493569E+03  0.94888111967E+03  0.94749133787E+02 0.  0.
         23    2    4    4    0    0  0.80776923603E+02 -0.31953851320E+03  0.53335623464E+03  0.63364602184E+03  0.91698610487E+02 0.  0.
          2    1    3    3  502    0 -0.15115425040E+02 -0.32677633149E+01  0.27707817562E+01  0.15710874666E+02  0.00000000000E+00 0. -1.
         -1    1    3    3    0  502 -0.47993172613E+02 -0.26398311249E+03  0.21538535455E+03  0.34406580658E+03  0.00000000000E+00 0.  1.
         11    1    5    5    0    0  0.19429253628E+02  0.49803162494E+03  0.61555594571E+03  0.79203668958E+03  0.00000000000E+00 0. -1.
        -11    1    5    5    0    0 -0.37097579577E+02  0.88757764067E+02  0.12387898998E+03  0.15684443009E+03  0.00000000000E+00 0.  1.
          3    1    6    6  503    0  0.91454417357E+02 -0.24486513624E+03  0.45597304490E+03  0.52557993025E+03  0.00000000000E+00 0. -1.
         -3    1    6    6    0  503 -0.10677493754E+02 -0.74673376956E+02  0.77383189733E+02  0.10806609159E+03  0.00000000000E+00 0.  1.
<mgrwt>
<rscale>  0 0.12448374E+04</rscale>
<asrwt>0</asrwt>
<pdfrwt beam="1">  1        2 0.26409623E+00 0.12448374E+04</pdfrwt>
<pdfrwt beam="2">  1       -1 0.34719733E-01 0.12448374E+04</pdfrwt>
<totfact> 0.84705258E+01</totfact>
</mgrwt>
</event>
<event>
12    6  0.1569942E-007  0.1927358E+04  0.7818608E-02  0.8641357E-01
          2   -1    0    0  501    0  0.00000000000E+00  0.00000000000E+00  0.10107749939E+04  0.10107749939E+04  0.00000000000E+00 0. -1.
         -1   -1    0    0    0  501 -0.00000000000E+00 -0.00000000000E+00 -0.91877735678E+03  0.91877735678E+03  0.00000000000E+00 0.  1.
         24    2    1    2    0    0  0.18614666063E+03 -0.53372358542E+03 -0.45817080800E+03  0.73067771175E+03  0.66768137992E+02 0.  0.
        254    2    1    2    0    0 -0.18614666063E+03  0.53372358542E+03  0.55016844510E+03  0.11988746389E+04  0.90283090164E+03 0.  0.
         23    2    4    4    0    0  0.30427598701E+03  0.61587378459E+01  0.27736065939E+03  0.42286097885E+03  0.96232352851E+02 0.  0.
         23    2    4    4    0    0 -0.49042264764E+03  0.52756484757E+03  0.27280778571E+03  0.77601366006E+03  0.94520214534E+02 0.  0.
          4    1    3    3  502    0  0.12748052287E+03 -0.39718491706E+03 -0.30118779928E+03  0.51451067286E+03  0.00000000000E+00 0. -1.
         -3    1    3    3    0  502  0.58666137762E+02 -0.13653866836E+03 -0.15698300872E+03  0.21616703889E+03  0.00000000000E+00 0.  1.
         11    1    5    5    0    0  0.14350768058E+03  0.48317386028E+02  0.15316495058E+03  0.21537995790E+03  0.00000000000E+00 0. -1.
        -11    1    5    5    0    0  0.16076830643E+03 -0.42158648182E+02  0.12419570881E+03  0.20748102095E+03  0.00000000000E+00 0.  1.
          2    1    6    6  503    0 -0.16439105672E+03  0.11491402929E+03  0.75712979462E+02  0.21438775365E+03  0.00000000000E+00 0. -1.
         -2    1    6    6    0  503 -0.32603159092E+03  0.41265081828E+03  0.19709480625E+03  0.56162590641E+03  0.00000000000E+00 0.  1.
<mgrwt>
<rscale>  0 0.19273580E+04</rscale>
<asrwt>0</asrwt>
<pdfrwt beam="1">  1        2 0.15550385E+00 0.19273580E+04</pdfrwt>
<pdfrwt beam="2">  1       -1 0.14135036E+00 0.19273580E+04</pdfrwt>
<totfact> 0.10802563E+01</totfact>
</mgrwt>
</event>
<event>
12    6  0.1569942E-007  0.1415755E+04  0.7818608E-02  0.8942493E-01
          2   -1    0    0  501    0  0.00000000000E+00  0.00000000000E+00  0.14033692159E+04  0.14033692159E+04  0.00000000000E+00 0. -1.
         -1   -1    0    0    0  501 -0.00000000000E+00 -0.00000000000E+00 -0.35706229553E+03  0.35706229553E+03  0.00000000000E+00 0.  1.
         24    2    1    2    0    0  0.23727290681E+02 -0.37369875743E+03  0.29043307226E+03  0.48059673895E+03  0.80050673934E+02 0.  0.
        254    2    1    2    0    0 -0.23727290681E+02  0.37369875743E+03  0.75587384813E+03  0.12798347725E+04  0.96250611686E+03 0.  0.
         23    2    4    4    0    0 -0.44104025804E+03  0.26810511659E+03  0.63395424965E+03  0.82269767891E+03  0.92393817338E+02 0.  0.
         23    2    4    4    0    0  0.41731296736E+03  0.10559364084E+03  0.12191959848E+03  0.45713709360E+03  0.93860556865E+02 0.  0.
          2    1    3    3  502    0 -0.10047104691E+02 -0.25124585003E+03  0.15734606016E+03  0.29661962868E+03  0.00000000000E+00 0. -1.
         -3    1    3    3    0  502  0.33774395372E+02 -0.12245290740E+03  0.13308701210E+03  0.18397711027E+03  0.00000000000E+00 0.  1.
         11    1    5    5    0    0 -0.25903001110E+03  0.19260751709E+03  0.44456113578E+03  0.54938948455E+03  0.00000000000E+00 0. -1.
        -11    1    5    5    0    0 -0.18201024695E+03  0.75497599494E+02  0.18939311387E+03  0.27330819436E+03  0.00000000000E+00 0.  1.
          1    1    6    6  503    0  0.16540153503E+02 -0.38179832179E+01 -0.11838869245E+02  0.20695712086E+02  0.00000000000E+00 0. -1.
         -1    1    6    6    0  503  0.40077281386E+03  0.10941162406E+03  0.13375846773E+03  0.43644138151E+03  0.00000000000E+00 0.  1.
<mgrwt>
<rscale>  0 0.14157545E+04</rscale>
<asrwt>0</asrwt>
<pdfrwt beam="1">  1        2 0.21590295E+00 0.14157545E+04</pdfrwt>
<pdfrwt beam="2">  1       -1 0.54932662E-01 0.14157545E+04</pdfrwt>
<totfact> 0.53453220E+01</totfact>
</mgrwt>
</event>
<event>
12    6  0.1569942E-007  0.1453185E+04  0.7818608E-02  0.8916195E-01
          2   -1    0    0  501    0  0.00000000000E+00  0.00000000000E+00  0.11627402814E+04  0.11627402814E+04  0.00000000000E+00 0. -1.
         -1   -1    0    0    0  501 -0.00000000000E+00 -0.00000000000E+00 -0.45404512770E+03  0.45404512770E+03  0.00000000000E+00 0.  1.
         24    2    1    2    0    0 -0.50072621934E+02  0.23040747237E+03 -0.19838283467E+03  0.31748274138E+03  0.76450449237E+02 0.  0.
        254    2    1    2    0    0  0.50072621934E+02 -0.23040747237E+03  0.90707798842E+03  0.12993026678E+04  0.89989003474E+03 0.  0.
         23    2    4    4    0    0  0.41487271804E+03 -0.78461349741E+02  0.74677393428E+03  0.86292257769E+03  0.93212180426E+02 0.  0.
         23    2    4    4    0    0 -0.36480009611E+03 -0.15194612263E+03  0.16030405413E+03  0.43638009009E+03  0.92538959077E+02 0.  0.
          2    1    3    3  502    0 -0.58292177481E+02  0.90043414434E+02 -0.86142213717E+02  0.13757280045E+03  0.00000000000E+00 0. -1.
         -1    1    3    3    0  502  0.82195555470E+01  0.14036405794E+03 -0.11224062096E+03  0.17990994093E+03  0.00000000000E+00 0.  1.
         11    1    5    5    0    0 -0.51068679481E+01 -0.11357552495E+00  0.73639351810E+01  0.89621727828E+01  0.00000000000E+00 0.  1.
        -11    1    5    5    0    0  0.41997958599E+03 -0.78347774216E+02  0.73940999910E+03  0.85396040490E+03  0.00000000000E+00 0. -1.
          1    1    6    6  503    0 -0.33410095810E+03 -0.11559280468E+03  0.11798056501E+03  0.37269902122E+03  0.00000000000E+00 0. -1.
         -1    1    6    6    0  503 -0.30699138008E+02 -0.36353317944E+02  0.42323489123E+02  0.63681068863E+02  0.00000000000E+00 0.  1.
<mgrwt>
<rscale>  0 0.14531849E+04</rscale>
<asrwt>0</asrwt>
<pdfrwt beam="1">  1        2 0.17888312E+00 0.14531849E+04</pdfrwt>
<pdfrwt beam="2">  1       -1 0.69853097E-01 0.14531849E+04</pdfrwt>
<totfact> 0.45697715E+01</totfact>
</mgrwt>
</event>
<event>
12    6  0.1569942E-007  0.1831287E+04  0.7818608E-02  0.8689836E-01
         -1   -1    0    0    0  501 -0.00000000000E+00  0.00000000000E+00  0.59150848503E+03  0.59150848503E+03  0.00000000000E+00 0.  1.
          2   -1    0    0  501    0  0.00000000000E+00 -0.00000000000E+00 -0.14173981720E+04  0.14173981720E+04  0.00000000000E+00 0. -1.
         24    2    1    2    0    0  0.52092950484E+03 -0.41075062880E+02 -0.80242165406E+03  0.96089187652E+03  0.79862241683E+02 0.  0.
        254    2    1    2    0    0 -0.52092950484E+03  0.41075062880E+02 -0.23468032907E+02  0.10480147805E+04  0.90814620068E+03 0.  0.
         23    2    4    4    0    0 -0.24151091956E+03 -0.35160546611E+03 -0.25534272033E+03  0.50535471306E+03  0.90716884391E+02 0.  0.
         23    2    4    4    0    0 -0.27941858529E+03  0.39268052899E+03  0.23187468743E+03  0.54266006746E+03  0.91876735314E+02 0.  0.
          2    1    3    3  502    0  0.48357438366E+03 -0.17663913121E+02 -0.72159310320E+03  0.86882265449E+03  0.00000000000E+00 0. -1.
         -1    1    3    3    0  502  0.37355121179E+02 -0.23411149759E+02 -0.80828550863E+02  0.92069222034E+02  0.00000000000E+00 0.  1.
         11    1    5    5    0    0 -0.20576194394E+02 -0.11591044066E+02 -0.39435292905E+02  0.45966013584E+02  0.00000000000E+00 0. -1.
        -11    1    5    5    0    0 -0.22093472516E+03 -0.34001442205E+03 -0.21590742743E+03  0.45938869947E+03  0.00000000000E+00 0.  1.
          4    1    6    6  503    0 -0.15731109458E+03  0.18078185276E+03  0.15853632315E+03  0.28733712695E+03  0.00000000000E+00 0. -1.
         -4    1    6    6    0  503 -0.12210749071E+03  0.21189867624E+03  0.73338364275E+02  0.25532294051E+03  0.00000000000E+00 0.  1.
<mgrwt>
<rscale>  0 0.18312870E+04</rscale>
<asrwt>0</asrwt>
<pdfrwt beam="1">  1        2 0.21806126E+00 0.18312870E+04</pdfrwt>
<pdfrwt beam="2">  1       -1 0.91001306E-01 0.18312870E+04</pdfrwt>
<totfact> 0.17891216E+01</totfact>
</mgrwt>
</event>
<event>
12    6  0.1569942E-007  0.1445737E+04  0.7818608E-02  0.8921361E-01
         -1   -1    0    0    0  501 -0.00000000000E+00  0.00000000000E+00  0.11122672651E+04  0.11122672651E+04  0.00000000000E+00 0.  1.
          2   -1    0    0  501    0  0.00000000000E+00 -0.00000000000E+00 -0.46979636953E+03  0.46979636953E+03  0.00000000000E+00 0. -1.
         24    2    1    2    0    0 -0.12786371216E+02  0.36671745722E+03 -0.61045798994E+02  0.38096979226E+03  0.82256965221E+02 0.  0.
        254    2    1    2    0    0  0.12786371216E+02 -0.36671745722E+03  0.70351669456E+03  0.12010938424E+04  0.90169035367E+03 0.  0.
         23    2    4    4    0    0  0.73353543511E+02 -0.61358004349E+03  0.24866935323E+03  0.67219048689E+03  0.90235199987E+02 0.  0.
         23    2    4    4    0    0 -0.60567172295E+02  0.24686258627E+03  0.45484734133E+03  0.52890335547E+03  0.90791721233E+02 0.  0.
          2    1    3    3  502    0 -0.41086969607E+02  0.30923822159E+03 -0.49069588758E+02  0.31579145223E+03  0.00000000000E+00 0. -1.
         -1    1    3    3    0  502  0.28300598392E+02  0.57479235630E+02 -0.11976210236E+02  0.65178340034E+02  0.00000000000E+00 0.  1.
         11    1    5    5    0    0  0.88161962805E+02 -0.58906866463E+03  0.23330472703E+03  0.63969173747E+03  0.00000000000E+00 0.  1.
        -11    1    5    5    0    0 -0.14808419294E+02 -0.24511378863E+02  0.15364626204E+02  0.32498749424E+02  0.00000000000E+00 0. -1.
          4    1    6    6  503    0 -0.64757506385E+02  0.13028278861E+03  0.18839258374E+03  0.23803131149E+03  0.00000000000E+00 0. -1.
         -4    1    6    6    0  503  0.41903340897E+01  0.11657979766E+03  0.26645475760E+03  0.29087204398E+03  0.00000000000E+00 0.  1.
<mgrwt>
<rscale>  0 0.14457374E+04</rscale>
<asrwt>0</asrwt>
<pdfrwt beam="1">  1        2 0.72276365E-01 0.14457374E+04</pdfrwt>
<pdfrwt beam="2">  1       -1 0.17111804E+00 0.14457374E+04</pdfrwt>
<totfact> 0.17728201E+01</totfact>
</mgrwt>
</event>
<event>
12    6  0.1569942E-007  0.2124335E+04  0.7818608E-02  0.8550599E-01
          2   -1    0    0  501    0  0.00000000000E+00  0.00000000000E+00  0.14976219469E+04  0.14976219469E+04  0.00000000000E+00 0. -1.
         -1   -1    0    0    0  501 -0.00000000000E+00 -0.00000000000E+00 -0.75332728202E+03  0.75332728202E+03  0.00000000000E+00 0.  1.
         24    2    1    2    0    0 -0.51361988671E+03 -0.20531189048E+03 -0.40174103916E+03  0.68834230637E+03  0.80379772337E+02 0.  0.
        254    2    1    2    0    0  0.51361988671E+03  0.20531189048E+03  0.11460357040E+04  0.15626069225E+04  0.90685401199E+03 0.  0.
         23    2    4    4    0    0  0.75820522886E+03  0.79737137571E+02  0.89232527438E+03  0.11773861961E+04  0.93598500730E+02 0.  0.
         23    2    4    4    0    0 -0.24458534216E+03  0.12557475291E+03  0.25371042962E+03  0.38522072639E+03  0.91842352859E+02 0.  0.
          2    1    3    3  502    0 -0.48032389506E+03 -0.19777336937E+03 -0.39719324539E+03  0.65390199876E+03  0.00000000000E+00 0. -1.
         -1    1    3    3    0  502 -0.33295991646E+02 -0.75385211111E+01 -0.45477937715E+01  0.34440307612E+02  0.00000000000E+00 0.  1.
         11    1    5    5    0    0  0.89059964340E+02  0.28575127023E+02  0.14910170075E+03  0.17601003465E+03  0.00000000000E+00 0. -1.
        -11    1    5    5    0    0  0.66914526452E+03  0.51162010548E+02  0.74322357363E+03  0.10013761615E+04  0.00000000000E+00 0.  1.
          1    1    6    6  503    0 -0.78413898411E+02  0.75114019231E+02  0.56364216441E+02  0.12234287983E+03  0.00000000000E+00 0. -1.
         -1    1    6    6    0  503 -0.16617144375E+03  0.50460733678E+02  0.19734621318E+03  0.26287784657E+03  0.00000000000E+00 0.  1.
<mgrwt>
<rscale>  0 0.21243347E+04</rscale>
<asrwt>0</asrwt>
<pdfrwt beam="1">  1        2 0.23040338E+00 0.21243347E+04</pdfrwt>
<pdfrwt beam="2">  1       -1 0.11589651E+00 0.21243347E+04</pdfrwt>
<totfact> 0.89888710E+00</totfact>
</mgrwt>
</event>
<event>
12    6  0.1569942E-007  0.1872651E+04  0.7818608E-02  0.8668591E-01
          2   -1    0    0  501    0  0.00000000000E+00  0.00000000000E+00  0.25264985706E+04  0.25264985706E+04  0.00000000000E+00 0. -1.
         -1   -1    0    0    0  501 -0.00000000000E+00 -0.00000000000E+00 -0.34700420608E+03  0.34700420608E+03  0.00000000000E+00 0.  1.
         24    2    1    2    0    0 -0.68071307893E+03  0.16380423774E+03  0.10865282895E+04  0.12948755122E+04  0.77179947031E+02 0.  0.
        254    2    1    2    0    0  0.68071307893E+03 -0.16380423774E+03  0.10929660750E+04  0.15786272644E+04  0.89849155516E+03 0.  0.
         23    2    4    4    0    0 -0.20461743416E+03  0.34874046725E+02  0.24213348268E+03  0.33158965643E+03  0.90766642111E+02 0.  0.
         23    2    4    4    0    0  0.88533051309E+03 -0.19867828447E+03  0.85083259231E+03  0.12470376080E+04  0.88901729092E+02 0.  0.
          4    1    3    3  502    0 -0.63021782462E+03  0.13230729282E+03  0.10118584549E+04  0.11993903697E+04  0.00000000000E+00 0. -1.
         -3    1    3    3    0  502 -0.50495254311E+02  0.31496944925E+02  0.74669834596E+02  0.95485142541E+02  0.00000000000E+00 0.  1.
         11    1    5    5    0    0 -0.18480889685E+03  0.21348954892E+02  0.24478611245E+03  0.30745787855E+03  0.00000000000E+00 0.  1.
        -11    1    5    5    0    0 -0.19808537306E+02  0.13525091833E+02 -0.26526297677E+01  0.24131777887E+02  0.00000000000E+00 0. -1.
          1    1    6    6  503    0  0.34562452055E+03 -0.11269170253E+03  0.37691343498E+03  0.52365968576E+03  0.00000000000E+00 0. -1.
         -1    1    6    6    0  503  0.53970599253E+03 -0.85986581931E+02  0.47391915733E+03  0.72337792220E+03  0.00000000000E+00 0.  1.
<mgrwt>
<rscale>  0 0.18726512E+04</rscale>
<asrwt>0</asrwt>
<pdfrwt beam="1">  1        2 0.38869208E+00 0.18726512E+04</pdfrwt>
<pdfrwt beam="2">  1       -1 0.53385264E-01 0.18726512E+04</pdfrwt>
<totfact> 0.12721447E+01</totfact>
</mgrwt>
</event>
<event>
12    6  0.1569942E-007  0.2091018E+04  0.7818608E-02  0.8565210E-01
         -1   -1    0    0    0  501 -0.00000000000E+00  0.00000000000E+00  0.57799331187E+03  0.57799331187E+03  0.00000000000E+00 0.  1.
          2   -1    0    0  501    0  0.00000000000E+00 -0.00000000000E+00 -0.18911801815E+04  0.18911801815E+04  0.00000000000E+00 0. -1.
         24    2    1    2    0    0 -0.54661580700E+03  0.65152952631E+03 -0.56028171423E+03  0.10213259289E+04  0.76886212689E+02 0.  0.
        254    2    1    2    0    0  0.54661580700E+03 -0.65152952631E+03 -0.75290515545E+03  0.14478475645E+04  0.89784009309E+03 0.  0.
         23    2    4    4    0    0 -0.16290924499E+03 -0.43606081830E+03 -0.40497902838E+03  0.62382157538E+03  0.91961324042E+02 0.  0.
         23    2    4    4    0    0  0.70952505199E+03 -0.21546870801E+03 -0.34792612707E+03  0.82402598910E+03  0.90075952912E+02 0.  0.
          2    1    3    3  502    0 -0.11992708830E+03  0.16332438647E+03 -0.17034393316E+03  0.26471572921E+03  0.00000000000E+00 0. -1.
         -1    1    3    3    0  502 -0.42668871870E+03  0.48820513984E+03 -0.38993778107E+03  0.75661019973E+03  0.00000000000E+00 0.  1.
         11    1    5    5    0    0 -0.10100867872E+03 -0.28489290872E+03 -0.20325053752E+03  0.36424923283E+03  0.00000000000E+00 0.  1.
        -11    1    5    5    0    0 -0.61900566266E+02 -0.15116790958E+03 -0.20172849085E+03  0.25957234254E+03  0.00000000000E+00 0. -1.
          4    1    6    6  503    0  0.14881228830E+03 -0.75718942608E+02 -0.52533039978E+02  0.17503764083E+03  0.00000000000E+00 0. -1.
         -4    1    6    6    0  503  0.56071276369E+03 -0.13974976540E+03 -0.29539308709E+03  0.64898834827E+03  0.00000000000E+00 0.  1.
<mgrwt>
<rscale>  0 0.20910184E+04</rscale>
<asrwt>0</asrwt>
<pdfrwt beam="1">  1        2 0.29095080E+00 0.20910184E+04</pdfrwt>
<pdfrwt beam="2">  1       -1 0.88922047E-01 0.20910184E+04</pdfrwt>
<totfact> 0.10002085E+01</totfact>
</mgrwt>
</event>
<event>
12    6  0.1569942E-007  0.1645147E+04  0.7818608E-02  0.8793283E-01
          2   -1    0    0  501    0  0.00000000000E+00  0.00000000000E+00  0.12588618137E+04  0.12588618137E+04  0.00000000000E+00 0. -1.
         -1   -1    0    0    0  501 -0.00000000000E+00 -0.00000000000E+00 -0.53749114721E+03  0.53749114721E+03  0.00000000000E+00 0.  1.
         24    2    1    2    0    0  0.26761957714E+02  0.32222985134E+03 -0.26245039929E+03  0.42409908074E+03  0.80196874748E+02 0.  0.
        254    2    1    2    0    0 -0.26761957714E+02 -0.32222985134E+03  0.98382106581E+03  0.13722538802E+04  0.90034912266E+03 0.  0.
         23    2    4    4    0    0  0.22855058551E+03 -0.54578802697E+03  0.54341404342E+03  0.80845505690E+03  0.90447863073E+02 0.  0.
         23    2    4    4    0    0 -0.25531254322E+03  0.22355817562E+03  0.44040702240E+03  0.56379882329E+03  0.93530824604E+02 0.  0.
          4    1    3    3  502    0 -0.51107269084E+01  0.16382620000E+03 -0.86934269927E+02  0.18553358355E+03  0.00000000000E+00 0. -1.
         -3    1    3    3    0  502  0.31872684622E+02  0.15840365134E+03 -0.17551612937E+03  0.23856549719E+03  0.00000000000E+00 0.  1.
         11    1    5    5    0    0  0.20386583606E+03 -0.42434830924E+03  0.39067946048E+03  0.61177055136E+03  0.00000000000E+00 0. -1.
        -11    1    5    5    0    0  0.24684749444E+02 -0.12143971772E+03  0.15273458294E+03  0.19668450554E+03  0.00000000000E+00 0.  1.
          1    1    6    6  503    0 -0.22874168321E+03  0.15101745511E+03  0.35740335969E+03  0.45040669500E+03  0.00000000000E+00 0. -1.
         -1    1    6    6    0  503 -0.26570860005E+02  0.72540720510E+02  0.83003662707E+02  0.11339212828E+03  0.00000000000E+00 0.  1.
<mgrwt>
<rscale>  0 0.16451469E+04</rscale>
<asrwt>0</asrwt>
<pdfrwt beam="1">  1        2 0.19367105E+00 0.16451469E+04</pdfrwt>
<pdfrwt beam="2">  1       -1 0.82690946E-01 0.16451469E+04</pdfrwt>
<totfact> 0.27670073E+01</totfact>
</mgrwt>
</event>
<event>
12    6  0.1569942E-007  0.1430817E+04  0.7818608E-02  0.8931808E-01
         -1   -1    0    0    0  501 -0.00000000000E+00  0.00000000000E+00  0.52042271608E+03  0.52042271608E+03  0.00000000000E+00 0.  1.
          2   -1    0    0  501    0  0.00000000000E+00 -0.00000000000E+00 -0.98344990857E+03  0.98344990857E+03  0.00000000000E+00 0. -1.
         24    2    1    2    0    0  0.41674741510E+03  0.93832700135E+02 -0.12388500476E+03  0.45175907589E+03  0.79093518307E+02 0.  0.
        254    2    1    2    0    0 -0.41674741510E+03 -0.93832700135E+02 -0.33914218773E+03  0.10521135488E+04  0.89969023134E+03 0.  0.
         23    2    4    4    0    0 -0.28236334040E+03  0.24777456211E+03 -0.50667851551E+03  0.63848234209E+03  0.99072162871E+02 0.  0.
         23    2    4    4    0    0 -0.13438407470E+03 -0.34160726225E+03  0.16753632777E+03  0.41363120666E+03  0.90927184329E+02 0.  0.
          2    1    3    3  502    0  0.26056501241E+03  0.67152685603E+02 -0.38643239107E+02  0.27183985875E+03  0.00000000000E+00 0. -1.
         -1    1    3    3    0  502  0.15618240269E+03  0.26680014532E+02 -0.85241765649E+02  0.17991921714E+03  0.00000000000E+00 0.  1.
         11    1    5    5    0    0 -0.30795792952E+02  0.22432042973E+02 -0.12850237830E+02  0.40208283074E+02  0.00000000000E+00 0. -1.
        -11    1    5    5    0    0 -0.25156754745E+03  0.22534251914E+03 -0.49382827768E+03  0.59827405902E+03  0.00000000000E+00 0.  1.
          3    1    6    6  503    0 -0.79046673556E+01 -0.55292600646E+02 -0.52491145318E+01  0.56100879277E+02  0.00000000000E+00 0. -1.
         -3    1    6    6    0  503 -0.12647940734E+03 -0.28631466160E+03  0.17278544230E+03  0.35753032739E+03  0.00000000000E+00 0.  1.
<mgrwt>
<rscale>  0 0.14308175E+04</rscale>
<asrwt>0</asrwt>
<pdfrwt beam="1">  1        2 0.15129999E+00 0.14308175E+04</pdfrwt>
<pdfrwt beam="2">  1       -1 0.80065034E-01 0.14308175E+04</pdfrwt>
<totfact> 0.44555420E+01</totfact>
</mgrwt>
</event>
<event>
12    6  0.1569942E-007  0.1261756E+04  0.7818608E-02  0.9060455E-01
          2   -1    0    0  501    0  0.00000000000E+00  0.00000000000E+00  0.87676036512E+03  0.87676036512E+03  0.00000000000E+00 0. -1.
         -1   -1    0    0    0  501 -0.00000000000E+00 -0.00000000000E+00 -0.45395173733E+03  0.45395173733E+03  0.00000000000E+00 0.  1.
         24    2    1    2    0    0 -0.85909112497E+02  0.20649341874E+03  0.32754167014E+03  0.40426640538E+03  0.78280733579E+02 0.  0.
        254    2    1    2    0    0  0.85909112497E+02 -0.20649341874E+03  0.95266957653E+02  0.92644569708E+03  0.89398318151E+03 0.  0.
         23    2    4    4    0    0  0.15310236474E+03  0.30508846918E+03 -0.10294047564E+03  0.36628874075E+03  0.83972566713E+02 0.  0.
         23    2    4    4    0    0 -0.67193252245E+02 -0.51158188792E+03  0.19820743329E+03  0.56015695632E+03  0.90877213383E+02 0.  0.
          2    1    3    3  502    0 -0.46276338331E+02  0.17697904061E+03  0.28703587462E+03  0.34037137604E+03  0.00000000000E+00 0. -1.
         -1    1    3    3    0  502 -0.39632774167E+02  0.29514378124E+02  0.40505795516E+02  0.63895029342E+02  0.00000000000E+00 0.  1.
         11    1    5    5    0    0  0.80265901173E+02  0.83562673379E+02 -0.13999379191E+02  0.11671040181E+03  0.00000000000E+00 0.  1.
        -11    1    5    5    0    0  0.72836463569E+02  0.22152579580E+03 -0.88941096446E+02  0.24957833894E+03  0.00000000000E+00 0. -1.
          3    1    6    6  503    0  0.16704059486E+02 -0.18820871161E+03  0.56019928229E+02  0.19707809896E+03  0.00000000000E+00 0. -1.
         -3    1    6    6    0  503 -0.83897311731E+02 -0.32337317630E+03  0.14218750506E+03  0.36307885736E+03  0.00000000000E+00 0.  1.
<mgrwt>
<rscale>  0 0.12617557E+04</rscale>
<asrwt>0</asrwt>
<pdfrwt beam="1">  1        2 0.13488621E+00 0.12617557E+04</pdfrwt>
<pdfrwt beam="2">  1       -1 0.69838729E-01 0.12617557E+04</pdfrwt>
<totfact> 0.70728942E+01</totfact>
</mgrwt>
</event>
<event>
12    6  0.1569942E-007  0.2108684E+04  0.7818608E-02  0.8557427E-01
         -1   -1    0    0    0  501 -0.00000000000E+00  0.00000000000E+00  0.85931558763E+03  0.85931558763E+03  0.00000000000E+00 0.  1.
          2   -1    0    0  501    0  0.00000000000E+00 -0.00000000000E+00 -0.12936311433E+04  0.12936311433E+04  0.00000000000E+00 0. -1.
         24    2    1    2    0    0 -0.45058896020E+03  0.16237137836E+03  0.55641847221E+03  0.73786514806E+03  0.73814530658E+02 0.  0.
        254    2    1    2    0    0  0.45058896020E+03 -0.16237137836E+03 -0.99073402788E+03  0.14150815829E+04  0.88966684584E+03 0.  0.
         23    2    4    4    0    0 -0.21304641205E+03  0.88013249216E+02 -0.46723711619E+03  0.52884403917E+03  0.90721493027E+02 0.  0.
         23    2    4    4    0    0  0.66363537225E+03 -0.25038462758E+03 -0.52349691169E+03  0.88623754369E+03  0.90904335779E+02 0.  0.
          2    1    3    3  502    0 -0.29674179906E+02 -0.67443743808E+01  0.26920158286E+02  0.40629280833E+02  0.00000000000E+00 0. -1.
         -1    1    3    3    0  502 -0.42091478030E+03  0.16911575274E+03  0.52949831393E+03  0.69723586723E+03  0.00000000000E+00 0.  1.
         11    1    5    5    0    0 -0.51957110122E+02  0.65224268964E+02 -0.18808537308E+03  0.20574220306E+03  0.00000000000E+00 0. -1.
        -11    1    5    5    0    0 -0.16108930193E+03  0.22788980252E+02 -0.27915174311E+03  0.32310183611E+03  0.00000000000E+00 0.  1.
          1    1    6    6  503    0  0.10581520891E+02 -0.11462774412E+02  0.37216346113E+00  0.15604559822E+02  0.00000000000E+00 0. -1.
         -1    1    6    6    0  503  0.65305385136E+03 -0.23892185316E+03 -0.52386907515E+03  0.87063298387E+03  0.00000000000E+00 0.  1.
<mgrwt>
<rscale>  0 0.21086843E+04</rscale>
<asrwt>0</asrwt>
<pdfrwt beam="1">  1        2 0.19902017E+00 0.21086843E+04</pdfrwt>
<pdfrwt beam="2">  1       -1 0.13220240E+00 0.21086843E+04</pdfrwt>
<totfact> 0.85060195E+00</totfact>
</mgrwt>
</event>
<event>
12    6  0.1569942E-007  0.1188405E+04  0.7818608E-02  0.9123067E-01
         -1   -1    0    0    0  501 -0.00000000000E+00  0.00000000000E+00  0.77810934740E+03  0.77810934740E+03  0.00000000000E+00 0.  1.
          2   -1    0    0  501    0  0.00000000000E+00 -0.00000000000E+00 -0.45376213660E+03  0.45376213660E+03  0.00000000000E+00 0. -1.
         24    2    1    2    0    0 -0.82540653883E+02 -0.22312199343E+03  0.12140917109E+03  0.27822140711E+03  0.77913933649E+02 0.  0.
        254    2    1    2    0    0  0.82540653883E+02  0.22312199343E+03  0.20293803972E+03  0.95365007689E+03  0.90092632201E+03 0.  0.
         23    2    4    4    0    0 -0.21294431199E+03 -0.18903941959E+03  0.30519899527E+03  0.42791952612E+03  0.94273601572E+02 0.  0.
         23    2    4    4    0    0  0.29548496588E+03  0.41216141302E+03 -0.10226095556E+03  0.52573055077E+03  0.93524935375E+02 0.  0.
          4    1    3    3  502    0 -0.60734966892E+02 -0.17096189566E+03  0.52065844246E+02  0.18875263736E+03  0.00000000000E+00 0. -1.
         -1    1    3    3    0  502 -0.21805686990E+02 -0.52160097766E+02  0.69343326844E+02  0.89468769757E+02  0.00000000000E+00 0.  1.
         11    1    5    5    0    0 -0.15590771626E+03 -0.18269803469E+03  0.26618936289E+03  0.35852833191E+03  0.00000000000E+00 0. -1.
        -11    1    5    5    0    0 -0.57036595733E+02 -0.63413848987E+01  0.39009632384E+02  0.69391194210E+02  0.00000000000E+00 0.  1.
          2    1    6    6  503    0  0.25828128983E+03  0.38352796905E+03 -0.67441517801E+02  0.46728073579E+03  0.00000000000E+00 0. -1.
         -2    1    6    6    0  503  0.37203676050E+02  0.28633443973E+02 -0.34819437756E+02  0.58449814979E+02  0.00000000000E+00 0.  1.
<mgrwt>
<rscale>  0 0.11884049E+04</rscale>
<asrwt>0</asrwt>
<pdfrwt beam="1">  1        2 0.69809560E-01 0.11884049E+04</pdfrwt>
<pdfrwt beam="2">  1       -1 0.11970913E+00 0.11884049E+04</pdfrwt>
<totfact> 0.48484909E+01</totfact>
</mgrwt>
</event>
<event>
12    6  0.3129456E-007  0.2430132E+04  0.7818608E-02  0.8428308E-01
         -1   -1    0    0    0  501 -0.00000000000E+00  0.00000000000E+00  0.70605969973E+03  0.70605969973E+03  0.00000000000E+00 0.  1.
          2   -1    0    0  501    0  0.00000000000E+00 -0.00000000000E+00 -0.20910200142E+04  0.20910200142E+04  0.00000000000E+00 0. -1.
         24    2    1    2    0    0  0.18810052237E+03 -0.67402993639E+02  0.58304970909E+03  0.62073608075E+03  0.73765497400E+02 0.  0.
        254    2    1    2    0    0 -0.18810052237E+03  0.67402993639E+02 -0.19680100235E+04  0.21763436331E+04  0.90745974387E+03 0.  0.
         23    2    4    4    0    0 -0.25829071677E+03 -0.33188686217E+03 -0.55066515256E+03  0.69906980372E+03  0.92755035329E+02 0.  0.
         23    2    4    4    0    0  0.70190194399E+02  0.39928985581E+03 -0.14173448710E+04  0.14772738294E+04  0.95459056654E+02 0.  0.
          2    1    3    3  502    0  0.19351292859E+02  0.11626956154E+02  0.33020117405E+02  0.39999834976E+02  0.00000000000E+00 0. -1.
         -1    1    3    3    0  502  0.16874922951E+03 -0.79029949793E+02  0.55002959169E+03  0.58073624577E+03  0.00000000000E+00 0.  1.
         11    1    5    5    0    0 -0.26332864539E+03 -0.31645193946E+03 -0.54213046878E+03  0.68072700156E+03  0.00000000000E+00 0.  1.
        -11    1    5    5    0    0  0.50379286208E+01 -0.15434922714E+02 -0.85346837796E+01  0.18342802163E+02  0.00000000000E+00 0. -1.
          4    1    6    6  503    0  0.32078639477E+02  0.30996099214E+02 -0.11602583495E+03  0.12430523583E+03  0.00000000000E+00 0. -1.
         -4    1    6    6    0  503  0.38111554922E+02  0.36829375660E+03 -0.13013190360E+04  0.13529685936E+04  0.00000000000E+00 0.  1.
<mgrwt>
<rscale>  0 0.24301317E+04</rscale>
<asrwt>0</asrwt>
<pdfrwt beam="1">  1        2 0.32169538E+00 0.24301317E+04</pdfrwt>
<pdfrwt beam="2">  1       -1 0.10862457E+00 0.24301317E+04</pdfrwt>
<totfact> 0.47694237E+00</totfact>
</mgrwt>
</event>
<event>
12    6  0.1569942E-007  0.1246024E+04  0.7818608E-02  0.9073499E-01
         -1   -1    0    0    0  501 -0.00000000000E+00  0.00000000000E+00  0.11811010721E+03  0.11811010721E+03  0.00000000000E+00 0.  1.
          2   -1    0    0  501    0  0.00000000000E+00 -0.00000000000E+00 -0.32862910833E+04  0.32862910833E+04  0.00000000000E+00 0. -1.
         24    2    1    2    0    0  0.65814514412E+02  0.20146768444E+03 -0.12532366720E+04  0.12735335056E+04  0.79778791555E+02 0.  0.
        254    2    1    2    0    0 -0.65814514412E+02 -0.20146768444E+03 -0.19149443041E+04  0.21308676849E+04  0.91031018052E+03 0.  0.
         23    2    4    4    0    0  0.12814697757E+03 -0.49838611766E+03 -0.14362976711E+04  0.15284094192E+04  0.90961433128E+02 0.  0.
         23    2    4    4    0    0 -0.19396149199E+03  0.29691843323E+03 -0.47864663293E+03  0.60245826576E+03  0.89842898445E+02 0.  0.
          4    1    3    3  502    0  0.52085542000E+02  0.14979825246E+03 -0.10969544059E+04  0.11083597741E+04  0.00000000000E+00 0. -1.
         -3    1    3    3    0  502  0.13728972412E+02  0.51669431979E+02 -0.15628226613E+03  0.16517373154E+03  0.00000000000E+00 0.  1.
         11    1    5    5    0    0  0.32281140250E+02 -0.44543952777E+02 -0.21686868407E+03  0.22373703733E+03  0.00000000000E+00 0.  1.
        -11    1    5    5    0    0  0.95865837325E+02 -0.45384216489E+03 -0.12194289871E+04  0.13046723818E+04  0.00000000000E+00 0. -1.
          4    1    6    6  503    0 -0.18273312287E+03  0.22069097517E+03 -0.40305687736E+03  0.49452072464E+03  0.00000000000E+00 0. -1.
         -4    1    6    6    0  503 -0.11228369118E+02  0.76227458055E+02 -0.75589755576E+02  0.10793754112E+03  0.00000000000E+00 0.  1.
<mgrwt>
<rscale>  0 0.12460244E+04</rscale>
<asrwt>0</asrwt>
<pdfrwt beam="1">  1        2 0.50558313E+00 0.12460244E+04</pdfrwt>
<pdfrwt beam="2">  1       -1 0.18170790E-01 0.12460244E+04</pdfrwt>
<totfact> 0.31165929E+01</totfact>
</mgrwt>
</event>
<event>
12    6  0.1569942E-007  0.1181951E+04  0.7818608E-02  0.9128803E-01
         -1   -1    0    0    0  501 -0.00000000000E+00  0.00000000000E+00  0.19011337200E+03  0.19011337200E+03  0.00000000000E+00 0.  1.
          2   -1    0    0  501    0  0.00000000000E+00 -0.00000000000E+00 -0.18370718257E+04  0.18370718257E+04  0.00000000000E+00 0. -1.
         24    2    1    2    0    0 -0.18268210444E+02  0.79570396119E+02  0.38157180068E+02  0.11976052237E+03  0.78876085573E+02 0.  0.
        254    2    1    2    0    0  0.18268210444E+02 -0.79570396119E+02 -0.16851156338E+04  0.19074246754E+04  0.88993764806E+03 0.  0.
         23    2    4    4    0    0  0.27416295737E+03 -0.87756790117E+02 -0.13076794827E+03  0.32930169682E+03  0.92047649773E+02 0.  0.
         23    2    4    4    0    0 -0.25589474692E+03  0.81863939974E+01 -0.15543476855E+04  0.15781229785E+04  0.94478935986E+02 0.  0.
          4    1    3    3  502    0 -0.13534704445E+02  0.24689639021E+02 -0.23792512855E+02  0.36862584926E+02  0.00000000000E+00 0. -1.
         -3    1    3    3    0  502 -0.47335059993E+01  0.54880757098E+02  0.61949692923E+02  0.82897937441E+02  0.00000000000E+00 0.  1.
         11    1    5    5    0    0  0.12345608199E+03 -0.67452532152E+02 -0.10387153244E+03  0.17487293537E+03  0.00000000000E+00 0.  1.
        -11    1    5    5    0    0  0.15070687537E+03 -0.20304257964E+02 -0.26896415829E+02  0.15442876144E+03  0.00000000000E+00 0. -1.
          3    1    6    6  503    0 -0.38435941456E+02 -0.30692617806E+02 -0.20543218027E+03  0.21123858330E+03  0.00000000000E+00 0. -1.
         -3    1    6    6    0  503 -0.21745880547E+03  0.38879011803E+02 -0.13489155053E+04  0.13668843952E+04  0.00000000000E+00 0.  1.
<mgrwt>
<rscale>  0 0.11819508E+04</rscale>
<asrwt>0</asrwt>
<pdfrwt beam="1">  1        2 0.28262643E+00 0.11819508E+04</pdfrwt>
<pdfrwt beam="2">  1       -1 0.29248212E-01 0.11819508E+04</pdfrwt>
<totfact> 0.98854202E+01</totfact>
</mgrwt>
</event>
<event>
12    6  0.1569942E-007  0.1622617E+04  0.7818608E-02  0.8806773E-01
          2   -1    0    0  501    0  0.00000000000E+00  0.00000000000E+00  0.10268375194E+04  0.10268375194E+04  0.00000000000E+00 0. -1.
         -1   -1    0    0    0  501 -0.00000000000E+00 -0.00000000000E+00 -0.64101844134E+03  0.64101844134E+03  0.00000000000E+00 0.  1.
         24    2    1    2    0    0  0.25213611184E+03  0.42160704996E+03  0.37281000846E+03  0.62179837180E+03  0.79503391722E+02 0.  0.
        254    2    1    2    0    0 -0.25213611184E+03 -0.42160704996E+03  0.13009069580E+02  0.10460575889E+04  0.92344037164E+03 0.  0.
         23    2    4    4    0    0  0.18955360695E+03  0.98476459795E+02 -0.21927259489E+03  0.31892995579E+03  0.89485545128E+02 0.  0.
         23    2    4    4    0    0 -0.44168971879E+03 -0.52008350975E+03  0.23228166447E+03  0.72712763313E+03  0.95828797388E+02 0.  0.
          4    1    3    3  502    0  0.18665207493E+03  0.26602931167E+03  0.28117139432E+03  0.42973008357E+03  0.00000000000E+00 0. -1.
         -3    1    3    3    0  502  0.65484036917E+02  0.15557773828E+03  0.91638614136E+02  0.19206828822E+03  0.00000000000E+00 0.  1.
         11    1    5    5    0    0 -0.53475726493E+01 -0.69942215079E+01 -0.30628648871E+01  0.93218457967E+01  0.00000000000E+00 0.  1.
        -11    1    5    5    0    0  0.19490117960E+03  0.10547068130E+03 -0.21620973000E+03  0.30960810999E+03  0.00000000000E+00 0. -1.
          1    1    6    6  503    0 -0.27350338934E+03 -0.37949064266E+03  0.13184706906E+03  0.48600504264E+03  0.00000000000E+00 0. -1.
         -1    1    6    6    0  503 -0.16818632946E+03 -0.14059286709E+03  0.10043459540E+03  0.24112259049E+03  0.00000000000E+00 0.  1.
<mgrwt>
<rscale>  0 0.16226174E+04</rscale>
<asrwt>0</asrwt>
<pdfrwt beam="1">  1        2 0.15797500E+00 0.16226174E+04</pdfrwt>
<pdfrwt beam="2">  1       -1 0.98618222E-01 0.16226174E+04</pdfrwt>
<totfact> 0.26021206E+01</totfact>
</mgrwt>
</event>
<event>
12    6  0.1569942E-007  0.1933839E+04  0.7818608E-02  0.8638194E-01
          2   -1    0    0  501    0  0.00000000000E+00  0.00000000000E+00  0.70504354892E+03  0.70504354892E+03  0.00000000000E+00 0. -1.
         -1   -1    0    0    0  501 -0.00000000000E+00 -0.00000000000E+00 -0.13260641479E+04  0.13260641479E+04  0.00000000000E+00 0.  1.
         24    2    1    2    0    0 -0.64270970818E+03  0.38901380843E+03 -0.34866735481E+03  0.83203947764E+03  0.79455999772E+02 0.  0.
        254    2    1    2    0    0  0.64270970818E+03 -0.38901380843E+03 -0.27235324413E+03  0.11990682191E+04  0.89396912275E+03 0.  0.
         23    2    4    4    0    0  0.68247913438E+03 -0.56532223711E+03 -0.40958511137E+02  0.89152790758E+03  0.88189623688E+02 0.  0.
         23    2    4    4    0    0 -0.39769426194E+02  0.17630842868E+03 -0.23139473299E+03  0.30754031157E+03  0.91494543563E+02 0.  0.
          4    1    3    3  502    0 -0.31088187339E+02  0.73935379055E+01 -0.30020611134E+02  0.43844918607E+02  0.00000000000E+00 0. -1.
         -3    1    3    3    0  502 -0.61162152084E+03  0.38162027053E+03 -0.31864674368E+03  0.78819455904E+03  0.00000000000E+00 0.  1.
         11    1    5    5    0    0  0.58799514010E+03 -0.51626798530E+03 -0.18338939810E+02  0.78269229850E+03  0.00000000000E+00 0. -1.
        -11    1    5    5    0    0  0.94483994281E+02 -0.49054251810E+02 -0.22619571327E+02  0.10883560908E+03  0.00000000000E+00 0.  1.
          2    1    6    6  503    0 -0.49423807665E+02  0.18127025876E+03 -0.22936718733E+03  0.29649776745E+03  0.00000000000E+00 0. -1.
         -2    1    6    6    0  503  0.96543814713E+01 -0.49618300794E+01 -0.20275456540E+01  0.11042544123E+02  0.00000000000E+00 0.  1.
<mgrwt>
<rscale>  0 0.19338386E+04</rscale>
<asrwt>0</asrwt>
<pdfrwt beam="1">  1        2 0.10846824E+00 0.19338386E+04</pdfrwt>
<pdfrwt beam="2">  1       -1 0.20400987E+00 0.19338386E+04</pdfrwt>
<totfact> 0.61140927E+00</totfact>
</mgrwt>
</event>
<event>
12    6  0.1569942E-007  0.1650983E+04  0.7818608E-02  0.8789825E-01
          2   -1    0    0  501    0  0.00000000000E+00  0.00000000000E+00  0.18072897566E+04  0.18072897566E+04  0.00000000000E+00 0. -1.
         -1   -1    0    0    0  501 -0.00000000000E+00 -0.00000000000E+00 -0.37704868686E+03  0.37704868686E+03  0.00000000000E+00 0.  1.
         24    2    1    2    0    0 -0.54199878891E+03 -0.23495385641E+03  0.48796350518E+03  0.77011695676E+03  0.77496728187E+02 0.  0.
        254    2    1    2    0    0  0.54199878891E+03  0.23495385641E+03  0.94227756460E+03  0.14142214867E+04  0.87359567477E+03 0.  0.
         23    2    4    4    0    0  0.32520927462E+02  0.14954072446E+03  0.86617108334E+03  0.88426689884E+03  0.90860133112E+02 0.  0.
         23    2    4    4    0    0  0.50947786145E+03  0.85413131952E+02  0.76106481260E+02  0.52995458789E+03  0.90534934224E+02 0.  0.
          4    1    3    3  502    0 -0.38578704957E+03 -0.19734361024E+03  0.38180578520E+03  0.57753944084E+03  0.00000000000E+00 0. -1.
         -1    1    3    3    0  502 -0.15621173934E+03 -0.37610246164E+02  0.10615771999E+03  0.19257751592E+03  0.00000000000E+00 0.  1.
         11    1    5    5    0    0  0.34256680562E+02  0.16408318537E+02  0.10778263830E+03  0.11427970160E+03  0.00000000000E+00 0.  1.
        -11    1    5    5    0    0 -0.17357531009E+01  0.13313240592E+03  0.75838844504E+03  0.76998719724E+03  0.00000000000E+00 0. -1.
          1    1    6    6  503    0  0.35336501543E+02  0.15103580558E+02 -0.16402527346E+02  0.41783123271E+02  0.00000000000E+00 0. -1.
         -1    1    6    6    0  503  0.47414135991E+03  0.70309551394E+02  0.92509008606E+02  0.48817146462E+03  0.00000000000E+00 0.  1.
<mgrwt>
<rscale>  0 0.16509830E+04</rscale>
<asrwt>0</asrwt>
<pdfrwt beam="1">  1        2 0.27804457E+00 0.16509830E+04</pdfrwt>
<pdfrwt beam="2">  1       -1 0.58007491E-01 0.16509830E+04</pdfrwt>
<totfact> 0.28004559E+01</totfact>
</mgrwt>
</event>
<event>
12    6  0.1569942E-007  0.1726473E+04  0.7818608E-02  0.8746408E-01
          2   -1    0    0  501    0  0.00000000000E+00  0.00000000000E+00  0.29858133593E+03  0.29858133593E+03  0.00000000000E+00 0. -1.
         -3   -1    0    0    0  501 -0.00000000000E+00 -0.00000000000E+00 -0.24957259821E+04  0.24957259821E+04  0.00000000000E+00 0.  1.
         24    2    1    2    0    0  0.37796530348E+02 -0.41492694656E+03 -0.15798495085E+04  0.16362492251E+04  0.88284249044E+02 0.  0.
        254    2    1    2    0    0 -0.37796530348E+02  0.41492694656E+03 -0.61729513773E+03  0.11580580929E+04  0.88682146504E+03 0.  0.
         23    2    4    4    0    0 -0.12677317486E+03 -0.62841985218E+02 -0.64169883728E+03  0.66318232104E+03  0.89514469255E+02 0.  0.
         23    2    4    4    0    0  0.88976644508E+02  0.47776893178E+03  0.24403699545E+02  0.49487577190E+03  0.90147066585E+02 0.  0.
          4    1    3    3  502    0  0.24007356178E+02 -0.44998433088E+02 -0.12415068768E+03  0.13421849866E+03  0.00000000000E+00 0. -1.
         -3    1    3    3    0  502  0.13789174170E+02 -0.36992851348E+03 -0.14556988208E+04  0.15020307265E+04  0.00000000000E+00 0.  1.
         11    1    5    5    0    0 -0.17554433512E+02 -0.18533614331E+02 -0.26503126432E+02  0.36797672572E+02  0.00000000000E+00 0.  1.
        -11    1    5    5    0    0 -0.10921874134E+03 -0.44308370887E+02 -0.61519571085E+03  0.62638464847E+03  0.00000000000E+00 0. -1.
          3    1    6    6  503    0  0.14494372686E+02  0.27287959254E+03  0.40616538602E+02  0.27626628834E+03  0.00000000000E+00 0. -1.
         -3    1    6    6    0  503  0.74482271822E+02  0.20488933924E+03 -0.16212839057E+02  0.21860948356E+03  0.00000000000E+00 0.  1.
<mgrwt>
<rscale>  0 0.17264729E+04</rscale>
<asrwt>0</asrwt>
<pdfrwt beam="1">  1        2 0.45935590E-01 0.17264729E+04</pdfrwt>
<pdfrwt beam="2">  1       -3 0.38395785E+00 0.17264729E+04</pdfrwt>
<totfact> 0.84613063E-01</totfact>
</mgrwt>
</event>
<event>
12    6  0.2037954E-007  0.1893188E+04  0.7818608E-02  0.8658255E-01
          2   -1    0    0  501    0  0.00000000000E+00  0.00000000000E+00  0.20066967804E+04  0.20066967804E+04  0.00000000000E+00 0. -1.
         -1   -1    0    0    0  501 -0.00000000000E+00 -0.00000000000E+00 -0.44652489372E+03  0.44652489372E+03  0.00000000000E+00 0.  1.
         24    2    1    2    0    0 -0.53096623713E+03  0.12339414222E+03  0.12230984504E+04  0.13414124567E+04  0.79159965549E+02 0.  0.
        254    2    1    2    0    0  0.53096623713E+03 -0.12339414222E+03  0.33707343627E+03  0.11118092175E+04  0.90848774088E+03 0.  0.
         23    2    4    4    0    0 -0.15839548736E+03  0.18494402087E+03  0.22116598677E+03  0.34149605543E+03  0.91715543373E+02 0.  0.
         23    2    4    4    0    0  0.68936172449E+03 -0.30833816309E+03  0.11590744950E+03  0.77031316205E+03  0.98264035975E+02 0.  0.
          2    1    3    3  502    0 -0.48678405425E+03  0.12546226852E+03  0.11611545398E+04  0.12652981315E+04  0.00000000000E+00 0. -1.
         -1    1    3    3    0  502 -0.44182182874E+02 -0.20681263045E+01  0.61943910633E+02  0.76114325159E+02  0.00000000000E+00 0.  1.
         11    1    5    5    0    0  0.65738057037E+01  0.40025736146E+02  0.37142700004E+02  0.54998678521E+02  0.00000000000E+00 0. -1.
        -11    1    5    5    0    0 -0.16496929307E+03  0.14491828473E+03  0.18402328677E+03  0.28649737691E+03  0.00000000000E+00 0.  1.
          1    1    6    6  503    0  0.50840675285E+01 -0.41897703006E+01 -0.89859440506E+01  0.11142221874E+02  0.00000000000E+00 0. -1.
         -1    1    6    6    0  503  0.68427765696E+03 -0.30414839279E+03  0.12489339355E+03  0.75917094017E+03  0.00000000000E+00 0.  1.
<mgrwt>
<rscale>  0 0.18931879E+04</rscale>
<asrwt>0</asrwt>
<pdfrwt beam="1">  1        2 0.30872258E+00 0.18931879E+04</pdfrwt>
<pdfrwt beam="2">  1       -1 0.68696138E-01 0.18931879E+04</pdfrwt>
<totfact> 0.15156931E+01</totfact>
</mgrwt>
</event>
<event>
12    6  0.1569942E-007  0.1496887E+04  0.7818608E-02  0.8886525E-01
          2   -1    0    0  501    0  0.00000000000E+00  0.00000000000E+00  0.12309360002E+04  0.12309360002E+04  0.00000000000E+00 0. -1.
         -1   -1    0    0    0  501 -0.00000000000E+00 -0.00000000000E+00 -0.45507473961E+03  0.45507473961E+03  0.00000000000E+00 0.  1.
         24    2    1    2    0    0  0.14117268637E+03 -0.29507401344E+03  0.63744464102E+03  0.72079411819E+03  0.78804122150E+02 0.  0.
        254    2    1    2    0    0 -0.14117268637E+03  0.29507401344E+03  0.13841661958E+03  0.96521662163E+03  0.89748847643E+03 0.  0.
         23    2    4    4    0    0  0.29822334608E+01  0.59247509467E+03  0.16479146231E+03  0.62186257508E+03  0.92310371623E+02 0.  0.
         23    2    4    4    0    0 -0.14415491984E+03 -0.29740108123E+03 -0.26374842722E+02  0.34335404656E+03  0.89265474443E+02 0.  0.
          2    1    3    3  502    0  0.37405491200E+02 -0.16934369961E+03  0.33234051875E+03  0.37486888345E+03  0.00000000000E+00 0. -1.
         -1    1    3    3    0  502  0.10376719517E+03 -0.12573031382E+03  0.30510412227E+03  0.34592523475E+03  0.00000000000E+00 0.  1.
         11    1    5    5    0    0  0.15847453371E+02  0.15630108008E+02  0.10440750284E+02  0.24585591739E+02  0.00000000000E+00 0. -1.
        -11    1    5    5    0    0 -0.12865219910E+02  0.57684498666E+03  0.15435071202E+03  0.59727698334E+03  0.00000000000E+00 0.  1.
          1    1    6    6  503    0 -0.22454409627E+02 -0.20578136349E+02 -0.27385224667E+02  0.40958646674E+02  0.00000000000E+00 0. -1.
         -1    1    6    6    0  503 -0.12170051021E+03 -0.27682294488E+03  0.10103819445E+01  0.30239539988E+03  0.00000000000E+00 0.  1.
<mgrwt>
<rscale>  0 0.14968873E+04</rscale>
<asrwt>0</asrwt>
<pdfrwt beam="1">  1        2 0.18937477E+00 0.14968873E+04</pdfrwt>
<pdfrwt beam="2">  1       -1 0.70011499E-01 0.14968873E+04</pdfrwt>
<totfact> 0.41258853E+01</totfact>
</mgrwt>
</event>
<event>
12    6  0.1569942E-007  0.1987825E+04  0.7818608E-02  0.8612334E-01
          2   -1    0    0  501    0  0.00000000000E+00  0.00000000000E+00  0.15840598550E+04  0.15840598550E+04  0.00000000000E+00 0. -1.
         -1   -1    0    0    0  501 -0.00000000000E+00 -0.00000000000E+00 -0.62362687670E+03  0.62362687670E+03  0.00000000000E+00 0.  1.
         24    2    1    2    0    0  0.12430099078E+02 -0.39390094100E+01  0.12491662360E+04  0.12518000704E+04  0.80106853909E+02 0.  0.
        254    2    1    2    0    0 -0.12430099078E+02  0.39390094100E+01 -0.28873325764E+03  0.95588666132E+03  0.91114345307E+03 0.  0.
         23    2    4    4    0    0  0.23928289899E+03  0.37175088823E+03 -0.19137600316E+03  0.49025378942E+03  0.90933903479E+02 0.  0.
         23    2    4    4    0    0 -0.25171299807E+03 -0.36781187882E+03 -0.97357254481E+02  0.46563287191E+03  0.93222984301E+02 0.  0.
          4    1    3    3  502    0  0.11524277863E+02  0.34042731036E+02  0.35207313336E+03  0.35390282247E+03  0.00000000000E+00 0. -1.
         -3    1    3    3    0  502  0.90582121470E+00 -0.37981740446E+02  0.89709310260E+03  0.89789724794E+03  0.00000000000E+00 0.  1.
         11    1    5    5    0    0  0.27114143744E+02  0.25004068876E+02 -0.45025057941E+02  0.58203402769E+02  0.00000000000E+00 0.  1.
        -11    1    5    5    0    0  0.21216875525E+03  0.34674681936E+03 -0.14635094522E+03  0.43205038665E+03  0.00000000000E+00 0. -1.
          2    1    6    6  503    0 -0.11066859595E+03 -0.23079269045E+03 -0.29672422070E+02  0.25766888972E+03  0.00000000000E+00 0. -1.
         -2    1    6    6    0  503 -0.14104440212E+03 -0.13701918837E+03 -0.67684832412E+02  0.20796398219E+03  0.00000000000E+00 0.  1.
<mgrwt>
<rscale>  0 0.19878252E+04</rscale>
<asrwt>0</asrwt>
<pdfrwt beam="1">  1        2 0.24370151E+00 0.19878252E+04</pdfrwt>
<pdfrwt beam="2">  1       -1 0.95942597E-01 0.19878252E+04</pdfrwt>
<totfact> 0.12629233E+01</totfact>
</mgrwt>
</event>
<event>
12    6  0.1569942E-007  0.2414016E+04  0.7818608E-02  0.8434275E-01
          2   -1    0    0  501    0  0.00000000000E+00  0.00000000000E+00  0.10265538809E+04  0.10265538809E+04  0.00000000000E+00 0. -1.
         -1   -1    0    0    0  501 -0.00000000000E+00 -0.00000000000E+00 -0.14191833376E+04  0.14191833376E+04  0.00000000000E+00 0.  1.
         24    2    1    2    0    0 -0.36808631606E+02 -0.60983973275E+03  0.70204605025E+03  0.93407259262E+03  0.79772029005E+02 0.  0.
        254    2    1    2    0    0  0.36808631606E+02  0.60983973275E+03 -0.10946755070E+04  0.15116646258E+04  0.84472249902E+03 0.  0.
         23    2    4    4    0    0 -0.36452603028E+03  0.47430836039E+03 -0.68706881479E+03  0.91634837676E+03  0.98909776327E+02 0.  0.
         23    2    4    4    0    0  0.40133466188E+03  0.13553137236E+03 -0.40760669218E+03  0.59531624904E+03  0.93914626865E+02 0.  0.
          2    1    3    3  502    0 -0.36029684042E+02 -0.34170751689E+03  0.33841301505E+03  0.48227122451E+03  0.00000000000E+00 0. -1.
         -1    1    3    3    0  502 -0.77894756368E+00 -0.26813221586E+03  0.36363303520E+03  0.45180136811E+03  0.00000000000E+00 0.  1.
         11    1    5    5    0    0 -0.25678405741E+03  0.33499522253E+03 -0.41272289789E+03  0.59033892104E+03  0.00000000000E+00 0.  1.
        -11    1    5    5    0    0 -0.10774197287E+03  0.13931313786E+03 -0.27434591690E+03  0.32600945572E+03  0.00000000000E+00 0. -1.
          2    1    6    6  503    0  0.31973859697E+02  0.34620175382E+02 -0.22388680706E+02  0.52174105370E+02  0.00000000000E+00 0. -1.
         -2    1    6    6    0  503  0.36936080219E+03  0.10091119698E+03 -0.38521801148E+03  0.54314214367E+03  0.00000000000E+00 0.  1.
<mgrwt>
<rscale>  0 0.24140159E+04</rscale>
<asrwt>0</asrwt>
<pdfrwt beam="1">  1        2 0.15793137E+00 0.24140159E+04</pdfrwt>
<pdfrwt beam="2">  1       -1 0.21833590E+00 0.24140159E+04</pdfrwt>
<totfact> 0.28008568E+00</totfact>
</mgrwt>
</event>
<event>
12    6  0.1569942E-007  0.1509193E+04  0.7818608E-02  0.8878363E-01
          2   -1    0    0  501    0  0.00000000000E+00  0.00000000000E+00  0.10650290304E+04  0.10650290304E+04  0.00000000000E+00 0. -1.
         -1   -1    0    0    0  501 -0.00000000000E+00 -0.00000000000E+00 -0.53464809120E+03  0.53464809120E+03  0.00000000000E+00 0.  1.
         24    2    1    2    0    0 -0.43049144806E+02  0.44437372157E+03 -0.27013394986E+02  0.45464034522E+03  0.81528441054E+02 0.  0.
        254    2    1    2    0    0  0.43049144806E+02 -0.44437372157E+03  0.55739433423E+03  0.11450367764E+04  0.89504164275E+03 0.  0.
         23    2    4    4    0    0  0.35688933515E+03 -0.24408496085E+03  0.61519633653E+03  0.75766424736E+03  0.92957590268E+02 0.  0.
         23    2    4    4    0    0 -0.31384019034E+03 -0.20028876071E+03 -0.57802002298E+02  0.38737252908E+03  0.90028618077E+02 0.  0.
          2    1    3    3  502    0 -0.25329070612E+02  0.80144441576E+02 -0.32024388402E+02  0.89945843629E+02  0.00000000000E+00 0. -1.
         -1    1    3    3    0  502 -0.17720074194E+02  0.36422927999E+03  0.50109934156E+01  0.36469450159E+03  0.00000000000E+00 0.  1.
         11    1    5    5    0    0  0.65052892402E+02 -0.52678452579E+02  0.64438132140E+02  0.10563697766E+03  0.00000000000E+00 0. -1.
        -11    1    5    5    0    0  0.29183644274E+03 -0.19140650827E+03  0.55075820439E+03  0.65202726969E+03  0.00000000000E+00 0.  1.
          3    1    6    6  503    0 -0.24485960420E+02 -0.52641346827E+02 -0.51409103159E+01  0.58284668759E+02  0.00000000000E+00 0. -1.
         -3    1    6    6    0  503 -0.28935422992E+03 -0.14764741389E+03 -0.52661091982E+02  0.32908786032E+03  0.00000000000E+00 0.  1.
<mgrwt>
<rscale>  0 0.15091928E+04</rscale>
<asrwt>0</asrwt>
<pdfrwt beam="1">  1        2 0.16385062E+00 0.15091928E+04</pdfrwt>
<pdfrwt beam="2">  1       -1 0.82253552E-01 0.15091928E+04</pdfrwt>
<totfact> 0.37085936E+01</totfact>
</mgrwt>
</event>
<event>
12    6  0.1569942E-007  0.3227417E+04  0.7818608E-02  0.8181614E-01
          2   -1    0    0  501    0  0.00000000000E+00  0.00000000000E+00  0.43642865951E+04  0.43642865951E+04  0.00000000000E+00 0. -1.
         -1   -1    0    0    0  501 -0.00000000000E+00 -0.00000000000E+00 -0.59667376518E+03  0.59667376518E+03  0.00000000000E+00 0.  1.
         24    2    1    2    0    0  0.81423774649E+03  0.33902589830E+03 -0.98888497887E+02  0.89119037995E+03  0.80744602151E+02 0.  0.
        254    2    1    2    0    0 -0.81423774649E+03 -0.33902589830E+03  0.38665013278E+04  0.40697699803E+04  0.91393298842E+03 0.  0.
         23    2    4    4    0    0  0.82303181555E+02 -0.32159727174E+03  0.14551849942E+04  0.14954592628E+04  0.92932344218E+02 0.  0.
         23    2    4    4    0    0 -0.89654092805E+03 -0.17428626558E+02  0.24113163337E+04  0.25743107175E+04  0.92411128887E+02 0.  0.
          4    1    3    3  502    0  0.24570200654E+03  0.13856849041E+03 -0.14303419196E+02  0.28244519884E+03  0.00000000000E+00 0. -1.
         -3    1    3    3    0  502  0.56853573996E+03  0.20045740789E+03 -0.84585078691E+02  0.60874518111E+03  0.00000000000E+00 0.  1.
         11    1    5    5    0    0  0.84611696228E+02 -0.14343425341E+03  0.69586473019E+03  0.71551397394E+03  0.00000000000E+00 0.  1.
        -11    1    5    5    0    0 -0.23085146728E+01 -0.17816301834E+03  0.75932026398E+03  0.77994528887E+03  0.00000000000E+00 0. -1.
          2    1    6    6  503    0 -0.44962792647E+03 -0.53065783905E+02  0.12488989728E+04  0.13284313659E+04  0.00000000000E+00 0. -1.
         -2    1    6    6    0  503 -0.44691300158E+03  0.35637157347E+02  0.11624173609E+04  0.12458793517E+04  0.00000000000E+00 0.  1.
<mgrwt>
<rscale>  0 0.32274171E+04</rscale>
<asrwt>0</asrwt>
<pdfrwt beam="1">  1        2 0.67142869E+00 0.32274171E+04</pdfrwt>
<pdfrwt beam="2">  1       -1 0.91795967E-01 0.32274171E+04</pdfrwt>
<totfact> 0.18229472E-01</totfact>
</mgrwt>
</event>
<event>
12    6  0.1569942E-007  0.1253629E+04  0.7818608E-02  0.9067169E-01
          2   -1    0    0  501    0  0.00000000000E+00  0.00000000000E+00  0.13634825512E+04  0.13634825512E+04  0.00000000000E+00 0. -1.
         -1   -1    0    0    0  501 -0.00000000000E+00 -0.00000000000E+00 -0.28815632892E+03  0.28815632892E+03  0.00000000000E+00 0.  1.
         24    2    1    2    0    0 -0.31268768589E+03  0.23770589275E+02  0.31924111029E+03  0.45453696031E+03  0.79688970138E+02 0.  0.
        254    2    1    2    0    0  0.31268768589E+03 -0.23770589275E+02  0.75608511199E+03  0.11971019198E+04  0.87352714900E+03 0.  0.
         23    2    4    4    0    0  0.36628326199E+03 -0.16561128650E+03 -0.98967817544E+01  0.41100587863E+03  0.85072673341E+02 0.  0.
         23    2    4    4    0    0 -0.53595576093E+02  0.14184069722E+03  0.76598189374E+03  0.78609604120E+03  0.90705321108E+02 0.  0.
          4    1    3    3  502    0 -0.20911066172E+03 -0.76265038196E+01  0.25016556389E+03  0.32614144441E+03  0.00000000000E+00 0. -1.
         -3    1    3    3    0  502 -0.10357702418E+03  0.31397093094E+02  0.69075546395E+02  0.12839551590E+03  0.00000000000E+00 0.  1.
         11    1    5    5    0    0  0.36370853516E+03 -0.17302044140E+03 -0.11785937884E+02  0.40293781161E+03  0.00000000000E+00 0.  1.
        -11    1    5    5    0    0  0.25747268243E+01  0.74091548992E+01  0.18891561300E+01  0.80680670190E+01  0.00000000000E+00 0. -1.
          1    1    6    6  503    0  0.17508565571E+02  0.59083833487E+02  0.18605692608E+03  0.19599650250E+03  0.00000000000E+00 0. -1.
         -1    1    6    6    0  503 -0.71104141665E+02  0.82756863737E+02  0.57992496766E+03  0.59009953870E+03  0.00000000000E+00 0.  1.
<mgrwt>
<rscale>  0 0.12536285E+04</rscale>
<asrwt>0</asrwt>
<pdfrwt beam="1">  1        2 0.20976654E+00 0.12536285E+04</pdfrwt>
<pdfrwt beam="2">  1       -1 0.44331744E-01 0.12536285E+04</pdfrwt>
<totfact> 0.85676474E+01</totfact>
</mgrwt>
</event>
<event>
12    6  0.1569942E-007  0.1321055E+04  0.7818608E-02  0.9013033E-01
          2   -1    0    0  501    0  0.00000000000E+00  0.00000000000E+00  0.32389364775E+03  0.32389364775E+03  0.00000000000E+00 0. -1.
         -1   -1    0    0    0  501 -0.00000000000E+00 -0.00000000000E+00 -0.13470371981E+04  0.13470371981E+04  0.00000000000E+00 0.  1.
         24    2    1    2    0    0 -0.29991712346E+03 -0.16717145368E+03 -0.38695199444E+03  0.52348299621E+03  0.80037650244E+02 0.  0.
        254    2    1    2    0    0  0.29991712346E+03  0.16717145368E+03 -0.63619155587E+03  0.11474478496E+04  0.89106694243E+03 0.  0.
         23    2    4    4    0    0  0.46548036033E+03 -0.63944321432E+01 -0.73300894730E+03  0.87316357271E+03  0.91649622339E+02 0.  0.
         23    2    4    4    0    0 -0.16556323686E+03  0.17356588582E+03  0.96817391433E+02  0.27428427688E+03  0.91224750685E+02 0.  0.
          2    1    3    3  502    0 -0.41993162072E+02 -0.80097405403E+01 -0.87684532857E+02  0.97550801671E+02  0.00000000000E+00 0. -1.
         -1    1    3    3    0  502 -0.25792396139E+03 -0.15916171314E+03 -0.29926746158E+03  0.42593219454E+03  0.00000000000E+00 0.  1.
         11    1    5    5    0    0  0.16787152919E+03 -0.14457403063E+02 -0.19042506922E+03  0.25426673751E+03  0.00000000000E+00 0. -1.
        -11    1    5    5    0    0  0.29760883113E+03  0.80629709201E+01 -0.54258387808E+03  0.61889683520E+03  0.00000000000E+00 0.  1.
          4    1    6    6  503    0 -0.13807668189E+03  0.12179918492E+03  0.31971173067E+02  0.18687527241E+03  0.00000000000E+00 0. -1.
         -4    1    6    6    0  503 -0.27486554969E+02  0.51766700894E+02  0.64846218366E+02  0.87409004467E+02  0.00000000000E+00 0.  1.
<mgrwt>
<rscale>  0 0.13210553E+04</rscale>
<asrwt>0</asrwt>
<pdfrwt beam="1">  1        2 0.49829792E-01 0.13210553E+04</pdfrwt>
<pdfrwt beam="2">  1       -1 0.20723649E+00 0.13210553E+04</pdfrwt>
<totfact> 0.15167685E+01</totfact>
</mgrwt>
</event>
<event>
12    6  0.1569942E-007  0.1369761E+04  0.7818608E-02  0.8976003E-01
         -1   -1    0    0    0  501 -0.00000000000E+00  0.00000000000E+00  0.73936158232E+03  0.73936158232E+03  0.00000000000E+00 0.  1.
          2   -1    0    0  501    0  0.00000000000E+00 -0.00000000000E+00 -0.63441378562E+03  0.63441378562E+03  0.00000000000E+00 0. -1.
         24    2    1    2    0    0  0.76186959283E+02 -0.37618453399E+03  0.59636351065E+02  0.39666672972E+03  0.80428500674E+02 0.  0.
        254    2    1    2    0    0 -0.76186959283E+02  0.37618453399E+03  0.45311445633E+02  0.97710863823E+03  0.89742348276E+03 0.  0.
         23    2    4    4    0    0  0.10501000967E+03 -0.20909850228E+03 -0.19018123830E+03  0.31445329911E+03  0.89233895650E+02 0.  0.
         23    2    4    4    0    0 -0.18119696895E+03  0.58528303626E+03  0.23549268394E+03  0.66265533912E+03  0.90921505590E+02 0.  0.
          4    1    3    3  502    0  0.55158412682E+02 -0.32963425300E+03  0.76527361621E+02  0.34286677926E+03  0.00000000000E+00 0. -1.
         -3    1    3    3    0  502  0.21028546601E+02 -0.46550280986E+02 -0.16891010555E+02  0.53799950461E+02  0.00000000000E+00 0.  1.
         11    1    5    5    0    0  0.11981104608E+03 -0.19832321541E+03 -0.18070377196E+03  0.29383777452E+03  0.00000000000E+00 0. -1.
        -11    1    5    5    0    0 -0.14801036410E+02 -0.10775286862E+02 -0.94774663455E+01  0.20615524590E+02  0.00000000000E+00 0.  1.
          1    1    6    6  503    0 -0.18762446124E+03  0.57389292761E+03  0.22056828549E+03  0.64281132487E+03  0.00000000000E+00 0. -1.
         -1    1    6    6    0  503  0.64274922952E+01  0.11390108651E+02  0.14924398450E+02  0.19844014246E+02  0.00000000000E+00 0.  1.
<mgrwt>
<rscale>  0 0.13697608E+04</rscale>
<asrwt>0</asrwt>
<pdfrwt beam="1">  1        2 0.97602121E-01 0.13697608E+04</pdfrwt>
<pdfrwt beam="2">  1       -1 0.11374794E+00 0.13697608E+04</pdfrwt>
<totfact> 0.36400621E+01</totfact>
</mgrwt>
</event>
<event>
12    6  0.1569942E-007  0.2192746E+04  0.7818608E-02  0.8521453E-01
         -1   -1    0    0    0  501 -0.00000000000E+00  0.00000000000E+00  0.63246329341E+03  0.63246329341E+03  0.00000000000E+00 0.  1.
          2   -1    0    0  501    0  0.00000000000E+00 -0.00000000000E+00 -0.19005593825E+04  0.19005593825E+04  0.00000000000E+00 0. -1.
         24    2    1    2    0    0 -0.10476628437E+03 -0.62430008798E+03  0.22352906569E+03  0.67602985696E+03  0.79527040066E+02 0.  0.
        254    2    1    2    0    0  0.10476628437E+03  0.62430008798E+03 -0.14916251548E+04  0.18569928190E+04  0.90705576074E+03 0.  0.
         23    2    4    4    0    0  0.46817304494E+03  0.20319429102E+03 -0.52375853523E+03  0.73695897566E+03  0.91168024382E+02 0.  0.
         23    2    4    4    0    0 -0.36340676057E+03  0.42110579696E+03 -0.96786661959E+03  0.11200338433E+04  0.91189094795E+02 0.  0.
          4    1    3    3  502    0 -0.43519858764E+02 -0.18455146034E+03  0.31171084159E+02  0.19215841409E+03  0.00000000000E+00 0. -1.
         -3    1    3    3    0  502 -0.61246425605E+02 -0.43974862764E+03  0.19235798153E+03  0.48387144287E+03  0.00000000000E+00 0.  1.
         11    1    5    5    0    0  0.24543388988E+03  0.13878859514E+03 -0.33583083883E+03  0.43850019470E+03  0.00000000000E+00 0. -1.
        -11    1    5    5    0    0  0.22273915506E+03  0.64405695877E+02 -0.18792769640E+03  0.29845878096E+03  0.00000000000E+00 0.  1.
          4    1    6    6  503    0 -0.33330941315E+03  0.33553393329E+03 -0.81135525101E+03  0.93913552197E+03  0.00000000000E+00 0. -1.
         -4    1    6    6    0  503 -0.30097347425E+02  0.85571863672E+02 -0.15651136858E+03  0.18089832136E+03  0.00000000000E+00 0.  1.
<mgrwt>
<rscale>  0 0.21927463E+04</rscale>
<asrwt>0</asrwt>
<pdfrwt beam="1">  1        2 0.29239375E+00 0.21927463E+04</pdfrwt>
<pdfrwt beam="2">  1       -1 0.97302046E-01 0.21927463E+04</pdfrwt>
<totfact> 0.80136646E+00</totfact>
</mgrwt>
</event>
<event>
12    6  0.1569942E-007  0.1744451E+04  0.7818608E-02  0.8736410E-01
         -1   -1    0    0    0  501 -0.00000000000E+00  0.00000000000E+00  0.48621942919E+03  0.48621942919E+03  0.00000000000E+00 0.  1.
          2   -1    0    0  501    0  0.00000000000E+00 -0.00000000000E+00 -0.15646798659E+04  0.15646798659E+04  0.00000000000E+00 0. -1.
         24    2    1    2    0    0 -0.55702083882E+03 -0.30276669873E+03 -0.28428827497E+03  0.69939505082E+03  0.79960772155E+02 0.  0.
        254    2    1    2    0    0  0.55702083882E+03  0.30276669873E+03 -0.79417216179E+03  0.13515042443E+04  0.89101874902E+03 0.  0.
         23    2    4    4    0    0  0.57155031353E+03  0.24956449481E+02 -0.87213427436E+02  0.58612861977E+03  0.92994578985E+02 0.  0.
         23    2    4    4    0    0 -0.14529474706E+02  0.27781024925E+03 -0.70695873435E+03  0.76537562455E+03  0.92841555074E+02 0.  0.
          4    1    3    3  502    0 -0.26213266230E+03 -0.13321302036E+03 -0.17468714940E+03  0.34201584993E+03  0.00000000000E+00 0. -1.
         -3    1    3    3    0  502 -0.29488817652E+03 -0.16955367837E+03 -0.10960112556E+03  0.35737920089E+03  0.00000000000E+00 0.  1.
         11    1    5    5    0    0  0.18665707562E+03  0.51477579792E+02 -0.22407049534E+02  0.19491762612E+03  0.00000000000E+00 0.  1.
        -11    1    5    5    0    0  0.38489323791E+03 -0.26521130311E+02 -0.64806377903E+02  0.39121099365E+03  0.00000000000E+00 0. -1.
          3    1    6    6  503    0 -0.46901519187E+02  0.23461537456E+03 -0.58145614765E+03  0.62875701039E+03  0.00000000000E+00 0. -1.
         -3    1    6    6    0  503  0.32372044481E+02  0.43194874691E+02 -0.12550258671E+03  0.13661861415E+03  0.00000000000E+00 0.  1.
<mgrwt>
<rscale>  0 0.17444515E+04</rscale>
<asrwt>0</asrwt>
<pdfrwt beam="1">  1        2 0.24071998E+00 0.17444515E+04</pdfrwt>
<pdfrwt beam="2">  1       -1 0.74802989E-01 0.17444515E+04</pdfrwt>
<totfact> 0.22670342E+01</totfact>
</mgrwt>
</event>
<event>
12    6  0.1569942E-007  0.2027384E+04  0.7818608E-02  0.8593924E-01
          2   -1    0    0  501    0  0.00000000000E+00  0.00000000000E+00  0.33557743980E+04  0.33557743980E+04  0.00000000000E+00 0. -1.
         -1   -1    0    0    0  501 -0.00000000000E+00 -0.00000000000E+00 -0.30620986288E+03  0.30620986288E+03  0.00000000000E+00 0.  1.
         24    2    1    2    0    0  0.54114525605E+03 -0.40132013009E+03  0.20489078417E+04  0.21583407479E+04  0.80718061773E+02 0.  0.
        254    2    1    2    0    0 -0.54114525605E+03  0.40132013009E+03  0.10006566934E+04  0.15036435129E+04  0.89762684949E+03 0.  0.
         23    2    4    4    0    0 -0.56784817963E+03  0.39511583920E+03  0.24184547967E+03  0.73847816216E+03  0.91064144727E+02 0.  0.
         23    2    4    4    0    0  0.26702923581E+02  0.62042908834E+01  0.75881121376E+03  0.76516535077E+03  0.94509346315E+02 0.  0.
          4    1    3    3  502    0  0.53150847364E+03 -0.39215379792E+03  0.19566877801E+04  0.20651665617E+04  0.00000000000E+00 0. -1.
         -3    1    3    3    0  502  0.96367824065E+01 -0.91663321678E+01  0.92220061580E+02  0.93174186223E+02  0.00000000000E+00 0.  1.
         11    1    5    5    0    0 -0.28546484615E+03  0.17936437359E+03  0.16295850947E+03  0.37445591558E+03  0.00000000000E+00 0. -1.
        -11    1    5    5    0    0 -0.28238333348E+03  0.21575146562E+03  0.78886970195E+02  0.36402224659E+03  0.00000000000E+00 0.  1.
          3    1    6    6  503    0  0.14272386548E+02 -0.12980616992E+02  0.28035320705E+02  0.34031994392E+02  0.00000000000E+00 0. -1.
         -3    1    6    6    0  503  0.12430537034E+02  0.19184907875E+02  0.73077589305E+03  0.73113335638E+03  0.00000000000E+00 0.  1.
<mgrwt>
<rscale>  0 0.20273838E+04</rscale>
<asrwt>0</asrwt>
<pdfrwt beam="1">  1        2 0.51627296E+00 0.20273838E+04</pdfrwt>
<pdfrwt beam="2">  1       -1 0.47109212E-01 0.20273838E+04</pdfrwt>
<totfact> 0.48651377E+00</totfact>
</mgrwt>
</event>
<event>
12    6  0.1569942E-007  0.2062645E+04  0.7818608E-02  0.8577879E-01
         -1   -1    0    0    0  501 -0.00000000000E+00  0.00000000000E+00  0.11916714574E+04  0.11916714574E+04  0.00000000000E+00 0.  1.
          2   -1    0    0  501    0  0.00000000000E+00 -0.00000000000E+00 -0.89255019057E+03  0.89255019057E+03  0.00000000000E+00 0. -1.
         24    2    1    2    0    0  0.64994320585E+03  0.20773376948E+03  0.60574624495E+03  0.91594747283E+03  0.80322910233E+02 0.  0.
        254    2    1    2    0    0 -0.64994320585E+03 -0.20773376948E+03 -0.30662497807E+03  0.11682741752E+04  0.89736624709E+03 0.  0.
         23    2    4    4    0    0  0.34295017639E+02  0.23762492348E+03  0.66999494207E+02  0.26547218451E+03  0.91349855130E+02 0.  0.
         23    2    4    4    0    0 -0.68423822349E+03 -0.44535869296E+03 -0.37362447228E+03  0.90280199067E+03  0.94498022180E+02 0.  0.
          2    1    3    3  502    0  0.42094597795E+02 -0.10207221149E+01  0.56930447475E+02  0.70810118535E+02  0.00000000000E+00 0. -1.
         -1    1    3    3    0  502  0.60784860805E+03  0.20875449159E+03  0.54881579747E+03  0.84513735430E+03  0.00000000000E+00 0.  1.
         11    1    5    5    0    0  0.15525350267E+02  0.23590493409E+03  0.69594980427E+02  0.24644600977E+03  0.00000000000E+00 0. -1.
        -11    1    5    5    0    0  0.18769667372E+02  0.17199893895E+01 -0.25954862194E+01  0.19026174746E+02  0.00000000000E+00 0.  1.
          2    1    6    6  503    0 -0.13111021132E+03 -0.10133378646E+03 -0.11623039294E+03  0.20240535574E+03  0.00000000000E+00 0.  1.
         -2    1    6    6    0  503 -0.55312801217E+03 -0.34402490650E+03 -0.25739407934E+03  0.70039663493E+03  0.00000000000E+00 0. -1.
<mgrwt>
<rscale>  0 0.20626455E+04</rscale>
<asrwt>0</asrwt>
<pdfrwt beam="1">  1        2 0.13731541E+00 0.20626455E+04</pdfrwt>
<pdfrwt beam="2">  1       -1 0.18333407E+00 0.20626455E+04</pdfrwt>
<totfact> 0.61622552E+00</totfact>
</mgrwt>
</event>
<event>
12    6  0.1569942E-007  0.1160501E+04  0.7818608E-02  0.9148150E-01
          2   -1    0    0  501    0  0.00000000000E+00  0.00000000000E+00  0.30479717145E+04  0.30479717145E+04  0.00000000000E+00 0. -1.
         -1   -1    0    0    0  501 -0.00000000000E+00 -0.00000000000E+00 -0.11046387051E+03  0.11046387051E+03  0.00000000000E+00 0.  1.
         24    2    1    2    0    0 -0.14699246816E+03 -0.80307290802E+02  0.21505733417E+03  0.28405888677E+03  0.79898357428E+02 0.  0.
        254    2    1    2    0    0  0.14699246816E+03  0.80307290802E+02  0.27224505098E+04  0.28743766983E+04  0.90677923352E+03 0.  0.
         23    2    4    4    0    0  0.48214192596E+03  0.52881109437E+02  0.21323027818E+04  0.21889271090E+04  0.97105544458E+02 0.  0.
         23    2    4    4    0    0 -0.33514945780E+03  0.27426181365E+02  0.59014772808E+03  0.68544958929E+03  0.92138178974E+02 0.  0.
          2    1    3    3  502    0 -0.22350763093E+00 -0.23257835419E+02  0.54088384979E+02  0.58877247334E+02  0.00000000000E+00 0. -1.
         -1    1    3    3    0  502 -0.14676896053E+03 -0.57049455383E+02  0.16096894920E+03  0.22518163944E+03  0.00000000000E+00 0.  1.
         11    1    5    5    0    0  0.20554795247E+03  0.46347283637E+02  0.74068045510E+03  0.77006854762E+03  0.00000000000E+00 0.  1.
        -11    1    5    5    0    0  0.27659397349E+03  0.65338258006E+01  0.13916223267E+04  0.14188585613E+04  0.00000000000E+00 0. -1.
          1    1    6    6  503    0 -0.19495140240E+03 -0.82360550588E+01  0.41272476793E+03  0.45652559180E+03  0.00000000000E+00 0. -1.
         -1    1    6    6    0  503 -0.14019805540E+03  0.35662236424E+02  0.17742296014E+03  0.22892399749E+03  0.00000000000E+00 0.  1.
<mgrwt>
<rscale>  0 0.11605012E+04</rscale>
<asrwt>0</asrwt>
<pdfrwt beam="1">  1        2 0.46891866E+00 0.11605012E+04</pdfrwt>
<pdfrwt beam="2">  1       -1 0.16994444E-01 0.11605012E+04</pdfrwt>
<totfact> 0.49911665E+01</totfact>
</mgrwt>
</event>
<event>
12    6  0.1569942E-007  0.1617006E+04  0.7818608E-02  0.8810168E-01
          2   -1    0    0  501    0  0.00000000000E+00  0.00000000000E+00  0.98426887246E+03  0.98426887246E+03  0.00000000000E+00 0. -1.
         -1   -1    0    0    0  501 -0.00000000000E+00 -0.00000000000E+00 -0.66412439546E+03  0.66412439546E+03  0.00000000000E+00 0.  1.
         24    2    1    2    0    0 -0.28285127651E+03 -0.39984396028E+03  0.37447653027E+03  0.62173981840E+03  0.80297527160E+02 0.  0.
        254    2    1    2    0    0  0.28285127651E+03  0.39984396028E+03 -0.54332053278E+02  0.10266534495E+04  0.90065825716E+03 0.  0.
         23    2    4    4    0    0  0.53854055204E+03  0.39580180399E+03 -0.21958660846E+03  0.70936102275E+03  0.91048271547E+02 0.  0.
         23    2    4    4    0    0 -0.25568927554E+03  0.40421562905E+01  0.16525455518E+03  0.31729242676E+03  0.89286457091E+02 0.  0.
          2    1    3    3  502    0 -0.25549253065E+03 -0.31291697706E+03  0.32182317142E+03  0.51649164700E+03  0.00000000000E+00 0. -1.
         -1    1    3    3    0  502 -0.27358745855E+02 -0.86926983219E+02  0.52653358853E+02  0.10524817141E+03  0.00000000000E+00 0.  1.
         11    1    5    5    0    0  0.52111078043E+03  0.35700380209E+03 -0.21091345592E+03  0.66595243530E+03  0.00000000000E+00 0. -1.
        -11    1    5    5    0    0  0.17429771609E+02  0.38798001905E+02 -0.86731525362E+01  0.43408587458E+02  0.00000000000E+00 0.  1.
          3    1    6    6  503    0 -0.21531483300E+03 -0.14344958812E+02  0.98666581906E+02  0.23727905415E+03  0.00000000000E+00 0. -1.
         -3    1    6    6    0  503 -0.40374442536E+02  0.18387115102E+02  0.66587973271E+02  0.80013372609E+02  0.00000000000E+00 0.  1.
<mgrwt>
<rscale>  0 0.16170058E+04</rscale>
<asrwt>0</asrwt>
<pdfrwt beam="1">  1        2 0.15142598E+00 0.16170058E+04</pdfrwt>
<pdfrwt beam="2">  1       -1 0.10217298E+00 0.16170058E+04</pdfrwt>
<totfact> 0.25562555E+01</totfact>
</mgrwt>
</event>
<event>
12    6  0.1569942E-007  0.2041875E+04  0.7818608E-02  0.8587289E-01
         -1   -1    0    0    0  501 -0.00000000000E+00  0.00000000000E+00  0.40239361101E+03  0.40239361101E+03  0.00000000000E+00 0.  1.
          2   -1    0    0  501    0  0.00000000000E+00 -0.00000000000E+00 -0.25902838923E+04  0.25902838923E+04  0.00000000000E+00 0. -1.
         24    2    1    2    0    0  0.36372933417E+03  0.67812461885E+03 -0.44463430970E+03  0.89251442081E+03  0.82038373696E+02 0.  0.
        254    2    1    2    0    0 -0.36372933417E+03 -0.67812461885E+03 -0.17432559716E+04  0.21001630825E+04  0.88294482466E+03 0.  0.
         23    2    4    4    0    0 -0.79492846037E+01 -0.10296406393E+03 -0.12513616153E+04  0.12589229445E+04  0.91193740471E+02 0.  0.
         23    2    4    4    0    0 -0.35578004956E+03 -0.57516055492E+03 -0.49189435625E+03  0.84124013799E+03  0.91300626742E+02 0.  0.
          4    1    3    3  502    0  0.52437435102E+02  0.13044914857E+03 -0.11432259985E+03  0.18120795181E+03  0.00000000000E+00 0. -1.
         -3    1    3    3    0  502  0.31129189907E+03  0.54767547028E+03 -0.33031170985E+03  0.71130646900E+03  0.00000000000E+00 0.  1.
         11    1    5    5    0    0 -0.14359942686E+02 -0.10707019860E+03 -0.77420296878E+03  0.78170357058E+03  0.00000000000E+00 0.  1.
        -11    1    5    5    0    0  0.64106580826E+01  0.41061346747E+01 -0.47715864654E+03  0.47721937392E+03  0.00000000000E+00 0. -1.
          1    1    6    6  503    0 -0.97099164587E+02 -0.10622959165E+03 -0.13753461837E+03  0.19906969924E+03  0.00000000000E+00 0. -1.
         -1    1    6    6    0  503 -0.25868088498E+03 -0.46893096327E+03 -0.35435973788E+03  0.64217043874E+03  0.00000000000E+00 0.  1.
<mgrwt>
<rscale>  0 0.20418753E+04</rscale>
<asrwt>0</asrwt>
<pdfrwt beam="1">  1        2 0.39850521E+00 0.20418753E+04</pdfrwt>
<pdfrwt beam="2">  1       -1 0.61906709E-01 0.20418753E+04</pdfrwt>
<totfact> 0.86061977E+00</totfact>
</mgrwt>
</event>
<event>
12    6  0.1569942E-007  0.1381572E+04  0.7818608E-02  0.8967267E-01
          2   -1    0    0  501    0  0.00000000000E+00  0.00000000000E+00  0.28391015505E+03  0.28391015505E+03  0.00000000000E+00 0. -1.
         -1   -1    0    0    0  501 -0.00000000000E+00 -0.00000000000E+00 -0.16807606520E+04  0.16807606520E+04  0.00000000000E+00 0.  1.
         24    2    1    2    0    0 -0.26732458822E+03 -0.83886428097E+02 -0.80269086677E+03  0.85428503725E+03  0.83611775429E+02 0.  0.
        254    2    1    2    0    0  0.26732458822E+03  0.83886428097E+02 -0.59415963020E+03  0.11103857698E+04  0.89522707923E+03 0.  0.
         23    2    4    4    0    0  0.42244602176E+03 -0.29274613449E+03 -0.29544195371E+03  0.59820122609E+03  0.79986363407E+02 0.  0.
         23    2    4    4    0    0 -0.15512143354E+03  0.37663256258E+03 -0.29871767648E+03  0.51218454373E+03  0.84770338286E+02 0.  0.
          4    1    3    3  502    0 -0.60748735115E+02 -0.11099669632E+02 -0.93581861655E+02  0.11212125719E+03  0.00000000000E+00 0. -1.
         -3    1    3    3    0  502 -0.20657585310E+03 -0.72786758465E+02 -0.70910900512E+03  0.74216378006E+03  0.00000000000E+00 0.  1.
         11    1    5    5    0    0  0.13718023370E+03 -0.12906858483E+03 -0.13846059309E+03  0.23377008352E+03  0.00000000000E+00 0. -1.
        -11    1    5    5    0    0  0.28526578806E+03 -0.16367754965E+03 -0.15698136062E+03  0.36443114258E+03  0.00000000000E+00 0.  1.
          4    1    6    6  503    0 -0.46741870086E+02  0.17382381082E+03 -0.88299269287E+02  0.20049010097E+03  0.00000000000E+00 0. -1.
         -4    1    6    6    0  503 -0.10837956345E+03  0.20280875176E+03 -0.21041840720E+03  0.31169444277E+03  0.00000000000E+00 0.  1.
<mgrwt>
<rscale>  0 0.13815716E+04</rscale>
<asrwt>0</asrwt>
<pdfrwt beam="1">  1        2 0.43678484E-01 0.13815716E+04</pdfrwt>
<pdfrwt beam="2">  1       -1 0.25857857E+00 0.13815716E+04</pdfrwt>
<totfact> 0.80016515E+00</totfact>
</mgrwt>
</event>
<event>
12    6  0.1569942E-007  0.1348118E+04  0.7818608E-02  0.8992254E-01
         -1   -1    0    0    0  501 -0.00000000000E+00  0.00000000000E+00  0.22838376041E+03  0.22838376041E+03  0.00000000000E+00 0.  1.
          2   -1    0    0  501    0  0.00000000000E+00 -0.00000000000E+00 -0.19894380928E+04  0.19894380928E+04  0.00000000000E+00 0. -1.
         24    2    1    2    0    0 -0.13584245751E+03 -0.19432382177E+03 -0.30077024227E+02  0.25198173902E+03  0.79845152914E+02 0.  0.
        254    2    1    2    0    0  0.13584245751E+03  0.19432382177E+03 -0.17309773082E+04  0.19658401142E+04  0.90112706775E+03 0.  0.
         23    2    4    4    0    0  0.12667577774E+03 -0.18458140527E+02 -0.17259303308E+04  0.17330314881E+04  0.90416681970E+02 0.  0.
         23    2    4    4    0    0  0.91666797770E+01  0.21278196229E+03 -0.50469773740E+01  0.23280862610E+03  0.93883933179E+02 0.  0.
          2    1    3    3  502    0  0.74106585599E+01 -0.53383104891E+01  0.75777076488E+01  0.11867479614E+02  0.00000000000E+00 0. -1.
         -1    1    3    3    0  502 -0.14325311607E+03 -0.18898551128E+03 -0.37654731876E+02  0.24011425941E+03  0.00000000000E+00 0.  1.
         11    1    5    5    0    0 -0.23542420924E+01 -0.21210327127E+02 -0.47077404268E+03  0.47125748768E+03  0.00000000000E+00 0. -1.
        -11    1    5    5    0    0  0.12903001983E+03  0.27521865994E+01 -0.12551562881E+04  0.12617740004E+04  0.00000000000E+00 0.  1.
          1    1    6    6  503    0 -0.13566310037E+01  0.36357828576E+02 -0.38457542878E+02  0.52940671989E+02  0.00000000000E+00 0. -1.
         -1    1    6    6    0  503  0.10523310781E+02  0.17642413372E+03  0.33410565504E+02  0.17986795411E+03  0.00000000000E+00 0.  1.
<mgrwt>
<rscale>  0 0.13481177E+04</rscale>
<asrwt>0</asrwt>
<pdfrwt beam="1">  1        2 0.30606740E+00 0.13481177E+04</pdfrwt>
<pdfrwt beam="2">  1       -1 0.35135962E-01 0.13481177E+04</pdfrwt>
<totfact> 0.58115547E+01</totfact>
</mgrwt>
</event>
<event>
12    6  0.1569942E-007  0.1282490E+04  0.7818608E-02  0.9043567E-01
         -1   -1    0    0    0  501 -0.00000000000E+00  0.00000000000E+00  0.26329109830E+03  0.26329109830E+03  0.00000000000E+00 0.  1.
          2   -1    0    0  501    0  0.00000000000E+00 -0.00000000000E+00 -0.15617519679E+04  0.15617519679E+04  0.00000000000E+00 0. -1.
         24    2    1    2    0    0 -0.31463623809E+03  0.44931821195E+01 -0.38931700529E+03  0.50724215157E+03  0.81918976571E+02 0.  0.
        254    2    1    2    0    0  0.31463623809E+03 -0.44931821195E+01 -0.90914386432E+03  0.13178009146E+04  0.90057788868E+03 0.  0.
         23    2    4    4    0    0  0.28730052319E+03 -0.28745427110E+03 -0.64796655736E+02  0.42224982339E+03  0.94470938173E+02 0.  0.
         23    2    4    4    0    0  0.27335714901E+02  0.28296108898E+03 -0.84434720859E+03  0.89555109125E+03  0.90968836399E+02 0.  0.
          4    1    3    3  502    0 -0.25322516898E+03  0.35009429323E+02 -0.29049008398E+03  0.38695366032E+03  0.00000000000E+00 0. -1.
         -3    1    3    3    0  502 -0.61411069116E+02 -0.30516247203E+02 -0.98826921305E+02  0.12028849125E+03  0.00000000000E+00 0.  1.
         11    1    5    5    0    0  0.24774209775E+03 -0.26492353547E+03 -0.84848160082E+02  0.37250481461E+03  0.00000000000E+00 0.  1.
        -11    1    5    5    0    0  0.39558425445E+02 -0.22530735635E+02  0.20051504346E+02  0.49745008779E+02  0.00000000000E+00 0. -1.
          2    1    6    6  503    0  0.47403347569E+02  0.74606550540E+02 -0.28091442741E+03  0.29449300548E+03  0.00000000000E+00 0. -1.
         -2    1    6    6    0  503 -0.20067632668E+02  0.20835453844E+03 -0.56343278117E+03  0.60105808577E+03  0.00000000000E+00 0.  1.
<mgrwt>
<rscale>  0 0.12824904E+04</rscale>
<asrwt>0</asrwt>
<pdfrwt beam="1">  1        2 0.24026953E+00 0.12824904E+04</pdfrwt>
<pdfrwt beam="2">  1       -1 0.40506324E-01 0.12824904E+04</pdfrwt>
<totfact> 0.77951389E+01</totfact>
</mgrwt>
</event>
<event>
12    6  0.1569942E-007  0.1447332E+04  0.7818608E-02  0.8920252E-01
         -1   -1    0    0    0  501 -0.00000000000E+00  0.00000000000E+00  0.16305132346E+03  0.16305132346E+03  0.00000000000E+00 0.  1.
          2   -1    0    0  501    0  0.00000000000E+00 -0.00000000000E+00 -0.32118275172E+04  0.32118275172E+04  0.00000000000E+00 0. -1.
         24    2    1    2    0    0 -0.25491671957E+03  0.19373821640E+03 -0.16132679397E+04  0.16467616507E+04  0.81691237287E+02 0.  0.
        254    2    1    2    0    0  0.25491671957E+03 -0.19373821640E+03 -0.14355082540E+04  0.17281171900E+04  0.90729710939E+03 0.  0.
         23    2    4    4    0    0  0.58912877446E+02  0.30737950498E+03 -0.92678395373E+03  0.98221279864E+03  0.88660011947E+02 0.  0.
         23    2    4    4    0    0  0.19600384212E+03 -0.50111772138E+03 -0.50872430029E+03  0.74590439139E+03  0.89646363985E+02 0.  0.
          2    1    3    3  502    0 -0.21247072063E+03  0.19082597653E+03 -0.14616110396E+04  0.14892498754E+04  0.00000000000E+00 0. -1.
         -1    1    3    3    0  502 -0.42445998940E+02  0.29122398707E+01 -0.15165690014E+03  0.15751177520E+03  0.00000000000E+00 0.  1.
         11    1    5    5    0    0  0.28546391091E+02  0.20650998841E+02 -0.13647893230E+03  0.14095339357E+03  0.00000000000E+00 0. -1.
        -11    1    5    5    0    0  0.30366486354E+02  0.28672850614E+03 -0.79030502142E+03  0.84125940507E+03  0.00000000000E+00 0.  1.
          2    1    6    6  503    0  0.30567104888E+02 -0.19343872911E+03 -0.17043199916E+03  0.25961501528E+03  0.00000000000E+00 0. -1.
         -2    1    6    6    0  503  0.16543673723E+03 -0.30767899228E+03 -0.33829230112E+03  0.48628937611E+03  0.00000000000E+00 0.  1.
<mgrwt>
<rscale>  0 0.14473323E+04</rscale>
<asrwt>0</asrwt>
<pdfrwt beam="1">  1        2 0.49412728E+00 0.14473323E+04</pdfrwt>
<pdfrwt beam="2">  1       -1 0.25084821E-01 0.14473323E+04</pdfrwt>
<totfact> 0.19813865E+01</totfact>
</mgrwt>
</event>
<event>
12    6  0.1569942E-007  0.1826577E+04  0.7818608E-02  0.8692293E-01
          2   -1    0    0  501    0  0.00000000000E+00  0.00000000000E+00  0.94995426382E+03  0.94995426382E+03  0.00000000000E+00 0. -1.
         -1   -1    0    0    0  501 -0.00000000000E+00 -0.00000000000E+00 -0.87803783873E+03  0.87803783873E+03  0.00000000000E+00 0.  1.
         24    2    1    2    0    0  0.86685408546E+01 -0.22693225244E+03 -0.62295883786E+03  0.66726634847E+03  0.74788203122E+02 0.  0.
        254    2    1    2    0    0 -0.86685408546E+01  0.22693225244E+03  0.69487526296E+03  0.11607257541E+04  0.90158707530E+03 0.  0.
         23    2    4    4    0    0  0.26208331974E+03  0.46929287217E+03  0.32812076319E+03  0.63659796974E+03  0.93114303353E+02 0.  0.
         23    2    4    4    0    0 -0.27075186060E+03 -0.24236061973E+03  0.36675449977E+03  0.52412778435E+03  0.90309640764E+02 0.  0.
          2    1    3    3  502    0 -0.26154411867E+02 -0.33391992966E+02 -0.11474456923E+03  0.12233312970E+03  0.00000000000E+00 0. -1.
         -1    1    3    3    0  502  0.34822952721E+02 -0.19354025947E+03 -0.50821426863E+03  0.54493321877E+03  0.00000000000E+00 0.  1.
         11    1    5    5    0    0  0.11255274134E+03  0.28981512426E+03  0.20645069497E+03  0.37320612976E+03  0.00000000000E+00 0.  1.
        -11    1    5    5    0    0  0.14953057840E+03  0.17947774790E+03  0.12167006821E+03  0.26339183998E+03  0.00000000000E+00 0. -1.
          4    1    6    6  503    0 -0.36942942543E+02 -0.68257933324E+01  0.14804967946E+02  0.40380187398E+02  0.00000000000E+00 0. -1.
         -4    1    6    6    0  503 -0.23380891806E+03 -0.23553482639E+03  0.35194953182E+03  0.48374759695E+03  0.00000000000E+00 0.  1.
<mgrwt>
<rscale>  0 0.18265769E+04</rscale>
<asrwt>0</asrwt>
<pdfrwt beam="1">  1        2 0.14614681E+00 0.18265769E+04</pdfrwt>
<pdfrwt beam="2">  1       -1 0.13508275E+00 0.18265769E+04</pdfrwt>
<totfact> 0.13424274E+01</totfact>
</mgrwt>
</event>
<event>
12    6  0.1569942E-007  0.1588596E+04  0.7818608E-02  0.8827585E-01
          2   -1    0    0  501    0  0.00000000000E+00  0.00000000000E+00  0.98596886423E+03  0.98596886423E+03  0.00000000000E+00 0. -1.
         -1   -1    0    0    0  501 -0.00000000000E+00 -0.00000000000E+00 -0.63988778494E+03  0.63988778494E+03  0.00000000000E+00 0.  1.
         24    2    1    2    0    0 -0.20532638670E+03  0.48844031937E+03  0.60694026305E+02  0.53886066180E+03  0.77163316047E+02 0.  0.
        254    2    1    2    0    0  0.20532638670E+03 -0.48844031937E+03  0.28538705298E+03  0.10869959874E+04  0.90519701496E+03 0.  0.
         23    2    4    4    0    0  0.68954641267E+02 -0.64485193079E+03  0.46081089631E+03  0.80049364603E+03  0.88626406735E+02 0.  0.
         23    2    4    4    0    0  0.13637174543E+03  0.15641161142E+03 -0.17542384332E+03  0.28650234135E+03  0.90819720601E+02 0.  0.
          4    1    3    3  502    0 -0.30515179802E+02  0.46706139718E+02  0.28643580494E+02  0.62714387418E+02  0.00000000000E+00 0. -1.
         -3    1    3    3    0  502 -0.17481120690E+03  0.44173417965E+03  0.32050445811E+02  0.47614627438E+03  0.00000000000E+00 0.  1.
         11    1    5    5    0    0  0.42901597141E+02 -0.47982810020E+03  0.29379857396E+03  0.56426337365E+03  0.00000000000E+00 0. -1.
        -11    1    5    5    0    0  0.26053044126E+02 -0.16502383059E+03  0.16701232235E+03  0.23623027238E+03  0.00000000000E+00 0.  1.
          2    1    6    6  503    0  0.11412529458E+03  0.15640755162E+03 -0.12255962273E+03  0.22914791335E+03  0.00000000000E+00 0. -1.
         -2    1    6    6    0  503  0.22246450851E+02  0.40597986523E-02 -0.52864220593E+02  0.57354427997E+02  0.00000000000E+00 0.  1.
<mgrwt>
<rscale>  0 0.15885962E+04</rscale>
<asrwt>0</asrwt>
<pdfrwt beam="1">  1        2 0.15168752E+00 0.15885962E+04</pdfrwt>
<pdfrwt beam="2">  1       -1 0.98444274E-01 0.15885962E+04</pdfrwt>
<totfact> 0.27829140E+01</totfact>
</mgrwt>
</event>
<event>
12    6  0.1569942E-007  0.1543041E+04  0.7818608E-02  0.8856325E-01
         -1   -1    0    0    0  501 -0.00000000000E+00  0.00000000000E+00  0.25540650302E+03  0.25540650302E+03  0.00000000000E+00 0.  1.
          2   -1    0    0  501    0  0.00000000000E+00 -0.00000000000E+00 -0.23305744030E+04  0.23305744030E+04  0.00000000000E+00 0. -1.
         24    2    1    2    0    0  0.24141067309E+03  0.35755361237E+03 -0.25778666031E+03  0.50890542196E+03  0.80044159464E+02 0.  0.
        254    2    1    2    0    0 -0.24141067309E+03 -0.35755361237E+03 -0.18173812396E+04  0.20770754840E+04  0.90842957756E+03 0.  0.
         23    2    4    4    0    0 -0.75148496714E+02 -0.15332136459E+03 -0.17860844995E+04  0.17965213105E+04  0.90753745220E+02 0.  0.
         23    2    4    4    0    0 -0.16626217638E+03 -0.20423224778E+03 -0.31296740110E+02  0.28055417352E+03  0.91527241916E+02 0.  0.
          2    1    3    3  502    0  0.10109789919E+03  0.11848980523E+03 -0.53979897665E+02  0.16484674251E+03  0.00000000000E+00 0. -1.
         -1    1    3    3    0  502  0.14031277390E+03  0.23906380715E+03 -0.20380676265E+03  0.34405867946E+03  0.00000000000E+00 0.  1.
         11    1    5    5    0    0 -0.36754349720E+02 -0.13687570901E+03 -0.10885179247E+04  0.10977053859E+04  0.00000000000E+00 0.  1.
        -11    1    5    5    0    0 -0.38394146994E+02 -0.16445655583E+02 -0.69756657484E+03  0.69881592458E+03  0.00000000000E+00 0. -1.
          3    1    6    6  503    0 -0.16970726551E+03 -0.15645108270E+03 -0.28427026720E+02  0.23256309487E+03  0.00000000000E+00 0. -1.
         -3    1    6    6    0  503  0.34450891373E+01 -0.47781165080E+02 -0.28697133895E+01  0.47991078655E+02  0.00000000000E+00 0.  1.
<mgrwt>
<rscale>  0 0.15430410E+04</rscale>
<asrwt>0</asrwt>
<pdfrwt beam="1">  1        2 0.35854992E+00 0.15430410E+04</pdfrwt>
<pdfrwt beam="2">  1       -1 0.39293307E-01 0.15430410E+04</pdfrwt>
<totfact> 0.30110536E+01</totfact>
</mgrwt>
</event>
<event>
12    6  0.1569942E-007  0.3604181E+04  0.7818608E-02  0.8089535E-01
         -1   -1    0    0    0  501 -0.00000000000E+00  0.00000000000E+00  0.29849635551E+04  0.29849635551E+04  0.00000000000E+00 0.  1.
          2   -1    0    0  501    0  0.00000000000E+00 -0.00000000000E+00 -0.10879630135E+04  0.10879630135E+04  0.00000000000E+00 0. -1.
         24    2    1    2    0    0  0.13439896829E+04  0.10243077766E+04  0.87818860812E+03  0.19060375486E+04  0.79051985335E+02 0.  0.
        254    2    1    2    0    0 -0.13439896829E+04 -0.10243077766E+04  0.10188119335E+04  0.21668890200E+04  0.89549739281E+03 0.  0.
         23    2    4    4    0    0 -0.49652484415E+03 -0.71233084109E+03  0.10636089119E+03  0.87961194350E+03  0.91936847680E+02 0.  0.
         23    2    4    4    0    0 -0.84746483870E+03 -0.31197693554E+03  0.91245104227E+03  0.12872770765E+04  0.94810896410E+02 0.  0.
          4    1    3    3  502    0  0.22666783264E+03  0.15296310958E+03  0.17013029831E+03  0.32205641998E+03  0.00000000000E+00 0. -1.
         -3    1    3    3    0  502  0.11173218502E+04  0.87134466705E+03  0.70805830981E+03  0.15839811286E+04  0.00000000000E+00 0.  1.
         11    1    5    5    0    0 -0.73163241930E+02 -0.16641030181E+03  0.34655743445E+02  0.18505747505E+03  0.00000000000E+00 0. -1.
        -11    1    5    5    0    0 -0.42336160222E+03 -0.54592053928E+03  0.71705147743E+02  0.69455446845E+03  0.00000000000E+00 0.  1.
          2    1    6    6  503    0 -0.10914069053E+03 -0.81306172073E+01  0.10170880482E+03  0.14940708900E+03  0.00000000000E+00 0. -1.
         -2    1    6    6    0  503 -0.73832414817E+03 -0.30384631833E+03  0.81074223745E+03  0.11378699875E+04  0.00000000000E+00 0.  1.
<mgrwt>
<rscale>  0 0.36041809E+04</rscale>
<asrwt>0</asrwt>
<pdfrwt beam="1">  1        2 0.16737893E+00 0.36041809E+04</pdfrwt>
<pdfrwt beam="2">  1       -1 0.45922516E+00 0.36041809E+04</pdfrwt>
<totfact> 0.57487383E-02</totfact>
</mgrwt>
</event>
<event>
12    6  0.1569942E-007  0.1404329E+04  0.7818608E-02  0.8950691E-01
         -1   -1    0    0    0  501 -0.00000000000E+00  0.00000000000E+00  0.25228657115E+03  0.25228657115E+03  0.00000000000E+00 0.  1.
          2   -1    0    0  501    0  0.00000000000E+00 -0.00000000000E+00 -0.19542660082E+04  0.19542660082E+04  0.00000000000E+00 0. -1.
         24    2    1    2    0    0 -0.68093082853E+02  0.31237361659E+03 -0.90122965042E+03  0.95949394616E+03  0.78738844549E+02 0.  0.
        254    2    1    2    0    0  0.68093082853E+02 -0.31237361659E+03 -0.80074978663E+03  0.12470586332E+04  0.90096674166E+03 0.  0.
         23    2    4    4    0    0  0.26950853430E+03 -0.34192426908E+03 -0.31424042126E+02  0.44579699003E+03  0.90556225904E+02 0.  0.
         23    2    4    4    0    0 -0.20141545144E+03  0.29550652488E+02 -0.76932574450E+03  0.80126164317E+03  0.93363239658E+02 0.  0.
          4    1    3    3  502    0 -0.27438081901E+02  0.18771757840E+03 -0.63490495919E+03  0.66264247131E+03  0.00000000000E+00 0. -1.
         -3    1    3    3    0  502 -0.40655000952E+02  0.12465603820E+03 -0.26632469123E+03  0.29685147485E+03  0.00000000000E+00 0.  1.
         11    1    5    5    0    0  0.27814690238E+02 -0.58894045427E+02  0.24190908315E+02  0.69479246001E+02  0.00000000000E+00 0.  1.
        -11    1    5    5    0    0  0.24169384406E+03 -0.28303022365E+03 -0.55614950442E+02  0.37631774403E+03  0.00000000000E+00 0. -1.
          4    1    6    6  503    0 -0.26258398718E+02  0.68283826780E+01 -0.27488522246E+03  0.27622095475E+03  0.00000000000E+00 0. -1.
         -4    1    6    6    0  503 -0.17515705273E+03  0.22722269810E+02 -0.49444052204E+03  0.52504068842E+03  0.00000000000E+00 0.  1.
<mgrwt>
<rscale>  0 0.14043291E+04</rscale>
<asrwt>0</asrwt>
<pdfrwt beam="1">  1        2 0.30065630E+00 0.14043291E+04</pdfrwt>
<pdfrwt beam="2">  1       -1 0.38813320E-01 0.14043291E+04</pdfrwt>
<totfact> 0.50556396E+01</totfact>
</mgrwt>
</event>
<event>
12    6  0.1569942E-007  0.1268851E+04  0.7818608E-02  0.9054638E-01
         -1   -1    0    0    0  501 -0.00000000000E+00  0.00000000000E+00  0.35565742143E+03  0.35565742143E+03  0.00000000000E+00 0.  1.
          2   -1    0    0  501    0  0.00000000000E+00 -0.00000000000E+00 -0.11316949491E+04  0.11316949491E+04  0.00000000000E+00 0. -1.
         24    2    1    2    0    0  0.28527959833E+03  0.66999377403E+02 -0.31000092027E+03  0.43317536732E+03  0.75279230130E+02 0.  0.
        254    2    1    2    0    0 -0.28527959833E+03 -0.66999377403E+02 -0.46603660745E+03  0.10541770033E+04  0.89901372010E+03 0.  0.
         23    2    4    4    0    0 -0.39838251436E+03  0.40590016263E+02  0.13081784936E+03  0.43063222319E+03  0.89300754590E+02 0.  0.
         23    2    4    4    0    0  0.11310291603E+03 -0.10758939367E+03 -0.59685445681E+03  0.62354478007E+03  0.90582023008E+02 0.  0.
          4    1    3    3  502    0  0.28048844097E+03  0.52060797531E+02 -0.30245064373E+03  0.41576493845E+03  0.00000000000E+00 0. -1.
         -3    1    3    3    0  502  0.47911573653E+01  0.14938579872E+02 -0.75502765387E+01  0.17410428866E+02  0.00000000000E+00 0.  1.
         11    1    5    5    0    0 -0.48564673341E+02  0.35957948147E+02  0.20037582802E+02  0.63663225305E+02  0.00000000000E+00 0. -1.
        -11    1    5    5    0    0 -0.34981784102E+03  0.46320681159E+01  0.11078026655E+03  0.36696899789E+03  0.00000000000E+00 0.  1.
          4    1    6    6  503    0 -0.11605660430E+02 -0.35343871590E+01 -0.14202560914E+02  0.18678757537E+02  0.00000000000E+00 0. -1.
         -4    1    6    6    0  503  0.12470857646E+03 -0.10405500651E+03 -0.58265189590E+03  0.60486602253E+03  0.00000000000E+00 0.  1.
<mgrwt>
<rscale>  0 0.12688510E+04</rscale>
<asrwt>0</asrwt>
<pdfrwt beam="1">  1        2 0.17410691E+00 0.12688510E+04</pdfrwt>
<pdfrwt beam="2">  1       -1 0.54716527E-01 0.12688510E+04</pdfrwt>
<totfact> 0.78727907E+01</totfact>
</mgrwt>
</event>
<event>
12    6  0.1569942E-007  0.2125593E+04  0.7818608E-02  0.8550053E-01
         -1   -1    0    0    0  501 -0.00000000000E+00  0.00000000000E+00  0.12010341382E+04  0.12010341382E+04  0.00000000000E+00 0.  1.
          2   -1    0    0  501    0  0.00000000000E+00 -0.00000000000E+00 -0.94046961226E+03  0.94046961226E+03  0.00000000000E+00 0. -1.
         24    2    1    2    0    0  0.20409679785E+02  0.44189215090E+03 -0.64766809357E+03  0.78825617539E+03  0.78667722558E+02 0.  0.
        254    2    1    2    0    0 -0.20409679785E+02 -0.44189215090E+03  0.90823261951E+03  0.13532475751E+04  0.90039284772E+03 0.  0.
         23    2    4    4    0    0  0.10243864213E+03 -0.69058195940E+03  0.71345916035E+03  0.10024592351E+04  0.92214025544E+02 0.  0.
         23    2    4    4    0    0 -0.12284832191E+03  0.24868980850E+03  0.19477345916E+03  0.35078833996E+03  0.90429132535E+02 0.  0.
          2    1    3    3  502    0  0.88689212090E+00  0.41585641571E+03 -0.61258849243E+03  0.74040664917E+03  0.00000000000E+00 0. -1.
         -1    1    3    3    0  502  0.19522787664E+02  0.26035735181E+02 -0.35079601131E+02  0.47849526227E+02  0.00000000000E+00 0.  1.
         11    1    5    5    0    0  0.84758763621E+02 -0.49450427208E+03  0.56685939753E+03  0.75699940534E+03  0.00000000000E+00 0.  1.
        -11    1    5    5    0    0  0.17679878506E+02 -0.19607768732E+03  0.14659976282E+03  0.24545982976E+03  0.00000000000E+00 0. -1.
          3    1    6    6  503    0 -0.41241899262E+01  0.58839737752E+02  0.79356455211E+02  0.98876542541E+02  0.00000000000E+00 0. -1.
         -3    1    6    6    0  503 -0.11872413199E+03  0.18985007075E+03  0.11541700395E+03  0.25191179742E+03  0.00000000000E+00 0.  1.
<mgrwt>
<rscale>  0 0.21255927E+04</rscale>
<asrwt>0</asrwt>
<pdfrwt beam="1">  1        2 0.14468763E+00 0.21255927E+04</pdfrwt>
<pdfrwt beam="2">  1       -1 0.18477448E+00 0.21255927E+04</pdfrwt>
<totfact> 0.55590867E+00</totfact>
</mgrwt>
</event>
<event>
12    6  0.1885220E-007  0.2535419E+04  0.7818608E-02  0.8390475E-01
         -1   -1    0    0    0  501 -0.00000000000E+00  0.00000000000E+00  0.78221797116E+03  0.78221797116E+03  0.00000000000E+00 0.  1.
          2   -1    0    0  501    0  0.00000000000E+00 -0.00000000000E+00 -0.20545269292E+04  0.20545269292E+04  0.00000000000E+00 0. -1.
         24    2    1    2    0    0 -0.29977449622E+03 -0.57454318426E+03  0.44796005573E+03  0.79266936087E+03  0.87703391982E+02 0.  0.
        254    2    1    2    0    0  0.29977449622E+03  0.57454318426E+03 -0.17202690138E+04  0.20440755395E+04  0.89384266642E+03 0.  0.
         23    2    4    4    0    0 -0.30966232955E+02 -0.98591817199E+02  0.28452421941E+02  0.13912618145E+03  0.88697801828E+02 0.  0.
         23    2    4    4    0    0  0.33074072917E+03  0.67313500146E+03 -0.17487214357E+04  0.19049493581E+04  0.91133072529E+02 0.  0.
          4    1    3    3  502    0 -0.79470546474E+02 -0.20297236759E+03  0.19253747194E+03  0.29083333348E+03  0.00000000000E+00 0. -1.
         -3    1    3    3    0  502 -0.22030394974E+03 -0.37157081667E+03  0.25542258379E+03  0.50183602738E+03  0.00000000000E+00 0.  1.
         11    1    5    5    0    0 -0.23788626962E+02  0.11046458281E+02  0.74272249640E+01  0.27259616358E+02  0.00000000000E+00 0. -1.
        -11    1    5    5    0    0 -0.71776059931E+01 -0.10963827548E+03  0.21025196977E+02  0.11186656509E+03  0.00000000000E+00 0.  1.
          2    1    6    6  503    0 -0.36910141271E+01  0.33946989133E+01 -0.27951456648E+02  0.28397737494E+02  0.00000000000E+00 0. -1.
         -2    1    6    6    0  503  0.33443174330E+03  0.66974030255E+03 -0.17207699791E+04  0.18765516206E+04  0.00000000000E+00 0.  1.
<mgrwt>
<rscale>  0 0.25354194E+04</rscale>
<asrwt>0</asrwt>
<pdfrwt beam="1">  1        2 0.31608107E+00 0.25354194E+04</pdfrwt>
<pdfrwt beam="2">  1       -1 0.12034123E+00 0.25354194E+04</pdfrwt>
<totfact> 0.38748126E+00</totfact>
</mgrwt>
</event>
<event>
12    6  0.1569942E-007  0.1541545E+04  0.7818608E-02  0.8857286E-01
          2   -1    0    0  501    0  0.00000000000E+00  0.00000000000E+00  0.51498870989E+03  0.51498870989E+03  0.00000000000E+00 0. -1.
         -1   -1    0    0    0  501 -0.00000000000E+00 -0.00000000000E+00 -0.11535985419E+04  0.11535985419E+04  0.00000000000E+00 0.  1.
         24    2    1    2    0    0  0.78581068926E+02  0.40314053085E+02  0.33725212859E+03  0.35764108144E+03  0.79799358557E+02 0.  0.
        254    2    1    2    0    0 -0.78581068926E+02 -0.40314053085E+02 -0.97586196059E+03  0.13109461703E+04  0.87090360439E+03 0.  0.
         23    2    4    4    0    0  0.33694057670E+03 -0.20295636704E+03 -0.58992469473E+03  0.71528726682E+03  0.94363602502E+02 0.  0.
         23    2    4    4    0    0 -0.41552164563E+03  0.16264231396E+03 -0.38593726586E+03  0.59565890351E+03  0.82165661224E+02 0.  0.
          4    1    3    3  502    0  0.63181877625E+02  0.30221193421E+02  0.33079743776E+03  0.33813047041E+03  0.00000000000E+00 0. -1.
         -3    1    3    3    0  502  0.15399191301E+02  0.10092859664E+02  0.64546908251E+01  0.19510611025E+02  0.00000000000E+00 0.  1.
         11    1    5    5    0    0  0.25704927933E+03 -0.19785353270E+03 -0.46761488045E+03  0.56910809942E+03  0.00000000000E+00 0. -1.
        -11    1    5    5    0    0  0.79891297372E+02 -0.51028343427E+01 -0.12230981428E+03  0.14617916741E+03  0.00000000000E+00 0.  1.
          4    1    6    6  503    0 -0.27791064814E+03  0.66374266887E+02 -0.24740275901E+03  0.37795237375E+03  0.00000000000E+00 0. -1.
         -4    1    6    6    0  503 -0.13761099748E+03  0.96268047070E+02 -0.13853450685E+03  0.21770652976E+03  0.00000000000E+00 0.  1.
<mgrwt>
<rscale>  0 0.15415450E+04</rscale>
<asrwt>0</asrwt>
<pdfrwt beam="1">  1        2 0.79229032E-01 0.15415450E+04</pdfrwt>
<pdfrwt beam="2">  1       -1 0.17747670E+00 0.15415450E+04</pdfrwt>
<totfact> 0.14213200E+01</totfact>
</mgrwt>
</event>
<event>
12    6  0.1569942E-007  0.1495970E+04  0.7818608E-02  0.8887137E-01
          2   -1    0    0  501    0  0.00000000000E+00  0.00000000000E+00  0.16894363283E+04  0.16894363283E+04  0.00000000000E+00 0. -1.
         -1   -1    0    0    0  501 -0.00000000000E+00 -0.00000000000E+00 -0.33116470811E+03  0.33116470811E+03  0.00000000000E+00 0.  1.
         24    2    1    2    0    0  0.38813833910E+03  0.18328961010E+03  0.73312697197E+03  0.85307917566E+03  0.77604583997E+02 0.  0.
        254    2    1    2    0    0 -0.38813833910E+03 -0.18328961010E+03  0.62514464819E+03  0.11675218607E+04  0.88772462660E+03 0.  0.
         23    2    4    4    0    0 -0.44894553272E+03 -0.17171196606E+03 -0.42026357101E+02  0.49128024849E+03  0.92482307615E+02 0.  0.
         23    2    4    4    0    0  0.60807193625E+02 -0.11577644039E+02  0.66717100529E+03  0.67624161224E+03  0.91400280074E+02 0.  0.
          4    1    3    3  502    0  0.37365031051E+03  0.18298568296E+03  0.67290375984E+03  0.79113702019E+03  0.00000000000E+00 0. -1.
         -3    1    3    3    0  502  0.14488028589E+02  0.30392714174E+00  0.60223212132E+02  0.61942155465E+02  0.00000000000E+00 0.  1.
         11    1    5    5    0    0 -0.36282116262E+03 -0.16978398762E+03 -0.54368944901E+02  0.40425459882E+03  0.00000000000E+00 0.  1.
        -11    1    5    5    0    0 -0.86124370103E+02 -0.19279784427E+01  0.12342587801E+02  0.87025649668E+02  0.00000000000E+00 0. -1.
          4    1    6    6  503    0  0.83621454513E+02 -0.31967678147E+01  0.56824162539E+03  0.57437036119E+03  0.00000000000E+00 0.  1.
         -4    1    6    6    0  503 -0.22814260888E+02 -0.83808762243E+01  0.98929379894E+02  0.10187125106E+03  0.00000000000E+00 0. -1.
<mgrwt>
<rscale>  0 0.14959702E+04</rscale>
<asrwt>0</asrwt>
<pdfrwt beam="1">  1        2 0.25991328E+00 0.14959702E+04</pdfrwt>
<pdfrwt beam="2">  1       -1 0.50948418E-01 0.14959702E+04</pdfrwt>
<totfact> 0.42382340E+01</totfact>
</mgrwt>
</event>
<event>
12    6  0.1569942E-007  0.1525683E+04  0.7818608E-02  0.8867551E-01
         -1   -1    0    0    0  501 -0.00000000000E+00  0.00000000000E+00  0.54249063064E+03  0.54249063064E+03  0.00000000000E+00 0.  1.
          2   -1    0    0  501    0  0.00000000000E+00 -0.00000000000E+00 -0.10726954534E+04  0.10726954534E+04  0.00000000000E+00 0. -1.
         24    2    1    2    0    0  0.17976597861E+03 -0.19837954110E+03  0.26535367492E+03  0.38860436902E+03  0.94501499642E+02 0.  0.
        254    2    1    2    0    0 -0.17976597861E+03  0.19837954110E+03 -0.79555849768E+03  0.12265817150E+04  0.89438198273E+03 0.  0.
         23    2    4    4    0    0 -0.31409907062E+03 -0.37982413509E+02  0.50368675377E+02  0.33328679319E+03  0.91881408087E+02 0.  0.
         23    2    4    4    0    0  0.13433309201E+03  0.23636195461E+03 -0.84592717306E+03  0.89329492185E+03  0.92036308517E+02 0.  0.
          2    1    3    3  502    0  0.12164546160E+03 -0.92366573286E+02  0.95571712000E+02  0.18017534327E+03  0.00000000000E+00 0. -1.
         -1    1    3    3    0  502  0.58120517018E+02 -0.10601296781E+03  0.16978196292E+03  0.20842902575E+03  0.00000000000E+00 0.  1.
         11    1    5    5    0    0 -0.30249849370E+03 -0.17696925254E+02  0.34352517808E+02  0.30495674338E+03  0.00000000000E+00 0.  1.
        -11    1    5    5    0    0 -0.11600576922E+02 -0.20285488255E+02  0.16016157569E+02  0.28330049805E+02  0.00000000000E+00 0. -1.
          1    1    6    6  503    0  0.38965685228E+02  0.26831799413E+02 -0.74524833939E+02  0.88273557528E+02  0.00000000000E+00 0. -1.
         -1    1    6    6    0  503  0.95367406782E+02  0.20953015519E+03 -0.77140233912E+03  0.80502136432E+03  0.00000000000E+00 0.  1.
<mgrwt>
<rscale>  0 0.15256831E+04</rscale>
<asrwt>0</asrwt>
<pdfrwt beam="1">  1        2 0.16503007E+00 0.15256831E+04</pdfrwt>
<pdfrwt beam="2">  1       -1 0.83460098E-01 0.15256831E+04</pdfrwt>
<totfact> 0.35500783E+01</totfact>
</mgrwt>
</event>
<event>
12    6  0.1569942E-007  0.4912205E+04  0.7818608E-02  0.7842195E-01
          2   -1    0    0  501    0  0.00000000000E+00  0.00000000000E+00  0.31020454818E+04  0.31020454818E+04  0.00000000000E+00 0. -1.
         -1   -1    0    0    0  501 -0.00000000000E+00 -0.00000000000E+00 -0.19446652334E+04  0.19446652334E+04  0.00000000000E+00 0.  1.
         24    2    1    2    0    0 -0.11199478150E+04  0.12662430282E+04 -0.11498729703E+04  0.20466019933E+04  0.93366784151E+02 0.  0.
        254    2    1    2    0    0  0.11199478150E+04 -0.12662430282E+04  0.23072532187E+04  0.30001087218E+04  0.90530680591E+03 0.  0.
         23    2    4    4    0    0  0.88155492428E+03 -0.11226979015E+04  0.12390068695E+04  0.18923318872E+04  0.90511247541E+02 0.  0.
         23    2    4    4    0    0  0.23839289070E+03 -0.14354512668E+03  0.10682463492E+04  0.11077768346E+04  0.92643829431E+02 0.  0.
          2    1    3    3  502    0 -0.55087198929E+02  0.40222387684E+02 -0.33575284225E+02  0.76024599095E+02  0.00000000000E+00 0. -1.
         -1    1    3    3    0  502 -0.10648606161E+04  0.12260206405E+04 -0.11162976861E+04  0.19705773942E+04  0.00000000000E+00 0.  1.
         11    1    5    5    0    0  0.23898780385E+02 -0.14715950456E+02  0.14854467192E+02  0.31754780699E+02  0.00000000000E+00 0. -1.
        -11    1    5    5    0    0  0.85765614390E+03 -0.11079819510E+04  0.12241524024E+04  0.18605771065E+04  0.00000000000E+00 0.  1.
          3    1    6    6  503    0  0.92862509368E+02 -0.74492514388E+01  0.30156842772E+03  0.31563024822E+03  0.00000000000E+00 0. -1.
         -3    1    6    6    0  503  0.14553038133E+03 -0.13609587524E+03  0.76667792144E+03  0.79214658641E+03  0.00000000000E+00 0.  1.
<mgrwt>
<rscale>  0 0.49122052E+04</rscale>
<asrwt>0</asrwt>
<pdfrwt beam="1">  1        2 0.47723777E+00 0.49122052E+04</pdfrwt>
<pdfrwt beam="2">  1       -1 0.29917927E+00 0.49122052E+04</pdfrwt>
<totfact> 0.41756796E-02</totfact>
</mgrwt>
</event>
<event>
12    6  0.1569942E-007  0.1957116E+04  0.7818608E-02  0.8626937E-01
          2   -1    0    0  501    0  0.00000000000E+00  0.00000000000E+00  0.44883178623E+04  0.44883178623E+04  0.00000000000E+00 0. -1.
         -1   -1    0    0    0  501 -0.00000000000E+00 -0.00000000000E+00 -0.21334843276E+03  0.21334843276E+03  0.00000000000E+00 0.  1.
         24    2    1    2    0    0 -0.51043436363E+02 -0.56859911057E+03  0.28736640466E+04  0.29308959976E+04  0.79346801884E+02 0.  0.
        254    2    1    2    0    0  0.51043436363E+02  0.56859911057E+03  0.14013053830E+04  0.17707702975E+04  0.91981535609E+03 0.  0.
         23    2    4    4    0    0 -0.12333991354E+03  0.57498528667E+03  0.14481333896E+04  0.15655936707E+04  0.90401401714E+02 0.  0.
         23    2    4    4    0    0  0.17438334990E+03 -0.63861760948E+01 -0.46828006591E+02  0.20517662688E+03  0.97232967899E+02 0.  0.
          4    1    3    3  502    0 -0.25596555426E+02 -0.24941266056E+03  0.14648842247E+04  0.14861856044E+04  0.00000000000E+00 0. -1.
         -3    1    3    3    0  502 -0.25446880937E+02 -0.31918645001E+03  0.14087798219E+04  0.14447103932E+04  0.00000000000E+00 0.  1.
         11    1    5    5    0    0 -0.23056953485E+02  0.26436374500E+03  0.56955978221E+03  0.62834557235E+03  0.00000000000E+00 0. -1.
        -11    1    5    5    0    0 -0.10028296005E+03  0.31062154167E+03  0.87857360736E+03  0.93724809831E+03  0.00000000000E+00 0.  1.
          1    1    6    6  503    0  0.17426654942E+03  0.15698648871E+02 -0.30264271853E+02  0.17757027897E+03  0.00000000000E+00 0. -1.
         -1    1    6    6    0  503  0.11680048183E+00 -0.22084824966E+02 -0.16563734738E+02  0.27606347904E+02  0.00000000000E+00 0.  1.
<mgrwt>
<rscale>  0 0.19571158E+04</rscale>
<asrwt>0</asrwt>
<pdfrwt beam="1">  1        2 0.69051037E+00 0.19571158E+04</pdfrwt>
<pdfrwt beam="2">  1       -1 0.32822839E-01 0.19571158E+04</pdfrwt>
<totfact> 0.11877650E+00</totfact>
</mgrwt>
</event>
<event>
12    6  0.1569942E-007  0.2140822E+04  0.7818608E-02  0.8543471E-01
         -1   -1    0    0    0  501 -0.00000000000E+00  0.00000000000E+00  0.14126208711E+04  0.14126208711E+04  0.00000000000E+00 0.  1.
          2   -1    0    0  501    0  0.00000000000E+00 -0.00000000000E+00 -0.81110190208E+03  0.81110190208E+03  0.00000000000E+00 0. -1.
         24    2    1    2    0    0 -0.75025430018E+03 -0.44878144184E+03  0.11418828399E+03  0.88406410661E+03  0.65146626325E+02 0.  0.
        254    2    1    2    0    0  0.75025430018E+03  0.44878144184E+03  0.48733068499E+03  0.13396586665E+04  0.89045373199E+03 0.  0.
         23    2    4    4    0    0  0.74426779326E+03  0.36022948613E+01  0.46956330269E+03  0.88474673106E+03  0.91321181998E+02 0.  0.
         23    2    4    4    0    0  0.59865069164E+01  0.44517914698E+03  0.17767382308E+02  0.45491193547E+03  0.91699934509E+02 0.  0.
          4    1    3    3  502    0 -0.16419207103E+03 -0.89903090961E+02 -0.13890687331E+01  0.18719917592E+03  0.00000000000E+00 0. -1.
         -3    1    3    3    0  502 -0.58606222915E+03 -0.35887835088E+03  0.11557735272E+03  0.69686493069E+03  0.00000000000E+00 0.  1.
         11    1    5    5    0    0  0.50436648019E+03  0.25709769776E+02  0.27476700920E+03  0.57492908080E+03  0.00000000000E+00 0. -1.
        -11    1    5    5    0    0  0.23990131307E+03 -0.22107474915E+02  0.19479629348E+03  0.30981765026E+03  0.00000000000E+00 0.  1.
          3    1    6    6  503    0 -0.37794536760E+02  0.14338345386E+03 -0.10485253930E+02  0.14865121055E+03  0.00000000000E+00 0. -1.
         -3    1    6    6    0  503  0.43781043676E+02  0.30179569312E+03  0.28252636238E+02  0.30626072492E+03  0.00000000000E+00 0.  1.
<mgrwt>
<rscale>  0 0.21408218E+04</rscale>
<asrwt>0</asrwt>
<pdfrwt beam="1">  1        2 0.12478491E+00 0.21408218E+04</pdfrwt>
<pdfrwt beam="2">  1       -1 0.21732629E+00 0.21408218E+04</pdfrwt>
<totfact> 0.40645642E+00</totfact>
</mgrwt>
</event>
<event>
12    6  0.1569942E-007  0.2274361E+04  0.7818608E-02  0.8488099E-01
          2   -1    0    0  501    0  0.00000000000E+00  0.00000000000E+00  0.11804161646E+04  0.11804161646E+04  0.00000000000E+00 0. -1.
         -1   -1    0    0    0  501 -0.00000000000E+00 -0.00000000000E+00 -0.10955281554E+04  0.10955281554E+04  0.00000000000E+00 0.  1.
         24    2    1    2    0    0  0.50441240163E+03  0.39660701424E+03 -0.67505678240E+03  0.93419516293E+03  0.72732030882E+02 0.  0.
        254    2    1    2    0    0 -0.50441240163E+03 -0.39660701424E+03  0.75994479159E+03  0.13417491570E+04  0.90058076785E+03 0.  0.
         23    2    4    4    0    0 -0.74300370090E+03 -0.23662291410E+03  0.43130571596E+03  0.89577762060E+03  0.91367510201E+02 0.  0.
         23    2    4    4    0    0  0.23859129926E+03 -0.15998410014E+03  0.32863907563E+03  0.44597153642E+03  0.91467201101E+02 0.  0.
          4    1    3    3  502    0  0.17573898880E+02  0.14147226342E+02 -0.75710094673E+01  0.23797187215E+02  0.00000000000E+00 0. -1.
         -3    1    3    3    0  502  0.48683850275E+03  0.38245978789E+03 -0.66748577293E+03  0.91039797571E+03  0.00000000000E+00 0.  1.
         11    1    5    5    0    0 -0.31628798835E+03 -0.55284775585E+02  0.16289585531E+03  0.36004104997E+03  0.00000000000E+00 0. -1.
        -11    1    5    5    0    0 -0.42671571255E+03 -0.18133813851E+03  0.26840986065E+03  0.53573657063E+03  0.00000000000E+00 0.  1.
          2    1    6    6  503    0  0.33245330865E+02 -0.69527388120E+02  0.86327532911E+02  0.11572274047E+03  0.00000000000E+00 0. -1.
         -2    1    6    6    0  503  0.20534596840E+03 -0.90456712017E+02  0.24231154272E+03  0.33024879595E+03  0.00000000000E+00 0.  1.
<mgrwt>
<rscale>  0 0.22743607E+04</rscale>
<asrwt>0</asrwt>
<pdfrwt beam="1">  1        2 0.18160249E+00 0.22743607E+04</pdfrwt>
<pdfrwt beam="2">  1       -1 0.16854279E+00 0.22743607E+04</pdfrwt>
<totfact> 0.50837566E+00</totfact>
</mgrwt>
</event>
<event>
12    6  0.1569942E-007  0.1786193E+04  0.7818608E-02  0.8713677E-01
          2   -1    0    0  501    0  0.00000000000E+00  0.00000000000E+00  0.33817782381E+04  0.33817782381E+04  0.00000000000E+00 0. -1.
         -1   -1    0    0    0  501 -0.00000000000E+00 -0.00000000000E+00 -0.23585852619E+03  0.23585852619E+03  0.00000000000E+00 0.  1.
         24    2    1    2    0    0  0.80760090431E+02 -0.29995580994E+03  0.23411335331E+04  0.23630055220E+04  0.79957471216E+02 0.  0.
        254    2    1    2    0    0 -0.80760090431E+02  0.29995580994E+03  0.80478617886E+03  0.12546312423E+04  0.91100114181E+03 0.  0.
         23    2    4    4    0    0 -0.46295657195E+03  0.45772510458E+02  0.53369762186E+03  0.71404371918E+03  0.92743577141E+02 0.  0.
         23    2    4    4    0    0  0.38219648152E+03  0.25418329948E+03  0.27108855700E+03  0.54058752313E+03  0.89791782498E+02 0.  0.
          2    1    3    3  502    0  0.80929921987E+02 -0.29059046530E+03  0.20857228421E+04  0.21074231290E+04  0.00000000000E+00 0. -1.
         -1    1    3    3    0  502 -0.16983155576E+00 -0.93653446402E+01  0.25541069102E+03  0.25558239300E+03  0.00000000000E+00 0.  1.
         11    1    5    5    0    0 -0.45719165565E+03  0.43390459529E+02  0.53731421484E+03  0.70683343685E+03  0.00000000000E+00 0.  1.
        -11    1    5    5    0    0 -0.57649162990E+01  0.23820509287E+01 -0.36165929819E+01  0.72102823355E+01  0.00000000000E+00 0. -1.
          3    1    6    6  503    0  0.65879645395E+02  0.91594564837E+01  0.51911129720E+02  0.84372914548E+02  0.00000000000E+00 0. -1.
         -3    1    6    6    0  503  0.31631683612E+03  0.24502384300E+03  0.21917742728E+03  0.45621460858E+03  0.00000000000E+00 0.  1.
<mgrwt>
<rscale>  0 0.17861929E+04</rscale>
<asrwt>0</asrwt>
<pdfrwt beam="1">  1        2 0.52027354E+00 0.17861929E+04</pdfrwt>
<pdfrwt beam="2">  1       -1 0.36285929E-01 0.17861929E+04</pdfrwt>
<totfact> 0.77320145E+00</totfact>
</mgrwt>
</event>
<event>
12    6  0.1569942E-007  0.2450272E+04  0.7818608E-02  0.8420919E-01
          2   -1    0    0  501    0  0.00000000000E+00  0.00000000000E+00  0.33378690287E+04  0.33378690287E+04  0.00000000000E+00 0. -1.
         -1   -1    0    0    0  501 -0.00000000000E+00 -0.00000000000E+00 -0.44967575313E+03  0.44967575313E+03  0.00000000000E+00 0.  1.
         24    2    1    2    0    0  0.38597594555E+03 -0.55046008378E+03  0.19807821817E+02  0.67744619844E+03  0.80976957204E+02 0.  0.
        254    2    1    2    0    0 -0.38597594555E+03  0.55046008378E+03  0.28683854537E+04  0.31100985834E+04  0.99654119471E+03 0.  0.
         23    2    4    4    0    0 -0.67509749596E+03  0.54148564281E+03  0.23941691782E+04  0.25474420222E+04  0.91931888690E+02 0.  0.
         23    2    4    4    0    0  0.28912155042E+03  0.89744409717E+01  0.47421627556E+03  0.56265656121E+03  0.89607579815E+02 0.  0.
          4    1    3    3  502    0  0.23097429510E+01 -0.21250461320E+02 -0.89196417528E+01  0.23161973746E+02  0.00000000000E+00 0. -1.
         -3    1    3    3    0  502  0.38366620259E+03 -0.52920962246E+03  0.28727463569E+02  0.65428422469E+03  0.00000000000E+00 0.  1.
         11    1    5    5    0    0 -0.36963603585E+03  0.33506328485E+03  0.14753187510E+04  0.15573900029E+04  0.00000000000E+00 0.  1.
        -11    1    5    5    0    0 -0.30546146011E+03  0.20642235796E+03  0.91885042713E+03  0.99005201930E+03  0.00000000000E+00 0. -1.
          4    1    6    6  503    0  0.26649339241E+03  0.18902076844E+01  0.37127724436E+03  0.45702198335E+03  0.00000000000E+00 0. -1.
         -4    1    6    6    0  503  0.22628158009E+02  0.70842332873E+01  0.10293903120E+03  0.10563457786E+03  0.00000000000E+00 0.  1.
<mgrwt>
<rscale>  0 0.24502724E+04</rscale>
<asrwt>0</asrwt>
<pdfrwt beam="1">  1        2 0.51351830E+00 0.24502724E+04</pdfrwt>
<pdfrwt beam="2">  1       -1 0.69180887E-01 0.24502724E+04</pdfrwt>
<totfact> 0.22642530E+00</totfact>
</mgrwt>
</event>
<event>
12    6  0.1569942E-007  0.1164541E+04  0.7818608E-02  0.9144472E-01
          2   -1    0    0  501    0  0.00000000000E+00  0.00000000000E+00  0.24215836771E+03  0.24215836771E+03  0.00000000000E+00 0. -1.
         -1   -1    0    0    0  501 -0.00000000000E+00 -0.00000000000E+00 -0.14000719841E+04  0.14000719841E+04  0.00000000000E+00 0.  1.
         24    2    1    2    0    0 -0.10050906937E+03 -0.51601853224E+01 -0.49106178765E+03  0.50755362260E+03  0.79626000708E+02 0.  0.
        254    2    1    2    0    0  0.10050906937E+03  0.51601853224E+01 -0.66685182874E+03  0.11346767292E+04  0.91250820149E+03 0.  0.
         23    2    4    4    0    0 -0.14693144431E+03  0.37819066945E+03 -0.14419903110E+03  0.44036612766E+03  0.92260143261E+02 0.  0.
         23    2    4    4    0    0  0.24744051367E+03 -0.37303048413E+03 -0.52265279764E+03  0.69431060155E+03  0.92318549884E+02 0.  0.
          2    1    3    3  502    0  0.93172361578E+01 -0.86551023880E+00 -0.85275215378E+01  0.12660119319E+02  0.00000000000E+00 0. -1.
         -1    1    3    3    0  502 -0.10982630552E+03 -0.42946750836E+01 -0.48253426611E+03  0.49489350328E+03  0.00000000000E+00 0.  1.
         11    1    5    5    0    0  0.13271612037E+02  0.30282388438E+02 -0.11955013286E+02  0.35157944738E+02  0.00000000000E+00 0.  1.
        -11    1    5    5    0    0 -0.16020305634E+03  0.34790828101E+03 -0.13224401781E+03  0.40520818292E+03  0.00000000000E+00 0. -1.
          1    1    6    6  503    0  0.24892780970E+03 -0.37736098752E+03 -0.51994356420E+03  0.68899033324E+03  0.00000000000E+00 0. -1.
         -1    1    6    6    0  503 -0.14872960297E+01  0.43305033902E+01 -0.27092334368E+01  0.53202683116E+01  0.00000000000E+00 0.  1.
<mgrwt>
<rscale>  0 0.11645414E+04</rscale>
<asrwt>0</asrwt>
<pdfrwt beam="1">  1        2 0.37255133E-01 0.11645414E+04</pdfrwt>
<pdfrwt beam="2">  1       -1 0.21539569E+00 0.11645414E+04</pdfrwt>
<totfact> 0.18714994E+01</totfact>
</mgrwt>
</event>
<event>
12    6  0.1569942E-007  0.2378299E+04  0.7818608E-02  0.8447673E-01
         -1   -1    0    0    0  501 -0.00000000000E+00  0.00000000000E+00  0.42784783789E+03  0.42784783789E+03  0.00000000000E+00 0.  1.
          2   -1    0    0  501    0  0.00000000000E+00 -0.00000000000E+00 -0.33050928198E+04  0.33050928198E+04  0.00000000000E+00 0. -1.
         24    2    1    2    0    0  0.19810803069E+03  0.73636023018E+03 -0.17094268552E+03  0.78561741266E+03  0.80623426669E+02 0.  0.
        254    2    1    2    0    0 -0.19810803069E+03 -0.73636023018E+03 -0.27063022963E+04  0.29473232450E+04  0.88383766089E+03 0.  0.
         23    2    4    4    0    0 -0.46221978601E+03 -0.36941084150E+03 -0.88468284318E+03  0.10682484378E+04  0.91539561829E+02 0.  0.
         23    2    4    4    0    0  0.26411175532E+03 -0.36694938869E+03 -0.18216194532E+04  0.18790748072E+04  0.90652224527E+02 0.  0.
          4    1    3    3  502    0  0.84389087977E+02  0.27855996696E+03 -0.10447532236E+03  0.30924467068E+03  0.00000000000E+00 0. -1.
         -3    1    3    3    0  502  0.11371894271E+03  0.45780026323E+03 -0.66467363166E+02  0.47637274199E+03  0.00000000000E+00 0.  1.
         11    1    5    5    0    0 -0.22312868109E+03 -0.14990353052E+03 -0.47251083340E+03  0.54362115896E+03  0.00000000000E+00 0. -1.
        -11    1    5    5    0    0 -0.23909110492E+03 -0.21950731097E+03 -0.41217200978E+03  0.52462727880E+03  0.00000000000E+00 0.  1.
          2    1    6    6  503    0  0.25254619053E+03 -0.33498686723E+03 -0.15665493522E+04  0.16217498736E+04  0.00000000000E+00 0. -1.
         -2    1    6    6    0  503  0.11565564794E+02 -0.31962521455E+02 -0.25507010096E+03  0.25732493364E+03  0.00000000000E+00 0.  1.
<mgrwt>
<rscale>  0 0.23782992E+04</rscale>
<asrwt>0</asrwt>
<pdfrwt beam="1">  1        2 0.50847583E+00 0.23782992E+04</pdfrwt>
<pdfrwt beam="2">  1       -1 0.65822743E-01 0.23782992E+04</pdfrwt>
<totfact> 0.26528798E+00</totfact>
</mgrwt>
</event>
<event>
12    6  0.1569942E-007  0.1552739E+04  0.7818608E-02  0.8850120E-01
         -1   -1    0    0    0  501 -0.00000000000E+00  0.00000000000E+00  0.33215364700E+03  0.33215364700E+03  0.00000000000E+00 0.  1.
          2   -1    0    0  501    0  0.00000000000E+00 -0.00000000000E+00 -0.18146716131E+04  0.18146716131E+04  0.00000000000E+00 0. -1.
         24    2    1    2    0    0 -0.48725826707E+03 -0.63913766150E+02 -0.46882035109E+03  0.68404372442E+03  0.81349290047E+02 0.  0.
        254    2    1    2    0    0  0.48725826707E+03  0.63913766150E+02 -0.10136976150E+04  0.14627815357E+04  0.93308165673E+03 0.  0.
         23    2    4    4    0    0  0.13482225169E+03 -0.39467325649E+03 -0.63628632283E+03  0.76607682181E+03  0.89829802083E+02 0.  0.
         23    2    4    4    0    0  0.35243601537E+03  0.45858702264E+03 -0.37741129216E+03  0.69670471386E+03  0.91896532042E+02 0.  0.
          2    1    3    3  502    0 -0.28294754319E+03 -0.42569892836E+02 -0.32650584234E+03  0.43414003853E+03  0.00000000000E+00 0. -1.
         -1    1    3    3    0  502 -0.20431072388E+03 -0.21343873314E+02 -0.14231450875E+03  0.24990368589E+03  0.00000000000E+00 0.  1.
         11    1    5    5    0    0 -0.64063432528E+01 -0.71198165454E+02 -0.80234819416E+02  0.10746090566E+03  0.00000000000E+00 0.  1.
        -11    1    5    5    0    0  0.14122859494E+03 -0.32347509104E+03 -0.55605150342E+03  0.65861591615E+03  0.00000000000E+00 0. -1.
          1    1    6    6  503    0  0.12996687394E+02  0.29720277291E+02 -0.48922866536E+02  0.58699707287E+02  0.00000000000E+00 0. -1.
         -1    1    6    6    0  503  0.33943932798E+03  0.42886674535E+03 -0.32848842562E+03  0.63800500657E+03  0.00000000000E+00 0.  1.
<mgrwt>
<rscale>  0 0.15527392E+04</rscale>
<asrwt>0</asrwt>
<pdfrwt beam="1">  1        2 0.27918025E+00 0.15527392E+04</pdfrwt>
<pdfrwt beam="2">  1       -1 0.51100561E-01 0.15527392E+04</pdfrwt>
<totfact> 0.35746521E+01</totfact>
</mgrwt>
</event>
<event>
12    6  0.1569942E-007  0.1487016E+04  0.7818608E-02  0.8893133E-01
         -1   -1    0    0    0  501 -0.00000000000E+00  0.00000000000E+00  0.14383671318E+04  0.14383671318E+04  0.00000000000E+00 0.  1.
          2   -1    0    0  501    0  0.00000000000E+00 -0.00000000000E+00 -0.38432754982E+03  0.38432754982E+03  0.00000000000E+00 0. -1.
         24    2    1    2    0    0 -0.36987073505E+03 -0.99318457214E+02  0.12794845618E+02  0.39170832925E+03  0.81260018096E+02 0.  0.
        254    2    1    2    0    0  0.36987073505E+03  0.99318457214E+02  0.10412447363E+04  0.14309863523E+04  0.90380463766E+03 0.  0.
         23    2    4    4    0    0  0.48279358513E+03  0.33757204784E+03  0.97504964305E+03  0.11427872464E+04  0.90533700241E+02 0.  0.
         23    2    4    4    0    0 -0.11292285007E+03 -0.23825359063E+03  0.66195093275E+02  0.28819910590E+03  0.95710975087E+02 0.  0.
          2    1    3    3  502    0 -0.14791474347E+03 -0.48781165387E+02 -0.33740498393E+02  0.15936371816E+03  0.00000000000E+00 0. -1.
         -1    1    3    3    0  502 -0.22195599158E+03 -0.50537291827E+02  0.46535344011E+02  0.23234461110E+03  0.00000000000E+00 0.  1.
         11    1    5    5    0    0  0.13375242818E+03  0.63138241818E+02  0.30510179178E+03  0.33906231429E+03  0.00000000000E+00 0. -1.
        -11    1    5    5    0    0  0.34904115694E+03  0.27443380602E+03  0.66994785127E+03  0.80372493214E+03  0.00000000000E+00 0.  1.
          3    1    6    6  503    0 -0.18543124542E+02 -0.13275981576E+03  0.54332556496E+01  0.13415862408E+03  0.00000000000E+00 0. -1.
         -3    1    6    6    0  503 -0.94379725532E+02 -0.10549377487E+03  0.60761837625E+02  0.15404048182E+03  0.00000000000E+00 0.  1.
<mgrwt>
<rscale>  0 0.14870160E+04</rscale>
<asrwt>0</asrwt>
<pdfrwt beam="1">  1        2 0.59127316E-01 0.14870160E+04</pdfrwt>
<pdfrwt beam="2">  1       -1 0.22128725E+00 0.14870160E+04</pdfrwt>
<totfact> 0.99320690E+00</totfact>
</mgrwt>
</event>
<event>
12    6  0.1569942E-007  0.1774942E+04  0.7818608E-02  0.8719740E-01
         -1   -1    0    0    0  501 -0.00000000000E+00  0.00000000000E+00  0.71432581466E+03  0.71432581466E+03  0.00000000000E+00 0.  1.
          2   -1    0    0  501    0  0.00000000000E+00 -0.00000000000E+00 -0.11025847065E+04  0.11025847065E+04  0.00000000000E+00 0. -1.
         24    2    1    2    0    0  0.23184637756E+03  0.36088362827E+03 -0.67529390955E+03  0.80408730423E+03  0.80899892524E+02 0.  0.
        254    2    1    2    0    0 -0.23184637756E+03 -0.36088362827E+03  0.28703501769E+03  0.10128232169E+04  0.87145397554E+03 0.  0.
         23    2    4    4    0    0 -0.44464818497E+03  0.29306935232E+02 -0.35869308474E+02  0.45624538102E+03  0.91117152962E+02 0.  0.
         23    2    4    4    0    0  0.21280180741E+03 -0.39019056350E+03  0.32290432616E+03  0.55657783592E+03  0.89321881473E+02 0.  0.
          2    1    3    3  502    0  0.23228252586E+03  0.35169877845E+03 -0.63080533040E+03  0.75865839970E+03  0.00000000000E+00 0. -1.
         -1    1    3    3    0  502 -0.43614830123E+00  0.91848498166E+01 -0.44488579148E+02  0.45428904522E+02  0.00000000000E+00 0.  1.
         11    1    5    5    0    0 -0.10985389913E+03  0.47038064021E+02 -0.12921963888E+02  0.12019748655E+03  0.00000000000E+00 0.  1.
        -11    1    5    5    0    0 -0.33479428584E+03 -0.17731128789E+02 -0.22947344586E+02  0.33604789448E+03  0.00000000000E+00 0. -1.
          4    1    6    6  503    0  0.19036437982E+03 -0.31015118601E+03  0.29635168029E+03  0.46931511130E+03  0.00000000000E+00 0. -1.
         -4    1    6    6    0  503  0.22437427588E+02 -0.80039377489E+02  0.26552645872E+02  0.87262724622E+02  0.00000000000E+00 0.  1.
<mgrwt>
<rscale>  0 0.17749419E+04</rscale>
<asrwt>0</asrwt>
<pdfrwt beam="1">  1        2 0.16962841E+00 0.17749419E+04</pdfrwt>
<pdfrwt beam="2">  1       -1 0.10989628E+00 0.17749419E+04</pdfrwt>
<totfact> 0.17915398E+01</totfact>
</mgrwt>
</event>
<event>
12    6  0.1569942E-007  0.1318368E+04  0.7818608E-02  0.9015125E-01
         -1   -1    0    0    0  501 -0.00000000000E+00  0.00000000000E+00  0.48812782160E+03  0.48812782160E+03  0.00000000000E+00 0.  1.
          2   -1    0    0  501    0  0.00000000000E+00 -0.00000000000E+00 -0.89018375735E+03  0.89018375735E+03  0.00000000000E+00 0. -1.
         24    2    1    2    0    0 -0.17879723529E+03  0.22836475437E+03 -0.32425998866E+03  0.44210450558E+03  0.78695242679E+02 0.  0.
        254    2    1    2    0    0  0.17879723529E+03 -0.22836475437E+03 -0.77795947089E+02  0.93620707338E+03  0.88674266982E+03 0.  0.
         23    2    4    4    0    0  0.47101359634E+03 -0.10183244093E+03  0.17353582040E+03  0.52035292491E+03  0.91808668122E+02 0.  0.
         23    2    4    4    0    0 -0.29221636105E+03 -0.12653231344E+03 -0.25133176749E+03  0.41585414846E+03  0.91466865231E+02 0.  0.
          4    1    3    3  502    0 -0.36419059837E+02  0.57533408594E+02 -0.13030144980E+03  0.14702009674E+03  0.00000000000E+00 0. -1.
         -3    1    3    3    0  502 -0.14237817545E+03  0.17083134578E+03 -0.19395853886E+03  0.29508440884E+03  0.00000000000E+00 0.  1.
         11    1    5    5    0    0  0.36973058134E+03 -0.83413339533E+02  0.94658983997E+02  0.39066457638E+03  0.00000000000E+00 0.  1.
        -11    1    5    5    0    0  0.10128301500E+03 -0.18419101396E+02  0.78876836402E+02  0.12968834853E+03  0.00000000000E+00 0. -1.
          4    1    6    6  503    0 -0.40806305410E+02 -0.57590024699E+02 -0.50988719616E+02  0.87072470013E+02  0.00000000000E+00 0. -1.
         -4    1    6    6    0  503 -0.25141005564E+03 -0.68942288743E+02 -0.20034304787E+03  0.32878167845E+03  0.00000000000E+00 0.  1.
<mgrwt>
<rscale>  0 0.13183679E+04</rscale>
<asrwt>0</asrwt>
<pdfrwt beam="1">  1        2 0.13695135E+00 0.13183679E+04</pdfrwt>
<pdfrwt beam="2">  1       -1 0.75096589E-01 0.13183679E+04</pdfrwt>
<totfact> 0.59335189E+01</totfact>
</mgrwt>
</event>
<event>
12    6  0.1569942E-007  0.1450376E+04  0.7818608E-02  0.8918140E-01
         -1   -1    0    0    0  501 -0.00000000000E+00  0.00000000000E+00  0.62602075850E+03  0.62602075850E+03  0.00000000000E+00 0.  1.
          2   -1    0    0  501    0  0.00000000000E+00 -0.00000000000E+00 -0.84006380769E+03  0.84006380769E+03  0.00000000000E+00 0. -1.
         24    2    1    2    0    0 -0.31144998386E+03  0.28481478300E+03  0.32809533689E+02  0.43112308674E+03  0.81670663967E+02 0.  0.
        254    2    1    2    0    0  0.31144998386E+03 -0.28481478300E+03 -0.24685258288E+03  0.10349614794E+04  0.91218885830E+03 0.  0.
         23    2    4    4    0    0  0.55598127598E+03 -0.93407726031E+02 -0.37963323559E+03  0.68537106091E+03  0.88158465506E+02 0.  0.
         23    2    4    4    0    0 -0.24453129212E+03 -0.19140705697E+03  0.13278065271E+03  0.34959041854E+03  0.90280367292E+02 0.  0.
          4    1    3    3  502    0 -0.31558533041E+03  0.27714940275E+03  0.27464407122E+02  0.42090401028E+03  0.00000000000E+00 0. -1.
         -3    1    3    3    0  502  0.41353465499E+01  0.76653802569E+01  0.53451265676E+01  0.10219076455E+02  0.00000000000E+00 0.  1.
         11    1    5    5    0    0  0.11710467733E+02 -0.16848259115E+02 -0.87108048082E+01  0.22290738214E+02  0.00000000000E+00 0. -1.
        -11    1    5    5    0    0  0.54427080825E+03 -0.76559466916E+02 -0.37092243078E+03  0.66308032269E+03  0.00000000000E+00 0.  1.
          3    1    6    6  503    0 -0.78263876818E+02 -0.97922714431E+02  0.17125456716E+02  0.12652025009E+03  0.00000000000E+00 0. -1.
         -3    1    6    6    0  503 -0.16626741530E+03 -0.93484342541E+02  0.11565519599E+03  0.22307016845E+03  0.00000000000E+00 0.  1.
<mgrwt>
<rscale>  0 0.14503757E+04</rscale>
<asrwt>0</asrwt>
<pdfrwt beam="1">  1        2 0.12924059E+00 0.14503757E+04</pdfrwt>
<pdfrwt beam="2">  1       -1 0.96310886E-01 0.14503757E+04</pdfrwt>
<totfact> 0.37080408E+01</totfact>
</mgrwt>
</event>
<event>
12    6  0.1569942E-007  0.1646399E+04  0.7818608E-02  0.8792540E-01
          2   -1    0    0  501    0  0.00000000000E+00  0.00000000000E+00  0.10267103032E+04  0.10267103032E+04  0.00000000000E+00 0. -1.
         -1   -1    0    0    0  501 -0.00000000000E+00 -0.00000000000E+00 -0.66002760592E+03  0.66002760592E+03  0.00000000000E+00 0.  1.
         24    2    1    2    0    0 -0.34454215445E+02  0.85494067387E+02 -0.45528822361E+03  0.47092602832E+03  0.77379771729E+02 0.  0.
        254    2    1    2    0    0  0.34454215445E+02 -0.85494067387E+02  0.82197092089E+03  0.12158118808E+04  0.89110381335E+03 0.  0.
         23    2    4    4    0    0 -0.17219345611E+03  0.15982012025E+03 -0.72073268067E+02  0.26066759545E+03  0.86948158033E+02 0.  0.
         23    2    4    4    0    0  0.20664767156E+03 -0.24531418763E+03  0.89404418896E+03  0.95514428534E+03  0.10051508936E+03 0.  0.
          4    1    3    3  502    0  0.76922197534E+01  0.62761262423E+01 -0.20144932495E+03  0.20169380389E+03  0.00000000000E+00 0. -1.
         -3    1    3    3    0  502 -0.42146435198E+02  0.79217941145E+02 -0.25383889867E+03  0.26923222444E+03  0.00000000000E+00 0.  1.
         11    1    5    5    0    0 -0.47328228689E+01  0.43208162870E+02 -0.28582936028E+02  0.52022391168E+02  0.00000000000E+00 0. -1.
        -11    1    5    5    0    0 -0.16746063325E+03  0.11661195738E+03 -0.43490332039E+02  0.20864520429E+03  0.00000000000E+00 0.  1.
          3    1    6    6  503    0  0.97337347007E+02 -0.12618723201E+03  0.58555839556E+03  0.60685781799E+03  0.00000000000E+00 0. -1.
         -3    1    6    6    0  503  0.10931032455E+03 -0.11912695562E+03  0.30848579340E+03  0.34828646735E+03  0.00000000000E+00 0.  1.
<mgrwt>
<rscale>  0 0.16463987E+04</rscale>
<asrwt>0</asrwt>
<pdfrwt beam="1">  1        2 0.15795543E+00 0.16463987E+04</pdfrwt>
<pdfrwt beam="2">  1       -1 0.10154271E+00 0.16463987E+04</pdfrwt>
<totfact> 0.24294622E+01</totfact>
</mgrwt>
</event>
<event>
12    6  0.1569942E-007  0.1406755E+04  0.7818608E-02  0.8948944E-01
          2   -1    0    0  501    0  0.00000000000E+00  0.00000000000E+00  0.33560047193E+04  0.33560047193E+04  0.00000000000E+00 0. -1.
         -1   -1    0    0    0  501 -0.00000000000E+00 -0.00000000000E+00 -0.14741927135E+03  0.14741927135E+03  0.00000000000E+00 0.  1.
         24    2    1    2    0    0  0.51985676358E+02  0.85674290961E+02 -0.38449369092E+02  0.13377915665E+03  0.79849321176E+02 0.  0.
        254    2    1    2    0    0 -0.51985676358E+02 -0.85674290961E+02  0.32470348171E+04  0.33696448340E+04  0.89511374113E+03 0.  0.
         23    2    4    4    0    0  0.32591787928E+03 -0.30364705879E+03  0.15848062593E+04  0.16485788469E+04  0.88189196852E+02 0.  0.
         23    2    4    4    0    0 -0.37790355563E+03  0.21797276783E+03  0.16622285577E+04  0.17210659871E+04  0.93494005513E+02 0.  0.
          4    1    3    3  502    0  0.26041613762E+02  0.37801040767E+02  0.23277619004E+02  0.51467775131E+02  0.00000000000E+00 0. -1.
         -3    1    3    3    0  502  0.25944062596E+02  0.47873250194E+02 -0.61726988096E+02  0.82311381519E+02  0.00000000000E+00 0.  1.
         11    1    5    5    0    0  0.19628832556E+03 -0.17393096799E+03  0.77163536787E+03  0.81498603014E+03  0.00000000000E+00 0.  1.
        -11    1    5    5    0    0  0.12962955371E+03 -0.12971609080E+03  0.81317089147E+03  0.83359281675E+03  0.00000000000E+00 0. -1.
          3    1    6    6  503    0 -0.15308664944E+03  0.62743898591E+02  0.48110474550E+03  0.50875740308E+03  0.00000000000E+00 0. -1.
         -3    1    6    6    0  503 -0.22481690619E+03  0.15522886924E+03  0.11811238122E+04  0.12123085841E+04  0.00000000000E+00 0.  1.
<mgrwt>
<rscale>  0 0.14067548E+04</rscale>
<asrwt>0</asrwt>
<pdfrwt beam="1">  1        2 0.51630836E+00 0.14067548E+04</pdfrwt>
<pdfrwt beam="2">  1       -1 0.22679890E-01 0.14067548E+04</pdfrwt>
<totfact> 0.18991864E+01</totfact>
</mgrwt>
</event>
<event>
12    6  0.1569942E-007  0.2307744E+04  0.7818608E-02  0.8474874E-01
         -1   -1    0    0    0  501 -0.00000000000E+00  0.00000000000E+00  0.65707882501E+03  0.65707882501E+03  0.00000000000E+00 0.  1.
          2   -1    0    0  501    0  0.00000000000E+00 -0.00000000000E+00 -0.20262719394E+04  0.20262719394E+04  0.00000000000E+00 0. -1.
         24    2    1    2    0    0 -0.54275925754E+03  0.19350584247E+03  0.32021670716E+03  0.66391701780E+03  0.78834917775E+02 0.  0.
        254    2    1    2    0    0  0.54275925754E+03 -0.19350584247E+03 -0.16894098215E+04  0.20194337466E+04  0.94444427523E+03 0.  0.
         23    2    4    4    0    0  0.81644976161E+02 -0.51973619185E+03 -0.83334596743E+03  0.98969494461E+03  0.90768776000E+02 0.  0.
         23    2    4    4    0    0  0.46111428138E+03  0.32623034938E+03 -0.85606385409E+03  0.10297388020E+04  0.92000307816E+02 0.  0.
          4    1    3    3  502    0 -0.16188518499E+03  0.73534321267E+02  0.13755126166E+03  0.22479870798E+03  0.00000000000E+00 0. -1.
         -3    1    3    3    0  502 -0.38087407255E+03  0.11997152120E+03  0.18266544550E+03  0.43911830982E+03  0.00000000000E+00 0.  1.
         11    1    5    5    0    0 -0.19271818617E+02 -0.12098480933E+03 -0.19693348115E+03  0.23192999608E+03  0.00000000000E+00 0.  1.
        -11    1    5    5    0    0  0.10091679478E+03 -0.39875138252E+03 -0.63641248628E+03  0.75776494854E+03  0.00000000000E+00 0. -1.
          2    1    6    6  503    0  0.36124278521E+03  0.27891149715E+03 -0.62811223305E+03  0.77641029772E+03  0.00000000000E+00 0. -1.
         -2    1    6    6    0  503  0.99871496171E+02  0.47318852232E+02 -0.22795162105E+03  0.25332850424E+03  0.00000000000E+00 0.  1.
<mgrwt>
<rscale>  0 0.23077438E+04</rscale>
<asrwt>0</asrwt>
<pdfrwt beam="1">  1        2 0.31173413E+00 0.23077438E+04</pdfrwt>
<pdfrwt beam="2">  1       -1 0.10108905E+00 0.23077438E+04</pdfrwt>
<totfact> 0.61921495E+00</totfact>
</mgrwt>
</event>
<event>
12    6  0.1569942E-007  0.1228913E+04  0.7818608E-02  0.9087919E-01
         -1   -1    0    0    0  501 -0.00000000000E+00  0.00000000000E+00  0.17561645278E+03  0.17561645278E+03  0.00000000000E+00 0.  1.
          2   -1    0    0  501    0  0.00000000000E+00 -0.00000000000E+00 -0.21498951778E+04  0.21498951778E+04  0.00000000000E+00 0. -1.
         24    2    1    2    0    0 -0.18321501185E+03 -0.20658004653E+03 -0.46964976726E+03  0.55047276886E+03  0.78780131903E+02 0.  0.
        254    2    1    2    0    0  0.18321501185E+03  0.20658004653E+03 -0.15046289577E+04  0.17750388617E+04  0.90033971581E+03 0.  0.
         23    2    4    4    0    0  0.54690092804E+00  0.83931869295E+02  0.93159941793E+02  0.15948534525E+03  0.98549189803E+02 0.  0.
         23    2    4    4    0    0  0.18266811092E+03  0.12264817723E+03 -0.15977888995E+04  0.16155535164E+04  0.93132072421E+02 0.  0.
          4    1    3    3  502    0 -0.15895971068E+03 -0.16675517489E+03 -0.43547654594E+03  0.49266144566E+03  0.00000000000E+00 0. -1.
         -3    1    3    3    0  502 -0.24255301167E+02 -0.39824871634E+02 -0.34173221320E+02  0.57811323206E+02  0.00000000000E+00 0.  1.
         11    1    5    5    0    0 -0.27467834101E+02  0.50562470678E+02  0.10058546990E+01  0.57550474324E+02  0.00000000000E+00 0.  1.
        -11    1    5    5    0    0  0.28014735029E+02  0.33369398618E+02  0.92154087094E+02  0.10193487093E+03  0.00000000000E+00 0. -1.
          4    1    6    6  503    0  0.59410508398E+02  0.91480528579E+02 -0.86007323114E+03  0.86696266271E+03  0.00000000000E+00 0. -1.
         -4    1    6    6    0  503  0.12325760252E+03  0.31167648651E+02 -0.73771566838E+03  0.74859085372E+03  0.00000000000E+00 0.  1.
<mgrwt>
<rscale>  0 0.12289133E+04</rscale>
<asrwt>0</asrwt>
<pdfrwt beam="1">  1        2 0.33075310E+00 0.12289133E+04</pdfrwt>
<pdfrwt beam="2">  1       -1 0.27017916E-01 0.12289133E+04</pdfrwt>
<totfact> 0.75895664E+01</totfact>
</mgrwt>
</event>
<event>
12    6  0.1569942E-007  0.1370810E+04  0.7818608E-02  0.8975223E-01
          4   -1    0    0  501    0  0.00000000000E+00  0.00000000000E+00  0.81913145616E+03  0.81913145616E+03  0.00000000000E+00 0. -1.
         -3   -1    0    0    0  501 -0.00000000000E+00 -0.00000000000E+00 -0.57351006979E+03  0.57351006979E+03  0.00000000000E+00 0.  1.
         24    2    1    2    0    0 -0.33574416862E+03 -0.99068057690E+00 -0.12198580155E+03  0.36593768560E+03  0.79402303175E+02 0.  0.
        254    2    1    2    0    0  0.33574416862E+03  0.99068057690E+00  0.36760718791E+03  0.10267038403E+04  0.89792015400E+03 0.  0.
         23    2    4    4    0    0 -0.12729289399E+03  0.23725922898E+03  0.40794575593E+03  0.49713241935E+03  0.90694431957E+02 0.  0.
         23    2    4    4    0    0  0.46303706261E+03 -0.23626854841E+03 -0.40338568019E+02  0.52957142100E+03  0.92695962953E+02 0.  0.
          2    1    3    3  502    0 -0.26071309083E+03  0.11996640152E+02 -0.60112453251E+02  0.26782222115E+03  0.00000000000E+00 0. -1.
         -1    1    3    3    0  502 -0.75031077790E+02 -0.12987320729E+02 -0.61873348299E+02  0.98115464447E+02  0.00000000000E+00 0.  1.
         11    1    5    5    0    0 -0.77670946907E+02  0.18894436227E+03  0.35640586264E+03  0.41080151771E+03  0.00000000000E+00 0. -1.
        -11    1    5    5    0    0 -0.49621947084E+02  0.48314866715E+02  0.51539893294E+02  0.86330901645E+02  0.00000000000E+00 0.  1.
          2    1    6    6  503    0  0.25682011217E+03 -0.12856096081E+03 -0.68401692167E+02  0.29523428350E+03  0.00000000000E+00 0. -1.
         -2    1    6    6    0  503  0.20621695044E+03 -0.10770758759E+03  0.28063124148E+02  0.23433713750E+03  0.00000000000E+00 0.  1.
<mgrwt>
<rscale>  0 0.13708102E+04</rscale>
<asrwt>0</asrwt>
<pdfrwt beam="1">  1        4 0.12602022E+00 0.13708102E+04</pdfrwt>
<pdfrwt beam="2">  1       -3 0.88232318E-01 0.13708102E+04</pdfrwt>
<totfact> 0.12173471E+00</totfact>
</mgrwt>
</event>
<event>
12    6  0.1569942E-007  0.3205514E+04  0.7818608E-02  0.8187363E-01
         -1   -1    0    0    0  501 -0.00000000000E+00  0.00000000000E+00  0.10322744728E+04  0.10322744728E+04  0.00000000000E+00 0.  1.
          2   -1    0    0  501    0  0.00000000000E+00 -0.00000000000E+00 -0.24885139378E+04  0.24885139378E+04  0.00000000000E+00 0. -1.
         24    2    1    2    0    0  0.20069602921E+03 -0.22870764076E+03 -0.22604039378E+04  0.22821835298E+04  0.79684507646E+02 0.  0.
        254    2    1    2    0    0 -0.20069602921E+03  0.22870764076E+03  0.80416447276E+03  0.12386048807E+04  0.89155788941E+03 0.  0.
         23    2    4    4    0    0  0.51644397701E+02  0.52861387792E+03  0.43827594116E+03  0.69474371692E+03  0.92104591957E+02 0.  0.
         23    2    4    4    0    0 -0.25234042691E+03 -0.29990623716E+03  0.36588853160E+03  0.54386116378E+03  0.91055509295E+02 0.  0.
          2    1    3    3  502    0  0.57983419084E+02 -0.10920862581E+03 -0.11028153321E+04  0.11097253073E+04  0.00000000000E+00 0. -1.
         -1    1    3    3    0  502  0.14271261013E+03 -0.11949901495E+03 -0.11575886057E+04  0.11724582226E+04  0.00000000000E+00 0.  1.
         11    1    5    5    0    0  0.48051884149E+02  0.11909032597E+03  0.86172838260E+02  0.15465202024E+03  0.00000000000E+00 0. -1.
        -11    1    5    5    0    0  0.35925135521E+01  0.40952355195E+03  0.35210310290E+03  0.54009169668E+03  0.00000000000E+00 0.  1.
          3    1    6    6  503    0 -0.74331599297E+02 -0.51098676009E+02  0.46081891766E+02  0.10129068117E+03  0.00000000000E+00 0. -1.
         -3    1    6    6    0  503 -0.17800882762E+03 -0.24880756115E+03  0.31980663983E+03  0.44257048261E+03  0.00000000000E+00 0.  1.
<mgrwt>
<rscale>  0 0.32055136E+04</rscale>
<asrwt>0</asrwt>
<pdfrwt beam="1">  1        2 0.38284829E+00 0.32055136E+04</pdfrwt>
<pdfrwt beam="2">  1       -1 0.15881146E+00 0.32055136E+04</pdfrwt>
<totfact> 0.10087256E+00</totfact>
</mgrwt>
</event>
<event>
12    6  0.1569942E-007  0.1637008E+04  0.7818608E-02  0.8798129E-01
          2   -1    0    0  501    0  0.00000000000E+00  0.00000000000E+00  0.15610417653E+04  0.15610417653E+04  0.00000000000E+00 0. -1.
         -1   -1    0    0    0  501 -0.00000000000E+00 -0.00000000000E+00 -0.42916798061E+03  0.42916798061E+03  0.00000000000E+00 0.  1.
         24    2    1    2    0    0 -0.33692438757E+03 -0.24825257305E+03  0.66105024220E+03  0.78646801503E+03  0.79982079221E+02 0.  0.
        254    2    1    2    0    0  0.33692438757E+03  0.24825257305E+03  0.47082354245E+03  0.12037417308E+04  0.10257543388E+04 0.  0.
         23    2    4    4    0    0  0.52739333288E+03  0.49222648304E+03  0.13781671926E+03  0.74007551259E+03  0.91036685270E+02 0.  0.
         23    2    4    4    0    0 -0.19046894530E+03 -0.24397390999E+03  0.33300682320E+03  0.46366621825E+03  0.91055641082E+02 0.  0.
          2    1    3    3  502    0 -0.29571363489E+03 -0.18530004015E+03  0.51377616645E+03  0.62108663482E+03  0.00000000000E+00 0. -1.
         -1    1    3    3    0  502 -0.41210752689E+02 -0.62952532895E+02  0.14727407575E+03  0.16538138022E+03  0.00000000000E+00 0.  1.
         11    1    5    5    0    0  0.27139943497E+03  0.29330052053E+03  0.40845496530E+02  0.40168545310E+03  0.00000000000E+00 0. -1.
        -11    1    5    5    0    0  0.25599389791E+03  0.19892596250E+03  0.96971222726E+02  0.33839005949E+03  0.00000000000E+00 0.  1.
          2    1    6    6  503    0 -0.64045574102E+02 -0.85171279085E+02  0.18114131974E+03  0.21016222320E+03  0.00000000000E+00 0. -1.
         -2    1    6    6    0  503 -0.12642337120E+03 -0.15880263090E+03  0.15186550346E+03  0.25350399506E+03  0.00000000000E+00 0.  1.
<mgrwt>
<rscale>  0 0.16370084E+04</rscale>
<asrwt>0</asrwt>
<pdfrwt beam="1">  1        2 0.24016027E+00 0.16370084E+04</pdfrwt>
<pdfrwt beam="2">  1       -1 0.66025844E-01 0.16370084E+04</pdfrwt>
<totfact> 0.29703389E+01</totfact>
</mgrwt>
</event>
<event>
12    6  0.1569942E-007  0.1205385E+04  0.7818608E-02  0.9108156E-01
          2   -1    0    0  501    0  0.00000000000E+00  0.00000000000E+00  0.23517212421E+04  0.23517212421E+04  0.00000000000E+00 0. -1.
         -1   -1    0    0    0  501 -0.00000000000E+00 -0.00000000000E+00 -0.15445623204E+03  0.15445623204E+03  0.00000000000E+00 0.  1.
         24    2    1    2    0    0  0.10046337995E+03 -0.19788840839E+03  0.83581101798E+03  0.86834974575E+03  0.78730618427E+02 0.  0.
        254    2    1    2    0    0 -0.10046337995E+03  0.19788840839E+03  0.13614539921E+04  0.16378277284E+04  0.88298923120E+03 0.  0.
         23    2    4    4    0    0 -0.20219712856E+02  0.53565868870E+03  0.72072238538E+03  0.90306978291E+03  0.93569270893E+02 0.  0.
         23    2    4    4    0    0 -0.80243667095E+02 -0.33777028031E+03  0.64073160669E+03  0.73475794546E+03  0.93831968054E+02 0.  0.
          4    1    3    3  502    0  0.25852888528E+02 -0.77217033763E+02  0.18299107243E+03  0.20029122481E+03  0.00000000000E+00 0. -1.
         -3    1    3    3    0  502  0.74610491422E+02 -0.12067137463E+03  0.65281994555E+03  0.66805852094E+03  0.00000000000E+00 0.  1.
         11    1    5    5    0    0  0.11934371089E+02  0.15390136353E+03  0.27469772930E+03  0.31509824086E+03  0.00000000000E+00 0.  1.
        -11    1    5    5    0    0 -0.32154083945E+02  0.38175732517E+03  0.44602465608E+03  0.58797154206E+03  0.00000000000E+00 0. -1.
          3    1    6    6  503    0 -0.76002619860E+02 -0.27226136399E+03  0.58050896314E+03  0.64567275367E+03  0.00000000000E+00 0. -1.
         -3    1    6    6    0  503 -0.42410472355E+01 -0.65508916323E+02  0.60222643552E+02  0.89085191788E+02  0.00000000000E+00 0.  1.
<mgrwt>
<rscale>  0 0.12053846E+04</rscale>
<asrwt>0</asrwt>
<pdfrwt beam="1">  1        2 0.36180324E+00 0.12053846E+04</pdfrwt>
<pdfrwt beam="2">  1       -1 0.23762499E-01 0.12053846E+04</pdfrwt>
<totfact> 0.73058736E+01</totfact>
</mgrwt>
</event>
<event>
12    6  0.1569942E-007  0.3345510E+04  0.7818608E-02  0.8151411E-01
          2   -1    0    0  501    0  0.00000000000E+00  0.00000000000E+00  0.24732094483E+04  0.24732094483E+04  0.00000000000E+00 0. -1.
         -1   -1    0    0    0  501 -0.00000000000E+00 -0.00000000000E+00 -0.11313679329E+04  0.11313679329E+04  0.00000000000E+00 0.  1.
         24    2    1    2    0    0 -0.14011024716E+03 -0.26974922192E+03 -0.10162165158E+04  0.10636176593E+04  0.78682869893E+02 0.  0.
        254    2    1    2    0    0  0.14011024716E+03  0.26974922192E+03  0.23580580312E+04  0.25409597219E+04  0.89646143565E+03 0.  0.
         23    2    4    4    0    0 -0.12801720769E+03 -0.27965261133E+03  0.97345201234E+03  0.10247385752E+04  0.88805059660E+02 0.  0.
         23    2    4    4    0    0  0.26812745484E+03  0.54940183325E+03  0.13846060189E+04  0.15162211467E+04  0.89766540801E+02 0.  0.
          2    1    3    3  502    0 -0.22968028074E+02 -0.42216192766E+02 -0.82629346431E+02  0.95589466663E+02  0.00000000000E+00 0. -1.
         -1    1    3    3    0  502 -0.11714221908E+03 -0.22753302916E+03 -0.93358716936E+03  0.96802819259E+03  0.00000000000E+00 0.  1.
         11    1    5    5    0    0 -0.71362483033E+02 -0.22113497094E+03  0.62237470131E+03  0.66433692370E+03  0.00000000000E+00 0. -1.
        -11    1    5    5    0    0 -0.56654724656E+02 -0.58517640388E+02  0.35107731103E+03  0.36040165147E+03  0.00000000000E+00 0.  1.
          3    1    6    6  503    0  0.26914438855E+03  0.54862831404E+03  0.13857487723E+04  0.15145069788E+04  0.00000000000E+00 0. -1.
         -3    1    6    6    0  503 -0.10169337034E+01  0.77351921511E+00 -0.11427534637E+01  0.17141679066E+01  0.00000000000E+00 0.  1.
<mgrwt>
<rscale>  0 0.33455103E+04</rscale>
<asrwt>0</asrwt>
<pdfrwt beam="1">  1        2 0.38049376E+00 0.33455103E+04</pdfrwt>
<pdfrwt beam="2">  1       -1 0.17405661E+00 0.33455103E+04</pdfrwt>
<totfact> 0.78389996E-01</totfact>
</mgrwt>
</event>
<event>
12    6  0.1569942E-007  0.1561297E+04  0.7818608E-02  0.8844684E-01
          2   -1    0    0  501    0  0.00000000000E+00  0.00000000000E+00  0.79926388068E+03  0.79926388068E+03  0.00000000000E+00 0. -1.
         -1   -1    0    0    0  501 -0.00000000000E+00 -0.00000000000E+00 -0.76246628699E+03  0.76246628699E+03  0.00000000000E+00 0.  1.
         24    2    1    2    0    0  0.36945311582E+02  0.37307167675E+03 -0.34498072108E+03  0.51572580157E+03  0.80087280216E+02 0.  0.
        254    2    1    2    0    0 -0.36945311582E+02 -0.37307167675E+03  0.38177831477E+03  0.10460043661E+04  0.89878975307E+03 0.  0.
         23    2    4    4    0    0 -0.39670457587E+02 -0.22939395301E+03 -0.27290573760E+03  0.36982616730E+03  0.89991785884E+02 0.  0.
         23    2    4    4    0    0  0.27251460047E+01 -0.14367772374E+03  0.65468405237E+03  0.67617819880E+03  0.89190993843E+02 0.  0.
          2    1    3    3  502    0  0.24081734342E+02  0.40425911383E+02 -0.22165670148E+02  0.52014432355E+02  0.00000000000E+00 0. -1.
         -3    1    3    3    0  502  0.12863577239E+02  0.33264576537E+03 -0.32281505093E+03  0.46371136922E+03  0.00000000000E+00 0.  1.
         11    1    5    5    0    0 -0.65320834368E+02 -0.16701262840E+03 -0.22164992830E+03  0.28511176784E+03  0.00000000000E+00 0. -1.
        -11    1    5    5    0    0  0.25650376781E+02 -0.62381324612E+02 -0.51255809297E+02  0.84714399461E+02  0.00000000000E+00 0.  1.
          1    1    6    6  503    0  0.28310097564E+01 -0.13228830209E+03  0.65084425860E+03  0.66415845884E+03  0.00000000000E+00 0. -1.
         -1    1    6    6    0  503 -0.10586375167E+00 -0.11389421644E+02  0.38397937639E+01  0.12019739959E+02  0.00000000000E+00 0.  1.
<mgrwt>
<rscale>  0 0.15612966E+04</rscale>
<asrwt>0</asrwt>
<pdfrwt beam="1">  1        2 0.12296367E+00 0.15612966E+04</pdfrwt>
<pdfrwt beam="2">  1       -1 0.11730251E+00 0.15612966E+04</pdfrwt>
<totfact> 0.24787178E+01</totfact>
</mgrwt>
</event>
<event>
12    6  0.1569942E-007  0.3058135E+04  0.7818608E-02  0.8227322E-01
          2   -1    0    0  501    0  0.00000000000E+00  0.00000000000E+00  0.33327931232E+04  0.33327931232E+04  0.00000000000E+00 0. -1.
         -1   -1    0    0    0  501 -0.00000000000E+00 -0.00000000000E+00 -0.70152776990E+03  0.70152776990E+03  0.00000000000E+00 0.  1.
         24    2    1    2    0    0  0.57962309006E+03  0.10307545377E+03 -0.47251608112E+03  0.75954666082E+03  0.83977421604E+02 0.  0.
        254    2    1    2    0    0 -0.57962309006E+03 -0.10307545377E+03  0.31037814344E+04  0.32747742322E+04  0.86261208201E+03 0.  0.
         23    2    4    4    0    0 -0.37644319135E+03 -0.47191262517E+03  0.19382037200E+04  0.20321342387E+04  0.92330394349E+02 0.  0.
         23    2    4    4    0    0 -0.20317989871E+03  0.36883717140E+03  0.11655777144E+04  0.12426399935E+04  0.90883524730E+02 0.  0.
          4    1    3    3  502    0  0.21755035534E+03  0.20682196993E+02 -0.22265902446E+03  0.31198229366E+03  0.00000000000E+00 0. -1.
         -3    1    3    3    0  502  0.36207273472E+03  0.82393256777E+02 -0.24985705666E+03  0.44756436716E+03  0.00000000000E+00 0.  1.
         11    1    5    5    0    0 -0.25812559272E+03 -0.32520293326E+03  0.11821482907E+04  0.12529406812E+04  0.00000000000E+00 0.  1.
        -11    1    5    5    0    0 -0.11831759863E+03 -0.14670969190E+03  0.75605542933E+03  0.77919355750E+03  0.00000000000E+00 0. -1.
          1    1    6    6  503    0 -0.10042239309E+03  0.14440137577E+03  0.37057338951E+03  0.41019635709E+03  0.00000000000E+00 0. -1.
         -1    1    6    6    0  503 -0.10275750562E+03  0.22443579563E+03  0.79500432484E+03  0.83244363643E+03  0.00000000000E+00 0.  1.
<mgrwt>
<rscale>  0 0.30581347E+04</rscale>
<asrwt>0</asrwt>
<pdfrwt beam="1">  1        2 0.51273739E+00 0.30581347E+04</pdfrwt>
<pdfrwt beam="2">  1       -1 0.10792735E+00 0.30581347E+04</pdfrwt>
<totfact> 0.81726083E-01</totfact>
</mgrwt>
</event>
<event>
12    6  0.1569942E-007  0.1140912E+04  0.7818608E-02  0.9166208E-01
          2   -1    0    0  501    0  0.00000000000E+00  0.00000000000E+00  0.23554113343E+04  0.23554113343E+04  0.00000000000E+00 0. -1.
         -1   -1    0    0    0  501 -0.00000000000E+00 -0.00000000000E+00 -0.13815858170E+03  0.13815858170E+03  0.00000000000E+00 0.  1.
         24    2    1    2    0    0  0.11758995094E+03  0.17945792588E+03  0.25177242770E+03  0.34010535885E+03  0.79055398601E+02 0.  0.
        254    2    1    2    0    0 -0.11758995094E+03 -0.17945792588E+03  0.19654803249E+04  0.21534645572E+04  0.85338393915E+03 0.  0.
         23    2    4    4    0    0  0.26016058793E+03 -0.35280625080E+03  0.87308225858E+03  0.98115546103E+03  0.90761370297E+02 0.  0.
         23    2    4    4    0    0 -0.37775053887E+03  0.17334832493E+03  0.10923980663E+04  0.11723090961E+04  0.90719183044E+02 0.  0.
          4    1    3    3  502    0  0.64609427959E+02  0.79930896898E+02  0.17744288607E+03  0.20505927016E+03  0.00000000000E+00 0. -1.
         -3    1    3    3    0  502  0.52980522983E+02  0.99527028981E+02  0.74329541625E+02  0.13504608869E+03  0.00000000000E+00 0.  1.
         11    1    5    5    0    0 -0.10208684825E+01 -0.14963590717E+02  0.94787362349E+01  0.17742538156E+02  0.00000000000E+00 0.  1.
        -11    1    5    5    0    0  0.26118145641E+03 -0.33784266009E+03  0.86360352235E+03  0.96341292288E+03  0.00000000000E+00 0. -1.
          3    1    6    6  503    0 -0.32715089920E+03  0.12695333783E+03  0.83121273472E+03  0.90225244316E+03  0.00000000000E+00 0. -1.
         -3    1    6    6    0  503 -0.50599639669E+02  0.46394987096E+02  0.26118533160E+03  0.27005665296E+03  0.00000000000E+00 0.  1.
<mgrwt>
<rscale>  0 0.11409124E+04</rscale>
<asrwt>0</asrwt>
<pdfrwt beam="1">  1        2 0.36237094E+00 0.11409124E+04</pdfrwt>
<pdfrwt beam="2">  1       -1 0.21255168E-01 0.11409124E+04</pdfrwt>
<totfact> 0.88319974E+01</totfact>
</mgrwt>
</event>
<event>
12    6  0.1569942E-007  0.3578223E+04  0.7818608E-02  0.8095498E-01
          2   -1    0    0  501    0  0.00000000000E+00  0.00000000000E+00  0.34263140435E+04  0.34263140435E+04  0.00000000000E+00 0. -1.
         -1   -1    0    0    0  501 -0.00000000000E+00 -0.00000000000E+00 -0.93421665692E+03  0.93421665692E+03  0.00000000000E+00 0.  1.
         24    2    1    2    0    0 -0.61829991962E+03  0.93717021497E+03  0.26781173517E+04  0.29050656053E+04  0.80689647635E+02 0.  0.
        254    2    1    2    0    0  0.61829991962E+03 -0.93717021497E+03 -0.18601996516E+03  0.14554650951E+04  0.90729951675E+03 0.  0.
         23    2    4    4    0    0  0.63826746653E+02 -0.50080580863E+03 -0.46358116953E+03  0.69173466602E+03  0.93322215421E+02 0.  0.
         23    2    4    4    0    0  0.55447317297E+03 -0.43636440635E+03  0.27756120437E+03  0.76373042905E+03  0.91594494483E+02 0.  0.
          2    1    3    3  502    0 -0.38778534541E+03  0.63214328033E+03  0.18416794975E+04  0.19853881164E+04  0.00000000000E+00 0. -1.
         -1    1    3    3    0  502 -0.23051457422E+03  0.30502693465E+03  0.83643785420E+03  0.91967748897E+03  0.00000000000E+00 0.  1.
         11    1    5    5    0    0  0.65902215277E+02 -0.38473419661E+03 -0.30586685270E+03  0.49590123574E+03  0.00000000000E+00 0. -1.
        -11    1    5    5    0    0 -0.20754686238E+01 -0.11607161201E+03 -0.15771431683E+03  0.19583343028E+03  0.00000000000E+00 0.  1.
          1    1    6    6  503    0  0.46121989000E+03 -0.33730156490E+03  0.25543088227E+03  0.62589221774E+03  0.00000000000E+00 0. -1.
         -1    1    6    6    0  503  0.93253282975E+02 -0.99062841449E+02  0.22130322097E+02  0.13783821131E+03  0.00000000000E+00 0.  1.
<mgrwt>
<rscale>  0 0.35782228E+04</rscale>
<asrwt>0</asrwt>
<pdfrwt beam="1">  1        2 0.52712523E+00 0.35782228E+04</pdfrwt>
<pdfrwt beam="2">  1       -1 0.14372564E+00 0.35782228E+04</pdfrwt>
<totfact> 0.33106007E-01</totfact>
</mgrwt>
</event>
<event>
12    6  0.1569942E-007  0.2523584E+04  0.7818608E-02  0.8394631E-01
         -1   -1    0    0    0  501 -0.00000000000E+00  0.00000000000E+00  0.72192638381E+03  0.72192638381E+03  0.00000000000E+00 0.  1.
          2   -1    0    0  501    0  0.00000000000E+00 -0.00000000000E+00 -0.22053764866E+04  0.22053764866E+04  0.00000000000E+00 0. -1.
         24    2    1    2    0    0  0.18399988870E+02  0.19032673408E+03  0.60972870397E+03  0.64405569250E+03  0.80472463043E+02 0.  0.
        254    2    1    2    0    0 -0.18399988870E+02 -0.19032673408E+03 -0.20931788068E+04  0.22832471779E+04  0.89177201854E+03 0.  0.
         23    2    4    4    0    0  0.34620322541E+03 -0.16771564551E+03 -0.45707672599E+03  0.60436442955E+03  0.91389382472E+02 0.  0.
         23    2    4    4    0    0 -0.36460321428E+03 -0.22611088566E+02 -0.16361020808E+04  0.16788827484E+04  0.91490430282E+02 0.  0.
          4    1    3    3  502    0 -0.66048477483E+01  0.44971083078E+01  0.22552150004E+01  0.83026496740E+01  0.00000000000E+00 0. -1.
         -3    1    3    3    0  502  0.25004836618E+02  0.18582962577E+03  0.60747348897E+03  0.63575304283E+03  0.00000000000E+00 0.  1.
         11    1    5    5    0    0  0.72921901467E+02 -0.35021794360E+02 -0.16087916049E+03  0.18007285768E+03  0.00000000000E+00 0.  1.
        -11    1    5    5    0    0  0.27328132394E+03 -0.13269385115E+03 -0.29619756550E+03  0.42429157187E+03  0.00000000000E+00 0. -1.
          2    1    6    6  503    0 -0.22784108717E+03  0.25662499121E+01 -0.11896689244E+04  0.12112928202E+04  0.00000000000E+00 0. -1.
         -2    1    6    6    0  503 -0.13676212711E+03 -0.25177338479E+02 -0.44643315643E+03  0.46758992819E+03  0.00000000000E+00 0.  1.
<mgrwt>
<rscale>  0 0.25235843E+04</rscale>
<asrwt>0</asrwt>
<pdfrwt beam="1">  1        2 0.33928869E+00 0.25235843E+04</pdfrwt>
<pdfrwt beam="2">  1       -1 0.11106560E+00 0.25235843E+04</pdfrwt>
<totfact> 0.38727401E+00</totfact>
</mgrwt>
</event>
<event>
12    6  0.1569942E-007  0.1803149E+04  0.7818608E-02  0.8704627E-01
         -1   -1    0    0    0  501 -0.00000000000E+00  0.00000000000E+00  0.40369638349E+03  0.40369638349E+03  0.00000000000E+00 0.  1.
          2   -1    0    0  501    0  0.00000000000E+00 -0.00000000000E+00 -0.20134847388E+04  0.20134847388E+04  0.00000000000E+00 0. -1.
         24    2    1    2    0    0  0.35151364727E+03 -0.35039140479E+03 -0.12150684957E+04  0.13149493331E+04  0.79776679147E+02 0.  0.
        254    2    1    2    0    0 -0.35151364727E+03  0.35039140479E+03 -0.39471985958E+03  0.11022317892E+04  0.90154044213E+03 0.  0.
         23    2    4    4    0    0 -0.38653785256E+03 -0.12088146412E+03  0.82132050478E+02  0.42460686958E+03  0.97578072080E+02 0.  0.
         23    2    4    4    0    0  0.35024205287E+02  0.47127286891E+03 -0.47685191006E+03  0.67762491962E+03  0.91994432612E+02 0.  0.
          4    1    3    3  502    0  0.18127925498E+03 -0.15397027396E+03 -0.67283257294E+03  0.71363343865E+03  0.00000000000E+00 0. -1.
         -3    1    3    3    0  502  0.17023439229E+03 -0.19642113083E+03 -0.54223592278E+03  0.60131589444E+03  0.00000000000E+00 0.  1.
         11    1    5    5    0    0 -0.21360228069E+03 -0.11300869867E+03  0.67338402672E+02  0.25086123807E+03  0.00000000000E+00 0. -1.
        -11    1    5    5    0    0 -0.17293557187E+03 -0.78727654465E+01  0.14793647806E+02  0.17374563151E+03  0.00000000000E+00 0.  1.
          2    1    6    6  503    0  0.14488719046E+02  0.44337720700E+03 -0.41907489107E+03  0.61025980942E+03  0.00000000000E+00 0. -1.
         -2    1    6    6    0  503  0.20535486241E+02  0.27895661907E+02 -0.57777018988E+02  0.67365110194E+02  0.00000000000E+00 0.  1.
<mgrwt>
<rscale>  0 0.18031489E+04</rscale>
<asrwt>0</asrwt>
<pdfrwt beam="1">  1        2 0.30976689E+00 0.18031489E+04</pdfrwt>
<pdfrwt beam="2">  1       -1 0.62107135E-01 0.18031489E+04</pdfrwt>
<totfact> 0.18560405E+01</totfact>
</mgrwt>
</event>
<event>
12    6  0.1569942E-007  0.1937290E+04  0.7818608E-02  0.8636514E-01
          2   -1    0    0  501    0  0.00000000000E+00  0.00000000000E+00  0.11965799033E+04  0.11965799033E+04  0.00000000000E+00 0. -1.
         -1   -1    0    0    0  501 -0.00000000000E+00 -0.00000000000E+00 -0.78412927878E+03  0.78412927878E+03  0.00000000000E+00 0.  1.
         24    2    1    2    0    0 -0.64530430759E+02 -0.59598289309E+03  0.63646610241E+03  0.87799344267E+03  0.80147367347E+02 0.  0.
        254    2    1    2    0    0  0.64530430759E+02  0.59598289309E+03 -0.22401547788E+03  0.11027157394E+04  0.89801964471E+03 0.  0.
         23    2    4    4    0    0 -0.17016588530E+03  0.73181035531E+03 -0.29485329087E+02  0.75703895628E+03  0.87953237792E+02 0.  0.
         23    2    4    4    0    0  0.23469631606E+03 -0.13582746221E+03 -0.19453014879E+03  0.34567678315E+03  0.90105490151E+02 0.  0.
          4    1    3    3  502    0 -0.80688863965E+02 -0.42497745358E+03  0.47085957608E+03  0.63939445509E+03  0.00000000000E+00 0. -1.
         -3    1    3    3    0  502  0.16158433206E+02 -0.17100543951E+03  0.16560652633E+03  0.23859898757E+03  0.00000000000E+00 0.  1.
         11    1    5    5    0    0 -0.71884387088E+02  0.17629107653E+03  0.16044693378E+02  0.19105847523E+03  0.00000000000E+00 0.  1.
        -11    1    5    5    0    0 -0.98281498208E+02  0.55551927878E+03 -0.45530022465E+02  0.56598048105E+03  0.00000000000E+00 0. -1.
          4    1    6    6  503    0  0.20022108563E+03 -0.11580041349E+03 -0.19956449439E+03  0.30549010838E+03  0.00000000000E+00 0. -1.
         -4    1    6    6    0  503  0.34475230424E+02 -0.20027048721E+02  0.50343455965E+01  0.40186674767E+02  0.00000000000E+00 0.  1.
<mgrwt>
<rscale>  0 0.19372902E+04</rscale>
<asrwt>0</asrwt>
<pdfrwt beam="1">  1        2 0.18408922E+00 0.19372902E+04</pdfrwt>
<pdfrwt beam="2">  1       -1 0.12063527E+00 0.19372902E+04</pdfrwt>
<totfact> 0.12383002E+01</totfact>
</mgrwt>
</event>
<event>
12    6  0.1569942E-007  0.1318449E+04  0.7818608E-02  0.9015061E-01
         -1   -1    0    0    0  501 -0.00000000000E+00  0.00000000000E+00  0.55200395873E+03  0.55200395873E+03  0.00000000000E+00 0.  1.
          2   -1    0    0  501    0  0.00000000000E+00 -0.00000000000E+00 -0.78727192710E+03  0.78727192710E+03  0.00000000000E+00 0. -1.
         24    2    1    2    0    0  0.30299849068E+03  0.14668992198E+03 -0.13185468850E+03  0.37037842625E+03  0.80426992909E+02 0.  0.
        254    2    1    2    0    0 -0.30299849068E+03 -0.14668992198E+03 -0.10341327987E+03  0.96889745957E+03  0.90263057900E+03 0.  0.
         23    2    4    4    0    0  0.22709493073E+03 -0.63715653357E+02 -0.29589246349E+03  0.38982000681E+03  0.93677615861E+02 0.  0.
         23    2    4    4    0    0 -0.53009342141E+03 -0.82974268627E+02  0.19247918362E+03  0.57907745276E+03  0.10197399414E+03 0.  0.
          4    1    3    3  502    0  0.48326358141E+02 -0.20482199636E+01 -0.35898596321E+02  0.60235714605E+02  0.00000000000E+00 0. -1.
         -3    1    3    3    0  502  0.25467213254E+03  0.14873814195E+03 -0.95956092175E+02  0.31014271165E+03  0.00000000000E+00 0.  1.
         11    1    5    5    0    0  0.12915621266E+03 -0.82923214308E+02 -0.19109076858E+03  0.24509848750E+03  0.00000000000E+00 0. -1.
        -11    1    5    5    0    0  0.97938718066E+02  0.19207560950E+02 -0.10480169492E+03  0.14472151931E+03  0.00000000000E+00 0.  1.
          4    1    6    6  503    0 -0.24225568888E+03  0.71370614489E+01  0.11152135165E+03  0.26678787138E+03  0.00000000000E+00 0. -1.
         -4    1    6    6    0  503 -0.28783773253E+03 -0.90111330076E+02  0.80957831970E+02  0.31228958137E+03  0.00000000000E+00 0.  1.
<mgrwt>
<rscale>  0 0.13184494E+04</rscale>
<asrwt>0</asrwt>
<pdfrwt beam="1">  1        2 0.12111876E+00 0.13184494E+04</pdfrwt>
<pdfrwt beam="2">  1       -1 0.84923686E-01 0.13184494E+04</pdfrwt>
<totfact> 0.53975198E+01</totfact>
</mgrwt>
</event>
<event>
12    6  0.1569942E-007  0.3152765E+04  0.7818608E-02  0.8201404E-01
          2   -1    0    0  501    0  0.00000000000E+00  0.00000000000E+00  0.12407768262E+04  0.12407768262E+04  0.00000000000E+00 0. -1.
         -1   -1    0    0    0  501 -0.00000000000E+00 -0.00000000000E+00 -0.20027627747E+04  0.20027627747E+04  0.00000000000E+00 0.  1.
         24    2    1    2    0    0  0.12741024198E+03 -0.10280031442E+04 -0.14016912090E+04  0.17447965560E+04  0.80950244785E+02 0.  0.
        254    2    1    2    0    0 -0.12741024198E+03  0.10280031442E+04  0.63970526044E+03  0.14987430449E+04  0.87406181711E+03 0.  0.
         23    2    4    4    0    0 -0.17793579517E+03  0.37789820000E+03  0.71819454917E+03  0.83555326949E+03  0.88756176931E+02 0.  0.
         23    2    4    4    0    0  0.50525553191E+02  0.65010494425E+03 -0.78489288725E+02  0.66318977543E+03  0.92037164954E+02 0.  0.
          2    1    3    3  502    0  0.82295003655E+02 -0.66068324146E+03 -0.96485511153E+03  0.11722713847E+04  0.00000000000E+00 0. -1.
         -1    1    3    3    0  502  0.45115238321E+02 -0.36731990279E+03 -0.43683609744E+03  0.57252517127E+03  0.00000000000E+00 0.  1.
         11    1    5    5    0    0 -0.96390979361E+01  0.92048432292E+02  0.12002652092E+03  0.15156580030E+03  0.00000000000E+00 0.  1.
        -11    1    5    5    0    0 -0.16829669723E+03  0.28584976771E+03  0.59816802824E+03  0.68398746919E+03  0.00000000000E+00 0. -1.
          3    1    6    6  503    0  0.73180458726E+02  0.58511833646E+03 -0.68360079916E+02  0.59362610095E+03  0.00000000000E+00 0. -1.
         -3    1    6    6    0  503 -0.22654905535E+02  0.64986607784E+02 -0.10129208809E+02  0.69563674480E+02  0.00000000000E+00 0.  1.
<mgrwt>
<rscale>  0 0.31527649E+04</rscale>
<asrwt>0</asrwt>
<pdfrwt beam="1">  1        2 0.19088874E+00 0.31527649E+04</pdfrwt>
<pdfrwt beam="2">  1       -1 0.30811735E+00 0.31527649E+04</pdfrwt>
<totfact> 0.50439871E-01</totfact>
</mgrwt>
</event>
<event>
12    6  0.1569942E-007  0.1616582E+04  0.7818608E-02  0.8810425E-01
         -1   -1    0    0    0  501 -0.00000000000E+00  0.00000000000E+00  0.35114023381E+03  0.35114023381E+03  0.00000000000E+00 0.  1.
          2   -1    0    0  501    0  0.00000000000E+00 -0.00000000000E+00 -0.18606087891E+04  0.18606087891E+04  0.00000000000E+00 0. -1.
         24    2    1    2    0    0  0.50465511057E+02 -0.87359098516E+02  0.17708835894E+03  0.21902938792E+03  0.80219735733E+02 0.  0.
        254    2    1    2    0    0 -0.50465511057E+02  0.87359098516E+02 -0.16865569142E+04  0.19927196350E+04  0.10565410256E+04 0.  0.
         23    2    4    4    0    0  0.24788660557E+03 -0.48957417976E+02  0.32188806750E+01  0.26905205753E+03  0.92379924603E+02 0.  0.
         23    2    4    4    0    0 -0.29835211663E+03  0.13631651649E+03 -0.16897757949E+04  0.17236675774E+04  0.89952778355E+02 0.  0.
          4    1    3    3  502    0  0.59983453316E+02 -0.26205252857E+02  0.74062453755E+02  0.98843194026E+02  0.00000000000E+00 0. -1.
         -3    1    3    3    0  502 -0.95179422590E+01 -0.61153845659E+02  0.10302590519E+03  0.12018619390E+03  0.00000000000E+00 0.  1.
         11    1    5    5    0    0  0.17624889405E+03  0.27972523372E+01 -0.20734505445E+02  0.17748638537E+03  0.00000000000E+00 0. -1.
        -11    1    5    5    0    0  0.71637711520E+02 -0.51754670314E+02  0.23953386120E+02  0.91565672158E+02  0.00000000000E+00 0.  1.
          3    1    6    6  503    0 -0.22250203431E+03  0.12931185488E+03 -0.11431304077E+04  0.11717405174E+04  0.00000000000E+00 0. -1.
         -3    1    6    6    0  503 -0.75850082317E+02  0.70046616110E+01 -0.54664538719E+03  0.55192706004E+03  0.00000000000E+00 0.  1.
<mgrwt>
<rscale>  0 0.16165823E+04</rscale>
<asrwt>0</asrwt>
<pdfrwt beam="1">  1        2 0.28624751E+00 0.16165823E+04</pdfrwt>
<pdfrwt beam="2">  1       -1 0.54021573E-01 0.16165823E+04</pdfrwt>
<totfact> 0.30138715E+01</totfact>
</mgrwt>
</event>
<event>
12    6  0.1569942E-007  0.1557526E+04  0.7818608E-02  0.8847075E-01
          2   -1    0    0  501    0  0.00000000000E+00  0.00000000000E+00  0.24104954706E+04  0.24104954706E+04  0.00000000000E+00 0. -1.
         -1   -1    0    0    0  501 -0.00000000000E+00 -0.00000000000E+00 -0.25159617841E+03  0.25159617841E+03  0.00000000000E+00 0.  1.
         24    2    1    2    0    0 -0.26860504824E+03  0.80598334426E+02 -0.42678056071E+02  0.29330638914E+03  0.74581887786E+02 0.  0.
        254    2    1    2    0    0  0.26860504824E+03 -0.80598334426E+02  0.22015773483E+04  0.23687852599E+04  0.82798310583E+03 0.  0.
         23    2    4    4    0    0  0.19566864399E+03 -0.34003408100E+03  0.49324596114E+03  0.63699634357E+03  0.92538473395E+02 0.  0.
         23    2    4    4    0    0  0.72936404255E+02  0.25943574658E+03  0.17083313872E+04  0.17317889163E+04  0.89833717058E+02 0.  0.
          2    1    3    3  502    0 -0.84616555344E+02  0.57792987855E+02  0.24415961148E+01  0.10249854767E+03  0.00000000000E+00 0. -1.
         -1    1    3    3    0  502 -0.18398849290E+03  0.22805346571E+02 -0.45119652186E+02  0.19080784146E+03  0.00000000000E+00 0.  1.
         11    1    5    5    0    0  0.88950927240E+02 -0.22951979402E+03  0.34233136022E+03  0.42164245931E+03  0.00000000000E+00 0.  1.
        -11    1    5    5    0    0  0.10671771675E+03 -0.11051428698E+03  0.15091460092E+03  0.21535388426E+03  0.00000000000E+00 0. -1.
          2    1    6    6  503    0 -0.62031974681E+01  0.54620084857E+01  0.11113882959E+02  0.13850328153E+02  0.00000000000E+00 0. -1.
         -2    1    6    6    0  503  0.79139601723E+02  0.25397373809E+03  0.16972175042E+04  0.17179385882E+04  0.00000000000E+00 0.  1.
<mgrwt>
<rscale>  0 0.15575255E+04</rscale>
<asrwt>0</asrwt>
<pdfrwt beam="1">  1        2 0.37084544E+00 0.15575255E+04</pdfrwt>
<pdfrwt beam="2">  1       -1 0.38707106E-01 0.15575255E+04</pdfrwt>
<totfact> 0.27835871E+01</totfact>
</mgrwt>
</event>
<event>
12    6  0.1569942E-007  0.1106937E+04  0.7818608E-02  0.9198456E-01
         -1   -1    0    0    0  501 -0.00000000000E+00  0.00000000000E+00  0.13329953619E+03  0.13329953619E+03  0.00000000000E+00 0.  1.
          2   -1    0    0  501    0  0.00000000000E+00 -0.00000000000E+00 -0.22980398263E+04  0.22980398263E+04  0.00000000000E+00 0. -1.
         24    2    1    2    0    0 -0.10478859376E+03  0.10598571903E+03 -0.16945579515E+03  0.23940537091E+03  0.79912721717E+02 0.  0.
        254    2    1    2    0    0  0.10478859376E+03 -0.10598571903E+03 -0.19952844950E+04  0.21919339916E+04  0.89509819883E+03 0.  0.
         23    2    4    4    0    0  0.29110872297E+03 -0.38539829218E+03 -0.73219869879E+03  0.88176417922E+03  0.90094400686E+02 0.  0.
         23    2    4    4    0    0 -0.18632012920E+03  0.27941257315E+03 -0.12630857962E+04  0.13101698124E+04  0.91502088160E+02 0.  0.
          2    1    3    3  502    0 -0.25674606605E+01  0.17545916908E+02 -0.68332152888E+02  0.70595567657E+02  0.00000000000E+00 0. -1.
         -1    1    3    3    0  502 -0.10222113310E+03  0.88439802121E+02 -0.10112364226E+03  0.16880980326E+03  0.00000000000E+00 0.  1.
         11    1    5    5    0    0  0.20085763623E+03 -0.22929903906E+03 -0.39031024097E+03  0.49524127812E+03  0.00000000000E+00 0.  1.
        -11    1    5    5    0    0  0.90251086736E+02 -0.15609925312E+03 -0.34188845783E+03  0.38652290110E+03  0.00000000000E+00 0. -1.
          3    1    6    6  503    0  0.32327318929E+01  0.49634095436E+02 -0.15815488929E+03  0.16579192680E+03  0.00000000000E+00 0. -1.
         -3    1    6    6    0  503 -0.18955286110E+03  0.22977847771E+03 -0.11049309069E+04  0.11443778856E+04  0.00000000000E+00 0.  1.
<mgrwt>
<rscale>  0 0.11069375E+04</rscale>
<asrwt>0</asrwt>
<pdfrwt beam="1">  1        2 0.35354457E+00 0.11069375E+04</pdfrwt>
<pdfrwt beam="2">  1       -1 0.20507622E-01 0.11069375E+04</pdfrwt>
<totfact> 0.10133481E+02</totfact>
</mgrwt>
</event>
<event>
12    6  0.1569942E-007  0.1474044E+04  0.7818608E-02  0.8901899E-01
         -1   -1    0    0    0  501 -0.00000000000E+00  0.00000000000E+00  0.26021444545E+03  0.26021444545E+03  0.00000000000E+00 0.  1.
          2   -1    0    0  501    0  0.00000000000E+00 -0.00000000000E+00 -0.20875133818E+04  0.20875133818E+04  0.00000000000E+00 0. -1.
         24    2    1    2    0    0  0.34458697340E+03  0.26624616357E+03 -0.34856299298E+03  0.56347436284E+03  0.79874874985E+02 0.  0.
        254    2    1    2    0    0 -0.34458697340E+03 -0.26624616357E+03 -0.14787359434E+04  0.17842534644E+04  0.89848385246E+03 0.  0.
         23    2    4    4    0    0 -0.59839384119E+03 -0.25333967511E+03 -0.13138799064E+04  0.14686451517E+04  0.91553225132E+02 0.  0.
         23    2    4    4    0    0  0.25380686779E+03 -0.12906488464E+02 -0.16485603699E+03  0.31560831271E+03  0.88580982934E+02 0.  0.
          2    1    3    3  502    0  0.53960020366E+02  0.25829453717E+02 -0.19480865011E+02  0.62915408119E+02  0.00000000000E+00 0. -1.
         -1    1    3    3    0  502  0.29062695304E+03  0.24041670985E+03 -0.32908212797E+03  0.50055895473E+03  0.00000000000E+00 0.  1.
         11    1    5    5    0    0 -0.20823473833E+03 -0.12284226349E+03 -0.41951637284E+03  0.48419615346E+03  0.00000000000E+00 0.  1.
        -11    1    5    5    0    0 -0.39015910286E+03 -0.13049741162E+03 -0.89436353355E+03  0.98444899824E+03  0.00000000000E+00 0. -1.
          3    1    6    6  503    0  0.16256293389E+03 -0.50786652852E+02 -0.10637229479E+03  0.20080103755E+03  0.00000000000E+00 0. -1.
         -3    1    6    6    0  503  0.91243933901E+02  0.37880164388E+02 -0.58483742202E+02  0.11480727516E+03  0.00000000000E+00 0.  1.
<mgrwt>
<rscale>  0 0.14740436E+04</rscale>
<asrwt>0</asrwt>
<pdfrwt beam="1">  1        2 0.32115590E+00 0.14740436E+04</pdfrwt>
<pdfrwt beam="2">  1       -1 0.40032992E-01 0.14740436E+04</pdfrwt>
<totfact> 0.40071733E+01</totfact>
</mgrwt>
</event>
<event>
12    6  0.1569942E-007  0.1522376E+04  0.7818608E-02  0.8869708E-01
          2   -1    0    0  501    0  0.00000000000E+00  0.00000000000E+00  0.55940522709E+03  0.55940522709E+03  0.00000000000E+00 0. -1.
         -1   -1    0    0    0  501 -0.00000000000E+00 -0.00000000000E+00 -0.10357558929E+04  0.10357558929E+04  0.00000000000E+00 0.  1.
         24    2    1    2    0    0 -0.27036085211E+03  0.87545909881E+02  0.27638563965E+03  0.40495932341E+03  0.82726991491E+02 0.  0.
        254    2    1    2    0    0  0.27036085211E+03 -0.87545909881E+02 -0.75273630549E+03  0.11902017966E+04  0.87704566265E+03 0.  0.
         23    2    4    4    0    0  0.34747459374E+03  0.31133275600E+03 -0.25500133340E+03  0.53952023069E+03  0.91595420388E+02 0.  0.
         23    2    4    4    0    0 -0.77113741630E+02 -0.39887866588E+03 -0.49773497210E+03  0.65068156593E+03  0.10293531242E+03 0.  0.
          4    1    3    3  502    0 -0.21330148710E+03  0.85272837060E+02  0.25689151225E+03  0.34461896379E+03  0.00000000000E+00 0. -1.
         -3    1    3    3    0  502 -0.57059365010E+02  0.22730728215E+01  0.19494127395E+02  0.60340359613E+02  0.00000000000E+00 0.  1.
         11    1    5    5    0    0  0.14640385796E+03  0.17476227311E+03 -0.86872610919E+02  0.24397293345E+03  0.00000000000E+00 0. -1.
        -11    1    5    5    0    0  0.20107073578E+03  0.13657048289E+03 -0.16812872248E+03  0.29554729724E+03  0.00000000000E+00 0.  1.
          1    1    6    6  503    0 -0.92379799752E+02 -0.28027074594E+03 -0.39475243558E+03  0.49286428541E+03  0.00000000000E+00 0. -1.
         -1    1    6    6    0  503  0.15266058122E+02 -0.11860791994E+03 -0.10298253652E+03  0.15781728052E+03  0.00000000000E+00 0.  1.
<mgrwt>
<rscale>  0 0.15223761E+04</rscale>
<asrwt>0</asrwt>
<pdfrwt beam="1">  1        2 0.86062342E-01 0.15223761E+04</pdfrwt>
<pdfrwt beam="2">  1       -1 0.15934706E+00 0.15223761E+04</pdfrwt>
<totfact> 0.17580786E+01</totfact>
</mgrwt>
</event>
<event>
12    6  0.1569942E-007  0.1615448E+04  0.7818608E-02  0.8811114E-01
          2   -1    0    0  501    0  0.00000000000E+00  0.00000000000E+00  0.71085594747E+03  0.71085594747E+03  0.00000000000E+00 0. -1.
         -1   -1    0    0    0  501 -0.00000000000E+00 -0.00000000000E+00 -0.91779210126E+03  0.91779210126E+03  0.00000000000E+00 0.  1.
         24    2    1    2    0    0  0.10969134885E+03 -0.49969112293E+03  0.14468048610E+03  0.53752367348E+03  0.79220238233E+02 0.  0.
        254    2    1    2    0    0 -0.10969134885E+03  0.49969112293E+03 -0.35161663989E+03  0.10911243753E+04  0.89732643474E+03 0.  0.
         23    2    4    4    0    0 -0.21410554109E+03  0.15916085304E+03 -0.58982462348E+03  0.65396856138E+03  0.92781641182E+02 0.  0.
         23    2    4    4    0    0  0.10441419224E+03  0.34053026989E+03  0.23820798359E+03  0.43715581387E+03  0.86596616005E+02 0.  0.
          2    1    3    3  502    0  0.90919224582E+02 -0.42512776777E+03  0.15137783283E+03  0.46034245144E+03  0.00000000000E+00 0. -1.
         -1    1    3    3    0  502  0.18772124266E+02 -0.74563355159E+02 -0.66973467261E+01  0.77181222037E+02  0.00000000000E+00 0.  1.
         11    1    5    5    0    0  0.80489088047E+01  0.49416931706E+00 -0.84077138886E+01  0.11649840733E+02  0.00000000000E+00 0.  1.
        -11    1    5    5    0    0 -0.22215444990E+03  0.15866668372E+03 -0.58141690959E+03  0.64231872064E+03  0.00000000000E+00 0. -1.
          1    1    6    6  503    0  0.11005977222E+03  0.22720680538E+03  0.15233365426E+03  0.29485865782E+03  0.00000000000E+00 0. -1.
         -1    1    6    6    0  503 -0.56455799800E+01  0.11332346451E+03  0.85874329337E+02  0.14229715605E+03  0.00000000000E+00 0.  1.
<mgrwt>
<rscale>  0 0.16154479E+04</rscale>
<asrwt>0</asrwt>
<pdfrwt beam="1">  1        2 0.10936245E+00 0.16154479E+04</pdfrwt>
<pdfrwt beam="2">  1       -1 0.14119878E+00 0.16154479E+04</pdfrwt>
<totfact> 0.18016308E+01</totfact>
</mgrwt>
</event>
<event>
12    6  0.1569942E-007  0.1212502E+04  0.7818608E-02  0.9101984E-01
          2   -1    0    0  501    0  0.00000000000E+00  0.00000000000E+00  0.13601709373E+04  0.13601709373E+04  0.00000000000E+00 0. -1.
         -1   -1    0    0    0  501 -0.00000000000E+00 -0.00000000000E+00 -0.27021619128E+03  0.27021619128E+03  0.00000000000E+00 0.  1.
         24    2    1    2    0    0  0.39576758131E+02  0.25683064910E+03  0.16165005342E+03  0.31601033691E+03  0.78762244535E+02 0.  0.
        254    2    1    2    0    0 -0.39576758131E+02 -0.25683064910E+03  0.92830469261E+03  0.13143767917E+04  0.89348108323E+03 0.  0.
         23    2    4    4    0    0 -0.30879751519E+03  0.18211288809E+03  0.20648910985E+03  0.42307416671E+03  0.88504173073E+02 0.  0.
         23    2    4    4    0    0  0.26922075706E+03 -0.43894353719E+03  0.72181558276E+03  0.89130262497E+03  0.90837155921E+02 0.  0.
          4    1    3    3  502    0  0.52484996049E+02  0.13150449743E+03  0.11222821553E+03  0.18067451402E+03  0.00000000000E+00 0. -1.
         -3    1    3    3    0  502 -0.12908237917E+02  0.12532615167E+03  0.49421837889E+02  0.13533582289E+03  0.00000000000E+00 0.  1.
         11    1    5    5    0    0 -0.12711383173E+03  0.26068239786E+02  0.71517560925E+02  0.14816288626E+03  0.00000000000E+00 0. -1.
        -11    1    5    5    0    0 -0.18168368346E+03  0.15604464831E+03  0.13497154892E+03  0.27491128045E+03  0.00000000000E+00 0.  1.
          4    1    6    6  503    0  0.85664830954E+02 -0.13523831993E+03  0.15676406439E+03  0.22405989897E+03  0.00000000000E+00 0. -1.
         -4    1    6    6    0  503  0.18355592611E+03 -0.30370521726E+03  0.56505151837E+03  0.66724272600E+03  0.00000000000E+00 0.  1.
<mgrwt>
<rscale>  0 0.12125019E+04</rscale>
<asrwt>0</asrwt>
<pdfrwt beam="1">  1        2 0.20925706E+00 0.12125019E+04</pdfrwt>
<pdfrwt beam="2">  1       -1 0.41571722E-01 0.12125019E+04</pdfrwt>
<totfact> 0.97204671E+01</totfact>
</mgrwt>
</event>
<event>
12    6  0.1569942E-007  0.1666542E+04  0.7818608E-02  0.8780680E-01
          2   -1    0    0  501    0  0.00000000000E+00  0.00000000000E+00  0.50366286670E+03  0.50366286670E+03  0.00000000000E+00 0. -1.
         -1   -1    0    0    0  501 -0.00000000000E+00 -0.00000000000E+00 -0.13785824264E+04  0.13785824264E+04  0.00000000000E+00 0.  1.
         24    2    1    2    0    0 -0.15103290136E+02 -0.58687178699E+03 -0.38558480687E+03  0.70684275520E+03  0.79400463218E+02 0.  0.
        254    2    1    2    0    0  0.15103290136E+02  0.58687178699E+03 -0.48933475286E+03  0.11754025379E+04  0.89301512979E+03 0.  0.
         23    2    4    4    0    0 -0.19336969148E+03 -0.43920371242E+02  0.13703867109E+03  0.25787666037E+03  0.91651175640E+02 0.  0.
         23    2    4    4    0    0  0.20847298161E+03  0.63079215823E+03 -0.62637342395E+03  0.91752587754E+03  0.90279226734E+02 0.  0.
          2    1    3    3  502    0  0.78417893598E+00 -0.28047216412E+02 -0.61460762016E+00  0.28064907404E+02  0.00000000000E+00 0. -1.
         -1    1    3    3    0  502 -0.15887469072E+02 -0.55882457058E+03 -0.38497019924E+03  0.67877784780E+03  0.00000000000E+00 0.  1.
         11    1    5    5    0    0 -0.15409709283E+03  0.47652606063E+01  0.11172733138E+03  0.19039857748E+03  0.00000000000E+00 0. -1.
        -11    1    5    5    0    0 -0.39272598646E+02 -0.48685631848E+02  0.25311339713E+02  0.67478082893E+02  0.00000000000E+00 0.  1.
          3    1    6    6  503    0  0.20160290012E+03  0.53137307612E+03 -0.55942847771E+03  0.79747181583E+03  0.00000000000E+00 0. -1.
         -3    1    6    6    0  503  0.68700814903E+01  0.99419082111E+02 -0.66944946240E+02  0.12005406172E+03  0.00000000000E+00 0.  1.
<mgrwt>
<rscale>  0 0.16665423E+04</rscale>
<asrwt>0</asrwt>
<pdfrwt beam="1">  1        2 0.77486596E-01 0.16665423E+04</pdfrwt>
<pdfrwt beam="2">  1       -1 0.21208960E+00 0.16665423E+04</pdfrwt>
<totfact> 0.82832449E+00</totfact>
</mgrwt>
</event>
<event>
12    6  0.1569942E-007  0.1893851E+04  0.7818608E-02  0.8657923E-01
          2   -1    0    0  501    0  0.00000000000E+00  0.00000000000E+00  0.19194507341E+04  0.19194507341E+04  0.00000000000E+00 0. -1.
         -1   -1    0    0    0  501 -0.00000000000E+00 -0.00000000000E+00 -0.46714805254E+03  0.46714805254E+03  0.00000000000E+00 0.  1.
         24    2    1    2    0    0 -0.33421250517E+03 -0.23724922231E+03  0.13173814743E+04  0.13819374295E+04  0.79195442084E+02 0.  0.
        254    2    1    2    0    0  0.33421250517E+03  0.23724922231E+03  0.13492120721E+03  0.10046613571E+04  0.90727918429E+03 0.  0.
         23    2    4    4    0    0  0.48481460806E+03 -0.12162741404E+03 -0.13127178337E+03  0.52427048256E+03  0.88254324182E+02 0.  0.
         23    2    4    4    0    0 -0.15060210289E+03  0.35887663636E+03  0.26619299058E+03  0.48039087457E+03  0.91887162402E+02 0.  0.
          4    1    3    3  502    0 -0.16012073512E+03 -0.97668077042E+02  0.72671611200E+03  0.75052915368E+03  0.00000000000E+00 0. -1.
         -3    1    3    3    0  502 -0.17409177005E+03 -0.13958114527E+03  0.59066536233E+03  0.63140827581E+03  0.00000000000E+00 0.  1.
         11    1    5    5    0    0  0.15131161268E+02 -0.19199872030E+02 -0.18070686346E+02  0.30399618950E+02  0.00000000000E+00 0. -1.
        -11    1    5    5    0    0  0.46968344679E+03 -0.10242754201E+03 -0.11320109702E+03  0.49387086361E+03  0.00000000000E+00 0.  1.
          4    1    6    6  503    0 -0.29327252182E+02  0.25680084403E+02  0.55869550612E+02  0.68124600117E+02  0.00000000000E+00 0. -1.
         -4    1    6    6    0  503 -0.12127485071E+03  0.33319655195E+03  0.21032343997E+03  0.41226627445E+03  0.00000000000E+00 0.  1.
<mgrwt>
<rscale>  0 0.18938508E+04</rscale>
<asrwt>0</asrwt>
<pdfrwt beam="1">  1        2 0.29530011E+00 0.18938508E+04</pdfrwt>
<pdfrwt beam="2">  1       -1 0.71868932E-01 0.18938508E+04</pdfrwt>
<totfact> 0.15442832E+01</totfact>
</mgrwt>
</event>
<event>
12    6  0.1569942E-007  0.2309666E+04  0.7818608E-02  0.8474120E-01
         -1   -1    0    0    0  501 -0.00000000000E+00  0.00000000000E+00  0.46540134732E+03  0.46540134732E+03  0.00000000000E+00 0.  1.
          2   -1    0    0  501    0  0.00000000000E+00 -0.00000000000E+00 -0.28655672755E+04  0.28655672755E+04  0.00000000000E+00 0. -1.
         24    2    1    2    0    0  0.45181510051E+03  0.58488501240E+03 -0.88799284007E+02  0.74873551391E+03  0.80574153262E+02 0.  0.
        254    2    1    2    0    0 -0.45181510051E+03 -0.58488501240E+03 -0.23113666442E+04  0.25822331089E+04  0.88277103612E+03 0.  0.
         23    2    4    4    0    0 -0.34457503355E+03  0.73417710951E+02 -0.14155796049E+04  0.14615114863E+04  0.89599623870E+02 0.  0.
         23    2    4    4    0    0 -0.10724006696E+03 -0.65830272335E+03 -0.89578703927E+03  0.11207216227E+04  0.93378949718E+02 0.  0.
          4    1    3    3  502    0  0.31325758188E+03  0.42724598603E+03 -0.29319470601E+02  0.53059313654E+03  0.00000000000E+00 0. -1.
         -3    1    3    3    0  502  0.13855751863E+03  0.15763902637E+03 -0.59479813406E+02  0.21814237737E+03  0.00000000000E+00 0.  1.
         11    1    5    5    0    0 -0.34023623556E+03  0.84464937101E+02 -0.13858145197E+04  0.14294673500E+04  0.00000000000E+00 0. -1.
        -11    1    5    5    0    0 -0.43387979893E+01 -0.11047226150E+02 -0.29765085235E+02  0.32044136322E+02  0.00000000000E+00 0.  1.
          1    1    6    6  503    0 -0.96428501576E+02 -0.31859172597E+03 -0.46944356113E+03  0.57547927926E+03  0.00000000000E+00 0. -1.
         -1    1    6    6    0  503 -0.10811565385E+02 -0.33971099737E+03 -0.42634347814E+03  0.54524234340E+03  0.00000000000E+00 0.  1.
<mgrwt>
<rscale>  0 0.23096657E+04</rscale>
<asrwt>0</asrwt>
<pdfrwt beam="1">  1        2 0.44085651E+00 0.23096657E+04</pdfrwt>
<pdfrwt beam="2">  1       -1 0.71600206E-01 0.23096657E+04</pdfrwt>
<totfact> 0.42828259E+00</totfact>
</mgrwt>
</event>
<event>
12    6  0.1569942E-007  0.2122645E+04  0.7818608E-02  0.8551333E-01
         -1   -1    0    0    0  501 -0.00000000000E+00  0.00000000000E+00  0.25147014886E+03  0.25147014886E+03  0.00000000000E+00 0.  1.
          2   -1    0    0  501    0  0.00000000000E+00 -0.00000000000E+00 -0.44792817257E+04  0.44792817257E+04  0.00000000000E+00 0. -1.
         24    2    1    2    0    0 -0.31966304236E+03 -0.52911566459E+03 -0.37873703872E+03  0.72937104433E+03  0.79953290345E+02 0.  0.
        254    2    1    2    0    0  0.31966304236E+03  0.52911566459E+03 -0.38490745381E+04  0.40013808302E+04  0.90195670703E+03 0.  0.
         23    2    4    4    0    0  0.15687653050E+03 -0.22194983497E+03 -0.15219847212E+04  0.15489725755E+04  0.94902966147E+02 0.  0.
         23    2    4    4    0    0  0.16278651187E+03  0.75106549956E+03 -0.23270898169E+04  0.24524082547E+04  0.91435216579E+02 0.  0.
          2    1    3    3  502    0 -0.64534307663E+02 -0.14072076065E+03 -0.60814181539E+02  0.16632911357E+03  0.00000000000E+00 0. -1.
         -1    1    3    3    0  502 -0.25512873470E+03 -0.38839490394E+03 -0.31792285718E+03  0.56304193076E+03  0.00000000000E+00 0.  1.
         11    1    5    5    0    0 -0.10779480342E+02 -0.35518234734E+02 -0.20494796440E+03  0.20828204509E+03  0.00000000000E+00 0.  1.
        -11    1    5    5    0    0  0.16765601084E+03 -0.18643160024E+03 -0.13170367568E+04  0.13406905304E+04  0.00000000000E+00 0. -1.
          1    1    6    6  503    0  0.14980392722E+03  0.49591706764E+03 -0.15211648160E+04  0.16069590387E+04  0.00000000000E+00 0. -1.
         -1    1    6    6    0  503  0.12982584650E+02  0.25514843192E+03 -0.80592500085E+03  0.84544921599E+03  0.00000000000E+00 0.  1.
<mgrwt>
<rscale>  0 0.21226452E+04</rscale>
<asrwt>0</asrwt>
<pdfrwt beam="1">  1        2 0.68912018E+00 0.21226452E+04</pdfrwt>
<pdfrwt beam="2">  1       -1 0.38687720E-01 0.21226452E+04</pdfrwt>
<totfact> 0.88544172E-01</totfact>
</mgrwt>
</event>
<event>
12    6  0.1569942E-007  0.1388340E+04  0.7818608E-02  0.8962302E-01
         -1   -1    0    0    0  501 -0.00000000000E+00  0.00000000000E+00  0.17165003422E+03  0.17165003422E+03  0.00000000000E+00 0.  1.
          2   -1    0    0  501    0  0.00000000000E+00 -0.00000000000E+00 -0.28072934862E+04  0.28072934862E+04  0.00000000000E+00 0. -1.
         24    2    1    2    0    0 -0.29562840771E+03  0.16619835388E+03 -0.31165380108E+03  0.46549072428E+03  0.67345930735E+02 0.  0.
        254    2    1    2    0    0  0.29562840771E+03 -0.16619835388E+03 -0.23239896509E+04  0.25134527962E+04  0.89526477237E+03 0.  0.
         23    2    4    4    0    0  0.61682244836E+02 -0.39125761947E+03 -0.20215072857E+04  0.20620258447E+04  0.92583227084E+02 0.  0.
         23    2    4    4    0    0  0.23394616287E+03  0.22505926559E+03 -0.30248236519E+03  0.45142695144E+03  0.83115769149E+02 0.  0.
          4    1    3    3  502    0 -0.37460204275E+01  0.13148659066E+01  0.35632081823E+01  0.53346034479E+01  0.00000000000E+00 0. -1.
         -3    1    3    3    0  502 -0.29188238728E+03  0.16488348797E+03 -0.31521700926E+03  0.46015612083E+03  0.00000000000E+00 0.  1.
         11    1    5    5    0    0  0.58999013779E+02 -0.21625606146E+03 -0.13272950606E+04  0.13460905414E+04  0.00000000000E+00 0. -1.
        -11    1    5    5    0    0  0.26832310567E+01 -0.17500155800E+03 -0.69421222519E+03  0.71593530338E+03  0.00000000000E+00 0.  1.
          4    1    6    6  503    0  0.23224490638E+03  0.20877867784E+03 -0.26157768723E+03  0.40736853010E+03  0.00000000000E+00 0. -1.
         -4    1    6    6    0  503  0.17012564894E+01  0.16280587746E+02 -0.40904677969E+02  0.44058421337E+02  0.00000000000E+00 0.  1.
<mgrwt>
<rscale>  0 0.13883400E+04</rscale>
<asrwt>0</asrwt>
<pdfrwt beam="1">  1        2 0.43189132E+00 0.13883400E+04</pdfrwt>
<pdfrwt beam="2">  1       -1 0.26407696E-01 0.13883400E+04</pdfrwt>
<totfact> 0.32590296E+01</totfact>
</mgrwt>
</event>
<event>
12    6  0.1569942E-007  0.2481924E+04  0.7818608E-02  0.8409454E-01
         -1   -1    0    0    0  501 -0.00000000000E+00  0.00000000000E+00  0.10446503902E+04  0.10446503902E+04  0.00000000000E+00 0.  1.
          2   -1    0    0  501    0  0.00000000000E+00 -0.00000000000E+00 -0.14741649447E+04  0.14741649447E+04  0.00000000000E+00 0. -1.
         24    2    1    2    0    0  0.26298723264E+03 -0.71130418750E+03 -0.96401262496E+03  0.12292175568E+04  0.80867355147E+02 0.  0.
        254    2    1    2    0    0 -0.26298723264E+03  0.71130418750E+03  0.53449807047E+03  0.12895977781E+04  0.89568873515E+03 0.  0.
         23    2    4    4    0    0  0.11021242180E+03  0.70683101110E+03  0.12960177595E+03  0.73149502740E+03  0.80817687474E+02 0.  0.
         23    2    4    4    0    0 -0.37319965444E+03  0.44731764025E+01  0.40489629452E+03  0.55810275071E+03  0.90772681188E+02 0.  0.
          2    1    3    3  502    0  0.21258062466E+03 -0.59613198106E+03 -0.84804524748E+03  0.10581798536E+04  0.00000000000E+00 0. -1.
         -1    1    3    3    0  502  0.50406607982E+02 -0.11517220644E+03 -0.11596737748E+03  0.17103770317E+03  0.00000000000E+00 0.  1.
         11    1    5    5    0    0  0.16645525237E+01  0.10591503509E+03  0.44726157849E+02  0.11498345355E+03  0.00000000000E+00 0. -1.
        -11    1    5    5    0    0  0.10854786928E+03  0.60091597600E+03  0.84875618104E+02  0.61651157385E+03  0.00000000000E+00 0.  1.
          1    1    6    6  503    0 -0.29065343174E+03  0.20157261384E+02  0.35904239815E+03  0.46238206738E+03  0.00000000000E+00 0.  1.
         -1    1    6    6    0  503 -0.82546222700E+02 -0.15684084981E+02  0.45853896370E+02  0.95720683324E+02  0.00000000000E+00 0. -1.
<mgrwt>
<rscale>  0 0.24819242E+04</rscale>
<asrwt>0</asrwt>
<pdfrwt beam="1">  1        2 0.22679461E+00 0.24819242E+04</pdfrwt>
<pdfrwt beam="2">  1       -1 0.16071545E+00 0.24819242E+04</pdfrwt>
<totfact> 0.38553179E+00</totfact>
</mgrwt>
</event>
<event>
12    6  0.1569942E-007  0.3021384E+04  0.7818608E-02  0.8237651E-01
          2   -1    0    0  501    0  0.00000000000E+00  0.00000000000E+00  0.16342578903E+04  0.16342578903E+04  0.00000000000E+00 0. -1.
         -1   -1    0    0    0  501 -0.00000000000E+00 -0.00000000000E+00 -0.13964690509E+04  0.13964690509E+04  0.00000000000E+00 0.  1.
         24    2    1    2    0    0 -0.19938059117E+03  0.23694372919E+02  0.14723409860E+04  0.14878470620E+04  0.74745283062E+02 0.  0.
        254    2    1    2    0    0  0.19938059117E+03 -0.23694372919E+02 -0.12345521466E+04  0.15428798793E+04  0.90335224347E+03 0.  0.
         23    2    4    4    0    0  0.26253407195E+03  0.40015362627E+03 -0.69787610721E+03  0.84987513257E+03  0.78801119235E+02 0.  0.
         23    2    4    4    0    0 -0.63153480782E+02 -0.42384799919E+03 -0.53667603940E+03  0.69300474672E+03  0.92730357281E+02 0.  0.
          4    1    3    3  502    0 -0.19165825165E+03  0.15860902490E+02  0.14523698444E+04  0.14650469680E+04  0.00000000000E+00 0. -1.
         -3    1    3    3    0  502 -0.77223395265E+01  0.78334704290E+01  0.19971141614E+02  0.22800093949E+02  0.00000000000E+00 0.  1.
         11    1    5    5    0    0  0.16578341619E+03  0.21535057013E+03 -0.33566684719E+03  0.43189378491E+03  0.00000000000E+00 0. -1.
        -11    1    5    5    0    0  0.96750655763E+02  0.18480305613E+03 -0.36220926002E+03  0.41798134766E+03  0.00000000000E+00 0.  1.
          3    1    6    6  503    0 -0.56987898981E+02 -0.37906833811E+03 -0.42395264637E+03  0.57155600946E+03  0.00000000000E+00 0. -1.
         -3    1    6    6    0  503 -0.61655818005E+01 -0.44779661073E+02 -0.11272339303E+03  0.12144873726E+03  0.00000000000E+00 0.  1.
<mgrwt>
<rscale>  0 0.30213842E+04</rscale>
<asrwt>0</asrwt>
<pdfrwt beam="1">  1        2 0.25142429E+00 0.30213842E+04</pdfrwt>
<pdfrwt beam="2">  1       -1 0.21484139E+00 0.30213842E+04</pdfrwt>
<totfact> 0.12373646E+00</totfact>
</mgrwt>
</event>
<event>
12    6  0.1569942E-007  0.2078584E+04  0.7818608E-02  0.8570736E-01
          2   -1    0    0  501    0  0.00000000000E+00  0.00000000000E+00  0.80863570761E+03  0.80863570761E+03  0.00000000000E+00 0. -1.
         -1   -1    0    0    0  501 -0.00000000000E+00 -0.00000000000E+00 -0.13357407089E+04  0.13357407089E+04  0.00000000000E+00 0.  1.
         24    2    1    2    0    0  0.30347302548E+02  0.39962520926E+03  0.54061841280E+03  0.67774002305E+03  0.80262095277E+02 0.  0.
        254    2    1    2    0    0 -0.30347302548E+02 -0.39962520926E+03 -0.10677234141E+04  0.14666363935E+04  0.92215386730E+03 0.  0.
         23    2    4    4    0    0 -0.43378392779E+03 -0.71122255892E+02 -0.31974580212E+03  0.55095696215E+03  0.89940674183E+02 0.  0.
         23    2    4    4    0    0  0.40343662524E+03 -0.32850295337E+03 -0.74797761197E+03  0.91567943131E+03  0.91230542894E+02 0.  0.
          4    1    3    3  502    0  0.82574714227E+01  0.37566104856E+03  0.50507470474E+03  0.62951558091E+03  0.00000000000E+00 0. -1.
         -3    1    3    3    0  502  0.22089831126E+02  0.23964160707E+02  0.35543708054E+02  0.48224442141E+02  0.00000000000E+00 0.  1.
         11    1    5    5    0    0 -0.12041830743E+03  0.19619559569E+02 -0.97998954456E+02  0.15649054590E+03  0.00000000000E+00 0.  1.
        -11    1    5    5    0    0 -0.31336562036E+03 -0.90741815461E+02 -0.22174684767E+03  0.39446641625E+03  0.00000000000E+00 0. -1.
          3    1    6    6  503    0  0.10275076692E+03 -0.57054708683E+02 -0.22824663530E+03  0.25672842930E+03  0.00000000000E+00 0. -1.
         -3    1    6    6    0  503  0.30068585832E+03 -0.27144824469E+03 -0.51973097667E+03  0.65895100201E+03  0.00000000000E+00 0.  1.
<mgrwt>
<rscale>  0 0.20785838E+04</rscale>
<asrwt>0</asrwt>
<pdfrwt beam="1">  1        2 0.12440550E+00 0.20785838E+04</pdfrwt>
<pdfrwt beam="2">  1       -1 0.20549857E+00 0.20785838E+04</pdfrwt>
<totfact> 0.49345330E+00</totfact>
</mgrwt>
</event>
<event>
12    6  0.1569942E-007  0.1636786E+04  0.7818608E-02  0.8798262E-01
          2   -1    0    0  501    0  0.00000000000E+00  0.00000000000E+00  0.26022335121E+04  0.26022335121E+04  0.00000000000E+00 0. -1.
         -1   -1    0    0    0  501 -0.00000000000E+00 -0.00000000000E+00 -0.25738158884E+03  0.25738158884E+03  0.00000000000E+00 0.  1.
         24    2    1    2    0    0 -0.25992676520E+03 -0.82796893102E+02  0.16973699087E+04  0.17210119042E+04  0.80000740238E+02 0.  0.
        254    2    1    2    0    0  0.25992676520E+03  0.82796893102E+02  0.64748201456E+03  0.11386031968E+04  0.89597267359E+03 0.  0.
         23    2    4    4    0    0  0.14550518346E+03 -0.18793336787E+03  0.76771365952E+03  0.80932946289E+03  0.95599201429E+02 0.  0.
         23    2    4    4    0    0  0.11442158173E+03  0.27073026097E+03 -0.12023164496E+03  0.32927373391E+03  0.87053838645E+02 0.  0.
          2    1    3    3  502    0 -0.12432139235E+03 -0.35832812590E+02  0.10490843395E+04  0.10570325210E+04  0.00000000000E+00 0. -1.
         -1    1    3    3    0  502 -0.13560537284E+03 -0.46964080512E+02  0.64828556921E+03  0.66397938315E+03  0.00000000000E+00 0.  1.
         11    1    5    5    0    0  0.11710129695E+03 -0.18113489991E+03  0.73241622261E+03  0.76351561140E+03  0.00000000000E+00 0.  1.
        -11    1    5    5    0    0  0.28403886516E+02 -0.67984679622E+01  0.35297436914E+02  0.45813851492E+02  0.00000000000E+00 0. -1.
          3    1    6    6  503    0  0.25651268213E+02  0.17143503408E+03 -0.68826300428E+02  0.18650742104E+03  0.00000000000E+00 0. -1.
         -3    1    6    6    0  503  0.88770313520E+02  0.99295226893E+02 -0.51405344533E+02  0.14276631288E+03  0.00000000000E+00 0.  1.
<mgrwt>
<rscale>  0 0.16367859E+04</rscale>
<asrwt>0</asrwt>
<pdfrwt beam="1">  1        2 0.40034360E+00 0.16367859E+04</pdfrwt>
<pdfrwt beam="2">  1       -1 0.39597169E-01 0.16367859E+04</pdfrwt>
<totfact> 0.20551594E+01</totfact>
</mgrwt>
</event>
<event>
12    6  0.1569942E-007  0.1756344E+04  0.7818608E-02  0.8729866E-01
          2   -1    0    0  501    0  0.00000000000E+00  0.00000000000E+00  0.22150780106E+04  0.22150780106E+04  0.00000000000E+00 0. -1.
         -3   -1    0    0    0  501 -0.00000000000E+00 -0.00000000000E+00 -0.34815311255E+03  0.34815311255E+03  0.00000000000E+00 0.  1.
         24    2    1    2    0    0  0.30288347766E+03  0.49954688763E+03  0.30166068665E+03  0.66224791619E+03  0.79294631922E+02 0.  0.
        254    2    1    2    0    0 -0.30288347766E+03 -0.49954688763E+03  0.15652642114E+04  0.19009832070E+04  0.90686250761E+03 0.  0.
         23    2    4    4    0    0 -0.54054501233E+03 -0.33110191529E+03  0.55999402133E+03  0.85063855576E+03  0.90417144161E+02 0.  0.
         23    2    4    4    0    0  0.23766153467E+03 -0.16844497234E+03  0.10052701901E+04  0.10503446512E+04  0.88312046238E+02 0.  0.
          2    1    3    3  502    0  0.20355354857E+02  0.20541405291E+02  0.35293884564E+02  0.45628369359E+02  0.00000000000E+00 0. -1.
         -1    1    3    3    0  502  0.28252812281E+03  0.47900548233E+03  0.26636680209E+03  0.61661954683E+03  0.00000000000E+00 0.  1.
         11    1    5    5    0    0 -0.47327027117E+03 -0.30106239465E+03  0.45436248476E+03  0.72185080357E+03  0.00000000000E+00 0. -1.
        -11    1    5    5    0    0 -0.67274741155E+02 -0.30039520640E+02  0.10563153657E+03  0.12878775219E+03  0.00000000000E+00 0.  1.
          3    1    6    6  503    0  0.20131839910E+03 -0.15564575107E+03  0.94618108981E+03  0.97980271093E+03  0.00000000000E+00 0. -1.
         -3    1    6    6    0  503  0.36343135567E+02 -0.12799221264E+02  0.59089100265E+02  0.70541940276E+02  0.00000000000E+00 0.  1.
<mgrwt>
<rscale>  0 0.17563443E+04</rscale>
<asrwt>0</asrwt>
<pdfrwt beam="1">  1        2 0.34078122E+00 0.17563443E+04</pdfrwt>
<pdfrwt beam="2">  1       -3 0.53562019E-01 0.17563443E+04</pdfrwt>
<totfact> 0.10621240E+01</totfact>
</mgrwt>
</event>
<event>
12    6  0.1569942E-007  0.2360536E+04  0.7818608E-02  0.8454428E-01
         -1   -1    0    0    0  501 -0.00000000000E+00  0.00000000000E+00  0.54209707307E+03  0.54209707307E+03  0.00000000000E+00 0.  1.
          2   -1    0    0  501    0  0.00000000000E+00 -0.00000000000E+00 -0.25697095698E+04  0.25697095698E+04  0.00000000000E+00 0. -1.
         24    2    1    2    0    0  0.38301889898E+02  0.88695592488E+03 -0.25078224423E+03  0.92560488891E+03  0.75464090125E+02 0.  0.
        254    2    1    2    0    0 -0.38301889898E+02 -0.88695592488E+03 -0.17768302525E+04  0.21862017540E+04  0.91334249622E+03 0.  0.
         23    2    4    4    0    0  0.33449294990E+03 -0.58897331368E+02 -0.38216402125E+03  0.51929188098E+03  0.90886133959E+02 0.  0.
         23    2    4    4    0    0 -0.37279483980E+03 -0.82805859351E+03 -0.13946662313E+04  0.16669098730E+04  0.94008516504E+02 0.  0.
          2    1    3    3  502    0  0.31227396237E+02  0.17488890930E+03 -0.69707093807E+02  0.19084118999E+03  0.00000000000E+00 0. -1.
         -1    1    3    3    0  502  0.70744936613E+01  0.71206701558E+03 -0.18107515042E+03  0.73476369891E+03  0.00000000000E+00 0.  1.
         11    1    5    5    0    0  0.65833206895E+02  0.24542615669E+02 -0.74747089432E+02  0.10258400700E+03  0.00000000000E+00 0.  1.
        -11    1    5    5    0    0  0.26865974301E+03 -0.83439947037E+02 -0.30741693181E+03  0.41670787398E+03  0.00000000000E+00 0. -1.
          2    1    6    6  503    0 -0.32224021060E+03 -0.65288397425E+03 -0.10630340256E+04  0.12884632617E+04  0.00000000000E+00 0. -1.
         -2    1    6    6    0  503 -0.50554629202E+02 -0.17517461926E+03 -0.33163220564E+03  0.37844661128E+03  0.00000000000E+00 0.  1.
<mgrwt>
<rscale>  0 0.23605356E+04</rscale>
<asrwt>0</asrwt>
<pdfrwt beam="1">  1        2 0.39533995E+00 0.23605356E+04</pdfrwt>
<pdfrwt beam="2">  1       -1 0.83399547E-01 0.23605356E+04</pdfrwt>
<totfact> 0.46416124E+00</totfact>
</mgrwt>
</event>
<event>
12    6  0.1569942E-007  0.2494522E+04  0.7818608E-02  0.8404940E-01
         -1   -1    0    0    0  501 -0.00000000000E+00  0.00000000000E+00  0.16129305646E+04  0.16129305646E+04  0.00000000000E+00 0.  1.
          2   -1    0    0  501    0  0.00000000000E+00 -0.00000000000E+00 -0.96449319220E+03  0.96449319220E+03  0.00000000000E+00 0. -1.
         24    2    1    2    0    0  0.13769175510E+03 -0.10827353786E+04  0.23874239147E+03  0.11200468468E+04  0.78943586842E+02 0.  0.
        254    2    1    2    0    0 -0.13769175510E+03  0.10827353786E+04  0.40969498095E+03  0.14573769101E+04  0.87454134328E+03 0.  0.
         23    2    4    4    0    0 -0.45789220564E+03  0.55936106556E+03  0.28156618926E+02  0.72912241487E+03  0.90975969454E+02 0.  0.
         23    2    4    4    0    0  0.32020045055E+03  0.52337431305E+03  0.38153836203E+03  0.72825449522E+03  0.91291226372E+02 0.  0.
          4    1    3    3  502    0  0.28612553403E+02 -0.51608823193E+03  0.12745480402E+03  0.53236309828E+03  0.00000000000E+00 0. -1.
         -3    1    3    3    0  502  0.10907920169E+03 -0.56664714669E+03  0.11128758745E+03  0.58768374847E+03  0.00000000000E+00 0.  1.
         11    1    5    5    0    0 -0.23842754960E+03  0.22978156092E+03  0.35995363899E+02  0.33308096369E+03  0.00000000000E+00 0.  1.
        -11    1    5    5    0    0 -0.21946465604E+03  0.32957950464E+03 -0.78387449732E+01  0.39604145118E+03  0.00000000000E+00 0. -1.
          2    1    6    6  503    0  0.21437352913E+03  0.32742086277E+03  0.29172201888E+03  0.48812105841E+03  0.00000000000E+00 0. -1.
         -2    1    6    6    0  503  0.10582692142E+03  0.19595345029E+03  0.89816343149E+02  0.24013343681E+03  0.00000000000E+00 0.  1.
<mgrwt>
<rscale>  0 0.24945224E+04</rscale>
<asrwt>0</asrwt>
<pdfrwt beam="1">  1        2 0.14838357E+00 0.24945224E+04</pdfrwt>
<pdfrwt beam="2">  1       -1 0.24814316E+00 0.24945224E+04</pdfrwt>
<totfact> 0.19373237E+00</totfact>
</mgrwt>
</event>
<event>
12    6  0.1569942E-007  0.1210239E+04  0.7818608E-02  0.9103942E-01
          2   -1    0    0  501    0  0.00000000000E+00  0.00000000000E+00  0.24581887367E+04  0.24581887367E+04  0.00000000000E+00 0. -1.
         -1   -1    0    0    0  501 -0.00000000000E+00 -0.00000000000E+00 -0.14895902723E+03  0.14895902723E+03  0.00000000000E+00 0.  1.
         24    2    1    2    0    0  0.12731360951E+03  0.14896047875E+03  0.90720382871E+03  0.93148722425E+03  0.79067583209E+02 0.  0.
        254    2    1    2    0    0 -0.12731360951E+03 -0.14896047875E+03  0.14020258807E+04  0.16756605397E+04  0.89652869140E+03 0.  0.
         23    2    4    4    0    0  0.16429619015E+03 -0.44880244080E+03  0.67201681491E+03  0.82970538238E+03  0.91583585111E+02 0.  0.
         23    2    4    4    0    0 -0.29160979966E+03  0.29984196205E+03  0.73000906583E+03  0.84595515727E+03  0.88234995679E+02 0.  0.
          4    1    3    3  502    0  0.54285125494E+02  0.10782788776E+03  0.41516073376E+03  0.43235652312E+03  0.00000000000E+00 0. -1.
         -3    1    3    3    0  502  0.73028484017E+02  0.41132590985E+02  0.49204309495E+03  0.49913070112E+03  0.00000000000E+00 0.  1.
         11    1    5    5    0    0  0.39149514402E+02 -0.23650317522E+03  0.34948366932E+03  0.42379862139E+03  0.00000000000E+00 0.  1.
        -11    1    5    5    0    0  0.12514667574E+03 -0.21229926558E+03  0.32253314559E+03  0.40590676099E+03  0.00000000000E+00 0. -1.
          2    1    6    6  503    0 -0.24300403016E+03  0.21684095005E+03  0.61594979126E+03  0.69675325736E+03  0.00000000000E+00 0. -1.
         -2    1    6    6    0  503 -0.48605769494E+02  0.83001012002E+02  0.11405927457E+03  0.14920189991E+03  0.00000000000E+00 0.  1.
<mgrwt>
<rscale>  0 0.12102387E+04</rscale>
<asrwt>0</asrwt>
<pdfrwt beam="1">  1        2 0.37818285E+00 0.12102387E+04</pdfrwt>
<pdfrwt beam="2">  1       -1 0.22916775E-01 0.12102387E+04</pdfrwt>
<totfact> 0.67573422E+01</totfact>
</mgrwt>
</event>
<event>
12    6  0.1569942E-007  0.1222238E+04  0.7818608E-02  0.9093611E-01
          2   -1    0    0  501    0  0.00000000000E+00  0.00000000000E+00  0.12860457440E+04  0.12860457440E+04  0.00000000000E+00 0. -1.
         -1   -1    0    0    0  501 -0.00000000000E+00 -0.00000000000E+00 -0.29039923382E+03  0.29039923382E+03  0.00000000000E+00 0.  1.
         24    2    1    2    0    0 -0.73761504512E+02  0.20770843307E+03  0.24626248421E+02  0.23463240617E+03  0.76566057754E+02 0.  0.
        254    2    1    2    0    0  0.73761504512E+02 -0.20770843307E+03  0.97102026179E+03  0.13418125717E+04  0.89944264740E+03 0.  0.
         23    2    4    4    0    0  0.56771551691E+02 -0.54605400317E+03  0.46016860717E+03  0.72203835686E+03  0.90477943675E+02 0.  0.
         23    2    4    4    0    0  0.16989952821E+02  0.33834557011E+03  0.51085165462E+03  0.61977421481E+03  0.91565719580E+02 0.  0.
          2    1    3    3  502    0 -0.56753361730E+00  0.10358126229E+03 -0.58781426794E+01  0.10374947013E+03  0.00000000000E+00 0. -1.
         -1    1    3    3    0  502 -0.73193970895E+02  0.10412717078E+03  0.30504391101E+02  0.13088293604E+03  0.00000000000E+00 0.  1.
         11    1    5    5    0    0  0.43841533372E+02 -0.44709378436E+03  0.41822633113E+03  0.61378187992E+03  0.00000000000E+00 0. -1.
        -11    1    5    5    0    0  0.12930018319E+02 -0.98960218815E+02  0.41942276039E+02  0.10825647695E+03  0.00000000000E+00 0.  1.
          1    1    6    6  503    0 -0.23379328571E+02  0.98092180835E+02  0.99321454637E+02  0.14153946551E+03  0.00000000000E+00 0. -1.
         -1    1    6    6    0  503  0.40369281392E+02  0.24025338927E+03  0.41153019998E+03  0.47823474930E+03  0.00000000000E+00 0.  1.
<mgrwt>
<rscale>  0 0.12222384E+04</rscale>
<asrwt>0</asrwt>
<pdfrwt beam="1">  1        2 0.19785319E+00 0.12222384E+04</pdfrwt>
<pdfrwt beam="2">  1       -1 0.44676806E-01 0.12222384E+04</pdfrwt>
<totfact> 0.93865738E+01</totfact>
</mgrwt>
</event>
<event>
12    6  0.1569942E-007  0.1885329E+04  0.7818608E-02  0.8662194E-01
         -1   -1    0    0    0  501 -0.00000000000E+00  0.00000000000E+00  0.19033400163E+04  0.19033400163E+04  0.00000000000E+00 0.  1.
          2   -1    0    0  501    0  0.00000000000E+00 -0.00000000000E+00 -0.46687225350E+03  0.46687225350E+03  0.00000000000E+00 0. -1.
         24    2    1    2    0    0 -0.19126009304E+03 -0.68999701805E+03  0.49336861066E+03  0.87309786092E+03  0.78809775193E+02 0.  0.
        254    2    1    2    0    0  0.19126009304E+03  0.68999701805E+03  0.94309915219E+03  0.14971144089E+04  0.91610001334E+03 0.  0.
         23    2    4    4    0    0 -0.16439767453E+03  0.16722007775E+03 -0.10288559747E+03  0.27139737048E+03  0.89899592576E+02 0.  0.
         23    2    4    4    0    0  0.35565776757E+03  0.52277694030E+03  0.10459847497E+04  0.12257170384E+04  0.92249579297E+02 0.  0.
          2    1    3    3  502    0 -0.90036102759E+02 -0.33208962654E+03  0.18953050797E+03  0.39282544890E+03  0.00000000000E+00 0. -1.
         -1    1    3    3    0  502 -0.10122399028E+03 -0.35790739151E+03  0.30383810268E+03  0.48027241202E+03  0.00000000000E+00 0.  1.
         11    1    5    5    0    0 -0.11709223253E+03  0.12898528278E+03 -0.11584400505E+03  0.20920714041E+03  0.00000000000E+00 0. -1.
        -11    1    5    5    0    0 -0.47305441998E+02  0.38234794964E+02  0.12958407585E+02  0.62190230067E+02  0.00000000000E+00 0.  1.
          4    1    6    6  503    0  0.35161218645E+03  0.47479708538E+03  0.96484098948E+03  0.11313626903E+04  0.00000000000E+00 0. -1.
         -4    1    6    6    0  503  0.40455811155E+01  0.47979854913E+02  0.81143760176E+02  0.94354348176E+02  0.00000000000E+00 0.  1.
<mgrwt>
<rscale>  0 0.18853293E+04</rscale>
<asrwt>0</asrwt>
<pdfrwt beam="1">  1        2 0.71826502E-01 0.18853293E+04</pdfrwt>
<pdfrwt beam="2">  1       -1 0.29282154E+00 0.18853293E+04</pdfrwt>
<totfact> 0.26280730E+00</totfact>
</mgrwt>
</event>
<event>
12    6  0.1569942E-007  0.2038486E+04  0.7818608E-02  0.8588836E-01
         -1   -1    0    0    0  501 -0.00000000000E+00  0.00000000000E+00  0.29812989854E+03  0.29812989854E+03  0.00000000000E+00 0.  1.
          2   -1    0    0  501    0  0.00000000000E+00 -0.00000000000E+00 -0.34845764473E+04  0.34845764473E+04  0.00000000000E+00 0. -1.
         24    2    1    2    0    0 -0.45567705596E+03 -0.10988942617E+03 -0.40184435092E+02  0.47696223063E+03  0.78491498380E+02 0.  0.
        254    2    1    2    0    0  0.45567705596E+03  0.10988942617E+03 -0.31462621137E+04  0.33057441152E+04  0.89958968536E+03 0.  0.
         23    2    4    4    0    0  0.56368674334E+03 -0.25302331532E+03 -0.19498137774E+04  0.20474733518E+04  0.92789100642E+02 0.  0.
         23    2    4    4    0    0 -0.10800968738E+03  0.36291274149E+03 -0.11964483363E+04  0.12582707634E+04  0.91569329520E+02 0.  0.
          4    1    3    3  502    0 -0.14089511940E+02 -0.27643393083E+01 -0.16609912642E+02  0.21955525876E+02  0.00000000000E+00 0. -1.
         -3    1    3    3    0  502 -0.44158754402E+03 -0.10712508686E+03 -0.23574522450E+02  0.45500670476E+03  0.00000000000E+00 0.  1.
         11    1    5    5    0    0  0.96100254248E+02 -0.29228458880E+02 -0.43394134458E+03  0.44541514592E+03  0.00000000000E+00 0. -1.
        -11    1    5    5    0    0  0.46758648909E+03 -0.22379485644E+03 -0.15158724328E+04  0.16020582059E+04  0.00000000000E+00 0.  1.
          3    1    6    6  503    0 -0.39704335120E+02  0.17655646609E+03 -0.42974350075E+03  0.46629185751E+03  0.00000000000E+00 0. -1.
         -3    1    6    6    0  503 -0.68305352260E+02  0.18635627540E+03 -0.76670483555E+03  0.79197890590E+03  0.00000000000E+00 0.  1.
<mgrwt>
<rscale>  0 0.20384861E+04</rscale>
<asrwt>0</asrwt>
<pdfrwt beam="1">  1        2 0.53608871E+00 0.20384861E+04</pdfrwt>
<pdfrwt beam="2">  1       -1 0.45866136E-01 0.20384861E+04</pdfrwt>
<totfact> 0.41726541E+00</totfact>
</mgrwt>
</event>
<event>
12    6  0.1569942E-007  0.2204094E+04  0.7818608E-02  0.8516726E-01
          2   -1    0    0  501    0  0.00000000000E+00  0.00000000000E+00  0.12692840111E+04  0.12692840111E+04  0.00000000000E+00 0. -1.
         -1   -1    0    0    0  501 -0.00000000000E+00 -0.00000000000E+00 -0.95684497814E+03  0.95684497814E+03  0.00000000000E+00 0.  1.
         24    2    1    2    0    0 -0.48516781157E+03 -0.16302763850E+03  0.89778379744E+03  0.10366525348E+04  0.81651176322E+02 0.  0.
        254    2    1    2    0    0  0.48516781157E+03  0.16302763850E+03 -0.58534476451E+03  0.11894764544E+04  0.90014439177E+03 0.  0.
         23    2    4    4    0    0  0.38768862626E+03 -0.33580951840E+03 -0.27158771281E+03  0.58648222086E+03  0.84445284377E+02 0.  0.
         23    2    4    4    0    0  0.97479185314E+02  0.49883715690E+03 -0.31375705170E+03  0.60299423358E+03  0.82570318923E+02 0.  0.
          2    1    3    3  502    0 -0.18056792134E+03 -0.19637954591E+02  0.31621158629E+03  0.36466449071E+03  0.00000000000E+00 0. -1.
         -1    1    3    3    0  502 -0.30459989023E+03 -0.14338968391E+03  0.58157221115E+03  0.67198804406E+03  0.00000000000E+00 0.  1.
         11    1    5    5    0    0  0.29255612642E+03 -0.28712779166E+03 -0.24017897762E+03  0.47509725019E+03  0.00000000000E+00 0.  1.
        -11    1    5    5    0    0  0.95132499842E+02 -0.48681726742E+02 -0.31408735196E+02  0.11138497067E+03  0.00000000000E+00 0. -1.
          1    1    6    6  503    0  0.58651629907E+02  0.39673018152E+03 -0.27829472817E+03  0.48814219890E+03  0.00000000000E+00 0. -1.
         -1    1    6    6    0  503  0.38827555407E+02  0.10210697539E+03 -0.35462323529E+02  0.11485203469E+03  0.00000000000E+00 0.  1.
<mgrwt>
<rscale>  0 0.22040944E+04</rscale>
<asrwt>0</asrwt>
<pdfrwt beam="1">  1        2 0.19527446E+00 0.22040944E+04</pdfrwt>
<pdfrwt beam="2">  1       -1 0.14720692E+00 0.22040944E+04</pdfrwt>
<totfact> 0.65861834E+00</totfact>
</mgrwt>
</event>
<event>
12    6  0.1569942E-007  0.1408327E+04  0.7818608E-02  0.8947813E-01
          2   -1    0    0  501    0  0.00000000000E+00  0.00000000000E+00  0.66616561449E+03  0.66616561449E+03  0.00000000000E+00 0. -1.
         -1   -1    0    0    0  501 -0.00000000000E+00 -0.00000000000E+00 -0.74432848993E+03  0.74432848993E+03  0.00000000000E+00 0.  1.
         24    2    1    2    0    0  0.19628341482E+03  0.17123410912E+03 -0.34330007681E+03  0.43615950621E+03  0.67319187948E+02 0.  0.
        254    2    1    2    0    0 -0.19628341482E+03 -0.17123410912E+03  0.26513720137E+03  0.97433459821E+03  0.90065635770E+03 0.  0.
         23    2    4    4    0    0  0.35008761247E+03 -0.11377889686E+03  0.13678760155E+03  0.40301379226E+03  0.90566522717E+02 0.  0.
         23    2    4    4    0    0 -0.54637102729E+03 -0.57455212259E+02  0.12834959982E+03  0.57132080595E+03  0.90063547881E+02 0.  0.
          4    1    3    3  502    0  0.32596327422E+02  0.53599763829E+02 -0.49751085235E+02  0.80066383245E+02  0.00000000000E+00 0. -1.
         -3    1    3    3    0  502  0.16368708739E+03  0.11763434529E+03 -0.29354899157E+03  0.35609312297E+03  0.00000000000E+00 0.  1.
         11    1    5    5    0    0  0.13628070378E+03 -0.49158520508E+02  0.78001499198E+01  0.14508560473E+03  0.00000000000E+00 0. -1.
        -11    1    5    5    0    0  0.21380690870E+03 -0.64620376349E+02  0.12898745163E+03  0.25792818753E+03  0.00000000000E+00 0.  1.
          4    1    6    6  503    0 -0.53512988996E+03 -0.62830886201E+02  0.11126361288E+03  0.55017389155E+03  0.00000000000E+00 0.  1.
         -4    1    6    6    0  503 -0.11241137329E+02  0.53756739418E+01  0.17085986944E+02  0.21146914400E+02  0.00000000000E+00 0. -1.
<mgrwt>
<rscale>  0 0.14083267E+04</rscale>
<asrwt>0</asrwt>
<pdfrwt beam="1">  1        2 0.10248702E+00 0.14083267E+04</pdfrwt>
<pdfrwt beam="2">  1       -1 0.11451208E+00 0.14083267E+04</pdfrwt>
<totfact> 0.33617306E+01</totfact>
</mgrwt>
</event>
<event>
12    6  0.1569942E-007  0.1744214E+04  0.7818608E-02  0.8736542E-01
          2   -1    0    0  501    0  0.00000000000E+00  0.00000000000E+00  0.77916955643E+03  0.77916955643E+03  0.00000000000E+00 0. -1.
         -1   -1    0    0    0  501 -0.00000000000E+00 -0.00000000000E+00 -0.97612968115E+03  0.97612968115E+03  0.00000000000E+00 0.  1.
         24    2    1    2    0    0  0.20060120428E+03 -0.67717071167E+02  0.53371491973E+03  0.57992816429E+03  0.81477698242E+02 0.  0.
        254    2    1    2    0    0 -0.20060120428E+03  0.67717071167E+02 -0.73067504445E+03  0.11753710733E+04  0.89598253021E+03 0.  0.
         23    2    4    4    0    0 -0.53416731399E+02  0.46940819585E+03 -0.40168412868E+03  0.62804815398E+03  0.99483380313E+02 0.  0.
         23    2    4    4    0    0 -0.14718447288E+03 -0.40169112468E+03 -0.32899091576E+03  0.54732291930E+03  0.91150022671E+02 0.  0.
          2    1    3    3  502    0  0.15074428143E+03 -0.84590497877E+02  0.43438451403E+03  0.46751395353E+03  0.00000000000E+00 0. -1.
         -1    1    3    3    0  502  0.49856922850E+02  0.16873426710E+02  0.99330405693E+02  0.11241421076E+03  0.00000000000E+00 0.  1.
         11    1    5    5    0    0 -0.29752884674E+02  0.23993447533E+03 -0.26996515176E+03  0.36240166909E+03  0.00000000000E+00 0.  1.
        -11    1    5    5    0    0 -0.23663846726E+02  0.22947372052E+03 -0.13171897693E+03  0.26564648489E+03  0.00000000000E+00 0. -1.
          2    1    6    6  503    0 -0.64095724524E+02 -0.73442227534E+02 -0.91883503370E+02  0.13395745921E+03  0.00000000000E+00 0. -1.
         -2    1    6    6    0  503 -0.83088748359E+02 -0.32824889715E+03 -0.23710741239E+03  0.41336546009E+03  0.00000000000E+00 0.  1.
<mgrwt>
<rscale>  0 0.17442139E+04</rscale>
<asrwt>0</asrwt>
<pdfrwt beam="1">  1        2 0.11987224E+00 0.17442139E+04</pdfrwt>
<pdfrwt beam="2">  1       -1 0.15017380E+00 0.17442139E+04</pdfrwt>
<totfact> 0.13432477E+01</totfact>
</mgrwt>
</event>
<event>
12    6  0.1569942E-007  0.2500490E+04  0.7818608E-02  0.8402811E-01
          2   -1    0    0  501    0  0.00000000000E+00  0.00000000000E+00  0.27676731631E+04  0.27676731631E+04  0.00000000000E+00 0. -1.
         -1   -1    0    0    0  501 -0.00000000000E+00 -0.00000000000E+00 -0.56477491830E+03  0.56477491830E+03  0.00000000000E+00 0.  1.
         24    2    1    2    0    0 -0.18558909203E+03 -0.24445819563E+03  0.23377123202E+04  0.23591741200E+04  0.81243559257E+02 0.  0.
        254    2    1    2    0    0  0.18558909203E+03  0.24445819563E+03 -0.13481407543E+03  0.97327396139E+03  0.91372000552E+03 0.  0.
         23    2    4    4    0    0  0.10723917663E+03 -0.13835663762E+03 -0.43135316740E+03  0.47427391993E+03  0.90704993892E+02 0.  0.
         23    2    4    4    0    0  0.78349915401E+02  0.38281483325E+03  0.29653909197E+03  0.49900004146E+03  0.91540715036E+02 0.  0.
          4    1    3    3  502    0 -0.62349997551E+02 -0.12682802828E+03  0.12874707502E+04  0.12952041552E+04  0.00000000000E+00 0. -1.
         -3    1    3    3    0  502 -0.12323909448E+03 -0.11763016735E+03  0.10502415700E+04  0.10639699648E+04  0.00000000000E+00 0.  1.
         11    1    5    5    0    0  0.70365236357E+02 -0.76436789025E+02 -0.14119246256E+03  0.17529734934E+03  0.00000000000E+00 0. -1.
        -11    1    5    5    0    0  0.36873940269E+02 -0.61919848595E+02 -0.29016070484E+03  0.29897657058E+03  0.00000000000E+00 0.  1.
          4    1    6    6  503    0  0.43466197957E+02  0.35058111463E+03  0.25247806631E+03  0.43421377485E+03  0.00000000000E+00 0. -1.
         -4    1    6    6    0  503  0.34883717444E+02  0.32233718615E+02  0.44061025668E+02  0.64786266611E+02  0.00000000000E+00 0.  1.
<mgrwt>
<rscale>  0 0.25004899E+04</rscale>
<asrwt>0</asrwt>
<pdfrwt beam="1">  1        2 0.42579586E+00 0.25004899E+04</pdfrwt>
<pdfrwt beam="2">  1       -1 0.86888450E-01 0.25004899E+04</pdfrwt>
<totfact> 0.32014698E+00</totfact>
</mgrwt>
</event>
<event>
12    6  0.1569942E-007  0.2644458E+04  0.7818608E-02  0.8353255E-01
          2   -1    0    0  501    0  0.00000000000E+00  0.00000000000E+00  0.17641620097E+04  0.17641620097E+04  0.00000000000E+00 0. -1.
         -1   -1    0    0    0  501 -0.00000000000E+00 -0.00000000000E+00 -0.99100248488E+03  0.99100248488E+03  0.00000000000E+00 0.  1.
         24    2    1    2    0    0 -0.21749417883E+03 -0.88310831767E+02  0.14818405140E+04  0.15025140951E+04  0.81208228052E+02 0.  0.
        254    2    1    2    0    0  0.21749417883E+03  0.88310831767E+02 -0.70868098919E+03  0.12526503994E+04  0.10058835708E+04 0.  0.
         23    2    4    4    0    0  0.39474119100E+03  0.35125922666E+03 -0.81135957036E+02  0.54298426132E+03  0.95106321191E+02 0.  0.
         23    2    4    4    0    0 -0.17724701217E+03 -0.26294839490E+03 -0.62754503215E+03  0.70966613812E+03  0.96202383109E+02 0.  0.
          2    1    3    3  502    0 -0.15072223540E+03 -0.20619374795E+02  0.98148655954E+03  0.99320602969E+03  0.00000000000E+00 0. -1.
         -1    1    3    3    0  502 -0.66771943436E+02 -0.67691456972E+02  0.50035395442E+03  0.50930806540E+03  0.00000000000E+00 0.  1.
         11    1    5    5    0    0  0.15783114001E+03  0.84235382730E+02 -0.42875731488E+02  0.18396901047E+03  0.00000000000E+00 0.  1.
        -11    1    5    5    0    0  0.23691005099E+03  0.26702384393E+03 -0.38260225548E+02  0.35901525086E+03  0.00000000000E+00 0. -1.
          2    1    6    6  503    0 -0.81421640190E+02 -0.16362746713E+03 -0.26656684959E+03  0.32320475985E+03  0.00000000000E+00 0. -1.
         -2    1    6    6    0  503 -0.95825371979E+02 -0.99320927763E+02 -0.36097818256E+03  0.38646137827E+03  0.00000000000E+00 0.  1.
<mgrwt>
<rscale>  0 0.26444576E+04</rscale>
<asrwt>0</asrwt>
<pdfrwt beam="1">  1        2 0.27140954E+00 0.26444576E+04</pdfrwt>
<pdfrwt beam="2">  1       -1 0.15246192E+00 0.26444576E+04</pdfrwt>
<totfact> 0.30253794E+00</totfact>
</mgrwt>
</event>
<event>
12    6  0.1707695E-007  0.1878726E+04  0.7818608E-02  0.8665519E-01
          2   -1    0    0  501    0  0.00000000000E+00  0.00000000000E+00  0.13705257273E+04  0.13705257273E+04  0.00000000000E+00 0. -1.
         -1   -1    0    0    0  501 -0.00000000000E+00 -0.00000000000E+00 -0.64384248726E+03  0.64384248726E+03  0.00000000000E+00 0.  1.
         24    2    1    2    0    0 -0.63319462106E+03 -0.28506053611E+03  0.50354001470E+03  0.86142723946E+03  0.79431763807E+02 0.  0.
        254    2    1    2    0    0  0.63319462106E+03  0.28506053611E+03  0.22314322530E+03  0.11529409751E+04  0.89290820109E+03 0.  0.
         23    2    4    4    0    0  0.78607835801E+03  0.37387098250E+03  0.30785234610E+02  0.87572290416E+03  0.90797454263E+02 0.  0.
         23    2    4    4    0    0 -0.15288373696E+03 -0.88810446396E+02  0.19235799069E+03  0.27721807089E+03  0.92668925930E+02 0.  0.
          4    1    3    3  502    0 -0.56088615561E+03 -0.27707219223E+03  0.43989384496E+03  0.76476720255E+03  0.00000000000E+00 0. -1.
         -3    1    3    3    0  502 -0.72308465447E+02 -0.79883438770E+01  0.63646169743E+02  0.96660036914E+02  0.00000000000E+00 0.  1.
         11    1    5    5    0    0  0.16712610317E+03  0.61969886622E+02  0.39504403260E+02  0.18257053181E+03  0.00000000000E+00 0. -1.
        -11    1    5    5    0    0  0.61895225485E+03  0.31190109588E+03 -0.87191686499E+01  0.69315237235E+03  0.00000000000E+00 0.  1.
          1    1    6    6  503    0 -0.59234725107E+02 -0.13441004152E+01  0.20187396116E+02  0.62594650142E+02  0.00000000000E+00 0. -1.
         -1    1    6    6    0  503 -0.93649011850E+02 -0.87466345980E+02  0.17217059457E+03  0.21462342075E+03  0.00000000000E+00 0.  1.
<mgrwt>
<rscale>  0 0.18787258E+04</rscale>
<asrwt>0</asrwt>
<pdfrwt beam="1">  1        2 0.21085011E+00 0.18787258E+04</pdfrwt>
<pdfrwt beam="2">  1       -1 0.99052690E-01 0.18787258E+04</pdfrwt>
<totfact> 0.15672028E+01</totfact>
</mgrwt>
</event>
<event>
12    6  0.1569942E-007  0.1750522E+04  0.7818608E-02  0.8733063E-01
         -1   -1    0    0    0  501 -0.00000000000E+00  0.00000000000E+00  0.32064616729E+03  0.32064616729E+03  0.00000000000E+00 0.  1.
          2   -1    0    0  501    0  0.00000000000E+00 -0.00000000000E+00 -0.23891814160E+04  0.23891814160E+04  0.00000000000E+00 0. -1.
         24    2    1    2    0    0 -0.46205845138E+03  0.40395805134E+03 -0.46631156051E+03  0.77446502008E+03  0.75295923677E+02 0.  0.
        254    2    1    2    0    0  0.46205845138E+03 -0.40395805134E+03 -0.16022236882E+04  0.19353625632E+04  0.89544814717E+03 0.  0.
         23    2    4    4    0    0  0.54795853269E+03  0.63399919750E+02 -0.58241880252E+03  0.80680176798E+03  0.86251538654E+02 0.  0.
         23    2    4    4    0    0 -0.85900081305E+02 -0.46735797109E+03 -0.10198048857E+04  0.11285607952E+04  0.88572944754E+02 0.  0.
          4    1    3    3  502    0 -0.11029017626E+02  0.53807792496E+01  0.11918227000E+01  0.12329333173E+02  0.00000000000E+00 0. -1.
         -3    1    3    3    0  502 -0.45102943376E+03  0.39857727209E+03 -0.46750338321E+03  0.76213568691E+03  0.00000000000E+00 0.  1.
         11    1    5    5    0    0  0.48815984389E+03  0.43829406436E+02 -0.54754039236E+03  0.73486157290E+03  0.00000000000E+00 0. -1.
        -11    1    5    5    0    0  0.59798688797E+02  0.19570513313E+02 -0.34878410153E+02  0.71940195079E+02  0.00000000000E+00 0.  1.
          2    1    6    6  503    0 -0.64368621301E+02 -0.44844382777E+03 -0.93358027439E+03  0.10376980846E+04  0.00000000000E+00 0. -1.
         -2    1    6    6    0  503 -0.21531460004E+02 -0.18914143320E+02 -0.86224611286E+02  0.90862710607E+02  0.00000000000E+00 0.  1.
<mgrwt>
<rscale>  0 0.17505221E+04</rscale>
<asrwt>0</asrwt>
<pdfrwt beam="1">  1        2 0.36756637E+00 0.17505221E+04</pdfrwt>
<pdfrwt beam="2">  1       -1 0.49330180E-01 0.17505221E+04</pdfrwt>
<totfact> 0.17940950E+01</totfact>
</mgrwt>
</event>
<event>
12    6  0.1569942E-007  0.1421056E+04  0.7818608E-02  0.8938717E-01
         -1   -1    0    0    0  501 -0.00000000000E+00  0.00000000000E+00  0.61752984959E+03  0.61752984959E+03  0.00000000000E+00 0.  1.
          2   -1    0    0  501    0  0.00000000000E+00 -0.00000000000E+00 -0.81753137482E+03  0.81753137482E+03  0.00000000000E+00 0. -1.
         24    2    1    2    0    0  0.11206637151E+01 -0.22006791891E+03  0.28304235284E+03  0.36750500597E+03  0.80720574136E+02 0.  0.
        254    2    1    2    0    0 -0.11206637151E+01  0.22006791891E+03 -0.48304387807E+03  0.10675562185E+04  0.92623633409E+03 0.  0.
         23    2    4    4    0    0  0.75567560751E+02  0.35391655707E+03  0.15525961788E+03  0.40478168268E+03  0.93676443598E+02 0.  0.
         23    2    4    4    0    0 -0.76688224466E+02 -0.13384863816E+03 -0.63830349595E+03  0.66277453577E+03  0.89678261669E+02 0.  0.
          2    1    3    3  502    0  0.40072865901E+02 -0.95131538431E+02  0.11543297252E+03  0.15485675746E+03  0.00000000000E+00 0. -1.
         -1    1    3    3    0  502 -0.38952202186E+02 -0.12493638048E+03  0.16760938032E+03  0.21264824851E+03  0.00000000000E+00 0.  1.
         11    1    5    5    0    0  0.16651258239E+02  0.26481972193E+03  0.93127479855E+02  0.28121073420E+03  0.00000000000E+00 0.  1.
        -11    1    5    5    0    0  0.58916302511E+02  0.89096835135E+02  0.62132138028E+02  0.12357094848E+03  0.00000000000E+00 0. -1.
          3    1    6    6  503    0 -0.28924060166E+02 -0.30723414365E+02 -0.35540465723E+03  0.35790082401E+03  0.00000000000E+00 0. -1.
         -3    1    6    6    0  503 -0.47764164299E+02 -0.10312522379E+03 -0.28289883872E+03  0.30487371176E+03  0.00000000000E+00 0.  1.
<mgrwt>
<rscale>  0 0.14210560E+04</rscale>
<asrwt>0</asrwt>
<pdfrwt beam="1">  1        2 0.12577406E+00 0.14210560E+04</pdfrwt>
<pdfrwt beam="2">  1       -1 0.95004592E-01 0.14210560E+04</pdfrwt>
<totfact> 0.39762092E+01</totfact>
</mgrwt>
</event>
<event>
12    6  0.1569942E-007  0.2645672E+04  0.7818608E-02  0.8352851E-01
         -1   -1    0    0    0  501 -0.00000000000E+00  0.00000000000E+00  0.73014624217E+03  0.73014624217E+03  0.00000000000E+00 0.  1.
          2   -1    0    0  501    0  0.00000000000E+00 -0.00000000000E+00 -0.23966369500E+04  0.23966369500E+04  0.00000000000E+00 0. -1.
         24    2    1    2    0    0 -0.91608272138E+03 -0.56013038835E+03 -0.12836906689E+04  0.16754496064E+04  0.79473554257E+02 0.  0.
        254    2    1    2    0    0  0.91608272138E+03  0.56013038835E+03 -0.38280003894E+03  0.14513335858E+04  0.89826482899E+03 0.  0.
         23    2    4    4    0    0  0.56837734249E+03  0.60495811703E+03 -0.60164754921E+03  0.10291830198E+04  0.90613397944E+02 0.  0.
         23    2    4    4    0    0  0.34770537889E+03 -0.44827728686E+02  0.21884751026E+03  0.42215056601E+03  0.86071550816E+02 0.  0.
          2    1    3    3  502    0 -0.90380987795E+03 -0.54021361921E+03 -0.12491427827E+04  0.16337260301E+04  0.00000000000E+00 0. -1.
         -1    1    3    3    0  502 -0.12272843435E+02 -0.19916769139E+02 -0.34547886229E+02  0.41723576331E+02  0.00000000000E+00 0.  1.
         11    1    5    5    0    0  0.53237690481E+03  0.59286101608E+03 -0.57903071000E+03  0.98498016035E+03  0.00000000000E+00 0. -1.
        -11    1    5    5    0    0  0.36000437681E+02  0.12097100952E+02 -0.22616839202E+02  0.44202859412E+02  0.00000000000E+00 0.  1.
          1    1    6    6  503    0  0.14394712747E+03 -0.37814453228E+02  0.13755448692E+03  0.20266214558E+03  0.00000000000E+00 0. -1.
         -1    1    6    6    0  503  0.20375825143E+03 -0.70132754585E+01  0.81293023343E+02  0.21948842043E+03  0.00000000000E+00 0.  1.
<mgrwt>
<rscale>  0 0.26456723E+04</rscale>
<asrwt>0</asrwt>
<pdfrwt beam="1">  1        2 0.36871337E+00 0.26456723E+04</pdfrwt>
<pdfrwt beam="2">  1       -1 0.11233019E+00 0.26456723E+04</pdfrwt>
<totfact> 0.29049822E+00</totfact>
</mgrwt>
</event>
<event>
12    6  0.1569942E-007  0.2580189E+04  0.7818608E-02  0.8374962E-01
          2   -1    0    0  501    0  0.00000000000E+00  0.00000000000E+00  0.31676810552E+04  0.31676810552E+04  0.00000000000E+00 0. -1.
         -1   -1    0    0    0  501 -0.00000000000E+00 -0.00000000000E+00 -0.52541388980E+03  0.52541388980E+03  0.00000000000E+00 0.  1.
         24    2    1    2    0    0  0.39016944606E+03 -0.14129184895E+03 -0.34483357488E+03  0.54524251738E+03  0.78636029780E+02 0.  0.
        254    2    1    2    0    0 -0.39016944606E+03  0.14129184895E+03  0.29871007403E+04  0.31478524276E+04  0.90222419069E+03 0.  0.
         23    2    4    4    0    0 -0.37177804738E+03  0.11777129857E+02  0.29589915087E+04  0.29837028937E+04  0.92166110544E+02 0.  0.
         23    2    4    4    0    0 -0.18391398677E+02  0.12951471910E+03  0.28109231606E+02  0.16414953396E+03  0.95092768336E+02 0.  0.
          4    1    3    3  502    0  0.14543566284E+03 -0.12984251385E+02 -0.12070843286E+03  0.18944827414E+03  0.00000000000E+00 0. -1.
         -1    1    3    3    0  502  0.24473378322E+03 -0.12830759757E+03 -0.22412514202E+03  0.35579424325E+03  0.00000000000E+00 0.  1.
         11    1    5    5    0    0 -0.30162503173E+03  0.26105838581E+02  0.20969136757E+04  0.21186566825E+04  0.00000000000E+00 0.  1.
        -11    1    5    5    0    0 -0.70153015654E+02 -0.14328708724E+02  0.86207783293E+03  0.86504621121E+03  0.00000000000E+00 0. -1.
          1    1    6    6  503    0 -0.55580472142E+02  0.99329747363E+02  0.19200837745E+02  0.11543075745E+03  0.00000000000E+00 0. -1.
         -1    1    6    6    0  503  0.37189073465E+02  0.30184971732E+02  0.89083938607E+01  0.48718776512E+02  0.00000000000E+00 0.  1.
<mgrwt>
<rscale>  0 0.25801888E+04</rscale>
<asrwt>0</asrwt>
<pdfrwt beam="1">  1        2 0.48733554E+00 0.25801888E+04</pdfrwt>
<pdfrwt beam="2">  1       -1 0.80832908E-01 0.25801888E+04</pdfrwt>
<totfact> 0.20925053E+00</totfact>
</mgrwt>
</event>
<event>
12    6  0.1569942E-007  0.1875450E+04  0.7818608E-02  0.8667174E-01
         -1   -1    0    0    0  501 -0.00000000000E+00  0.00000000000E+00  0.63588389491E+03  0.63588389491E+03  0.00000000000E+00 0.  1.
          2   -1    0    0  501    0  0.00000000000E+00 -0.00000000000E+00 -0.13828433249E+04  0.13828433249E+04  0.00000000000E+00 0. -1.
         24    2    1    2    0    0 -0.40689768122E+02  0.59553919003E+03  0.15727014366E+03  0.62272574941E+03  0.82041920980E+02 0.  0.
        254    2    1    2    0    0  0.40689768122E+02 -0.59553919003E+03 -0.90422957361E+03  0.13960014704E+04  0.88026495976E+03 0.  0.
         23    2    4    4    0    0 -0.17839303905E+03 -0.75369416092E+03 -0.67832524246E+03  0.10336114054E+04  0.91369788608E+02 0.  0.
         23    2    4    4    0    0  0.21908280718E+03  0.15815497089E+03 -0.22590433116E+03  0.36239006495E+03  0.85343547634E+02 0.  0.
          4    1    3    3  502    0 -0.27080188622E+02  0.32512394506E+03  0.43894889012E+02  0.32918942502E+03  0.00000000000E+00 0. -1.
         -3    1    3    3    0  502 -0.13609579500E+02  0.27041524498E+03  0.11337525464E+03  0.29353632439E+03  0.00000000000E+00 0.  1.
         11    1    5    5    0    0 -0.98226369466E+02 -0.53288644317E+03 -0.51454248461E+03  0.74724182795E+03  0.00000000000E+00 0. -1.
        -11    1    5    5    0    0 -0.80166669587E+02 -0.22080771775E+03 -0.16378275785E+03  0.28636957747E+03  0.00000000000E+00 0.  1.
          3    1    6    6  503    0  0.22375841128E+03  0.16263462834E+03 -0.22291082218E+03  0.35525636321E+03  0.00000000000E+00 0. -1.
         -3    1    6    6    0  503 -0.46756041030E+01 -0.44796574495E+01 -0.29935089730E+01  0.71337017434E+01  0.00000000000E+00 0.  1.
<mgrwt>
<rscale>  0 0.18754496E+04</rscale>
<asrwt>0</asrwt>
<pdfrwt beam="1">  1        2 0.21274513E+00 0.18754496E+04</pdfrwt>
<pdfrwt beam="2">  1       -1 0.97828292E-01 0.18754496E+04</pdfrwt>
<totfact> 0.15864808E+01</totfact>
</mgrwt>
</event>
<event>
12    6  0.1569942E-007  0.1770061E+04  0.7818608E-02  0.8722385E-01
         -1   -1    0    0    0  501 -0.00000000000E+00  0.00000000000E+00  0.41703505699E+03  0.41703505699E+03  0.00000000000E+00 0.  1.
          2   -1    0    0  501    0  0.00000000000E+00 -0.00000000000E+00 -0.18782081134E+04  0.18782081134E+04  0.00000000000E+00 0. -1.
         24    2    1    2    0    0 -0.99355431851E+02 -0.38004991416E+03  0.11919235643E+03  0.41814019187E+03  0.79529636809E+02 0.  0.
        254    2    1    2    0    0  0.99355431851E+02  0.38004991416E+03 -0.15803654128E+04  0.18771029785E+04  0.93362268332E+03 0.  0.
         23    2    4    4    0    0 -0.22082354320E+03  0.54860732405E+03 -0.12198601879E+04  0.13588018934E+04  0.92469855789E+02 0.  0.
         23    2    4    4    0    0  0.32017897506E+03 -0.16855740988E+03 -0.36050522490E+03  0.51830108510E+03  0.88010346811E+02 0.  0.
          4    1    3    3  502    0 -0.31722155396E+02 -0.23169500519E+03  0.41417391828E+02  0.23749583347E+03  0.00000000000E+00 0. -1.
         -3    1    3    3    0  502 -0.67633276455E+02 -0.14835490898E+03  0.77774964598E+02  0.18064435839E+03  0.00000000000E+00 0.  1.
         11    1    5    5    0    0 -0.15298693749E+03  0.43967328458E+03 -0.88055217166E+03  0.99603701097E+03  0.00000000000E+00 0. -1.
        -11    1    5    5    0    0 -0.67836605719E+02  0.10893403947E+03 -0.33930801627E+03  0.36276488245E+03  0.00000000000E+00 0.  1.
          2    1    6    6  503    0  0.23185231734E+03 -0.10662854363E+03 -0.30268558165E+03  0.39590870754E+03  0.00000000000E+00 0. -1.
         -2    1    6    6    0  503  0.88326657717E+02 -0.61928866256E+02 -0.57819643253E+02  0.12239237756E+03  0.00000000000E+00 0.  1.
<mgrwt>
<rscale>  0 0.17700606E+04</rscale>
<asrwt>0</asrwt>
<pdfrwt beam="1">  1        2 0.28895509E+00 0.17700606E+04</pdfrwt>
<pdfrwt beam="2">  1       -1 0.64159240E-01 0.17700606E+04</pdfrwt>
<totfact> 0.20731062E+01</totfact>
</mgrwt>
</event>
<event>
12    6  0.1569942E-007  0.1632987E+04  0.7818608E-02  0.8800535E-01
          2   -1    0    0  501    0  0.00000000000E+00  0.00000000000E+00  0.17785506734E+04  0.17785506734E+04  0.00000000000E+00 0. -1.
         -1   -1    0    0    0  501 -0.00000000000E+00 -0.00000000000E+00 -0.37483431838E+03  0.37483431838E+03  0.00000000000E+00 0.  1.
         24    2    1    2    0    0  0.36789985570E+03 -0.42642223508E+03  0.41404253500E+03  0.70434806622E+03  0.86537571133E+02 0.  0.
        254    2    1    2    0    0 -0.36789985570E+03  0.42642223508E+03  0.98967381997E+03  0.14490369255E+04  0.89614034345E+03 0.  0.
         23    2    4    4    0    0  0.19442646808E+03 -0.12111791959E+02 -0.12471447522E+02  0.21580777953E+03  0.92027787692E+02 0.  0.
         23    2    4    4    0    0 -0.56232632378E+03  0.43853402703E+03  0.10021452675E+04  0.12332291460E+04  0.89643750733E+02 0.  0.
          2    1    3    3  502    0 -0.74401912806E+00 -0.12564400254E+02  0.89476017076E-01  0.12586728096E+02  0.00000000000E+00 0. -1.
         -1    1    3    3    0  502  0.36864387482E+03 -0.41385783482E+03  0.41395305898E+03  0.69176133813E+03  0.00000000000E+00 0.  1.
         11    1    5    5    0    0  0.71479912599E+02 -0.33068489413E+02 -0.39627126013E+02  0.88165821117E+02  0.00000000000E+00 0.  1.
        -11    1    5    5    0    0  0.12294655548E+03  0.20956697454E+02  0.27155678491E+02  0.12764195842E+03  0.00000000000E+00 0. -1.
          2    1    6    6  503    0 -0.16391392276E+03  0.98755253928E+02  0.21498622868E+03  0.28781843717E+03  0.00000000000E+00 0. -1.
         -2    1    6    6    0  503 -0.39841240102E+03  0.33977877311E+03  0.78715903882E+03  0.94541070881E+03  0.00000000000E+00 0.  1.
<mgrwt>
<rscale>  0 0.16329872E+04</rscale>
<asrwt>0</asrwt>
<pdfrwt beam="1">  1        2 0.27362318E+00 0.16329872E+04</pdfrwt>
<pdfrwt beam="2">  1       -1 0.57666819E-01 0.16329872E+04</pdfrwt>
<totfact> 0.29432652E+01</totfact>
</mgrwt>
</event>
<event>
12    6  0.1569942E-007  0.2542266E+04  0.7818608E-02  0.8388081E-01
         -1   -1    0    0    0  501 -0.00000000000E+00  0.00000000000E+00  0.13212301242E+04  0.13212301242E+04  0.00000000000E+00 0.  1.
          2   -1    0    0  501    0  0.00000000000E+00 -0.00000000000E+00 -0.12229357936E+04  0.12229357936E+04  0.00000000000E+00 0. -1.
         24    2    1    2    0    0 -0.26730781118E+03  0.14851003995E+03 -0.10315448390E+04  0.10803314994E+04  0.97584302007E+02 0.  0.
        254    2    1    2    0    0  0.26730781118E+03 -0.14851003995E+03  0.11298391696E+04  0.14638344183E+04  0.87907107637E+03 0.  0.
         23    2    4    4    0    0  0.54717158090E+02 -0.20958257344E+03  0.11934569388E+04  0.12163770771E+04  0.91186108802E+02 0.  0.
         23    2    4    4    0    0  0.21259065309E+03  0.61072533493E+02 -0.63617769259E+02  0.24745734120E+03  0.90902557824E+02 0.  0.
          4    1    3    3  502    0 -0.15329810010E+03  0.88256795832E+02 -0.75128651253E+03  0.77182964015E+03  0.00000000000E+00 0. -1.
         -3    1    3    3    0  502 -0.11400971108E+03  0.60253244116E+02 -0.28025832643E+03  0.30850185929E+03  0.00000000000E+00 0.  1.
         11    1    5    5    0    0 -0.10822579885E+02 -0.13530877485E+03  0.66369037391E+03  0.67742933596E+03  0.00000000000E+00 0. -1.
        -11    1    5    5    0    0  0.65539737974E+02 -0.74273798591E+02  0.52976656493E+03  0.53894774118E+03  0.00000000000E+00 0.  1.
          4    1    6    6  503    0  0.20494045282E+03  0.39254737659E+02 -0.36521810633E+02  0.21183806618E+03  0.00000000000E+00 0. -1.
         -4    1    6    6    0  503  0.76502002746E+01  0.21817795834E+02 -0.27095958627E+02  0.35619275024E+02  0.00000000000E+00 0.  1.
<mgrwt>
<rscale>  0 0.25422664E+04</rscale>
<asrwt>0</asrwt>
<pdfrwt beam="1">  1        2 0.18814397E+00 0.25422664E+04</pdfrwt>
<pdfrwt beam="2">  1       -1 0.20326617E+00 0.25422664E+04</pdfrwt>
<totfact> 0.26566004E+00</totfact>
</mgrwt>
</event>
<event>
12    6  0.1569942E-007  0.2367774E+04  0.7818608E-02  0.8451668E-01
          2   -1    0    0  501    0  0.00000000000E+00  0.00000000000E+00  0.89756882083E+03  0.89756882083E+03  0.00000000000E+00 0. -1.
         -1   -1    0    0    0  501 -0.00000000000E+00 -0.00000000000E+00 -0.15615387988E+04  0.15615387988E+04  0.00000000000E+00 0.  1.
         24    2    1    2    0    0  0.91264657074E+02  0.27798602210E+03  0.71631266258E+03  0.77792258355E+03  0.80338342743E+02 0.  0.
        254    2    1    2    0    0 -0.91264657074E+02 -0.27798602210E+03 -0.13802826406E+04  0.16811850361E+04  0.91411021853E+03 0.  0.
         23    2    4    4    0    0  0.19788224179E+02 -0.13685709018E+02  0.11948704182E+03  0.15132078954E+03  0.89676952096E+02 0.  0.
         23    2    4    4    0    0 -0.11105288125E+03 -0.26430031308E+03 -0.14997696824E+04  0.15298642466E+04  0.94805668314E+02 0.  0.
          4    1    3    3  502    0  0.78403977876E+02  0.17366484692E+03  0.37255697231E+03  0.41845592411E+03  0.00000000000E+00 0. -1.
         -3    1    3    3    0  502  0.12860679198E+02  0.10432117518E+03  0.34375569027E+03  0.35946665945E+03  0.00000000000E+00 0.  1.
         11    1    5    5    0    0  0.42622575134E+02 -0.14670521170E+02  0.12028236947E+03  0.12845137799E+03  0.00000000000E+00 0. -1.
        -11    1    5    5    0    0 -0.22834350955E+02  0.98481215148E+00 -0.79532765279E+00  0.22869411548E+02  0.00000000000E+00 0.  1.
          2    1    6    6  503    0 -0.33280248142E+02 -0.19390230929E+03 -0.94454204578E+03  0.96481363833E+03  0.00000000000E+00 0. -1.
         -2    1    6    6    0  503 -0.77772633112E+02 -0.70398003788E+02 -0.55522763662E+03  0.56505060823E+03  0.00000000000E+00 0.  1.
<mgrwt>
<rscale>  0 0.23677741E+04</rscale>
<asrwt>0</asrwt>
<pdfrwt beam="1">  1        2 0.13808751E+00 0.23677741E+04</pdfrwt>
<pdfrwt beam="2">  1       -1 0.24023673E+00 0.23677741E+04</pdfrwt>
<totfact> 0.24448201E+00</totfact>
</mgrwt>
</event>
<event>
12    6  0.1569942E-007  0.1091310E+04  0.7818608E-02  0.9213703E-01
         -1   -1    0    0    0  501 -0.00000000000E+00  0.00000000000E+00  0.41171230887E+03  0.41171230887E+03  0.00000000000E+00 0.  1.
          2   -1    0    0  501    0  0.00000000000E+00 -0.00000000000E+00 -0.72317373930E+03  0.72317373930E+03  0.00000000000E+00 0. -1.
         24    2    1    2    0    0 -0.48505634302E+02 -0.10933052767E+03 -0.14317793872E+03  0.20381006918E+03  0.82052795953E+02 0.  0.
        254    2    1    2    0    0  0.48505634302E+02  0.10933052767E+03 -0.16828349171E+03  0.93107597899E+03  0.90789712205E+03 0.  0.
         23    2    4    4    0    0 -0.21472683687E+01  0.49899304718E+03 -0.13262102933E+03  0.52565744015E+03  0.98634350322E+02 0.  0.
         23    2    4    4    0    0  0.50652902671E+02 -0.38966251951E+03 -0.35662462380E+02  0.40541853884E+03  0.93219014962E+02 0.  0.
          2    1    3    3  502    0 -0.27195757541E+02  0.58393831908E+01 -0.30619559491E+02  0.41367439462E+02  0.00000000000E+00 0. -1.
         -1    1    3    3    0  502 -0.21309876762E+02 -0.11516991086E+03 -0.11255837923E+03  0.16244262971E+03  0.00000000000E+00 0.  1.
         11    1    5    5    0    0  0.10855676643E+02  0.49112460033E+03 -0.11947988963E+03  0.50556568593E+03  0.00000000000E+00 0. -1.
        -11    1    5    5    0    0 -0.13002945011E+02  0.78684468533E+01 -0.13141139703E+02  0.20091754218E+02  0.00000000000E+00 0.  1.
          3    1    6    6  503    0  0.13151843566E+02 -0.34600188880E+03 -0.32576952970E+02  0.34778087341E+03  0.00000000000E+00 0. -1.
         -3    1    6    6    0  503  0.37501059105E+02 -0.43660630707E+02 -0.30855094099E+01  0.57637665429E+02  0.00000000000E+00 0.  1.
<mgrwt>
<rscale>  0 0.10913103E+04</rscale>
<asrwt>0</asrwt>
<pdfrwt beam="1">  1        2 0.11125750E+00 0.10913103E+04</pdfrwt>
<pdfrwt beam="2">  1       -1 0.63340356E-01 0.10913103E+04</pdfrwt>
<totfact> 0.11273868E+02</totfact>
</mgrwt>
</event>
<event>
12    6  0.1569942E-007  0.1201100E+04  0.7818608E-02  0.9111894E-01
         -1   -1    0    0    0  501 -0.00000000000E+00  0.00000000000E+00  0.32965812832E+03  0.32965812832E+03  0.00000000000E+00 0.  1.
          2   -1    0    0  501    0  0.00000000000E+00 -0.00000000000E+00 -0.10940433208E+04  0.10940433208E+04  0.00000000000E+00 0. -1.
         24    2    1    2    0    0 -0.42260766390E+02 -0.61646682961E+02  0.12327181637E+03  0.16512703874E+03  0.80527711475E+02 0.  0.
        254    2    1    2    0    0  0.42260766390E+02  0.61646682961E+02 -0.88765700888E+03  0.12585744104E+04  0.88909408683E+03 0.  0.
         23    2    4    4    0    0 -0.71925828999E+02 -0.12359693070E+03 -0.98772319310E+03  0.10021847463E+04  0.91255867540E+02 0.  0.
         23    2    4    4    0    0  0.11418659539E+03  0.18524361366E+03  0.10006618422E+03  0.25638966411E+03  0.91480291159E+02 0.  0.
          2    1    3    3  502    0 -0.56851149868E+01 -0.17460343994E+02 -0.93691107853E+01  0.20614664240E+02  0.00000000000E+00 0. -1.
         -1    1    3    3    0  502 -0.36575651403E+02 -0.44186338967E+02  0.13264092715E+03  0.14451237450E+03  0.00000000000E+00 0.  1.
         11    1    5    5    0    0 -0.53565035484E+02 -0.10499448237E+02 -0.28461377575E+03  0.28980071219E+03  0.00000000000E+00 0. -1.
        -11    1    5    5    0    0 -0.18360793514E+02 -0.11309748247E+03 -0.70310941735E+03  0.71238403410E+03  0.00000000000E+00 0.  1.
          4    1    6    6  503    0  0.12316225703E+03  0.17089414598E+03  0.10907576085E+03  0.23721566620E+03  0.00000000000E+00 0.  1.
         -4    1    6    6    0  503 -0.89756616424E+01  0.14349467688E+02 -0.90095766329E+01  0.19173997912E+02  0.00000000000E+00 0. -1.
<mgrwt>
<rscale>  0 0.12011000E+04</rscale>
<asrwt>0</asrwt>
<pdfrwt beam="1">  1        2 0.16831436E+00 0.12011000E+04</pdfrwt>
<pdfrwt beam="2">  1       -1 0.50716636E-01 0.12011000E+04</pdfrwt>
<totfact> 0.96541405E+01</totfact>
</mgrwt>
</event>
<event>
12    6  0.1569942E-007  0.1443154E+04  0.7818608E-02  0.8923161E-01
          2   -1    0    0  501    0  0.00000000000E+00  0.00000000000E+00  0.10061713468E+04  0.10061713468E+04  0.00000000000E+00 0. -1.
         -1   -1    0    0    0  501 -0.00000000000E+00 -0.00000000000E+00 -0.51747950657E+03  0.51747950657E+03  0.00000000000E+00 0.  1.
         24    2    1    2    0    0  0.14618352537E+03  0.41288915160E+03  0.15223228134E+03  0.47077199578E+03  0.81268259052E+02 0.  0.
        254    2    1    2    0    0 -0.14618352537E+03 -0.41288915160E+03  0.33645955887E+03  0.10528788576E+04  0.89638260768E+03 0.  0.
         23    2    4    4    0    0  0.34144992577E+03 -0.26391142270E+03  0.30147377846E+03  0.53380613426E+03  0.88460494244E+02 0.  0.
         23    2    4    4    0    0 -0.48763345114E+03 -0.14897772890E+03  0.34985780417E+02  0.51907272330E+03  0.90728941721E+02 0.  0.
          4    1    3    3  502    0  0.99918032525E+02  0.31452664476E+03  0.14881774639E+03  0.36201843203E+03  0.00000000000E+00 0. -1.
         -3    1    3    3    0  502  0.46265492842E+02  0.98362506838E+02  0.34145349546E+01  0.10875356375E+03  0.00000000000E+00 0.  1.
         11    1    5    5    0    0  0.33891634137E+03 -0.26712100134E+03  0.30497740147E+03  0.52842135764E+03  0.00000000000E+00 0. -1.
        -11    1    5    5    0    0  0.25335844049E+01  0.32095786446E+01 -0.35036230177E+01  0.53847766214E+01  0.00000000000E+00 0.  1.
          3    1    6    6  503    0 -0.44481170025E+03 -0.11014529780E+03  0.17111994758E+02  0.45856543227E+03  0.00000000000E+00 0. -1.
         -3    1    6    6    0  503 -0.42821750892E+02 -0.38832431103E+02  0.17873785658E+02  0.60507291036E+02  0.00000000000E+00 0.  1.
<mgrwt>
<rscale>  0 0.14431536E+04</rscale>
<asrwt>0</asrwt>
<pdfrwt beam="1">  1        2 0.15479559E+00 0.14431536E+04</pdfrwt>
<pdfrwt beam="2">  1       -1 0.79612232E-01 0.14431536E+04</pdfrwt>
<totfact> 0.43557380E+01</totfact>
</mgrwt>
</event>
<event>
12    6  0.1569942E-007  0.1276026E+04  0.7818608E-02  0.9048796E-01
          2   -1    0    0  501    0  0.00000000000E+00  0.00000000000E+00  0.28303315436E+04  0.28303315436E+04  0.00000000000E+00 0. -1.
         -1   -1    0    0    0  501 -0.00000000000E+00 -0.00000000000E+00 -0.14382085571E+03  0.14382085571E+03  0.00000000000E+00 0.  1.
         24    2    1    2    0    0 -0.20454361497E+03 -0.16541931712E+03  0.10275481844E+04  0.10636194609E+04  0.78926836461E+02 0.  0.
        254    2    1    2    0    0  0.20454361497E+03  0.16541931712E+03  0.16589625035E+04  0.19105329384E+04  0.91037238521E+03 0.  0.
         23    2    4    4    0    0 -0.16909287331E+03 -0.22310808962E+03  0.21358699975E+03  0.36510963054E+03  0.96519513026E+02 0.  0.
         23    2    4    4    0    0  0.37363648828E+03  0.38852740674E+03  0.14453755037E+04  0.15454233078E+04  0.93086424516E+02 0.  0.
          2    1    3    3  502    0 -0.16152906307E+03 -0.14582231896E+03  0.93135278316E+03  0.95643807621E+03  0.00000000000E+00 0. -1.
         -1    1    3    3    0  502 -0.43014551902E+02 -0.19596998159E+02  0.96195401254E+02  0.10718138474E+03  0.00000000000E+00 0.  1.
         11    1    5    5    0    0 -0.17043926236E+03 -0.18327973086E+03  0.20684236223E+03  0.32469179957E+03  0.00000000000E+00 0.  1.
        -11    1    5    5    0    0  0.13463890492E+01 -0.39828358760E+02  0.67446375200E+01  0.40417830969E+02  0.00000000000E+00 0. -1.
          3    1    6    6  503    0  0.27091765995E+03  0.28517204668E+03  0.11621372232E+04  0.12268995070E+04  0.00000000000E+00 0.  1.
         -3    1    6    6    0  503  0.10271882833E+03  0.10335536006E+03  0.28323828048E+03  0.31852380080E+03  0.00000000000E+00 0. -1.
<mgrwt>
<rscale>  0 0.12760262E+04</rscale>
<asrwt>0</asrwt>
<pdfrwt beam="1">  1        2 0.43543558E+00 0.12760262E+04</pdfrwt>
<pdfrwt beam="2">  1       -1 0.22126288E-01 0.12760262E+04</pdfrwt>
<totfact> 0.43158874E+01</totfact>
</mgrwt>
</event>
<event>
12    6  0.1569942E-007  0.1309372E+04  0.7818608E-02  0.9022166E-01
         -1   -1    0    0    0  501 -0.00000000000E+00  0.00000000000E+00  0.27469849882E+03  0.27469849882E+03  0.00000000000E+00 0.  1.
          2   -1    0    0  501    0  0.00000000000E+00 -0.00000000000E+00 -0.15603062011E+04  0.15603062011E+04  0.00000000000E+00 0. -1.
         24    2    1    2    0    0 -0.88312899529E+02 -0.10960460297E+03  0.94900107505E+02  0.18754288274E+03  0.79711763546E+02 0.  0.
        254    2    1    2    0    0  0.88312899529E+02  0.10960460297E+03 -0.13805078098E+04  0.16474618172E+04  0.88798439683E+03 0.  0.
         23    2    4    4    0    0 -0.51250315173E+02  0.34940430430E+03 -0.12911580170E+04  0.13418285015E+04  0.93299195165E+02 0.  0.
         23    2    4    4    0    0  0.13956321470E+03 -0.23979970132E+03 -0.89349792794E+02  0.30563331573E+03  0.91905117144E+02 0.  0.
          4    1    3    3  502    0  0.95728207506E+01 -0.29493978112E+02  0.29175107638E+01  0.31145553632E+02  0.00000000000E+00 0. -1.
         -3    1    3    3    0  502 -0.97885720279E+02 -0.80110624861E+02  0.91982596741E+02  0.15639732911E+03  0.00000000000E+00 0.  1.
         11    1    5    5    0    0 -0.67513777246E+02  0.33959862727E+03 -0.12273848806E+04  0.12752878040E+04  0.00000000000E+00 0.  1.
        -11    1    5    5    0    0  0.16263462073E+02  0.98056770266E+01 -0.63773136389E+02  0.66540697513E+02  0.00000000000E+00 0. -1.
          2    1    6    6  503    0 -0.80565980792E+00 -0.62351334406E+02 -0.39924932980E+02  0.74042813719E+02  0.00000000000E+00 0. -1.
         -2    1    6    6    0  503  0.14036887451E+03 -0.17744836692E+03 -0.49424859813E+02  0.23159050201E+03  0.00000000000E+00 0.  1.
<mgrwt>
<rscale>  0 0.13093720E+04</rscale>
<asrwt>0</asrwt>
<pdfrwt beam="1">  1        2 0.24004711E+00 0.13093720E+04</pdfrwt>
<pdfrwt beam="2">  1       -1 0.42261308E-01 0.13093720E+04</pdfrwt>
<totfact> 0.72093788E+01</totfact>
</mgrwt>
</event>
<event>
12    6  0.1569942E-007  0.2137441E+04  0.7818608E-02  0.8544927E-01
          2   -1    0    0  501    0  0.00000000000E+00  0.00000000000E+00  0.12869402379E+04  0.12869402379E+04  0.00000000000E+00 0. -1.
         -1   -1    0    0    0  501 -0.00000000000E+00 -0.00000000000E+00 -0.88750285921E+03  0.88750285921E+03  0.00000000000E+00 0.  1.
         24    2    1    2    0    0 -0.55715701536E+03  0.54684110774E+03  0.56678619845E+03  0.96786127816E+03  0.77779959630E+02 0.  0.
        254    2    1    2    0    0  0.55715701536E+03 -0.54684110774E+03 -0.16734881979E+03  0.12065818189E+04  0.90464076924E+03 0.  0.
         23    2    4    4    0    0  0.76823483890E+03 -0.56560740212E+03 -0.95299176758E+02  0.96320525676E+03  0.92660307173E+02 0.  0.
         23    2    4    4    0    0 -0.21107782354E+03  0.18766294375E+02 -0.72049643034E+02  0.24337656216E+03  0.95577081748E+02 0.  0.
          2    1    3    3  502    0 -0.53409687635E+03  0.50091859524E+03  0.54064873123E+03  0.91020874691E+03  0.00000000000E+00 0. -1.
         -1    1    3    3    0  502 -0.23060139014E+02  0.45922512505E+02  0.26137467222E+02  0.57652531244E+02  0.00000000000E+00 0.  1.
         11    1    5    5    0    0  0.21049837996E+02 -0.17437950721E+02 -0.19161111560E+02  0.33381521853E+02  0.00000000000E+00 0.  1.
        -11    1    5    5    0    0  0.74718500090E+03 -0.54816945139E+03 -0.76138065198E+02  0.92982373490E+03  0.00000000000E+00 0. -1.
          1    1    6    6  503    0 -0.21905592493E+03  0.20761005190E+02 -0.77750401222E+02  0.23337018335E+03  0.00000000000E+00 0. -1.
         -1    1    6    6    0  503  0.79781013959E+01 -0.19947108153E+01  0.57007581881E+01  0.10006378817E+02  0.00000000000E+00 0.  1.
<mgrwt>
<rscale>  0 0.21374407E+04</rscale>
<asrwt>0</asrwt>
<pdfrwt beam="1">  1        2 0.19799081E+00 0.21374407E+04</pdfrwt>
<pdfrwt beam="2">  1       -1 0.13653890E+00 0.21374407E+04</pdfrwt>
<totfact> 0.78831329E+00</totfact>
</mgrwt>
</event>
<event>
12    6  0.1569942E-007  0.1599132E+04  0.7818608E-02  0.8821081E-01
          2   -1    0    0  501    0  0.00000000000E+00  0.00000000000E+00  0.10506709535E+04  0.10506709535E+04  0.00000000000E+00 0. -1.
         -1   -1    0    0    0  501 -0.00000000000E+00 -0.00000000000E+00 -0.60847405908E+03  0.60847405908E+03  0.00000000000E+00 0.  1.
         24    2    1    2    0    0  0.52826809034E+03  0.94713158390E+02  0.19005046595E+03  0.57639333861E+03  0.89846221657E+02 0.  0.
        254    2    1    2    0    0 -0.52826809034E+03 -0.94713158390E+02  0.25214642847E+03  0.10827516740E+04  0.90594459458E+03 0.  0.
         23    2    4    4    0    0 -0.72665507986E+03 -0.24402457643E+02  0.37703979237E+03  0.82401133732E+03  0.90623363274E+02 0.  0.
         23    2    4    4    0    0  0.19838698952E+03 -0.70310700747E+02 -0.12489336390E+03  0.25874033665E+03  0.83947705235E+02 0.  0.
          4    1    3    3  502    0  0.31714103196E+03  0.46398375064E+02  0.15835455920E+03  0.35750162207E+03  0.00000000000E+00 0. -1.
         -3    1    3    3    0  502  0.21112705838E+03  0.48314783326E+02  0.31695906754E+02  0.21889171654E+03  0.00000000000E+00 0.  1.
         11    1    5    5    0    0 -0.20235230310E+02  0.10082323589E+02  0.25903263962E+02  0.34381635775E+02  0.00000000000E+00 0. -1.
        -11    1    5    5    0    0 -0.70641984955E+03 -0.34484781232E+02  0.35113652840E+03  0.78962970154E+03  0.00000000000E+00 0.  1.
          1    1    6    6  503    0  0.42348776746E+02  0.11353220332E+02 -0.18193567884E+01  0.43881938915E+02  0.00000000000E+00 0. -1.
         -1    1    6    6    0  503  0.15603821278E+03 -0.81663921080E+02 -0.12307400711E+03  0.21485839774E+03  0.00000000000E+00 0.  1.
<mgrwt>
<rscale>  0 0.15991323E+04</rscale>
<asrwt>0</asrwt>
<pdfrwt beam="1">  1        2 0.16164168E+00 0.15991323E+04</pdfrwt>
<pdfrwt beam="2">  1       -1 0.93611394E-01 0.15991323E+04</pdfrwt>
<totfact> 0.28319482E+01</totfact>
</mgrwt>
</event>
<event>
12    6  0.1569942E-007  0.2515277E+04  0.7818608E-02  0.8397563E-01
         -1   -1    0    0    0  501 -0.00000000000E+00  0.00000000000E+00  0.57458232023E+03  0.57458232023E+03  0.00000000000E+00 0.  1.
          2   -1    0    0  501    0  0.00000000000E+00 -0.00000000000E+00 -0.27527021254E+04  0.27527021254E+04  0.00000000000E+00 0. -1.
         24    2    1    2    0    0 -0.61520677574E+03  0.82256701577E+03 -0.44702864654E+03  0.11230221758E+04  0.79046341401E+02 0.  0.
        254    2    1    2    0    0  0.61520677574E+03 -0.82256701577E+03 -0.17310911587E+04  0.22042622699E+04  0.89833161055E+03 0.  0.
         23    2    4    4    0    0 -0.11843155029E+03  0.81165462244E+02 -0.92713282630E+02  0.19254199431E+03  0.88672444608E+02 0.  0.
         23    2    4    4    0    0  0.73363832603E+03 -0.90373247802E+03 -0.16383778760E+04  0.20117202756E+04  0.88197603382E+02 0.  0.
          4    1    3    3  502    0 -0.33957092956E+03  0.49837893378E+03 -0.29299508337E+03  0.67047453100E+03  0.00000000000E+00 0. -1.
         -3    1    3    3    0  502 -0.27563584618E+03  0.32418808199E+03 -0.15403356317E+03  0.45254764477E+03  0.00000000000E+00 0.  1.
         11    1    5    5    0    0  0.73522950466E+01 -0.58483348771E+01 -0.22232994579E+02  0.24136389772E+02  0.00000000000E+00 0. -1.
        -11    1    5    5    0    0 -0.12578384534E+03  0.87013797121E+02 -0.70480288051E+02  0.16840560454E+03  0.00000000000E+00 0.  1.
          2    1    6    6  503    0  0.11865098619E+03 -0.11746035453E+03 -0.19371727397E+03  0.25573692273E+03  0.00000000000E+00 0. -1.
         -2    1    6    6    0  503  0.61498733984E+03 -0.78627212348E+03 -0.14446606021E+04  0.17559833528E+04  0.00000000000E+00 0.  1.
<mgrwt>
<rscale>  0 0.25152765E+04</rscale>
<asrwt>0</asrwt>
<pdfrwt beam="1">  1        2 0.42349264E+00 0.25152765E+04</pdfrwt>
<pdfrwt beam="2">  1       -1 0.88397279E-01 0.25152765E+04</pdfrwt>
<totfact> 0.31435108E+00</totfact>
</mgrwt>
</event>
<event>
12    6  0.1569942E-007  0.1700474E+04  0.7818608E-02  0.8761094E-01
          2   -1    0    0  501    0  0.00000000000E+00  0.00000000000E+00  0.31677370572E+04  0.31677370572E+04  0.00000000000E+00 0. -1.
         -1   -1    0    0    0  501 -0.00000000000E+00 -0.00000000000E+00 -0.22820808345E+03  0.22820808345E+03  0.00000000000E+00 0.  1.
         24    2    1    2    0    0  0.17977708447E+03  0.56790760140E+03  0.13412440604E+04  0.14697536110E+04  0.80007521740E+02 0.  0.
        254    2    1    2    0    0 -0.17977708447E+03 -0.56790760140E+03  0.15982849134E+04  0.19261915297E+04  0.89490798464E+03 0.  0.
         23    2    4    4    0    0 -0.42439794316E+03 -0.66485769713E+03  0.11324627156E+04  0.13831004129E+04  0.91354136792E+02 0.  0.
         23    2    4    4    0    0  0.24462085869E+03  0.96950095729E+02  0.46582219773E+03  0.54309111678E+03  0.93375348269E+02 0.  0.
          2    1    3    3  502    0  0.15764303061E+03  0.46834643472E+03  0.11754371415E+04  0.12750890877E+04  0.00000000000E+00 0. -1.
         -1    1    3    3    0  502  0.22134053856E+02  0.99561166677E+02  0.16580691891E+03  0.19466452324E+03  0.00000000000E+00 0.  1.
         11    1    5    5    0    0 -0.37549245459E+03 -0.52861682949E+03  0.89984934047E+03  0.11091254083E+04  0.00000000000E+00 0.  1.
        -11    1    5    5    0    0 -0.48905488567E+02 -0.13624086764E+03  0.23261337515E+03  0.27397500457E+03  0.00000000000E+00 0. -1.
          1    1    6    6  503    0  0.22918905604E+03  0.10595674285E+03  0.38567855847E+03  0.46097983170E+03  0.00000000000E+00 0. -1.
         -1    1    6    6    0  503  0.15431802649E+02 -0.90066471254E+01  0.80143639256E+02  0.82111285087E+02  0.00000000000E+00 0.  1.
<mgrwt>
<rscale>  0 0.17004743E+04</rscale>
<asrwt>0</asrwt>
<pdfrwt beam="1">  1        2 0.48734413E+00 0.17004743E+04</pdfrwt>
<pdfrwt beam="2">  1       -1 0.35108938E-01 0.17004743E+04</pdfrwt>
<totfact> 0.11450175E+01</totfact>
</mgrwt>
</event>
<event>
12    6  0.1569942E-007  0.3059403E+04  0.7818608E-02  0.8226968E-01
          2   -1    0    0  501    0  0.00000000000E+00  0.00000000000E+00  0.11821096354E+04  0.11821096354E+04  0.00000000000E+00 0. -1.
         -1   -1    0    0    0  501 -0.00000000000E+00 -0.00000000000E+00 -0.19795010512E+04  0.19795010512E+04  0.00000000000E+00 0.  1.
         24    2    1    2    0    0 -0.12553855687E+04 -0.60203560047E+03 -0.31017164913E+03  0.14286494903E+04  0.79957013168E+02 0.  0.
        254    2    1    2    0    0  0.12553855687E+04  0.60203560047E+03 -0.48721976666E+03  0.17329611963E+04  0.90957771333E+03 0.  0.
         23    2    4    4    0    0  0.69666358789E+03  0.18882945866E+03  0.19595097841E+03  0.75418854294E+03  0.96988933504E+02 0.  0.
         23    2    4    4    0    0  0.55872198082E+03  0.41320614181E+03 -0.68317074506E+03  0.97877265338E+03  0.91455303902E+02 0.  0.
          2    1    3    3  502    0 -0.76268791289E+03 -0.33360207684E+03 -0.15819533464E+03  0.84735409484E+03  0.00000000000E+00 0. -1.
         -1    1    3    3    0  502 -0.49269765582E+03 -0.26843352363E+03 -0.15197631449E+03  0.58129539549E+03  0.00000000000E+00 0.  1.
         11    1    5    5    0    0  0.71378398984E+02  0.42029414490E+02  0.45536619046E+02  0.94524764999E+02  0.00000000000E+00 0. -1.
        -11    1    5    5    0    0  0.62528518890E+03  0.14680004417E+03  0.15041435936E+03  0.65966377794E+03  0.00000000000E+00 0.  1.
          2    1    6    6  503    0  0.24607773652E+03  0.12658700687E+03 -0.26474609278E+03  0.38297391081E+03  0.00000000000E+00 0. -1.
         -2    1    6    6    0  503  0.31264424430E+03  0.28661913495E+03 -0.41842465228E+03  0.59579874257E+03  0.00000000000E+00 0.  1.
<mgrwt>
<rscale>  0 0.30594034E+04</rscale>
<asrwt>0</asrwt>
<pdfrwt beam="1">  1        2 0.18186302E+00 0.30594034E+04</pdfrwt>
<pdfrwt beam="2">  1       -1 0.30453862E+00 0.30594034E+04</pdfrwt>
<totfact> 0.58136734E-01</totfact>
</mgrwt>
</event>
<event>
12    6  0.1569942E-007  0.1507644E+04  0.7818608E-02  0.8879385E-01
          2   -1    0    0  501    0  0.00000000000E+00  0.00000000000E+00  0.28971758070E+04  0.28971758070E+04  0.00000000000E+00 0. -1.
         -1   -1    0    0    0  501 -0.00000000000E+00 -0.00000000000E+00 -0.19613855665E+03  0.19613855665E+03  0.00000000000E+00 0.  1.
         24    2    1    2    0    0  0.24998461762E+02  0.21813559552E+03  0.19307946333E+04  0.19448873030E+04  0.80066497554E+02 0.  0.
        254    2    1    2    0    0 -0.24998461762E+02 -0.21813559552E+03  0.77024261705E+03  0.11484270607E+04  0.82304493409E+03 0.  0.
         23    2    4    4    0    0  0.27839696332E+03  0.11504844311E+03  0.91014645360E+02  0.32787638933E+03  0.92077399849E+02 0.  0.
         23    2    4    4    0    0 -0.30339542508E+03 -0.33318403864E+03  0.67922797169E+03  0.82055067139E+03  0.94299412654E+02 0.  0.
          4    1    3    3  502    0 -0.25528388237E+02  0.12494019428E+03  0.10168479744E+04  0.10248129360E+04  0.00000000000E+00 0. -1.
         -3    1    3    3    0  502  0.50526849999E+02  0.93195401245E+02  0.91394665894E+03  0.92007436698E+03  0.00000000000E+00 0.  1.
         11    1    5    5    0    0  0.19792514728E+03  0.81263922072E+02  0.19137499547E+02  0.21481255281E+03  0.00000000000E+00 0. -1.
        -11    1    5    5    0    0  0.80471816041E+02  0.33784521039E+02  0.71877145813E+02  0.11306383652E+03  0.00000000000E+00 0.  1.
          4    1    6    6  503    0 -0.26662049911E+03 -0.26710216228E+03  0.50349011653E+03  0.62923155760E+03  0.00000000000E+00 0.  1.
         -4    1    6    6    0  503 -0.36774925965E+02 -0.66081876360E+02  0.17573785516E+03  0.19131911378E+03  0.00000000000E+00 0. -1.
<mgrwt>
<rscale>  0 0.15076444E+04</rscale>
<asrwt>0</asrwt>
<pdfrwt beam="1">  1        2 0.44571932E+00 0.15076444E+04</pdfrwt>
<pdfrwt beam="2">  1       -1 0.30175165E-01 0.15076444E+04</pdfrwt>
<totfact> 0.22540208E+01</totfact>
</mgrwt>
</event>
<event>
12    6  0.1569942E-007  0.2890064E+04  0.7818608E-02  0.8275840E-01
          2   -1    0    0  501    0  0.00000000000E+00  0.00000000000E+00  0.15117949975E+04  0.15117949975E+04  0.00000000000E+00 0. -1.
         -1   -1    0    0    0  501 -0.00000000000E+00 -0.00000000000E+00 -0.13812174040E+04  0.13812174040E+04  0.00000000000E+00 0.  1.
         24    2    1    2    0    0 -0.10840396600E+04 -0.25785840786E+03  0.71361703347E+03  0.13256322305E+04  0.80116147647E+02 0.  0.
        254    2    1    2    0    0  0.10840396600E+04  0.25785840786E+03 -0.58303944001E+03  0.15673801710E+04  0.93547456885E+03 0.  0.
         23    2    4    4    0    0  0.11312821329E+04  0.45130553400E+03 -0.41350041098E+03  0.12895690873E+04  0.92357412688E+02 0.  0.
         23    2    4    4    0    0 -0.47242472954E+02 -0.19344712614E+03 -0.16953902903E+03  0.27781108373E+03  0.93711653574E+02 0.  0.
          4    1    3    3  502    0 -0.73138446760E+03 -0.18906404324E+03  0.52393547804E+03  0.91933499718E+03  0.00000000000E+00 0. -1.
         -3    1    3    3    0  502 -0.35265519237E+03 -0.68794364612E+02  0.18968155543E+03  0.40629723329E+03  0.00000000000E+00 0.  1.
         11    1    5    5    0    0  0.68565173910E+03  0.29872130958E+03 -0.21296635667E+03  0.77762934435E+03  0.00000000000E+00 0. -1.
        -11    1    5    5    0    0  0.44563039383E+03  0.15258422442E+03 -0.20053405431E+03  0.51193974292E+03  0.00000000000E+00 0.  1.
          3    1    6    6  503    0 -0.30276633861E+01 -0.38183049961E+01  0.11154124560E+02  0.12172127724E+02  0.00000000000E+00 0. -1.
         -3    1    6    6    0  503 -0.44214809568E+02 -0.18962882115E+03 -0.18069315359E+03  0.26563895601E+03  0.00000000000E+00 0.  1.
<mgrwt>
<rscale>  0 0.28900641E+04</rscale>
<asrwt>0</asrwt>
<pdfrwt beam="1">  1        2 0.23258384E+00 0.28900641E+04</pdfrwt>
<pdfrwt beam="2">  1       -1 0.21249499E+00 0.28900641E+04</pdfrwt>
<totfact> 0.15202460E+00</totfact>
</mgrwt>
</event>
<event>
12    6  0.1569942E-007  0.1105069E+04  0.7818608E-02  0.9200265E-01
          2   -1    0    0  501    0  0.00000000000E+00  0.00000000000E+00  0.13361209047E+04  0.13361209047E+04  0.00000000000E+00 0. -1.
         -1   -1    0    0    0  501 -0.00000000000E+00 -0.00000000000E+00 -0.22849316449E+03  0.22849316449E+03  0.00000000000E+00 0.  1.
         24    2    1    2    0    0  0.16473285938E+03 -0.77919637754E+02  0.15152617700E+03  0.25071960648E+03  0.81803140846E+02 0.  0.
        254    2    1    2    0    0 -0.16473285938E+03  0.77919637754E+02  0.95610156322E+03  0.13138944627E+04  0.88259847897E+03 0.  0.
         23    2    4    4    0    0 -0.68664048089E+02 -0.43207644003E+02 -0.14983258696E+03  0.19339503905E+03  0.91488715215E+02 0.  0.
         23    2    4    4    0    0 -0.96068811290E+02  0.12112728176E+03  0.11059341502E+04  0.11204994237E+04  0.92344891742E+02 0.  0.
          2    1    3    3  502    0  0.23502592286E+02 -0.14464623700E+02  0.71054178060E+02  0.76225280601E+02  0.00000000000E+00 0. -1.
         -1    1    3    3    0  502  0.14123026709E+03 -0.63455014054E+02  0.80471998939E+02  0.17449432588E+03  0.00000000000E+00 0.  1.
         11    1    5    5    0    0  0.20646567521E+01 -0.51031211646E+02 -0.60036312128E+02  0.78821355884E+02  0.00000000000E+00 0. -1.
        -11    1    5    5    0    0 -0.70728704841E+02  0.78235676427E+01 -0.89796274835E+02  0.11457368316E+03  0.00000000000E+00 0.  1.
          1    1    6    6  503    0 -0.86281813683E+02  0.35464950048E+02  0.61924635352E+03  0.62623347116E+03  0.00000000000E+00 0. -1.
         -1    1    6    6    0  503 -0.97869976072E+01  0.85662331710E+02  0.48668779667E+03  0.49426595252E+03  0.00000000000E+00 0.  1.
<mgrwt>
<rscale>  0 0.11050692E+04</rscale>
<asrwt>0</asrwt>
<pdfrwt beam="1">  1        2 0.20555706E+00 0.11050692E+04</pdfrwt>
<pdfrwt beam="2">  1       -1 0.35152795E-01 0.11050692E+04</pdfrwt>
<totfact> 0.13704866E+02</totfact>
</mgrwt>
</event>
<event>
12    6  0.1569942E-007  0.1313240E+04  0.7818608E-02  0.9019131E-01
          2   -1    0    0  501    0  0.00000000000E+00  0.00000000000E+00  0.88754931509E+03  0.88754931509E+03  0.00000000000E+00 0. -1.
         -1   -1    0    0    0  501 -0.00000000000E+00 -0.00000000000E+00 -0.48577554124E+03  0.48577554124E+03  0.00000000000E+00 0.  1.
         24    2    1    2    0    0 -0.31939563477E+03  0.12256571787E+03  0.58413911283E+02  0.35623323379E+03  0.80336822911E+02 0.  0.
        254    2    1    2    0    0  0.31939563477E+03 -0.12256571787E+03  0.34335986257E+03  0.10170916225E+04  0.89417193353E+03 0.  0.
         23    2    4    4    0    0  0.50390921848E+03 -0.51255399808E+01 -0.93149677198E+02  0.52078105759E+03  0.92656764167E+02 0.  0.
         23    2    4    4    0    0 -0.18451358371E+03 -0.11744017789E+03  0.43650953977E+03  0.49631056495E+03  0.89141127536E+02 0.  0.
          4    1    3    3  502    0 -0.27857168853E+03  0.10565128698E+03  0.77883198961E+02  0.30794508077E+03  0.00000000000E+00 0. -1.
         -1    1    3    3    0  502 -0.40823946249E+02  0.16914430894E+02 -0.19469287678E+02  0.48288153024E+02  0.00000000000E+00 0.  1.
         11    1    5    5    0    0  0.37485964775E+03 -0.71098544832E+01 -0.27382196869E+02  0.37592564457E+03  0.00000000000E+00 0.  1.
        -11    1    5    5    0    0  0.12904957073E+03  0.19843145024E+01 -0.65767480329E+02  0.14485541301E+03  0.00000000000E+00 0. -1.
          3    1    6    6  503    0 -0.82561180081E+02 -0.70383509962E+02  0.30312244260E+03  0.32195248429E+03  0.00000000000E+00 0. -1.
         -3    1    6    6    0  503 -0.10195240363E+03 -0.47056667930E+02  0.13338709717E+03  0.17435808066E+03  0.00000000000E+00 0.  1.
<mgrwt>
<rscale>  0 0.13132399E+04</rscale>
<asrwt>0</asrwt>
<pdfrwt beam="1">  1        2 0.13654605E+00 0.13132399E+04</pdfrwt>
<pdfrwt beam="2">  1       -1 0.74734699E-01 0.13132399E+04</pdfrwt>
<totfact> 0.60208830E+01</totfact>
</mgrwt>
</event>
<event>
12    6  0.1569942E-007  0.1759790E+04  0.7818608E-02  0.8727980E-01
          2   -1    0    0  501    0  0.00000000000E+00  0.00000000000E+00  0.11794985108E+04  0.11794985108E+04  0.00000000000E+00 0. -1.
         -1   -1    0    0    0  501 -0.00000000000E+00 -0.00000000000E+00 -0.65639360226E+03  0.65639360226E+03  0.00000000000E+00 0.  1.
         24    2    1    2    0    0 -0.49413570350E+03  0.36830142446E+03  0.37598974847E+03  0.72639618233E+03  0.80418219383E+02 0.  0.
        254    2    1    2    0    0  0.49413570350E+03 -0.36830142446E+03  0.14711516005E+03  0.11094959307E+04  0.91078115770E+03 0.  0.
         23    2    4    4    0    0  0.61684765524E+03 -0.24165828931E+03  0.40628430839E+03  0.78209723287E+03  0.87803097030E+02 0.  0.
         23    2    4    4    0    0 -0.12271195174E+03 -0.12664313515E+03 -0.25916914833E+03  0.32739869784E+03  0.94469852968E+02 0.  0.
          2    1    3    3  502    0 -0.42773350560E+03  0.28380168147E+03  0.29731680836E+03  0.59320875815E+03  0.00000000000E+00 0. -1.
         -1    1    3    3    0  502 -0.66402197902E+02  0.84499742999E+02  0.78672940108E+02  0.13318742417E+03  0.00000000000E+00 0.  1.
         11    1    5    5    0    0  0.35059018025E+03 -0.17625944578E+03  0.26652674957E+03  0.47435996348E+03  0.00000000000E+00 0.  1.
        -11    1    5    5    0    0  0.26625747500E+03 -0.65398843529E+02  0.13975755881E+03  0.30773726939E+03  0.00000000000E+00 0. -1.
          1    1    6    6  503    0  0.55872321709E+01 -0.31346824489E+02 -0.14101949288E+02  0.34823921987E+02  0.00000000000E+00 0. -1.
         -1    1    6    6    0  503 -0.12829918392E+03 -0.95296310662E+02 -0.24506719905E+03  0.29257477586E+03  0.00000000000E+00 0.  1.
<mgrwt>
<rscale>  0 0.17597901E+04</rscale>
<asrwt>0</asrwt>
<pdfrwt beam="1">  1        2 0.18146131E+00 0.17597901E+04</pdfrwt>
<pdfrwt beam="2">  1       -1 0.10098363E+00 0.17597901E+04</pdfrwt>
<totfact> 0.19613530E+01</totfact>
</mgrwt>
</event>
<event>
12    6  0.1569942E-007  0.1837187E+04  0.7818608E-02  0.8686770E-01
          2   -1    0    0  501    0  0.00000000000E+00  0.00000000000E+00  0.16058988844E+04  0.16058988844E+04  0.00000000000E+00 0. -1.
         -1   -1    0    0    0  501 -0.00000000000E+00 -0.00000000000E+00 -0.52544675943E+03  0.52544675943E+03  0.00000000000E+00 0.  1.
         24    2    1    2    0    0 -0.19090917438E+03 -0.57987432909E+03  0.29078547185E+02  0.61589478239E+03  0.76028091358E+02 0.  0.
        254    2    1    2    0    0  0.19090917438E+03  0.57987432909E+03  0.10513735778E+04  0.15154508615E+04  0.90471230953E+03 0.  0.
         23    2    4    4    0    0 -0.30271904086E+03  0.45919044392E+03  0.68175577151E+03  0.88065442656E+03  0.90920875249E+02 0.  0.
         23    2    4    4    0    0  0.49362821524E+03  0.12068388517E+03  0.36961780631E+03  0.63479643491E+03  0.90087601879E+02 0.  0.
          2    1    3    3  502    0 -0.17495894931E+03 -0.57004239724E+03  0.25595374201E+02  0.59683673796E+03  0.00000000000E+00 0. -1.
         -1    1    3    3    0  502 -0.15950225071E+02 -0.98319318455E+01  0.34831729841E+01  0.19058044434E+02  0.00000000000E+00 0.  1.
         11    1    5    5    0    0 -0.50580882921E+01  0.87896539712E+01  0.43620887377E+02  0.44784194641E+02  0.00000000000E+00 0. -1.
        -11    1    5    5    0    0 -0.29766095257E+03  0.45040078995E+03  0.63813488413E+03  0.83587023192E+03  0.00000000000E+00 0.  1.
          2    1    6    6  503    0  0.42699712921E+02  0.31921261819E+02  0.61977096351E+02  0.81752020843E+02  0.00000000000E+00 0. -1.
         -2    1    6    6    0  503  0.45092850232E+03  0.88762623350E+02  0.30764070996E+03  0.55304441407E+03  0.00000000000E+00 0.  1.
<mgrwt>
<rscale>  0 0.18371874E+04</rscale>
<asrwt>0</asrwt>
<pdfrwt beam="1">  1        2 0.24706136E+00 0.18371874E+04</pdfrwt>
<pdfrwt beam="2">  1       -1 0.80837964E-01 0.18371874E+04</pdfrwt>
<totfact> 0.18104541E+01</totfact>
</mgrwt>
</event>
<event>
12    6  0.1569942E-007  0.1172159E+04  0.7818608E-02  0.9137581E-01
          2   -1    0    0  501    0  0.00000000000E+00  0.00000000000E+00  0.13141380759E+04  0.13141380759E+04  0.00000000000E+00 0. -1.
         -1   -1    0    0    0  501 -0.00000000000E+00 -0.00000000000E+00 -0.26137985845E+03  0.26137985845E+03  0.00000000000E+00 0.  1.
         24    2    1    2    0    0  0.13056452115E+03  0.21765640983E+03  0.16508361769E+03  0.31288523113E+03  0.78887008480E+02 0.  0.
        254    2    1    2    0    0 -0.13056452115E+03 -0.21765640983E+03  0.88767459972E+03  0.12626327032E+04  0.86130931799E+03 0.  0.
         23    2    4    4    0    0 -0.14236147384E+03 -0.34860439630E+03  0.29871682390E+02  0.38984456719E+03  0.96408790091E+02 0.  0.
         23    2    4    4    0    0  0.11796952691E+02  0.13094798647E+03  0.85780291733E+03  0.87278813600E+03  0.92987860007E+02 0.  0.
          4    1    3    3  502    0  0.14019206197E+02  0.22696475140E+02 -0.73933796428E+01  0.27682669466E+02  0.00000000000E+00 0. -1.
         -3    1    3    3    0  502  0.11654531495E+03  0.19495993469E+03  0.17247699733E+03  0.28520256166E+03  0.00000000000E+00 0.  1.
         11    1    5    5    0    0 -0.21371581176E+02 -0.14517461682E+03 -0.19591261146E+02  0.14804131641E+03  0.00000000000E+00 0. -1.
        -11    1    5    5    0    0 -0.12098989266E+03 -0.20342977948E+03  0.49462943536E+02  0.24180325078E+03  0.00000000000E+00 0.  1.
          2    1    6    6  503    0 -0.33369296251E+02  0.30769198561E+02  0.15728662924E+03  0.16370503123E+03  0.00000000000E+00 0. -1.
         -2    1    6    6    0  503  0.45166248942E+02  0.10017878791E+03  0.70051628809E+03  0.70908310477E+03  0.00000000000E+00 0.  1.
<mgrwt>
<rscale>  0 0.11721591E+04</rscale>
<asrwt>0</asrwt>
<pdfrwt beam="1">  1        2 0.20217509E+00 0.11721591E+04</pdfrwt>
<pdfrwt beam="2">  1       -1 0.40212286E-01 0.11721591E+04</pdfrwt>
<totfact> 0.11016127E+02</totfact>
</mgrwt>
</event>
<event>
12    6  0.1569942E-007  0.1404456E+04  0.7818608E-02  0.8950599E-01
          2   -1    0    0  501    0  0.00000000000E+00  0.00000000000E+00  0.75590010762E+03  0.75590010762E+03  0.00000000000E+00 0. -1.
         -1   -1    0    0    0  501 -0.00000000000E+00 -0.00000000000E+00 -0.65236685300E+03  0.65236685300E+03  0.00000000000E+00 0.  1.
         24    2    1    2    0    0 -0.60966187485E+02  0.22215838777E+03  0.37657983173E+03  0.44848479597E+03  0.79088667173E+02 0.  0.
        254    2    1    2    0    0  0.60966187485E+02 -0.22215838777E+03 -0.27304657711E+03  0.95978216464E+03  0.89081768338E+03 0.  0.
         23    2    4    4    0    0 -0.24235788110E+03 -0.45317748338E+03 -0.21081157908E+03  0.56307809366E+03  0.92240141576E+02 0.  0.
         23    2    4    4    0    0  0.30332406858E+03  0.23101909561E+03 -0.62234998035E+02  0.39670407098E+03  0.90142175676E+02 0.  0.
          4    1    3    3  502    0 -0.53740882222E+02  0.22715127190E+03  0.35180797502E+03  0.42220212462E+03  0.00000000000E+00 0. -1.
         -3    1    3    3    0  502 -0.72253052638E+01 -0.49928841332E+01  0.24771856708E+02  0.26282671343E+02  0.00000000000E+00 0.  1.
         11    1    5    5    0    0 -0.52181546509E+02 -0.36112694633E+02 -0.19595211907E+02  0.66415456329E+02  0.00000000000E+00 0.  1.
        -11    1    5    5    0    0 -0.19017633459E+03 -0.41706478875E+03 -0.19121636717E+03  0.49666263733E+03  0.00000000000E+00 0. -1.
          3    1    6    6  503    0  0.48574644994E+02  0.75865472331E+02  0.74587523148E+01  0.90391918966E+02  0.00000000000E+00 0. -1.
         -3    1    6    6    0  503  0.25474942359E+03  0.15515362328E+03 -0.69693750350E+02  0.30631215202E+03  0.00000000000E+00 0.  1.
<mgrwt>
<rscale>  0 0.14044560E+04</rscale>
<asrwt>0</asrwt>
<pdfrwt beam="1">  1        2 0.11629233E+00 0.14044560E+04</pdfrwt>
<pdfrwt beam="2">  1       -1 0.10036413E+00 0.14044560E+04</pdfrwt>
<totfact> 0.38999851E+01</totfact>
</mgrwt>
</event>
<event>
12    6  0.1569942E-007  0.2120000E+04  0.7818608E-02  0.8552484E-01
         -1   -1    0    0    0  501 -0.00000000000E+00  0.00000000000E+00  0.79745864305E+03  0.79745864305E+03  0.00000000000E+00 0.  1.
          2   -1    0    0  501    0  0.00000000000E+00 -0.00000000000E+00 -0.14089762954E+04  0.14089762954E+04  0.00000000000E+00 0. -1.
         24    2    1    2    0    0  0.81651812443E+02 -0.31746693491E+03 -0.10887039714E+04  0.11396866973E+04  0.78467557618E+02 0.  0.
        254    2    1    2    0    0 -0.81651812443E+02  0.31746693491E+03  0.47718631897E+03  0.10667482411E+04  0.89598702766E+03 0.  0.
         23    2    4    4    0    0  0.14963637837E+02  0.51355266342E+03  0.60332688589E+03  0.79773870843E+03  0.91779448286E+02 0.  0.
         23    2    4    4    0    0 -0.96615450281E+02 -0.19608572851E+03 -0.12614056691E+03  0.26900953272E+03  0.93115669546E+02 0.  0.
          2    1    3    3  502    0  0.76415966591E+02 -0.24838029824E+03 -0.94612495955E+03  0.98116492578E+03  0.00000000000E+00 0. -1.
         -1    1    3    3    0  502  0.52358458524E+01 -0.69086636671E+02 -0.14257901181E+03  0.15852177155E+03  0.00000000000E+00 0.  1.
         11    1    5    5    0    0 -0.33026349382E+01  0.48530442396E+03  0.58247278423E+03  0.75815950543E+03  0.00000000000E+00 0. -1.
        -11    1    5    5    0    0  0.18266272776E+02  0.28248239457E+02  0.20854101658E+02  0.39579202992E+02  0.00000000000E+00 0.  1.
          4    1    6    6  503    0 -0.51199409962E+02 -0.13914005172E+03 -0.12840554128E+03  0.19613596459E+03  0.00000000000E+00 0. -1.
         -4    1    6    6    0  503 -0.45416040319E+02 -0.56945676785E+02  0.22649743700E+01  0.72873568128E+02  0.00000000000E+00 0.  1.
<mgrwt>
<rscale>  0 0.21200003E+04</rscale>
<asrwt>0</asrwt>
<pdfrwt beam="1">  1        2 0.21676558E+00 0.21200003E+04</pdfrwt>
<pdfrwt beam="2">  1       -1 0.12268595E+00 0.21200003E+04</pdfrwt>
<totfact> 0.87893138E+00</totfact>
</mgrwt>
</event>
<event>
12    6  0.1569942E-007  0.1789918E+04  0.7818608E-02  0.8711679E-01
         -1   -1    0    0    0  501 -0.00000000000E+00  0.00000000000E+00  0.15321852742E+04  0.15321852742E+04  0.00000000000E+00 0.  1.
          2   -1    0    0  501    0  0.00000000000E+00 -0.00000000000E+00 -0.52275125744E+03  0.52275125744E+03  0.00000000000E+00 0. -1.
         24    2    1    2    0    0 -0.49130183265E+03  0.37094913650E+03  0.66816920529E+03  0.91202337526E+03  0.79723255701E+02 0.  0.
        254    2    1    2    0    0  0.49130183265E+03 -0.37094913650E+03  0.34126481148E+03  0.11429131564E+04  0.90044880968E+03 0.  0.
         23    2    4    4    0    0  0.65221779663E+01  0.23015247163E+03  0.26400993880E+03  0.36190009579E+03  0.90872066905E+02 0.  0.
         23    2    4    4    0    0  0.48477965468E+03 -0.60110160812E+03  0.77254872682E+02  0.78101306060E+03  0.87627784357E+02 0.  0.
          4    1    3    3  502    0 -0.19941671311E+03  0.10960853905E+03  0.21622394320E+03  0.31390102088E+03  0.00000000000E+00 0. -1.
         -3    1    3    3    0  502 -0.29188511954E+03  0.26134059745E+03  0.45194526209E+03  0.59812235438E+03  0.00000000000E+00 0.  1.
         11    1    5    5    0    0  0.36811420614E+02  0.79326513476E+02  0.58600446459E+02  0.10527007530E+03  0.00000000000E+00 0.  1.
        -11    1    5    5    0    0 -0.30289242648E+02  0.15082595815E+03  0.20540949234E+03  0.25663002049E+03  0.00000000000E+00 0. -1.
          4    1    6    6  503    0  0.17063042569E+03 -0.26116459343E+03  0.60919992637E+02  0.31785677991E+03  0.00000000000E+00 0. -1.
         -4    1    6    6    0  503  0.31414922899E+03 -0.33993701469E+03  0.16334880045E+02  0.46315628069E+03  0.00000000000E+00 0.  1.
<mgrwt>
<rscale>  0 0.17899182E+04</rscale>
<asrwt>0</asrwt>
<pdfrwt beam="1">  1        2 0.80423271E-01 0.17899182E+04</pdfrwt>
<pdfrwt beam="2">  1       -1 0.23572081E+00 0.17899182E+04</pdfrwt>
<totfact> 0.54595247E+00</totfact>
</mgrwt>
</event>
<event>
12    6  0.1569942E-007  0.1864758E+04  0.7818608E-02  0.8672600E-01
         -1   -1    0    0    0  501 -0.00000000000E+00  0.00000000000E+00  0.11027549532E+04  0.11027549532E+04  0.00000000000E+00 0.  1.
          2   -1    0    0  501    0  0.00000000000E+00 -0.00000000000E+00 -0.78832656110E+03  0.78832656110E+03  0.00000000000E+00 0. -1.
         24    2    1    2    0    0 -0.59605189699E+03  0.25135418042E+03 -0.18117877413E+03  0.67641904690E+03  0.79121368090E+02 0.  0.
        254    2    1    2    0    0  0.59605189699E+03 -0.25135418042E+03  0.49560716625E+03  0.12146624674E+04  0.90073395551E+03 0.  0.
         23    2    4    4    0    0  0.35784332740E+03  0.14739388485E+03  0.60947312820E+03  0.72781566364E+03  0.92094201681E+02 0.  0.
         23    2    4    4    0    0  0.23820856959E+03 -0.39874806527E+03 -0.11386596195E+03  0.48684680379E+03  0.91164745850E+02 0.  0.
          2    1    3    3  502    0 -0.24836510001E+03  0.92002720260E+02 -0.11285799365E+03  0.28790041711E+03  0.00000000000E+00 0. -1.
         -1    1    3    3    0  502 -0.34768679697E+03  0.15935146016E+03 -0.68320780476E+02  0.38851862979E+03  0.00000000000E+00 0.  1.
         11    1    5    5    0    0  0.19423733461E+03  0.81707539347E+02  0.41426911492E+03  0.46478292107E+03  0.00000000000E+00 0. -1.
        -11    1    5    5    0    0  0.16360599279E+03  0.65686345501E+02  0.19520401328E+03  0.26303274257E+03  0.00000000000E+00 0.  1.
          3    1    6    6  503    0  0.23995696081E+03 -0.37262103835E+03 -0.91807118634E+02  0.45260836083E+03  0.00000000000E+00 0. -1.
         -3    1    6    6    0  503 -0.17483912267E+01 -0.26127026924E+02 -0.22058843315E+02  0.34238442958E+02  0.00000000000E+00 0.  1.
<mgrwt>
<rscale>  0 0.18647585E+04</rscale>
<asrwt>0</asrwt>
<pdfrwt beam="1">  1        2 0.12128101E+00 0.18647585E+04</pdfrwt>
<pdfrwt beam="2">  1       -1 0.16965461E+00 0.18647585E+04</pdfrwt>
<totfact> 0.93201723E+00</totfact>
</mgrwt>
</event>
<event>
12    6  0.1569942E-007  0.1610248E+04  0.7818608E-02  0.8814277E-01
          2   -1    0    0  501    0  0.00000000000E+00  0.00000000000E+00  0.13049856457E+04  0.13049856457E+04  0.00000000000E+00 0. -1.
         -1   -1    0    0    0  501 -0.00000000000E+00 -0.00000000000E+00 -0.49672924256E+03  0.49672924256E+03  0.00000000000E+00 0.  1.
         24    2    1    2    0    0  0.25026321816E+03 -0.32190113834E+03 -0.15024304610E+03  0.44168506834E+03  0.79124619832E+02 0.  0.
        254    2    1    2    0    0 -0.25026321816E+03  0.32190113834E+03  0.95849944923E+03  0.13600298199E+04  0.87447578332E+03 0.  0.
         23    2    4    4    0    0 -0.44268932174E+03 -0.47615297689E+02  0.76896575224E+03  0.89323071687E+03  0.91168707848E+02 0.  0.
         23    2    4    4    0    0  0.19242610358E+03  0.36951643603E+03  0.18953369700E+03  0.46679910303E+03  0.91696120190E+02 0.  0.
          4    1    3    3  502    0  0.77009426084E+02 -0.14408337234E+03 -0.31081225156E+02  0.16630247276E+03  0.00000000000E+00 0. -1.
         -3    1    3    3    0  502  0.17325379207E+03 -0.17781776600E+03 -0.11916182095E+03  0.27538259557E+03  0.00000000000E+00 0.  1.
         11    1    5    5    0    0 -0.44216916972E+03 -0.54962734763E+02  0.74418764497E+03  0.86738095886E+03  0.00000000000E+00 0.  1.
        -11    1    5    5    0    0 -0.52015202334E+00  0.73474370734E+01  0.24778107262E+02  0.25849758010E+02  0.00000000000E+00 0. -1.
          1    1    6    6  503    0  0.18404635337E+02  0.35527490041E+02 -0.90811698735E+01  0.41029267563E+02  0.00000000000E+00 0. -1.
         -1    1    6    6    0  503  0.17402146825E+03  0.33398894599E+03  0.19861486687E+03  0.42576983547E+03  0.00000000000E+00 0.  1.
<mgrwt>
<rscale>  0 0.16102478E+04</rscale>
<asrwt>0</asrwt>
<pdfrwt beam="1">  1        2 0.20076702E+00 0.16102478E+04</pdfrwt>
<pdfrwt beam="2">  1       -1 0.76419884E-01 0.16102478E+04</pdfrwt>
<totfact> 0.30832149E+01</totfact>
</mgrwt>
</event>
<event>
12    6  0.1569942E-007  0.2027994E+04  0.7818608E-02  0.8593643E-01
          2   -1    0    0  501    0  0.00000000000E+00  0.00000000000E+00  0.37770826633E+04  0.37770826633E+04  0.00000000000E+00 0. -1.
         -1   -1    0    0    0  501 -0.00000000000E+00 -0.00000000000E+00 -0.27221800328E+03  0.27221800328E+03  0.00000000000E+00 0.  1.
         24    2    1    2    0    0 -0.59700809461E+03 -0.54523215873E+03  0.12806458553E+04  0.15166105225E+04  0.79730160822E+02 0.  0.
        254    2    1    2    0    0  0.59700809461E+03  0.54523215873E+03  0.22242188048E+04  0.25326901440E+04  0.90203841513E+03 0.  0.
         23    2    4    4    0    0 -0.11454086361E+01  0.15035581352E+03 -0.18850821938E+02  0.17609494889E+03  0.89698912582E+02 0.  0.
         23    2    4    4    0    0  0.59815350324E+03  0.39487634521E+03  0.22430696267E+04  0.23565951952E+04  0.92003381222E+02 0.  0.
          2    1    3    3  502    0 -0.11873477900E+03 -0.14304596682E+03  0.25457413267E+03  0.31522703785E+03  0.00000000000E+00 0. -1.
         -1    1    3    3    0  502 -0.47827331561E+03 -0.40218619191E+03  0.10260717226E+04  0.12013834847E+04  0.00000000000E+00 0.  1.
         11    1    5    5    0    0 -0.28869553222E+02  0.18175442207E+02  0.14362185805E+02  0.37014459117E+02  0.00000000000E+00 0. -1.
        -11    1    5    5    0    0  0.27724144586E+02  0.13218037131E+03 -0.33213007743E+02  0.13908048978E+03  0.00000000000E+00 0.  1.
          2    1    6    6  503    0  0.27041081600E+00 -0.99990470274E+00 -0.55052109134E+00  0.11730323508E+01  0.00000000000E+00 0. -1.
         -2    1    6    6    0  503  0.59788309243E+03  0.39587624991E+03  0.22436201478E+04  0.23554221628E+04  0.00000000000E+00 0.  1.
<mgrwt>
<rscale>  0 0.20279940E+04</rscale>
<asrwt>0</asrwt>
<pdfrwt beam="1">  1        2 0.58108960E+00 0.20279940E+04</pdfrwt>
<pdfrwt beam="2">  1       -1 0.41879696E-01 0.20279940E+04</pdfrwt>
<totfact> 0.30420456E+00</totfact>
</mgrwt>
</event>
<event>
12    6  0.1569942E-007  0.1318692E+04  0.7818608E-02  0.9014872E-01
         -1   -1    0    0    0  501 -0.00000000000E+00  0.00000000000E+00  0.10575351040E+04  0.10575351040E+04  0.00000000000E+00 0.  1.
          2   -1    0    0  501    0  0.00000000000E+00 -0.00000000000E+00 -0.41108508323E+03  0.41108508323E+03  0.00000000000E+00 0. -1.
         24    2    1    2    0    0 -0.55156105356E+02  0.24327991041E+03 -0.97675135419E+02  0.28011091149E+03  0.81819190221E+02 0.  0.
        254    2    1    2    0    0  0.55156105356E+02 -0.24327991041E+03  0.74412515621E+03  0.11885092758E+04  0.89252716470E+03 0.  0.
         23    2    4    4    0    0 -0.14066812616E+03 -0.74621823188E+01 -0.16025035159E+03  0.22923236305E+03  0.83809875326E+02 0.  0.
         23    2    4    4    0    0  0.19582423152E+03 -0.23581772809E+03  0.90437550780E+03  0.95927691272E+03  0.91433066469E+02 0.  0.
          2    1    3    3  502    0 -0.30215973331E+02  0.23228948608E+03 -0.94811210157E+02  0.25270650162E+03  0.00000000000E+00 0. -1.
         -1    1    3    3    0  502 -0.24940132025E+02  0.10990424325E+02 -0.28639252617E+01  0.27404409867E+02  0.00000000000E+00 0.  1.
         11    1    5    5    0    0 -0.11306001989E+03 -0.17953329955E+02 -0.16342174086E+03  0.19952833267E+03  0.00000000000E+00 0. -1.
        -11    1    5    5    0    0 -0.27608106275E+02  0.10491147636E+02  0.31713892703E+01  0.29704030378E+02  0.00000000000E+00 0.  1.
          3    1    6    6  503    0  0.15890477768E+01  0.79643933360E+01  0.25738960523E+02  0.26989826284E+02  0.00000000000E+00 0.  1.
         -3    1    6    6    0  503  0.19423518374E+03 -0.24378212142E+03  0.87863654728E+03  0.93228708644E+03  0.00000000000E+00 0. -1.
<mgrwt>
<rscale>  0 0.13186916E+04</rscale>
<asrwt>0</asrwt>
<pdfrwt beam="1">  1        2 0.63243859E-01 0.13186916E+04</pdfrwt>
<pdfrwt beam="2">  1       -1 0.16269771E+00 0.13186916E+04</pdfrwt>
<totfact> 0.24080481E+01</totfact>
</mgrwt>
</event>
<event>
12    6  0.1569942E-007  0.1272768E+04  0.7818608E-02  0.9051443E-01
         -1   -1    0    0    0  501 -0.00000000000E+00  0.00000000000E+00  0.34785189356E+03  0.34785189356E+03  0.00000000000E+00 0.  1.
          2   -1    0    0  501    0  0.00000000000E+00 -0.00000000000E+00 -0.11642447718E+04  0.11642447718E+04  0.00000000000E+00 0. -1.
         24    2    1    2    0    0 -0.17938105135E+03 -0.18726838890E+03  0.64997006251E+01  0.27133804607E+03  0.79593203688E+02 0.  0.
        254    2    1    2    0    0  0.17938105135E+03  0.18726838890E+03 -0.82289257889E+03  0.12407586193E+04  0.89167412432E+03 0.  0.
         23    2    4    4    0    0 -0.19692509743E+03  0.34472629706E+03 -0.69182411039E+03  0.80261189861E+03  0.89160227611E+02 0.  0.
         23    2    4    4    0    0  0.37630614878E+03 -0.15745790817E+03 -0.13106846850E+03  0.43814672071E+03  0.91620385208E+02 0.  0.
          2    1    3    3  502    0 -0.18277440585E+03 -0.16129568707E+03  0.13763367011E+02  0.24415612295E+03  0.00000000000E+00 0. -1.
         -1    1    3    3    0  502  0.33933545063E+01 -0.25972701829E+02 -0.72636663862E+01  0.27181923120E+02  0.00000000000E+00 0.  1.
         11    1    5    5    0    0  0.58663734186E+01  0.11585553075E-01 -0.44872689408E+01  0.73858008271E+01  0.00000000000E+00 0.  1.
        -11    1    5    5    0    0 -0.20279147085E+03  0.34471471151E+03 -0.68733684145E+03  0.79522609779E+03  0.00000000000E+00 0. -1.
          1    1    6    6  503    0  0.22876574740E+03 -0.55809742573E+02 -0.10208570175E+03  0.25665148558E+03  0.00000000000E+00 0. -1.
         -1    1    6    6    0  503  0.14754040138E+03 -0.10164816559E+03 -0.28982766750E+02  0.18149523513E+03  0.00000000000E+00 0.  1.
<mgrwt>
<rscale>  0 0.12727682E+04</rscale>
<asrwt>0</asrwt>
<pdfrwt beam="1">  1        2 0.17911458E+00 0.12727682E+04</pdfrwt>
<pdfrwt beam="2">  1       -1 0.53515675E-01 0.12727682E+04</pdfrwt>
<totfact> 0.78494746E+01</totfact>
</mgrwt>
</event>
<event>
12    6  0.1569942E-007  0.1257903E+04  0.7818608E-02  0.9063631E-01
         -1   -1    0    0    0  501 -0.00000000000E+00  0.00000000000E+00  0.22718071506E+03  0.22718071506E+03  0.00000000000E+00 0.  1.
          2   -1    0    0  501    0  0.00000000000E+00 -0.00000000000E+00 -0.17412579383E+04  0.17412579383E+04  0.00000000000E+00 0. -1.
         24    2    1    2    0    0  0.29903968183E+02 -0.95903118762E+02 -0.81415921807E+03  0.82470032530E+03  0.84756938860E+02 0.  0.
        254    2    1    2    0    0 -0.29903968183E+02  0.95903118762E+02 -0.69991800522E+03  0.11437383281E+04  0.89897747116E+03 0.  0.
         23    2    4    4    0    0 -0.48805084087E+02 -0.37223099733E+03 -0.48589789829E+03  0.62085546923E+03  0.91798118203E+02 0.  0.
         23    2    4    4    0    0  0.18901115903E+02  0.46813411609E+03 -0.21402010692E+03  0.52288285887E+03  0.89972635325E+02 0.  0.
          2    1    3    3  502    0  0.10493666236E+02 -0.77928344391E+01 -0.42572272599E+03  0.42592333198E+03  0.00000000000E+00 0. -1.
         -1    1    3    3    0  502  0.19410301948E+02 -0.88110284323E+02 -0.38843649208E+03  0.39877699333E+03  0.00000000000E+00 0.  1.
         11    1    5    5    0    0 -0.83773238775E+00 -0.31307671277E+02 -0.88427276758E+01  0.32543292844E+02  0.00000000000E+00 0. -1.
        -11    1    5    5    0    0 -0.47967351699E+02 -0.34092332605E+03 -0.47705517062E+03  0.58831217639E+03  0.00000000000E+00 0.  1.
          4    1    6    6  503    0  0.54810377785E+02  0.30957612572E+03 -0.14643064657E+03  0.34681910181E+03  0.00000000000E+00 0.  1.
         -4    1    6    6    0  503 -0.35909261881E+02  0.15855799037E+03 -0.67589460354E+02  0.17606375706E+03  0.00000000000E+00 0. -1.
<mgrwt>
<rscale>  0 0.12579034E+04</rscale>
<asrwt>0</asrwt>
<pdfrwt beam="1">  1        2 0.26788584E+00 0.12579034E+04</pdfrwt>
<pdfrwt beam="2">  1       -1 0.34950879E-01 0.12579034E+04</pdfrwt>
<totfact> 0.81036710E+01</totfact>
</mgrwt>
</event>
<event>
12    6  0.1569942E-007  0.1882241E+04  0.7818608E-02  0.8663747E-01
          2   -1    0    0  501    0  0.00000000000E+00  0.00000000000E+00  0.16610549401E+04  0.16610549401E+04  0.00000000000E+00 0. -1.
         -1   -1    0    0    0  501 -0.00000000000E+00 -0.00000000000E+00 -0.53321978166E+03  0.53321978166E+03  0.00000000000E+00 0.  1.
         24    2    1    2    0    0 -0.22947911826E+03 -0.16147810952E+03  0.12160734836E+04  0.12504272213E+04  0.77444641854E+02 0.  0.
        254    2    1    2    0    0  0.22947911826E+03  0.16147810952E+03 -0.88238325205E+02  0.94384750047E+03  0.89684238110E+03 0.  0.
         23    2    4    4    0    0  0.37223443031E+03 -0.19799558556E+03 -0.26643921451E+03  0.50750045442E+03  0.93840999560E+02 0.  0.
         23    2    4    4    0    0 -0.14275531206E+03  0.35947369508E+03  0.17820088930E+03  0.43634704604E+03  0.95093485944E+02 0.  0.
          2    1    3    3  502    0 -0.21658022698E+03 -0.16344136314E+03  0.10735361553E+04  0.11072939766E+04  0.00000000000E+00 0. -1.
         -3    1    3    3    0  502 -0.12898891279E+02  0.19632536190E+01  0.14253732835E+03  0.14313324468E+03  0.00000000000E+00 0.  1.
         11    1    5    5    0    0  0.18820350293E+03 -0.15282311151E+03 -0.14854116766E+03  0.28432365434E+03  0.00000000000E+00 0. -1.
        -11    1    5    5    0    0  0.18403092738E+03 -0.45172474055E+02 -0.11789804685E+03  0.22317680008E+03  0.00000000000E+00 0.  1.
          4    1    6    6  503    0 -0.14365936549E+03  0.31927360476E+03  0.12972825870E+03  0.37336720410E+03  0.00000000000E+00 0. -1.
         -4    1    6    6    0  503  0.90405343565E+00  0.40200090323E+02  0.48472630601E+02  0.62979841950E+02  0.00000000000E+00 0.  1.
<mgrwt>
<rscale>  0 0.18822405E+04</rscale>
<asrwt>0</asrwt>
<pdfrwt beam="1">  1        2 0.25554691E+00 0.18822405E+04</pdfrwt>
<pdfrwt beam="2">  1       -1 0.82033813E-01 0.18822405E+04</pdfrwt>
<totfact> 0.16281356E+01</totfact>
</mgrwt>
</event>
<event>
12    6  0.1569942E-007  0.1640781E+04  0.7818608E-02  0.8795879E-01
         -1   -1    0    0    0  501 -0.00000000000E+00  0.00000000000E+00  0.45340909051E+03  0.45340909051E+03  0.00000000000E+00 0.  1.
          2   -1    0    0  501    0  0.00000000000E+00 -0.00000000000E+00 -0.14844002250E+04  0.14844002250E+04  0.00000000000E+00 0. -1.
         24    2    1    2    0    0  0.40545549604E+03  0.11176658405E+03 -0.81026908299E+03  0.91638740932E+03  0.79649033355E+02 0.  0.
        254    2    1    2    0    0 -0.40545549604E+03 -0.11176658405E+03 -0.22072205153E+03  0.10214219062E+04  0.90426686211E+03 0.  0.
         23    2    4    4    0    0  0.16650237023E+03 -0.52405276250E+02 -0.37188983692E+03  0.42083720443E+03  0.91282799886E+02 0.  0.
         23    2    4    4    0    0 -0.57195786628E+03 -0.59361307804E+02  0.15116778539E+03  0.60058470181E+03  0.84798107556E+02 0.  0.
          2    1    3    3  502    0  0.28976959857E+03  0.73158794305E+02 -0.49335920282E+03  0.57682053747E+03  0.00000000000E+00 0. -1.
         -1    1    3    3    0  502  0.11568589747E+03  0.38607789749E+02 -0.31690988017E+03  0.33956687185E+03  0.00000000000E+00 0.  1.
         11    1    5    5    0    0 -0.19293807713E+01  0.11722557789E+02 -0.68071551246E+01  0.13692269066E+02  0.00000000000E+00 0. -1.
        -11    1    5    5    0    0  0.16843175101E+03 -0.64127834039E+02 -0.36508268179E+03  0.40714493536E+03  0.00000000000E+00 0.  1.
          1    1    6    6  503    0 -0.14656800761E+02 -0.16054026395E+01  0.20520436263E+02  0.25268308820E+02  0.00000000000E+00 0. -1.
         -1    1    6    6    0  503 -0.55730106552E+03 -0.57755905164E+02  0.13064734912E+03  0.57531639299E+03  0.00000000000E+00 0.  1.
<mgrwt>
<rscale>  0 0.16407810E+04</rscale>
<asrwt>0</asrwt>
<pdfrwt beam="1">  1        2 0.22836926E+00 0.16407810E+04</pdfrwt>
<pdfrwt beam="2">  1       -1 0.69755246E-01 0.16407810E+04</pdfrwt>
<totfact> 0.29325656E+01</totfact>
</mgrwt>
</event>
<event>
12    6  0.1569942E-007  0.1756713E+04  0.7818608E-02  0.8729664E-01
          2   -1    0    0  501    0  0.00000000000E+00  0.00000000000E+00  0.35308847052E+04  0.35308847052E+04  0.00000000000E+00 0. -1.
         -1   -1    0    0    0  501 -0.00000000000E+00 -0.00000000000E+00 -0.21850329443E+03  0.21850329443E+03  0.00000000000E+00 0.  1.
         24    2    1    2    0    0  0.52296240405E+03  0.41129480222E+02  0.48447788935E+03  0.71811867113E+03  0.76120236167E+02 0.  0.
        254    2    1    2    0    0 -0.52296240405E+03 -0.41129480222E+02  0.28279035214E+04  0.30312693285E+04  0.95727431038E+03 0.  0.
         23    2    4    4    0    0 -0.31088215487E+03 -0.17042177072E+03  0.25845657308E+03  0.44824829967E+03  0.91844672343E+02 0.  0.
         23    2    4    4    0    0 -0.21208024918E+03  0.12929229050E+03  0.25694469483E+04  0.25830210288E+04  0.90804661758E+02 0.  0.
          2    1    3    3  502    0  0.19366214882E+03  0.46075673161E+02  0.21046747249E+03  0.28969734641E+03  0.00000000000E+00 0. -1.
         -1    1    3    3    0  502  0.32930025522E+03 -0.49461929396E+01  0.27401041687E+03  0.42842132471E+03  0.00000000000E+00 0.  1.
         11    1    5    5    0    0 -0.33608660039E+02 -0.57802610122E+02  0.43233923072E+02  0.79623211884E+02  0.00000000000E+00 0.  1.
        -11    1    5    5    0    0 -0.27727349483E+03 -0.11261916060E+03  0.21522265001E+03  0.36862508779E+03  0.00000000000E+00 0. -1.
          2    1    6    6  503    0 -0.18532121918E+03  0.11367947284E+03  0.18208747725E+04  0.18338080363E+04  0.00000000000E+00 0. -1.
         -2    1    6    6    0  503 -0.26759029999E+02  0.15612817664E+02  0.74857217583E+03  0.74921299254E+03  0.00000000000E+00 0.  1.
<mgrwt>
<rscale>  0 0.17567128E+04</rscale>
<asrwt>0</asrwt>
<pdfrwt beam="1">  1        2 0.54321299E+00 0.17567128E+04</pdfrwt>
<pdfrwt beam="2">  1       -1 0.33615894E-01 0.17567128E+04</pdfrwt>
<totfact> 0.70217094E+00</totfact>
</mgrwt>
</event>
<event>
12    6  0.1569942E-007  0.2579915E+04  0.7818608E-02  0.8375056E-01
          2   -1    0    0  501    0  0.00000000000E+00  0.00000000000E+00  0.15852039201E+04  0.15852039201E+04  0.00000000000E+00 0. -1.
         -1   -1    0    0    0  501 -0.00000000000E+00 -0.00000000000E+00 -0.10497013686E+04  0.10497013686E+04  0.00000000000E+00 0.  1.
         24    2    1    2    0    0 -0.19113725162E+02  0.40367618416E+03 -0.84243904210E+03  0.93784057195E+03  0.80756439927E+02 0.  0.
        254    2    1    2    0    0  0.19113725162E+02 -0.40367618416E+03  0.13779415937E+04  0.16970647167E+04  0.90442568579E+03 0.  0.
         23    2    4    4    0    0  0.34634072396E+02 -0.66576416700E+03  0.72941132221E+03  0.99166056513E+03  0.83116511122E+02 0.  0.
         23    2    4    4    0    0 -0.15520347233E+02  0.26208798284E+03  0.64853027144E+03  0.70540415161E+03  0.89847160267E+02 0.  0.
          4    1    3    3  502    0 -0.43751187734E+02  0.24411535631E+03 -0.45709352213E+03  0.52003938465E+03  0.00000000000E+00 0. -1.
         -3    1    3    3    0  502  0.24637462571E+02  0.15956082785E+03 -0.38534551997E+03  0.41780118730E+03  0.00000000000E+00 0.  1.
         11    1    5    5    0    0  0.57190295808E+02 -0.42437393349E+03  0.49352936531E+03  0.65340278526E+03  0.00000000000E+00 0. -1.
        -11    1    5    5    0    0 -0.22556223412E+02 -0.24139023351E+03  0.23588195691E+03  0.33825777987E+03  0.00000000000E+00 0.  1.
          2    1    6    6  503    0 -0.36024311462E+02  0.23818934677E+03  0.52026643581E+03  0.57333156216E+03  0.00000000000E+00 0. -1.
         -2    1    6    6    0  503  0.20503964229E+02  0.23898636064E+02  0.12826383562E+03  0.13207258945E+03  0.00000000000E+00 0.  1.
<mgrwt>
<rscale>  0 0.25799153E+04</rscale>
<asrwt>0</asrwt>
<pdfrwt beam="1">  1        2 0.24387753E+00 0.25799153E+04</pdfrwt>
<pdfrwt beam="2">  1       -1 0.16149252E+00 0.25799153E+04</pdfrwt>
<totfact> 0.32656631E+00</totfact>
</mgrwt>
</event>
<event>
12    6  0.1711166E-007  0.2137647E+04  0.7818608E-02  0.8544839E-01
         -1   -1    0    0    0  501 -0.00000000000E+00  0.00000000000E+00  0.56292314266E+03  0.56292314266E+03  0.00000000000E+00 0.  1.
          2   -1    0    0  501    0  0.00000000000E+00 -0.00000000000E+00 -0.20293770459E+04  0.20293770459E+04  0.00000000000E+00 0. -1.
         24    2    1    2    0    0 -0.25807073651E+03  0.61417214202E+03  0.90652693116E+02  0.67673881785E+03  0.77133596679E+02 0.  0.
        254    2    1    2    0    0  0.25807073651E+03 -0.61417214202E+03 -0.15571065963E+04  0.19155613707E+04  0.89497848436E+03 0.  0.
         23    2    4    4    0    0 -0.26216071800E+03 -0.46035037064E+03 -0.55408515308E+03  0.77172410879E+03  0.88865276695E+02 0.  0.
         23    2    4    4    0    0  0.52023145451E+03 -0.15382177138E+03 -0.10030214433E+04  0.11438372619E+04  0.89497276468E+02 0.  0.
          2    1    3    3  502    0 -0.23534537281E+02  0.51326626684E+02  0.30091517020E+02  0.63982782436E+02  0.00000000000E+00 0. -1.
         -1    1    3    3    0  502 -0.23453619923E+03  0.56284551534E+03  0.60561176097E+02  0.61275603542E+03  0.00000000000E+00 0.  1.
         11    1    5    5    0    0 -0.34920986966E+02 -0.19205596495E+02 -0.55038884560E+02  0.67952991700E+02  0.00000000000E+00 0. -1.
        -11    1    5    5    0    0 -0.22723973103E+03 -0.44114477414E+03 -0.49904626852E+03  0.70377111709E+03  0.00000000000E+00 0.  1.
          1    1    6    6  503    0  0.16022520078E+03 -0.63171058459E+01 -0.31354186560E+03  0.35216547570E+03  0.00000000000E+00 0. -1.
         -1    1    6    6    0  503  0.36000625374E+03 -0.14750466554E+03 -0.68947957767E+03  0.79167178623E+03  0.00000000000E+00 0.  1.
<mgrwt>
<rscale>  0 0.21376467E+04</rscale>
<asrwt>0</asrwt>
<pdfrwt beam="1">  1        2 0.31221185E+00 0.21376467E+04</pdfrwt>
<pdfrwt beam="2">  1       -1 0.86603561E-01 0.21376467E+04</pdfrwt>
<totfact> 0.88443385E+00</totfact>
</mgrwt>
</event>
<event>
12    6  0.1569942E-007  0.1651364E+04  0.7818608E-02  0.8789600E-01
         -1   -1    0    0    0  501 -0.00000000000E+00  0.00000000000E+00  0.46246993239E+03  0.46246993239E+03  0.00000000000E+00 0.  1.
          2   -1    0    0  501    0  0.00000000000E+00 -0.00000000000E+00 -0.14741515484E+04  0.14741515484E+04  0.00000000000E+00 0. -1.
         24    2    1    2    0    0 -0.33650487970E+01 -0.21428956967E+02 -0.10067938203E+04  0.10100554573E+04  0.78151817183E+02 0.  0.
        254    2    1    2    0    0  0.33650487970E+01  0.21428956967E+02 -0.48877957986E+01  0.92656602355E+03  0.92629918584E+03 0.  0.
         23    2    4    4    0    0  0.27395446316E+03  0.10860025090E+02 -0.36575244700E+03  0.46616093903E+03  0.91444959157E+02 0.  0.
         23    2    4    4    0    0 -0.27058941436E+03  0.10568931877E+02  0.36086465120E+03  0.46040508452E+03  0.91756263434E+02 0.  0.
          4    1    3    3  502    0 -0.26909746442E+02 -0.20600294208E+02 -0.90240500328E+03  0.90304113778E+03  0.00000000000E+00 0. -1.
         -3    1    3    3    0  502  0.23544697645E+02 -0.82866275910E+00 -0.10438881697E+03  0.10701431950E+03  0.00000000000E+00 0.  1.
         11    1    5    5    0    0  0.24701565427E+03 -0.17755406715E+02 -0.33304037338E+03  0.41502756321E+03  0.00000000000E+00 0.  1.
        -11    1    5    5    0    0  0.26938808887E+02  0.28615431805E+02 -0.32712073625E+02  0.51133375818E+02  0.00000000000E+00 0. -1.
          1    1    6    6  503    0 -0.13964718612E+03  0.51316308236E+02  0.18633064348E+03  0.23844036735E+03  0.00000000000E+00 0.  1.
         -1    1    6    6    0  503 -0.13094222825E+03 -0.40747376359E+02  0.17453400772E+03  0.22196471717E+03  0.00000000000E+00 0. -1.
<mgrwt>
<rscale>  0 0.16513640E+04</rscale>
<asrwt>0</asrwt>
<pdfrwt beam="1">  1        2 0.22679255E+00 0.16513640E+04</pdfrwt>
<pdfrwt beam="2">  1       -1 0.71149220E-01 0.16513640E+04</pdfrwt>
<totfact> 0.28510314E+01</totfact>
</mgrwt>
</event>
<event>
12    6  0.1569942E-007  0.2784312E+04  0.7818608E-02  0.8308155E-01
         -1   -1    0    0    0  501 -0.00000000000E+00  0.00000000000E+00  0.99041376060E+03  0.99041376060E+03  0.00000000000E+00 0.  1.
          2   -1    0    0  501    0  0.00000000000E+00 -0.00000000000E+00 -0.19568577301E+04  0.19568577301E+04  0.00000000000E+00 0. -1.
         24    2    1    2    0    0 -0.95368509253E+03  0.69916563195E+03 -0.90608164763E+01  0.11849574879E+04  0.75460672679E+02 0.  0.
        254    2    1    2    0    0  0.95368509253E+03 -0.69916563195E+03 -0.95738315300E+03  0.17623140028E+04  0.88928078024E+03 0.  0.
         23    2    4    4    0    0  0.37766628542E+03 -0.78236244935E+03 -0.44396421229E+03  0.98062419320E+03  0.98978589636E+02 0.  0.
         23    2    4    4    0    0  0.57601880711E+03  0.83196817401E+02 -0.51341894071E+03  0.78168980957E+03  0.93384008983E+02 0.  0.
          2    1    3    3  502    0 -0.13625155752E+03  0.11296265627E+03 -0.26172921623E+02  0.17891358379E+03  0.00000000000E+00 0. -1.
         -1    1    3    3    0  502 -0.81743353501E+03  0.58620297567E+03  0.17112105146E+02  0.10060439041E+04  0.00000000000E+00 0.  1.
         11    1    5    5    0    0  0.92448975762E+02 -0.11488428501E+03 -0.57357730550E+02  0.15822490738E+03  0.00000000000E+00 0.  1.
        -11    1    5    5    0    0  0.28521730966E+03 -0.66747816434E+03 -0.38660648174E+03  0.82239928582E+03  0.00000000000E+00 0. -1.
          1    1    6    6  503    0  0.20750575746E+03  0.29306290560E+02 -0.12717017923E+03  0.24513211240E+03  0.00000000000E+00 0. -1.
         -1    1    6    6    0  503  0.36851304966E+03  0.53890526841E+02 -0.38624876147E+03  0.53655769717E+03  0.00000000000E+00 0.  1.
<mgrwt>
<rscale>  0 0.27843124E+04</rscale>
<asrwt>0</asrwt>
<pdfrwt beam="1">  1        2 0.30105503E+00 0.27843124E+04</pdfrwt>
<pdfrwt beam="2">  1       -1 0.15237135E+00 0.27843124E+04</pdfrwt>
<totfact> 0.23404017E+00</totfact>
</mgrwt>
</event>
<event>
12    6  0.1569942E-007  0.1454955E+04  0.7818608E-02  0.8914972E-01
          2   -1    0    0  501    0  0.00000000000E+00  0.00000000000E+00  0.29327886709E+04  0.29327886709E+04  0.00000000000E+00 0. -1.
         -1   -1    0    0    0  501 -0.00000000000E+00 -0.00000000000E+00 -0.18045073514E+03  0.18045073514E+03  0.00000000000E+00 0.  1.
         24    2    1    2    0    0  0.35258440183E+02 -0.37213121164E+03  0.34122497399E+03  0.51254005511E+03  0.80858078968E+02 0.  0.
        254    2    1    2    0    0 -0.35258440183E+02  0.37213121164E+03  0.24111129618E+04  0.26006993510E+04  0.90024807872E+03 0.  0.
         23    2    4    4    0    0 -0.14932428379E+02 -0.25349664584E+03  0.12419174382E+04  0.12709913926E+04  0.92610313200E+02 0.  0.
         23    2    4    4    0    0 -0.20326011804E+02  0.62562785748E+03  0.11691955237E+04  0.13297079583E+04  0.96341678827E+02 0.  0.
          2    1    3    3  502    0  0.43853895455E+02 -0.95665886871E+02  0.10717884300E+03  0.15020795733E+03  0.00000000000E+00 0. -1.
         -1    1    3    3    0  502 -0.85954552723E+01 -0.27646532477E+03  0.23404613099E+03  0.36233209778E+03  0.00000000000E+00 0.  1.
         11    1    5    5    0    0  0.22730927265E+02 -0.19746856568E+03  0.10134089354E+04  0.10327188387E+04  0.00000000000E+00 0.  1.
        -11    1    5    5    0    0 -0.37663355644E+02 -0.56028080160E+02  0.22850850275E+03  0.23827255393E+03  0.00000000000E+00 0. -1.
          2    1    6    6  503    0 -0.52468782163E+02  0.46677950497E+03  0.82736192124E+03  0.95140098175E+03  0.00000000000E+00 0. -1.
         -2    1    6    6    0  503  0.32142770359E+02  0.15884835252E+03  0.34183360241E+03  0.37830697657E+03  0.00000000000E+00 0.  1.
<mgrwt>
<rscale>  0 0.14549555E+04</rscale>
<asrwt>0</asrwt>
<pdfrwt beam="1">  1        2 0.45119822E+00 0.14549555E+04</pdfrwt>
<pdfrwt beam="2">  1       -1 0.27761654E-01 0.14549555E+04</pdfrwt>
<totfact> 0.24920040E+01</totfact>
</mgrwt>
</event>
<event>
12    6  0.1569942E-007  0.3075509E+04  0.7818608E-02  0.8222492E-01
          2   -1    0    0  501    0  0.00000000000E+00  0.00000000000E+00  0.27967313760E+04  0.27967313760E+04  0.00000000000E+00 0. -1.
         -1   -1    0    0    0  501 -0.00000000000E+00 -0.00000000000E+00 -0.84551882106E+03  0.84551882106E+03  0.00000000000E+00 0.  1.
         24    2    1    2    0    0 -0.13160386138E+04 -0.22519458088E+03  0.37970166294E+03  0.13904580550E+04  0.80808524288E+02 0.  0.
        254    2    1    2    0    0  0.13160386138E+04  0.22519458088E+03  0.15715108920E+04  0.22517921421E+04  0.90457234952E+03 0.  0.
         23    2    4    4    0    0  0.90362685074E+03 -0.21581720188E+03  0.61768411756E+03  0.11188499539E+04  0.84693566132E+02 0.  0.
         23    2    4    4    0    0  0.41241176301E+03  0.44101178276E+03  0.95382677446E+03  0.11329421883E+04  0.95904283103E+02 0.  0.
          4    1    3    3  502    0 -0.28632098217E+03 -0.61396809085E+02  0.11596487943E+03  0.31495575286E+03  0.00000000000E+00 0. -1.
         -3    1    3    3    0  502 -0.10297176316E+04 -0.16379777180E+03  0.26373678351E+03  0.10755023021E+04  0.00000000000E+00 0.  1.
         11    1    5    5    0    0  0.56233309036E+03 -0.10884922716E+03  0.41936546700E+03  0.70988312677E+03  0.00000000000E+00 0. -1.
        -11    1    5    5    0    0  0.34129376038E+03 -0.10696797472E+03  0.19831865056E+03  0.40896682708E+03  0.00000000000E+00 0.  1.
          2    1    6    6  503    0  0.97762241872E+02  0.16896041228E+03  0.31868084635E+03  0.37371454171E+03  0.00000000000E+00 0. -1.
         -2    1    6    6    0  503  0.31464952114E+03  0.27205137048E+03  0.63514592811E+03  0.75922764658E+03  0.00000000000E+00 0.  1.
<mgrwt>
<rscale>  0 0.30755091E+04</rscale>
<asrwt>0</asrwt>
<pdfrwt beam="1">  1        2 0.43026636E+00 0.30755091E+04</pdfrwt>
<pdfrwt beam="2">  1       -1 0.13007982E+00 0.30755091E+04</pdfrwt>
<totfact> 0.11364388E+00</totfact>
</mgrwt>
</event>
<event>
12    6  0.1569942E-007  0.1973941E+04  0.7818608E-02  0.8618902E-01
          2   -1    0    0  501    0  0.00000000000E+00  0.00000000000E+00  0.15900620308E+04  0.15900620308E+04  0.00000000000E+00 0. -1.
         -1   -1    0    0    0  501 -0.00000000000E+00 -0.00000000000E+00 -0.61262468052E+03  0.61262468052E+03  0.00000000000E+00 0.  1.
         24    2    1    2    0    0 -0.51685739686E+03  0.53683125390E+03  0.14781059580E+03  0.76405838209E+03  0.81288837812E+02 0.  0.
        254    2    1    2    0    0  0.51685739686E+03 -0.53683125390E+03  0.82962675444E+03  0.14386283292E+04  0.90886828198E+03 0.  0.
         23    2    4    4    0    0  0.55954426132E+03 -0.60590803520E+03  0.95228229811E+03  0.12630910568E+04  0.91340653805E+02 0.  0.
         23    2    4    4    0    0 -0.42686864457E+02  0.69076781297E+02 -0.12265554368E+03  0.17553727236E+03  0.95787167621E+02 0.  0.
          2    1    3    3  502    0 -0.12653866210E+03  0.91713024946E+02  0.49549733873E+02  0.16394660130E+03  0.00000000000E+00 0. -1.
         -1    1    3    3    0  502 -0.39031873476E+03  0.44511822895E+03  0.98260861924E+02  0.60011178078E+03  0.00000000000E+00 0.  1.
         11    1    5    5    0    0  0.12758482079E+03 -0.19459263111E+03  0.24526631385E+03  0.33808245043E+03  0.00000000000E+00 0. -1.
        -11    1    5    5    0    0  0.43195944052E+03 -0.41131540408E+03  0.70701598427E+03  0.92500860639E+03  0.00000000000E+00 0.  1.
          1    1    6    6  503    0 -0.25984039462E+02 -0.20541626874E+02 -0.22146973998E+02  0.39844914339E+02  0.00000000000E+00 0. -1.
         -1    1    6    6    0  503 -0.16702824995E+02  0.89618408172E+02 -0.10050856968E+03  0.13569235802E+03  0.00000000000E+00 0.  1.
<mgrwt>
<rscale>  0 0.19739415E+04</rscale>
<asrwt>0</asrwt>
<pdfrwt beam="1">  1        2 0.24462493E+00 0.19739415E+04</pdfrwt>
<pdfrwt beam="2">  1       -1 0.94249952E-01 0.19739415E+04</pdfrwt>
<totfact> 0.13058398E+01</totfact>
</mgrwt>
</event>
<event>
12    6  0.1569942E-007  0.2779443E+04  0.7818608E-02  0.8309679E-01
         -3   -1    0    0    0  501 -0.00000000000E+00  0.00000000000E+00  0.11838279403E+04  0.11838279403E+04  0.00000000000E+00 0.  1.
          2   -1    0    0  501    0  0.00000000000E+00 -0.00000000000E+00 -0.16314246589E+04  0.16314246589E+04  0.00000000000E+00 0. -1.
         24    2    1    2    0    0 -0.73822536606E+03  0.96604240586E+03  0.54499978878E+02  0.12196351696E+04  0.79530360001E+02 0.  0.
        254    2    1    2    0    0  0.73822536606E+03 -0.96604240586E+03 -0.50209669742E+03  0.15956174296E+04  0.90314963720E+03 0.  0.
         23    2    4    4    0    0  0.50059801458E+03 -0.52755703092E+03  0.17172101634E+03  0.75253813685E+03  0.88942379538E+02 0.  0.
         23    2    4    4    0    0  0.23762735148E+03 -0.43848537494E+03 -0.67381771377E+03  0.84307929279E+03  0.89533235906E+02 0.  0.
          2    1    3    3  502    0 -0.61952336934E+03  0.83548480912E+03  0.70213179388E+02  0.10424845140E+04  0.00000000000E+00 0. -1.
         -3    1    3    3    0  502 -0.11870199672E+03  0.13055759674E+03 -0.15713200510E+02  0.17715065555E+03  0.00000000000E+00 0.  1.
         11    1    5    5    0    0  0.16166415704E+03 -0.15957665214E+03  0.12392850380E+02  0.22749415447E+03  0.00000000000E+00 0.  1.
        -11    1    5    5    0    0  0.33893385754E+03 -0.36798037879E+03  0.15932816596E+03  0.52504398237E+03  0.00000000000E+00 0. -1.
          3    1    6    6  503    0  0.18060553897E+03 -0.38100821228E+03 -0.52199402533E+03  0.67101667716E+03  0.00000000000E+00 0. -1.
         -3    1    6    6    0  503  0.57021812511E+02 -0.57477162656E+02 -0.15182368843E+03  0.17206261563E+03  0.00000000000E+00 0.  1.
<mgrwt>
<rscale>  0 0.27794432E+04</rscale>
<asrwt>0</asrwt>
<pdfrwt beam="1">  1        2 0.25098841E+00 0.27794432E+04</pdfrwt>
<pdfrwt beam="2">  1       -3 0.18212738E+00 0.27794432E+04</pdfrwt>
<totfact> 0.11294789E+00</totfact>
</mgrwt>
</event>
<event>
12    6  0.1569942E-007  0.1480710E+04  0.7818608E-02  0.8897383E-01
         -1   -1    0    0    0  501 -0.00000000000E+00  0.00000000000E+00  0.31043968600E+03  0.31043968600E+03  0.00000000000E+00 0.  1.
          2   -1    0    0  501    0  0.00000000000E+00 -0.00000000000E+00 -0.17656425380E+04  0.17656425380E+04  0.00000000000E+00 0. -1.
         24    2    1    2    0    0  0.43142182916E+03 -0.69839215406E+01 -0.61615363379E+03  0.75985516955E+03  0.10752212994E+03 0.  0.
        254    2    1    2    0    0 -0.43142182916E+03  0.69839215406E+01 -0.83904921823E+03  0.13162270545E+04  0.91775623043E+03 0.  0.
         23    2    4    4    0    0 -0.21844831944E+02 -0.11226434619E+03 -0.86602624505E+03  0.87926809954E+03  0.10015215254E+03 0.  0.
         23    2    4    4    0    0 -0.40957699721E+03  0.11924826773E+03  0.26977026818E+02  0.43695895493E+03  0.90729831483E+02 0.  0.
          2    1    3    3  502    0  0.34905572373E+03  0.48576965254E+01 -0.55848904624E+03  0.65861484211E+03  0.00000000000E+00 0. -1.
         -1    1    3    3    0  502  0.82366105429E+02 -0.11841618066E+02 -0.57664587549E+02  0.10124032744E+03  0.00000000000E+00 0.  1.
         11    1    5    5    0    0 -0.33015264530E+02  0.56030375363E+01 -0.17574397389E+03  0.17890596994E+03  0.00000000000E+00 0. -1.
        -11    1    5    5    0    0  0.11170432586E+02 -0.11786738372E+03 -0.69028227116E+03  0.70036212961E+03  0.00000000000E+00 0.  1.
          4    1    6    6  503    0 -0.12506039773E+03  0.47563029220E+01  0.35709682690E+02  0.13014571424E+03  0.00000000000E+00 0. -1.
         -4    1    6    6    0  503 -0.28451659948E+03  0.11449196480E+03 -0.87326558721E+01  0.30681324069E+03  0.00000000000E+00 0.  1.
<mgrwt>
<rscale>  0 0.14807100E+04</rscale>
<asrwt>0</asrwt>
<pdfrwt beam="1">  1        2 0.27163731E+00 0.14807100E+04</pdfrwt>
<pdfrwt beam="2">  1       -1 0.47759953E-01 0.14807100E+04</pdfrwt>
<totfact> 0.43519370E+01</totfact>
</mgrwt>
</event>
<event>
12    6  0.1569942E-007  0.1908998E+04  0.7818608E-02  0.8650391E-01
         -1   -1    0    0    0  501 -0.00000000000E+00  0.00000000000E+00  0.55193778433E+03  0.55193778433E+03  0.00000000000E+00 0.  1.
          2   -1    0    0  501    0  0.00000000000E+00 -0.00000000000E+00 -0.16506717457E+04  0.16506717457E+04  0.00000000000E+00 0. -1.
         24    2    1    2    0    0 -0.56035621076E+03 -0.43763142804E+03 -0.60227698217E+03  0.93523044596E+03  0.79987961923E+02 0.  0.
        254    2    1    2    0    0  0.56035621076E+03  0.43763142804E+03 -0.49645697922E+03  0.12673790841E+04  0.92426179237E+03 0.  0.
         23    2    4    4    0    0 -0.20153674207E+03  0.20162318004E+03 -0.33728783191E+03  0.44897556479E+03  0.80913602644E+02 0.  0.
         23    2    4    4    0    0  0.76189295283E+03  0.23600824800E+03 -0.15916914730E+03  0.81840351930E+03  0.90932602792E+02 0.  0.
          2    1    3    3  502    0 -0.15779273514E+03 -0.12845369920E+03 -0.12691655201E+03  0.23980556973E+03  0.00000000000E+00 0. -1.
         -1    1    3    3    0  502 -0.40256347562E+03 -0.30917772884E+03 -0.47536043015E+03  0.69542487623E+03  0.00000000000E+00 0.  1.
         11    1    5    5    0    0 -0.10117806110E+03  0.15178709580E+03 -0.18398840710E+03  0.25909082664E+03  0.00000000000E+00 0. -1.
        -11    1    5    5    0    0 -0.10035868097E+03  0.49836084241E+02 -0.15329942481E+03  0.18988473816E+03  0.00000000000E+00 0.  1.
          3    1    6    6  503    0  0.53832548376E+02 -0.51640801156E+01 -0.19378685239E+02  0.57446883551E+02  0.00000000000E+00 0. -1.
         -3    1    6    6    0  503  0.70806040445E+03  0.24117232811E+03 -0.13979046207E+03  0.76095663575E+03  0.00000000000E+00 0.  1.
<mgrwt>
<rscale>  0 0.19089978E+04</rscale>
<asrwt>0</asrwt>
<pdfrwt beam="1">  1        2 0.25394950E+00 0.19089978E+04</pdfrwt>
<pdfrwt beam="2">  1       -1 0.84913504E-01 0.19089978E+04</pdfrwt>
<totfact> 0.15282485E+01</totfact>
</mgrwt>
</event>
<event>
12    6  0.1569942E-007  0.1150424E+04  0.7818608E-02  0.9157392E-01
         -1   -1    0    0    0  501 -0.00000000000E+00  0.00000000000E+00  0.28576693119E+03  0.28576693119E+03  0.00000000000E+00 0.  1.
          2   -1    0    0  501    0  0.00000000000E+00 -0.00000000000E+00 -0.11578285059E+04  0.11578285059E+04  0.00000000000E+00 0. -1.
         24    2    1    2    0    0  0.16703560191E+02 -0.13840202145E+03 -0.32582561159E+03  0.36311119734E+03  0.79077708618E+02 0.  0.
        254    2    1    2    0    0 -0.16703560191E+02  0.13840202145E+03 -0.54623596317E+03  0.10804842398E+04  0.92175828530E+03 0.  0.
         23    2    4    4    0    0 -0.37292906658E+03  0.18825775270E+03 -0.56552421370E+03  0.70890064051E+03  0.90583727453E+02 0.  0.
         23    2    4    4    0    0  0.35622550639E+03 -0.49855731256E+02  0.19288250527E+02  0.37158359929E+03  0.91214742858E+02 0.  0.
          2    1    3    3  502    0 -0.22538204344E+02 -0.10360370959E+03 -0.24231864943E+03  0.26449957875E+03  0.00000000000E+00 0. -1.
         -1    1    3    3    0  502  0.39241764534E+02 -0.34798311862E+02 -0.83506962157E+02  0.98611618590E+02  0.00000000000E+00 0.  1.
         11    1    5    5    0    0 -0.98432840970E+02  0.66082512716E+02 -0.22825659784E+03  0.25721002533E+03  0.00000000000E+00 0. -1.
        -11    1    5    5    0    0 -0.27449622561E+03  0.12217523999E+03 -0.33726761586E+03  0.45169061518E+03  0.00000000000E+00 0.  1.
          4    1    6    6  503    0  0.18084028074E+01 -0.13758506671E+02 -0.43689944087E+01  0.14548365498E+02  0.00000000000E+00 0. -1.
         -4    1    6    6    0  503  0.35441710358E+03 -0.36097224586E+02  0.23657244936E+02  0.35703523379E+03  0.00000000000E+00 0.  1.
<mgrwt>
<rscale>  0 0.11504244E+04</rscale>
<asrwt>0</asrwt>
<pdfrwt beam="1">  1        2 0.17812746E+00 0.11504244E+04</pdfrwt>
<pdfrwt beam="2">  1       -1 0.43964143E-01 0.11504244E+04</pdfrwt>
<totfact> 0.11584797E+02</totfact>
</mgrwt>
</event>
<event>
12    6  0.1569942E-007  0.3657417E+04  0.7818608E-02  0.8077465E-01
          2   -1    0    0  501    0  0.00000000000E+00  0.00000000000E+00  0.12864283606E+04  0.12864283606E+04  0.00000000000E+00 0. -1.
         -1   -1    0    0    0  501 -0.00000000000E+00 -0.00000000000E+00 -0.25995811435E+04  0.25995811435E+04  0.00000000000E+00 0.  1.
         24    2    1    2    0    0 -0.10746312213E+04  0.12387220882E+04 -0.74424276335E+02  0.16450043197E+04  0.10599794874E+03 0.  0.
        254    2    1    2    0    0  0.10746312213E+04 -0.12387220882E+04 -0.12387285065E+04  0.22410051844E+04  0.89352741994E+03 0.  0.
         23    2    4    4    0    0  0.10620468435E+03  0.11766341240E+03 -0.41360317448E+02  0.18678107552E+03  0.89735058458E+02 0.  0.
         23    2    4    4    0    0  0.96842653699E+03 -0.13563855006E+04 -0.11973681890E+04  0.20542241089E+04  0.92274187656E+02 0.  0.
          2    1    3    3  502    0 -0.80125674961E+03  0.93428830642E+03 -0.10372986123E+02  0.12308593003E+04  0.00000000000E+00 0. -1.
         -1    1    3    3    0  502 -0.27337447172E+03  0.30443378179E+03 -0.64051290212E+02  0.41414501936E+03  0.00000000000E+00 0.  1.
         11    1    5    5    0    0  0.41780040110E+02 -0.50602399674E+01  0.17418941926E+00  0.42085723494E+02  0.00000000000E+00 0. -1.
        -11    1    5    5    0    0  0.64424644236E+02  0.12272365237E+03 -0.41534506867E+02  0.14469535202E+03  0.00000000000E+00 0.  1.
          3    1    6    6  503    0  0.14303029840E+03 -0.16799562488E+03 -0.12850567398E+03  0.25533097048E+03  0.00000000000E+00 0. -1.
         -3    1    6    6    0  503  0.82539623858E+03 -0.11883898757E+04 -0.10688625151E+04  0.17988931384E+04  0.00000000000E+00 0.  1.
<mgrwt>
<rscale>  0 0.36574171E+04</rscale>
<asrwt>0</asrwt>
<pdfrwt beam="1">  1        2 0.19791206E+00 0.36574171E+04</pdfrwt>
<pdfrwt beam="2">  1       -1 0.39993556E+00 0.36574171E+04</pdfrwt>
<totfact> 0.11131612E-01</totfact>
</mgrwt>
</event>
<event>
12    6  0.1569942E-007  0.2506057E+04  0.7818608E-02  0.8400831E-01
          2   -1    0    0  501    0  0.00000000000E+00  0.00000000000E+00  0.25519843640E+04  0.25519843640E+04  0.00000000000E+00 0. -1.
         -1   -1    0    0    0  501 -0.00000000000E+00 -0.00000000000E+00 -0.61523892503E+03  0.61523892503E+03  0.00000000000E+00 0.  1.
         24    2    1    2    0    0  0.33650557679E+03 -0.48720019972E+03  0.19834577754E+04  0.20714931668E+04  0.79869616442E+02 0.  0.
        254    2    1    2    0    0 -0.33650557679E+03  0.48720019972E+03 -0.46712336465E+02  0.10957301222E+04  0.92078359044E+03 0.  0.
         23    2    4    4    0    0 -0.15146879256E+02  0.31233635718E+03  0.39652409131E+03  0.51333449933E+03  0.92182022369E+02 0.  0.
         23    2    4    4    0    0 -0.32135869753E+03  0.17486384254E+03 -0.44323642778E+03  0.58239562283E+03  0.94219714925E+02 0.  0.
          2    1    3    3  502    0  0.32149725695E+03 -0.46518051839E+03  0.19378921169E+04  0.20187073234E+04  0.00000000000E+00 0. -1.
         -1    1    3    3    0  502  0.15008319835E+02 -0.22019681328E+02  0.45565658547E+02  0.52785843452E+02  0.00000000000E+00 0.  1.
         11    1    5    5    0    0 -0.14439708696E+02  0.12796630114E+03  0.95459615645E+02  0.16030102194E+03  0.00000000000E+00 0. -1.
        -11    1    5    5    0    0 -0.70717056027E+00  0.18437005604E+03  0.30106447567E+03  0.35303347740E+03  0.00000000000E+00 0.  1.
          3    1    6    6  503    0 -0.38909615531E+02  0.46299383132E+02 -0.35964279222E+02  0.70363487969E+02  0.00000000000E+00 0. -1.
         -3    1    6    6    0  503 -0.28244908200E+03  0.12856445941E+03 -0.40727214856E+03  0.51203213487E+03  0.00000000000E+00 0.  1.
<mgrwt>
<rscale>  0 0.25060568E+04</rscale>
<asrwt>0</asrwt>
<pdfrwt beam="1">  1        2 0.39261297E+00 0.25060568E+04</pdfrwt>
<pdfrwt beam="2">  1       -1 0.94652144E-01 0.25060568E+04</pdfrwt>
<totfact> 0.35533540E+00</totfact>
</mgrwt>
</event>
<event>
12    6  0.1569942E-007  0.1291671E+04  0.7818608E-02  0.9036196E-01
         -1   -1    0    0    0  501 -0.00000000000E+00  0.00000000000E+00  0.31533100657E+03  0.31533100657E+03  0.00000000000E+00 0.  1.
          2   -1    0    0  501    0  0.00000000000E+00 -0.00000000000E+00 -0.13227486363E+04  0.13227486363E+04  0.00000000000E+00 0. -1.
         24    2    1    2    0    0 -0.17720194064E+03  0.71220641372E+02 -0.58081491324E+03  0.61622216608E+03  0.76882293144E+02 0.  0.
        254    2    1    2    0    0  0.17720194064E+03 -0.71220641372E+02 -0.42660271654E+03  0.10218574768E+04  0.90869682386E+03 0.  0.
         23    2    4    4    0    0 -0.34526896613E+03  0.72025707005E+02 -0.26421146243E+03  0.44946753258E+03  0.88402514243E+02 0.  0.
         23    2    4    4    0    0  0.52247090677E+03 -0.14324634838E+03 -0.16239125411E+03  0.57238994426E+03  0.88113359531E+02 0.  0.
          2    1    3    3  502    0 -0.58560927792E+02  0.40437289571E+02 -0.32310140859E+03  0.33084600177E+03  0.00000000000E+00 0. -1.
         -1    1    3    3    0  502 -0.11864101285E+03  0.30783351801E+02 -0.25771350465E+03  0.28537616431E+03  0.00000000000E+00 0.  1.
         11    1    5    5    0    0 -0.91204547519E+02  0.10357375719E+02 -0.11938189835E+03  0.15059077785E+03  0.00000000000E+00 0.  1.
        -11    1    5    5    0    0 -0.25406441861E+03  0.61668331286E+02 -0.14482956408E+03  0.29887675473E+03  0.00000000000E+00 0. -1.
          2    1    6    6  503    0  0.43623135817E+03 -0.12872656609E+03 -0.16774006725E+03  0.48477320143E+03  0.00000000000E+00 0. -1.
         -2    1    6    6    0  503  0.86239548607E+02 -0.14519782287E+02  0.53488131381E+01  0.87616742827E+02  0.00000000000E+00 0.  1.
<mgrwt>
<rscale>  0 0.12916713E+04</rscale>
<asrwt>0</asrwt>
<pdfrwt beam="1">  1        2 0.20349980E+00 0.12916713E+04</pdfrwt>
<pdfrwt beam="2">  1       -1 0.48512461E-01 0.12916713E+04</pdfrwt>
<totfact> 0.76176283E+01</totfact>
</mgrwt>
</event>
<event>
12    6  0.2297420E-007  0.2359676E+04  0.7818608E-02  0.8454756E-01
          2   -1    0    0  501    0  0.00000000000E+00  0.00000000000E+00  0.26508709192E+04  0.26508709192E+04  0.00000000000E+00 0. -1.
         -1   -1    0    0    0  501 -0.00000000000E+00 -0.00000000000E+00 -0.52511727734E+03  0.52511727734E+03  0.00000000000E+00 0.  1.
         24    2    1    2    0    0  0.46532284636E+03  0.58766626039E+03  0.18162923082E+04  0.19666665129E+04  0.83560989693E+02 0.  0.
        254    2    1    2    0    0 -0.46532284636E+03 -0.58766626039E+03  0.30946133364E+03  0.12093216837E+04  0.89711517245E+03 0.  0.
         23    2    4    4    0    0 -0.13961371168E+01 -0.11829823953E+02  0.44286484040E+03  0.45228433002E+03  0.91049186632E+02 0.  0.
         23    2    4    4    0    0 -0.46392670925E+03 -0.57583643644E+03 -0.13340350676E+03  0.75703735366E+03  0.92160002911E+02 0.  0.
          4    1    3    3  502    0  0.44304363479E+03  0.54806198480E+03  0.16483312980E+04  0.17926671943E+04  0.00000000000E+00 0. -1.
         -3    1    3    3    0  502  0.22279211576E+02  0.39604275588E+02  0.16796101020E+03  0.17399931857E+03  0.00000000000E+00 0.  1.
         11    1    5    5    0    0  0.12876773755E+02  0.29720443953E+02  0.73557980989E+02  0.80373457424E+02  0.00000000000E+00 0. -1.
        -11    1    5    5    0    0 -0.14272910872E+02 -0.41550267906E+02  0.36930685941E+03  0.37191087260E+03  0.00000000000E+00 0.  1.
          2    1    6    6  503    0 -0.40769835375E+03 -0.51440044750E+03 -0.14705098006E+03  0.67264385731E+03  0.00000000000E+00 0.  1.
         -2    1    6    6    0  503 -0.56228355495E+02 -0.61435988936E+02  0.13647473301E+02  0.84393496347E+02  0.00000000000E+00 0. -1.
<mgrwt>
<rscale>  0 0.23596764E+04</rscale>
<asrwt>0</asrwt>
<pdfrwt beam="1">  1        2 0.40782629E+00 0.23596764E+04</pdfrwt>
<pdfrwt beam="2">  1       -1 0.80787275E-01 0.23596764E+04</pdfrwt>
<totfact> 0.44530392E+00</totfact>
</mgrwt>
</event>
<event>
12    6  0.1569942E-007  0.1815104E+04  0.7818608E-02  0.8698308E-01
          2   -1    0    0  501    0  0.00000000000E+00  0.00000000000E+00  0.12890409633E+04  0.12890409633E+04  0.00000000000E+00 0. -1.
         -1   -1    0    0    0  501 -0.00000000000E+00 -0.00000000000E+00 -0.63896403869E+03  0.63896403869E+03  0.00000000000E+00 0.  1.
         24    2    1    2    0    0  0.17686867425E+03  0.35715584243E+03 -0.34156964660E+03  0.53084603903E+03  0.79277171733E+02 0.  0.
        254    2    1    2    0    0 -0.17686867425E+03 -0.35715584243E+03  0.99164657119E+03  0.13971589629E+04  0.89991523039E+03 0.  0.
         23    2    4    4    0    0  0.42216115898E+02 -0.12449470813E+03 -0.14312760743E+03  0.21418249959E+03  0.90041647728E+02 0.  0.
         23    2    4    4    0    0 -0.21908479015E+03 -0.23266113429E+03  0.11347741786E+04  0.11829764634E+04  0.97936345296E+02 0.  0.
          4    1    3    3  502    0  0.10064813677E+03  0.15216976022E+03 -0.11351660192E+03  0.21487601604E+03  0.00000000000E+00 0. -1.
         -3    1    3    3    0  502  0.76220537489E+02  0.20498608221E+03 -0.22805304469E+03  0.31597002298E+03  0.00000000000E+00 0.  1.
         11    1    5    5    0    0  0.20871985449E+02 -0.10713355540E+03 -0.15029903203E+03  0.18574993270E+03  0.00000000000E+00 0. -1.
        -11    1    5    5    0    0  0.21344130450E+02 -0.17361152737E+02  0.71714246002E+01  0.28432566887E+02  0.00000000000E+00 0.  1.
          4    1    6    6  503    0 -0.15897436425E+03 -0.10059873163E+03  0.68594404898E+03  0.71127504639E+03  0.00000000000E+00 0. -1.
         -4    1    6    6    0  503 -0.60110425905E+02 -0.13206240267E+03  0.44883012963E+03  0.47170141697E+03  0.00000000000E+00 0.  1.
<mgrwt>
<rscale>  0 0.18151042E+04</rscale>
<asrwt>0</asrwt>
<pdfrwt beam="1">  1        2 0.19831399E+00 0.18151042E+04</pdfrwt>
<pdfrwt beam="2">  1       -1 0.98302160E-01 0.18151042E+04</pdfrwt>
<totfact> 0.17875426E+01</totfact>
</mgrwt>
</event>
<event>
12    6  0.1569942E-007  0.3005916E+04  0.7818608E-02  0.8242044E-01
         -1   -1    0    0    0  501 -0.00000000000E+00  0.00000000000E+00  0.13234349790E+04  0.13234349790E+04  0.00000000000E+00 0.  1.
          2   -1    0    0  501    0  0.00000000000E+00 -0.00000000000E+00 -0.17068329944E+04  0.17068329944E+04  0.00000000000E+00 0. -1.
         24    2    1    2    0    0 -0.10176346396E+04  0.42322258764E+01  0.74760460179E+03  0.12655373547E+04  0.84106979469E+02 0.  0.
        254    2    1    2    0    0  0.10176346396E+04 -0.42322258764E+01 -0.11310026172E+04  0.17647306187E+04  0.89415270795E+03 0.  0.
         23    2    4    4    0    0  0.95041406008E+03 -0.63753267606E+02 -0.12601048689E+04  0.15822225425E+04  0.90623002271E+02 0.  0.
         23    2    4    4    0    0  0.67220579500E+02  0.59521041730E+02  0.12910225171E+03  0.18250807625E+03  0.92630695676E+02 0.  0.
          2    1    3    3  502    0 -0.28071447987E+03 -0.25422843688E+02  0.24026305963E+03  0.37036911050E+03  0.00000000000E+00 0. -1.
         -1    1    3    3    0  502 -0.73692015971E+03  0.29655069564E+02  0.50734154216E+03  0.89516824415E+03  0.00000000000E+00 0.  1.
         11    1    5    5    0    0  0.88620389567E+03 -0.56983175883E+02 -0.12078032864E+04  0.14991308167E+04  0.00000000000E+00 0. -1.
        -11    1    5    5    0    0  0.64210164413E+02 -0.67700917231E+01 -0.52301582557E+02  0.83091725784E+02  0.00000000000E+00 0.  1.
          4    1    6    6  503    0  0.29248390118E+02  0.53090783276E+01 -0.75502832219E+01  0.30670204008E+02  0.00000000000E+00 0. -1.
         -4    1    6    6    0  503  0.37972189382E+02  0.54211963402E+02  0.13665253493E+03  0.15183787224E+03  0.00000000000E+00 0.  1.
<mgrwt>
<rscale>  0 0.30059158E+04</rscale>
<asrwt>0</asrwt>
<pdfrwt beam="1">  1        2 0.26258969E+00 0.30059158E+04</pdfrwt>
<pdfrwt beam="2">  1       -1 0.20360538E+00 0.30059158E+04</pdfrwt>
<totfact> 0.13457526E+00</totfact>
</mgrwt>
</event>
<event>
12    6  0.1569942E-007  0.1055117E+04  0.7818608E-02  0.9250077E-01
         -1   -1    0    0    0  501 -0.00000000000E+00  0.00000000000E+00  0.12043942740E+03  0.12043942740E+03  0.00000000000E+00 0.  1.
          2   -1    0    0  501    0  0.00000000000E+00 -0.00000000000E+00 -0.23108538911E+04  0.23108538911E+04  0.00000000000E+00 0. -1.
         24    2    1    2    0    0 -0.46472586938E+02  0.34506036137E+02 -0.53617558263E+03  0.54512576811E+03  0.79545457315E+02 0.  0.
        254    2    1    2    0    0  0.46472586938E+02 -0.34506036137E+02 -0.16542388810E+04  0.18861675504E+04  0.90430712960E+03 0.  0.
         23    2    4    4    0    0  0.41267247847E+03 -0.18632620008E+03 -0.11454601140E+04  0.12350475388E+04  0.90815874878E+02 0.  0.
         23    2    4    4    0    0 -0.36619989153E+03  0.15182016395E+03 -0.50877876708E+03  0.65112001156E+03  0.89161162391E+02 0.  0.
          2    1    3    3  502    0 -0.45228991179E+02  0.58504938670E+02 -0.42461898958E+03  0.43101018062E+03  0.00000000000E+00 0. -1.
         -1    1    3    3    0  502 -0.12435957593E+01 -0.23998902533E+02 -0.11155659306E+03  0.11411558749E+03  0.00000000000E+00 0.  1.
         11    1    5    5    0    0  0.24762294754E+03 -0.75877577327E+02 -0.56435266399E+03  0.62094159165E+03  0.00000000000E+00 0.  1.
        -11    1    5    5    0    0  0.16504953093E+03 -0.11044862276E+03 -0.58110744996E+03  0.61410594716E+03  0.00000000000E+00 0. -1.
          2    1    6    6  503    0 -0.16639902821E+03  0.93419017491E+02 -0.18220418376E+03  0.26384486730E+03  0.00000000000E+00 0. -1.
         -2    1    6    6    0  503 -0.19980086332E+03  0.58401146457E+02 -0.32657458332E+03  0.38727514426E+03  0.00000000000E+00 0.  1.
<mgrwt>
<rscale>  0 0.10551169E+04</rscale>
<asrwt>0</asrwt>
<pdfrwt beam="1">  1        2 0.35551596E+00 0.10551169E+04</pdfrwt>
<pdfrwt beam="2">  1       -1 0.18529144E-01 0.10551169E+04</pdfrwt>
<totfact> 0.11859225E+02</totfact>
</mgrwt>
</event>
<event>
12    6  0.1569942E-007  0.1044383E+04  0.7818608E-02  0.9261162E-01
          2   -1    0    0  501    0  0.00000000000E+00  0.00000000000E+00  0.29257444596E+04  0.29257444596E+04  0.00000000000E+00 0. -1.
         -1   -1    0    0    0  501 -0.00000000000E+00 -0.00000000000E+00 -0.93201568307E+02  0.93201568307E+02  0.00000000000E+00 0.  1.
         24    2    1    2    0    0  0.45007088539E+01  0.77886172401E+02  0.64034293736E+03  0.65024932980E+03  0.81844982999E+02 0.  0.
        254    2    1    2    0    0 -0.45007088539E+01 -0.77886172401E+02  0.21921999539E+04  0.23686966981E+04  0.89381032518E+03 0.  0.
         23    2    4    4    0    0 -0.20258113737E+03  0.26965218485E+03  0.16602657569E+04  0.16970761464E+04  0.99164737107E+02 0.  0.
         23    2    4    4    0    0  0.19808042852E+03 -0.34753835725E+03  0.53193419705E+03  0.67162055175E+03  0.90007830826E+02 0.  0.
          2    1    3    3  502    0 -0.15919258947E+01  0.66735081340E+02  0.22454982251E+03  0.23426209275E+03  0.00000000000E+00 0. -1.
         -1    1    3    3    0  502  0.60926347486E+01  0.11151091060E+02  0.41579311485E+03  0.41598723705E+03  0.00000000000E+00 0.  1.
         11    1    5    5    0    0 -0.19387539756E+03  0.25160257065E+03  0.13794894669E+04  0.14155856429E+04  0.00000000000E+00 0. -1.
        -11    1    5    5    0    0 -0.87057398116E+01  0.18049614198E+02  0.28077629004E+03  0.28149050344E+03  0.00000000000E+00 0.  1.
          4    1    6    6  503    0  0.99359099145E+02 -0.23625965445E+03  0.38515742594E+03  0.46264143530E+03  0.00000000000E+00 0. -1.
         -4    1    6    6    0  503  0.98721329371E+02 -0.11127870280E+03  0.14677677111E+03  0.20897911644E+03  0.00000000000E+00 0.  1.
<mgrwt>
<rscale>  0 0.10443830E+04</rscale>
<asrwt>0</asrwt>
<pdfrwt beam="1">  1        2 0.45011446E+00 0.10443830E+04</pdfrwt>
<pdfrwt beam="2">  1       -1 0.14338705E-01 0.10443830E+04</pdfrwt>
<totfact> 0.79362341E+01</totfact>
</mgrwt>
</event>
<event>
12    6  0.1569942E-007  0.1725156E+04  0.7818608E-02  0.8747146E-01
          2   -1    0    0  501    0  0.00000000000E+00  0.00000000000E+00  0.33262754245E+04  0.33262754245E+04  0.00000000000E+00 0. -1.
         -1   -1    0    0    0  501 -0.00000000000E+00 -0.00000000000E+00 -0.22368592305E+03  0.22368592305E+03  0.00000000000E+00 0.  1.
         24    2    1    2    0    0  0.55940995053E+02 -0.56580681714E+03  0.61467561895E+03  0.84116375207E+03  0.80396467733E+02 0.  0.
        254    2    1    2    0    0 -0.55940995053E+02  0.56580681714E+03  0.24879138825E+04  0.27087975955E+04  0.90807608562E+03 0.  0.
         23    2    4    4    0    0 -0.27984188649E+03  0.61435677829E+03  0.10677770594E+04  0.12673747665E+04  0.10171144339E+03 0.  0.
         23    2    4    4    0    0  0.22390089144E+03 -0.48549961146E+02  0.14201368231E+04  0.14414228290E+04  0.91774003125E+02 0.  0.
          4    1    3    3  502    0 -0.19647724472E+02 -0.14994532526E+03  0.14977886334E+03  0.21284581637E+03  0.00000000000E+00 0. -1.
         -3    1    3    3    0  502  0.75588719525E+02 -0.41586149189E+03  0.46489675560E+03  0.62831793570E+03  0.00000000000E+00 0.  1.
         11    1    5    5    0    0 -0.81741819685E+02  0.12400968732E+03  0.17315737872E+03  0.22813067623E+03  0.00000000000E+00 0.  1.
        -11    1    5    5    0    0 -0.19810006681E+03  0.49034709097E+03  0.89461968066E+03  0.10392440903E+04  0.00000000000E+00 0. -1.
          2    1    6    6  503    0  0.78432441160E+02 -0.44103834419E+02  0.34764405221E+03  0.35910051946E+03  0.00000000000E+00 0. -1.
         -2    1    6    6    0  503  0.14546845028E+03 -0.44461267268E+01  0.10724927709E+04  0.10823223095E+04  0.00000000000E+00 0.  1.
<mgrwt>
<rscale>  0 0.17251562E+04</rscale>
<asrwt>0</asrwt>
<pdfrwt beam="1">  1        2 0.51173464E+00 0.17251562E+04</pdfrwt>
<pdfrwt beam="2">  1       -1 0.34413221E-01 0.17251562E+04</pdfrwt>
<totfact> 0.93208582E+00</totfact>
</mgrwt>
</event>
<event>
12    6  0.1569942E-007  0.3639197E+04  0.7818608E-02  0.8081572E-01
         -1   -1    0    0    0  501 -0.00000000000E+00  0.00000000000E+00  0.14797343785E+04  0.14797343785E+04  0.00000000000E+00 0.  1.
          2   -1    0    0  501    0  0.00000000000E+00 -0.00000000000E+00 -0.22375217210E+04  0.22375217210E+04  0.00000000000E+00 0. -1.
         24    2    1    2    0    0 -0.70408266500E+03  0.41108919033E+03 -0.18754545609E+04  0.20466817841E+04  0.82763481541E+02 0.  0.
        254    2    1    2    0    0  0.70408266500E+03 -0.41108919033E+03  0.11176672184E+04  0.16705743153E+04  0.93643569477E+03 0.  0.
         23    2    4    4    0    0  0.53724314931E+03 -0.60644093554E+03  0.11350884374E+04  0.13975450836E+04  0.91135559965E+02 0.  0.
         23    2    4    4    0    0  0.16683951569E+03  0.19535174521E+03 -0.17421219024E+02  0.27302923169E+03  0.90795011616E+02 0.  0.
          4    1    3    3  502    0 -0.63907101178E+03  0.35003750743E+03 -0.16272778262E+04  0.17829669482E+04  0.00000000000E+00 0. -1.
         -3    1    3    3    0  502 -0.65011653218E+02  0.61051682904E+02 -0.24817673476E+03  0.26371483598E+03  0.00000000000E+00 0.  1.
         11    1    5    5    0    0  0.73646531022E+02 -0.42205759279E+02  0.12655150246E+03  0.15238248070E+03  0.00000000000E+00 0.  1.
        -11    1    5    5    0    0  0.46359661829E+03 -0.56423517627E+03  0.10085369349E+04  0.12451626029E+04  0.00000000000E+00 0. -1.
          1    1    6    6  503    0  0.12680396111E+03  0.90095023373E+02 -0.33937515230E+02  0.15921090644E+03  0.00000000000E+00 0. -1.
         -1    1    6    6    0  503  0.40035554576E+02  0.10525672184E+03  0.16516296206E+02  0.11381832525E+03  0.00000000000E+00 0.  1.
<mgrwt>
<rscale>  0 0.36391965E+04</rscale>
<asrwt>0</asrwt>
<pdfrwt beam="1">  1        2 0.34423411E+00 0.36391965E+04</pdfrwt>
<pdfrwt beam="2">  1       -1 0.22765144E+00 0.36391965E+04</pdfrwt>
<totfact> 0.44452778E-01</totfact>
</mgrwt>
</event>
<event>
12    6  0.1569942E-007  0.1802484E+04  0.7818608E-02  0.8704980E-01
          2   -1    0    0  501    0  0.00000000000E+00  0.00000000000E+00  0.14307269575E+04  0.14307269575E+04  0.00000000000E+00 0. -1.
         -1   -1    0    0    0  501 -0.00000000000E+00 -0.00000000000E+00 -0.56770942515E+03  0.56770942515E+03  0.00000000000E+00 0.  1.
         24    2    1    2    0    0  0.53309960588E+03  0.21675844806E+03  0.70895296048E+03  0.91664370649E+03  0.80261883142E+02 0.  0.
        254    2    1    2    0    0 -0.53309960588E+03 -0.21675844806E+03  0.15406457188E+03  0.10817926762E+04  0.90297291616E+03 0.  0.
         23    2    4    4    0    0  0.18457581284E+03 -0.26768539150E+03 -0.90865577306E+01  0.33846715828E+03  0.93561488843E+02 0.  0.
         23    2    4    4    0    0 -0.71767541872E+03  0.50926943445E+02  0.16315112961E+03  0.74332551789E+03  0.90900903508E+02 0.  0.
          4    1    3    3  502    0  0.35567570945E+03  0.15794243888E+03  0.53286129511E+03  0.65984254494E+03  0.00000000000E+00 0. -1.
         -3    1    3    3    0  502  0.17742389643E+03  0.58816009172E+02  0.17609166538E+03  0.25680116155E+03  0.00000000000E+00 0.  1.
         11    1    5    5    0    0 -0.10303932580E+02 -0.16764170768E+02 -0.65760213822E+01  0.20747349358E+02  0.00000000000E+00 0.  1.
        -11    1    5    5    0    0  0.19487974542E+03 -0.25092122073E+03 -0.25105363484E+01  0.31771980892E+03  0.00000000000E+00 0. -1.
          3    1    6    6  503    0 -0.38885254997E+03  0.37704360009E+02  0.43199230420E+02  0.39305737226E+03  0.00000000000E+00 0. -1.
         -3    1    6    6    0  503 -0.32882286875E+03  0.13222583435E+02  0.11995189919E+03  0.35026814563E+03  0.00000000000E+00 0.  1.
<mgrwt>
<rscale>  0 0.18024840E+04</rscale>
<asrwt>0</asrwt>
<pdfrwt beam="1">  1        2 0.22011184E+00 0.18024840E+04</pdfrwt>
<pdfrwt beam="2">  1       -1 0.87339913E-01 0.18024840E+04</pdfrwt>
<totfact> 0.19289636E+01</totfact>
</mgrwt>
</event>
<event>
12    6  0.1569942E-007  0.2822776E+04  0.7818608E-02  0.8296232E-01
          2   -1    0    0  501    0  0.00000000000E+00  0.00000000000E+00  0.16540307043E+04  0.16540307043E+04  0.00000000000E+00 0. -1.
         -1   -1    0    0    0  501 -0.00000000000E+00 -0.00000000000E+00 -0.12043402610E+04  0.12043402610E+04  0.00000000000E+00 0.  1.
         24    2    1    2    0    0 -0.12048987608E+04 -0.23606028357E+03 -0.11353172794E+03  0.12355498453E+04  0.78666929727E+02 0.  0.
        254    2    1    2    0    0  0.12048987608E+04  0.23606028357E+03  0.56322217126E+03  0.16228211200E+04  0.89934625820E+03 0.  0.
         23    2    4    4    0    0  0.42268893750E+03 -0.21654909788E+03 -0.10540760231E+03  0.49505075987E+03  0.91679019127E+02 0.  0.
         23    2    4    4    0    0  0.78220982329E+03  0.45260938144E+03  0.66862977357E+03  0.11277703601E+04  0.89959720399E+02 0.  0.
          2    1    3    3  502    0 -0.10431035945E+04 -0.20776531848E+03 -0.12492165969E+03  0.10709047378E+04  0.00000000000E+00 0. -1.
         -1    1    3    3    0  502 -0.16179516630E+03 -0.28294965084E+02  0.11389931759E+02  0.16464510753E+03  0.00000000000E+00 0.  1.
         11    1    5    5    0    0  0.73353614928E+01 -0.12816342578E+02 -0.19585380218E+02  0.24528621722E+02  0.00000000000E+00 0.  1.
        -11    1    5    5    0    0  0.41535357600E+03 -0.20373275530E+03 -0.85822222093E+02  0.47052213815E+03  0.00000000000E+00 0. -1.
          4    1    6    6  503    0  0.85976299351E+02  0.75144844629E+02  0.60316644155E+02  0.12913856622E+03  0.00000000000E+00 0.  1.
         -4    1    6    6    0  503  0.69623352394E+03  0.37746453681E+03  0.60831312942E+03  0.99863179392E+03  0.00000000000E+00 0. -1.
<mgrwt>
<rscale>  0 0.28227758E+04</rscale>
<asrwt>0</asrwt>
<pdfrwt beam="1">  1        2 0.25446626E+00 0.28227758E+04</pdfrwt>
<pdfrwt beam="2">  1       -1 0.18528312E+00 0.28227758E+04</pdfrwt>
<totfact> 0.19624659E+00</totfact>
</mgrwt>
</event>
<event>
12    6  0.1569942E-007  0.1592137E+04  0.7818608E-02  0.8825393E-01
         -1   -1    0    0    0  501 -0.00000000000E+00  0.00000000000E+00  0.35010831464E+03  0.35010831464E+03  0.00000000000E+00 0.  1.
          2   -1    0    0  501    0  0.00000000000E+00 -0.00000000000E+00 -0.18100837521E+04  0.18100837521E+04  0.00000000000E+00 0. -1.
         24    2    1    2    0    0  0.24062836589E+03 -0.20676566606E+03 -0.10726193591E+04  0.11214258939E+04  0.80185378352E+02 0.  0.
        254    2    1    2    0    0 -0.24062836589E+03  0.20676566606E+03 -0.38735607838E+03  0.10387661728E+04  0.91012986944E+03 0.  0.
         23    2    4    4    0    0  0.33750734054E+03  0.56216457550E+02 -0.19574233335E+03  0.40402668714E+03  0.88605913125E+02 0.  0.
         23    2    4    4    0    0 -0.57813570644E+03  0.15054920851E+03 -0.19161374503E+03  0.63473948570E+03  0.96293448253E+02 0.  0.
          2    1    3    3  502    0  0.19870127401E+03 -0.16638058870E+03 -0.96354181044E+03  0.99778630831E+03  0.00000000000E+00 0. -1.
         -1    1    3    3    0  502  0.41927091887E+02 -0.40385077361E+02 -0.10907754866E+03  0.12363958561E+03  0.00000000000E+00 0.  1.
         11    1    5    5    0    0  0.18700645496E+02  0.30340363861E+00  0.92855442682E+01  0.20881272185E+02  0.00000000000E+00 0. -1.
        -11    1    5    5    0    0  0.31880669505E+03  0.55913053911E+02 -0.20502787761E+03  0.38314541496E+03  0.00000000000E+00 0.  1.
          2    1    6    6  503    0 -0.57342509782E+03  0.15453152875E+03 -0.17830663570E+03  0.62007224782E+03  0.00000000000E+00 0.  1.
         -2    1    6    6    0  503 -0.47106086195E+01 -0.39823202384E+01 -0.13307109334E+02  0.14667237875E+02  0.00000000000E+00 0. -1.
<mgrwt>
<rscale>  0 0.15921374E+04</rscale>
<asrwt>0</asrwt>
<pdfrwt beam="1">  1        2 0.27847442E+00 0.15921374E+04</pdfrwt>
<pdfrwt beam="2">  1       -1 0.53862817E-01 0.15921374E+04</pdfrwt>
<totfact> 0.32393708E+01</totfact>
</mgrwt>
</event>
<event>
12    6  0.1569942E-007  0.2164095E+04  0.7818608E-02  0.8533523E-01
          2   -1    0    0  501    0  0.00000000000E+00  0.00000000000E+00  0.92911415299E+03  0.92911415299E+03  0.00000000000E+00 0. -1.
         -1   -1    0    0    0  501 -0.00000000000E+00 -0.00000000000E+00 -0.12601534209E+04  0.12601534209E+04  0.00000000000E+00 0.  1.
         24    2    1    2    0    0  0.70239067186E+03  0.10315109579E+03  0.41554024658E+03  0.82635750104E+03  0.78741466293E+02 0.  0.
        254    2    1    2    0    0 -0.70239067186E+03 -0.10315109579E+03 -0.74657951446E+03  0.13629100728E+04  0.89227243077E+03 0.  0.
         23    2    4    4    0    0 -0.53908730450E+03 -0.47049916326E+03 -0.40506306965E+03  0.82761533781E+03  0.94268088288E+02 0.  0.
         23    2    4    4    0    0 -0.16330336736E+03  0.36734806747E+03 -0.34151644481E+03  0.53529473502E+03  0.91073480199E+02 0.  0.
          4    1    3    3  502    0  0.16004123571E+03  0.71337814494E+01  0.12786790538E+03  0.20497387441E+03  0.00000000000E+00 0. -1.
         -3    1    3    3    0  502  0.54234943616E+03  0.96017314341E+02  0.28767234120E+03  0.62138362663E+03  0.00000000000E+00 0.  1.
         11    1    5    5    0    0 -0.35733236557E+03 -0.26854539428E+03 -0.21482212078E+03  0.49593506818E+03  0.00000000000E+00 0.  1.
        -11    1    5    5    0    0 -0.18175493893E+03 -0.20195376898E+03 -0.19024094887E+03  0.33168026963E+03  0.00000000000E+00 0. -1.
          2    1    6    6  503    0 -0.39312527930E+02  0.14096422667E+03 -0.75637584115E+02  0.16473442926E+03  0.00000000000E+00 0. -1.
         -2    1    6    6    0  503 -0.12399083943E+03  0.22638384080E+03 -0.26587886069E+03  0.37056030576E+03  0.00000000000E+00 0.  1.
<mgrwt>
<rscale>  0 0.21640946E+04</rscale>
<asrwt>0</asrwt>
<pdfrwt beam="1">  1        2 0.14294064E+00 0.21640946E+04</pdfrwt>
<pdfrwt beam="2">  1       -1 0.19386976E+00 0.21640946E+04</pdfrwt>
<totfact> 0.48655126E+00</totfact>
</mgrwt>
</event>
<event>
12    6  0.1569942E-007  0.1583812E+04  0.7818608E-02  0.8830555E-01
         -1   -1    0    0    0  501 -0.00000000000E+00  0.00000000000E+00  0.33165217641E+03  0.33165217641E+03  0.00000000000E+00 0.  1.
          2   -1    0    0  501    0  0.00000000000E+00 -0.00000000000E+00 -0.18908813233E+04  0.18908813233E+04  0.00000000000E+00 0. -1.
         24    2    1    2    0    0 -0.44337751333E+03  0.22408688617E+03 -0.28147206769E+03  0.57739073840E+03  0.85761226769E+02 0.  0.
        254    2    1    2    0    0  0.44337751333E+03 -0.22408688617E+03 -0.12777570792E+04  0.16451427613E+04  0.90941354716E+03 0.  0.
         23    2    4    4    0    0  0.59351474293E+03 -0.14675043355E+03 -0.13120237820E+04  0.14508054994E+04  0.98156775358E+02 0.  0.
         23    2    4    4    0    0 -0.15013722960E+03 -0.77336452624E+02  0.34266702786E+02  0.19433726198E+03  0.89836795684E+02 0.  0.
          2    1    3    3  502    0 -0.71614491049E+02  0.73144472380E+02 -0.68082477865E+02  0.12293889930E+03  0.00000000000E+00 0. -1.
         -3    1    3    3    0  502 -0.37176302229E+03  0.15094241379E+03 -0.21338958983E+03  0.45445183911E+03  0.00000000000E+00 0.  1.
         11    1    5    5    0    0  0.15484439340E+02 -0.16660141623E+02 -0.88476001345E+02  0.91352783179E+02  0.00000000000E+00 0.  1.
        -11    1    5    5    0    0  0.57803030359E+03 -0.13009029193E+03 -0.12235477807E+04  0.13594527162E+04  0.00000000000E+00 0. -1.
          3    1    6    6  503    0 -0.16146215331E+03 -0.72086870079E+02  0.24551842176E+02  0.17851984972E+03  0.00000000000E+00 0. -1.
         -3    1    6    6    0  503  0.11324923713E+02 -0.52495825443E+01  0.97148606108E+01  0.15817412262E+02  0.00000000000E+00 0.  1.
<mgrwt>
<rscale>  0 0.15838117E+04</rscale>
<asrwt>0</asrwt>
<pdfrwt beam="1">  1        2 0.29090482E+00 0.15838117E+04</pdfrwt>
<pdfrwt beam="2">  1       -1 0.51023411E-01 0.15838117E+04</pdfrwt>
<totfact> 0.32446773E+01</totfact>
</mgrwt>
</event>
<event>
12    6  0.1569942E-007  0.2006695E+04  0.7818608E-02  0.8603497E-01
          2   -1    0    0  501    0  0.00000000000E+00  0.00000000000E+00  0.11344244507E+04  0.11344244507E+04  0.00000000000E+00 0. -1.
         -1   -1    0    0    0  501 -0.00000000000E+00 -0.00000000000E+00 -0.88741543285E+03  0.88741543285E+03  0.00000000000E+00 0.  1.
         24    2    1    2    0    0  0.49581391610E+03  0.11257291925E+03 -0.52724926555E+03  0.73689130457E+03  0.80702572344E+02 0.  0.
        254    2    1    2    0    0 -0.49581391610E+03 -0.11257291925E+03  0.77425828340E+03  0.12849485790E+04  0.89056884050E+03 0.  0.
         23    2    4    4    0    0  0.16296791705E+03 -0.47863166802E+02 -0.72860822397E+02  0.20603066817E+03  0.91052249089E+02 0.  0.
         23    2    4    4    0    0 -0.65878183315E+03 -0.64709752444E+02  0.84711910580E+03  0.10789179108E+04  0.90951762599E+02 0.  0.
          2    1    3    3  502    0  0.97538624441E+02 -0.55584923254E+01 -0.78075620102E+02  0.12506191486E+03  0.00000000000E+00 0. -1.
         -1    1    3    3    0  502  0.39827529166E+03  0.11813141157E+03 -0.44917364544E+03  0.61182938971E+03  0.00000000000E+00 0.  1.
         11    1    5    5    0    0  0.15105820467E+03 -0.58041038695E+02 -0.88034228592E+02  0.18422097811E+03  0.00000000000E+00 0.  1.
        -11    1    5    5    0    0  0.11909712376E+02  0.10177871894E+02  0.15173406195E+02  0.21809690064E+02  0.00000000000E+00 0. -1.
          4    1    6    6  503    0 -0.91462299338E+02  0.12966368772E+02  0.84021344332E+02  0.12487219555E+03  0.00000000000E+00 0. -1.
         -4    1    6    6    0  503 -0.56731953381E+03 -0.77676121216E+02  0.76309776146E+03  0.95404571526E+03  0.00000000000E+00 0.  1.
<mgrwt>
<rscale>  0 0.20066946E+04</rscale>
<asrwt>0</asrwt>
<pdfrwt beam="1">  1        2 0.17452684E+00 0.20066946E+04</pdfrwt>
<pdfrwt beam="2">  1       -1 0.13652545E+00 0.20066946E+04</pdfrwt>
<totfact> 0.98336776E+00</totfact>
</mgrwt>
</event>
<event>
12    6  0.1569942E-007  0.1272941E+04  0.7818608E-02  0.9051303E-01
         -1   -1    0    0    0  501 -0.00000000000E+00  0.00000000000E+00  0.27862711923E+03  0.27862711923E+03  0.00000000000E+00 0.  1.
          2   -1    0    0  501    0  0.00000000000E+00 -0.00000000000E+00 -0.14538944136E+04  0.14538944136E+04  0.00000000000E+00 0. -1.
         24    2    1    2    0    0 -0.20582331434E+02  0.31036554605E+03 -0.25646881318E+03  0.41095015240E+03  0.79708036480E+02 0.  0.
        254    2    1    2    0    0  0.20582331434E+02 -0.31036554605E+03 -0.91879848117E+03  0.13215713804E+04  0.89755771957E+03 0.  0.
         23    2    4    4    0    0  0.13512933778E+03 -0.58721587673E+03 -0.74727399195E+03  0.96445283357E+03  0.93104378586E+02 0.  0.
         23    2    4    4    0    0 -0.11454700635E+03  0.27685033068E+03 -0.17152448922E+03  0.35711854684E+03  0.91355808979E+02 0.  0.
          4    1    3    3  502    0  0.13932351993E+02  0.17143604815E+03 -0.17873557423E+03  0.24805409598E+03  0.00000000000E+00 0. -1.
         -3    1    3    3    0  502 -0.34514683427E+02  0.13892949790E+03 -0.77733238951E+02  0.16289605642E+03  0.00000000000E+00 0.  1.
         11    1    5    5    0    0  0.23002892061E+02 -0.28536963508E+03 -0.31898056335E+03  0.42861820011E+03  0.00000000000E+00 0.  1.
        -11    1    5    5    0    0  0.11212644572E+03 -0.30184624165E+03 -0.42829342861E+03  0.53583463346E+03  0.00000000000E+00 0. -1.
          3    1    6    6  503    0 -0.11326669874E+03  0.16084732014E+03 -0.98144931450E+02  0.21984911419E+03  0.00000000000E+00 0. -1.
         -3    1    6    6    0  503 -0.12803076051E+01  0.11600301054E+03 -0.73379557767E+02  0.13726943265E+03  0.00000000000E+00 0.  1.
<mgrwt>
<rscale>  0 0.12729406E+04</rscale>
<asrwt>0</asrwt>
<pdfrwt beam="1">  1        2 0.22367606E+00 0.12729406E+04</pdfrwt>
<pdfrwt beam="2">  1       -1 0.42865711E-01 0.12729406E+04</pdfrwt>
<totfact> 0.80848137E+01</totfact>
</mgrwt>
</event>
<event>
12    6  0.1569942E-007  0.2008021E+04  0.7818608E-02  0.8602880E-01
          2   -1    0    0  501    0  0.00000000000E+00  0.00000000000E+00  0.15789716223E+04  0.15789716223E+04  0.00000000000E+00 0. -1.
         -1   -1    0    0    0  501 -0.00000000000E+00 -0.00000000000E+00 -0.63841341411E+03  0.63841341411E+03  0.00000000000E+00 0.  1.
         24    2    1    2    0    0  0.69366817920E+03  0.18579512934E+03  0.79916282619E+03  0.10773796228E+04  0.79939076232E+02 0.  0.
        254    2    1    2    0    0 -0.69366817920E+03 -0.18579512934E+03  0.14139538196E+03  0.11400054136E+04  0.87402764032E+03 0.  0.
         23    2    4    4    0    0 -0.49718136121E+03 -0.52305287892E+03  0.51269892867E+02  0.72905614500E+03  0.90114596899E+02 0.  0.
         23    2    4    4    0    0 -0.19648681800E+03  0.33725774958E+03  0.90125489095E+02  0.41094926859E+03  0.91688812128E+02 0.  0.
          4    1    3    3  502    0  0.16238192120E+03  0.53909842748E+02  0.24124426416E+03  0.29575827033E+03  0.00000000000E+00 0. -1.
         -3    1    3    3    0  502  0.53128625800E+03  0.13188528659E+03  0.55791856203E+03  0.78162135246E+03  0.00000000000E+00 0.  1.
         11    1    5    5    0    0 -0.46168767105E+03 -0.49332156904E+03  0.25673989091E+02  0.67615148436E+03  0.00000000000E+00 0. -1.
        -11    1    5    5    0    0 -0.35493690153E+02 -0.29731309879E+02  0.25595903777E+02  0.52904660645E+02  0.00000000000E+00 0.  1.
          2    1    6    6  503    0 -0.58629947679E+02  0.14258601504E+03  0.76277027832E+02  0.17200705632E+03  0.00000000000E+00 0. -1.
         -2    1    6    6    0  503 -0.13785687032E+03  0.19467173454E+03  0.13848461263E+02  0.23894221226E+03  0.00000000000E+00 0.  1.
<mgrwt>
<rscale>  0 0.20080206E+04</rscale>
<asrwt>0</asrwt>
<pdfrwt beam="1">  1        2 0.24291871E+00 0.20080206E+04</pdfrwt>
<pdfrwt beam="2">  1       -1 0.98217449E-01 0.20080206E+04</pdfrwt>
<totfact> 0.12035518E+01</totfact>
</mgrwt>
</event>
<event>
12    6  0.1569942E-007  0.2436507E+04  0.7818608E-02  0.8425961E-01
          2   -1    0    0  501    0  0.00000000000E+00  0.00000000000E+00  0.14567571704E+04  0.14567571704E+04  0.00000000000E+00 0. -1.
         -1   -1    0    0    0  501 -0.00000000000E+00 -0.00000000000E+00 -0.10187982272E+04  0.10187982272E+04  0.00000000000E+00 0.  1.
         24    2    1    2    0    0 -0.80053969369E+03  0.62290701540E+03 -0.90944148142E+02  0.10214877756E+04  0.79306284015E+02 0.  0.
        254    2    1    2    0    0  0.80053969369E+03 -0.62290701540E+03  0.52890309135E+03  0.14540676219E+04  0.89760638261E+03 0.  0.
         23    2    4    4    0    0  0.32323192883E+03 -0.64309286559E+03  0.62570897717E+03  0.95809070534E+03  0.91535577576E+02 0.  0.
         23    2    4    4    0    0  0.47730776486E+03  0.20185850191E+02 -0.96805885819E+02  0.49597691659E+03  0.91605410955E+02 0.  0.
          2    1    3    3  502    0 -0.59533921463E+03  0.42136239323E+03 -0.51657251290E+02  0.73119321558E+03  0.00000000000E+00 0. -1.
         -1    1    3    3    0  502 -0.20520047906E+03  0.20154462216E+03 -0.39286896852E+02  0.29029456005E+03  0.00000000000E+00 0.  1.
         11    1    5    5    0    0  0.39963239444E+02 -0.99542639698E+02  0.54767156587E+02  0.12043769786E+03  0.00000000000E+00 0. -1.
        -11    1    5    5    0    0  0.28326868938E+03 -0.54355022589E+03  0.57094182058E+03  0.83765300748E+03  0.00000000000E+00 0.  1.
          3    1    6    6  503    0  0.41122103898E+03  0.26651112148E+02 -0.50819340513E+02  0.41520552748E+03  0.00000000000E+00 0. -1.
         -3    1    6    6    0  503  0.66086725884E+02 -0.64652619573E+01 -0.45986545306E+02  0.80771389114E+02  0.00000000000E+00 0.  1.
<mgrwt>
<rscale>  0 0.24365070E+04</rscale>
<asrwt>0</asrwt>
<pdfrwt beam="1">  1        2 0.22411649E+00 0.24365070E+04</pdfrwt>
<pdfrwt beam="2">  1       -1 0.15673819E+00 0.24365070E+04</pdfrwt>
<totfact> 0.42450219E+00</totfact>
</mgrwt>
</event>
<event>
12    6  0.1569942E-007  0.1772164E+04  0.7818608E-02  0.8721244E-01
          2   -1    0    0  501    0  0.00000000000E+00  0.00000000000E+00  0.12280329805E+04  0.12280329805E+04  0.00000000000E+00 0. -1.
         -1   -1    0    0    0  501 -0.00000000000E+00 -0.00000000000E+00 -0.63934867691E+03  0.63934867691E+03  0.00000000000E+00 0.  1.
         24    2    1    2    0    0  0.11225401034E+03  0.22337266481E+03  0.85498612659E+03  0.89420501077E+03  0.78134591579E+02 0.  0.
        254    2    1    2    0    0 -0.11225401034E+03 -0.22337266481E+03 -0.26630182297E+03  0.97317664666E+03  0.90203093875E+03 0.  0.
         23    2    4    4    0    0  0.20255290197E+03 -0.21001858121E+03  0.22716403112E+03  0.38036079949E+03  0.89080627552E+02 0.  0.
         23    2    4    4    0    0 -0.31480691232E+03 -0.13354083606E+02 -0.49346585409E+03  0.59281584717E+03  0.92953514769E+02 0.  0.
          2    1    3    3  502    0  0.12006589508E+03  0.17334173363E+03  0.70857472805E+03  0.73928433029E+03  0.00000000000E+00 0. -1.
         -1    1    3    3    0  502 -0.78118847406E+01  0.50030931183E+02  0.14641139855E+03  0.15492068049E+03  0.00000000000E+00 0.  1.
         11    1    5    5    0    0  0.45916250360E+02 -0.87480280855E+02  0.37888798712E+02  0.10581428379E+03  0.00000000000E+00 0. -1.
        -11    1    5    5    0    0  0.15663665161E+03 -0.12253830035E+03  0.18927523241E+03  0.27454651570E+03  0.00000000000E+00 0.  1.
          3    1    6    6  503    0 -0.23240035889E+03  0.10606828760E+02 -0.41872543822E+03  0.47901296876E+03  0.00000000000E+00 0. -1.
         -3    1    6    6    0  503 -0.82406553425E+02 -0.23960912366E+02 -0.74740415870E+02  0.11380287840E+03  0.00000000000E+00 0.  1.
<mgrwt>
<rscale>  0 0.17721639E+04</rscale>
<asrwt>0</asrwt>
<pdfrwt beam="1">  1        2 0.18892815E+00 0.17721639E+04</pdfrwt>
<pdfrwt beam="2">  1       -1 0.98361335E-01 0.17721639E+04</pdfrwt>
<totfact> 0.19462300E+01</totfact>
</mgrwt>
</event>
<event>
12    6  0.1569942E-007  0.3167229E+04  0.7818608E-02  0.8197526E-01
          2   -1    0    0  501    0  0.00000000000E+00  0.00000000000E+00  0.15034201815E+04  0.15034201815E+04  0.00000000000E+00 0. -1.
         -1   -1    0    0    0  501 -0.00000000000E+00 -0.00000000000E+00 -0.16680865518E+04  0.16680865518E+04  0.00000000000E+00 0.  1.
         24    2    1    2    0    0 -0.10537711183E+04 -0.42919945839E+02 -0.10723273490E+04  0.15061040914E+04  0.78663202686E+02 0.  0.
        254    2    1    2    0    0  0.10537711183E+04  0.42919945839E+02  0.90766097873E+03  0.16654026419E+04  0.91511847092E+03 0.  0.
         23    2    4    4    0    0  0.89886852112E+03  0.28930314683E+03  0.96783835516E+03  0.13552990497E+04  0.91997300750E+02 0.  0.
         23    2    4    4    0    0  0.15490259715E+03 -0.24638320099E+03 -0.60177376430E+02  0.31010359219E+03  0.88563112654E+02 0.  0.
          4    1    3    3  502    0 -0.23241521336E+03  0.20782872584E+02 -0.21954190996E+03  0.32038634400E+03  0.00000000000E+00 0. -1.
         -3    1    3    3    0  502 -0.82135590491E+03 -0.63702818423E+02 -0.85278543901E+03  0.11857177474E+04  0.00000000000E+00 0.  1.
         11    1    5    5    0    0  0.26274813034E+03  0.53694012653E+02  0.23342805919E+03  0.35553942933E+03  0.00000000000E+00 0. -1.
        -11    1    5    5    0    0  0.63612039078E+03  0.23560913417E+03  0.73441029596E+03  0.99975962035E+03  0.00000000000E+00 0.  1.
          2    1    6    6  503    0 -0.11125178530E+02 -0.16177580799E+02  0.13520784548E+01  0.19680239683E+02  0.00000000000E+00 0. -1.
         -2    1    6    6    0  503  0.16602777568E+03 -0.23020562019E+03 -0.61529454885E+02  0.29042335251E+03  0.00000000000E+00 0.  1.
<mgrwt>
<rscale>  0 0.31672291E+04</rscale>
<asrwt>0</asrwt>
<pdfrwt beam="1">  1        2 0.23129541E+00 0.31672291E+04</pdfrwt>
<pdfrwt beam="2">  1       -1 0.25662870E+00 0.31672291E+04</pdfrwt>
<totfact> 0.76668811E-01</totfact>
</mgrwt>
</event>
<event>
12    6  0.1569942E-007  0.1465411E+04  0.7818608E-02  0.8907786E-01
          2   -1    0    0  501    0  0.00000000000E+00  0.00000000000E+00  0.34971310647E+04  0.34971310647E+04  0.00000000000E+00 0. -1.
         -1   -1    0    0    0  501 -0.00000000000E+00 -0.00000000000E+00 -0.15351356099E+03  0.15351356099E+03  0.00000000000E+00 0.  1.
         24    2    1    2    0    0  0.24344249367E+02 -0.39330683197E+03  0.16026758922E+04  0.16523155754E+04  0.79333717406E+02 0.  0.
        254    2    1    2    0    0 -0.24344249367E+02  0.39330683197E+03  0.17409416115E+04  0.19983290503E+04  0.89841994191E+03 0.  0.
         23    2    4    4    0    0 -0.35533207637E+03  0.25577714416E+03  0.14801607073E+04  0.15458132371E+04  0.83546469748E+02 0.  0.
         23    2    4    4    0    0  0.33098782701E+03  0.13752968781E+03  0.26078090417E+03  0.45251581315E+03  0.91085259588E+02 0.  0.
          4    1    3    3  502    0  0.15467604598E+02 -0.25463734332E+03  0.87224720458E+03  0.90878743901E+03  0.00000000000E+00 0. -1.
         -3    1    3    3    0  502  0.88766447691E+01 -0.13866948865E+03  0.73042868758E+03  0.74352813635E+03  0.00000000000E+00 0.  1.
         11    1    5    5    0    0 -0.14217517703E+03  0.15370218251E+03  0.69838677645E+03  0.72909686009E+03  0.00000000000E+00 0. -1.
        -11    1    5    5    0    0 -0.21315689934E+03  0.10207496165E+03  0.78177393088E+03  0.81671637705E+03  0.00000000000E+00 0.  1.
          1    1    6    6  503    0  0.23243998579E+03  0.69671203231E+02  0.13010331677E+03  0.27533488080E+03  0.00000000000E+00 0. -1.
         -1    1    6    6    0  503  0.98547841220E+02  0.67858484578E+02  0.13067758740E+03  0.17718093234E+03  0.00000000000E+00 0.  1.
<mgrwt>
<rscale>  0 0.14654106E+04</rscale>
<asrwt>0</asrwt>
<pdfrwt beam="1">  1        2 0.53802010E+00 0.14654106E+04</pdfrwt>
<pdfrwt beam="2">  1       -1 0.23617474E-01 0.14654106E+04</pdfrwt>
<totfact> 0.14123281E+01</totfact>
</mgrwt>
</event>
<event>
12    6  0.1569942E-007  0.2172963E+04  0.7818608E-02  0.8529767E-01
         -3   -1    0    0    0  501 -0.00000000000E+00  0.00000000000E+00  0.35381337980E+04  0.35381337980E+04  0.00000000000E+00 0.  1.
          4   -1    0    0  501    0  0.00000000000E+00 -0.00000000000E+00 -0.33363394509E+03  0.33363394509E+03  0.00000000000E+00 0. -1.
         24    2    1    2    0    0 -0.66107546264E+03 -0.37010673899E+03  0.47607318408E+03  0.89828144473E+03  0.79146141916E+02 0.  0.
        254    2    1    2    0    0  0.66107546264E+03  0.37010673899E+03  0.27284266688E+04  0.29734862984E+04  0.90736371639E+03 0.  0.
         23    2    4    4    0    0 -0.11028903854E+03 -0.92161375150E+01  0.40261527798E+02  0.14976487867E+03  0.92519830579E+02 0.  0.
         23    2    4    4    0    0  0.77136450118E+03  0.37932287651E+03  0.26881651410E+04  0.28237214197E+04  0.91004352911E+02 0.  0.
          4    1    3    3  502    0 -0.64720800851E+03 -0.34827737880E+03  0.46742649380E+03  0.87101255213E+03  0.00000000000E+00 0. -1.
         -3    1    3    3    0  502 -0.13867454137E+02 -0.21829360191E+02  0.86466902766E+01  0.27268892594E+02  0.00000000000E+00 0.  1.
         11    1    5    5    0    0 -0.47081894656E+02 -0.50252744542E+02  0.20724375754E+02  0.71913440251E+02  0.00000000000E+00 0.  1.
        -11    1    5    5    0    0 -0.63207143881E+02  0.41036607027E+02  0.19537152044E+02  0.77851438419E+02  0.00000000000E+00 0. -1.
          2    1    6    6  503    0  0.52386401505E+02  0.80491230974E+01  0.12240415399E+03  0.13338628250E+03  0.00000000000E+00 0. -1.
         -2    1    6    6    0  503  0.71897809968E+03  0.37127375341E+03  0.25657609871E+04  0.26903351372E+04  0.00000000000E+00 0.  1.
<mgrwt>
<rscale>  0 0.21729625E+04</rscale>
<asrwt>0</asrwt>
<pdfrwt beam="1">  1        4 0.51328302E-01 0.21729625E+04</pdfrwt>
<pdfrwt beam="2">  1       -3 0.54432825E+00 0.21729625E+04</pdfrwt>
<totfact> 0.13681631E-02</totfact>
</mgrwt>
</event>
<event>
12    6  0.1569942E-007  0.1403313E+04  0.7818608E-02  0.8951424E-01
          2   -1    0    0  501    0  0.00000000000E+00  0.00000000000E+00  0.19736298106E+04  0.19736298106E+04  0.00000000000E+00 0. -1.
         -1   -1    0    0    0  501 -0.00000000000E+00 -0.00000000000E+00 -0.24945010184E+03  0.24945010184E+03  0.00000000000E+00 0.  1.
         24    2    1    2    0    0 -0.28083776430E+03 -0.12033848842E+03  0.75396620955E+02  0.32458654356E+03  0.79502026094E+02 0.  0.
        254    2    1    2    0    0  0.28083776430E+03  0.12033848842E+03  0.16487830878E+04  0.18984933688E+04  0.89019110272E+03 0.  0.
         23    2    4    4    0    0  0.12420831613E+02 -0.23670039783E+03  0.82386742107E+02  0.26664168985E+03  0.90160191330E+02 0.  0.
         23    2    4    4    0    0  0.26841693269E+03  0.35703888625E+03  0.15663963457E+04  0.16318516790E+04  0.99085692608E+02 0.  0.
          4    1    3    3  502    0 -0.13616895389E+03 -0.53101204673E+02 -0.43779075379E+01  0.14622205038E+03  0.00000000000E+00 0. -1.
         -3    1    3    3    0  502 -0.14466881041E+03 -0.67237283749E+02  0.79774528493E+02  0.17836449318E+03  0.00000000000E+00 0.  1.
         11    1    5    5    0    0 -0.12552667491E+01 -0.21644700755E+03  0.43600349730E+02  0.22079826374E+03  0.00000000000E+00 0. -1.
        -11    1    5    5    0    0  0.13676098362E+02 -0.20253390277E+02  0.38786392377E+02  0.45843426112E+02  0.00000000000E+00 0.  1.
          1    1    6    6  503    0  0.21942177494E+03  0.33759897976E+03  0.13279736403E+04  0.13876717824E+04  0.00000000000E+00 0. -1.
         -1    1    6    6    0  503  0.48995157751E+02  0.19439906485E+02  0.23842270537E+03  0.24417989655E+03  0.00000000000E+00 0.  1.
<mgrwt>
<rscale>  0 0.14033134E+04</rscale>
<asrwt>0</asrwt>
<pdfrwt beam="1">  1        2 0.30363535E+00 0.14033134E+04</pdfrwt>
<pdfrwt beam="2">  1       -1 0.38376940E-01 0.14033134E+04</pdfrwt>
<totfact> 0.50351498E+01</totfact>
</mgrwt>
</event>
<event>
12    6  0.1569942E-007  0.2001512E+04  0.7818608E-02  0.8605914E-01
          2   -1    0    0  501    0  0.00000000000E+00  0.00000000000E+00  0.12629679053E+04  0.12629679053E+04  0.00000000000E+00 0. -1.
         -1   -1    0    0    0  501 -0.00000000000E+00 -0.00000000000E+00 -0.79298331279E+03  0.79298331279E+03  0.00000000000E+00 0.  1.
         24    2    1    2    0    0  0.37182937105E+03  0.33101836683E+03 -0.45061953492E+03  0.67621116216E+03  0.79833139900E+02 0.  0.
        254    2    1    2    0    0 -0.37182937105E+03 -0.33101836683E+03  0.92060412746E+03  0.13797400560E+04  0.89907753956E+03 0.  0.
         23    2    4    4    0    0 -0.10251963659E+03  0.30267207596E+03  0.28829731370E+03  0.44048034993E+03  0.93738658681E+02 0.  0.
         23    2    4    4    0    0 -0.26930973446E+03 -0.63369044279E+03  0.63230681376E+03  0.93925970602E+03  0.91134945366E+02 0.  0.
          2    1    3    3  502    0  0.17599925461E+03  0.10529077795E+03 -0.17274947051E+03  0.26814970651E+03  0.00000000000E+00 0. -1.
         -3    1    3    3    0  502  0.19583011645E+03  0.22572758888E+03 -0.27787006442E+03  0.40806145565E+03  0.00000000000E+00 0.  1.
         11    1    5    5    0    0 -0.69203232181E+02  0.28095999714E+03  0.27317618615E+03  0.39793571844E+03  0.00000000000E+00 0.  1.
        -11    1    5    5    0    0 -0.33316404409E+02  0.21712078824E+02  0.15121127556E+02  0.42544631484E+02  0.00000000000E+00 0. -1.
          1    1    6    6  503    0 -0.18392590579E+03 -0.31645247896E+03  0.33346785382E+03  0.49514817963E+03  0.00000000000E+00 0. -1.
         -1    1    6    6    0  503 -0.85383828671E+02 -0.31723796383E+03  0.29883895994E+03  0.44411152639E+03  0.00000000000E+00 0.  1.
<mgrwt>
<rscale>  0 0.20015119E+04</rscale>
<asrwt>0</asrwt>
<pdfrwt beam="1">  1        2 0.19430275E+00 0.20015119E+04</pdfrwt>
<pdfrwt beam="2">  1       -1 0.12199743E+00 0.20015119E+04</pdfrwt>
<totfact> 0.10940722E+01</totfact>
</mgrwt>
</event>
<event>
12    6  0.1569942E-007  0.1964389E+04  0.7818608E-02  0.8623453E-01
          2   -1    0    0  501    0  0.00000000000E+00  0.00000000000E+00  0.19560233128E+04  0.19560233128E+04  0.00000000000E+00 0. -1.
         -1   -1    0    0    0  501 -0.00000000000E+00 -0.00000000000E+00 -0.49319760596E+03  0.49319760596E+03  0.00000000000E+00 0.  1.
         24    2    1    2    0    0  0.61633071400E+03 -0.29921516386E+03  0.10319639849E+04  0.12412535012E+04  0.79795518108E+02 0.  0.
        254    2    1    2    0    0 -0.61633071400E+03  0.29921516386E+03  0.43086172190E+03  0.12079674176E+04  0.89674421949E+03 0.  0.
         23    2    4    4    0    0  0.71005534469E+02  0.78221657982E+02 -0.20140521240E+03  0.24410051540E+03  0.88659959019E+02 0.  0.
         23    2    4    4    0    0 -0.68733624847E+03  0.22099350588E+03  0.63226693430E+03  0.96386690216E+03  0.89491232943E+02 0.  0.
          2    1    3    3  502    0  0.57902800832E+03 -0.30049012093E+03  0.97190209393E+03  0.11705389474E+04  0.00000000000E+00 0. -1.
         -1    1    3    3    0  502  0.37302705682E+02  0.12749570723E+01  0.60061890966E+02  0.70714553757E+02  0.00000000000E+00 0.  1.
         11    1    5    5    0    0  0.89975559100E+02  0.67364111353E+02 -0.18612860683E+03  0.21743362898E+03  0.00000000000E+00 0.  1.
        -11    1    5    5    0    0 -0.18970024630E+02  0.10857546629E+02 -0.15276605576E+02  0.26666886418E+02  0.00000000000E+00 0. -1.
          2    1    6    6  503    0 -0.25930629052E+02  0.53003407737E+01  0.50378364648E+02  0.56907563294E+02  0.00000000000E+00 0. -1.
         -2    1    6    6    0  503 -0.66140561941E+03  0.21569316511E+03  0.58188856965E+03  0.90695933887E+03  0.00000000000E+00 0.  1.
<mgrwt>
<rscale>  0 0.19643890E+04</rscale>
<asrwt>0</asrwt>
<pdfrwt beam="1">  1        2 0.30092666E+00 0.19643890E+04</pdfrwt>
<pdfrwt beam="2">  1       -1 0.75876556E-01 0.19643890E+04</pdfrwt>
<totfact> 0.13083704E+01</totfact>
</mgrwt>
</event>
<event>
12    6  0.1569942E-007  0.1337016E+04  0.7818608E-02  0.9000715E-01
         -1   -1    0    0    0  501 -0.00000000000E+00  0.00000000000E+00  0.27391701493E+03  0.27391701493E+03  0.00000000000E+00 0.  1.
          2   -1    0    0  501    0  0.00000000000E+00 -0.00000000000E+00 -0.16315271050E+04  0.16315271050E+04  0.00000000000E+00 0. -1.
         24    2    1    2    0    0  0.17010900507E+03  0.10575451524E+03  0.51832879299E+02  0.22146298090E+03  0.78981728487E+02 0.  0.
        254    2    1    2    0    0 -0.17010900507E+03 -0.10575451524E+03 -0.14094429694E+04  0.16839811390E+04  0.89952315235E+03 0.  0.
         23    2    4    4    0    0  0.29588937474E+03 -0.14403666064E+03 -0.23029009225E+03  0.41222733667E+03  0.92740330057E+02 0.  0.
         23    2    4    4    0    0 -0.46599837981E+03  0.38282145402E+02 -0.11791528771E+04  0.12717538024E+04  0.91302867191E+02 0.  0.
          4    1    3    3  502    0 -0.36962699538E+00  0.14891413738E+02 -0.10780609188E+02  0.18387831892E+02  0.00000000000E+00 0. -1.
         -3    1    3    3    0  502  0.17047863207E+03  0.90863101500E+02  0.62613488487E+02  0.20307514901E+03  0.00000000000E+00 0.  1.
         11    1    5    5    0    0  0.15811064333E+03 -0.28460031862E+02 -0.12741925394E+03  0.20504783642E+03  0.00000000000E+00 0.  1.
        -11    1    5    5    0    0  0.13777873141E+03 -0.11557662878E+03 -0.10287083832E+03  0.20717950025E+03  0.00000000000E+00 0. -1.
          4    1    6    6  503    0 -0.15863419558E+03  0.56070100332E+02 -0.39645015274E+03  0.43067550170E+03  0.00000000000E+00 0. -1.
         -4    1    6    6    0  503 -0.30736418423E+03 -0.17787954930E+02 -0.78270272438E+03  0.84107830066E+03  0.00000000000E+00 0.  1.
<mgrwt>
<rscale>  0 0.13370161E+04</rscale>
<asrwt>0</asrwt>
<pdfrwt beam="1">  1        2 0.25100417E+00 0.13370161E+04</pdfrwt>
<pdfrwt beam="2">  1       -1 0.42141079E-01 0.13370161E+04</pdfrwt>
<totfact> 0.65988823E+01</totfact>
</mgrwt>
</event>
<event>
12    6  0.1569942E-007  0.1777290E+04  0.7818608E-02  0.8718471E-01
         -1   -1    0    0    0  501 -0.00000000000E+00  0.00000000000E+00  0.60278177461E+03  0.60278177461E+03  0.00000000000E+00 0.  1.
          2   -1    0    0  501    0  0.00000000000E+00 -0.00000000000E+00 -0.13100756834E+04  0.13100756834E+04  0.00000000000E+00 0. -1.
         24    2    1    2    0    0 -0.43654526859E+03  0.48453132615E+03 -0.19576278635E+03  0.68567541207E+03  0.80531513365E+02 0.  0.
        254    2    1    2    0    0  0.43654526859E+03 -0.48453132615E+03 -0.51153112248E+03  0.12271820460E+04  0.90496922994E+03 0.  0.
         23    2    4    4    0    0  0.89208653400E+02 -0.57815150717E+03 -0.60196322381E+03  0.84507148058E+03  0.97819913060E+02 0.  0.
         23    2    4    4    0    0  0.34733661519E+03  0.93620181015E+02  0.90432101333E+02  0.38211056539E+03  0.91777212212E+02 0.  0.
          2    1    3    3  502    0 -0.13321086108E+03  0.14776631498E+03 -0.99031569833E+02  0.22223246652E+03  0.00000000000E+00 0. -1.
         -1    1    3    3    0  502 -0.30333440751E+03  0.33676501117E+03 -0.96731216519E+02  0.46344294555E+03  0.00000000000E+00 0.  1.
         11    1    5    5    0    0  0.37090725256E+02 -0.47861722329E+03 -0.50356332484E+03  0.69571990805E+03  0.00000000000E+00 0.  1.
        -11    1    5    5    0    0  0.52117928144E+02 -0.99534283878E+02 -0.98399898967E+02  0.14935157253E+03  0.00000000000E+00 0. -1.
          4    1    6    6  503    0  0.10746602058E+02 -0.17170083930E+01  0.23550177839E+02  0.25943177328E+02  0.00000000000E+00 0. -1.
         -4    1    6    6    0  503  0.33659001314E+03  0.95337189408E+02  0.66881923494E+02  0.35616738806E+03  0.00000000000E+00 0.  1.
<mgrwt>
<rscale>  0 0.17772898E+04</rscale>
<asrwt>0</asrwt>
<pdfrwt beam="1">  1        2 0.20155011E+00 0.17772898E+04</pdfrwt>
<pdfrwt beam="2">  1       -1 0.92735658E-01 0.17772898E+04</pdfrwt>
<totfact> 0.19874710E+01</totfact>
</mgrwt>
</event>
<event>
12    6  0.1569942E-007  0.2198689E+04  0.7818608E-02  0.8518974E-01
          2   -1    0    0  501    0  0.00000000000E+00  0.00000000000E+00  0.18714684131E+04  0.18714684131E+04  0.00000000000E+00 0. -1.
         -1   -1    0    0    0  501 -0.00000000000E+00 -0.00000000000E+00 -0.64578078978E+03  0.64578078978E+03  0.00000000000E+00 0.  1.
         24    2    1    2    0    0  0.87565770834E+03 -0.26180816754E+03  0.45880390403E+03  0.10258346288E+04  0.80720038086E+02 0.  0.
        254    2    1    2    0    0 -0.87565770834E+03  0.26180816754E+03  0.76688371926E+03  0.14914145740E+04  0.89492282014E+03 0.  0.
         23    2    4    4    0    0 -0.52268935533E+03  0.30741839801E+03 -0.29849853775E+02  0.61401853829E+03  0.91747032549E+02 0.  0.
         23    2    4    4    0    0 -0.35296835301E+03 -0.45610230470E+02  0.79673357303E+03  0.87739603575E+03  0.91501179204E+02 0.  0.
          4    1    3    3  502    0  0.49434253467E+02 -0.10124367177E+02  0.65411410406E+01  0.50882558433E+02  0.00000000000E+00 0. -1.
         -3    1    3    3    0  502  0.82622345487E+03 -0.25168380037E+03  0.45226276299E+03  0.97495207038E+03  0.00000000000E+00 0.  1.
         11    1    5    5    0    0 -0.51679385266E+03  0.31342360881E+03 -0.32246142022E+02  0.60526858367E+03  0.00000000000E+00 0. -1.
        -11    1    5    5    0    0 -0.58955026669E+01 -0.60052107961E+01  0.23962882462E+01  0.87499546147E+01  0.00000000000E+00 0.  1.
          1    1    6    6  503    0 -0.20355972982E+03 -0.58381196576E+02  0.54057565980E+03  0.58057469088E+03  0.00000000000E+00 0. -1.
         -1    1    6    6    0  503 -0.14940862319E+03  0.12770966106E+02  0.25615791323E+03  0.29682134487E+03  0.00000000000E+00 0.  1.
<mgrwt>
<rscale>  0 0.21986890E+04</rscale>
<asrwt>0</asrwt>
<pdfrwt beam="1">  1        2 0.28791821E+00 0.21986890E+04</pdfrwt>
<pdfrwt beam="2">  1       -1 0.99350892E-01 0.21986890E+04</pdfrwt>
<totfact> 0.79285657E+00</totfact>
</mgrwt>
</event>
<event>
12    6  0.1569942E-007  0.2481475E+04  0.7818608E-02  0.8409615E-01
         -1   -1    0    0    0  501 -0.00000000000E+00  0.00000000000E+00  0.53582960557E+03  0.53582960557E+03  0.00000000000E+00 0.  1.
          2   -1    0    0  501    0  0.00000000000E+00 -0.00000000000E+00 -0.28729826141E+04  0.28729826141E+04  0.00000000000E+00 0. -1.
         24    2    1    2    0    0  0.10512606109E+04 -0.50806666664E+02 -0.12795050387E+04  0.16586965770E+04  0.80068726267E+02 0.  0.
        254    2    1    2    0    0 -0.10512606109E+04  0.50806666664E+02 -0.10576479698E+04  0.17501156427E+04  0.91463399530E+03 0.  0.
         23    2    4    4    0    0  0.12846182387E+03 -0.50815541730E+02 -0.90493466181E+01  0.16571328316E+03  0.91073278570E+02 0.  0.
         23    2    4    4    0    0 -0.11797224348E+04  0.10162220839E+03 -0.10485986232E+04  0.15844023595E+04  0.93272010779E+02 0.  0.
          4    1    3    3  502    0  0.98887657138E+03 -0.62360420786E+02 -0.12203974251E+04  0.15719845962E+04  0.00000000000E+00 0. -1.
         -3    1    3    3    0  502  0.62384039516E+02  0.11553754122E+02 -0.59107613658E+02  0.86711980793E+02  0.00000000000E+00 0.  1.
         11    1    5    5    0    0  0.56824437399E+01 -0.71865196453E+01  0.28641293362E+02  0.30070914800E+02  0.00000000000E+00 0. -1.
        -11    1    5    5    0    0  0.12277938013E+03 -0.43629022084E+02 -0.37690639980E+02  0.13564236836E+03  0.00000000000E+00 0.  1.
          1    1    6    6  503    0 -0.19880247925E+03  0.31431006378E+02 -0.13716766298E+03  0.24356785849E+03  0.00000000000E+00 0. -1.
         -1    1    6    6    0  503 -0.98091995551E+03  0.70191202015E+02 -0.91143096019E+03  0.13408345010E+04  0.00000000000E+00 0.  1.
<mgrwt>
<rscale>  0 0.24814747E+04</rscale>
<asrwt>0</asrwt>
<pdfrwt beam="1">  1        2 0.44199734E+00 0.24814747E+04</pdfrwt>
<pdfrwt beam="2">  1       -1 0.82435322E-01 0.24814747E+04</pdfrwt>
<totfact> 0.31021048E+00</totfact>
</mgrwt>
</event>
<event>
12    6  0.1569942E-007  0.1944270E+04  0.7818608E-02  0.8633129E-01
          2   -1    0    0  501    0  0.00000000000E+00  0.00000000000E+00  0.25545106033E+04  0.25545106033E+04  0.00000000000E+00 0. -1.
         -1   -1    0    0    0  501 -0.00000000000E+00 -0.00000000000E+00 -0.36995196496E+03  0.36995196496E+03  0.00000000000E+00 0.  1.
         24    2    1    2    0    0  0.79930997366E+02 -0.36783768072E+03  0.18553817176E+04  0.18949162670E+04  0.81072912395E+02 0.  0.
        254    2    1    2    0    0 -0.79930997366E+02  0.36783768072E+03  0.32917692074E+03  0.10295463013E+04  0.89995256412E+03 0.  0.
         23    2    4    4    0    0 -0.60421279936E+01  0.34780584659E+03  0.61989577267E+03  0.71663353430E+03  0.91035373768E+02 0.  0.
         23    2    4    4    0    0 -0.73888869373E+02  0.20031834122E+02 -0.29071885193E+03  0.31291276700E+03  0.86810768288E+02 0.  0.
          4    1    3    3  502    0  0.96798755114E+02 -0.31468634734E+03  0.15754785645E+04  0.16095124117E+04  0.00000000000E+00 0. -1.
         -3    1    3    3    0  502 -0.16867757748E+02 -0.53151333375E+02  0.27990315318E+03  0.28540385536E+03  0.00000000000E+00 0.  1.
         11    1    5    5    0    0  0.67575553084E+01  0.34663075884E+03  0.59920457281E+03  0.69227499421E+03  0.00000000000E+00 0.  1.
        -11    1    5    5    0    0 -0.12799683302E+02  0.11750877504E+01  0.20691199859E+02  0.24358540093E+02  0.00000000000E+00 0. -1.
          1    1    6    6  503    0 -0.35033660231E+02 -0.18507227945E+01 -0.24034412576E+02  0.42525704132E+02  0.00000000000E+00 0. -1.
         -1    1    6    6    0  503 -0.38855209141E+02  0.21882556917E+02 -0.26668443935E+03  0.27038706287E+03  0.00000000000E+00 0.  1.
<mgrwt>
<rscale>  0 0.19442698E+04</rscale>
<asrwt>0</asrwt>
<pdfrwt beam="1">  1        2 0.39300162E+00 0.19442698E+04</pdfrwt>
<pdfrwt beam="2">  1       -1 0.56915689E-01 0.19442698E+04</pdfrwt>
<totfact> 0.10753070E+01</totfact>
</mgrwt>
</event>
<event>
12    6  0.1569942E-007  0.1508634E+04  0.7818608E-02  0.8878731E-01
         -1   -1    0    0    0  501 -0.00000000000E+00  0.00000000000E+00  0.31566229703E+03  0.31566229703E+03  0.00000000000E+00 0.  1.
          2   -1    0    0  501    0  0.00000000000E+00 -0.00000000000E+00 -0.18025417735E+04  0.18025417735E+04  0.00000000000E+00 0. -1.
         24    2    1    2    0    0 -0.41937523464E+03  0.95111444154E+02 -0.79422372446E+03  0.90673562176E+03  0.80351658597E+02 0.  0.
        254    2    1    2    0    0  0.41937523464E+03 -0.95111444154E+02 -0.69265575206E+03  0.12114684488E+04  0.89608149036E+03 0.  0.
         23    2    4    4    0    0 -0.17774944794E+03  0.18215450088E+03 -0.29081128171E+02  0.27233634805E+03  0.92445908610E+02 0.  0.
         23    2    4    4    0    0  0.59712468258E+03 -0.27726594503E+03 -0.66357462388E+03  0.93913210076E+03  0.90573342621E+02 0.  0.
          2    1    3    3  502    0 -0.32858567750E+03  0.84858511396E+02 -0.55348567388E+03  0.64924256300E+03  0.00000000000E+00 0. -1.
         -1    1    3    3    0  502 -0.90789557134E+02  0.10252932759E+02 -0.24073805058E+03  0.25749305876E+03  0.00000000000E+00 0.  1.
         11    1    5    5    0    0 -0.12296799550E+03  0.13419024131E+03  0.22082281618E+02  0.18334605516E+03  0.00000000000E+00 0.  1.
        -11    1    5    5    0    0 -0.54781452437E+02  0.47964259566E+02 -0.51163409789E+02  0.88990292886E+02  0.00000000000E+00 0. -1.
          3    1    6    6  503    0  0.54525418090E+03 -0.22943777574E+03 -0.56598012168E+03  0.81870465546E+03  0.00000000000E+00 0. -1.
         -3    1    6    6    0  503  0.51870501679E+02 -0.47828169292E+02 -0.97594502202E+02  0.12042744530E+03  0.00000000000E+00 0.  1.
<mgrwt>
<rscale>  0 0.15086345E+04</rscale>
<asrwt>0</asrwt>
<pdfrwt beam="1">  1        2 0.27731412E+00 0.15086345E+04</pdfrwt>
<pdfrwt beam="2">  1       -1 0.48563430E-01 0.15086345E+04</pdfrwt>
<totfact> 0.40138725E+01</totfact>
</mgrwt>
</event>
<event>
12    6  0.1569942E-007  0.1218217E+04  0.7818608E-02  0.9097059E-01
         -1   -1    0    0    0  501 -0.00000000000E+00  0.00000000000E+00  0.28571354796E+03  0.28571354796E+03  0.00000000000E+00 0.  1.
          2   -1    0    0  501    0  0.00000000000E+00 -0.00000000000E+00 -0.12985484241E+04  0.12985484241E+04  0.00000000000E+00 0. -1.
         24    2    1    2    0    0 -0.35457965703E+02  0.15182167530E+03  0.51463015768E+02  0.18004349714E+03  0.73892695498E+02 0.  0.
        254    2    1    2    0    0  0.35457965703E+02 -0.15182167530E+03 -0.10642978919E+04  0.14042184749E+04  0.90265853685E+03 0.  0.
         23    2    4    4    0    0  0.13232414589E+03 -0.39492404002E+03 -0.15476941410E+03  0.45372969765E+03  0.91882479374E+02 0.  0.
         23    2    4    4    0    0 -0.96866180186E+02  0.24310236472E+03 -0.90952847781E+03  0.95048877727E+03  0.87778398039E+02 0.  0.
          2    1    3    3  502    0 -0.38141091290E+02  0.14376120410E+03  0.23202428208E+02  0.15053364848E+03  0.00000000000E+00 0. -1.
         -1    1    3    3    0  502  0.26831255868E+01  0.80604711984E+01  0.28260587559E+02  0.29509848662E+02  0.00000000000E+00 0.  1.
         11    1    5    5    0    0  0.10623482241E+03 -0.30109181109E+03 -0.15809554475E+03  0.35628123367E+03  0.00000000000E+00 0.  1.
        -11    1    5    5    0    0  0.26089323480E+02 -0.93832228934E+02  0.33261306525E+01  0.97448463977E+02  0.00000000000E+00 0. -1.
          3    1    6    6  503    0 -0.34751563896E+02  0.20766905950E+02 -0.20959598088E+03  0.21346992945E+03  0.00000000000E+00 0. -1.
         -3    1    6    6    0  503 -0.62114616290E+02  0.22233545877E+03 -0.69993249693E+03  0.73701884782E+03  0.00000000000E+00 0.  1.
<mgrwt>
<rscale>  0 0.12182165E+04</rscale>
<asrwt>0</asrwt>
<pdfrwt beam="1">  1        2 0.19977668E+00 0.12182165E+04</pdfrwt>
<pdfrwt beam="2">  1       -1 0.43955930E-01 0.12182165E+04</pdfrwt>
<totfact> 0.95162317E+01</totfact>
</mgrwt>
</event>
<event>
12    6  0.1569942E-007  0.1751680E+04  0.7818608E-02  0.8732426E-01
         -1   -1    0    0    0  501 -0.00000000000E+00  0.00000000000E+00  0.13692542515E+04  0.13692542515E+04  0.00000000000E+00 0.  1.
          2   -1    0    0  501    0  0.00000000000E+00 -0.00000000000E+00 -0.56022852252E+03  0.56022852252E+03  0.00000000000E+00 0. -1.
         24    2    1    2    0    0  0.25616690916E+02  0.42147560005E+03  0.82518917999E+03  0.93040340758E+03  0.80096328025E+02 0.  0.
        254    2    1    2    0    0 -0.25616690916E+02 -0.42147560005E+03 -0.16163451018E+02  0.99907936643E+03  0.90531785964E+03 0.  0.
         23    2    4    4    0    0  0.39815869505E+03 -0.35869742061E+03 -0.10220776282E+03  0.55295709165E+03  0.90116216218E+02 0.  0.
         23    2    4    4    0    0 -0.42377538597E+03 -0.62778179436E+02  0.86044311805E+02  0.44612227478E+03  0.89971011427E+02 0.  0.
          2    1    3    3  502    0 -0.19176975717E+02  0.46947045653E+02  0.72322712579E+02  0.88330947284E+02  0.00000000000E+00 0. -1.
         -1    1    3    3    0  502  0.44793666633E+02  0.37452855439E+03  0.75286646742E+03  0.84207246029E+03  0.00000000000E+00 0.  1.
         11    1    5    5    0    0  0.37820693340E+03 -0.32057570008E+03 -0.73446040187E+02  0.50120213963E+03  0.00000000000E+00 0.  1.
        -11    1    5    5    0    0  0.19951761654E+02 -0.38121720532E+02 -0.28761722636E+02  0.51754952018E+02  0.00000000000E+00 0. -1.
          3    1    6    6  503    0 -0.14317921705E+03 -0.61747498954E+02  0.46765541830E+02  0.16278838326E+03  0.00000000000E+00 0. -1.
         -3    1    6    6    0  503 -0.28059616892E+03 -0.10306804821E+01  0.39278769975E+02  0.28333389152E+03  0.00000000000E+00 0.  1.
<mgrwt>
<rscale>  0 0.17516795E+04</rscale>
<asrwt>0</asrwt>
<pdfrwt beam="1">  1        2 0.86189004E-01 0.17516795E+04</pdfrwt>
<pdfrwt beam="2">  1       -1 0.21065450E+00 0.17516795E+04</pdfrwt>
<totfact> 0.74194553E+00</totfact>
</mgrwt>
</event>
<event>
12    6  0.1569942E-007  0.2377083E+04  0.7818608E-02  0.8448134E-01
         -1   -1    0    0    0  501 -0.00000000000E+00  0.00000000000E+00  0.11838573351E+04  0.11838573351E+04  0.00000000000E+00 0.  1.
          2   -1    0    0  501    0  0.00000000000E+00 -0.00000000000E+00 -0.11932439916E+04  0.11932439916E+04  0.00000000000E+00 0. -1.
         24    2    1    2    0    0 -0.72649565634E+03  0.59400206833E+03  0.39106249383E+03  0.10196676910E+04  0.78472480295E+02 0.  0.
        254    2    1    2    0    0  0.72649565634E+03 -0.59400206833E+03 -0.40044915035E+03  0.13574336358E+04  0.89533912995E+03 0.  0.
         23    2    4    4    0    0  0.63226000001E+03 -0.77969287321E+03 -0.47928630542E+03  0.11163855973E+04  0.94486798594E+02 0.  0.
         23    2    4    4    0    0  0.94235656326E+02  0.18569080488E+03  0.78837155074E+02  0.24104803847E+03  0.92344062564E+02 0.  0.
          4    1    3    3  502    0 -0.76959701927E+02  0.39286333531E+02  0.50693360886E+02  0.10017998084E+03  0.00000000000E+00 0. -1.
         -3    1    3    3    0  502 -0.64953595441E+03  0.55471573480E+03  0.34036913295E+03  0.91948771018E+03  0.00000000000E+00 0.  1.
         11    1    5    5    0    0  0.19071354094E+03 -0.29758501728E+03 -0.14388608495E+03  0.38161722006E+03  0.00000000000E+00 0.  1.
        -11    1    5    5    0    0  0.44154645908E+03 -0.48210785593E+03 -0.33540022048E+03  0.73476837722E+03  0.00000000000E+00 0. -1.
          3    1    6    6  503    0  0.21670477040E+01  0.64925624997E+02  0.59265052128E+02  0.87933948397E+02  0.00000000000E+00 0. -1.
         -3    1    6    6    0  503  0.92068608622E+02  0.12076517989E+03  0.19572102946E+02  0.15311409008E+03  0.00000000000E+00 0.  1.
<mgrwt>
<rscale>  0 0.23770828E+04</rscale>
<asrwt>0</asrwt>
<pdfrwt beam="1">  1        2 0.18357600E+00 0.23770828E+04</pdfrwt>
<pdfrwt beam="2">  1       -1 0.18213190E+00 0.23770828E+04</pdfrwt>
<totfact> 0.39444623E+00</totfact>
</mgrwt>
</event>
<event>
12    6  0.1569942E-007  0.2028276E+04  0.7818608E-02  0.8593513E-01
          2   -1    0    0  501    0  0.00000000000E+00  0.00000000000E+00  0.17632147455E+04  0.17632147455E+04  0.00000000000E+00 0. -1.
         -1   -1    0    0    0  501 -0.00000000000E+00 -0.00000000000E+00 -0.58329613501E+03  0.58329613501E+03  0.00000000000E+00 0.  1.
         24    2    1    2    0    0  0.32002783562E+03 -0.70524702549E+03  0.72202581362E+03  0.10615476857E+04  0.75967301385E+02 0.  0.
        254    2    1    2    0    0 -0.32002783562E+03  0.70524702549E+03  0.45789279686E+03  0.12849631948E+04  0.91742760810E+03 0.  0.
         23    2    4    4    0    0  0.26668383495E+03  0.15769135700E+02  0.61524736404E+02  0.29248146323E+03  0.10193713591E+03 0.  0.
         23    2    4    4    0    0 -0.58671167057E+03  0.68947788979E+03  0.39636806045E+03  0.99248173160E+03  0.91115329796E+02 0.  0.
          4    1    3    3  502    0  0.32398977081E+03 -0.70142019547E+03  0.71598878978E+03  0.10533753411E+04  0.00000000000E+00 0. -1.
         -3    1    3    3    0  502 -0.39619351917E+01 -0.38268300245E+01  0.60370238440E+01  0.81723445469E+01  0.00000000000E+00 0.  1.
         11    1    5    5    0    0  0.25571973200E+02  0.35281144494E+02  0.34658317731E+01  0.43711519763E+02  0.00000000000E+00 0.  1.
        -11    1    5    5    0    0  0.24111186175E+03 -0.19512008794E+02  0.58058904631E+02  0.24876994346E+03  0.00000000000E+00 0. -1.
          4    1    6    6  503    0 -0.42754267510E+03  0.51818614698E+03  0.33523412729E+03  0.75079394114E+03  0.00000000000E+00 0. -1.
         -4    1    6    6    0  503 -0.15916899547E+03  0.17129174281E+03  0.61133933161E+02  0.24168779046E+03  0.00000000000E+00 0.  1.
<mgrwt>
<rscale>  0 0.20282765E+04</rscale>
<asrwt>0</asrwt>
<pdfrwt beam="1">  1        2 0.27126380E+00 0.20282765E+04</pdfrwt>
<pdfrwt beam="2">  1       -1 0.89737868E-01 0.20282765E+04</pdfrwt>
<totfact> 0.11606725E+01</totfact>
</mgrwt>
</event>
<event>
12    6  0.1569942E-007  0.1344191E+04  0.7818608E-02  0.8995237E-01
         -1   -1    0    0    0  501 -0.00000000000E+00  0.00000000000E+00  0.36900886485E+03  0.36900886485E+03  0.00000000000E+00 0.  1.
          2   -1    0    0  501    0  0.00000000000E+00 -0.00000000000E+00 -0.12241229745E+04  0.12241229745E+04  0.00000000000E+00 0. -1.
         24    2    1    2    0    0  0.33763108244E+03  0.11831115257E+03 -0.16166235726E+03  0.40058071415E+03  0.79611017704E+02 0.  0.
        254    2    1    2    0    0 -0.33763108244E+03 -0.11831115257E+03 -0.69345175238E+03  0.11925511252E+04  0.90183733383E+03 0.  0.
         23    2    4    4    0    0 -0.22738388646E+03  0.36927339731E+03 -0.20333255296E+03  0.48643628647E+03  0.84910894013E+02 0.  0.
         23    2    4    4    0    0 -0.11024719598E+03 -0.48758454989E+03 -0.49011919942E+03  0.70611483873E+03  0.92131418729E+02 0.  0.
          4    1    3    3  502    0 -0.31899590067E+01  0.33526125807E+01  0.24355569877E+01  0.52295112029E+01  0.00000000000E+00 0. -1.
         -3    1    3    3    0  502  0.34082104144E+03  0.11495853999E+03 -0.16409791425E+03  0.39535120294E+03  0.00000000000E+00 0.  1.
         11    1    5    5    0    0 -0.63736931337E+02  0.16299891902E+03 -0.51251985306E+02  0.18236723942E+03  0.00000000000E+00 0. -1.
        -11    1    5    5    0    0 -0.16364695512E+03  0.20627447830E+03 -0.15208056765E+03  0.30406904705E+03  0.00000000000E+00 0.  1.
          2    1    6    6  503    0  0.16479682247E+02 -0.67757330661E+02 -0.64120984538E+02  0.94731918821E+02  0.00000000000E+00 0.  1.
         -2    1    6    6    0  503 -0.12672687823E+03 -0.41982721923E+03 -0.42599821488E+03  0.61138291991E+03  0.00000000000E+00 0. -1.
<mgrwt>
<rscale>  0 0.13441908E+04</rscale>
<asrwt>0</asrwt>
<pdfrwt beam="1">  1        2 0.18832661E+00 0.13441908E+04</pdfrwt>
<pdfrwt beam="2">  1       -1 0.56770594E-01 0.13441908E+04</pdfrwt>
<totfact> 0.64111149E+01</totfact>
</mgrwt>
</event>
<event>
12    6  0.1569942E-007  0.2549864E+04  0.7818608E-02  0.8385434E-01
         -1   -1    0    0    0  501 -0.00000000000E+00  0.00000000000E+00  0.13992102957E+04  0.13992102957E+04  0.00000000000E+00 0.  1.
          2   -1    0    0  501    0  0.00000000000E+00 -0.00000000000E+00 -0.11616917613E+04  0.11616917613E+04  0.00000000000E+00 0. -1.
         24    2    1    2    0    0  0.79965265230E+03  0.70456047779E+03 -0.20519625850E+03  0.10882289885E+04  0.79290577491E+02 0.  0.
        254    2    1    2    0    0 -0.79965265230E+03 -0.70456047779E+03  0.44271479289E+03  0.14726730685E+04  0.91483318019E+03 0.  0.
         23    2    4    4    0    0 -0.63404090842E+01 -0.38021365360E+03 -0.15999566477E+03  0.42097619049E+03  0.83783751661E+02 0.  0.
         23    2    4    4    0    0 -0.79331224321E+03 -0.32434682419E+03  0.60271045765E+03  0.10516968780E+04  0.90891417671E+02 0.  0.
          2    1    3    3  502    0  0.78275215608E+03  0.69078586968E+03 -0.21220979102E+03  0.10653257957E+04  0.00000000000E+00 0. -1.
         -1    1    3    3    0  502  0.16900496222E+02  0.13774608114E+02  0.70135325116E+01  0.22903192780E+02  0.00000000000E+00 0.  1.
         11    1    5    5    0    0 -0.40363210571E+02 -0.11883877419E+03 -0.59388343873E+02  0.13884818474E+03  0.00000000000E+00 0. -1.
        -11    1    5    5    0    0  0.34022801487E+02 -0.26137487942E+03 -0.10060732089E+03  0.28212800575E+03  0.00000000000E+00 0.  1.
          4    1    6    6  503    0 -0.17090826756E+02  0.59737828619E+01  0.97347659021E+01  0.20555974996E+02  0.00000000000E+00 0. -1.
         -4    1    6    6    0  503 -0.77622141646E+03 -0.33032060705E+03  0.59297569175E+03  0.10311409030E+04  0.00000000000E+00 0.  1.
<mgrwt>
<rscale>  0 0.25498636E+04</rscale>
<asrwt>0</asrwt>
<pdfrwt beam="1">  1        2 0.17872181E+00 0.25498636E+04</pdfrwt>
<pdfrwt beam="2">  1       -1 0.21526312E+00 0.25498636E+04</pdfrwt>
<totfact> 0.23945674E+00</totfact>
</mgrwt>
</event>
<event>
12    6  0.1569942E-007  0.1376163E+04  0.7818608E-02  0.8971256E-01
          2   -1    0    0  501    0  0.00000000000E+00  0.00000000000E+00  0.89265304006E+03  0.89265304006E+03  0.00000000000E+00 0. -1.
         -1   -1    0    0    0  501 -0.00000000000E+00 -0.00000000000E+00 -0.53039185448E+03  0.53039185448E+03  0.00000000000E+00 0.  1.
         24    2    1    2    0    0 -0.53207822224E+02  0.37684591939E+03  0.47942423657E+02  0.39175754765E+03  0.79571231274E+02 0.  0.
        254    2    1    2    0    0  0.53207822224E+02 -0.37684591939E+03  0.31431876192E+03  0.10312873469E+04  0.90549068933E+03 0.  0.
         23    2    4    4    0    0 -0.28358929201E+03 -0.10961970284E+03 -0.18314625424E+03  0.36680084946E+03  0.92525385328E+02 0.  0.
         23    2    4    4    0    0  0.33679711423E+03 -0.26722621655E+03  0.49746501616E+03  0.66448649744E+03  0.96066206355E+02 0.  0.
          2    1    3    3  502    0 -0.35348444180E+02  0.96229868326E+02  0.41220060374E+02  0.11049340904E+03  0.00000000000E+00 0. -1.
         -1    1    3    3    0  502 -0.17859378044E+02  0.28061605107E+03  0.67223632828E+01  0.28126413861E+03  0.00000000000E+00 0.  1.
         11    1    5    5    0    0 -0.21471830376E+03 -0.93365139539E+02 -0.92366866228E+02  0.25169949787E+03  0.00000000000E+00 0.  1.
        -11    1    5    5    0    0 -0.68870988248E+02 -0.16254563305E+02 -0.90779388013E+02  0.11510135159E+03  0.00000000000E+00 0. -1.
          2    1    6    6  503    0  0.77569080616E+02 -0.84352605090E+02  0.19490515536E+03  0.22609808456E+03  0.00000000000E+00 0. -1.
         -2    1    6    6    0  503  0.25922803361E+03 -0.18287361146E+03  0.30255986080E+03  0.43838841288E+03  0.00000000000E+00 0.  1.
<mgrwt>
<rscale>  0 0.13761626E+04</rscale>
<asrwt>0</asrwt>
<pdfrwt beam="1">  1        2 0.13733124E+00 0.13761626E+04</pdfrwt>
<pdfrwt beam="2">  1       -1 0.81598747E-01 0.13761626E+04</pdfrwt>
<totfact> 0.49366157E+01</totfact>
</mgrwt>
</event>
<event>
12    6  0.1569942E-007  0.2468311E+04  0.7818608E-02  0.8414363E-01
          2   -1    0    0  501    0  0.00000000000E+00  0.00000000000E+00  0.91713397296E+03  0.91713397296E+03  0.00000000000E+00 0. -1.
         -1   -1    0    0    0  501 -0.00000000000E+00 -0.00000000000E+00 -0.16607599252E+04  0.16607599252E+04  0.00000000000E+00 0.  1.
         24    2    1    2    0    0  0.81490628778E+03  0.41991998427E+03 -0.81907341199E+03  0.12320266841E+04  0.81261584456E+02 0.  0.
        254    2    1    2    0    0 -0.81490628778E+03 -0.41991998427E+03  0.75447459710E+02  0.13458672141E+04  0.98247706727E+03 0.  0.
         23    2    4    4    0    0 -0.45011878095E+03  0.28691079988E+03  0.59111202693E+02  0.54464927303E+03  0.90686119565E+02 0.  0.
         23    2    4    4    0    0 -0.36478750683E+03 -0.70683078414E+03  0.16336257017E+02  0.80121794104E+03  0.94887476550E+02 0.  0.
          4    1    3    3  502    0  0.42689636181E+03  0.21161049196E+03 -0.47895839237E+03  0.67558911008E+03  0.00000000000E+00 0. -1.
         -3    1    3    3    0  502  0.38800992596E+03  0.20830949231E+03 -0.34011501961E+03  0.55643757403E+03  0.00000000000E+00 0.  1.
         11    1    5    5    0    0 -0.16329100756E+03  0.15030030570E+03  0.46185487117E+02  0.22668752560E+03  0.00000000000E+00 0. -1.
        -11    1    5    5    0    0 -0.28682777339E+03  0.13661049418E+03  0.12925715576E+02  0.31796174743E+03  0.00000000000E+00 0.  1.
          3    1    6    6  503    0 -0.33056148087E+03 -0.56831181697E+03  0.28037942655E+02  0.65805420762E+03  0.00000000000E+00 0. -1.
         -3    1    6    6    0  503 -0.34226025955E+02 -0.13851896718E+03 -0.11701685638E+02  0.14316373342E+03  0.00000000000E+00 0.  1.
<mgrwt>
<rscale>  0 0.24683106E+04</rscale>
<asrwt>0</asrwt>
<pdfrwt beam="1">  1        2 0.14109753E+00 0.24683106E+04</pdfrwt>
<pdfrwt beam="2">  1       -1 0.25550153E+00 0.24683106E+04</pdfrwt>
<totfact> 0.18686377E+00</totfact>
</mgrwt>
</event>
<event>
12    6  0.1569942E-007  0.1492620E+04  0.7818608E-02  0.8889375E-01
         -1   -1    0    0    0  501 -0.00000000000E+00  0.00000000000E+00  0.75989798777E+03  0.75989798777E+03  0.00000000000E+00 0.  1.
          2   -1    0    0  501    0  0.00000000000E+00 -0.00000000000E+00 -0.73296519820E+03  0.73296519820E+03  0.00000000000E+00 0. -1.
         24    2    1    2    0    0  0.10654176131E+03 -0.44948879243E+03  0.52630063470E+02  0.47162138946E+03  0.79154848209E+02 0.  0.
        254    2    1    2    0    0 -0.10654176131E+03  0.44948879243E+03 -0.25697273904E+02  0.10212417965E+04  0.91043019261E+03 0.  0.
         23    2    4    4    0    0  0.11848165989E+03  0.14510864145E+03  0.39584856035E+03  0.44731474210E+03  0.91104194310E+02 0.  0.
         23    2    4    4    0    0 -0.22502342119E+03  0.30438015098E+03 -0.42154583425E+03  0.57392705440E+03  0.91698184307E+02 0.  0.
          4    1    3    3  502    0  0.11020446905E+03 -0.31725875145E+03  0.27534139353E+02  0.33698111104E+03  0.00000000000E+00 0. -1.
         -3    1    3    3    0  502 -0.36627077408E+01 -0.13223004098E+03  0.25095924118E+02  0.13464027842E+03  0.00000000000E+00 0.  1.
         11    1    5    5    0    0  0.44809271683E+02  0.12218689303E+03  0.22671787061E+03  0.26141633559E+03  0.00000000000E+00 0.  1.
        -11    1    5    5    0    0  0.73672388202E+02  0.22921748414E+02  0.16913068974E+03  0.18589840652E+03  0.00000000000E+00 0. -1.
          4    1    6    6  503    0 -0.27140983609E+02  0.89787711590E+02 -0.70298608765E+02  0.11721928399E+03  0.00000000000E+00 0. -1.
         -4    1    6    6    0  503 -0.19788243758E+03  0.21459243939E+03 -0.35124722549E+03  0.45670777042E+03  0.00000000000E+00 0.  1.
<mgrwt>
<rscale>  0 0.14926202E+04</rscale>
<asrwt>0</asrwt>
<pdfrwt beam="1">  1        2 0.11276388E+00 0.14926202E+04</pdfrwt>
<pdfrwt beam="2">  1       -1 0.11690738E+00 0.14926202E+04</pdfrwt>
<totfact> 0.28146407E+01</totfact>
</mgrwt>
</event>
<event>
12    6  0.1569942E-007  0.1902701E+04  0.7818608E-02  0.8653513E-01
         -1   -1    0    0    0  501 -0.00000000000E+00  0.00000000000E+00  0.54378567364E+03  0.54378567364E+03  0.00000000000E+00 0.  1.
          2   -1    0    0  501    0  0.00000000000E+00 -0.00000000000E+00 -0.16643828810E+04  0.16643828810E+04  0.00000000000E+00 0. -1.
         24    2    1    2    0    0  0.89417729628E+02 -0.14303643111E+03  0.39403772615E+03  0.43605725901E+03  0.80157672779E+02 0.  0.
        254    2    1    2    0    0 -0.89417729628E+02  0.14303643111E+03 -0.15146349335E+04  0.17721112956E+04  0.90432544545E+03 0.  0.
         23    2    4    4    0    0  0.36275758160E+03  0.35411541008E+02 -0.34503776691E+03  0.51021488487E+03  0.91766703651E+02 0.  0.
         23    2    4    4    0    0 -0.45217531123E+03  0.10762489011E+03 -0.11695971666E+04  0.12618964108E+04  0.91539009836E+02 0.  0.
          4    1    3    3  502    0  0.39260389485E+02 -0.73362082187E+01  0.11511410558E+03  0.12184603168E+03  0.00000000000E+00 0. -1.
         -3    1    3    3    0  502  0.50157340143E+02 -0.13570022289E+03  0.27892362057E+03  0.31421122732E+03  0.00000000000E+00 0.  1.
         11    1    5    5    0    0  0.33769927353E+03  0.34233452938E+02 -0.34654498916E+03  0.48508366099E+03  0.00000000000E+00 0.  1.
        -11    1    5    5    0    0  0.25058308071E+02  0.11780880703E+01  0.15072222490E+01  0.25131223882E+02  0.00000000000E+00 0. -1.
          1    1    6    6  503    0 -0.19906448247E+03  0.82097624467E+02 -0.61863511072E+03  0.65503899757E+03  0.00000000000E+00 0. -1.
         -1    1    6    6    0  503 -0.25311082876E+03  0.25527265638E+02 -0.55096205589E+03  0.60685741320E+03  0.00000000000E+00 0.  1.
<mgrwt>
<rscale>  0 0.19027008E+04</rscale>
<asrwt>0</asrwt>
<pdfrwt beam="1">  1        2 0.25605890E+00 0.19027008E+04</pdfrwt>
<pdfrwt beam="2">  1       -1 0.83659336E-01 0.19027008E+04</pdfrwt>
<totfact> 0.15515088E+01</totfact>
</mgrwt>
</event>
<event>
12    6  0.1569942E-007  0.2950045E+04  0.7818608E-02  0.8258141E-01
          2   -1    0    0  501    0  0.00000000000E+00  0.00000000000E+00  0.18575111115E+04  0.18575111115E+04  0.00000000000E+00 0. -1.
         -1   -1    0    0    0  501 -0.00000000000E+00 -0.00000000000E+00 -0.11712938289E+04  0.11712938289E+04  0.00000000000E+00 0.  1.
         24    2    1    2    0    0 -0.11657303612E+04 -0.20022267419E+03 -0.32605536276E+03  0.12296172967E+04  0.81426054515E+02 0.  0.
        254    2    1    2    0    0  0.11657303612E+04  0.20022267419E+03  0.10122726454E+04  0.17991876437E+04  0.90186688283E+03 0.  0.
         23    2    4    4    0    0 -0.11119351034E+03 -0.89151691171E+02  0.64914304506E+02  0.18036137281E+03  0.89466960888E+02 0.  0.
         23    2    4    4    0    0  0.12769238716E+04  0.28937436536E+03  0.94735834091E+03  0.16188262709E+04  0.94013681020E+02 0.  0.
          4    1    3    3  502    0 -0.10094649775E+03 -0.20404756226E+02 -0.52940849163E+01  0.10312408458E+03  0.00000000000E+00 0. -1.
         -3    1    3    3    0  502 -0.10647838635E+04 -0.17981791796E+03 -0.32076127784E+03  0.11264932121E+04  0.00000000000E+00 0.  1.
         11    1    5    5    0    0  0.14689534524E+02 -0.11388617411E+02 -0.47162117926E+00  0.18593156203E+02  0.00000000000E+00 0.  1.
        -11    1    5    5    0    0 -0.12588304487E+03 -0.77763073760E+02  0.65385925685E+02  0.16176821661E+03  0.00000000000E+00 0. -1.
          2    1    6    6  503    0  0.12065091213E+04  0.25050410882E+03  0.88993627168E+03  0.15200010315E+04  0.00000000000E+00 0. -1.
         -2    1    6    6    0  503  0.70414750299E+02  0.38870256538E+02  0.57422069235E+02  0.98825239378E+02  0.00000000000E+00 0.  1.
<mgrwt>
<rscale>  0 0.29500450E+04</rscale>
<asrwt>0</asrwt>
<pdfrwt beam="1">  1        2 0.28577094E+00 0.29500450E+04</pdfrwt>
<pdfrwt beam="2">  1       -1 0.18019905E+00 0.29500450E+04</pdfrwt>
<totfact> 0.16265069E+00</totfact>
</mgrwt>
</event>
<event>
12    6  0.1569942E-007  0.1010045E+04  0.7818608E-02  0.9297596E-01
          2   -1    0    0  501    0  0.00000000000E+00  0.00000000000E+00  0.26098476190E+04  0.26098476190E+04  0.00000000000E+00 0. -1.
         -1   -1    0    0    0  501 -0.00000000000E+00 -0.00000000000E+00 -0.97725162361E+02  0.97725162361E+02  0.00000000000E+00 0.  1.
         24    2    1    2    0    0 -0.69205325481E+02 -0.55641954646E+01  0.21518056454E+03  0.23958022792E+03  0.79219144817E+02 0.  0.
        254    2    1    2    0    0  0.69205325481E+02  0.55641954646E+01  0.22969418921E+04  0.24679925535E+04  0.90012490847E+03 0.  0.
         23    2    4    4    0    0 -0.38188834491E+03 -0.11811786828E+03  0.82896949476E+03  0.92475856789E+03  0.90539752910E+02 0.  0.
         23    2    4    4    0    0  0.45109367039E+03  0.12368206375E+03  0.14679723974E+04  0.15432339856E+04  0.88574389505E+02 0.  0.
          4    1    3    3  502    0 -0.71817873096E+02  0.12958813614E+02  0.20638833252E+03  0.21891067025E+03  0.00000000000E+00 0. -1.
         -3    1    3    3    0  502  0.26125476153E+01 -0.18523009079E+02  0.87922320200E+01  0.20669557670E+02  0.00000000000E+00 0.  1.
         11    1    5    5    0    0 -0.25536290171E+03 -0.94399368201E+02  0.64615443556E+03  0.70116831566E+03  0.00000000000E+00 0.  1.
        -11    1    5    5    0    0 -0.12652544320E+03 -0.23718500081E+02  0.18281505920E+03  0.22359025223E+03  0.00000000000E+00 0. -1.
          1    1    6    6  503    0  0.31076083258E+03  0.42213878797E+02  0.98700406005E+03  0.10356308808E+04  0.00000000000E+00 0. -1.
         -1    1    6    6    0  503  0.14033283781E+03  0.81468184950E+02  0.48096833733E+03  0.50760310483E+03  0.00000000000E+00 0.  1.
<mgrwt>
<rscale>  0 0.10100451E+04</rscale>
<asrwt>0</asrwt>
<pdfrwt beam="1">  1        2 0.40151496E+00 0.10100451E+04</pdfrwt>
<pdfrwt beam="2">  1       -1 0.15034642E-01 0.10100451E+04</pdfrwt>
<totfact> 0.11349464E+02</totfact>
</mgrwt>
</event>
<event>
12    6  0.1569942E-007  0.1505727E+04  0.7818608E-02  0.8880653E-01
          2   -1    0    0  501    0  0.00000000000E+00  0.00000000000E+00  0.27166863152E+04  0.27166863152E+04  0.00000000000E+00 0. -1.
         -1   -1    0    0    0  501 -0.00000000000E+00 -0.00000000000E+00 -0.20863790924E+03  0.20863790924E+03  0.00000000000E+00 0.  1.
         24    2    1    2    0    0 -0.18287732279E+03 -0.18789475717E+03  0.15757338330E+04  0.15994045988E+04  0.80058749266E+02 0.  0.
        254    2    1    2    0    0  0.18287732279E+03  0.18789475717E+03  0.93231457300E+03  0.13259196257E+04  0.90559584567E+03 0.  0.
         23    2    4    4    0    0  0.51722470091E+03  0.41132634603E+02  0.35182312894E+03  0.63358059859E+03  0.91823613477E+02 0.  0.
         23    2    4    4    0    0 -0.33434737812E+03  0.14676212257E+03  0.58049144406E+03  0.69233902706E+03  0.95056414274E+02 0.  0.
          2    1    3    3  502    0 -0.15981967832E+03 -0.18473063271E+03  0.13044148098E+04  0.13270891953E+04  0.00000000000E+00 0. -1.
         -1    1    3    3    0  502 -0.23057644468E+02 -0.31641244538E+01  0.27131902323E+03  0.27231540357E+03  0.00000000000E+00 0.  1.
         11    1    5    5    0    0  0.36283685378E+03  0.50330933574E+02  0.28923845363E+03  0.46673618715E+03  0.00000000000E+00 0. -1.
        -11    1    5    5    0    0  0.15438784713E+03 -0.91982989703E+01  0.62584675302E+02  0.16684441144E+03  0.00000000000E+00 0.  1.
          4    1    6    6  503    0 -0.18858339495E+03  0.10579677569E+03  0.41552976877E+03  0.46842463997E+03  0.00000000000E+00 0.  1.
         -4    1    6    6    0  503 -0.14576398316E+03  0.40965346872E+02  0.16496167529E+03  0.22391438709E+03  0.00000000000E+00 0. -1.
<mgrwt>
<rscale>  0 0.15057274E+04</rscale>
<asrwt>0</asrwt>
<pdfrwt beam="1">  1        2 0.41795172E+00 0.15057274E+04</pdfrwt>
<pdfrwt beam="2">  1       -1 0.32098142E-01 0.15057274E+04</pdfrwt>
<totfact> 0.25963396E+01</totfact>
</mgrwt>
</event>
<event>
12    6  0.1569942E-007  0.2642367E+04  0.7818608E-02  0.8353951E-01
          2   -1    0    0  501    0  0.00000000000E+00  0.00000000000E+00  0.16217961689E+04  0.16217961689E+04  0.00000000000E+00 0. -1.
         -1   -1    0    0    0  501 -0.00000000000E+00 -0.00000000000E+00 -0.10762914630E+04  0.10762914630E+04  0.00000000000E+00 0.  1.
         24    2    1    2    0    0  0.11641827401E+04 -0.39067509318E+02  0.28161444253E+03  0.12008662797E+04  0.76976650686E+02 0.  0.
        254    2    1    2    0    0 -0.11641827401E+04  0.39067509318E+02  0.26389026341E+03  0.14972213523E+04  0.90287650542E+03 0.  0.
         23    2    4    4    0    0 -0.10639001718E+04 -0.14299035823E+03  0.48392098479E+03  0.11811074415E+04  0.92225000929E+02 0.  0.
         23    2    4    4    0    0 -0.10028256834E+03  0.18205786755E+03 -0.22003072138E+03  0.31611391081E+03  0.91174698302E+02 0.  0.
          2    1    3    3  502    0  0.10091341726E+04 -0.90148280702E+01  0.23462084144E+03  0.10360887918E+04  0.00000000000E+00 0. -1.
         -1    1    3    3    0  502  0.15504856754E+03 -0.30052681248E+02  0.46993601086E+02  0.16477748781E+03  0.00000000000E+00 0.  1.
         11    1    5    5    0    0 -0.63193501891E+03 -0.12095456491E+03  0.25883335631E+03  0.69351754213E+03  0.00000000000E+00 0. -1.
        -11    1    5    5    0    0 -0.43196515285E+03 -0.22035793321E+02  0.22508762848E+03  0.48758989936E+03  0.00000000000E+00 0.  1.
          3    1    6    6  503    0 -0.11307566256E+02 -0.86144387256E+01 -0.45096674571E+01  0.14913306467E+02  0.00000000000E+00 0. -1.
         -3    1    6    6    0  503 -0.88975002080E+02  0.19067230627E+03 -0.21552105392E+03  0.30120060435E+03  0.00000000000E+00 0.  1.
<mgrwt>
<rscale>  0 0.26423666E+04</rscale>
<asrwt>0</asrwt>
<pdfrwt beam="1">  1        2 0.24950710E+00 0.26423666E+04</pdfrwt>
<pdfrwt beam="2">  1       -1 0.16558330E+00 0.26423666E+04</pdfrwt>
<totfact> 0.28874172E+00</totfact>
</mgrwt>
</event>
<event>
12    6  0.1569942E-007  0.1333891E+04  0.7818608E-02  0.9003113E-01
          4   -1    0    0  501    0  0.00000000000E+00  0.00000000000E+00  0.36966201176E+03  0.36966201176E+03  0.00000000000E+00 0. -1.
         -3   -1    0    0    0  501 -0.00000000000E+00 -0.00000000000E+00 -0.12033048039E+04  0.12033048039E+04  0.00000000000E+00 0.  1.
         24    2    1    2    0    0 -0.70780245539E+02  0.28449048356E+03  0.13767504830E+02  0.30388205141E+03  0.78804051856E+02 0.  0.
        254    2    1    2    0    0  0.70780245539E+02 -0.28449048356E+03 -0.84741029702E+03  0.12690847643E+04  0.89806862158E+03 0.  0.
         23    2    4    4    0    0 -0.14391661105E+03 -0.29850584100E+03  0.45069571540E+02  0.34646876917E+03  0.90507533860E+02 0.  0.
         23    2    4    4    0    0  0.21469685659E+03  0.14015357440E+02 -0.89247986856E+03  0.92261599512E+03  0.91699444930E+02 0.  0.
          4    1    3    3  502    0 -0.67758116366E+02  0.18612238868E+03  0.39912813715E+02  0.20205380125E+03  0.00000000000E+00 0. -1.
         -3    1    3    3    0  502 -0.30221291738E+01  0.98368094874E+02 -0.26145308885E+02  0.10182825016E+03  0.00000000000E+00 0.  1.
         11    1    5    5    0    0 -0.35778032931E+02 -0.91146068481E+02 -0.27322681883E+02  0.10165727906E+03  0.00000000000E+00 0. -1.
        -11    1    5    5    0    0 -0.10813857812E+03 -0.20735977251E+03  0.72392253423E+02  0.24481149011E+03  0.00000000000E+00 0.  1.
          3    1    6    6  503    0  0.32536385462E+02  0.19686107272E+02 -0.30912192001E+03  0.31145227665E+03  0.00000000000E+00 0. -1.
         -3    1    6    6    0  503  0.18216047113E+03 -0.56707498321E+01 -0.58335794854E+03  0.61116371847E+03  0.00000000000E+00 0.  1.
<mgrwt>
<rscale>  0 0.13338907E+04</rscale>
<asrwt>0</asrwt>
<pdfrwt beam="1">  1        4 0.56871080E-01 0.13338907E+04</pdfrwt>
<pdfrwt beam="2">  1       -3 0.18512381E+00 0.13338907E+04</pdfrwt>
<totfact> 0.12032786E+00</totfact>
</mgrwt>
</event>
<event>
12    6  0.1569942E-007  0.1772753E+04  0.7818608E-02  0.8720925E-01
         -1   -1    0    0    0  501 -0.00000000000E+00  0.00000000000E+00  0.30792022528E+03  0.30792022528E+03  0.00000000000E+00 0.  1.
          2   -1    0    0  501    0  0.00000000000E+00 -0.00000000000E+00 -0.25515167020E+04  0.25515167020E+04  0.00000000000E+00 0. -1.
         24    2    1    2    0    0  0.31838926380E+03  0.40283817037E+03 -0.14901734441E+04  0.15784074032E+04  0.84277648390E+02 0.  0.
        254    2    1    2    0    0 -0.31838926380E+03 -0.40283817037E+03 -0.75342303260E+03  0.12810295241E+04  0.89985557773E+03 0.  0.
         23    2    4    4    0    0 -0.30438631407E+02  0.27589084164E+03 -0.24262447416E+03  0.37965331893E+03  0.90706892450E+02 0.  0.
         23    2    4    4    0    0 -0.28795063240E+03 -0.67872901201E+03 -0.51079855845E+03  0.90137620518E+03  0.89304297277E+02 0.  0.
          4    1    3    3  502    0  0.26662925494E+03  0.30454698081E+03 -0.10766840585E+04  0.11502558780E+04  0.00000000000E+00 0. -1.
         -3    1    3    3    0  502  0.51760008859E+02  0.98291189566E+02 -0.41348938563E+03  0.42815152516E+03  0.00000000000E+00 0.  1.
         11    1    5    5    0    0  0.98652301170E+00  0.59083238894E+02 -0.96817763018E+01  0.59879371558E+02  0.00000000000E+00 0.  1.
        -11    1    5    5    0    0 -0.31425154419E+02  0.21680760274E+03 -0.23294269785E+03  0.31977394738E+03  0.00000000000E+00 0. -1.
          1    1    6    6  503    0 -0.21400801081E+03 -0.58550893452E+03 -0.41948320924E+03  0.75138958199E+03  0.00000000000E+00 0. -1.
         -1    1    6    6    0  503 -0.73942621584E+02 -0.93220077486E+02 -0.91315349204E+02  0.14998662318E+03  0.00000000000E+00 0.  1.
<mgrwt>
<rscale>  0 0.17727533E+04</rscale>
<asrwt>0</asrwt>
<pdfrwt beam="1">  1        2 0.39254103E+00 0.17727533E+04</pdfrwt>
<pdfrwt beam="2">  1       -1 0.47372342E-01 0.17727533E+04</pdfrwt>
<totfact> 0.15586901E+01</totfact>
</mgrwt>
</event>
<event>
12    6  0.1569942E-007  0.2226350E+04  0.7818608E-02  0.8507540E-01
          2   -1    0    0  501    0  0.00000000000E+00  0.00000000000E+00  0.32458436808E+04  0.32458436808E+04  0.00000000000E+00 0. -1.
         -1   -1    0    0    0  501 -0.00000000000E+00 -0.00000000000E+00 -0.38176776559E+03  0.38176776559E+03  0.00000000000E+00 0.  1.
         24    2    1    2    0    0 -0.77942935771E+03 -0.29685135486E+03  0.53176495737E+03  0.99226326153E+03  0.78622895800E+02 0.  0.
        254    2    1    2    0    0  0.77942935771E+03  0.29685135486E+03  0.23323109578E+04  0.26353481849E+04  0.89986376796E+03 0.  0.
         23    2    4    4    0    0  0.79969003415E+03 -0.78719090341E+01  0.20783741677E+04  0.22288289451E+04  0.92049811849E+02 0.  0.
         23    2    4    4    0    0 -0.20260676439E+02  0.30472326390E+03  0.25393679016E+03  0.40651923979E+03  0.86644309416E+02 0.  0.
          2    1    3    3  502    0 -0.17291616989E+03 -0.82707997517E+02  0.15754738444E+03  0.24811649080E+03  0.00000000000E+00 0. -1.
         -1    1    3    3    0  502 -0.60651318781E+03 -0.21414335735E+03  0.37421757293E+03  0.74414677073E+03  0.00000000000E+00 0.  1.
         11    1    5    5    0    0  0.49558019791E+03 -0.19148626115E+02  0.11678219228E+04  0.12687688701E+04  0.00000000000E+00 0.  1.
        -11    1    5    5    0    0  0.30410983623E+03  0.11276717081E+02  0.91055224490E+03  0.96006007496E+03  0.00000000000E+00 0. -1.
          1    1    6    6  503    0  0.29016660111E+01  0.27401978607E+03  0.19574425388E+03  0.33676560951E+03  0.00000000000E+00 0. -1.
         -1    1    6    6    0  503 -0.23162342450E+02  0.30703477830E+02  0.58192536281E+02  0.69753630281E+02  0.00000000000E+00 0.  1.
<mgrwt>
<rscale>  0 0.22263499E+04</rscale>
<asrwt>0</asrwt>
<pdfrwt beam="1">  1        2 0.49936055E+00 0.22263499E+04</pdfrwt>
<pdfrwt beam="2">  1       -1 0.58733505E-01 0.22263499E+04</pdfrwt>
<totfact> 0.36963873E+00</totfact>
</mgrwt>
</event>
<event>
12    6  0.1569942E-007  0.1435375E+04  0.7818608E-02  0.8928603E-01
         -3   -1    0    0    0  501 -0.00000000000E+00  0.00000000000E+00  0.53643088209E+03  0.53643088209E+03  0.00000000000E+00 0.  1.
          2   -1    0    0  501    0  0.00000000000E+00 -0.00000000000E+00 -0.96018930995E+03  0.96018930995E+03  0.00000000000E+00 0. -1.
         24    2    1    2    0    0 -0.26434305090E+03  0.29549589969E+03 -0.29871021298E+03  0.50287247778E+03  0.80360825534E+02 0.  0.
        254    2    1    2    0    0  0.26434305090E+03 -0.29549589969E+03 -0.12504821488E+03  0.99374771425E+03  0.90260865730E+03 0.  0.
         23    2    4    4    0    0  0.65178544446E+02  0.22801165920E+03  0.21455574750E+03  0.33240140084E+03  0.90658497144E+02 0.  0.
         23    2    4    4    0    0  0.19916450646E+03 -0.52350755890E+03 -0.33960396238E+03  0.66134631341E+03  0.91221873183E+02 0.  0.
          4    1    3    3  502    0 -0.92782005237E+02  0.58617383511E+02 -0.10622947455E+03  0.15273899112E+03  0.00000000000E+00 0. -1.
         -3    1    3    3    0  502 -0.17156104567E+03  0.23687851618E+03 -0.19248073843E+03  0.35013348666E+03  0.00000000000E+00 0.  1.
         11    1    5    5    0    0 -0.21194117388E+02  0.25350180458E+02  0.21001409623E+02  0.39152030180E+02  0.00000000000E+00 0.  1.
        -11    1    5    5    0    0  0.86372661834E+02  0.20266147875E+03  0.19355433788E+03  0.29324937066E+03  0.00000000000E+00 0. -1.
          3    1    6    6  503    0  0.20594728441E+03 -0.46568099167E+03 -0.30132296493E+03  0.59166595234E+03  0.00000000000E+00 0. -1.
         -3    1    6    6    0  503 -0.67827779566E+01 -0.57826567228E+02 -0.38280997449E+02  0.69680361077E+02  0.00000000000E+00 0.  1.
<mgrwt>
<rscale>  0 0.14353748E+04</rscale>
<asrwt>0</asrwt>
<pdfrwt beam="1">  1        2 0.14772143E+00 0.14353748E+04</pdfrwt>
<pdfrwt beam="2">  1       -3 0.82527829E-01 0.14353748E+04</pdfrwt>
<totfact> 0.22344153E+01</totfact>
</mgrwt>
</event>
<event>
12    6  0.1569942E-007  0.1439185E+04  0.7818608E-02  0.8925933E-01
         -1   -1    0    0    0  501 -0.00000000000E+00  0.00000000000E+00  0.80376121235E+03  0.80376121235E+03  0.00000000000E+00 0.  1.
          2   -1    0    0  501    0  0.00000000000E+00 -0.00000000000E+00 -0.64423756776E+03  0.64423756776E+03  0.00000000000E+00 0. -1.
         24    2    1    2    0    0  0.40327026927E+03 -0.21854573069E+02 -0.11179647995E+03  0.42650649827E+03  0.79402819139E+02 0.  0.
        254    2    1    2    0    0 -0.40327026927E+03  0.21854573069E+02  0.27132012454E+03  0.10214922818E+04  0.89818001505E+03 0.  0.
         23    2    4    4    0    0 -0.39306979231E+03 -0.18521291288E+03  0.52094073984E+03  0.68442057844E+03  0.90799719434E+02 0.  0.
         23    2    4    4    0    0 -0.10200476969E+02  0.20706748594E+03 -0.24962061530E+03  0.33707170340E+03  0.91246305061E+02 0.  0.
          4    1    3    3  502    0  0.12711384847E+03 -0.32902714846E+02 -0.89295088913E+01  0.13160644075E+03  0.00000000000E+00 0. -1.
         -3    1    3    3    0  502  0.27615642080E+03  0.11048141777E+02 -0.10286697106E+03  0.29490005751E+03  0.00000000000E+00 0.  1.
         11    1    5    5    0    0 -0.25979945394E+02  0.50442754236E+01  0.13038294438E+02  0.29502532079E+02  0.00000000000E+00 0.  1.
        -11    1    5    5    0    0 -0.36708984691E+03 -0.19025718830E+03  0.50790244540E+03  0.65491804636E+03  0.00000000000E+00 0. -1.
          3    1    6    6  503    0  0.31124544172E+02  0.16329959664E+03 -0.17935534856E+03  0.24454822954E+03  0.00000000000E+00 0. -1.
         -3    1    6    6    0  503 -0.41325021140E+02  0.43767889305E+02 -0.70265266738E+02  0.92523473866E+02  0.00000000000E+00 0.  1.
<mgrwt>
<rscale>  0 0.14391847E+04</rscale>
<asrwt>0</asrwt>
<pdfrwt beam="1">  1        2 0.99113473E-01 0.14391847E+04</pdfrwt>
<pdfrwt beam="2">  1       -1 0.12365557E+00 0.14391847E+04</pdfrwt>
<totfact> 0.28988300E+01</totfact>
</mgrwt>
</event>
<event>
12    6  0.1569942E-007  0.3239324E+04  0.7818608E-02  0.8178508E-01
          2   -1    0    0  501    0  0.00000000000E+00  0.00000000000E+00  0.38155736011E+04  0.38155736011E+04  0.00000000000E+00 0. -1.
         -1   -1    0    0    0  501 -0.00000000000E+00 -0.00000000000E+00 -0.68752560894E+03  0.68752560894E+03  0.00000000000E+00 0.  1.
         24    2    1    2    0    0  0.10027339219E+04 -0.10641460859E+04  0.10376918600E+04  0.17948658823E+04  0.82806576026E+02 0.  0.
        254    2    1    2    0    0 -0.10027339219E+04  0.10641460859E+04  0.20903561321E+04  0.27082333277E+04  0.90942662599E+03 0.  0.
         23    2    4    4    0    0 -0.31058159892E+02 -0.13966819575E+03  0.17362337555E+03  0.24338997015E+03  0.92853577373E+02 0.  0.
         23    2    4    4    0    0 -0.97167576198E+03  0.12038142816E+04  0.19167327566E+04  0.24648433576E+04  0.90915928870E+02 0.  0.
          4    1    3    3  502    0  0.40097012032E+03 -0.46272994806E+03  0.39533581958E+03  0.72882539230E+03  0.00000000000E+00 0. -1.
         -3    1    3    3    0  502  0.60176380155E+03 -0.60141613779E+03  0.64235604042E+03  0.10660404900E+04  0.00000000000E+00 0.  1.
         11    1    5    5    0    0 -0.54284538900E+02 -0.40649967775E+02  0.82851979199E+02  0.10706858316E+03  0.00000000000E+00 0.  1.
        -11    1    5    5    0    0  0.23226379008E+02 -0.99018227979E+02  0.90771396348E+02  0.13632138698E+03  0.00000000000E+00 0. -1.
          1    1    6    6  503    0 -0.15113272414E+03  0.15198001945E+03  0.30192165610E+03  0.37026438263E+03  0.00000000000E+00 0. -1.
         -1    1    6    6    0  503 -0.82054303783E+03  0.10518342622E+04  0.16148111005E+04  0.20945789749E+04  0.00000000000E+00 0.  1.
<mgrwt>
<rscale>  0 0.32393237E+04</rscale>
<asrwt>0</asrwt>
<pdfrwt beam="1">  1        2 0.58701131E+00 0.32393237E+04</pdfrwt>
<pdfrwt beam="2">  1       -1 0.10577317E+00 0.32393237E+04</pdfrwt>
<totfact> 0.38050652E-01</totfact>
</mgrwt>
</event>
<event>
12    6  0.1569942E-007  0.1955107E+04  0.7818608E-02  0.8627902E-01
         -1   -1    0    0    0  501 -0.00000000000E+00  0.00000000000E+00  0.34154013398E+03  0.34154013398E+03  0.00000000000E+00 0.  1.
          2   -1    0    0  501    0  0.00000000000E+00 -0.00000000000E+00 -0.27979458707E+04  0.27979458707E+04  0.00000000000E+00 0. -1.
         24    2    1    2    0    0 -0.42309573178E+03 -0.56010720096E+03 -0.14826182133E+04  0.16422865537E+04  0.78856092722E+02 0.  0.
        254    2    1    2    0    0  0.42309573178E+03  0.56010720096E+03 -0.97378752343E+03  0.14971994509E+04  0.89477035060E+03 0.  0.
         23    2    4    4    0    0 -0.18698790790E+03  0.45419055197E+03 -0.53901613641E+03  0.73489322925E+03  0.90973226250E+02 0.  0.
         23    2    4    4    0    0  0.61008363968E+03  0.10591664899E+03 -0.43477138702E+03  0.76230622170E+03  0.93081860337E+02 0.  0.
          2    1    3    3  502    0 -0.34925379286E+03 -0.46773713605E+03 -0.11582759490E+04  0.12970579842E+04  0.00000000000E+00 0. -1.
         -1    1    3    3    0  502 -0.73841938930E+02 -0.92370064909E+02 -0.32434226428E+03  0.34522856955E+03  0.00000000000E+00 0.  1.
         11    1    5    5    0    0 -0.89119881324E+02  0.20155601034E+03 -0.30873324148E+03  0.37931964482E+03  0.00000000000E+00 0.  1.
        -11    1    5    5    0    0 -0.97868026572E+02  0.25263454163E+03 -0.23028289493E+03  0.35557358443E+03  0.00000000000E+00 0. -1.
          4    1    6    6  503    0  0.56276057113E+03  0.10781101524E+03 -0.42633010671E+03  0.71419887659E+03  0.00000000000E+00 0. -1.
         -4    1    6    6    0  503  0.47323068548E+02 -0.18943662485E+01 -0.84412803120E+01  0.48107345110E+02  0.00000000000E+00 0.  1.
<mgrwt>
<rscale>  0 0.19551070E+04</rscale>
<asrwt>0</asrwt>
<pdfrwt beam="1">  1        2 0.43045323E+00 0.19551070E+04</pdfrwt>
<pdfrwt beam="2">  1       -1 0.52544634E-01 0.19551070E+04</pdfrwt>
<totfact> 0.89988820E+00</totfact>
</mgrwt>
</event>
<event>
12    6  0.1569942E-007  0.1660433E+04  0.7818608E-02  0.8784258E-01
         -1   -1    0    0    0  501 -0.00000000000E+00  0.00000000000E+00  0.15781796872E+04  0.15781796872E+04  0.00000000000E+00 0.  1.
          2   -1    0    0  501    0  0.00000000000E+00 -0.00000000000E+00 -0.43674355360E+03  0.43674355360E+03  0.00000000000E+00 0. -1.
         24    2    1    2    0    0  0.31666499380E+03 -0.37507909302E+03 -0.16056788852E+02  0.49773991684E+03  0.80784652215E+02 0.  0.
        254    2    1    2    0    0 -0.31666499380E+03  0.37507909302E+03  0.11574929224E+04  0.15171833239E+04  0.84917273192E+03 0.  0.
         23    2    4    4    0    0  0.19701396624E+03  0.92839338833E+02  0.77863323114E+03  0.81367914115E+03  0.91489837546E+02 0.  0.
         23    2    4    4    0    0 -0.51367896004E+03  0.28223975418E+03  0.37885969129E+03  0.70350418279E+03  0.88646019006E+02 0.  0.
          2    1    3    3  502    0  0.31620093752E+03 -0.37119212081E+03 -0.67682159923E+01  0.48766016055E+03  0.00000000000E+00 0. -1.
         -1    1    3    3    0  502  0.46405627960E+00 -0.38869722108E+01 -0.92885728599E+01  0.10079756295E+02  0.00000000000E+00 0.  1.
         11    1    5    5    0    0  0.18534134685E+03  0.10873955175E+03  0.68195762469E+03  0.71501182286E+03  0.00000000000E+00 0.  1.
        -11    1    5    5    0    0  0.11672619394E+02 -0.15900212917E+02  0.96675606454E+02  0.98667318285E+02  0.00000000000E+00 0. -1.
          1    1    6    6  503    0 -0.15334388723E+03  0.50866774668E+02  0.73116487915E+02  0.17733526813E+03  0.00000000000E+00 0. -1.
         -1    1    6    6    0  503 -0.36033507281E+03  0.23137297952E+03  0.30574320338E+03  0.52616891466E+03  0.00000000000E+00 0.  1.
<mgrwt>
<rscale>  0 0.16604334E+04</rscale>
<asrwt>0</asrwt>
<pdfrwt beam="1">  1        2 0.67191317E-01 0.16604334E+04</pdfrwt>
<pdfrwt beam="2">  1       -1 0.24279687E+00 0.16604334E+04</pdfrwt>
<totfact> 0.61051860E+00</totfact>
</mgrwt>
</event>
<event>
12    6  0.1569942E-007  0.1425782E+04  0.7818608E-02  0.8935365E-01
          2   -1    0    0  501    0  0.00000000000E+00  0.00000000000E+00  0.11548251836E+04  0.11548251836E+04  0.00000000000E+00 0. -1.
         -1   -1    0    0    0  501 -0.00000000000E+00 -0.00000000000E+00 -0.44007837760E+03  0.44007837760E+03  0.00000000000E+00 0.  1.
         24    2    1    2    0    0  0.21092003185E+03  0.12068012992E+03  0.62297813747E+03  0.67369311641E+03  0.81912769159E+02 0.  0.
        254    2    1    2    0    0 -0.21092003185E+03 -0.12068012992E+03  0.91768668584E+02  0.92121044483E+03  0.88383043710E+03 0.  0.
         23    2    4    4    0    0 -0.12879011461E+03 -0.30867169262E+03  0.40680057646E+03  0.53403891672E+03  0.88576227722E+02 0.  0.
         23    2    4    4    0    0 -0.82129917240E+02  0.18799156270E+03 -0.31503190788E+03  0.38717152810E+03  0.92577201510E+02 0.  0.
          4    1    3    3  502    0  0.15991343791E+03  0.12492204932E+03  0.53066964678E+03  0.56814443590E+03  0.00000000000E+00 0. -1.
         -3    1    3    3    0  502  0.51006593939E+02 -0.42419194046E+01  0.92308490688E+02  0.10554868052E+03  0.00000000000E+00 0.  1.
         11    1    5    5    0    0 -0.12297572699E+03 -0.23844043382E+03  0.27268816415E+03  0.38253850104E+03  0.00000000000E+00 0. -1.
        -11    1    5    5    0    0 -0.58143876243E+01 -0.70231258796E+02  0.13411241232E+03  0.15150041569E+03  0.00000000000E+00 0.  1.
          4    1    6    6  503    0 -0.48401648070E+02  0.18014419575E+03 -0.23547663034E+03  0.30040621537E+03  0.00000000000E+00 0. -1.
         -4    1    6    6    0  503 -0.33728269169E+02  0.78473669536E+01 -0.79555277537E+02  0.86765312730E+02  0.00000000000E+00 0.  1.
<mgrwt>
<rscale>  0 0.14257820E+04</rscale>
<asrwt>0</asrwt>
<pdfrwt beam="1">  1        2 0.17766541E+00 0.14257820E+04</pdfrwt>
<pdfrwt beam="2">  1       -1 0.67704366E-01 0.14257820E+04</pdfrwt>
<totfact> 0.49357232E+01</totfact>
</mgrwt>
</event>
<event>
12    6  0.1569942E-007  0.1395091E+04  0.7818608E-02  0.8957379E-01
          2   -1    0    0  501    0  0.00000000000E+00  0.00000000000E+00  0.46289004649E+03  0.46289004649E+03  0.00000000000E+00 0. -1.
         -1   -1    0    0    0  501 -0.00000000000E+00 -0.00000000000E+00 -0.10511566512E+04  0.10511566512E+04  0.00000000000E+00 0.  1.
         24    2    1    2    0    0 -0.18532186847E+03 -0.30268616525E+02 -0.55236870399E+03  0.58886074160E+03  0.79908721505E+02 0.  0.
        254    2    1    2    0    0  0.18532186847E+03  0.30268616525E+02 -0.35897900762E+02  0.92518595613E+03  0.90521821129E+03 0.  0.
         23    2    4    4    0    0 -0.30138512597E+03 -0.16034007758E+03  0.12011945110E+03  0.37265823626E+03  0.88901877845E+02 0.  0.
         23    2    4    4    0    0  0.48670699444E+03  0.19060869410E+03 -0.15601735187E+03  0.55252771987E+03  0.87920955600E+02 0.  0.
          2    1    3    3  502    0 -0.14363209476E+02  0.20637145544E+02 -0.55063091517E+02  0.60532120482E+02  0.00000000000E+00 0. -1.
         -1    1    3    3    0  502 -0.17095865899E+03 -0.50905762069E+02 -0.49730561247E+03  0.52832862112E+03  0.00000000000E+00 0.  1.
         11    1    5    5    0    0 -0.87198350494E+02 -0.33278662025E+02  0.74622712250E+02  0.11949715837E+03  0.00000000000E+00 0.  1.
        -11    1    5    5    0    0 -0.21418677548E+03 -0.12706141555E+03  0.45496738853E+02  0.25316107789E+03  0.00000000000E+00 0. -1.
          2    1    6    6  503    0  0.26954649163E+03  0.11601798821E+03 -0.42936000916E+02  0.29657880051E+03  0.00000000000E+00 0. -1.
         -2    1    6    6    0  503  0.21716050281E+03  0.74590705889E+02 -0.11308135095E+03  0.25594891936E+03  0.00000000000E+00 0.  1.
<mgrwt>
<rscale>  0 0.13950913E+04</rscale>
<asrwt>0</asrwt>
<pdfrwt beam="1">  1        2 0.71213854E-01 0.13950913E+04</pdfrwt>
<pdfrwt beam="2">  1       -1 0.16171641E+00 0.13950913E+04</pdfrwt>
<totfact> 0.21265336E+01</totfact>
</mgrwt>
</event>
<event>
12    6  0.1569942E-007  0.2136705E+04  0.7818608E-02  0.8545245E-01
         -1   -1    0    0    0  501 -0.00000000000E+00  0.00000000000E+00  0.27672692383E+03  0.27672692383E+03  0.00000000000E+00 0.  1.
          2   -1    0    0  501    0  0.00000000000E+00 -0.00000000000E+00 -0.41245600581E+04  0.41245600581E+04  0.00000000000E+00 0. -1.
         24    2    1    2    0    0  0.37789270959E+03 -0.71846767764E+03 -0.87288595727E+03  0.11948269753E+04  0.81749022238E+02 0.  0.
        254    2    1    2    0    0 -0.37789270959E+03  0.71846767764E+03 -0.29749471770E+04  0.32064600067E+04  0.87867876079E+03 0.  0.
         23    2    4    4    0    0 -0.58614152870E+03  0.19332230728E+03 -0.15944048132E+04  0.17120026177E+04  0.88830449313E+02 0.  0.
         23    2    4    4    0    0  0.20824881911E+03  0.52514537035E+03 -0.13805423638E+04  0.14944573889E+04  0.91435432620E+02 0.  0.
          4    1    3    3  502    0  0.90768231790E+02 -0.16521580228E+03 -0.25540883885E+03  0.31744103104E+03  0.00000000000E+00 0. -1.
         -3    1    3    3    0  502  0.28712447780E+03 -0.55325187536E+03 -0.61747711841E+03  0.87738594422E+03  0.00000000000E+00 0.  1.
         11    1    5    5    0    0 -0.48659812110E+02 -0.84172986673E+01 -0.13393865143E+03  0.14275219991E+03  0.00000000000E+00 0.  1.
        -11    1    5    5    0    0 -0.53748171659E+03  0.20173960595E+03 -0.14604661617E+04  0.15692504178E+04  0.00000000000E+00 0. -1.
          4    1    6    6  503    0  0.10373355971E+03  0.35992119207E+03 -0.96764817556E+03  0.10376159731E+04  0.00000000000E+00 0. -1.
         -4    1    6    6    0  503  0.10451525940E+03  0.16522417828E+03 -0.41289418828E+03  0.45684141587E+03  0.00000000000E+00 0.  1.
<mgrwt>
<rscale>  0 0.21367048E+04</rscale>
<asrwt>0</asrwt>
<pdfrwt beam="1">  1        2 0.63454769E+00 0.21367048E+04</pdfrwt>
<pdfrwt beam="2">  1       -1 0.42573374E-01 0.21367048E+04</pdfrwt>
<totfact> 0.15463455E+00</totfact>
</mgrwt>
</event>
<event>
12    6  0.1569942E-007  0.2424878E+04  0.7818608E-02  0.8430248E-01
          2   -1    0    0  501    0  0.00000000000E+00  0.00000000000E+00  0.15449843589E+04  0.15449843589E+04  0.00000000000E+00 0. -1.
         -1   -1    0    0    0  501 -0.00000000000E+00 -0.00000000000E+00 -0.95147135155E+03  0.95147135155E+03  0.00000000000E+00 0.  1.
         24    2    1    2    0    0 -0.77197739312E+02 -0.10339972677E+04  0.34335724955E+03  0.10951329232E+04  0.79448587676E+02 0.  0.
        254    2    1    2    0    0  0.77197739312E+02  0.10339972677E+04  0.25015575785E+03  0.14013227872E+04  0.90885521961E+03 0.  0.
         23    2    4    4    0    0 -0.57459885067E+02 -0.96448672055E+02  0.21466002349E+03  0.25878371553E+03  0.91028023192E+02 0.  0.
         23    2    4    4    0    0  0.13465762438E+03  0.11304459398E+04  0.35495734359E+02  0.11425390717E+04  0.89971576797E+02 0.  0.
          4    1    3    3  502    0 -0.67244305826E+02 -0.66786314141E+03  0.18632661951E+03  0.69662083048E+03  0.00000000000E+00 0. -1.
         -3    1    3    3    0  502 -0.99534334855E+01 -0.36613412634E+03  0.15703063003E+03  0.39851209276E+03  0.00000000000E+00 0.  1.
         11    1    5    5    0    0 -0.72315902101E+02 -0.37408062806E+02  0.99910039159E+02  0.12888354738E+03  0.00000000000E+00 0. -1.
        -11    1    5    5    0    0  0.14856017034E+02 -0.59040609249E+02  0.11474998433E+03  0.12990016815E+03  0.00000000000E+00 0.  1.
          3    1    6    6  503    0  0.39772969367E+02  0.10922320818E+03  0.87678054563E+01  0.11656960457E+03  0.00000000000E+00 0. -1.
         -3    1    6    6    0  503  0.94884655012E+02  0.10212227316E+04  0.26727928903E+02  0.10259694671E+04  0.00000000000E+00 0.  1.
<mgrwt>
<rscale>  0 0.24248780E+04</rscale>
<asrwt>0</asrwt>
<pdfrwt beam="1">  1        2 0.23768990E+00 0.24248780E+04</pdfrwt>
<pdfrwt beam="2">  1       -1 0.14638021E+00 0.24248780E+04</pdfrwt>
<totfact> 0.45595211E+00</totfact>
</mgrwt>
</event>
<event>
12    6  0.1569942E-007  0.1820282E+04  0.7818608E-02  0.8695587E-01
          2   -1    0    0  501    0  0.00000000000E+00  0.00000000000E+00  0.11847828028E+04  0.11847828028E+04  0.00000000000E+00 0. -1.
         -1   -1    0    0    0  501 -0.00000000000E+00 -0.00000000000E+00 -0.69916362954E+03  0.69916362954E+03  0.00000000000E+00 0.  1.
         24    2    1    2    0    0  0.65847406982E+03 -0.15492336679E+03  0.14436286473E+03  0.69607439259E+03  0.78035716849E+02 0.  0.
        254    2    1    2    0    0 -0.65847406982E+03  0.15492336679E+03  0.34125630854E+03  0.11878720398E+04  0.91487417960E+03 0.  0.
         23    2    4    4    0    0  0.49436142065E+02 -0.25643983771E+03 -0.40809648280E+02  0.27958842494E+03  0.91098504154E+02 0.  0.
         23    2    4    4    0    0 -0.70791021189E+03  0.41136320450E+03  0.38206595682E+03  0.90828361482E+03  0.92995566982E+02 0.  0.
          4    1    3    3  502    0  0.50024933013E+03 -0.10566072410E+03  0.76398386464E+02  0.51696256573E+03  0.00000000000E+00 0. -1.
         -3    1    3    3    0  502  0.15822473969E+03 -0.49262642688E+02  0.67964478270E+02  0.17911182686E+03  0.00000000000E+00 0.  1.
         11    1    5    5    0    0 -0.17514794723E+02 -0.14119147363E+03 -0.33149477942E+02  0.14608452398E+03  0.00000000000E+00 0. -1.
        -11    1    5    5    0    0  0.66950936788E+02 -0.11524836408E+03 -0.76601703378E+01  0.13350390095E+03  0.00000000000E+00 0.  1.
          1    1    6    6  503    0 -0.35533648194E+03  0.15554174329E+03  0.19612710393E+03  0.43465283871E+03  0.00000000000E+00 0. -1.
         -1    1    6    6    0  503 -0.35257372995E+03  0.25582146120E+03  0.18593885289E+03  0.47363077611E+03  0.00000000000E+00 0.  1.
<mgrwt>
<rscale>  0 0.18202824E+04</rscale>
<asrwt>0</asrwt>
<pdfrwt beam="1">  1        2 0.18227428E+00 0.18202824E+04</pdfrwt>
<pdfrwt beam="2">  1       -1 0.10756364E+00 0.18202824E+04</pdfrwt>
<totfact> 0.16729030E+01</totfact>
</mgrwt>
</event>
<event>
12    6  0.1569942E-007  0.2513160E+04  0.7818608E-02  0.8398312E-01
          2   -1    0    0  501    0  0.00000000000E+00  0.00000000000E+00  0.26462985516E+04  0.26462985516E+04  0.00000000000E+00 0. -1.
         -1   -1    0    0    0  501 -0.00000000000E+00 -0.00000000000E+00 -0.59668007753E+03  0.59668007753E+03  0.00000000000E+00 0.  1.
         24    2    1    2    0    0 -0.28231570331E+03  0.28317038326E+03  0.21976694571E+04  0.22353070407E+04  0.83420028815E+02 0.  0.
        254    2    1    2    0    0  0.28231570331E+03 -0.28317038326E+03 -0.14805098311E+03  0.10076715884E+04  0.91301441067E+03 0.  0.
         23    2    4    4    0    0 -0.30380490137E+03 -0.12275735529E+03 -0.19388639551E+03  0.39138667486E+03  0.90690730088E+02 0.  0.
         23    2    4    4    0    0  0.58612060468E+03 -0.16041302797E+03  0.45835412402E+02  0.61628491350E+03  0.91850458942E+02 0.  0.
          2    1    3    3  502    0 -0.18457847885E+03  0.12664559324E+03  0.12274339884E+04  0.12476788517E+04  0.00000000000E+00 0. -1.
         -1    1    3    3    0  502 -0.97737224454E+02  0.15652479001E+03  0.97023546876E+03  0.98762818903E+03  0.00000000000E+00 0.  1.
         11    1    5    5    0    0 -0.28341905291E+03 -0.88746217836E+02 -0.18749637786E+03  0.35122235470E+03  0.00000000000E+00 0. -1.
        -11    1    5    5    0    0 -0.20385848454E+02 -0.34011137457E+02 -0.63900176536E+01  0.40164320160E+02  0.00000000000E+00 0.  1.
          2    1    6    6  503    0  0.12149796221E+03 -0.63364978635E+02  0.35368467003E+02  0.14151962336E+03  0.00000000000E+00 0. -1.
         -2    1    6    6    0  503  0.46462264247E+03 -0.97048049330E+02  0.10466945400E+02  0.47476529013E+03  0.00000000000E+00 0.  1.
<mgrwt>
<rscale>  0 0.25131603E+04</rscale>
<asrwt>0</asrwt>
<pdfrwt beam="1">  1        2 0.40712285E+00 0.25131603E+04</pdfrwt>
<pdfrwt beam="2">  1       -1 0.91796937E-01 0.25131603E+04</pdfrwt>
<totfact> 0.33472137E+00</totfact>
</mgrwt>
</event>
<event>
12    6  0.1569942E-007  0.2669500E+04  0.7818608E-02  0.8344969E-01
          2   -1    0    0  501    0  0.00000000000E+00  0.00000000000E+00  0.12918280094E+04  0.12918280094E+04  0.00000000000E+00 0. -1.
         -1   -1    0    0    0  501 -0.00000000000E+00 -0.00000000000E+00 -0.13790984570E+04  0.13790984570E+04  0.00000000000E+00 0.  1.
         24    2    1    2    0    0  0.78471371525E+03  0.75115841511E+03 -0.50640036597E+03  0.12011827321E+04  0.79900224522E+02 0.  0.
        254    2    1    2    0    0 -0.78471371525E+03 -0.75115841511E+03  0.41912991844E+03  0.14697437342E+04  0.89691815476E+03 0.  0.
         23    2    4    4    0    0 -0.84006262970E+03 -0.25687051089E+03  0.15098361023E+03  0.89607779961E+03  0.92041790648E+02 0.  0.
         23    2    4    4    0    0  0.55348914448E+02 -0.49428790422E+03  0.26814630821E+03  0.57366593463E+03  0.99025892373E+02 0.  0.
          2    1    3    3  502    0  0.14809961050E+03  0.13170607756E+03 -0.12632379053E+03  0.23502698898E+03  0.00000000000E+00 0. -1.
         -1    1    3    3    0  502  0.63661410475E+03  0.61945233755E+03 -0.38007657543E+03  0.96615574317E+03  0.00000000000E+00 0.  1.
         11    1    5    5    0    0 -0.68137185323E+03 -0.17921925229E+03  0.14495403033E+03  0.71930439570E+03  0.00000000000E+00 0.  1.
        -11    1    5    5    0    0 -0.15869077646E+03 -0.77651258595E+02  0.60295799014E+01  0.17677340391E+03  0.00000000000E+00 0. -1.
          4    1    6    6  503    0  0.48016612741E+02 -0.11218522148E+03  0.39236370634E+02  0.12818194802E+03  0.00000000000E+00 0. -1.
         -4    1    6    6    0  503  0.73323017069E+01 -0.38210268273E+03  0.22890993758E+03  0.44548398661E+03  0.00000000000E+00 0.  1.
<mgrwt>
<rscale>  0 0.26695003E+04</rscale>
<asrwt>0</asrwt>
<pdfrwt beam="1">  1        2 0.19874277E+00 0.26695003E+04</pdfrwt>
<pdfrwt beam="2">  1       -1 0.21216899E+00 0.26695003E+04</pdfrwt>
<totfact> 0.20813991E+00</totfact>
</mgrwt>
</event>
<event>
12    6  0.1569942E-007  0.2394917E+04  0.7818608E-02  0.8441409E-01
         -1   -1    0    0    0  501 -0.00000000000E+00  0.00000000000E+00  0.87576594390E+03  0.87576594390E+03  0.00000000000E+00 0.  1.
          2   -1    0    0  501    0  0.00000000000E+00 -0.00000000000E+00 -0.16373181057E+04  0.16373181057E+04  0.00000000000E+00 0. -1.
         24    2    1    2    0    0 -0.78845936908E+03  0.36470643502E+03 -0.79152446365E+03  0.11781679752E+04  0.83005064346E+02 0.  0.
        254    2    1    2    0    0  0.78845936908E+03 -0.36470643502E+03  0.29972301812E+02  0.13349160745E+04  0.10131256717E+04 0.  0.
         23    2    4    4    0    0 -0.91611448754E+02 -0.24970392141E+03  0.29146798014E+03  0.40505879511E+03  0.91511409887E+02 0.  0.
         23    2    4    4    0    0  0.88007081784E+03 -0.11500251361E+03 -0.26149567833E+03  0.92985727936E+03  0.92219020015E+02 0.  0.
          4    1    3    3  502    0 -0.16934948937E+03  0.84567729109E+02 -0.22013058125E+03  0.29032468575E+03  0.00000000000E+00 0. -1.
         -3    1    3    3    0  502 -0.61910987971E+03  0.28013870591E+03 -0.57139388240E+03  0.88784328941E+03  0.00000000000E+00 0.  1.
         11    1    5    5    0    0 -0.21563973078E+02 -0.73962518676E+02  0.30795028852E+02  0.82968626033E+02  0.00000000000E+00 0. -1.
        -11    1    5    5    0    0 -0.70047475676E+02 -0.17574140273E+03  0.26067295129E+03  0.32209016907E+03  0.00000000000E+00 0.  1.
          3    1    6    6  503    0  0.33541367005E+03 -0.35956937074E+01 -0.11940692529E+03  0.35605234570E+03  0.00000000000E+00 0. -1.
         -3    1    6    6    0  503  0.54465714779E+03 -0.11140681991E+03 -0.14208875303E+03  0.57380493366E+03  0.00000000000E+00 0.  1.
<mgrwt>
<rscale>  0 0.23949175E+04</rscale>
<asrwt>0</asrwt>
<pdfrwt beam="1">  1        2 0.25189509E+00 0.23949175E+04</pdfrwt>
<pdfrwt beam="2">  1       -1 0.13473322E+00 0.23949175E+04</pdfrwt>
<totfact> 0.50412256E+00</totfact>
</mgrwt>
</event>
<event>
12    6  0.1569942E-007  0.2355672E+04  0.7818608E-02  0.8456288E-01
          2   -1    0    0  501    0  0.00000000000E+00  0.00000000000E+00  0.12473891327E+04  0.12473891327E+04  0.00000000000E+00 0. -1.
         -1   -1    0    0    0  501 -0.00000000000E+00 -0.00000000000E+00 -0.11121612058E+04  0.11121612058E+04  0.00000000000E+00 0.  1.
         24    2    1    2    0    0 -0.62465946597E+03  0.40929846266E+03 -0.61252881987E+03  0.96913949566E+03  0.79467772807E+02 0.  0.
        254    2    1    2    0    0  0.62465946597E+03 -0.40929846266E+03  0.74775674675E+03  0.13904108428E+04  0.90353609752E+03 0.  0.
         23    2    4    4    0    0  0.29642666894E+02 -0.33879614013E+03 -0.84094513567E+02  0.36132680919E+03  0.88451475711E+02 0.  0.
         23    2    4    4    0    0  0.59501679907E+03 -0.70502322525E+02  0.83185126032E+03  0.10290840336E+04  0.89564838472E+02 0.  0.
          4    1    3    3  502    0 -0.81310413698E+02  0.79022351554E+02 -0.11771471233E+03  0.16344010805E+03  0.00000000000E+00 0. -1.
         -3    1    3    3    0  502 -0.54334905227E+03  0.33027611110E+03 -0.49481410754E+03  0.80569938761E+03  0.00000000000E+00 0.  1.
         11    1    5    5    0    0  0.35910076461E+02 -0.90798729035E+02 -0.53590852787E+02  0.11138187594E+03  0.00000000000E+00 0.  1.
        -11    1    5    5    0    0 -0.62674095665E+01 -0.24799741110E+03 -0.30503660779E+02  0.24994493325E+03  0.00000000000E+00 0. -1.
          2    1    6    6  503    0  0.57568453301E+03 -0.63418775884E+02  0.76740419672E+03  0.96142801282E+03  0.00000000000E+00 0. -1.
         -2    1    6    6    0  503  0.19332266059E+02 -0.70835466409E+01  0.64447063596E+02  0.67656020798E+02  0.00000000000E+00 0.  1.
<mgrwt>
<rscale>  0 0.23556721E+04</rscale>
<asrwt>0</asrwt>
<pdfrwt beam="1">  1        2 0.19190602E+00 0.23556721E+04</pdfrwt>
<pdfrwt beam="2">  1       -1 0.17110172E+00 0.23556721E+04</pdfrwt>
<totfact> 0.44099110E+00</totfact>
</mgrwt>
</event>
<event>
12    6  0.1569942E-007  0.2355941E+04  0.7818608E-02  0.8456185E-01
          2   -1    0    0  501    0  0.00000000000E+00  0.00000000000E+00  0.30825168091E+04  0.30825168091E+04  0.00000000000E+00 0. -1.
         -1   -1    0    0    0  501 -0.00000000000E+00 -0.00000000000E+00 -0.45015629778E+03  0.45015629778E+03  0.00000000000E+00 0.  1.
         24    2    1    2    0    0 -0.45053691178E+02  0.15600586127E+03 -0.36293492730E+03  0.40556305249E+03  0.79949760801E+02 0.  0.
        254    2    1    2    0    0  0.45053691178E+02 -0.15600586127E+03  0.29952954386E+04  0.31271100543E+04  0.88354675249E+03 0.  0.
         23    2    4    4    0    0 -0.14379267961E+03  0.30549525050E+03  0.17140491009E+04  0.17493761262E+04  0.91371920687E+02 0.  0.
         23    2    4    4    0    0  0.18884637079E+03 -0.46150111177E+03  0.12812463376E+04  0.13777339281E+04  0.88951509253E+02 0.  0.
          4    1    3    3  502    0  0.19629465263E+02  0.26603784407E+02 -0.41397312895E+02  0.52979380576E+02  0.00000000000E+00 0. -1.
         -3    1    3    3    0  502 -0.64683156442E+02  0.12940207687E+03 -0.32153761440E+03  0.35258367191E+03  0.00000000000E+00 0.  1.
         11    1    5    5    0    0 -0.38888326076E+02  0.17867584550E+03  0.80050616198E+03  0.82112573644E+03  0.00000000000E+00 0. -1.
        -11    1    5    5    0    0 -0.10490435353E+03  0.12681940500E+03  0.91354293894E+03  0.92825038980E+03  0.00000000000E+00 0.  1.
          3    1    6    6  503    0  0.11633205703E+02 -0.65516715637E+02  0.25539281174E+03  0.26391904022E+03  0.00000000000E+00 0. -1.
         -3    1    6    6    0  503  0.17721316509E+03 -0.39598439613E+03  0.10258535259E+04  0.11138148879E+04  0.00000000000E+00 0.  1.
<mgrwt>
<rscale>  0 0.23559409E+04</rscale>
<asrwt>0</asrwt>
<pdfrwt beam="1">  1        2 0.47423334E+00 0.23559409E+04</pdfrwt>
<pdfrwt beam="2">  1       -1 0.69254817E-01 0.23559409E+04</pdfrwt>
<totfact> 0.33459253E+00</totfact>
</mgrwt>
</event>
<event>
12    6  0.1569942E-007  0.1186538E+04  0.7818608E-02  0.9124722E-01
         -1   -1    0    0    0  501 -0.00000000000E+00  0.00000000000E+00  0.29149776849E+03  0.29149776849E+03  0.00000000000E+00 0.  1.
          2   -1    0    0  501    0  0.00000000000E+00 -0.00000000000E+00 -0.12074463522E+04  0.12074463522E+04  0.00000000000E+00 0. -1.
         24    2    1    2    0    0 -0.42450112452E+02  0.14444412269E+03 -0.42760691564E+03  0.46114959301E+03  0.84529025786E+02 0.  0.
        254    2    1    2    0    0  0.42450112452E+02 -0.14444412269E+03 -0.48834166804E+03  0.10377945276E+04  0.90325731674E+03 0.  0.
         23    2    4    4    0    0 -0.24783058049E+03 -0.36034234935E+03 -0.31615980766E+02  0.44801621501E+03  0.91936680977E+02 0.  0.
         23    2    4    4    0    0  0.29028069295E+03  0.21589822665E+03 -0.45672568728E+03  0.58977831264E+03  0.91461356168E+02 0.  0.
          2    1    3    3  502    0  0.77197940764E+01  0.15252325794E+01 -0.99014557392E+02  0.99326754354E+02  0.00000000000E+00 0. -1.
         -1    1    3    3    0  502 -0.50169906528E+02  0.14291889011E+03 -0.32859235825E+03  0.36182283865E+03  0.00000000000E+00 0.  1.
         11    1    5    5    0    0 -0.17640295345E+03 -0.30660876659E+03 -0.48533890099E+02  0.35704688239E+03  0.00000000000E+00 0.  1.
        -11    1    5    5    0    0 -0.71427627044E+02 -0.53733582761E+02  0.16917909333E+02  0.90969332622E+02  0.00000000000E+00 0. -1.
          1    1    6    6  503    0  0.88912417923E+01  0.21615705564E+02 -0.68787502613E+02  0.72649937531E+02  0.00000000000E+00 0. -1.
         -1    1    6    6    0  503  0.28138945115E+03  0.19428252109E+03 -0.38793818466E+03  0.51712837511E+03  0.00000000000E+00 0.  1.
<mgrwt>
<rscale>  0 0.11865377E+04</rscale>
<asrwt>0</asrwt>
<pdfrwt beam="1">  1        2 0.18576097E+00 0.11865377E+04</pdfrwt>
<pdfrwt beam="2">  1       -1 0.44845811E-01 0.11865377E+04</pdfrwt>
<totfact> 0.10398302E+02</totfact>
</mgrwt>
</event>
<event>
12    6  0.1569942E-007  0.1980674E+04  0.7818608E-02  0.8615710E-01
          2   -1    0    0  501    0  0.00000000000E+00  0.00000000000E+00  0.51866998947E+03  0.51866998947E+03  0.00000000000E+00 0. -1.
         -3   -1    0    0    0  501 -0.00000000000E+00 -0.00000000000E+00 -0.18909270942E+04  0.18909270942E+04  0.00000000000E+00 0.  1.
         24    2    1    2    0    0 -0.18540753598E+03  0.87741878220E+02 -0.14632240231E+04  0.14797336805E+04  0.80700878716E+02 0.  0.
        254    2    1    2    0    0  0.18540753598E+03 -0.87741878220E+02  0.90966918345E+02  0.92986340319E+03  0.90238371925E+03 0.  0.
         23    2    4    4    0    0  0.38388701091E+03  0.67880528274E+02 -0.26827365075E+03  0.48153458587E+03  0.89038207707E+02 0.  0.
         23    2    4    4    0    0 -0.19847947493E+03 -0.15562240649E+03  0.35924056910E+03  0.44832881732E+03  0.91282564523E+02 0.  0.
          2    1    3    3  502    0 -0.88386438499E+01  0.17444914969E+02 -0.48385771271E+02  0.52188404314E+02  0.00000000000E+00 0. -1.
         -1    1    3    3    0  502 -0.17656889213E+03  0.70296963251E+02 -0.14148382518E+04  0.14275452762E+04  0.00000000000E+00 0.  1.
         11    1    5    5    0    0  0.17214110372E+03  0.55169444942E+02 -0.79123602228E+02  0.19732402711E+03  0.00000000000E+00 0.  1.
        -11    1    5    5    0    0  0.21174590719E+03  0.12711083331E+02 -0.18915004852E+03  0.28421055875E+03  0.00000000000E+00 0. -1.
          3    1    6    6  503    0 -0.31984420904E+02  0.52670622698E+01  0.75134920186E+02  0.81829098473E+02  0.00000000000E+00 0. -1.
         -3    1    6    6    0  503 -0.16649505403E+03 -0.16088946876E+03  0.28410564891E+03  0.36649971885E+03  0.00000000000E+00 0.  1.
<mgrwt>
<rscale>  0 0.19806738E+04</rscale>
<asrwt>0</asrwt>
<pdfrwt beam="1">  1        2 0.79795384E-01 0.19806738E+04</pdfrwt>
<pdfrwt beam="2">  1       -3 0.29091186E+00 0.19806738E+04</pdfrwt>
<totfact> 0.14640149E+00</totfact>
</mgrwt>
</event>
<event>
12    6  0.1569942E-007  0.3435314E+04  0.7818608E-02  0.8129293E-01
          2   -1    0    0  501    0  0.00000000000E+00  0.00000000000E+00  0.18208806804E+04  0.18208806804E+04  0.00000000000E+00 0. -1.
         -1   -1    0    0    0  501 -0.00000000000E+00 -0.00000000000E+00 -0.16202853909E+04  0.16202853909E+04  0.00000000000E+00 0.  1.
         24    2    1    2    0    0 -0.29345973709E+03  0.10723373165E+04  0.12463898141E+04  0.16720475789E+04  0.78927811829E+02 0.  0.
        254    2    1    2    0    0  0.29345973709E+03 -0.10723373165E+04 -0.10457945246E+04  0.17691184924E+04  0.89446526758E+03 0.  0.
         23    2    4    4    0    0  0.39399063347E+03 -0.11667806085E+03 -0.13472679585E+03  0.44174650032E+03  0.90256699916E+02 0.  0.
         23    2    4    4    0    0 -0.10053089638E+03 -0.95565925566E+03 -0.91106772877E+03  0.13273719921E+04  0.92091937800E+02 0.  0.
          4    1    3    3  502    0 -0.17552349911E+03  0.57163740413E+03  0.61765652696E+03  0.85969611250E+03  0.00000000000E+00 0. -1.
         -3    1    3    3    0  502 -0.11793623798E+03  0.50069991238E+03  0.62873328719E+03  0.81235146636E+03  0.00000000000E+00 0.  1.
         11    1    5    5    0    0  0.36367961098E+02 -0.28048751214E+02  0.80128678409E+01  0.46621530328E+02  0.00000000000E+00 0.  1.
        -11    1    5    5    0    0  0.35762267237E+03 -0.88629309635E+02 -0.14273966369E+03  0.39512496999E+03  0.00000000000E+00 0. -1.
          3    1    6    6  503    0 -0.10427164799E+03 -0.62870814066E+03 -0.57227916162E+03  0.85653367799E+03  0.00000000000E+00 0. -1.
         -3    1    6    6    0  503  0.37407516135E+01 -0.32695111500E+03 -0.33878856715E+03  0.47083831413E+03  0.00000000000E+00 0.  1.
<mgrwt>
<rscale>  0 0.34353145E+04</rscale>
<asrwt>0</asrwt>
<pdfrwt beam="1">  1        2 0.28013549E+00 0.34353145E+04</pdfrwt>
<pdfrwt beam="2">  1       -1 0.24927467E+00 0.34353145E+04</pdfrwt>
<totfact> 0.55661245E-01</totfact>
</mgrwt>
</event>
<event>
12    6  0.1569942E-007  0.2307131E+04  0.7818608E-02  0.8475115E-01
         -1   -1    0    0    0  501 -0.00000000000E+00  0.00000000000E+00  0.68377624993E+03  0.68377624993E+03  0.00000000000E+00 0.  1.
          2   -1    0    0  501    0  0.00000000000E+00 -0.00000000000E+00 -0.19461244296E+04  0.19461244296E+04  0.00000000000E+00 0. -1.
         24    2    1    2    0    0  0.88118449750E+03  0.37607855897E+03 -0.70849958036E+03  0.11942644262E+04  0.79841488354E+02 0.  0.
        254    2    1    2    0    0 -0.88118449750E+03 -0.37607855897E+03 -0.55384859928E+03  0.14356362533E+04  0.91453921712E+03 0.  0.
         23    2    4    4    0    0 -0.11989131631E+02 -0.16366882594E+03 -0.50092406814E+03  0.53499241257E+03  0.91437058149E+02 0.  0.
         23    2    4    4    0    0 -0.86919536586E+03 -0.21240973302E+03 -0.52924531139E+02  0.90064384070E+03  0.87976377936E+02 0.  0.
          4    1    3    3  502    0  0.65030160063E+03  0.27288141704E+03 -0.56378915013E+03  0.90289237750E+03  0.00000000000E+00 0. -1.
         -3    1    3    3    0  502  0.23088289686E+03  0.10319714193E+03 -0.14471043024E+03  0.29137204874E+03  0.00000000000E+00 0.  1.
         11    1    5    5    0    0  0.21914731296E+02 -0.13630814107E+03 -0.31318501163E+03  0.34226454137E+03  0.00000000000E+00 0. -1.
        -11    1    5    5    0    0 -0.33903862927E+02 -0.27360684875E+02 -0.18773905651E+03  0.19272787120E+03  0.00000000000E+00 0.  1.
          2    1    6    6  503    0 -0.60330424109E+03 -0.11195831950E+03 -0.58226385125E+02  0.61636108293E+03  0.00000000000E+00 0. -1.
         -2    1    6    6    0  503 -0.26589112478E+03 -0.10045141352E+03  0.53018539858E+01  0.28428275778E+03  0.00000000000E+00 0.  1.
<mgrwt>
<rscale>  0 0.23071313E+04</rscale>
<asrwt>0</asrwt>
<pdfrwt beam="1">  1        2 0.29940376E+00 0.23071313E+04</pdfrwt>
<pdfrwt beam="2">  1       -1 0.10519635E+00 0.23071313E+04</pdfrwt>
<totfact> 0.62574135E+00</totfact>
</mgrwt>
</event>
<event>
12    6  0.1569942E-007  0.2471189E+04  0.7818608E-02  0.8413322E-01
          2   -1    0    0  501    0  0.00000000000E+00  0.00000000000E+00  0.20914510003E+04  0.20914510003E+04  0.00000000000E+00 0. -1.
         -1   -1    0    0    0  501 -0.00000000000E+00 -0.00000000000E+00 -0.72996891375E+03  0.72996891375E+03  0.00000000000E+00 0.  1.
         24    2    1    2    0    0  0.22083542083E+03  0.97702742399E+03  0.10548636948E+04  0.14569745980E+04  0.81772210343E+02 0.  0.
        254    2    1    2    0    0 -0.22083542083E+03 -0.97702742399E+03  0.30661839175E+03  0.13644453160E+04  0.87426844386E+03 0.  0.
         23    2    4    4    0    0 -0.18277801643E+03 -0.93076479898E+03  0.54828642123E+03  0.10994551527E+04  0.91938668178E+02 0.  0.
         23    2    4    4    0    0 -0.38057404398E+02 -0.46262625005E+02 -0.24166802948E+03  0.26499016335E+03  0.90706966105E+02 0.  0.
          4    1    3    3  502    0  0.31579652406E+02  0.22397455234E+03  0.19769031659E+03  0.30040528593E+03  0.00000000000E+00 0. -1.
         -3    1    3    3    0  502  0.18925576842E+03  0.75305287164E+03  0.85717337821E+03  0.11565693121E+04  0.00000000000E+00 0.  1.
         11    1    5    5    0    0 -0.39766320668E+02 -0.24433592048E+03  0.18993854399E+03  0.31202251968E+03  0.00000000000E+00 0.  1.
        -11    1    5    5    0    0 -0.14301169576E+03 -0.68642887850E+03  0.35834787724E+03  0.78743263298E+03  0.00000000000E+00 0. -1.
          3    1    6    6  503    0 -0.44311002336E+02 -0.93556245026E+01 -0.21321311808E+03  0.21796978313E+03  0.00000000000E+00 0. -1.
         -3    1    6    6    0  503  0.62535979380E+01 -0.36907000503E+02 -0.28454911397E+02  0.47020380218E+02  0.00000000000E+00 0.  1.
<mgrwt>
<rscale>  0 0.24711894E+04</rscale>
<asrwt>0</asrwt>
<pdfrwt beam="1">  1        2 0.32176169E+00 0.24711894E+04</pdfrwt>
<pdfrwt beam="2">  1       -1 0.11230291E+00 0.24711894E+04</pdfrwt>
<totfact> 0.43898367E+00</totfact>
</mgrwt>
</event>
<event>
12    6  0.1569942E-007  0.2330830E+04  0.7818608E-02  0.8465863E-01
         -1   -1    0    0    0  501 -0.00000000000E+00  0.00000000000E+00  0.10088104828E+04  0.10088104828E+04  0.00000000000E+00 0.  1.
          2   -1    0    0  501    0  0.00000000000E+00 -0.00000000000E+00 -0.13463305458E+04  0.13463305458E+04  0.00000000000E+00 0. -1.
         24    2    1    2    0    0 -0.17801867107E+03 -0.49459802415E+03  0.65728553876E+03  0.84550751929E+03  0.80875416363E+02 0.  0.
        254    2    1    2    0    0  0.17801867107E+03  0.49459802415E+03 -0.99480560176E+03  0.15096335092E+04  0.10064975381E+04 0.  0.
         23    2    4    4    0    0  0.31131714273E+03 -0.14831005867E+03 -0.57939512456E+02  0.36196252335E+03  0.93518149841E+02 0.  0.
         23    2    4    4    0    0 -0.13329847166E+03  0.64290808282E+03 -0.93686608931E+03  0.11476709859E+04  0.91276158263E+02 0.  0.
          4    1    3    3  502    0 -0.43934422763E+02 -0.48689614796E+02  0.68161525576E+02  0.94588084140E+02  0.00000000000E+00 0. -1.
         -3    1    3    3    0  502 -0.13408424831E+03 -0.44590840936E+03  0.58912401319E+03  0.75091943515E+03  0.00000000000E+00 0.  1.
         11    1    5    5    0    0  0.64602284654E+02 -0.30375615117E+02 -0.52222207417E+02  0.88449376050E+02  0.00000000000E+00 0. -1.
        -11    1    5    5    0    0  0.24671485808E+03 -0.11793444355E+03 -0.57173050391E+01  0.27351314730E+03  0.00000000000E+00 0.  1.
          3    1    6    6  503    0 -0.57188443141E+02  0.17169972511E+03 -0.32089015910E+03  0.36840440801E+03  0.00000000000E+00 0. -1.
         -3    1    6    6    0  503 -0.76110028520E+02  0.47120835771E+03 -0.61597593020E+03  0.77926657788E+03  0.00000000000E+00 0.  1.
<mgrwt>
<rscale>  0 0.23308302E+04</rscale>
<asrwt>0</asrwt>
<pdfrwt beam="1">  1        2 0.20712778E+00 0.23308302E+04</pdfrwt>
<pdfrwt beam="2">  1       -1 0.15520161E+00 0.23308302E+04</pdfrwt>
<totfact> 0.50917383E+00</totfact>
</mgrwt>
</event>
<event>
12    6  0.1569942E-007  0.3389190E+04  0.7818608E-02  0.8140564E-01
          2   -1    0    0  501    0  0.00000000000E+00  0.00000000000E+00  0.34396160568E+04  0.34396160568E+04  0.00000000000E+00 0. -1.
         -1   -1    0    0    0  501 -0.00000000000E+00 -0.00000000000E+00 -0.83487595009E+03  0.83487595009E+03  0.00000000000E+00 0.  1.
         24    2    1    2    0    0  0.20859928234E+03 -0.43013376467E+03 -0.67840142717E+03  0.83707677160E+03  0.10927172126E+03 0.  0.
        254    2    1    2    0    0 -0.20859928234E+03  0.43013376467E+03  0.32831415339E+04  0.34374152353E+04  0.89904196354E+03 0.  0.
         23    2    4    4    0    0 -0.18333266430E+03  0.62515932970E+03  0.30452750602E+04  0.31154916929E+04  0.90295308154E+02 0.  0.
         23    2    4    4    0    0 -0.25266618041E+02 -0.19502556503E+03  0.23786647367E+03  0.32192354242E+03  0.91547445992E+02 0.  0.
          2    1    3    3  502    0  0.59025399890E+00  0.66048103951E+01 -0.93887913018E+01  0.11494403953E+02  0.00000000000E+00 0. -1.
         -1    1    3    3    0  502  0.20800902834E+03 -0.43673857507E+03 -0.66901263586E+03  0.82558236765E+03  0.00000000000E+00 0.  1.
         11    1    5    5    0    0 -0.16915270772E+03  0.58891821992E+03  0.27356006966E+04  0.28033816151E+04  0.00000000000E+00 0. -1.
        -11    1    5    5    0    0 -0.14179956576E+02  0.36241109779E+02  0.30967436356E+03  0.31211007778E+03  0.00000000000E+00 0.  1.
          3    1    6    6  503    0 -0.39884500603E+02 -0.15450535669E+03  0.22704184455E+03  0.27750797792E+03  0.00000000000E+00 0. -1.
         -3    1    6    6    0  503  0.14617882562E+02 -0.40520208335E+02  0.10824629121E+02  0.44415564499E+02  0.00000000000E+00 0.  1.
<mgrwt>
<rscale>  0 0.33891903E+04</rscale>
<asrwt>0</asrwt>
<pdfrwt beam="1">  1        2 0.52917169E+00 0.33891903E+04</pdfrwt>
<pdfrwt beam="2">  1       -1 0.12844246E+00 0.33891903E+04</pdfrwt>
<totfact> 0.44010881E-01</totfact>
</mgrwt>
</event>
<event>
12    6  0.1569942E-007  0.1928151E+04  0.7818608E-02  0.8640969E-01
          2   -1    0    0  501    0  0.00000000000E+00  0.00000000000E+00  0.11690370782E+04  0.11690370782E+04  0.00000000000E+00 0. -1.
         -1   -1    0    0    0  501 -0.00000000000E+00 -0.00000000000E+00 -0.79504908096E+03  0.79504908096E+03  0.00000000000E+00 0.  1.
         24    2    1    2    0    0  0.26449573224E+03 -0.54213092467E+03 -0.30845704402E+03  0.68153327676E+03  0.74013022264E+02 0.  0.
        254    2    1    2    0    0 -0.26449573224E+03  0.54213092467E+03  0.68244504122E+03  0.12825528824E+04  0.90296551978E+03 0.  0.
         23    2    4    4    0    0 -0.45768754462E+02  0.55505191059E+03  0.83052943360E+03  0.10040605308E+04  0.90448920306E+02 0.  0.
         23    2    4    4    0    0 -0.21872697778E+03 -0.12920985923E+02 -0.14808439238E+03  0.27849235152E+03  0.87295818378E+02 0.  0.
          2    1    3    3  502    0  0.18884641688E+02 -0.27163892134E+02 -0.28519789431E+00  0.33084559320E+02  0.00000000000E+00 0. -1.
         -1    1    3    3    0  502  0.24561109055E+03 -0.51496703253E+03 -0.30817184613E+03  0.64844871744E+03  0.00000000000E+00 0.  1.
         11    1    5    5    0    0 -0.11922574860E+01 -0.21060465739E+01 -0.57591834350E+00  0.24876880879E+01  0.00000000000E+00 0.  1.
        -11    1    5    5    0    0 -0.44576496976E+02  0.55715795716E+03  0.83110535194E+03  0.10015728428E+04  0.00000000000E+00 0. -1.
          4    1    6    6  503    0 -0.33956536687E+02  0.13319303544E+01 -0.69177184384E+02  0.77073362853E+02  0.00000000000E+00 0.  1.
         -4    1    6    6    0  503 -0.18477044109E+03 -0.14252916277E+02 -0.78907207992E+02  0.20141898867E+03  0.00000000000E+00 0. -1.
<mgrwt>
<rscale>  0 0.19281513E+04</rscale>
<asrwt>0</asrwt>
<pdfrwt beam="1">  1        2 0.17985186E+00 0.19281513E+04</pdfrwt>
<pdfrwt beam="2">  1       -1 0.12231524E+00 0.19281513E+04</pdfrwt>
<totfact> 0.12443329E+01</totfact>
</mgrwt>
</event>
<event>
12    6  0.1569942E-007  0.3135532E+04  0.7818608E-02  0.8206054E-01
         -1   -1    0    0    0  501 -0.00000000000E+00  0.00000000000E+00  0.10483996019E+04  0.10483996019E+04  0.00000000000E+00 0.  1.
          2   -1    0    0  501    0  0.00000000000E+00 -0.00000000000E+00 -0.23444215708E+04  0.23444215708E+04  0.00000000000E+00 0. -1.
         24    2    1    2    0    0  0.11229681675E+04 -0.39942344888E+03 -0.14645463950E+04  0.18899202446E+04  0.79409012145E+02 0.  0.
        254    2    1    2    0    0 -0.11229681675E+04  0.39942344888E+03  0.16852442606E+03  0.15029009281E+04  0.89984116413E+03 0.  0.
         23    2    4    4    0    0 -0.74703760180E+03  0.64938358465E+03 -0.45818671794E+02  0.99485321925E+03  0.88709405655E+02 0.  0.
         23    2    4    4    0    0 -0.37593056573E+03 -0.24996013577E+03  0.21434309785E+03  0.50804770884E+03  0.91463933498E+02 0.  0.
          2    1    3    3  502    0  0.38356424361E+02 -0.21970506304E+02 -0.36057425532E+02  0.57044336906E+02  0.00000000000E+00 0. -1.
         -1    1    3    3    0  502  0.10846117432E+04 -0.37745294258E+03 -0.14284889694E+04  0.18328759077E+04  0.00000000000E+00 0.  1.
         11    1    5    5    0    0 -0.72747865924E+03  0.61149536236E+03 -0.35612970268E+02  0.95101002176E+03  0.00000000000E+00 0.  1.
        -11    1    5    5    0    0 -0.19558942560E+02  0.37888222297E+02 -0.10205701526E+02  0.43843197494E+02  0.00000000000E+00 0. -1.
          2    1    6    6  503    0 -0.15755693562E+03 -0.15773063248E+03  0.90667764845E+02  0.24067360463E+03  0.00000000000E+00 0. -1.
         -2    1    6    6    0  503 -0.21837363011E+03 -0.92229503295E+02  0.12367533300E+03  0.26737410421E+03  0.00000000000E+00 0.  1.
<mgrwt>
<rscale>  0 0.31355323E+04</rscale>
<asrwt>0</asrwt>
<pdfrwt beam="1">  1        2 0.36068023E+00 0.31355323E+04</pdfrwt>
<pdfrwt beam="2">  1       -1 0.16129225E+00 0.31355323E+04</pdfrwt>
<totfact> 0.11759747E+00</totfact>
</mgrwt>
</event>
<event>
12    6  0.1569942E-007  0.2028923E+04  0.7818608E-02  0.8593217E-01
         -1   -1    0    0    0  501 -0.00000000000E+00  0.00000000000E+00  0.37764648590E+03  0.37764648590E+03  0.00000000000E+00 0.  1.
          2   -1    0    0  501    0  0.00000000000E+00 -0.00000000000E+00 -0.27251193475E+04  0.27251193475E+04  0.00000000000E+00 0. -1.
         24    2    1    2    0    0 -0.79069775958E+03  0.16131610699E+03 -0.10882625674E+04  0.13571891828E+04  0.80132569950E+02 0.  0.
        254    2    1    2    0    0  0.79069775958E+03 -0.16131610699E+03 -0.12592102942E+04  0.17455766507E+04  0.90011190689E+03 0.  0.
         23    2    4    4    0    0  0.70255115920E+03 -0.23578668479E+03 -0.13710273748E+04  0.15612320685E+04  0.92498740903E+02 0.  0.
         23    2    4    4    0    0  0.88146600387E+02  0.74470577802E+02  0.11181708063E+03  0.18434458220E+03  0.90355826299E+02 0.  0.
          4    1    3    3  502    0 -0.72167653827E+03  0.12658660357E+03 -0.10031461278E+04  0.12422332099E+04  0.00000000000E+00 0. -1.
         -3    1    3    3    0  502 -0.69021221308E+02  0.34729503421E+02 -0.85116439632E+02  0.11495597285E+03  0.00000000000E+00 0.  1.
         11    1    5    5    0    0  0.24919710066E+03 -0.41623876593E+02 -0.50287713300E+03  0.56277629035E+03  0.00000000000E+00 0.  1.
        -11    1    5    5    0    0  0.45335405854E+03 -0.19416280820E+03 -0.86815024182E+03  0.99845577811E+03  0.00000000000E+00 0. -1.
          1    1    6    6  503    0  0.49464157878E+02  0.46278304617E+02  0.11802096458E+03  0.13607840561E+03  0.00000000000E+00 0. -1.
         -1    1    6    6    0  503  0.38682442508E+02  0.28192273185E+02 -0.62038839537E+01  0.48266176582E+02  0.00000000000E+00 0.  1.
<mgrwt>
<rscale>  0 0.20289226E+04</rscale>
<asrwt>0</asrwt>
<pdfrwt beam="1">  1        2 0.41924913E+00 0.20289226E+04</pdfrwt>
<pdfrwt beam="2">  1       -1 0.58099459E-01 0.20289226E+04</pdfrwt>
<totfact> 0.81321703E+00</totfact>
</mgrwt>
</event>
<event>
12    6  0.1569942E-007  0.1466881E+04  0.7818608E-02  0.8906781E-01
         -1   -1    0    0    0  501 -0.00000000000E+00  0.00000000000E+00  0.54873494662E+03  0.54873494662E+03  0.00000000000E+00 0.  1.
          2   -1    0    0  501    0  0.00000000000E+00 -0.00000000000E+00 -0.98031789753E+03  0.98031789753E+03  0.00000000000E+00 0. -1.
         24    2    1    2    0    0  0.34285000755E+03 -0.31385599312E+03 -0.17434009102E+03  0.50264177276E+03  0.78756411138E+02 0.  0.
        254    2    1    2    0    0 -0.34285000755E+03  0.31385599312E+03 -0.25724285989E+03  0.10264110714E+04  0.87823350334E+03 0.  0.
         23    2    4    4    0    0 -0.15500744591E+03 -0.12349936788E+03 -0.45352559675E+03  0.50327235226E+03  0.91204119909E+02 0.  0.
         23    2    4    4    0    0 -0.18784256164E+03  0.43735536099E+03  0.19628273686E+03  0.52313871912E+03  0.92642684010E+02 0.  0.
          2    1    3    3  502    0  0.38078958377E+02 -0.51715827713E+02  0.60579979685E+00  0.64225391401E+02  0.00000000000E+00 0. -1.
         -1    1    3    3    0  502  0.30477104918E+03 -0.26214016540E+03 -0.17494589082E+03  0.43841638136E+03  0.00000000000E+00 0.  1.
         11    1    5    5    0    0 -0.26146947586E+02 -0.58993007191E+02 -0.79151852120E+02  0.10212175801E+03  0.00000000000E+00 0.  1.
        -11    1    5    5    0    0 -0.12886049832E+03 -0.64506360685E+02 -0.37437374463E+03  0.40115059425E+03  0.00000000000E+00 0. -1.
          1    1    6    6  503    0 -0.17932822238E+03  0.43224725472E+03  0.20406032952E+03  0.51052611945E+03  0.00000000000E+00 0. -1.
         -1    1    6    6    0  503 -0.85143392611E+01  0.51081062688E+01 -0.77775926645E+01  0.12612599667E+02  0.00000000000E+00 0.  1.
<mgrwt>
<rscale>  0 0.14668806E+04</rscale>
<asrwt>0</asrwt>
<pdfrwt beam="1">  1        2 0.15081814E+00 0.14668806E+04</pdfrwt>
<pdfrwt beam="2">  1       -1 0.84420762E-01 0.14668806E+04</pdfrwt>
<totfact> 0.39840878E+01</totfact>
</mgrwt>
</event>
<event>
12    6  0.1569942E-007  0.1132220E+04  0.7818608E-02  0.9174345E-01
          2   -1    0    0  501    0  0.00000000000E+00  0.00000000000E+00  0.15147192750E+04  0.15147192750E+04  0.00000000000E+00 0. -1.
         -1   -1    0    0    0  501 -0.00000000000E+00 -0.00000000000E+00 -0.21157757304E+03  0.21157757304E+03  0.00000000000E+00 0.  1.
         24    2    1    2    0    0  0.12059960450E+02  0.19776330997E+02  0.37343743907E+03  0.38261352421E+03  0.80006512816E+02 0.  0.
        254    2    1    2    0    0 -0.12059960450E+02 -0.19776330997E+02  0.92970426290E+03  0.13436833238E+04  0.96984447847E+03 0.  0.
         23    2    4    4    0    0  0.93234588826E+02 -0.26879436281E+03  0.10056954716E+04  0.10492826400E+04  0.92884762395E+02 0.  0.
         23    2    4    4    0    0 -0.10529454928E+03  0.24901803182E+03 -0.75991208688E+02  0.29440068381E+03  0.88318608192E+02 0.  0.
          2    1    3    3  502    0  0.39160473993E+02  0.25845000382E+02  0.30760675114E+03  0.31116461900E+03  0.00000000000E+00 0. -1.
         -1    1    3    3    0  502 -0.27100513543E+02 -0.60686693846E+01  0.65830687926E+02  0.71448905206E+02  0.00000000000E+00 0.  1.
         11    1    5    5    0    0  0.17208224839E+02 -0.23040542407E+02  0.36163423947E+02  0.46203710112E+02  0.00000000000E+00 0.  1.
        -11    1    5    5    0    0  0.76026363987E+02 -0.24575382041E+03  0.96953204764E+03  0.10030789299E+04  0.00000000000E+00 0. -1.
          1    1    6    6  503    0 -0.95711113514E+02  0.25543188817E+03 -0.74554496891E+02  0.28277984326E+03  0.00000000000E+00 0. -1.
         -1    1    6    6    0  503 -0.95834357613E+01 -0.64138563570E+01 -0.14367117963E+01  0.11620840552E+02  0.00000000000E+00 0.  1.
<mgrwt>
<rscale>  0 0.11322202E+04</rscale>
<asrwt>0</asrwt>
<pdfrwt beam="1">  1        2 0.23303373E+00 0.11322202E+04</pdfrwt>
<pdfrwt beam="2">  1       -1 0.32550397E-01 0.11322202E+04</pdfrwt>
<totfact> 0.12412777E+02</totfact>
</mgrwt>
</event>
<event>
12    6  0.1569942E-007  0.1180714E+04  0.7818608E-02  0.9129907E-01
          2   -1    0    0  501    0  0.00000000000E+00  0.00000000000E+00  0.17074173913E+04  0.17074173913E+04  0.00000000000E+00 0. -1.
         -1   -1    0    0    0  501 -0.00000000000E+00 -0.00000000000E+00 -0.20412190519E+03  0.20412190519E+03  0.00000000000E+00 0.  1.
         24    2    1    2    0    0  0.20388805418E+03 -0.19979162579E+03  0.32063871036E+03  0.43652805426E+03  0.79123493347E+02 0.  0.
        254    2    1    2    0    0 -0.20388805418E+03  0.19979162579E+03  0.11826567758E+04  0.14750112423E+04  0.83396287875E+03 0.  0.
         23    2    4    4    0    0  0.14916730556E+03 -0.20275471308E+03  0.69330692811E+03  0.74344908858E+03  0.93175597837E+02 0.  0.
         23    2    4    4    0    0 -0.35305535974E+03  0.40254633887E+03  0.48934984766E+03  0.73156215367E+03  0.95017205256E+02 0.  0.
          4    1    3    3  502    0 -0.36808562820E+01 -0.17567664373E+02  0.34124737863E+02  0.38557350385E+02  0.00000000000E+00 0. -1.
         -3    1    3    3    0  502  0.20756891046E+03 -0.18222396142E+03  0.28651397250E+03  0.39797070388E+03  0.00000000000E+00 0.  1.
         11    1    5    5    0    0  0.13634050095E+03 -0.21121352681E+03  0.63005462528E+03  0.67835736669E+03  0.00000000000E+00 0.  1.
        -11    1    5    5    0    0  0.12826804613E+02  0.84588137306E+01  0.63252302825E+02  0.65091721893E+02  0.00000000000E+00 0. -1.
          2    1    6    6  503    0 -0.15588667881E+03  0.15572424430E+03  0.26208180606E+03  0.34239972249E+03  0.00000000000E+00 0. -1.
         -2    1    6    6    0  503 -0.19716868094E+03  0.24682209456E+03  0.22726804160E+03  0.38916243118E+03  0.00000000000E+00 0.  1.
<mgrwt>
<rscale>  0 0.11807138E+04</rscale>
<asrwt>0</asrwt>
<pdfrwt beam="1">  1        2 0.26267959E+00 0.11807138E+04</pdfrwt>
<pdfrwt beam="2">  1       -1 0.31403371E-01 0.11807138E+04</pdfrwt>
<totfact> 0.10291831E+02</totfact>
</mgrwt>
</event>
<event>
12    6  0.1569942E-007  0.1641378E+04  0.7818608E-02  0.8795524E-01
         -1   -1    0    0    0  501 -0.00000000000E+00  0.00000000000E+00  0.95558324666E+03  0.95558324666E+03  0.00000000000E+00 0.  1.
          2   -1    0    0  501    0  0.00000000000E+00 -0.00000000000E+00 -0.70483668109E+03  0.70483668109E+03  0.00000000000E+00 0. -1.
         24    2    1    2    0    0 -0.22900443013E+03  0.23125092520E+03 -0.38502986915E+03  0.51087692414E+03  0.82626945104E+02 0.  0.
        254    2    1    2    0    0  0.22900443013E+03 -0.23125092520E+03  0.63577643472E+03  0.11495430036E+04  0.90073160419E+03 0.  0.
         23    2    4    4    0    0 -0.30555493828E+03  0.84626781398E+02  0.22601011757E+03  0.40006257898E+03  0.91891138972E+02 0.  0.
         23    2    4    4    0    0  0.53455936841E+03 -0.31587770660E+03  0.40976631716E+03  0.74948042464E+03  0.90994661170E+02 0.  0.
          2    1    3    3  502    0 -0.19855755382E+03  0.22630850587E+03 -0.32271179267E+03  0.44134288613E+03  0.00000000000E+00 0. -1.
         -1    1    3    3    0  502 -0.30446876303E+02  0.49424193242E+01 -0.62318076477E+02  0.69534038004E+02  0.00000000000E+00 0.  1.
         11    1    5    5    0    0 -0.51047421967E+02  0.27664719117E+02  0.86804712668E+02  0.10443291682E+03  0.00000000000E+00 0. -1.
        -11    1    5    5    0    0 -0.25450751631E+03  0.56962062281E+02  0.13920540490E+03  0.29562966216E+03  0.00000000000E+00 0.  1.
          4    1    6    6  503    0  0.73091450298E+02 -0.79299589403E+02  0.54091740577E+02  0.12065115575E+03  0.00000000000E+00 0. -1.
         -4    1    6    6    0  503  0.46146791811E+03 -0.23657811719E+03  0.35567457658E+03  0.62882926888E+03  0.00000000000E+00 0.  1.
<mgrwt>
<rscale>  0 0.16413776E+04</rscale>
<asrwt>0</asrwt>
<pdfrwt beam="1">  1        2 0.10843641E+00 0.16413776E+04</pdfrwt>
<pdfrwt beam="2">  1       -1 0.14701281E+00 0.16413776E+04</pdfrwt>
<totfact> 0.16330703E+01</totfact>
</mgrwt>
</event>
<event>
12    6  0.1569942E-007  0.1622037E+04  0.7818608E-02  0.8807123E-01
          2   -1    0    0  501    0  0.00000000000E+00  0.00000000000E+00  0.56536292680E+03  0.56536292680E+03  0.00000000000E+00 0. -1.
         -1   -1    0    0    0  501 -0.00000000000E+00 -0.00000000000E+00 -0.11634137189E+04  0.11634137189E+04  0.00000000000E+00 0.  1.
         24    2    1    2    0    0  0.57421861831E+02  0.86089084964E+02 -0.79590765503E+03  0.80614996531E+03  0.75499473247E+02 0.  0.
        254    2    1    2    0    0 -0.57421861831E+02 -0.86089084964E+02  0.19785686297E+03  0.92262668036E+03  0.89520056542E+03 0.  0.
         23    2    4    4    0    0 -0.18435406787E+03  0.17701985096E+02 -0.31499016670E+03  0.37647459097E+03  0.90634043900E+02 0.  0.
         23    2    4    4    0    0  0.12693220604E+03 -0.10379107006E+03  0.51284702966E+03  0.54615208939E+03  0.91573237109E+02 0.  0.
          4    1    3    3  502    0 -0.18089689031E+02  0.18700739386E+02 -0.12798540678E+03  0.13060328806E+03  0.00000000000E+00 0. -1.
         -1    1    3    3    0  502  0.75511550862E+02  0.67388345578E+02 -0.66792224826E+03  0.67554667725E+03  0.00000000000E+00 0.  1.
         11    1    5    5    0    0 -0.76657409151E+02  0.14798209755E+02 -0.21782973592E+03  0.23139822653E+03  0.00000000000E+00 0.  1.
        -11    1    5    5    0    0 -0.10769665872E+03  0.29037753410E+01 -0.97160430777E+02  0.14507636444E+03  0.00000000000E+00 0. -1.
          1    1    6    6  503    0  0.46966156729E+02 -0.40368936128E+01  0.24326263216E+03  0.24778786208E+03  0.00000000000E+00 0. -1.
         -1    1    6    6    0  503  0.79966049314E+02 -0.99754176447E+02  0.26958439750E+03  0.29836422731E+03  0.00000000000E+00 0.  1.
<mgrwt>
<rscale>  0 0.16220370E+04</rscale>
<asrwt>0</asrwt>
<pdfrwt beam="1">  1        2 0.86978912E-01 0.16220370E+04</pdfrwt>
<pdfrwt beam="2">  1       -1 0.17898673E+00 0.16220370E+04</pdfrwt>
<totfact> 0.12332336E+01</totfact>
</mgrwt>
</event>
<event>
12    6  0.1569942E-007  0.2287134E+04  0.7818608E-02  0.8483011E-01
         -1   -1    0    0    0  501 -0.00000000000E+00  0.00000000000E+00  0.49391012346E+03  0.49391012346E+03  0.00000000000E+00 0.  1.
          2   -1    0    0  501    0  0.00000000000E+00 -0.00000000000E+00 -0.26477394031E+04  0.26477394031E+04  0.00000000000E+00 0. -1.
         24    2    1    2    0    0  0.74397919485E+03 -0.53511857141E+03 -0.48385553207E+03  0.10393701293E+04  0.79480575868E+02 0.  0.
        254    2    1    2    0    0 -0.74397919485E+03  0.53511857141E+03 -0.16699737476E+04  0.21022793973E+04  0.88933088259E+03 0.  0.
         23    2    4    4    0    0 -0.83246644677E+03  0.67044262711E+03 -0.15444979186E+04  0.18804642764E+04  0.90434356171E+02 0.  0.
         23    2    4    4    0    0  0.88487251925E+02 -0.13532405570E+03 -0.12547582897E+03  0.22181512092E+03  0.85528769467E+02 0.  0.
          2    1    3    3  502    0  0.92163918299E+00 -0.72264110048E+01  0.27698748265E+00  0.72902096581E+01  0.00000000000E+00 0. -1.
         -1    1    3    3    0  502  0.74305755566E+03 -0.52789216040E+03 -0.48413251955E+03  0.10320799196E+04  0.00000000000E+00 0.  1.
         11    1    5    5    0    0 -0.61028462344E+03  0.52244024740E+03 -0.12116316837E+04  0.14537683689E+04  0.00000000000E+00 0.  1.
        -11    1    5    5    0    0 -0.22218182333E+03  0.14800237971E+03 -0.33286623496E+03  0.42669590740E+03  0.00000000000E+00 0. -1.
          4    1    6    6  503    0  0.61153768666E+02 -0.78804016473E+02 -0.24174932578E+02  0.10263665914E+03  0.00000000000E+00 0.  1.
         -4    1    6    6    0  503  0.27333483259E+02 -0.56520039231E+02 -0.10130089639E+03  0.11917846178E+03  0.00000000000E+00 0. -1.
<mgrwt>
<rscale>  0 0.22871338E+04</rscale>
<asrwt>0</asrwt>
<pdfrwt beam="1">  1        2 0.40734452E+00 0.22871338E+04</pdfrwt>
<pdfrwt beam="2">  1       -1 0.75986174E-01 0.22871338E+04</pdfrwt>
<totfact> 0.51240538E+00</totfact>
</mgrwt>
</event>
<event>
12    6  0.1569942E-007  0.2018477E+04  0.7818608E-02  0.8598030E-01
         -1   -1    0    0    0  501 -0.00000000000E+00  0.00000000000E+00  0.79212376975E+03  0.79212376975E+03  0.00000000000E+00 0.  1.
          2   -1    0    0  501    0  0.00000000000E+00 -0.00000000000E+00 -0.12858627268E+04  0.12858627268E+04  0.00000000000E+00 0. -1.
         24    2    1    2    0    0 -0.74827781726E+03 -0.13569268624E+03 -0.48348188903E+03  0.90473113078E+03  0.80321137196E+02 0.  0.
        254    2    1    2    0    0  0.74827781726E+03  0.13569268624E+03 -0.10257068011E+02  0.11732553658E+04  0.89335924965E+03 0.  0.
         23    2    4    4    0    0  0.36564095719E+03 -0.32946719951E+03 -0.19524396997E+03  0.53674192601E+03  0.87918952447E+02 0.  0.
         23    2    4    4    0    0  0.38263686007E+03  0.46515988576E+03  0.18498690196E+03  0.63651343975E+03  0.90246989332E+02 0.  0.
          2    1    3    3  502    0 -0.72926300962E+03 -0.14232561388E+03 -0.47919006915E+03  0.88414039606E+03  0.00000000000E+00 0. -1.
         -1    1    3    3    0  502 -0.19014807638E+02  0.66329276335E+01 -0.42918198750E+01  0.20590734720E+02  0.00000000000E+00 0.  1.
         11    1    5    5    0    0  0.12053610289E+03 -0.71969309293E+02 -0.25065900111E+02  0.14260726815E+03  0.00000000000E+00 0.  1.
        -11    1    5    5    0    0  0.24510485430E+03 -0.25749789022E+03 -0.17017806986E+03  0.39413465786E+03  0.00000000000E+00 0. -1.
          1    1    6    6  503    0  0.33604164475E+03  0.35279593076E+03  0.14195235870E+03  0.50748342624E+03  0.00000000000E+00 0. -1.
         -1    1    6    6    0  503  0.46595215324E+02  0.11236395500E+03  0.43034543259E+02  0.12903001351E+03  0.00000000000E+00 0.  1.
<mgrwt>
<rscale>  0 0.20184771E+04</rscale>
<asrwt>0</asrwt>
<pdfrwt beam="1">  1        2 0.19782503E+00 0.20184771E+04</pdfrwt>
<pdfrwt beam="2">  1       -1 0.12186520E+00 0.20184771E+04</pdfrwt>
<totfact> 0.10620322E+01</totfact>
</mgrwt>
</event>
<event>
12    6  0.1569942E-007  0.1352609E+04  0.7818608E-02  0.8988855E-01
         -1   -1    0    0    0  501 -0.00000000000E+00  0.00000000000E+00  0.35759786531E+03  0.35759786531E+03  0.00000000000E+00 0.  1.
          2   -1    0    0  501    0  0.00000000000E+00 -0.00000000000E+00 -0.12790561716E+04  0.12790561716E+04  0.00000000000E+00 0. -1.
         24    2    1    2    0    0  0.19434695610E+03 -0.17988389856E+03 -0.57203092695E+03  0.63524218768E+03  0.78640316091E+02 0.  0.
        254    2    1    2    0    0 -0.19434695610E+03  0.17988389856E+03 -0.34942737936E+03  0.10014118493E+04  0.90033174001E+03 0.  0.
         23    2    4    4    0    0 -0.10608037918E+03 -0.14952888110E+03 -0.55584144182E+03  0.59247658953E+03  0.91961228607E+02 0.  0.
         23    2    4    4    0    0 -0.88266576918E+02  0.32941277966E+03  0.20641406246E+03  0.40893525972E+03  0.91200402699E+02 0.  0.
          2    1    3    3  502    0  0.13393607324E+03 -0.15344071533E+03 -0.48515089979E+03  0.52616947878E+03  0.00000000000E+00 0. -1.
         -1    1    3    3    0  502  0.60410882853E+02 -0.26443183232E+02 -0.86880027162E+02  0.10907270890E+03  0.00000000000E+00 0.  1.
         11    1    5    5    0    0  0.14615866047E+02 -0.14741402893E+02 -0.98153477136E+02  0.10032466084E+03  0.00000000000E+00 0. -1.
        -11    1    5    5    0    0 -0.12069624523E+03 -0.13478747820E+03 -0.45768796469E+03  0.49215192869E+03  0.00000000000E+00 0.  1.
          4    1    6    6  503    0 -0.25218176495E+02  0.28420225395E+02  0.53150145532E+02  0.65334551405E+02  0.00000000000E+00 0. -1.
         -4    1    6    6    0  503 -0.63048400423E+02  0.30099255427E+03  0.15326391693E+03  0.34360070831E+03  0.00000000000E+00 0.  1.
<mgrwt>
<rscale>  0 0.13526090E+04</rscale>
<asrwt>0</asrwt>
<pdfrwt beam="1">  1        2 0.19677788E+00 0.13526090E+04</pdfrwt>
<pdfrwt beam="2">  1       -1 0.55015055E-01 0.13526090E+04</pdfrwt>
<totfact> 0.63207831E+01</totfact>
</mgrwt>
</event>
<event>
12    6  0.1569942E-007  0.1591959E+04  0.7818608E-02  0.8825503E-01
          2   -1    0    0  501    0  0.00000000000E+00  0.00000000000E+00  0.50428275668E+03  0.50428275668E+03  0.00000000000E+00 0. -1.
         -1   -1    0    0    0  501 -0.00000000000E+00 -0.00000000000E+00 -0.12564052289E+04  0.12564052289E+04  0.00000000000E+00 0.  1.
         24    2    1    2    0    0 -0.13446364084E+03 -0.33736580390E+03 -0.68840530871E+03  0.78247172235E+03  0.80398823757E+02 0.  0.
        254    2    1    2    0    0  0.13446364084E+03  0.33736580390E+03 -0.63717163535E+02  0.97821626327E+03  0.90606347705E+03 0.  0.
         23    2    4    4    0    0 -0.10103645627E+03 -0.17835982506E+03  0.23721142670E+03  0.32990710907E+03  0.10270757987E+03 0.  0.
         23    2    4    4    0    0  0.23550009711E+03  0.51572562897E+03 -0.30092859024E+03  0.64830915420E+03  0.91178522094E+02 0.  0.
          4    1    3    3  502    0 -0.59960252627E+01 -0.11488961689E+03 -0.20937237686E+03  0.23889823896E+03  0.00000000000E+00 0. -1.
         -3    1    3    3    0  502 -0.12846761558E+03 -0.22247618701E+03 -0.47903293186E+03  0.54357348339E+03  0.00000000000E+00 0.  1.
         11    1    5    5    0    0 -0.67350507249E+01 -0.11010382032E+03  0.14005257493E+03  0.17827769323E+03  0.00000000000E+00 0.  1.
        -11    1    5    5    0    0 -0.94301405542E+02 -0.68256004745E+02  0.97158851767E+02  0.15162941584E+03  0.00000000000E+00 0. -1.
          2    1    6    6  503    0  0.13711149760E+03  0.21191857124E+03 -0.10306654256E+03  0.27263850756E+03  0.00000000000E+00 0. -1.
         -2    1    6    6    0  503  0.98388599510E+02  0.30380705772E+03 -0.19786204767E+03  0.37567064664E+03  0.00000000000E+00 0.  1.
<mgrwt>
<rscale>  0 0.15919592E+04</rscale>
<asrwt>0</asrwt>
<pdfrwt beam="1">  1        2 0.77581963E-01 0.15919592E+04</pdfrwt>
<pdfrwt beam="2">  1       -1 0.19329311E+00 0.15919592E+04</pdfrwt>
<totfact> 0.11203068E+01</totfact>
</mgrwt>
</event>
<event>
12    6  0.1569942E-007  0.1942610E+04  0.7818608E-02  0.8633933E-01
         -1   -1    0    0    0  501 -0.00000000000E+00  0.00000000000E+00  0.51200118911E+03  0.51200118911E+03  0.00000000000E+00 0.  1.
          2   -1    0    0  501    0  0.00000000000E+00 -0.00000000000E+00 -0.18426387541E+04  0.18426387541E+04  0.00000000000E+00 0. -1.
         24    2    1    2    0    0 -0.56529988838E+03  0.44882781304E+03 -0.82342000865E+03  0.10978881204E+04  0.79545236914E+02 0.  0.
        254    2    1    2    0    0  0.56529988838E+03 -0.44882781304E+03 -0.50721755629E+03  0.12567518228E+04  0.89506710645E+03 0.  0.
         23    2    4    4    0    0  0.76821342691E+03 -0.48056712433E+03 -0.32150161254E+03  0.96572207097E+03  0.90328296841E+02 0.  0.
         23    2    4    4    0    0 -0.20291353853E+03  0.31739311286E+02 -0.18571594375E+03  0.29102975180E+03  0.89591387244E+02 0.  0.
          2    1    3    3  502    0 -0.50057827967E+03  0.42003283768E+03 -0.76476471046E+03  0.10059181185E+04  0.00000000000E+00 0. -1.
         -1    1    3    3    0  502 -0.64721608712E+02  0.28794975362E+02 -0.58655298187E+02  0.91970001880E+02  0.00000000000E+00 0.  1.
         11    1    5    5    0    0  0.57317770448E+03 -0.32936914600E+03 -0.20006509206E+03  0.69068281889E+03  0.00000000000E+00 0. -1.
        -11    1    5    5    0    0  0.19503572243E+03 -0.15119797833E+03 -0.12143652048E+03  0.27503925208E+03  0.00000000000E+00 0.  1.
          2    1    6    6  503    0 -0.52321716764E+02  0.40844466195E+00 -0.10501571805E+03  0.11732872585E+03  0.00000000000E+00 0. -1.
         -2    1    6    6    0  503 -0.15059182177E+03  0.31330866624E+02 -0.80700225698E+02  0.17370102595E+03  0.00000000000E+00 0.  1.
<mgrwt>
<rscale>  0 0.19426098E+04</rscale>
<asrwt>0</asrwt>
<pdfrwt beam="1">  1        2 0.28348288E+00 0.19426098E+04</pdfrwt>
<pdfrwt beam="2">  1       -1 0.78769415E-01 0.19426098E+04</pdfrwt>
<totfact> 0.14001627E+01</totfact>
</mgrwt>
</event>
<event>
12    6  0.1569942E-007  0.2748426E+04  0.7818608E-02  0.8319461E-01
         -1   -1    0    0    0  501 -0.00000000000E+00  0.00000000000E+00  0.69292519094E+03  0.69292519094E+03  0.00000000000E+00 0.  1.
          2   -1    0    0  501    0  0.00000000000E+00 -0.00000000000E+00 -0.27253467440E+04  0.27253467440E+04  0.00000000000E+00 0. -1.
         24    2    1    2    0    0  0.41540747826E+03 -0.89136376938E+03 -0.17969897215E+04  0.20500279068E+04  0.79684484707E+02 0.  0.
        254    2    1    2    0    0 -0.41540747826E+03  0.89136376938E+03 -0.23543183150E+03  0.13682440281E+04  0.92172166663E+03 0.  0.
         23    2    4    4    0    0 -0.14508332795E+03  0.48569210296E+03 -0.57156220904E+03  0.76944986362E+03  0.91780950626E+02 0.  0.
         23    2    4    4    0    0 -0.27032415031E+03  0.40567166642E+03  0.33613037754E+03  0.59879416446E+03  0.89029059866E+02 0.  0.
          4    1    3    3  502    0  0.34836473431E+03 -0.75635337327E+03 -0.14582474007E+04  0.16792599248E+04  0.00000000000E+00 0. -1.
         -3    1    3    3    0  502  0.67042743950E+02 -0.13501039611E+03 -0.33874232089E+03  0.37076798208E+03  0.00000000000E+00 0.  1.
         11    1    5    5    0    0 -0.14120223028E+03  0.37897974957E+03 -0.48834638186E+03  0.63407090226E+03  0.00000000000E+00 0. -1.
        -11    1    5    5    0    0 -0.38810976652E+01  0.10671235339E+03 -0.83215827183E+02  0.13537896136E+03  0.00000000000E+00 0.  1.
          4    1    6    6  503    0 -0.19877981065E+03  0.34301921321E+03  0.23931554948E+03  0.46308479351E+03  0.00000000000E+00 0. -1.
         -4    1    6    6    0  503 -0.71544339664E+02  0.62652453213E+02  0.96814828061E+02  0.13570937095E+03  0.00000000000E+00 0.  1.
<mgrwt>
<rscale>  0 0.27484260E+04</rscale>
<asrwt>0</asrwt>
<pdfrwt beam="1">  1        2 0.41928411E+00 0.27484260E+04</pdfrwt>
<pdfrwt beam="2">  1       -1 0.10660388E+00 0.27484260E+04</pdfrwt>
<totfact> 0.20925675E+00</totfact>
</mgrwt>
</event>
<event>
12    6  0.1569942E-007  0.1614784E+04  0.7818608E-02  0.8811517E-01
         -1   -1    0    0    0  501 -0.00000000000E+00  0.00000000000E+00  0.65381272841E+03  0.65381272841E+03  0.00000000000E+00 0.  1.
          2   -1    0    0  501    0  0.00000000000E+00 -0.00000000000E+00 -0.99704664201E+03  0.99704664201E+03  0.00000000000E+00 0. -1.
         24    2    1    2    0    0  0.45601900140E+03  0.30585511553E+03 -0.20145747047E+03  0.59015284076E+03  0.78705665085E+02 0.  0.
        254    2    1    2    0    0 -0.45601900140E+03 -0.30585511553E+03 -0.14177644313E+03  0.10607065296E+04  0.89637999803E+03 0.  0.
         23    2    4    4    0    0 -0.12341356582E+03 -0.57904004564E+03 -0.17500946115E+01  0.59925530882E+03  0.92658402933E+02 0.  0.
         23    2    4    4    0    0 -0.33260543558E+03  0.27318493011E+03 -0.14002634852E+03  0.46145122082E+03  0.89852485258E+02 0.  0.
          2    1    3    3  502    0  0.31568539680E+03  0.24892973229E+03 -0.16371644108E+03  0.43408104594E+03  0.00000000000E+00 0. -1.
         -1    1    3    3    0  502  0.14033360460E+03  0.56925383244E+02 -0.37741029391E+02  0.15607179482E+03  0.00000000000E+00 0.  1.
         11    1    5    5    0    0 -0.11748829477E+03 -0.42080465255E+03 -0.31911421574E+02  0.43806208903E+03  0.00000000000E+00 0. -1.
        -11    1    5    5    0    0 -0.59252710564E+01 -0.15823539309E+03  0.30161326963E+02  0.16119321980E+03  0.00000000000E+00 0.  1.
          2    1    6    6  503    0 -0.30460664325E+03  0.21742412231E+03 -0.10018855709E+03  0.38742251231E+03  0.00000000000E+00 0. -1.
         -2    1    6    6    0  503 -0.27998792329E+02  0.55760807800E+02 -0.39837791430E+02  0.74028708515E+02  0.00000000000E+00 0.  1.
<mgrwt>
<rscale>  0 0.16147839E+04</rscale>
<asrwt>0</asrwt>
<pdfrwt beam="1">  1        2 0.15339179E+00 0.16147839E+04</pdfrwt>
<pdfrwt beam="2">  1       -1 0.10058657E+00 0.16147839E+04</pdfrwt>
<totfact> 0.26005935E+01</totfact>
</mgrwt>
</event>
<event>
12    6  0.1569942E-007  0.1042474E+04  0.7818608E-02  0.9263149E-01
         -1   -1    0    0    0  501 -0.00000000000E+00  0.00000000000E+00  0.62535779005E+03  0.62535779005E+03  0.00000000000E+00 0.  1.
          2   -1    0    0  501    0  0.00000000000E+00 -0.00000000000E+00 -0.43445172825E+03  0.43445172825E+03  0.00000000000E+00 0. -1.
         24    2    1    2    0    0  0.51483159371E+02 -0.36325010373E+02 -0.10097476442E+03  0.14383093282E+03  0.80755260562E+02 0.  0.
        254    2    1    2    0    0 -0.51483159371E+02  0.36325010373E+02  0.29188082623E+03  0.91597858548E+03  0.86594014243E+03 0.  0.
         23    2    4    4    0    0 -0.29122384498E+03 -0.29600139144E+03  0.25105591344E+03  0.49407553454E+03  0.93023709551E+02 0.  0.
         23    2    4    4    0    0  0.23974068561E+03  0.33232640181E+03  0.40824912788E+02  0.42190305095E+03  0.91755529624E+02 0.  0.
          2    1    3    3  502    0  0.61092037992E+02 -0.28826273070E+02 -0.10970752515E+03  0.12883684333E+03  0.00000000000E+00 0. -1.
         -1    1    3    3    0  502 -0.96088786204E+01 -0.74987373034E+01  0.87327607327E+01  0.14994089486E+02  0.00000000000E+00 0.  1.
         11    1    5    5    0    0 -0.16489684886E+03 -0.22857404553E+03  0.17764759056E+03  0.33316021895E+03  0.00000000000E+00 0. -1.
        -11    1    5    5    0    0 -0.12632699612E+03 -0.67427345904E+02  0.73408322872E+02  0.16091531559E+03  0.00000000000E+00 0.  1.
          2    1    6    6  503    0  0.24750890446E+03  0.31323689083E+03  0.36904063875E+02  0.40092383004E+03  0.00000000000E+00 0. -1.
         -2    1    6    6    0  503 -0.77682188514E+01  0.19089510978E+02  0.39208489130E+01  0.20979220903E+02  0.00000000000E+00 0.  1.
<mgrwt>
<rscale>  0 0.10424735E+04</rscale>
<asrwt>0</asrwt>
<pdfrwt beam="1">  1        2 0.66838727E-01 0.10424735E+04</pdfrwt>
<pdfrwt beam="2">  1       -1 0.96208891E-01 0.10424735E+04</pdfrwt>
<totfact> 0.85931766E+01</totfact>
</mgrwt>
</event>
<event>
12    6  0.1569942E-007  0.1452671E+04  0.7818608E-02  0.8916551E-01
          2   -1    0    0  501    0  0.00000000000E+00  0.00000000000E+00  0.26010276522E+04  0.26010276522E+04  0.00000000000E+00 0. -1.
         -1   -1    0    0    0  501 -0.00000000000E+00 -0.00000000000E+00 -0.20282869763E+03  0.20282869763E+03  0.00000000000E+00 0.  1.
         24    2    1    2    0    0 -0.23864376505E+03  0.41152066692E+02  0.21990271052E+02  0.25585381833E+03  0.79581814139E+02 0.  0.
        254    2    1    2    0    0  0.23864376505E+03 -0.41152066692E+02  0.23762086835E+04  0.25480025315E+04  0.88730200820E+03 0.  0.
         23    2    4    4    0    0  0.50044163573E+03 -0.75476361156E+02  0.20690702086E+04  0.21319788083E+04  0.90241891109E+02 0.  0.
         23    2    4    4    0    0 -0.26179787068E+03  0.34324294464E+02  0.30713847493E+03  0.41602372325E+03  0.95002174924E+02 0.  0.
          4    1    3    3  502    0 -0.17870309264E+03  0.23243510104E+00  0.35060589094E+02  0.18211011573E+03  0.00000000000E+00 0. -1.
         -3    1    3    3    0  502 -0.59940672411E+02  0.40919631591E+02 -0.13070318042E+02  0.73743702594E+02  0.00000000000E+00 0.  1.
         11    1    5    5    0    0  0.18248931013E+03  0.71157465549E+01  0.85203376155E+03  0.87138654625E+03  0.00000000000E+00 0. -1.
        -11    1    5    5    0    0  0.31795232560E+03 -0.82592107711E+02  0.12170364471E+04  0.12605922620E+04  0.00000000000E+00 0.  1.
          3    1    6    6  503    0  0.72475721642E+01  0.67368214686E+01  0.14415548584E+02  0.17484853638E+02  0.00000000000E+00 0. -1.
         -3    1    6    6    0  503 -0.26904544285E+03  0.27587472996E+02  0.29272292635E+03  0.39853886961E+03  0.00000000000E+00 0.  1.
<mgrwt>
<rscale>  0 0.14526707E+04</rscale>
<asrwt>0</asrwt>
<pdfrwt beam="1">  1        2 0.40015808E+00 0.14526707E+04</pdfrwt>
<pdfrwt beam="2">  1       -1 0.31204417E-01 0.14526707E+04</pdfrwt>
<totfact> 0.32074834E+01</totfact>
</mgrwt>
</event>
<event>
12    6  0.1569942E-007  0.2210103E+04  0.7818608E-02  0.8514235E-01
         -1   -1    0    0    0  501 -0.00000000000E+00  0.00000000000E+00  0.74328563615E+03  0.74328563615E+03  0.00000000000E+00 0.  1.
          2   -1    0    0  501    0  0.00000000000E+00 -0.00000000000E+00 -0.16428924736E+04  0.16428924736E+04  0.00000000000E+00 0. -1.
         24    2    1    2    0    0 -0.17256373195E+03  0.86520821586E+03 -0.66153964356E+03  0.11054484317E+04  0.77576006959E+02 0.  0.
        254    2    1    2    0    0  0.17256373195E+03 -0.86520821586E+03 -0.23806719384E+03  0.12807296780E+04  0.89734554151E+03 0.  0.
         23    2    4    4    0    0  0.35468495132E+03 -0.63915249710E+03  0.18633490868E+03  0.75848512431E+03  0.79130628513E+02 0.  0.
         23    2    4    4    0    0 -0.18212121936E+03 -0.22605571876E+03 -0.42440210252E+03  0.52224455366E+03  0.91394215792E+02 0.  0.
          4    1    3    3  502    0 -0.75764008519E+02  0.29903837641E+03 -0.19002661815E+03  0.36231788689E+03  0.00000000000E+00 0. -1.
         -3    1    3    3    0  502 -0.96799723433E+02  0.56616983945E+03 -0.47151302542E+03  0.74313054485E+03  0.00000000000E+00 0.  1.
         11    1    5    5    0    0  0.28490271738E+03 -0.53055838294E+03  0.18282836253E+03  0.62935519877E+03  0.00000000000E+00 0.  1.
        -11    1    5    5    0    0  0.69782233942E+02 -0.10859411416E+03  0.35065461518E+01  0.12912992554E+03  0.00000000000E+00 0. -1.
          2    1    6    6  503    0 -0.86122726086E+02 -0.17118999581E+03 -0.29808617479E+03  0.35437057752E+03  0.00000000000E+00 0.  1.
         -2    1    6    6    0  503 -0.95998493279E+02 -0.54865722956E+02 -0.12631592773E+03  0.16787397614E+03  0.00000000000E+00 0. -1.
<mgrwt>
<rscale>  0 0.22101026E+04</rscale>
<asrwt>0</asrwt>
<pdfrwt beam="1">  1        2 0.25275269E+00 0.22101026E+04</pdfrwt>
<pdfrwt beam="2">  1       -1 0.11435164E+00 0.22101026E+04</pdfrwt>
<totfact> 0.76369957E+00</totfact>
</mgrwt>
</event>
<event>
12    6  0.1569942E-007  0.2473248E+04  0.7818608E-02  0.8412578E-01
         -1   -1    0    0    0  501 -0.00000000000E+00  0.00000000000E+00  0.32818624883E+03  0.32818624883E+03  0.00000000000E+00 0.  1.
          2   -1    0    0  501    0  0.00000000000E+00 -0.00000000000E+00 -0.46596696210E+04  0.46596696210E+04  0.00000000000E+00 0. -1.
         24    2    1    2    0    0 -0.82837008446E+03 -0.52011168309E+03 -0.99912829149E+03  0.14005589827E+04  0.81209367638E+02 0.  0.
        254    2    1    2    0    0  0.82837008446E+03  0.52011168309E+03 -0.33323550807E+04  0.35872968872E+04  0.89855184224E+03 0.  0.
         23    2    4    4    0    0  0.41296161654E+03 -0.17561609912E+03 -0.17254289739E+04  0.17853238406E+04  0.94327944536E+02 0.  0.
         23    2    4    4    0    0  0.41540846792E+03  0.69572778221E+03 -0.16069261068E+04  0.18019730465E+04  0.91071430492E+02 0.  0.
          4    1    3    3  502    0 -0.39046320046E+03 -0.26620497588E+03 -0.43047515279E+03  0.63924600684E+03  0.00000000000E+00 0. -1.
         -3    1    3    3    0  502 -0.43790688400E+03 -0.25390670721E+03 -0.56865313870E+03  0.76131297583E+03  0.00000000000E+00 0.  1.
         11    1    5    5    0    0  0.68085245600E+02 -0.21528397049E+02 -0.43217151968E+03  0.43803115754E+03  0.00000000000E+00 0.  1.
        -11    1    5    5    0    0  0.34487637094E+03 -0.15408770207E+03 -0.12932574542E+04  0.13472926831E+04  0.00000000000E+00 0. -1.
          1    1    6    6  503    0  0.22685754369E+03  0.44892719604E+03 -0.10513591543E+04  0.11654853255E+04  0.00000000000E+00 0. -1.
         -1    1    6    6    0  503  0.18855092422E+03  0.24680058617E+03 -0.55556695250E+03  0.63648772107E+03  0.00000000000E+00 0.  1.
<mgrwt>
<rscale>  0 0.24732485E+04</rscale>
<asrwt>0</asrwt>
<pdfrwt beam="1">  1        2 0.71687220E+00 0.24732485E+04</pdfrwt>
<pdfrwt beam="2">  1       -1 0.50490196E-01 0.24732485E+04</pdfrwt>
<totfact> 0.34188496E-01</totfact>
</mgrwt>
</event>
<event>
12    6  0.1569942E-007  0.2752245E+04  0.7818608E-02  0.8318250E-01
          2   -1    0    0  501    0  0.00000000000E+00  0.00000000000E+00  0.89474632588E+03  0.89474632588E+03  0.00000000000E+00 0. -1.
         -1   -1    0    0    0  501 -0.00000000000E+00 -0.00000000000E+00 -0.21164799610E+04  0.21164799610E+04  0.00000000000E+00 0.  1.
         24    2    1    2    0    0 -0.41134993679E+03  0.11041198809E+04 -0.89993380436E+03  0.14847859402E+04  0.80118374972E+02 0.  0.
        254    2    1    2    0    0  0.41134993679E+03 -0.11041198809E+04 -0.32179983078E+03  0.15264403467E+04  0.91551926201E+03 0.  0.
         23    2    4    4    0    0  0.73805583833E+01 -0.64129947228E+03  0.23820539134E+03  0.69025773903E+03  0.91621242326E+02 0.  0.
         23    2    4    4    0    0  0.40396937840E+03 -0.46282040864E+03 -0.56000522212E+03  0.83618260769E+03  0.90562217654E+02 0.  0.
          2    1    3    3  502    0 -0.36911192506E+03  0.95385259897E+03 -0.80970951625E+03  0.13044952643E+04  0.00000000000E+00 0. -1.
         -1    1    3    3    0  502 -0.42238011731E+02  0.15026728195E+03 -0.90224288106E+02  0.18029067592E+03  0.00000000000E+00 0.  1.
         11    1    5    5    0    0  0.38955793207E+02 -0.30898383962E+03  0.14594114356E+03  0.34392933047E+03  0.00000000000E+00 0. -1.
        -11    1    5    5    0    0 -0.31575234824E+02 -0.33231563265E+03  0.92264247784E+02  0.34632840857E+03  0.00000000000E+00 0.  1.
          3    1    6    6  503    0  0.31830916062E+03 -0.30225928097E+03 -0.39237436473E+03  0.58876059376E+03  0.00000000000E+00 0. -1.
         -3    1    6    6    0  503  0.85660217779E+02 -0.16056112767E+03 -0.16763085739E+03  0.24742201393E+03  0.00000000000E+00 0.  1.
<mgrwt>
<rscale>  0 0.27522447E+04</rscale>
<asrwt>0</asrwt>
<pdfrwt beam="1">  1        2 0.13765328E+00 0.27522447E+04</pdfrwt>
<pdfrwt beam="2">  1       -1 0.32561230E+00 0.27522447E+04</pdfrwt>
<totfact> 0.66219618E-01</totfact>
</mgrwt>
</event>
<event>
12    6  0.1569942E-007  0.2239060E+04  0.7818608E-02  0.8502344E-01
          2   -1    0    0  501    0  0.00000000000E+00  0.00000000000E+00  0.84125328927E+03  0.84125328927E+03  0.00000000000E+00 0. -1.
         -1   -1    0    0    0  501 -0.00000000000E+00 -0.00000000000E+00 -0.14898572404E+04  0.14898572404E+04  0.00000000000E+00 0.  1.
         24    2    1    2    0    0  0.67498761037E+03 -0.23168740080E+03 -0.90482122790E+03  0.11551261298E+04  0.79546184097E+02 0.  0.
        254    2    1    2    0    0 -0.67498761037E+03  0.23168740080E+03  0.25621727680E+03  0.11759843999E+04  0.89889081091E+03 0.  0.
         23    2    4    4    0    0  0.21138608663E+03  0.84389139425E+02  0.21518955718E+02  0.24386164487E+03  0.84851823247E+02 0.  0.
         23    2    4    4    0    0 -0.88637369699E+03  0.14729826138E+03  0.23469832108E+03  0.93212275499E+03  0.80090073820E+02 0.  0.
          2    1    3    3  502    0  0.26734850184E+03 -0.87382041832E+02 -0.29556110556E+03  0.40800393355E+03  0.00000000000E+00 0. -1.
         -1    1    3    3    0  502  0.40763910852E+03 -0.14430535897E+03 -0.60926012235E+03  0.74712219623E+03  0.00000000000E+00 0.  1.
         11    1    5    5    0    0  0.11300551829E+03  0.53554757638E+02 -0.30007593305E+02  0.12860332377E+03  0.00000000000E+00 0.  1.
        -11    1    5    5    0    0  0.98380568340E+02  0.30834381787E+02  0.51526549023E+02  0.11525832109E+03  0.00000000000E+00 0. -1.
          1    1    6    6  503    0 -0.67238982651E+03  0.13312370710E+03  0.15074088325E+03  0.70182106984E+03  0.00000000000E+00 0. -1.
         -1    1    6    6    0  503 -0.21398387048E+03  0.14174554277E+02  0.83957437834E+02  0.23030168515E+03  0.00000000000E+00 0.  1.
<mgrwt>
<rscale>  0 0.22390599E+04</rscale>
<asrwt>0</asrwt>
<pdfrwt beam="1">  1        2 0.12942359E+00 0.22390599E+04</pdfrwt>
<pdfrwt beam="2">  1       -1 0.22920880E+00 0.22390599E+04</pdfrwt>
<totfact> 0.31964179E+00</totfact>
</mgrwt>
</event>
<event>
12    6  0.1569942E-007  0.1615648E+04  0.7818608E-02  0.8810992E-01
          4   -1    0    0  501    0  0.00000000000E+00  0.00000000000E+00  0.13557037003E+04  0.13557037003E+04  0.00000000000E+00 0. -1.
         -3   -1    0    0    0  501 -0.00000000000E+00 -0.00000000000E+00 -0.48135837866E+03  0.48135837866E+03  0.00000000000E+00 0.  1.
         24    2    1    2    0    0  0.34927933432E+03 -0.51102645950E+00 -0.17038942654E+03  0.39699500453E+03  0.81093541131E+02 0.  0.
        254    2    1    2    0    0 -0.34927933432E+03  0.51102645950E+00  0.10447347482E+04  0.14400670745E+04  0.92753769212E+03 0.  0.
         23    2    4    4    0    0  0.24601302923E+01 -0.40320536204E+03  0.64214856776E+03  0.76408474008E+03  0.94287277673E+02 0.  0.
         23    2    4    4    0    0 -0.35173946462E+03  0.40371638850E+03  0.40258618046E+03  0.67598233439E+03  0.90382024785E+02 0.  0.
          4    1    3    3  502    0  0.57226693865E+01 -0.12382546969E+02 -0.13262250696E+02  0.19025343831E+02  0.00000000000E+00 0. -1.
         -3    1    3    3    0  502  0.34355666494E+03  0.11871520510E+02 -0.15712717584E+03  0.37796966070E+03  0.00000000000E+00 0.  1.
         11    1    5    5    0    0 -0.48393799861E+01 -0.31816950059E+03  0.42622445696E+03  0.53190463282E+03  0.00000000000E+00 0. -1.
        -11    1    5    5    0    0  0.72995102785E+01 -0.85035861446E+02  0.21592411080E+03  0.23218010726E+03  0.00000000000E+00 0.  1.
          3    1    6    6  503    0 -0.93627413680E+02  0.11213094000E+03  0.16248803799E+03  0.21849897663E+03  0.00000000000E+00 0. -1.
         -3    1    6    6    0  503 -0.25811205093E+03  0.29158544850E+03  0.24009814247E+03  0.45748335776E+03  0.00000000000E+00 0.  1.
<mgrwt>
<rscale>  0 0.16156477E+04</rscale>
<asrwt>0</asrwt>
<pdfrwt beam="1">  1        4 0.20856980E+00 0.16156477E+04</pdfrwt>
<pdfrwt beam="2">  1       -3 0.74055136E-01 0.16156477E+04</pdfrwt>
<totfact> 0.43662828E-01</totfact>
</mgrwt>
</event>
<event>
12    6  0.1569942E-007  0.2407622E+04  0.7818608E-02  0.8436655E-01
         -1   -1    0    0    0  501 -0.00000000000E+00  0.00000000000E+00  0.18579315359E+04  0.18579315359E+04  0.00000000000E+00 0.  1.
          2   -1    0    0  501    0  0.00000000000E+00 -0.00000000000E+00 -0.77998638729E+03  0.77998638729E+03  0.00000000000E+00 0. -1.
         24    2    1    2    0    0 -0.19895484554E+03  0.98479220244E+03  0.72872707476E+03  0.12437528689E+04  0.80494328706E+02 0.  0.
        254    2    1    2    0    0  0.19895484554E+03 -0.98479220244E+03  0.34921807388E+03  0.13941650543E+04  0.90130140514E+03 0.  0.
         23    2    4    4    0    0  0.29737216589E+03 -0.14735349913E+03 -0.18591582370E+03  0.39136598988E+03  0.91974919315E+02 0.  0.
         23    2    4    4    0    0 -0.98417320355E+02 -0.83743870331E+03  0.53513389758E+03  0.10027990644E+04  0.90819185579E+02 0.  0.
          2    1    3    3  502    0 -0.15416696428E+02  0.19558207049E+02  0.12385393334E+02  0.27813593075E+02  0.00000000000E+00 0. -1.
         -1    1    3    3    0  502 -0.18353814911E+03  0.96523399539E+03  0.71634168143E+03  0.12159392759E+04  0.00000000000E+00 0.  1.
         11    1    5    5    0    0  0.30266515734E+03 -0.14782732845E+03 -0.17583402027E+03  0.37996936612E+03  0.00000000000E+00 0. -1.
        -11    1    5    5    0    0 -0.52929914527E+01  0.47382932211E+00 -0.10081803431E+02  0.11396623761E+02  0.00000000000E+00 0.  1.
          4    1    6    6  503    0 -0.36527765226E+02 -0.28057128097E+03  0.23113031798E+03  0.36534332514E+03  0.00000000000E+00 0. -1.
         -4    1    6    6    0  503 -0.61889555128E+02 -0.55686742234E+03  0.30400357960E+03  0.63745573925E+03  0.00000000000E+00 0.  1.
<mgrwt>
<rscale>  0 0.24076223E+04</rscale>
<asrwt>0</asrwt>
<pdfrwt beam="1">  1        2 0.11999791E+00 0.24076223E+04</pdfrwt>
<pdfrwt beam="2">  1       -1 0.28583562E+00 0.24076223E+04</pdfrwt>
<totfact> 0.14900268E+00</totfact>
</mgrwt>
</event>
<event>
12    6  0.1569942E-007  0.1473369E+04  0.7818608E-02  0.8902358E-01
          2   -1    0    0  501    0  0.00000000000E+00  0.00000000000E+00  0.68778172875E+03  0.68778172875E+03  0.00000000000E+00 0. -1.
         -1   -1    0    0    0  501 -0.00000000000E+00 -0.00000000000E+00 -0.78906383463E+03  0.78906383463E+03  0.00000000000E+00 0.  1.
         24    2    1    2    0    0 -0.98957629412E+02  0.31008598580E+03  0.29313835885E+03  0.44511177794E+03  0.79047241673E+02 0.  0.
        254    2    1    2    0    0  0.98957629412E+02 -0.31008598580E+03 -0.39442046473E+03  0.10317337854E+04  0.89608100639E+03 0.  0.
         23    2    4    4    0    0  0.74884760141E+02  0.10132912966E+03  0.22865881966E+03  0.27920094985E+03  0.98959561286E+02 0.  0.
         23    2    4    4    0    0  0.24072869271E+02 -0.41141511546E+03 -0.62307928439E+03  0.75253283559E+03  0.90752265778E+02 0.  0.
          2    1    3    3  502    0 -0.53712373917E+02  0.25971132761E+03  0.25225436801E+03  0.36601538080E+03  0.00000000000E+00 0. -1.
         -1    1    3    3    0  502 -0.45245255495E+02  0.50374658196E+02  0.40883990839E+02  0.79096397137E+02  0.00000000000E+00 0.  1.
         11    1    5    5    0    0  0.20190284597E+02 -0.82701885738E+01  0.96798389490E+02  0.99226870448E+02  0.00000000000E+00 0.  1.
        -11    1    5    5    0    0  0.54694475544E+02  0.10959931823E+03  0.13186043017E+03  0.17997407940E+03  0.00000000000E+00 0. -1.
          2    1    6    6  503    0  0.81173299072E+01 -0.99350125199E+02 -0.88352223377E+02  0.13320080254E+03  0.00000000000E+00 0. -1.
         -2    1    6    6    0  503  0.15955539364E+02 -0.31206499026E+03 -0.53472706102E+03  0.61933203305E+03  0.00000000000E+00 0.  1.
<mgrwt>
<rscale>  0 0.14733685E+04</rscale>
<asrwt>0</asrwt>
<pdfrwt beam="1">  1        2 0.10581257E+00 0.14733685E+04</pdfrwt>
<pdfrwt beam="2">  1       -1 0.12139444E+00 0.14733685E+04</pdfrwt>
<totfact> 0.27886584E+01</totfact>
</mgrwt>
</event>
<event>
12    6  0.1569942E-007  0.2150692E+04  0.7818608E-02  0.8539236E-01
         -1   -1    0    0    0  501 -0.00000000000E+00  0.00000000000E+00  0.80217517724E+03  0.80217517724E+03  0.00000000000E+00 0.  1.
          2   -1    0    0  501    0  0.00000000000E+00 -0.00000000000E+00 -0.14415421329E+04  0.14415421329E+04  0.00000000000E+00 0. -1.
         24    2    1    2    0    0 -0.73967593296E+03  0.27338574178E+03  0.15557244009E+03  0.80813943689E+03  0.83823121744E+02 0.  0.
        254    2    1    2    0    0  0.73967593296E+03 -0.27338574178E+03 -0.79493939579E+03  0.14355778733E+04  0.89838462681E+03 0.  0.
         23    2    4    4    0    0  0.83669421877E+03  0.38182244991E+02 -0.66797238505E+03  0.10745936788E+04  0.83960512522E+02 0.  0.
         23    2    4    4    0    0 -0.97018285814E+02 -0.31156798677E+03 -0.12696701074E+03  0.36098419454E+03  0.87759949464E+02 0.  0.
          2    1    3    3  502    0 -0.92338842050E+02  0.34895460022E+02  0.48584709836E+02  0.11002103849E+03  0.00000000000E+00 0. -1.
         -1    1    3    3    0  502 -0.64733709091E+03  0.23849028175E+03  0.10698773026E+03  0.69811839840E+03  0.00000000000E+00 0.  1.
         11    1    5    5    0    0  0.40670338182E+03  0.27755089291E+02 -0.37738762347E+03  0.55551724016E+03  0.00000000000E+00 0.  1.
        -11    1    5    5    0    0  0.42999083696E+03  0.10427155700E+02 -0.29058476158E+03  0.51907643860E+03  0.00000000000E+00 0. -1.
          4    1    6    6  503    0  0.15671446534E+02 -0.63072004591E+02 -0.27438262064E+02  0.70544526539E+02  0.00000000000E+00 0. -1.
         -4    1    6    6    0  503 -0.11268973235E+03 -0.24849598217E+03 -0.99528748677E+02  0.29043966800E+03  0.00000000000E+00 0.  1.
<mgrwt>
<rscale>  0 0.21506923E+04</rscale>
<asrwt>0</asrwt>
<pdfrwt beam="1">  1        2 0.22177571E+00 0.21506923E+04</pdfrwt>
<pdfrwt beam="2">  1       -1 0.12341157E+00 0.21506923E+04</pdfrwt>
<totfact> 0.82772547E+00</totfact>
</mgrwt>
</event>
<event>
12    6  0.1569942E-007  0.1540301E+04  0.7818608E-02  0.8858087E-01
          2   -1    0    0  501    0  0.00000000000E+00  0.00000000000E+00  0.98753633967E+03  0.98753633967E+03  0.00000000000E+00 0. -1.
         -1   -1    0    0    0  501 -0.00000000000E+00 -0.00000000000E+00 -0.60061745964E+03  0.60061745964E+03  0.00000000000E+00 0.  1.
         24    2    1    2    0    0  0.49903900936E+03 -0.84475453014E+02  0.10941544942E+03  0.52401348536E+03  0.80264296179E+02 0.  0.
        254    2    1    2    0    0 -0.49903900936E+03  0.84475453014E+02  0.27750343061E+03  0.10641403140E+04  0.89398569270E+03 0.  0.
         23    2    4    4    0    0  0.13186751586E+03  0.28404273499E+03 -0.33773514941E+02  0.32727180814E+03  0.88864329496E+02 0.  0.
         23    2    4    4    0    0 -0.63090652522E+03 -0.19956728197E+03  0.31127694556E+03  0.73686850581E+03  0.90618510400E+02 0.  0.
          4    1    3    3  502    0  0.39747036640E+03 -0.54608571287E+02  0.54930809896E+02  0.40494713495E+03  0.00000000000E+00 0. -1.
         -3    1    3    3    0  502  0.10156864296E+03 -0.29866881727E+02  0.54484639523E+02  0.11906635041E+03  0.00000000000E+00 0.  1.
         11    1    5    5    0    0  0.82262445436E+02  0.25035563178E+03 -0.41646402317E+02  0.26679481839E+03  0.00000000000E+00 0.  1.
        -11    1    5    5    0    0  0.49605070423E+02  0.33687103203E+02  0.78728873755E+01  0.60476989752E+02  0.00000000000E+00 0. -1.
          3    1    6    6  503    0 -0.19235732829E+03 -0.88099727871E+02  0.63082687572E+02  0.22077665019E+03  0.00000000000E+00 0. -1.
         -3    1    6    6    0  503 -0.43854919693E+03 -0.11146755410E+03  0.24819425798E+03  0.51609185563E+03  0.00000000000E+00 0.  1.
<mgrwt>
<rscale>  0 0.15403007E+04</rscale>
<asrwt>0</asrwt>
<pdfrwt beam="1">  1        2 0.15192867E+00 0.15403007E+04</pdfrwt>
<pdfrwt beam="2">  1       -1 0.92402686E-01 0.15403007E+04</pdfrwt>
<totfact> 0.32138668E+01</totfact>
</mgrwt>
</event>
<event>
12    6  0.1569942E-007  0.1921864E+04  0.7818608E-02  0.8644049E-01
          2   -1    0    0  501    0  0.00000000000E+00  0.00000000000E+00  0.11395392755E+04  0.11395392755E+04  0.00000000000E+00 0. -1.
         -1   -1    0    0    0  501 -0.00000000000E+00 -0.00000000000E+00 -0.81031886345E+03  0.81031886345E+03  0.00000000000E+00 0.  1.
         24    2    1    2    0    0 -0.30266774349E+03 -0.53972067249E+03 -0.29394593178E+03  0.68970106774E+03  0.79857277554E+02 0.  0.
        254    2    1    2    0    0  0.30266774349E+03  0.53972067249E+03  0.62316634384E+03  0.12601570712E+04  0.90374409252E+03 0.  0.
         23    2    4    4    0    0 -0.17689641560E+03 -0.63107048204E+02 -0.68446676650E+02  0.22016231603E+03  0.92258638988E+02 0.  0.
         23    2    4    4    0    0  0.47956415909E+03  0.60282772069E+03  0.69161302049E+03  0.10399947552E+04  0.99385497831E+02 0.  0.
          4    1    3    3  502    0 -0.80799327281E+02 -0.81482793393E+02 -0.50709938458E+02  0.12545706344E+03  0.00000000000E+00 0. -1.
         -3    1    3    3    0  502 -0.22186841621E+03 -0.45823787909E+03 -0.24323599332E+03  0.56424400430E+03  0.00000000000E+00 0.  1.
         11    1    5    5    0    0 -0.25384501116E+02 -0.28645714981E+02  0.18061507701E+02  0.42322192099E+02  0.00000000000E+00 0.  1.
        -11    1    5    5    0    0 -0.15151191449E+03 -0.34461333223E+02 -0.86508184351E+02  0.17784012393E+03  0.00000000000E+00 0. -1.
          2    1    6    6  503    0  0.37240932461E+03  0.41094913043E+03  0.53081163555E+03  0.76767759202E+03  0.00000000000E+00 0. -1.
         -2    1    6    6    0  503  0.10715483448E+03  0.19187859027E+03  0.16080138494E+03  0.27231716317E+03  0.00000000000E+00 0.  1.
<mgrwt>
<rscale>  0 0.19218639E+04</rscale>
<asrwt>0</asrwt>
<pdfrwt beam="1">  1        2 0.17531373E+00 0.19218639E+04</pdfrwt>
<pdfrwt beam="2">  1       -1 0.12466444E+00 0.19218639E+04</pdfrwt>
<totfact> 0.12376298E+01</totfact>
</mgrwt>
</event>
<event>
12    6  0.1569942E-007  0.1266226E+04  0.7818608E-02  0.9056785E-01
          2   -1    0    0  501    0  0.00000000000E+00  0.00000000000E+00  0.37652225988E+03  0.37652225988E+03  0.00000000000E+00 0. -1.
         -1   -1    0    0    0  501 -0.00000000000E+00 -0.00000000000E+00 -0.10645645201E+04  0.10645645201E+04  0.00000000000E+00 0.  1.
         24    2    1    2    0    0  0.10653545806E+03 -0.32475292714E+01  0.17453785900E+03  0.21919053298E+03  0.78871257462E+02 0.  0.
        254    2    1    2    0    0 -0.10653545806E+03  0.32475292714E+01 -0.86258011918E+03  0.12218962470E+04  0.85885134109E+03 0.  0.
         23    2    4    4    0    0 -0.20833693765E+03 -0.20640195914E+03  0.19115241228E+02  0.30624008962E+03  0.86090369509E+02 0.  0.
         23    2    4    4    0    0  0.10180147959E+03  0.20964948841E+03 -0.88169536041E+03  0.91565615734E+03  0.81994150296E+02 0.  0.
          2    1    3    3  502    0  0.84388587875E+02  0.30968566815E+02  0.13649901597E+03  0.16343949111E+03  0.00000000000E+00 0. -1.
         -1    1    3    3    0  502  0.22146870184E+02 -0.34216096086E+02  0.38038843028E+02  0.55751041867E+02  0.00000000000E+00 0.  1.
         11    1    5    5    0    0 -0.12046240579E+03 -0.16787734404E+03 -0.71928818461E+01  0.20675040846E+03  0.00000000000E+00 0.  1.
        -11    1    5    5    0    0 -0.87874531860E+02 -0.38524615096E+02  0.26308123074E+02  0.99489681161E+02  0.00000000000E+00 0. -1.
          3    1    6    6  503    0  0.49069145592E+02  0.25108933371E+02 -0.20089896055E+03  0.20832338307E+03  0.00000000000E+00 0. -1.
         -3    1    6    6    0  503  0.52732333994E+02  0.18454055504E+03 -0.68079639986E+03  0.70733277427E+03  0.00000000000E+00 0.  1.
<mgrwt>
<rscale>  0 0.12662263E+04</rscale>
<asrwt>0</asrwt>
<pdfrwt beam="1">  1        2 0.57926502E-01 0.12662263E+04</pdfrwt>
<pdfrwt beam="2">  1       -1 0.16377916E+00 0.12662263E+04</pdfrwt>
<totfact> 0.26200796E+01</totfact>
</mgrwt>
</event>
<event>
12    6  0.1569942E-007  0.1344429E+04  0.7818608E-02  0.8995056E-01
          2   -1    0    0  501    0  0.00000000000E+00  0.00000000000E+00  0.15094626163E+04  0.15094626163E+04  0.00000000000E+00 0. -1.
         -1   -1    0    0    0  501 -0.00000000000E+00 -0.00000000000E+00 -0.29935972847E+03  0.29935972847E+03  0.00000000000E+00 0.  1.
         24    2    1    2    0    0 -0.75046318738E+02  0.34744979947E+03  0.22838280167E+03  0.43005298899E+03  0.80209451604E+02 0.  0.
        254    2    1    2    0    0  0.75046318738E+02 -0.34744979947E+03  0.98172008617E+03  0.13787693558E+04  0.90048725465E+03 0.  0.
         23    2    4    4    0    0  0.19887629994E+03  0.11525584646E+03  0.83478830530E+03  0.87091299070E+03  0.93713552295E+02 0.  0.
         23    2    4    4    0    0 -0.12382998120E+03 -0.46270564594E+03  0.14693178086E+03  0.50785636509E+03  0.83058776250E+02 0.  0.
          4    1    3    3  502    0 -0.55755236521E+01  0.99559757022E+02  0.27292089392E+02  0.10338321830E+03  0.00000000000E+00 0. -1.
         -3    1    3    3    0  502 -0.69470795086E+02  0.24789004245E+03  0.20109071228E+03  0.32666977069E+03  0.00000000000E+00 0.  1.
         11    1    5    5    0    0  0.12007450003E+03  0.68151934187E+02  0.32797062372E+03  0.35584730112E+03  0.00000000000E+00 0. -1.
        -11    1    5    5    0    0  0.78801799905E+02  0.47103912274E+02  0.50681768158E+03  0.51506568958E+03  0.00000000000E+00 0.  1.
          2    1    6    6  503    0 -0.48059994452E+02 -0.14747902580E+03  0.88007830182E+02  0.17834013651E+03  0.00000000000E+00 0. -1.
         -2    1    6    6    0  503 -0.75769986746E+02 -0.31522662014E+03  0.58923950682E+02  0.32951622858E+03  0.00000000000E+00 0.  1.
<mgrwt>
<rscale>  0 0.13444290E+04</rscale>
<asrwt>0</asrwt>
<pdfrwt beam="1">  1        2 0.23222501E+00 0.13444290E+04</pdfrwt>
<pdfrwt beam="2">  1       -1 0.46055343E-01 0.13444290E+04</pdfrwt>
<totfact> 0.65451880E+01</totfact>
</mgrwt>
</event>
<event>
12    6  0.1569942E-007  0.1127557E+04  0.7818608E-02  0.9178742E-01
          2   -1    0    0  501    0  0.00000000000E+00  0.00000000000E+00  0.84741598604E+03  0.84741598604E+03  0.00000000000E+00 0. -1.
         -1   -1    0    0    0  501 -0.00000000000E+00 -0.00000000000E+00 -0.37507692633E+03  0.37507692633E+03  0.00000000000E+00 0.  1.
         24    2    1    2    0    0  0.25052447897E+02 -0.17979276381E+03  0.15526853432E+03  0.25213203135E+03  0.80679491934E+02 0.  0.
        254    2    1    2    0    0 -0.25052447897E+02  0.17979276381E+03  0.31707052539E+03  0.97036088101E+03  0.89895131029E+03 0.  0.
         23    2    4    4    0    0 -0.16142527785E+03 -0.31979392171E+03  0.29476057665E+02  0.37115714540E+03  0.92533863593E+02 0.  0.
         23    2    4    4    0    0  0.13637282996E+03  0.49958668552E+03  0.28759446772E+03  0.59920373561E+03  0.90278091486E+02 0.  0.
          2    1    3    3  502    0  0.23455957853E+02 -0.17461913449E+03  0.16474917988E+03  0.24121425406E+03  0.00000000000E+00 0. -1.
         -1    1    3    3    0  502  0.15964900437E+01 -0.51736293167E+01 -0.94806455593E+01  0.10917777292E+02  0.00000000000E+00 0.  1.
         11    1    5    5    0    0 -0.93391627874E+01  0.53079262356E+01  0.35144382938E+01  0.11302447479E+02  0.00000000000E+00 0.  1.
        -11    1    5    5    0    0 -0.15208611507E+03 -0.32510184795E+03  0.25961619371E+02  0.35985469792E+03  0.00000000000E+00 0. -1.
          1    1    6    6  503    0  0.13124162231E+03  0.39426667361E+03  0.26012197106E+03  0.49023873080E+03  0.00000000000E+00 0. -1.
         -1    1    6    6    0  503  0.51312076470E+01  0.10532001191E+03  0.27472496667E+02  0.10896500481E+03  0.00000000000E+00 0.  1.
<mgrwt>
<rscale>  0 0.11275570E+04</rscale>
<asrwt>0</asrwt>
<pdfrwt beam="1">  1        2 0.13037169E+00 0.11275570E+04</pdfrwt>
<pdfrwt beam="2">  1       -1 0.57704143E-01 0.11275570E+04</pdfrwt>
<totfact> 0.10967819E+02</totfact>
</mgrwt>
</event>
<event>
12    6  0.1569942E-007  0.2450399E+04  0.7818608E-02  0.8420872E-01
         -3   -1    0    0    0  501 -0.00000000000E+00  0.00000000000E+00  0.66065095266E+03  0.66065095266E+03  0.00000000000E+00 0.  1.
          2   -1    0    0  501    0  0.00000000000E+00 -0.00000000000E+00 -0.22721744107E+04  0.22721744107E+04  0.00000000000E+00 0. -1.
         24    2    1    2    0    0 -0.43156947016E+03  0.89198643901E+03 -0.24670228635E+03  0.10243508062E+04  0.80873612116E+02 0.  0.
        254    2    1    2    0    0  0.43156947016E+03 -0.89198643901E+03 -0.13648211717E+04  0.19084745571E+04  0.89311045768E+03 0.  0.
         23    2    4    4    0    0  0.84100986802E+02  0.16989449225E+03 -0.19151026009E+03  0.28549158918E+03  0.94298214682E+02 0.  0.
         23    2    4    4    0    0  0.34746848335E+03 -0.10618809313E+04 -0.11733109116E+04  0.16229829679E+04  0.95340232485E+02 0.  0.
          2    1    3    3  502    0 -0.39688612677E+03  0.80798736228E+03 -0.24699943959E+03  0.93347249471E+03  0.00000000000E+00 0. -1.
         -3    1    3    3    0  502 -0.34683343384E+02  0.83999076731E+02  0.29715324029E+00  0.90878311494E+02  0.00000000000E+00 0.  1.
         11    1    5    5    0    0 -0.16364257785E+02  0.61549734018E+02 -0.50988654193E+02  0.81584321698E+02  0.00000000000E+00 0. -1.
        -11    1    5    5    0    0  0.10046524459E+03  0.10834475823E+03 -0.14052160590E+03  0.20390726748E+03  0.00000000000E+00 0.  1.
          1    1    6    6  503    0  0.31890038104E+03 -0.10280778283E+04 -0.11152287419E+04  0.15499601997E+04  0.00000000000E+00 0. -1.
         -1    1    6    6    0  503  0.28568102311E+02 -0.33803102948E+02 -0.58082169706E+02  0.73022768205E+02  0.00000000000E+00 0.  1.
<mgrwt>
<rscale>  0 0.24503993E+04</rscale>
<asrwt>0</asrwt>
<pdfrwt beam="1">  1        2 0.34956529E+00 0.24503993E+04</pdfrwt>
<pdfrwt beam="2">  1       -3 0.10163861E+00 0.24503993E+04</pdfrwt>
<totfact> 0.22605418E+00</totfact>
</mgrwt>
</event>
<event>
12    6  0.1569942E-007  0.4454434E+04  0.7818608E-02  0.7918663E-01
          2   -1    0    0  501    0  0.00000000000E+00  0.00000000000E+00  0.25860224940E+04  0.25860224940E+04  0.00000000000E+00 0. -1.
         -1   -1    0    0    0  501 -0.00000000000E+00 -0.00000000000E+00 -0.19181946619E+04  0.19181946619E+04  0.00000000000E+00 0.  1.
         24    2    1    2    0    0  0.32770073761E+03  0.20278502620E+04  0.90430481639E+03  0.22458551488E+04  0.80831241821E+02 0.  0.
        254    2    1    2    0    0 -0.32770073761E+03 -0.20278502620E+04 -0.23647698426E+03  0.22583620071E+04  0.90813717695E+03 0.  0.
         23    2    4    4    0    0 -0.60470666720E+02 -0.99809097124E+03 -0.55106797123E+03  0.11453012635E+04  0.90536108619E+02 0.  0.
         23    2    4    4    0    0 -0.26723007089E+03 -0.10297592908E+04  0.31459098697E+03  0.11130607435E+04  0.90114493199E+02 0.  0.
          4    1    3    3  502    0  0.29350384730E+03  0.18586188130E+04  0.80437726160E+03  0.20463702449E+04  0.00000000000E+00 0. -1.
         -1    1    3    3    0  502  0.34196890315E+02  0.16923144907E+03  0.99927554789E+02  0.19948490386E+03  0.00000000000E+00 0.  1.
         11    1    5    5    0    0 -0.53178016775E+02 -0.34840102135E+03 -0.16095608719E+03  0.38745068738E+03  0.00000000000E+00 0. -1.
        -11    1    5    5    0    0 -0.72926499457E+01 -0.64968994989E+03 -0.39011188404E+03  0.75785057617E+03  0.00000000000E+00 0.  1.
          1    1    6    6  503    0 -0.24064021640E+02 -0.24224886882E+03  0.75731248532E+02  0.25494864892E+03  0.00000000000E+00 0. -1.
         -1    1    6    6    0  503 -0.24316604925E+03 -0.78751042198E+03  0.23885973844E+03  0.85811209459E+03  0.00000000000E+00 0.  1.
<mgrwt>
<rscale>  0 0.44544335E+04</rscale>
<asrwt>0</asrwt>
<pdfrwt beam="1">  1        2 0.39784961E+00 0.44544335E+04</pdfrwt>
<pdfrwt beam="2">  1       -1 0.29510687E+00 0.44544335E+04</pdfrwt>
<totfact> 0.95257000E-02</totfact>
</mgrwt>
</event>
<event>
12    6  0.1569942E-007  0.1947074E+04  0.7818608E-02  0.8631773E-01
         -1   -1    0    0    0  501 -0.00000000000E+00  0.00000000000E+00  0.58175061085E+03  0.58175061085E+03  0.00000000000E+00 0.  1.
          2   -1    0    0  501    0  0.00000000000E+00 -0.00000000000E+00 -0.16291757930E+04  0.16291757930E+04  0.00000000000E+00 0. -1.
         24    2    1    2    0    0 -0.70154651166E+03 -0.27155457539E+03 -0.53497322948E+03  0.92750148598E+03  0.90295375295E+02 0.  0.
        254    2    1    2    0    0  0.70154651166E+03  0.27155457539E+03 -0.51245195265E+03  0.12834249178E+04  0.90480004449E+03 0.  0.
         23    2    4    4    0    0  0.71471238969E+03  0.37348157533E+02 -0.98044246434E+01  0.72177630298E+03  0.93038808836E+02 0.  0.
         23    2    4    4    0    0 -0.13165878025E+02  0.23420641786E+03 -0.50264752800E+03  0.56164861486E+03  0.88139903909E+02 0.  0.
          2    1    3    3  502    0 -0.63231924473E+02 -0.47356471415E+02 -0.78471934264E+02  0.11134970195E+03  0.00000000000E+00 0. -1.
         -1    1    3    3    0  502 -0.63831458719E+03 -0.22419810398E+03 -0.45650129522E+03  0.81615178403E+03  0.00000000000E+00 0.  1.
         11    1    5    5    0    0  0.65285423785E+03  0.13650133078E+02 -0.26246041599E+02  0.65352416689E+03  0.00000000000E+00 0. -1.
        -11    1    5    5    0    0  0.61858151839E+02  0.23698024456E+02  0.16441616955E+02  0.68252136085E+02  0.00000000000E+00 0.  1.
          2    1    6    6  503    0  0.31730511799E+02  0.14246285795E+03 -0.33374835762E+03  0.36426701400E+03  0.00000000000E+00 0. -1.
         -2    1    6    6    0  503 -0.44896389824E+02  0.91743559904E+02 -0.16889917039E+03  0.19738160087E+03  0.00000000000E+00 0.  1.
<mgrwt>
<rscale>  0 0.19470737E+04</rscale>
<asrwt>0</asrwt>
<pdfrwt beam="1">  1        2 0.25064242E+00 0.19470737E+04</pdfrwt>
<pdfrwt beam="2">  1       -1 0.89500096E-01 0.19470737E+04</pdfrwt>
<totfact> 0.13959733E+01</totfact>
</mgrwt>
</event>
<event>
12    6  0.1569942E-007  0.1832060E+04  0.7818608E-02  0.8689434E-01
         -1   -1    0    0    0  501 -0.00000000000E+00  0.00000000000E+00  0.48227692830E+03  0.48227692830E+03  0.00000000000E+00 0.  1.
          2   -1    0    0  501    0  0.00000000000E+00 -0.00000000000E+00 -0.17398951542E+04  0.17398951542E+04  0.00000000000E+00 0. -1.
         24    2    1    2    0    0  0.94379637858E+02 -0.65558832254E+03 -0.71580191142E+03  0.97880836357E+03  0.83605451446E+02 0.  0.
        254    2    1    2    0    0 -0.94379637858E+02  0.65558832254E+03 -0.54181631448E+03  0.12433637189E+04  0.90204481830E+03 0.  0.
         23    2    4    4    0    0  0.24651985406E+03 -0.42338060680E+02  0.37878605073E+02  0.26974690790E+03  0.93616535765E+02 0.  0.
         23    2    4    4    0    0 -0.34089949192E+03  0.69792638322E+03 -0.57969491955E+03  0.97361681103E+03  0.92573187208E+02 0.  0.
          2    1    3    3  502    0  0.54204394905E+02 -0.53507763668E+03 -0.61222930667E+03  0.81490546547E+03  0.00000000000E+00 0. -1.
         -1    1    3    3    0  502  0.40175242952E+02 -0.12051068586E+03 -0.10357260476E+03  0.16390289811E+03  0.00000000000E+00 0.  1.
         11    1    5    5    0    0  0.20318667253E+03  0.45127832271E+01  0.27447787054E+02  0.20508186200E+03  0.00000000000E+00 0.  1.
        -11    1    5    5    0    0  0.43333181529E+02 -0.46850843907E+02  0.10430818018E+02  0.64665045897E+02  0.00000000000E+00 0. -1.
          3    1    6    6  503    0  0.50916822775E+01  0.17102110257E+02 -0.19884047797E+02  0.26716713130E+02  0.00000000000E+00 0. -1.
         -3    1    6    6    0  503 -0.34599117420E+03  0.68082427296E+03 -0.55981087175E+03  0.94690009790E+03  0.00000000000E+00 0.  1.
<mgrwt>
<rscale>  0 0.18320604E+04</rscale>
<asrwt>0</asrwt>
<pdfrwt beam="1">  1        2 0.26767618E+00 0.18320604E+04</pdfrwt>
<pdfrwt beam="2">  1       -1 0.74196450E-01 0.18320604E+04</pdfrwt>
<totfact> 0.18275490E+01</totfact>
</mgrwt>
</event>
<event>
12    6  0.1569942E-007  0.2906252E+04  0.7818608E-02  0.8271020E-01
         -3   -1    0    0    0  501 -0.00000000000E+00  0.00000000000E+00  0.14783162629E+04  0.14783162629E+04  0.00000000000E+00 0.  1.
          2   -1    0    0  501    0  0.00000000000E+00 -0.00000000000E+00 -0.14283649411E+04  0.14283649411E+04  0.00000000000E+00 0. -1.
         24    2    1    2    0    0  0.78455511056E+03  0.63682870913E+03  0.84330176112E+03  0.13185442184E+04  0.79520244398E+02 0.  0.
        254    2    1    2    0    0 -0.78455511056E+03 -0.63682870913E+03 -0.79335043933E+03  0.15881369857E+04  0.93364695653E+03 0.  0.
         23    2    4    4    0    0  0.13519208481E+03  0.10111501131E+03 -0.13237583910E+03  0.23281023133E+03  0.90421765779E+02 0.  0.
         23    2    4    4    0    0 -0.91974719537E+03 -0.73794372044E+03 -0.66097460022E+03  0.13553267544E+04  0.97608150279E+02 0.  0.
          4    1    3    3  502    0  0.72280642418E+03  0.58923902898E+03  0.80375881608E+03  0.12311295604E+04  0.00000000000E+00 0. -1.
         -3    1    3    3    0  502  0.61748686381E+02  0.47589680154E+02  0.39542945047E+02  0.87414657980E+02  0.00000000000E+00 0.  1.
         11    1    5    5    0    0  0.11064306160E+03  0.55674537699E+02 -0.45914004745E+02  0.13209707438E+03  0.00000000000E+00 0. -1.
        -11    1    5    5    0    0  0.24549023213E+02  0.45440473611E+02 -0.86461834359E+02  0.10071315695E+03  0.00000000000E+00 0.  1.
          4    1    6    6  503    0 -0.73602478884E+03 -0.53887181977E+03 -0.51797628147E+03  0.10490065567E+04  0.00000000000E+00 0. -1.
         -4    1    6    6    0  503 -0.18372240653E+03 -0.19907190067E+03 -0.14299831875E+03  0.30632019761E+03  0.00000000000E+00 0.  1.
<mgrwt>
<rscale>  0 0.29062520E+04</rscale>
<asrwt>0</asrwt>
<pdfrwt beam="1">  1        2 0.21974845E+00 0.29062520E+04</pdfrwt>
<pdfrwt beam="2">  1       -3 0.22743327E+00 0.29062520E+04</pdfrwt>
<totfact> 0.75228657E-01</totfact>
</mgrwt>
</event>
<event>
12    6  0.1569942E-007  0.1214249E+04  0.7818608E-02  0.9100475E-01
          2   -1    0    0  501    0  0.00000000000E+00  0.00000000000E+00  0.39516977418E+03  0.39516977418E+03  0.00000000000E+00 0. -1.
         -1   -1    0    0    0  501 -0.00000000000E+00 -0.00000000000E+00 -0.93276430980E+03  0.93276430980E+03  0.00000000000E+00 0.  1.
         24    2    1    2    0    0  0.17348894925E+03  0.18859646278E+02  0.74978233858E+02  0.20704922170E+03  0.82422951209E+02 0.  0.
        254    2    1    2    0    0 -0.17348894925E+03 -0.18859646278E+02 -0.61257276948E+03  0.11208848623E+04  0.92232498330E+03 0.  0.
         23    2    4    4    0    0  0.18997490583E+03 -0.50976441957E+01 -0.70417413377E+03  0.73482356772E+03  0.89375691274E+02 0.  0.
         23    2    4    4    0    0 -0.36346385508E+03 -0.13762002082E+02  0.91601364294E+02  0.38606129456E+03  0.91417430328E+02 0.  0.
          4    1    3    3  502    0  0.15082537859E+03  0.31730081341E+02  0.32971855781E+02  0.15761420038E+03  0.00000000000E+00 0. -1.
         -3    1    3    3    0  502  0.22663570658E+02 -0.12870435063E+02  0.42006378077E+02  0.49435021319E+02  0.00000000000E+00 0.  1.
         11    1    5    5    0    0  0.14731595304E+03 -0.17851602860E+02 -0.63823818774E+03  0.65526227881E+03  0.00000000000E+00 0.  1.
        -11    1    5    5    0    0  0.42658952783E+02  0.12753958665E+02 -0.65935946030E+02  0.79561288911E+02  0.00000000000E+00 0. -1.
          1    1    6    6  503    0 -0.26850423192E+03 -0.31437371731E+02  0.31182850291E+02  0.27213085281E+03  0.00000000000E+00 0. -1.
         -1    1    6    6    0  503 -0.94959623159E+02  0.17675369648E+02  0.60418514004E+02  0.11393044175E+03  0.00000000000E+00 0.  1.
<mgrwt>
<rscale>  0 0.12142492E+04</rscale>
<asrwt>0</asrwt>
<pdfrwt beam="1">  1        2 0.60795350E-01 0.12142492E+04</pdfrwt>
<pdfrwt beam="2">  1       -1 0.14350220E+00 0.12142492E+04</pdfrwt>
<totfact> 0.35732281E+01</totfact>
</mgrwt>
</event>
<event>
12    6  0.1569942E-007  0.1223143E+04  0.7818608E-02  0.9092837E-01
         -1   -1    0    0    0  501 -0.00000000000E+00  0.00000000000E+00  0.67541552679E+03  0.67541552679E+03  0.00000000000E+00 0.  1.
          2   -1    0    0  501    0  0.00000000000E+00 -0.00000000000E+00 -0.55376224763E+03  0.55376224763E+03  0.00000000000E+00 0. -1.
         24    2    1    2    0    0 -0.60727980414E+02  0.26463617377E+03  0.11151143994E+03  0.30395855308E+03  0.78967136725E+02 0.  0.
        254    2    1    2    0    0  0.60727980414E+02 -0.26463617377E+03  0.10141839221E+02  0.92521922134E+03  0.88442498753E+03 0.  0.
         23    2    4    4    0    0  0.27705474375E+03 -0.31090192387E+03  0.31862797183E+03  0.53254569517E+03  0.93068768704E+02 0.  0.
         23    2    4    4    0    0 -0.21632676334E+03  0.46265750104E+02 -0.30848613261E+03  0.39267352617E+03  0.10045404905E+03 0.  0.
          2    1    3    3  502    0  0.72143122608E+01  0.13920221998E+02 -0.84796925101E+01  0.17824816042E+02  0.00000000000E+00 0. -1.
         -1    1    3    3    0  502 -0.67942292675E+02  0.25071595177E+03  0.11999113245E+03  0.28613373704E+03  0.00000000000E+00 0.  1.
         11    1    5    5    0    0  0.33647404506E+01 -0.41492048306E+02  0.42869872433E+02  0.59755648380E+02  0.00000000000E+00 0.  1.
        -11    1    5    5    0    0  0.27369000330E+03 -0.26940987557E+03  0.27575809940E+03  0.47279004679E+03  0.00000000000E+00 0. -1.
          2    1    6    6  503    0 -0.19445287370E+03  0.40548829967E+02 -0.31192812722E+03  0.36980438647E+03  0.00000000000E+00 0. -1.
         -2    1    6    6    0  503 -0.21873889639E+02  0.57169201362E+01  0.34419946057E+01  0.22869139701E+02  0.00000000000E+00 0.  1.
<mgrwt>
<rscale>  0 0.12231429E+04</rscale>
<asrwt>0</asrwt>
<pdfrwt beam="1">  1        2 0.85194192E-01 0.12231429E+04</pdfrwt>
<pdfrwt beam="2">  1       -1 0.10391008E+00 0.12231429E+04</pdfrwt>
<totfact> 0.53679814E+01</totfact>
</mgrwt>
</event>
<event>
12    6  0.1569942E-007  0.1634968E+04  0.7818608E-02  0.8799349E-01
         -1   -1    0    0    0  501 -0.00000000000E+00  0.00000000000E+00  0.27519325711E+03  0.27519325711E+03  0.00000000000E+00 0.  1.
          2   -1    0    0  501    0  0.00000000000E+00 -0.00000000000E+00 -0.24284040536E+04  0.24284040536E+04  0.00000000000E+00 0. -1.
         24    2    1    2    0    0 -0.54480915517E+03 -0.14665342849E+03 -0.58510197762E+03  0.81679142889E+03  0.80496400139E+02 0.  0.
        254    2    1    2    0    0  0.54480915517E+03  0.14665342849E+03 -0.15681088189E+04  0.18868058819E+04  0.88472985947E+03 0.  0.
         23    2    4    4    0    0  0.25163797418E+03 -0.23393191386E+03 -0.12600125330E+04  0.13090949898E+04  0.89734601734E+02 0.  0.
         23    2    4    4    0    0  0.29317118099E+03  0.38058534234E+03 -0.30809628591E+03  0.57771089202E+03  0.89621477321E+02 0.  0.
          2    1    3    3  502    0 -0.53687601184E+03 -0.13513433076E+03 -0.55662967927E+03  0.78506925764E+03  0.00000000000E+00 0. -1.
         -1    1    3    3    0  502 -0.79331433383E+01 -0.11519097721E+02 -0.28472298351E+02  0.31722171252E+02  0.00000000000E+00 0.  1.
         11    1    5    5    0    0  0.20121893320E+03 -0.17400787507E+03 -0.81714482293E+03  0.85935642274E+03  0.00000000000E+00 0. -1.
        -11    1    5    5    0    0  0.50419040985E+02 -0.59924038781E+02 -0.44286771007E+03  0.44973856710E+03  0.00000000000E+00 0.  1.
          1    1    6    6  503    0  0.17728447673E+03  0.20913571489E+03 -0.12467913078E+03  0.30118502384E+03  0.00000000000E+00 0. -1.
         -1    1    6    6    0  503  0.11588670426E+03  0.17144962745E+03 -0.18341715513E+03  0.27652586819E+03  0.00000000000E+00 0.  1.
<mgrwt>
<rscale>  0 0.16349684E+04</rscale>
<asrwt>0</asrwt>
<pdfrwt beam="1">  1        2 0.37360061E+00 0.16349684E+04</pdfrwt>
<pdfrwt beam="2">  1       -1 0.42337425E-01 0.16349684E+04</pdfrwt>
<totfact> 0.22913226E+01</totfact>
</mgrwt>
</event>
<event>
12    6  0.1569942E-007  0.1257393E+04  0.7818608E-02  0.9064052E-01
         -1   -1    0    0    0  501 -0.00000000000E+00  0.00000000000E+00  0.58103717306E+03  0.58103717306E+03  0.00000000000E+00 0.  1.
          2   -1    0    0  501    0  0.00000000000E+00 -0.00000000000E+00 -0.68026550616E+03  0.68026550616E+03  0.00000000000E+00 0. -1.
         24    2    1    2    0    0  0.28521309814E+03 -0.40667531551E+02  0.10720688893E+02  0.29908183942E+03  0.79590539823E+02 0.  0.
        254    2    1    2    0    0 -0.28521309814E+03  0.40667531551E+02 -0.10994902199E+03  0.96222083979E+03  0.91147122699E+03 0.  0.
         23    2    4    4    0    0  0.16212694311E+03 -0.26963701851E+03  0.13990630587E+03  0.35723777952E+03  0.95161910758E+02 0.  0.
         23    2    4    4    0    0 -0.44734004126E+03  0.31030455007E+03 -0.24985532786E+03  0.60498306027E+03  0.84704144231E+02 0.  0.
          4    1    3    3  502    0  0.13708021103E+03 -0.46370430040E+02 -0.24355422447E+02  0.14674599701E+03  0.00000000000E+00 0. -1.
         -3    1    3    3    0  502  0.14813288712E+03  0.57028984883E+01  0.35076111339E+02  0.15233584241E+03  0.00000000000E+00 0.  1.
         11    1    5    5    0    0  0.86072399144E+02 -0.70857368993E+02  0.76329001340E+02  0.13511232764E+03  0.00000000000E+00 0. -1.
        -11    1    5    5    0    0  0.76054543970E+02 -0.19877964952E+03  0.63577304532E+02  0.22212545188E+03  0.00000000000E+00 0.  1.
          4    1    6    6  503    0 -0.26861191011E+03  0.13737140239E+03 -0.15076381509E+03  0.33727286933E+03  0.00000000000E+00 0. -1.
         -4    1    6    6    0  503 -0.17872813114E+03  0.17293314768E+03 -0.99091512776E+02  0.26771019093E+03  0.00000000000E+00 0.  1.
<mgrwt>
<rscale>  0 0.12573934E+04</rscale>
<asrwt>0</asrwt>
<pdfrwt beam="1">  1        2 0.10465623E+00 0.12573934E+04</pdfrwt>
<pdfrwt beam="2">  1       -1 0.89390335E-01 0.12573934E+04</pdfrwt>
<totfact> 0.58522365E+01</totfact>
</mgrwt>
</event>
<event>
12    6  0.1569942E-007  0.1753379E+04  0.7818608E-02  0.8731493E-01
         -1   -1    0    0    0  501 -0.00000000000E+00  0.00000000000E+00  0.61175516050E+03  0.61175516050E+03  0.00000000000E+00 0.  1.
          2   -1    0    0  501    0  0.00000000000E+00 -0.00000000000E+00 -0.12563595781E+04  0.12563595781E+04  0.00000000000E+00 0. -1.
         24    2    1    2    0    0  0.68259148379E+02  0.59327121248E+03 -0.49415920254E+03  0.77925978026E+03  0.80140157040E+02 0.  0.
        254    2    1    2    0    0 -0.68259148379E+02 -0.59327121248E+03 -0.15044521510E+03  0.10888549584E+04  0.89796509663E+03 0.  0.
         23    2    4    4    0    0 -0.39199579456E+03 -0.28295805623E+02  0.34719647934E+02  0.40561397609E+03  0.94105728173E+02 0.  0.
         23    2    4    4    0    0  0.32373664619E+03 -0.56497540686E+03 -0.18516486303E+03  0.68324098230E+03  0.92355762952E+02 0.  0.
          2    1    3    3  502    0  0.41688885677E+02  0.30128409670E+03 -0.30255742540E+03  0.42901173151E+03  0.00000000000E+00 0. -1.
         -1    1    3    3    0  502  0.26570262702E+02  0.29198711579E+03 -0.19160177715E+03  0.35024804875E+03  0.00000000000E+00 0.  1.
         11    1    5    5    0    0 -0.27806130181E+03  0.85594756001E+01  0.56578371606E+02  0.28388811937E+03  0.00000000000E+00 0.  1.
        -11    1    5    5    0    0 -0.11393449275E+03 -0.36855281223E+02 -0.21858723672E+02  0.12172585672E+03  0.00000000000E+00 0. -1.
          1    1    6    6  503    0  0.15092608930E+03 -0.18687957626E+03 -0.91887712546E+02  0.25718867038E+03  0.00000000000E+00 0. -1.
         -1    1    6    6    0  503  0.17281055688E+03 -0.37809583060E+03 -0.93277150489E+02  0.42605231192E+03  0.00000000000E+00 0.  1.
<mgrwt>
<rscale>  0 0.17533790E+04</rscale>
<asrwt>0</asrwt>
<pdfrwt beam="1">  1        2 0.19328609E+00 0.17533790E+04</pdfrwt>
<pdfrwt beam="2">  1       -1 0.94116179E-01 0.17533790E+04</pdfrwt>
<totfact> 0.20716704E+01</totfact>
</mgrwt>
</event>
<event>
12    6  0.1569942E-007  0.2173278E+04  0.7818608E-02  0.8529634E-01
         -1   -1    0    0    0  501 -0.00000000000E+00  0.00000000000E+00  0.58742948892E+03  0.58742948892E+03  0.00000000000E+00 0.  1.
          2   -1    0    0  501    0  0.00000000000E+00 -0.00000000000E+00 -0.20100862570E+04  0.20100862570E+04  0.00000000000E+00 0. -1.
         24    2    1    2    0    0 -0.13716883657E+02  0.23156925295E+03  0.44497117116E+03  0.50873946687E+03  0.83690084084E+02 0.  0.
        254    2    1    2    0    0  0.13716883657E+02 -0.23156925295E+03 -0.18676279392E+04  0.20887762790E+04  0.90616761843E+03 0.  0.
         23    2    4    4    0    0 -0.42256535566E+03 -0.20427799305E+03 -0.80409256052E+03  0.93551739908E+03  0.91307063493E+02 0.  0.
         23    2    4    4    0    0  0.43628223932E+03 -0.27291259903E+02 -0.10635353787E+04  0.11532588799E+04  0.88382901252E+02 0.  0.
          4    1    3    3  502    0  0.99023489113E+01  0.15087721181E+03  0.20692163930E+03  0.25627827526E+03  0.00000000000E+00 0. -1.
         -1    1    3    3    0  502 -0.23619232568E+02  0.80692041142E+02  0.23804953186E+03  0.25246119161E+03  0.00000000000E+00 0.  1.
         11    1    5    5    0    0 -0.34305855123E+03 -0.14692997843E+03 -0.56522173225E+03  0.67731321760E+03  0.00000000000E+00 0. -1.
        -11    1    5    5    0    0 -0.79506804430E+02 -0.57348014616E+02 -0.23887082827E+03  0.25820418147E+03  0.00000000000E+00 0.  1.
          4    1    6    6  503    0  0.40326530616E+03 -0.44044842974E+02 -0.10074349834E+04  0.10860424030E+04  0.00000000000E+00 0. -1.
         -4    1    6    6    0  503  0.33016933163E+02  0.16753583071E+02 -0.56100395321E+02  0.67216476971E+02  0.00000000000E+00 0.  1.
<mgrwt>
<rscale>  0 0.21732777E+04</rscale>
<asrwt>0</asrwt>
<pdfrwt beam="1">  1        2 0.30924404E+00 0.21732777E+04</pdfrwt>
<pdfrwt beam="2">  1       -1 0.90373767E-01 0.21732777E+04</pdfrwt>
<totfact> 0.82307741E+00</totfact>
</mgrwt>
</event>
<event>
12    6  0.1569942E-007  0.2262905E+04  0.7818608E-02  0.8492692E-01
         -1   -1    0    0    0  501 -0.00000000000E+00  0.00000000000E+00  0.56687587464E+03  0.56687587464E+03  0.00000000000E+00 0.  1.
          2   -1    0    0  501    0  0.00000000000E+00 -0.00000000000E+00 -0.22583154170E+04  0.22583154170E+04  0.00000000000E+00 0. -1.
         24    2    1    2    0    0 -0.74825340606E+03  0.41396106012E+03 -0.12170852773E+04  0.14894146472E+04  0.76239754967E+02 0.  0.
        254    2    1    2    0    0  0.74825340606E+03 -0.41396106012E+03 -0.47435426508E+03  0.13357766444E+04  0.90996722799E+03 0.  0.
         23    2    4    4    0    0  0.37929883032E+03 -0.11489741416E+03 -0.69468549834E+03  0.80449251541E+03  0.86897912979E+02 0.  0.
         23    2    4    4    0    0  0.36895457574E+03 -0.29906364596E+03  0.22033123326E+03  0.53128412901E+03  0.90279732504E+02 0.  0.
          4    1    3    3  502    0 -0.38406391528E+03  0.20906120369E+03 -0.55633106635E+03  0.70761284139E+03  0.00000000000E+00 0. -1.
         -3    1    3    3    0  502 -0.36418949077E+03  0.20489985643E+03 -0.66075421092E+03  0.78180180583E+03  0.00000000000E+00 0.  1.
         11    1    5    5    0    0  0.65493204332E+02 -0.25590984905E+02 -0.67250901016E+02  0.97298211748E+02  0.00000000000E+00 0.  1.
        -11    1    5    5    0    0  0.31380562599E+03 -0.89306429254E+02 -0.62743459732E+03  0.70719430366E+03  0.00000000000E+00 0. -1.
          3    1    6    6  503    0  0.32868781770E+03 -0.22411217174E+03  0.17179608129E+03  0.43333109809E+03  0.00000000000E+00 0. -1.
         -3    1    6    6    0  503  0.40266758039E+02 -0.74951474219E+02  0.48535151971E+02  0.97953030925E+02  0.00000000000E+00 0.  1.
<mgrwt>
<rscale>  0 0.22629048E+04</rscale>
<asrwt>0</asrwt>
<pdfrwt beam="1">  1        2 0.34743314E+00 0.22629048E+04</pdfrwt>
<pdfrwt beam="2">  1       -1 0.87211674E-01 0.22629048E+04</pdfrwt>
<totfact> 0.64118282E+00</totfact>
</mgrwt>
</event>
<event>
12    6  0.1569942E-007  0.1515474E+04  0.7818608E-02  0.8874228E-01
          2   -1    0    0  501    0  0.00000000000E+00  0.00000000000E+00  0.50315917781E+03  0.50315917781E+03  0.00000000000E+00 0. -1.
         -1   -1    0    0    0  501 -0.00000000000E+00 -0.00000000000E+00 -0.11411205202E+04  0.11411205202E+04  0.00000000000E+00 0.  1.
         24    2    1    2    0    0 -0.32260307900E+03 -0.24035315368E+03  0.86615212375E+02  0.41915085927E+03  0.79642091535E+02 0.  0.
        254    2    1    2    0    0  0.32260307900E+03  0.24035315368E+03 -0.72457655473E+03  0.12251288387E+04  0.90226775554E+03 0.  0.
         23    2    4    4    0    0  0.42750402273E+03  0.35012891997E+03 -0.90879732699E+02  0.56720051674E+03  0.90040825862E+02 0.  0.
         23    2    4    4    0    0 -0.10490094373E+03 -0.10977576628E+03 -0.63369682203E+03  0.65792832197E+03  0.90791451898E+02 0.  0.
          4    1    3    3  502    0 -0.20221060942E+03 -0.13287108860E+03  0.88820183742E+02  0.25774576968E+03  0.00000000000E+00 0. -1.
         -3    1    3    3    0  502 -0.12039246958E+03 -0.10748206508E+03 -0.22049713671E+01  0.16140508959E+03  0.00000000000E+00 0.  1.
         11    1    5    5    0    0  0.41133736088E+03  0.34323811708E+03 -0.70600275488E+02  0.54036582828E+03  0.00000000000E+00 0.  1.
        -11    1    5    5    0    0  0.16166661853E+02  0.68908028857E+01 -0.20279457211E+02  0.26834688458E+02  0.00000000000E+00 0. -1.
          2    1    6    6  503    0 -0.30480289150E+01 -0.65601611573E+02 -0.21986689053E+03  0.22946527291E+03  0.00000000000E+00 0. -1.
         -2    1    6    6    0  503 -0.10185291482E+03 -0.44174154712E+02 -0.41382993150E+03  0.42846304905E+03  0.00000000000E+00 0.  1.
<mgrwt>
<rscale>  0 0.15154739E+04</rscale>
<asrwt>0</asrwt>
<pdfrwt beam="1">  1        2 0.77409104E-01 0.15154739E+04</pdfrwt>
<pdfrwt beam="2">  1       -1 0.17555700E+00 0.15154739E+04</pdfrwt>
<totfact> 0.15111565E+01</totfact>
</mgrwt>
</event>
<event>
12    6  0.1569942E-007  0.2058974E+04  0.7818608E-02  0.8579534E-01
          2   -1    0    0  501    0  0.00000000000E+00  0.00000000000E+00  0.13861171591E+04  0.13861171591E+04  0.00000000000E+00 0. -1.
         -1   -1    0    0    0  501 -0.00000000000E+00 -0.00000000000E+00 -0.76461313990E+03  0.76461313990E+03  0.00000000000E+00 0.  1.
         24    2    1    2    0    0  0.11360045563E+03  0.13495847287E+03  0.10996890151E+04  0.11165272928E+04  0.78729999507E+02 0.  0.
        254    2    1    2    0    0 -0.11360045563E+03 -0.13495847287E+03 -0.47818499584E+03  0.10342030062E+04  0.89988672337E+03 0.  0.
         23    2    4    4    0    0 -0.12779499315E+02  0.36602617210E+03 -0.95781724571E+02  0.38940842533E+03  0.91248609266E+02 0.  0.
         23    2    4    4    0    0 -0.10082095632E+03 -0.50098464497E+03 -0.38240327127E+03  0.64479458089E+03  0.91527645788E+02 0.  0.
          4    1    3    3  502    0  0.23573774793E+02 -0.22386860104E+01  0.25135779529E+03  0.25247074251E+03  0.00000000000E+00 0. -1.
         -3    1    3    3    0  502  0.90026680841E+02  0.13719715888E+03  0.84833121977E+03  0.86405655030E+03  0.00000000000E+00 0.  1.
         11    1    5    5    0    0 -0.46795613734E+02  0.22437126798E+03 -0.36321470631E+02  0.23205935575E+03  0.00000000000E+00 0. -1.
        -11    1    5    5    0    0  0.34016114420E+02  0.14165490411E+03 -0.59460253939E+02  0.15734906958E+03  0.00000000000E+00 0.  1.
          2    1    6    6  503    0  0.47756864441E+01 -0.24091276433E+02 -0.44610257343E+02  0.50924177375E+02  0.00000000000E+00 0. -1.
         -2    1    6    6    0  503 -0.10559664276E+03 -0.47689336853E+03 -0.33779301393E+03  0.59387040352E+03  0.00000000000E+00 0.  1.
<mgrwt>
<rscale>  0 0.20589739E+04</rscale>
<asrwt>0</asrwt>
<pdfrwt beam="1">  1        2 0.21324879E+00 0.20589739E+04</pdfrwt>
<pdfrwt beam="2">  1       -1 0.11763279E+00 0.20589739E+04</pdfrwt>
<totfact> 0.10094170E+01</totfact>
</mgrwt>
</event>
<event>
12    6  0.1569942E-007  0.2799854E+04  0.7818608E-02  0.8303314E-01
         -1   -1    0    0    0  501 -0.00000000000E+00  0.00000000000E+00  0.62872434045E+03  0.62872434045E+03  0.00000000000E+00 0.  1.
          2   -1    0    0  501    0  0.00000000000E+00 -0.00000000000E+00 -0.31170993657E+04  0.31170993657E+04  0.00000000000E+00 0. -1.
         24    2    1    2    0    0 -0.62080865991E+03 -0.87428782682E+03 -0.19850600158E+04  0.22576552131E+04  0.82226505716E+02 0.  0.
        254    2    1    2    0    0  0.62080865991E+03  0.87428782682E+03 -0.50331500939E+03  0.14881684931E+04  0.90085341134E+03 0.  0.
         23    2    4    4    0    0  0.50184109809E+03  0.81164296945E+03  0.39771482664E+00  0.95866326368E+03  0.91794865602E+02 0.  0.
         23    2    4    4    0    0  0.11896756181E+03  0.62644857365E+02 -0.50371272421E+03  0.52950522938E+03  0.92583046444E+02 0.  0.
          2    1    3    3  502    0 -0.14009085755E+03 -0.20220425693E+03 -0.53092160587E+03  0.58514080483E+03  0.00000000000E+00 0. -1.
         -1    1    3    3    0  502 -0.48071780236E+03 -0.67208356989E+03 -0.14541384100E+04  0.16725144082E+04  0.00000000000E+00 0.  1.
         11    1    5    5    0    0  0.18291358839E+03  0.32066913061E+03  0.42916783547E+02  0.37165565037E+03  0.00000000000E+00 0.  1.
        -11    1    5    5    0    0  0.31892750970E+03  0.49097383885E+03 -0.42519068721E+02  0.58700761331E+03  0.00000000000E+00 0. -1.
          4    1    6    6  503    0  0.12253198739E+03  0.68248889400E+02 -0.37100955561E+03  0.39663596558E+03  0.00000000000E+00 0. -1.
         -4    1    6    6    0  503 -0.35644255844E+01 -0.56040320348E+01 -0.13270316861E+03  0.13286926380E+03  0.00000000000E+00 0.  1.
<mgrwt>
<rscale>  0 0.27998545E+04</rscale>
<asrwt>0</asrwt>
<pdfrwt beam="1">  1        2 0.47955376E+00 0.27998545E+04</pdfrwt>
<pdfrwt beam="2">  1       -1 0.96726820E-01 0.27998545E+04</pdfrwt>
<totfact> 0.14913818E+00</totfact>
</mgrwt>
</event>
<event>
12    6  0.1569942E-007  0.1557491E+04  0.7818608E-02  0.8847097E-01
         -1   -1    0    0    0  501 -0.00000000000E+00  0.00000000000E+00  0.71169120715E+03  0.71169120715E+03  0.00000000000E+00 0.  1.
          2   -1    0    0  501    0  0.00000000000E+00 -0.00000000000E+00 -0.85211763472E+03  0.85211763472E+03  0.00000000000E+00 0. -1.
         24    2    1    2    0    0  0.27208418233E+03  0.34572679571E+03 -0.31210228887E+03  0.54525628237E+03  0.79622579694E+02 0.  0.
        254    2    1    2    0    0 -0.27208418233E+03 -0.34572679571E+03  0.17167586130E+03  0.10185525595E+04  0.90245215695E+03 0.  0.
         23    2    4    4    0    0 -0.57833755425E+03 -0.33630470176E+03  0.52616845018E+02  0.67723874332E+03  0.91151544075E+02 0.  0.
         23    2    4    4    0    0  0.30625337192E+03 -0.94220939467E+01  0.11905901628E+03  0.34131381619E+03  0.91870387493E+02 0.  0.
          2    1    3    3  502    0  0.24672217308E+03  0.33715759443E+03 -0.30582235417E+03  0.51775900425E+03  0.00000000000E+00 0. -1.
         -1    1    3    3    0  502  0.25362009256E+02  0.85692012734E+01 -0.62799346985E+01  0.27497278116E+02  0.00000000000E+00 0.  1.
         11    1    5    5    0    0 -0.46957698188E+03 -0.23065038380E+03  0.50459237605E+02  0.52559326110E+03  0.00000000000E+00 0. -1.
        -11    1    5    5    0    0 -0.10876057237E+03 -0.10565431796E+03  0.21576074127E+01  0.15164548221E+03  0.00000000000E+00 0.  1.
          1    1    6    6  503    0  0.19920083940E+03  0.37294336703E+02  0.67153176492E+02  0.21349798847E+03  0.00000000000E+00 0. -1.
         -1    1    6    6    0  503  0.10705253252E+03 -0.46716430650E+02  0.51905839792E+02  0.12781582772E+03  0.00000000000E+00 0.  1.
<mgrwt>
<rscale>  0 0.15574911E+04</rscale>
<asrwt>0</asrwt>
<pdfrwt beam="1">  1        2 0.13109502E+00 0.15574911E+04</pdfrwt>
<pdfrwt beam="2">  1       -1 0.10949096E+00 0.15574911E+04</pdfrwt>
<totfact> 0.26809480E+01</totfact>
</mgrwt>
</event>
<event>
12    6  0.1569942E-007  0.1900570E+04  0.7818608E-02  0.8654573E-01
          2   -1    0    0  501    0  0.00000000000E+00  0.00000000000E+00  0.90939640774E+03  0.90939640774E+03  0.00000000000E+00 0. -1.
         -1   -1    0    0    0  501 -0.00000000000E+00 -0.00000000000E+00 -0.99301197080E+03  0.99301197080E+03  0.00000000000E+00 0.  1.
         24    2    1    2    0    0 -0.65315602131E+03  0.33008779533E+03  0.18573380800E+02  0.73562694749E+03  0.72327689023E+02 0.  0.
        254    2    1    2    0    0  0.65315602131E+03 -0.33008779533E+03 -0.10218894386E+03  0.11667814310E+04  0.90297596135E+03 0.  0.
         23    2    4    4    0    0  0.49655385807E+03 -0.49389134839E+03 -0.37584668207E+03  0.80010504082E+03  0.91722134377E+02 0.  0.
         23    2    4    4    0    0  0.15660216324E+03  0.16380355306E+03  0.27365773821E+03  0.36667639023E+03  0.90593465247E+02 0.  0.
          4    1    3    3  502    0 -0.21545028951E+03  0.12353149883E+03  0.37994408373E+02  0.25124178299E+03  0.00000000000E+00 0. -1.
         -3    1    3    3    0  502 -0.43770573180E+03  0.20655629651E+03 -0.19421027573E+02  0.48438516450E+03  0.00000000000E+00 0.  1.
         11    1    5    5    0    0  0.41009067541E+03 -0.45165603916E+03 -0.32132033979E+03  0.68950293729E+03  0.00000000000E+00 0. -1.
        -11    1    5    5    0    0  0.86463182663E+02 -0.42235309228E+02 -0.54526342284E+02  0.11060210353E+03  0.00000000000E+00 0.  1.
          2    1    6    6  503    0  0.15062610448E+03  0.11624545750E+03  0.24714483292E+03  0.31190030167E+03  0.00000000000E+00 0. -1.
         -2    1    6    6    0  503  0.59760587556E+01  0.47558095557E+02  0.26512905286E+02  0.54776088561E+02  0.00000000000E+00 0.  1.
<mgrwt>
<rscale>  0 0.19005699E+04</rscale>
<asrwt>0</asrwt>
<pdfrwt beam="1">  1        2 0.13990714E+00 0.19005699E+04</pdfrwt>
<pdfrwt beam="2">  1       -1 0.15277107E+00 0.19005699E+04</pdfrwt>
<totfact> 0.10252460E+01</totfact>
</mgrwt>
</event>
<event>
12    6  0.1569942E-007  0.3648502E+04  0.7818608E-02  0.8079471E-01
         -1   -1    0    0    0  501 -0.00000000000E+00  0.00000000000E+00  0.94998689212E+03  0.94998689212E+03  0.00000000000E+00 0.  1.
          2   -1    0    0  501    0  0.00000000000E+00 -0.00000000000E+00 -0.35030924679E+04  0.35030924679E+04  0.00000000000E+00 0. -1.
         24    2    1    2    0    0 -0.62939238858E+03 -0.56522375486E+03  0.61171567216E+03  0.10468442799E+04  0.77937224737E+02 0.  0.
        254    2    1    2    0    0  0.62939238858E+03  0.56522375486E+03 -0.31648212479E+04  0.34062350801E+04  0.93312979669E+03 0.  0.
         23    2    4    4    0    0 -0.16523100667E+03  0.49907978998E+02 -0.12741244629E+04  0.12895137211E+04  0.98287322673E+02 0.  0.
         23    2    4    4    0    0  0.79462339525E+03  0.51531577586E+03 -0.18906967850E+04  0.21167213590E+04  0.93799199349E+02 0.  0.
          4    1    3    3  502    0 -0.50550701838E+03 -0.44297254027E+03  0.44691530829E+03  0.80715259390E+03  0.00000000000E+00 0. -1.
         -3    1    3    3    0  502 -0.12388537020E+03 -0.12225121459E+03  0.16480036387E+03  0.23969168603E+03  0.00000000000E+00 0.  1.
         11    1    5    5    0    0 -0.15897682516E+03  0.29902589831E+02 -0.12308051511E+04  0.12413899935E+04  0.00000000000E+00 0. -1.
        -11    1    5    5    0    0 -0.62541815071E+01  0.20005389168E+02 -0.43319311821E+02  0.48123727607E+02  0.00000000000E+00 0.  1.
          1    1    6    6  503    0  0.64613433572E+03  0.37370442751E+03 -0.14962074340E+04  0.16720589896E+04  0.00000000000E+00 0. -1.
         -1    1    6    6    0  503  0.14848905953E+03  0.14161134835E+03 -0.39448935093E+03  0.44466236942E+03  0.00000000000E+00 0.  1.
<mgrwt>
<rscale>  0 0.36485021E+04</rscale>
<asrwt>0</asrwt>
<pdfrwt beam="1">  1        2 0.53893730E+00 0.36485021E+04</pdfrwt>
<pdfrwt beam="2">  1       -1 0.14615183E+00 0.36485021E+04</pdfrwt>
<totfact> 0.27836967E-01</totfact>
</mgrwt>
</event>
<event>
12    6  0.1569942E-007  0.2251089E+04  0.7818608E-02  0.8497460E-01
          2   -1    0    0  501    0  0.00000000000E+00  0.00000000000E+00  0.11505023066E+04  0.11505023066E+04  0.00000000000E+00 0. -1.
         -1   -1    0    0    0  501 -0.00000000000E+00 -0.00000000000E+00 -0.11011279644E+04  0.11011279644E+04  0.00000000000E+00 0.  1.
         24    2    1    2    0    0 -0.48084892093E+03  0.77893278433E+03 -0.22377629035E+03  0.94563575152E+03  0.78734866293E+02 0.  0.
        254    2    1    2    0    0  0.48084892093E+03 -0.77893278433E+03  0.27315063258E+03  0.13059945195E+04  0.89053829200E+03 0.  0.
         23    2    4    4    0    0  0.46422930613E+03 -0.31084488115E+03  0.51991414282E+03  0.76865581372E+03  0.91584143077E+02 0.  0.
         23    2    4    4    0    0  0.16619614800E+02 -0.46808790318E+03 -0.24676351024E+03  0.53733870574E+03  0.91968244526E+02 0.  0.
          2    1    3    3  502    0 -0.71799460878E+02  0.89769080480E+02 -0.57628634676E+01  0.11509500853E+03  0.00000000000E+00 0. -1.
         -1    1    3    3    0  502 -0.40904946005E+03  0.68916370385E+03 -0.21801342688E+03  0.83054074299E+03  0.00000000000E+00 0.  1.
         11    1    5    5    0    0  0.46039174821E+03 -0.28925115512E+03  0.49307989819E+03  0.73399903171E+03  0.00000000000E+00 0. -1.
        -11    1    5    5    0    0  0.38375579211E+01 -0.21593726027E+02  0.26834244629E+02  0.34656782010E+02  0.00000000000E+00 0.  1.
          2    1    6    6  503    0  0.21423149454E+02 -0.26824533040E+02 -0.30430938340E+02  0.45875362817E+02  0.00000000000E+00 0.  1.
         -2    1    6    6    0  503 -0.48035346540E+01 -0.44126337014E+03 -0.21633257190E+03  0.49146334292E+03  0.00000000000E+00 0. -1.
<mgrwt>
<rscale>  0 0.22510889E+04</rscale>
<asrwt>0</asrwt>
<pdfrwt beam="1">  1        2 0.17700036E+00 0.22510889E+04</pdfrwt>
<pdfrwt beam="2">  1       -1 0.16940430E+00 0.22510889E+04</pdfrwt>
<totfact> 0.52332458E+00</totfact>
</mgrwt>
</event>
<event>
12    6  0.1569942E-007  0.2277101E+04  0.7818608E-02  0.8487005E-01
         -1   -1    0    0    0  501 -0.00000000000E+00  0.00000000000E+00  0.81271502544E+03  0.81271502544E+03  0.00000000000E+00 0.  1.
          2   -1    0    0  501    0  0.00000000000E+00 -0.00000000000E+00 -0.15950212854E+04  0.15950212854E+04  0.00000000000E+00 0. -1.
         24    2    1    2    0    0 -0.31751651032E+03 -0.85561285242E+03  0.84349254802E-01  0.91610039774E+03  0.79685908771E+02 0.  0.
        254    2    1    2    0    0  0.31751651032E+03  0.85561285242E+03 -0.78239060925E+03  0.14916359131E+04  0.88314921976E+03 0.  0.
         23    2    4    4    0    0  0.16895496927E+03 -0.14653593435E+03 -0.23235642540E+03  0.33524675219E+03  0.91554982030E+02 0.  0.
         23    2    4    4    0    0  0.14856154106E+03  0.10021487868E+04 -0.55003418385E+03  0.11563891609E+04  0.91244538703E+02 0.  0.
          2    1    3    3  502    0 -0.32215446515E+03 -0.84827927412E+03  0.81128098055E+00  0.90739290524E+03  0.00000000000E+00 0. -1.
         -1    1    3    3    0  502  0.46379548258E+01 -0.73335783068E+01 -0.72693172575E+00  0.87074924911E+01  0.00000000000E+00 0.  1.
         11    1    5    5    0    0  0.11258095792E+01 -0.40470042153E+02 -0.59721729999E+02  0.72151069244E+02  0.00000000000E+00 0. -1.
        -11    1    5    5    0    0  0.16782915969E+03 -0.10606589220E+03 -0.17263469540E+03  0.26309568295E+03  0.00000000000E+00 0.  1.
          4    1    6    6  503    0  0.48684528783E+00  0.23383063807E+03 -0.14744559485E+03  0.27643662521E+03  0.00000000000E+00 0. -1.
         -4    1    6    6    0  503  0.14807469577E+03  0.76831814871E+03 -0.40258858900E+03  0.87995253574E+03  0.00000000000E+00 0.  1.
<mgrwt>
<rscale>  0 0.22771015E+04</rscale>
<asrwt>0</asrwt>
<pdfrwt beam="1">  1        2 0.24538789E+00 0.22771015E+04</pdfrwt>
<pdfrwt beam="2">  1       -1 0.12503308E+00 0.22771015E+04</pdfrwt>
<totfact> 0.64936724E+00</totfact>
</mgrwt>
</event>
<event>
12    6  0.1569942E-007  0.1545270E+04  0.7818608E-02  0.8854895E-01
         -1   -1    0    0    0  501 -0.00000000000E+00  0.00000000000E+00  0.52811951618E+03  0.52811951618E+03  0.00000000000E+00 0.  1.
          2   -1    0    0  501    0  0.00000000000E+00 -0.00000000000E+00 -0.11303588502E+04  0.11303588502E+04  0.00000000000E+00 0. -1.
         24    2    1    2    0    0  0.12916383339E+03 -0.48253183180E+03 -0.18090162937E+03  0.53702028177E+03  0.78390809185E+02 0.  0.
        254    2    1    2    0    0 -0.12916383339E+03  0.48253183180E+03 -0.42133770469E+03  0.11214580846E+04  0.91138494045E+03 0.  0.
         23    2    4    4    0    0 -0.10167184056E+03  0.74142048597E+03 -0.24194384881E+03  0.79254234430E+03  0.97698727458E+02 0.  0.
         23    2    4    4    0    0 -0.27491992827E+02 -0.25888865417E+03 -0.17939385588E+03  0.32891574035E+03  0.90687726828E+02 0.  0.
          2    1    3    3  502    0  0.76307844305E+02 -0.25972646751E+03 -0.56927061027E+02  0.27662504461E+03  0.00000000000E+00 0. -1.
         -1    1    3    3    0  502  0.52855989082E+02 -0.22280536429E+03 -0.12397456835E+03  0.26039523716E+03  0.00000000000E+00 0.  1.
         11    1    5    5    0    0 -0.56587976265E+02  0.13680825390E+03 -0.37709796053E+02  0.15277671980E+03  0.00000000000E+00 0. -1.
        -11    1    5    5    0    0 -0.45083864295E+02  0.60461223207E+03 -0.20423405276E+03  0.63976562450E+03  0.00000000000E+00 0.  1.
          3    1    6    6  503    0  0.56994291517E+01 -0.29106584422E+02 -0.62061132954E+02  0.68784162224E+02  0.00000000000E+00 0. -1.
         -3    1    6    6    0  503 -0.33191421979E+02 -0.22978206975E+03 -0.11733272292E+03  0.26013157813E+03  0.00000000000E+00 0.  1.
<mgrwt>
<rscale>  0 0.15452696E+04</rscale>
<asrwt>0</asrwt>
<pdfrwt beam="1">  1        2 0.17390136E+00 0.15452696E+04</pdfrwt>
<pdfrwt beam="2">  1       -1 0.81249156E-01 0.15452696E+04</pdfrwt>
<totfact> 0.34591832E+01</totfact>
</mgrwt>
</event>
<event>
12    6  0.1569942E-007  0.1792857E+04  0.7818608E-02  0.8710107E-01
          2   -1    0    0  501    0  0.00000000000E+00  0.00000000000E+00  0.17048127072E+04  0.17048127072E+04  0.00000000000E+00 0. -1.
         -1   -1    0    0    0  501 -0.00000000000E+00 -0.00000000000E+00 -0.47136202750E+03  0.47136202750E+03  0.00000000000E+00 0.  1.
         24    2    1    2    0    0  0.59736019648E+03 -0.17685949997E+03  0.76724455227E+03  0.99138568896E+03  0.77864588908E+02 0.  0.
        254    2    1    2    0    0 -0.59736019648E+03  0.17685949997E+03  0.46620612744E+03  0.11847890458E+04  0.89345310040E+03 0.  0.
         23    2    4    4    0    0 -0.28364101862E+03  0.52869578211E+03  0.22797017776E+03  0.64825974825E+03  0.91097979083E+02 0.  0.
         23    2    4    4    0    0 -0.31371917787E+03 -0.35183628215E+03  0.23823594968E+03  0.53652929751E+03  0.94333596168E+02 0.  0.
          2    1    3    3  502    0  0.53132696253E+03 -0.16108398399E+03  0.64080841563E+03  0.84787488260E+03  0.00000000000E+00 0. -1.
         -1    1    3    3    0  502  0.66033233953E+02 -0.15775515977E+02  0.12643613665E+03  0.14351080636E+03  0.00000000000E+00 0.  1.
         11    1    5    5    0    0 -0.10773564436E+03  0.20163099268E+03  0.40184911133E+02  0.23211388015E+03  0.00000000000E+00 0. -1.
        -11    1    5    5    0    0 -0.17590537425E+03  0.32706478943E+03  0.18778526663E+03  0.41614586810E+03  0.00000000000E+00 0.  1.
          4    1    6    6  503    0 -0.19045696559E+03 -0.21689779431E+03  0.19613548940E+03  0.34898085781E+03  0.00000000000E+00 0. -1.
         -4    1    6    6    0  503 -0.12326221228E+03 -0.13493848784E+03  0.42100460281E+02  0.18754843970E+03  0.00000000000E+00 0.  1.
<mgrwt>
<rscale>  0 0.17928569E+04</rscale>
<asrwt>0</asrwt>
<pdfrwt beam="1">  1        2 0.26227888E+00 0.17928569E+04</pdfrwt>
<pdfrwt beam="2">  1       -1 0.72517236E-01 0.17928569E+04</pdfrwt>
<totfact> 0.20113210E+01</totfact>
</mgrwt>
</event>
<event>
12    6  0.1569942E-007  0.1042663E+04  0.7818608E-02  0.9262951E-01
         -1   -1    0    0    0  501 -0.00000000000E+00  0.00000000000E+00  0.16154652106E+03  0.16154652106E+03  0.00000000000E+00 0.  1.
          2   -1    0    0  501    0  0.00000000000E+00 -0.00000000000E+00 -0.16824055698E+04  0.16824055698E+04  0.00000000000E+00 0. -1.
         24    2    1    2    0    0  0.70932652099E+02 -0.77719366296E+02 -0.99651891564E+02  0.16554715554E+03  0.80022622948E+02 0.  0.
        254    2    1    2    0    0 -0.70932652099E+02  0.77719366296E+02 -0.14212071572E+04  0.16784049353E+04  0.88664626672E+03 0.  0.
         23    2    4    4    0    0  0.73298457458E+02  0.44948374841E+03 -0.92761342009E+03  0.10375287607E+04  0.92687476309E+02 0.  0.
         23    2    4    4    0    0 -0.14423110956E+03 -0.37176438211E+03 -0.49359373708E+03  0.64087617459E+03  0.89867263779E+02 0.  0.
          4    1    3    3  502    0  0.78882567053E+01  0.99262728650E+01 -0.40504296416E+02  0.42442355201E+02  0.00000000000E+00 0. -1.
         -3    1    3    3    0  502  0.63044395393E+02 -0.87645639161E+02 -0.59147595149E+02  0.12310480034E+03  0.00000000000E+00 0.  1.
         11    1    5    5    0    0  0.26981940394E+02  0.33844323921E+03 -0.61381122860E+03  0.70145283208E+03  0.00000000000E+00 0. -1.
        -11    1    5    5    0    0  0.46316517064E+02  0.11104050919E+03 -0.31380219149E+03  0.33607592865E+03  0.00000000000E+00 0.  1.
          1    1    6    6  503    0 -0.43890831347E+02 -0.20564151026E+03 -0.30340599357E+03  0.36914771130E+03  0.00000000000E+00 0. -1.
         -1    1    6    6    0  503 -0.10034027821E+03 -0.16612287185E+03 -0.19018774351E+03  0.27172846329E+03  0.00000000000E+00 0.  1.
<mgrwt>
<rscale>  0 0.10426634E+04</rscale>
<asrwt>0</asrwt>
<pdfrwt beam="1">  1        2 0.25883165E+00 0.10426634E+04</pdfrwt>
<pdfrwt beam="2">  1       -1 0.24853309E-01 0.10426634E+04</pdfrwt>
<totfact> 0.16107898E+02</totfact>
</mgrwt>
</event>
<event>
12    6  0.1569942E-007  0.1505126E+04  0.7818608E-02  0.8881051E-01
         -1   -1    0    0    0  501 -0.00000000000E+00  0.00000000000E+00  0.26037602479E+03  0.26037602479E+03  0.00000000000E+00 0.  1.
          2   -1    0    0  501    0  0.00000000000E+00 -0.00000000000E+00 -0.21751283415E+04  0.21751283415E+04  0.00000000000E+00 0. -1.
         24    2    1    2    0    0 -0.10859266509E+02 -0.38924140550E+03 -0.10596762526E+04  0.11317565333E+04  0.79575718694E+02 0.  0.
        254    2    1    2    0    0  0.10859266509E+02  0.38924140550E+03 -0.85507606409E+03  0.13037478329E+04  0.90386754620E+03 0.  0.
         23    2    4    4    0    0  0.12262318570E+03 -0.12307274415E+02  0.14793460020E+03  0.21360612047E+03  0.92493319180E+02 0.  0.
         23    2    4    4    0    0 -0.11176391919E+03  0.40154867992E+03 -0.10030106643E+04  0.10901417125E+04  0.92984109355E+02 0.  0.
          2    1    3    3  502    0  0.14279688945E+02 -0.44571049715E+02 -0.19589496064E+03  0.20140835036E+03  0.00000000000E+00 0. -1.
         -1    1    3    3    0  502 -0.25138955454E+02 -0.34467035578E+03 -0.86378129194E+03  0.93034818296E+03  0.00000000000E+00 0.  1.
         11    1    5    5    0    0  0.15040888064E+02  0.11511860990E+02  0.84219950749E+02  0.86323527276E+02  0.00000000000E+00 0. -1.
        -11    1    5    5    0    0  0.10758229764E+03 -0.23819135405E+02  0.63714649448E+02  0.12728259320E+03  0.00000000000E+00 0.  1.
          4    1    6    6  503    0 -0.24302545008E+02  0.24617188751E+03 -0.62567980711E+03  0.67280489959E+03  0.00000000000E+00 0. -1.
         -4    1    6    6    0  503 -0.87461374187E+02  0.15537679241E+03 -0.37733085718E+03  0.41733681286E+03  0.00000000000E+00 0.  1.
<mgrwt>
<rscale>  0 0.15051263E+04</rscale>
<asrwt>0</asrwt>
<pdfrwt beam="1">  1        2 0.33463513E+00 0.15051263E+04</pdfrwt>
<pdfrwt beam="2">  1       -1 0.40057850E-01 0.15051263E+04</pdfrwt>
<totfact> 0.35671799E+01</totfact>
</mgrwt>
</event>
<event>
12    6  0.1569942E-007  0.1870841E+04  0.7818608E-02  0.8669508E-01
          2   -1    0    0  501    0  0.00000000000E+00  0.00000000000E+00  0.11845857664E+04  0.11845857664E+04  0.00000000000E+00 0. -1.
         -1   -1    0    0    0  501 -0.00000000000E+00 -0.00000000000E+00 -0.73866476185E+03  0.73866476185E+03  0.00000000000E+00 0.  1.
         24    2    1    2    0    0  0.44877207090E+03 -0.15401130881E+03 -0.33428028273E+03  0.58601321748E+03  0.80946456246E+02 0.  0.
        254    2    1    2    0    0 -0.44877207090E+03  0.15401130881E+03  0.78020128732E+03  0.13372373108E+04  0.97692052995E+03 0.  0.
         23    2    4    4    0    0 -0.44895470131E+03 -0.93617302791E+02 -0.45963480464E+02  0.47002211530E+03  0.92106591119E+02 0.  0.
         23    2    4    4    0    0  0.18263041201E+00  0.24762861161E+03  0.82616476779E+03  0.86721519552E+03  0.90520766465E+02 0.  0.
          2    1    3    3  502    0  0.84209620264E+02 -0.80844742407E+01 -0.90155235632E+02  0.12363084316E+03  0.00000000000E+00 0. -1.
         -1    1    3    3    0  502  0.36456245063E+03 -0.14592683457E+03 -0.24412504710E+03  0.46238237432E+03  0.00000000000E+00 0.  1.
         11    1    5    5    0    0 -0.43870284601E+03 -0.84786268548E+02 -0.59639589779E+02  0.45078351689E+03  0.00000000000E+00 0. -1.
        -11    1    5    5    0    0 -0.10251855301E+02 -0.88310342422E+01  0.13676109315E+02  0.19238598413E+02  0.00000000000E+00 0.  1.
          2    1    6    6  503    0  0.63915501192E+01  0.25326163983E+03  0.81342985141E+03  0.85196856356E+03  0.00000000000E+00 0. -1.
         -2    1    6    6    0  503 -0.62089197072E+01 -0.56330282291E+01  0.12734916379E+02  0.15246631960E+02  0.00000000000E+00 0.  1.
<mgrwt>
<rscale>  0 0.18708413E+04</rscale>
<asrwt>0</asrwt>
<pdfrwt beam="1">  1        2 0.18224396E+00 0.18708413E+04</pdfrwt>
<pdfrwt beam="2">  1       -1 0.11364073E+00 0.18708413E+04</pdfrwt>
<totfact> 0.14628871E+01</totfact>
</mgrwt>
</event>
<event>
12    6  0.1569942E-007  0.1287313E+04  0.7818608E-02  0.9039687E-01
          2   -1    0    0  501    0  0.00000000000E+00  0.00000000000E+00  0.75156533421E+03  0.75156533421E+03  0.00000000000E+00 0. -1.
         -1   -1    0    0    0  501 -0.00000000000E+00 -0.00000000000E+00 -0.55124143704E+03  0.55124143704E+03  0.00000000000E+00 0.  1.
         24    2    1    2    0    0 -0.44798113497E+02 -0.27635910763E+03 -0.11601869117E+03  0.31380612391E+03  0.81441508814E+02 0.  0.
        254    2    1    2    0    0  0.44798113497E+02  0.27635910763E+03  0.31634258834E+03  0.98900064734E+03  0.89424181288E+03 0.  0.
         23    2    4    4    0    0 -0.32516143215E+03  0.21434377590E+03  0.42979876150E+03  0.58653435535E+03  0.87306147542E+02 0.  0.
         23    2    4    4    0    0  0.36995954565E+03  0.62015331736E+02 -0.11345617315E+03  0.40246629199E+03  0.91601562093E+02 0.  0.
          4    1    3    3  502    0  0.11026457682E+02 -0.73764794571E+01 -0.17500531268E+02  0.21960505751E+02  0.00000000000E+00 0. -1.
         -3    1    3    3    0  502 -0.55824571179E+02 -0.26898262817E+03 -0.98518159901E+02  0.29184561816E+03  0.00000000000E+00 0.  1.
         11    1    5    5    0    0 -0.90984350891E+02  0.89738901350E+02  0.18980070587E+03  0.22881330921E+03  0.00000000000E+00 0. -1.
        -11    1    5    5    0    0 -0.23417708126E+03  0.12460487455E+03  0.23999805563E+03  0.35772104614E+03  0.00000000000E+00 0.  1.
          3    1    6    6  503    0  0.36547761304E+03  0.66656992693E+02 -0.95787703126E+02  0.38365651875E+03  0.00000000000E+00 0. -1.
         -3    1    6    6    0  503  0.44819326046E+01 -0.46416609575E+01 -0.17668470026E+02  0.18809773241E+02  0.00000000000E+00 0.  1.
<mgrwt>
<rscale>  0 0.12873134E+04</rscale>
<asrwt>0</asrwt>
<pdfrwt beam="1">  1        2 0.11562544E+00 0.12873134E+04</pdfrwt>
<pdfrwt beam="2">  1       -1 0.84806375E-01 0.12873134E+04</pdfrwt>
<totfact> 0.57671469E+01</totfact>
</mgrwt>
</event>
<event>
12    6  0.1569942E-007  0.2166065E+04  0.7818608E-02  0.8532687E-01
         -1   -1    0    0    0  501 -0.00000000000E+00  0.00000000000E+00  0.10306790443E+04  0.10306790443E+04  0.00000000000E+00 0.  1.
          2   -1    0    0  501    0  0.00000000000E+00 -0.00000000000E+00 -0.11380448479E+04  0.11380448479E+04  0.00000000000E+00 0. -1.
         24    2    1    2    0    0  0.63541174974E+02  0.24741855493E+03  0.81480057806E+03  0.85770361594E+03  0.80635529004E+02 0.  0.
        254    2    1    2    0    0 -0.63541174974E+02 -0.24741855493E+03 -0.92216638160E+03  0.13110202762E+04  0.89617515427E+03 0.  0.
         23    2    4    4    0    0  0.32136784789E+03 -0.93262170260E+02 -0.79467885653E+03  0.86705826703E+03  0.91106681172E+02 0.  0.
         23    2    4    4    0    0 -0.38490902286E+03 -0.15415638467E+03 -0.12748752507E+03  0.44396200921E+03  0.94498940522E+02 0.  0.
          4    1    3    3  502    0  0.45871404840E+02  0.53502935462E+02  0.27391914673E+03  0.28283997036E+03  0.00000000000E+00 0. -1.
         -3    1    3    3    0  502  0.17669770134E+02  0.19391561947E+03  0.54088143133E+03  0.57486364558E+03  0.00000000000E+00 0.  1.
         11    1    5    5    0    0  0.32636317602E+03 -0.90911303120E+02 -0.79078751244E+03  0.86030382861E+03  0.00000000000E+00 0.  1.
        -11    1    5    5    0    0 -0.49953281373E+01 -0.23508671402E+01 -0.38913440957E+01  0.67544384209E+01  0.00000000000E+00 0. -1.
          3    1    6    6  503    0 -0.45590852472E+02 -0.89960236161E+01  0.14266902471E+02  0.48610685823E+02  0.00000000000E+00 0. -1.
         -3    1    6    6    0  503 -0.33931817039E+03 -0.14516036106E+03 -0.14175442754E+03  0.39535132339E+03  0.00000000000E+00 0.  1.
<mgrwt>
<rscale>  0 0.21660646E+04</rscale>
<asrwt>0</asrwt>
<pdfrwt beam="1">  1        2 0.17508382E+00 0.21660646E+04</pdfrwt>
<pdfrwt beam="2">  1       -1 0.15856601E+00 0.21660646E+04</pdfrwt>
<totfact> 0.64659509E+00</totfact>
</mgrwt>
</event>
<event>
12    6  0.1569942E-007  0.1767838E+04  0.7818608E-02  0.8723592E-01
          2   -1    0    0  501    0  0.00000000000E+00  0.00000000000E+00  0.12065935174E+04  0.12065935174E+04  0.00000000000E+00 0. -1.
         -1   -1    0    0    0  501 -0.00000000000E+00 -0.00000000000E+00 -0.64753606185E+03  0.64753606185E+03  0.00000000000E+00 0.  1.
         24    2    1    2    0    0  0.47500098159E+03 -0.34897503754E+03  0.43817441953E+03  0.74231845633E+03  0.10784414378E+03 0.  0.
        254    2    1    2    0    0 -0.47500098159E+03  0.34897503754E+03  0.12088303601E+03  0.11118111229E+04  0.93493409142E+03 0.  0.
         23    2    4    4    0    0 -0.40400234275E+03  0.16625338847E+03  0.50320286142E+03  0.67250655882E+03  0.90519996663E+02 0.  0.
         23    2    4    4    0    0 -0.70998638836E+02  0.18272164907E+03 -0.38231982540E+03  0.43930456409E+03  0.91608096686E+02 0.  0.
          4    1    3    3  502    0  0.30237258912E+03 -0.18044320627E+03  0.30996398117E+03  0.46911256960E+03  0.00000000000E+00 0. -1.
         -3    1    3    3    0  502  0.17262839247E+03 -0.16853183127E+03  0.12821043836E+03  0.27320588673E+03  0.00000000000E+00 0.  1.
         11    1    5    5    0    0 -0.52453299564E+02 -0.87534922102E+01  0.52624605109E+02  0.74815247937E+02  0.00000000000E+00 0.  1.
        -11    1    5    5    0    0 -0.35154904319E+03  0.17500688068E+03  0.45057825631E+03  0.59769131089E+03  0.00000000000E+00 0. -1.
          2    1    6    6  503    0  0.81673065007E+01 -0.59882792118E+01 -0.32306232422E+02  0.33856417954E+02  0.00000000000E+00 0.  1.
         -2    1    6    6    0  503 -0.79165945337E+02  0.18870992828E+03 -0.35001359298E+03  0.40544814613E+03  0.00000000000E+00 0. -1.
<mgrwt>
<rscale>  0 0.17678380E+04</rscale>
<asrwt>0</asrwt>
<pdfrwt beam="1">  1        2 0.18562977E+00 0.17678380E+04</pdfrwt>
<pdfrwt beam="2">  1       -1 0.99620932E-01 0.17678380E+04</pdfrwt>
<totfact> 0.19477799E+01</totfact>
</mgrwt>
</event>
<event>
12    6  0.1569942E-007  0.1245169E+04  0.7818608E-02  0.9074214E-01
         -1   -1    0    0    0  501 -0.00000000000E+00  0.00000000000E+00  0.67974222021E+03  0.67974222021E+03  0.00000000000E+00 0.  1.
          2   -1    0    0  501    0  0.00000000000E+00 -0.00000000000E+00 -0.57023264592E+03  0.57023264592E+03  0.00000000000E+00 0. -1.
         24    2    1    2    0    0 -0.22437143074E+03 -0.86455954542E+02  0.27195518443E+03  0.37261271867E+03  0.84044302401E+02 0.  0.
        254    2    1    2    0    0  0.22437143074E+03  0.86455954542E+02 -0.16244561014E+03  0.87736214746E+03  0.82798465598E+03 0.  0.
         23    2    4    4    0    0  0.15542295399E+03  0.17337331140E+03  0.30141978954E+03  0.39167426163E+03  0.91324903337E+02 0.  0.
         23    2    4    4    0    0  0.68948476758E+02 -0.86917356856E+02 -0.46386539969E+03  0.48568788583E+03  0.91722919953E+02 0.  0.
          4    1    3    3  502    0 -0.69666990746E+00 -0.24051007499E+01  0.38403342332E+02  0.38484887435E+02  0.00000000000E+00 0. -1.
         -3    1    3    3    0  502 -0.22367476084E+03 -0.84050853792E+02  0.23355184210E+03  0.33412783124E+03  0.00000000000E+00 0.  1.
         11    1    5    5    0    0  0.11402822516E+03  0.14618072258E+03  0.28403179283E+03  0.33918328250E+03  0.00000000000E+00 0.  1.
        -11    1    5    5    0    0  0.41394728828E+02  0.27192588814E+02  0.17387996712E+02  0.52490979138E+02  0.00000000000E+00 0. -1.
          3    1    6    6  503    0 -0.39659307668E+01  0.80766782303E+01 -0.14171157217E+03  0.14199694020E+03  0.00000000000E+00 0. -1.
         -3    1    6    6    0  503  0.72914407525E+02 -0.94994035086E+02 -0.32215382751E+03  0.34369094563E+03  0.00000000000E+00 0.  1.
<mgrwt>
<rscale>  0 0.12451686E+04</rscale>
<asrwt>0</asrwt>
<pdfrwt beam="1">  1        2 0.87728100E-01 0.12451686E+04</pdfrwt>
<pdfrwt beam="2">  1       -1 0.10457573E+00 0.12451686E+04</pdfrwt>
<totfact> 0.50990042E+01</totfact>
</mgrwt>
</event>
<event>
12    6  0.1569942E-007  0.1592623E+04  0.7818608E-02  0.8825093E-01
          2   -1    0    0  501    0  0.00000000000E+00  0.00000000000E+00  0.21916899461E+03  0.21916899461E+03  0.00000000000E+00 0. -1.
         -1   -1    0    0    0  501 -0.00000000000E+00 -0.00000000000E+00 -0.28932560603E+04  0.28932560603E+04  0.00000000000E+00 0.  1.
         24    2    1    2    0    0  0.54341651485E+02  0.49458223074E+03 -0.13047186844E+04  0.13986421618E+04  0.79652075778E+02 0.  0.
        254    2    1    2    0    0 -0.54341651485E+02 -0.49458223074E+03 -0.13693683813E+04  0.17137828932E+04  0.90239539181E+03 0.  0.
         23    2    4    4    0    0  0.26309025262E+03 -0.60585790798E+03 -0.75818909092E+03  0.10096761608E+04  0.91186438158E+02 0.  0.
         23    2    4    4    0    0 -0.31743190411E+03  0.11127567725E+03 -0.61117929041E+03  0.70410673234E+03  0.95293627350E+02 0.  0.
          2    1    3    3  502    0 -0.15434223955E+02  0.30578337191E+02 -0.10411851570E+03  0.10960800740E+03  0.00000000000E+00 0. -1.
         -1    1    3    3    0  502  0.69775875439E+02  0.46400389355E+03 -0.12006001687E+04  0.12890341544E+04  0.00000000000E+00 0.  1.
         11    1    5    5    0    0  0.23361696967E+02 -0.23760852906E+02 -0.17618852704E+02  0.37693115904E+02  0.00000000000E+00 0.  1.
        -11    1    5    5    0    0  0.23972855566E+03 -0.58209705508E+03 -0.74057023821E+03  0.97198304494E+03  0.00000000000E+00 0. -1.
          2    1    6    6  503    0 -0.31421852316E+03  0.11390050325E+03 -0.55565880149E+03  0.64843142167E+03  0.00000000000E+00 0. -1.
         -2    1    6    6    0  503 -0.32133809510E+01 -0.26248260093E+01 -0.55520488914E+02  0.55675310668E+02  0.00000000000E+00 0.  1.
<mgrwt>
<rscale>  0 0.15926230E+04</rscale>
<asrwt>0</asrwt>
<pdfrwt beam="1">  1        2 0.33718306E-01 0.15926230E+04</pdfrwt>
<pdfrwt beam="2">  1       -1 0.44511633E+00 0.15926230E+04</pdfrwt>
<totfact> 0.60276169E-01</totfact>
</mgrwt>
</event>
<event>
12    6  0.1569942E-007  0.1890685E+04  0.7818608E-02  0.8659507E-01
         -1   -1    0    0    0  501 -0.00000000000E+00  0.00000000000E+00  0.30829536509E+03  0.30829536509E+03  0.00000000000E+00 0.  1.
          2   -1    0    0  501    0  0.00000000000E+00 -0.00000000000E+00 -0.28987544887E+04  0.28987544887E+04  0.00000000000E+00 0. -1.
         24    2    1    2    0    0 -0.18122772855E+03 -0.38696181483E+03 -0.76765071886E+00  0.43473330368E+03  0.80059479853E+02 0.  0.
        254    2    1    2    0    0  0.18122772855E+03  0.38696181483E+03 -0.25896914729E+04  0.27723165501E+04  0.89255486861E+03 0.  0.
         23    2    4    4    0    0 -0.26973490375E+03 -0.95734823440E+02 -0.55255219782E+03  0.62885821900E+03  0.90700901693E+02 0.  0.
         23    2    4    4    0    0  0.45096263230E+03  0.48269663827E+03 -0.20371392751E+04  0.21434583311E+04  0.90076916060E+02 0.  0.
          2    1    3    3  502    0 -0.93102363053E+02 -0.11011932315E+03 -0.23794028088E+00  0.14420253796E+03  0.00000000000E+00 0. -1.
         -1    1    3    3    0  502 -0.88125365496E+02 -0.27684249167E+03 -0.52971043798E+00  0.29053076572E+03  0.00000000000E+00 0.  1.
         11    1    5    5    0    0 -0.37442902411E+02  0.14763218706E+02 -0.49025316821E+02  0.63430318121E+02  0.00000000000E+00 0. -1.
        -11    1    5    5    0    0 -0.23229200134E+03 -0.11049804215E+03 -0.50352688100E+03  0.56542790088E+03  0.00000000000E+00 0.  1.
          3    1    6    6  503    0  0.90915884520E+02  0.15036861060E+03 -0.48743461174E+03  0.51813986320E+03  0.00000000000E+00 0. -1.
         -3    1    6    6    0  503  0.36004674778E+03  0.33232802766E+03 -0.15497046633E+04  0.16253184679E+04  0.00000000000E+00 0.  1.
<mgrwt>
<rscale>  0 0.18906851E+04</rscale>
<asrwt>0</asrwt>
<pdfrwt beam="1">  1        2 0.44596221E+00 0.18906851E+04</pdfrwt>
<pdfrwt beam="2">  1       -1 0.47430058E-01 0.18906851E+04</pdfrwt>
<totfact> 0.95514081E+00</totfact>
</mgrwt>
</event>
<event>
12    6  0.1569942E-007  0.1576084E+04  0.7818608E-02  0.8835377E-01
          2   -1    0    0  501    0  0.00000000000E+00  0.00000000000E+00  0.37727291827E+04  0.37727291827E+04  0.00000000000E+00 0. -1.
         -1   -1    0    0    0  501 -0.00000000000E+00 -0.00000000000E+00 -0.16460505758E+03  0.16460505758E+03  0.00000000000E+00 0.  1.
         24    2    1    2    0    0  0.11773423390E+02  0.28679585931E+03  0.12639934259E+03  0.32443518677E+03  0.83011554594E+02 0.  0.
        254    2    1    2    0    0 -0.11773423390E+02 -0.28679585931E+03  0.34817247825E+04  0.36128990535E+04  0.92100034262E+03 0.  0.
         23    2    4    4    0    0  0.63442305987E+02 -0.40550461036E+03  0.34000102941E+04  0.34259010856E+04  0.90935874408E+02 0.  0.
         23    2    4    4    0    0 -0.75215729377E+02  0.11870875105E+03  0.81714488422E+02  0.18699796788E+03  0.92421906763E+02 0.  0.
          4    1    3    3  502    0 -0.15517456938E+02  0.12392432591E+02  0.21844783029E+02  0.29522167958E+02  0.00000000000E+00 0. -1.
         -1    1    3    3    0  502  0.27290880328E+02  0.27440342672E+03  0.10455455956E+03  0.29491301882E+03  0.00000000000E+00 0.  1.
         11    1    5    5    0    0  0.30983600198E+02 -0.19996396330E+03  0.20478427946E+04  0.20578157549E+04  0.00000000000E+00 0. -1.
        -11    1    5    5    0    0  0.32458705789E+02 -0.20554064706E+03  0.13521674995E+04  0.13680853307E+04  0.00000000000E+00 0.  1.
          1    1    6    6  503    0 -0.73929613412E+02  0.47426725770E+02  0.14514789298E+02  0.89025620834E+02  0.00000000000E+00 0. -1.
         -1    1    6    6    0  503 -0.12861159648E+01  0.71282025281E+02  0.67199699124E+02  0.97972347041E+02  0.00000000000E+00 0.  1.
<mgrwt>
<rscale>  0 0.15760841E+04</rscale>
<asrwt>0</asrwt>
<pdfrwt beam="1">  1        2 0.58041981E+00 0.15760841E+04</pdfrwt>
<pdfrwt beam="2">  1       -1 0.25323858E-01 0.15760841E+04</pdfrwt>
<totfact> 0.78496103E+00</totfact>
</mgrwt>
</event>
<event>
12    6  0.1569942E-007  0.1901722E+04  0.7818608E-02  0.8654000E-01
          2   -1    0    0  501    0  0.00000000000E+00  0.00000000000E+00  0.48180211713E+03  0.48180211713E+03  0.00000000000E+00 0. -1.
         -1   -1    0    0    0  501 -0.00000000000E+00 -0.00000000000E+00 -0.18765729893E+04  0.18765729893E+04  0.00000000000E+00 0.  1.
         24    2    1    2    0    0  0.25438915896E+03 -0.21548731349E+03 -0.13496435463E+04  0.13925643636E+04  0.80926993348E+02 0.  0.
        254    2    1    2    0    0 -0.25438915896E+03  0.21548731349E+03 -0.45127325918E+02  0.96581074287E+03  0.90532054490E+03 0.  0.
         23    2    4    4    0    0  0.18646047229E+03  0.42142257411E+03 -0.22035734671E+02  0.47035703942E+03  0.91573343509E+02 0.  0.
         23    2    4    4    0    0 -0.44084963125E+03 -0.20593526061E+03 -0.23091591246E+02  0.49545370345E+03  0.90462266927E+02 0.  0.
          4    1    3    3  502    0  0.16011653701E+03 -0.17543186973E+03 -0.10243229495E+04  0.10514994775E+04  0.00000000000E+00 0. -1.
         -3    1    3    3    0  502  0.94272621951E+02 -0.40055443766E+02 -0.32532059679E+03  0.34106488609E+03  0.00000000000E+00 0.  1.
         11    1    5    5    0    0  0.26355520572E+02  0.84742109044E+02 -0.39496976747E+02  0.97138301827E+02  0.00000000000E+00 0.  1.
        -11    1    5    5    0    0  0.16010495171E+03  0.33668046506E+03  0.17461242075E+02  0.37321873760E+03  0.00000000000E+00 0. -1.
          3    1    6    6  503    0 -0.41928917057E+03 -0.18724540527E+03 -0.42166433971E+02  0.46113149806E+03  0.00000000000E+00 0. -1.
         -3    1    6    6    0  503 -0.21560460676E+02 -0.18689855344E+02  0.19074842725E+02  0.34322205382E+02  0.00000000000E+00 0.  1.
<mgrwt>
<rscale>  0 0.19017222E+04</rscale>
<asrwt>0</asrwt>
<pdfrwt beam="1">  1        2 0.74123400E-01 0.19017222E+04</pdfrwt>
<pdfrwt beam="2">  1       -1 0.28870355E+00 0.19017222E+04</pdfrwt>
<totfact> 0.26907473E+00</totfact>
</mgrwt>
</event>
<event>
12    6  0.1569942E-007  0.1842198E+04  0.7818608E-02  0.8684176E-01
          2   -1    0    0  501    0  0.00000000000E+00  0.00000000000E+00  0.99410187121E+03  0.99410187121E+03  0.00000000000E+00 0. -1.
         -1   -1    0    0    0  501 -0.00000000000E+00 -0.00000000000E+00 -0.85345675059E+03  0.85345675059E+03  0.00000000000E+00 0.  1.
         24    2    1    2    0    0 -0.34993169264E+03 -0.15406588094E+03 -0.53342341007E+03  0.66110689905E+03  0.79582110921E+02 0.  0.
        254    2    1    2    0    0  0.34993169264E+03  0.15406588094E+03  0.67406853069E+03  0.11864517227E+04  0.89839346678E+03 0.  0.
         23    2    4    4    0    0  0.34184823567E+03  0.50293031593E+03  0.43671220276E+03  0.75361255898E+03  0.86111683822E+02 0.  0.
         23    2    4    4    0    0  0.80834569710E+01 -0.34886443499E+03  0.23735632792E+03  0.43283916376E+03  0.96124809532E+02 0.  0.
          2    1    3    3  502    0 -0.70232968773E+02 -0.66471624973E+02 -0.15048471241E+03  0.17887648112E+03  0.00000000000E+00 0. -1.
         -1    1    3    3    0  502 -0.27969872387E+03 -0.87594255972E+02 -0.38293869765E+03  0.48223041793E+03  0.00000000000E+00 0.  1.
         11    1    5    5    0    0  0.31726671075E+03  0.41211089638E+03  0.36945274897E+03  0.63795680918E+03  0.00000000000E+00 0. -1.
        -11    1    5    5    0    0  0.24581524924E+02  0.90819419556E+02  0.67259453798E+02  0.11565574980E+03  0.00000000000E+00 0.  1.
          2    1    6    6  503    0  0.33970445630E+02 -0.52428309973E+02  0.25080634352E+02  0.67318326497E+02  0.00000000000E+00 0.  1.
         -2    1    6    6    0  503 -0.25886988659E+02 -0.29643612502E+03  0.21227569357E+03  0.36552083727E+03  0.00000000000E+00 0. -1.
<mgrwt>
<rscale>  0 0.18421975E+04</rscale>
<asrwt>0</asrwt>
<pdfrwt beam="1">  1        2 0.15293875E+00 0.18421975E+04</pdfrwt>
<pdfrwt beam="2">  1       -1 0.13130104E+00 0.18421975E+04</pdfrwt>
<totfact> 0.13489258E+01</totfact>
</mgrwt>
</event>
<event>
12    6  0.1569942E-007  0.1265533E+04  0.7818608E-02  0.9057353E-01
          2   -1    0    0  501    0  0.00000000000E+00  0.00000000000E+00  0.17114818268E+04  0.17114818268E+04  0.00000000000E+00 0. -1.
         -1   -1    0    0    0  501 -0.00000000000E+00 -0.00000000000E+00 -0.23394564906E+03  0.23394564906E+03  0.00000000000E+00 0.  1.
         24    2    1    2    0    0 -0.52544656446E+02 -0.20127760029E+03  0.15968051322E+02  0.22296760973E+03  0.78650893349E+02 0.  0.
        254    2    1    2    0    0  0.52544656446E+02  0.20127760029E+03  0.14615681265E+04  0.17224598662E+04  0.88736294095E+03 0.  0.
         23    2    4    4    0    0 -0.21633039509E+03  0.41400912922E+03  0.46828411209E+03  0.66772512449E+03  0.91457275937E+02 0.  0.
         23    2    4    4    0    0  0.26887505154E+03 -0.21273152893E+03  0.99328401437E+03  0.10547347417E+04  0.91124888840E+02 0.  0.
          2    1    3    3  502    0 -0.10114014993E+02 -0.42268107401E+02 -0.29137837348E+02  0.52324944031E+02  0.00000000000E+00 0. -1.
         -1    1    3    3    0  502 -0.42430641453E+02 -0.15900949289E+03  0.45105888670E+02  0.17064266570E+03  0.00000000000E+00 0.  1.
         11    1    5    5    0    0 -0.28120677195E+02  0.82624264955E+02  0.13869881612E+03  0.16387465709E+03  0.00000000000E+00 0.  1.
        -11    1    5    5    0    0 -0.18820971789E+03  0.33138486426E+03  0.32958529597E+03  0.50385046739E+03  0.00000000000E+00 0. -1.
          3    1    6    6  503    0  0.24835372068E+03 -0.22048474288E+03  0.94623299956E+03  0.10028210119E+04  0.00000000000E+00 0. -1.
         -3    1    6    6    0  503  0.20521330857E+02  0.77532139541E+01  0.47051014809E+02  0.51913729796E+02  0.00000000000E+00 0.  1.
<mgrwt>
<rscale>  0 0.12655334E+04</rscale>
<asrwt>0</asrwt>
<pdfrwt beam="1">  1        2 0.26330489E+00 0.12655334E+04</pdfrwt>
<pdfrwt beam="2">  1       -1 0.35991640E-01 0.12655334E+04</pdfrwt>
<totfact> 0.79812204E+01</totfact>
</mgrwt>
</event>
<event>
12    6  0.1569942E-007  0.1565060E+04  0.7818608E-02  0.8842305E-01
          2   -1    0    0  501    0  0.00000000000E+00  0.00000000000E+00  0.97984906062E+03  0.97984906062E+03  0.00000000000E+00 0. -1.
         -1   -1    0    0    0  501 -0.00000000000E+00 -0.00000000000E+00 -0.62494620892E+03  0.62494620892E+03  0.00000000000E+00 0.  1.
         24    2    1    2    0    0  0.15973755306E+03 -0.22422989128E+03  0.56645419043E+03  0.63497426484E+03  0.80788843025E+02 0.  0.
        254    2    1    2    0    0 -0.15973755306E+03  0.22422989128E+03 -0.21155133872E+03  0.96982100470E+03  0.90554054699E+03 0.  0.
         23    2    4    4    0    0 -0.80614964188E+02 -0.29778222375E+03 -0.28318772078E+03  0.42826923121E+03  0.89700746737E+02 0.  0.
         23    2    4    4    0    0 -0.79122588871E+02  0.52201211503E+03  0.71636382059E+02  0.54155177349E+03  0.96899534741E+02 0.  0.
          2    1    3    3  502    0  0.58789699645E+02 -0.89126887635E+02  0.31146749263E+03  0.32925951747E+03  0.00000000000E+00 0. -1.
         -1    1    3    3    0  502  0.10094785341E+03 -0.13510300364E+03  0.25498669780E+03  0.30571474737E+03  0.00000000000E+00 0.  1.
         11    1    5    5    0    0  0.14789010073E+02 -0.12046643449E+02 -0.96947483045E+01  0.21396835795E+02  0.00000000000E+00 0. -1.
        -11    1    5    5    0    0 -0.95403974262E+02 -0.28573558030E+03 -0.27349297248E+03  0.40687239541E+03  0.00000000000E+00 0.  1.
          4    1    6    6  503    0 -0.61587272164E+02  0.38060481687E+03  0.83669318847E+01  0.38564624239E+03  0.00000000000E+00 0.  1.
         -4    1    6    6    0  503 -0.17535316707E+02  0.14140729816E+03  0.63269450174E+02  0.15590553111E+03  0.00000000000E+00 0. -1.
<mgrwt>
<rscale>  0 0.15650597E+04</rscale>
<asrwt>0</asrwt>
<pdfrwt beam="1">  1        2 0.15074601E+00 0.15650597E+04</pdfrwt>
<pdfrwt beam="2">  1       -1 0.96145570E-01 0.15650597E+04</pdfrwt>
<totfact> 0.29684092E+01</totfact>
</mgrwt>
</event>
<event>
12    6  0.1569942E-007  0.2217533E+04  0.7818608E-02  0.8511166E-01
          2   -1    0    0  501    0  0.00000000000E+00  0.00000000000E+00  0.94695486239E+03  0.94695486239E+03  0.00000000000E+00 0. -1.
         -1   -1    0    0    0  501 -0.00000000000E+00 -0.00000000000E+00 -0.12982277827E+04  0.12982277827E+04  0.00000000000E+00 0.  1.
         24    2    1    2    0    0 -0.53046179963E+03 -0.24120286097E+03 -0.87172426022E+03  0.10514461927E+04  0.77893320262E+02 0.  0.
        254    2    1    2    0    0  0.53046179963E+03  0.24120286097E+03  0.52045133988E+03  0.11937364524E+04  0.90253453096E+03 0.  0.
         23    2    4    4    0    0  0.49991636930E+03  0.26525501932E+02 -0.10943999445E+03  0.52128077502E+03  0.95585330883E+02 0.  0.
         23    2    4    4    0    0  0.30545430334E+02  0.21467735904E+03  0.62989133433E+03  0.67245567737E+03  0.91728693287E+02 0.  0.
          4    1    3    3  502    0 -0.32314101915E+03 -0.17685182477E+03 -0.50113697428E+03  0.62196057204E+03  0.00000000000E+00 0. -1.
         -3    1    3    3    0  502 -0.20732078048E+03 -0.64351036204E+02 -0.37058728594E+03  0.42948562069E+03  0.00000000000E+00 0.  1.
         11    1    5    5    0    0  0.20559320017E+02  0.66470175033E+01  0.14175970066E+02  0.25842341391E+02  0.00000000000E+00 0. -1.
        -11    1    5    5    0    0  0.47935704928E+03  0.19878484428E+02 -0.12361596451E+03  0.49543843363E+03  0.00000000000E+00 0.  1.
          3    1    6    6  503    0 -0.24003740343E+02  0.20929696563E+02  0.12319391499E+03  0.12724375206E+03  0.00000000000E+00 0. -1.
         -3    1    6    6    0  503  0.54549170677E+02  0.19374766248E+03  0.50669741934E+03  0.54521192531E+03  0.00000000000E+00 0.  1.
<mgrwt>
<rscale>  0 0.22175330E+04</rscale>
<asrwt>0</asrwt>
<pdfrwt beam="1">  1        2 0.14568536E+00 0.22175330E+04</pdfrwt>
<pdfrwt beam="2">  1       -1 0.19972735E+00 0.22175330E+04</pdfrwt>
<totfact> 0.42918944E+00</totfact>
</mgrwt>
</event>
<event>
12    6  0.1569942E-007  0.2411879E+04  0.7818608E-02  0.8435070E-01
         -1   -1    0    0    0  501 -0.00000000000E+00  0.00000000000E+00  0.22322377100E+04  0.22322377100E+04  0.00000000000E+00 0.  1.
          2   -1    0    0  501    0  0.00000000000E+00 -0.00000000000E+00 -0.65149418064E+03  0.65149418064E+03  0.00000000000E+00 0. -1.
         24    2    1    2    0    0  0.32413274469E+03 -0.91567120428E+03  0.11108451274E+04  0.14777403633E+04  0.78891658825E+02 0.  0.
        254    2    1    2    0    0 -0.32413274469E+03  0.91567120428E+03  0.46989840196E+03  0.14059915273E+04  0.90138331258E+03 0.  0.
         23    2    4    4    0    0 -0.35440726708E+03  0.95832022676E+03  0.63564257971E+03  0.12063120750E+04  0.84647298155E+02 0.  0.
         23    2    4    4    0    0  0.30274522393E+02 -0.42649022479E+02 -0.16574417776E+03  0.19967945235E+03  0.98312081688E+02 0.  0.
          2    1    3    3  502    0  0.54761634154E+02 -0.10163833942E+03  0.16111586601E+03  0.19821077391E+03  0.00000000000E+00 0. -1.
         -1    1    3    3    0  502  0.26937111054E+03 -0.81403286486E+03  0.94972926141E+03  0.12795295894E+04  0.00000000000E+00 0.  1.
         11    1    5    5    0    0 -0.28754912116E+03  0.85324430141E+03  0.56806250535E+03  0.10646151159E+04  0.00000000000E+00 0. -1.
        -11    1    5    5    0    0 -0.66858145918E+02  0.10507592535E+03  0.67580074364E+02  0.14169695909E+03  0.00000000000E+00 0.  1.
          4    1    6    6  503    0 -0.10037510281E+01  0.30929084778E+02 -0.54720385782E+02  0.62864428905E+02  0.00000000000E+00 0.  1.
         -4    1    6    6    0  503  0.31278273421E+02 -0.73578107257E+02 -0.11102379198E+03  0.13681502345E+03  0.00000000000E+00 0. -1.
<mgrwt>
<rscale>  0 0.24118788E+04</rscale>
<asrwt>0</asrwt>
<pdfrwt beam="1">  1        2 0.10022988E+00 0.24118788E+04</pdfrwt>
<pdfrwt beam="2">  1       -1 0.34342118E+00 0.24118788E+04</pdfrwt>
<totfact> 0.78975114E-01</totfact>
</mgrwt>
</event>
<event>
12    6  0.1569942E-007  0.2397230E+04  0.7818608E-02  0.8440541E-01
         -1   -1    0    0    0  501 -0.00000000000E+00  0.00000000000E+00  0.55192464509E+03  0.55192464509E+03  0.00000000000E+00 0.  1.
          2   -1    0    0  501    0  0.00000000000E+00 -0.00000000000E+00 -0.26030322444E+04  0.26030322444E+04  0.00000000000E+00 0. -1.
         24    2    1    2    0    0  0.61795815314E+03  0.17023330337E+03  0.17679488059E+03  0.66955906232E+03  0.78748025527E+02 0.  0.
        254    2    1    2    0    0 -0.61795815314E+03 -0.17023330337E+03 -0.22279024799E+04  0.24853978271E+04  0.89599176485E+03 0.  0.
         23    2    4    4    0    0  0.63750327122E+02 -0.56629786916E+02 -0.13890811399E+04  0.13946499378E+04  0.90724852297E+02 0.  0.
         23    2    4    4    0    0 -0.68170848027E+03 -0.11360351646E+03 -0.83882133998E+03  0.10907478893E+04  0.92073376518E+02 0.  0.
          4    1    3    3  502    0  0.44772981814E+03  0.11829478604E+03  0.16341784455E+03  0.49108149871E+03  0.00000000000E+00 0. -1.
         -3    1    3    3    0  502  0.17022833501E+03  0.51938517328E+02  0.13377036033E+02  0.17847756362E+03  0.00000000000E+00 0.  1.
         11    1    5    5    0    0  0.23577382571E+01 -0.34429816857E+01 -0.79829991596E+03  0.79831082222E+03  0.00000000000E+00 0. -1.
        -11    1    5    5    0    0  0.61392588864E+02 -0.53186805231E+02 -0.59078122392E+03  0.59633911557E+03  0.00000000000E+00 0.  1.
          2    1    6    6  503    0 -0.23051009926E+03  0.54499782670E+01 -0.27693753609E+03  0.36035955242E+03  0.00000000000E+00 0.  1.
         -2    1    6    6    0  503 -0.45119838101E+03 -0.11905349472E+03 -0.56188380389E+03  0.73038833692E+03  0.00000000000E+00 0. -1.
<mgrwt>
<rscale>  0 0.23972298E+04</rscale>
<asrwt>0</asrwt>
<pdfrwt beam="1">  1        2 0.40046651E+00 0.23972298E+04</pdfrwt>
<pdfrwt beam="2">  1       -1 0.84911482E-01 0.23972298E+04</pdfrwt>
<totfact> 0.42548187E+00</totfact>
</mgrwt>
</event>
<event>
12    6  0.1569942E-007  0.1787597E+04  0.7818608E-02  0.8712923E-01
          2   -1    0    0  501    0  0.00000000000E+00  0.00000000000E+00  0.42779804335E+03  0.42779804335E+03  0.00000000000E+00 0. -1.
         -1   -1    0    0    0  501 -0.00000000000E+00 -0.00000000000E+00 -0.18674132491E+04  0.18674132491E+04  0.00000000000E+00 0.  1.
         24    2    1    2    0    0  0.25332859259E+03  0.26566107342E+03  0.17103588217E+03  0.41269167805E+03  0.79435296837E+02 0.  0.
        254    2    1    2    0    0 -0.25332859259E+03 -0.26566107342E+03 -0.16106510879E+04  0.18825196144E+04  0.90273583612E+03 0.  0.
         23    2    4    4    0    0 -0.20996806616E+03  0.14146306565E+03 -0.13755194036E+04  0.14016510315E+04  0.92052142098E+02 0.  0.
         23    2    4    4    0    0 -0.43360526438E+02 -0.40712413907E+03 -0.23513168430E+03  0.48086858282E+03  0.91200247322E+02 0.  0.
          4    1    3    3  502    0  0.65769502896E+02  0.65486470766E+02  0.83236057738E+02  0.12466894831E+03  0.00000000000E+00 0. -1.
         -3    1    3    3    0  502  0.18755908970E+03  0.20017460265E+03  0.87799824433E+02  0.28802272974E+03  0.00000000000E+00 0.  1.
         11    1    5    5    0    0 -0.52433064554E+02  0.72375735270E+01 -0.15704728569E+03  0.16572706077E+03  0.00000000000E+00 0.  1.
        -11    1    5    5    0    0 -0.15753500160E+03  0.13422549213E+03 -0.12184721179E+04  0.12359239708E+04  0.00000000000E+00 0. -1.
          2    1    6    6  503    0 -0.52114685593E+02 -0.24265934984E+03 -0.18214408305E+03  0.30785705695E+03  0.00000000000E+00 0. -1.
         -2    1    6    6    0  503  0.87541591555E+01 -0.16446478923E+03 -0.52987601251E+02  0.17301152587E+03  0.00000000000E+00 0.  1.
<mgrwt>
<rscale>  0 0.17875970E+04</rscale>
<asrwt>0</asrwt>
<pdfrwt beam="1">  1        2 0.65815082E-01 0.17875970E+04</pdfrwt>
<pdfrwt beam="2">  1       -1 0.28729435E+00 0.17875970E+04</pdfrwt>
<totfact> 0.31805846E+00</totfact>
</mgrwt>
</event>
<event>
12    6  0.1569942E-007  0.1531049E+04  0.7818608E-02  0.8864064E-01
          2   -1    0    0  501    0  0.00000000000E+00  0.00000000000E+00  0.16847543136E+04  0.16847543136E+04  0.00000000000E+00 0. -1.
         -1   -1    0    0    0  501 -0.00000000000E+00 -0.00000000000E+00 -0.34784161936E+03  0.34784161936E+03  0.00000000000E+00 0.  1.
         24    2    1    2    0    0  0.20722698623E+03  0.30633308171E+03  0.24333134491E+01  0.37889906534E+03  0.82314032379E+02 0.  0.
        254    2    1    2    0    0 -0.20722698623E+03 -0.30633308171E+03  0.13344793808E+04  0.16536968677E+04  0.90393314547E+03 0.  0.
         23    2    4    4    0    0 -0.28009821193E+03 -0.26533197433E+03  0.14384844821E+04  0.14922717231E+04  0.93708192826E+02 0.  0.
         23    2    4    4    0    0  0.72871225703E+02 -0.41001107379E+02 -0.10400510125E+03  0.16142514457E+03  0.90827913498E+02 0.  0.
          4    1    3    3  502    0 -0.50534710065E+01  0.20941736894E+01 -0.56084668875E+01  0.78344134103E+01  0.00000000000E+00 0. -1.
         -3    1    3    3    0  502  0.21228045724E+03  0.30423890802E+03  0.80417803366E+01  0.37106465193E+03  0.00000000000E+00 0.  1.
         11    1    5    5    0    0 -0.34495398316E+02 -0.51820373768E+02  0.13318562951E+03  0.14701597040E+03  0.00000000000E+00 0.  1.
        -11    1    5    5    0    0 -0.24560281362E+03 -0.21351160056E+03  0.13052988526E+04  0.13452557527E+04  0.00000000000E+00 0. -1.
          3    1    6    6  503    0  0.87886816431E+02 -0.13554646464E+02 -0.91897135489E+02  0.12787847534E+03  0.00000000000E+00 0. -1.
         -3    1    6    6    0  503 -0.15015590728E+02 -0.27446460915E+02 -0.12107965765E+02  0.33546669233E+02  0.00000000000E+00 0.  1.
<mgrwt>
<rscale>  0 0.15310489E+04</rscale>
<asrwt>0</asrwt>
<pdfrwt beam="1">  1        2 0.25919297E+00 0.15310489E+04</pdfrwt>
<pdfrwt beam="2">  1       -1 0.53514096E-01 0.15310489E+04</pdfrwt>
<totfact> 0.38691140E+01</totfact>
</mgrwt>
</event>
<event>
12    6  0.1569942E-007  0.1264435E+04  0.7818608E-02  0.9058254E-01
          2   -1    0    0  501    0  0.00000000000E+00  0.00000000000E+00  0.32890508837E+03  0.32890508837E+03  0.00000000000E+00 0. -1.
         -1   -1    0    0    0  501 -0.00000000000E+00 -0.00000000000E+00 -0.12152416936E+04  0.12152416936E+04  0.00000000000E+00 0.  1.
         24    2    1    2    0    0 -0.21261746776E+03 -0.19334142843E+03 -0.32921203916E+03  0.44436625783E+03  0.80583551842E+02 0.  0.
        254    2    1    2    0    0  0.21261746776E+03  0.19334142843E+03 -0.55712456610E+03  0.10997805242E+04  0.90362731456E+03 0.  0.
         23    2    4    4    0    0  0.40004056633E+03  0.45233689050E+03 -0.30272914320E+03  0.68131142103E+03  0.88877449679E+02 0.  0.
         23    2    4    4    0    0 -0.18742309857E+03 -0.25899546207E+03 -0.25439542291E+03  0.41846910314E+03  0.90516804139E+02 0.  0.
          2    1    3    3  502    0 -0.15254579718E+03 -0.10557404736E+03 -0.16252447780E+03  0.24663800518E+03  0.00000000000E+00 0. -1.
         -3    1    3    3    0  502 -0.60071670578E+02 -0.87767381076E+02 -0.16668756136E+03  0.19772825265E+03  0.00000000000E+00 0.  1.
         11    1    5    5    0    0  0.31901678831E+03  0.39304861467E+03 -0.27951921285E+03  0.57826457186E+03  0.00000000000E+00 0. -1.
        -11    1    5    5    0    0  0.81023778026E+02  0.59288275832E+02 -0.23209930345E+02  0.10304684917E+03  0.00000000000E+00 0.  1.
          4    1    6    6  503    0 -0.95342176497E+02 -0.18568103032E+03 -0.12389265200E+03  0.24272817071E+03  0.00000000000E+00 0. -1.
         -4    1    6    6    0  503 -0.92080922078E+02 -0.73314431752E+02 -0.13050277091E+03  0.17574093242E+03  0.00000000000E+00 0.  1.
<mgrwt>
<rscale>  0 0.12644353E+04</rscale>
<asrwt>0</asrwt>
<pdfrwt beam="1">  1        2 0.50600782E-01 0.12644353E+04</pdfrwt>
<pdfrwt beam="2">  1       -1 0.18696026E+00 0.12644353E+04</pdfrwt>
<totfact> 0.20694688E+01</totfact>
</mgrwt>
</event>
<event>
12    6  0.1569942E-007  0.1917822E+04  0.7818608E-02  0.8646036E-01
          2   -1    0    0  501    0  0.00000000000E+00  0.00000000000E+00  0.14796772202E+04  0.14796772202E+04  0.00000000000E+00 0. -1.
         -1   -1    0    0    0  501 -0.00000000000E+00 -0.00000000000E+00 -0.62142613659E+03  0.62142613659E+03  0.00000000000E+00 0.  1.
         24    2    1    2    0    0  0.33182669888E+02 -0.48534198611E+03 -0.27941765147E+03  0.56727005689E+03  0.84042610757E+02 0.  0.
        254    2    1    2    0    0 -0.33182669888E+02  0.48534198611E+03  0.11376687351E+04  0.15338332999E+04  0.90647476967E+03 0.  0.
         23    2    4    4    0    0 -0.41440900657E+03  0.34957466219E+03  0.90213341150E+03  0.10563632458E+04  0.90118509621E+02 0.  0.
         23    2    4    4    0    0  0.38122633669E+03  0.13576732393E+03  0.23553532357E+03  0.47747005409E+03  0.93458428572E+02 0.  0.
          2    1    3    3  502    0 -0.21651924300E+02 -0.28793592913E+03 -0.15938809837E+03  0.32981884575E+03  0.00000000000E+00 0. -1.
         -1    1    3    3    0  502  0.54834594187E+02 -0.19740605699E+03 -0.12002955310E+03  0.23745121114E+03  0.00000000000E+00 0.  1.
         11    1    5    5    0    0 -0.28538882528E+03  0.25193209374E+03  0.70608958184E+03  0.80217146485E+03  0.00000000000E+00 0.  1.
        -11    1    5    5    0    0 -0.12902018129E+03  0.97642568452E+02  0.19604382966E+03  0.25419178095E+03  0.00000000000E+00 0. -1.
          2    1    6    6  503    0  0.20462085707E+03  0.10796418604E+03  0.16982659536E+03  0.28699657333E+03  0.00000000000E+00 0. -1.
         -2    1    6    6    0  503  0.17660547962E+03  0.27803137889E+02  0.65708728216E+02  0.19047348076E+03  0.00000000000E+00 0.  1.
<mgrwt>
<rscale>  0 0.19178218E+04</rscale>
<asrwt>0</asrwt>
<pdfrwt beam="1">  1        2 0.22764265E+00 0.19178218E+04</pdfrwt>
<pdfrwt beam="2">  1       -1 0.95604022E-01 0.19178218E+04</pdfrwt>
<totfact> 0.14662702E+01</totfact>
</mgrwt>
</event>
<event>
12    6  0.1753936E-007  0.1806877E+04  0.7818608E-02  0.8702651E-01
         -1   -1    0    0    0  501 -0.00000000000E+00  0.00000000000E+00  0.86559674593E+03  0.86559674593E+03  0.00000000000E+00 0.  1.
          2   -1    0    0  501    0  0.00000000000E+00 -0.00000000000E+00 -0.94293467382E+03  0.94293467382E+03  0.00000000000E+00 0. -1.
         24    2    1    2    0    0 -0.22379507876E+02  0.16121249886E+03  0.63096486481E+03  0.65659031356E+03  0.80646556476E+02 0.  0.
        254    2    1    2    0    0  0.22379507876E+02 -0.16121249886E+03 -0.70830279271E+03  0.11519411062E+04  0.89374781332E+03 0.  0.
         23    2    4    4    0    0  0.28277009995E+03  0.21900457120E+03 -0.53781649693E+03  0.65163660403E+03  0.86381408315E+02 0.  0.
         23    2    4    4    0    0 -0.26039059208E+03 -0.38021707006E+03 -0.17048629578E+03  0.50030450217E+03  0.94184590214E+02 0.  0.
          2    1    3    3  502    0 -0.18852783860E+02  0.17539871241E+02  0.34467552179E+02  0.43024257060E+02  0.00000000000E+00 0. -1.
         -1    1    3    3    0  502 -0.35267240161E+01  0.14367262762E+03  0.59649731263E+03  0.61356605650E+03  0.00000000000E+00 0.  1.
         11    1    5    5    0    0 -0.11854352950E+01 -0.24474295645E+01  0.15341161322E+01  0.31222877220E+01  0.00000000000E+00 0. -1.
        -11    1    5    5    0    0  0.28395553525E+03  0.22145200076E+03 -0.53935061306E+03  0.64851431630E+03  0.00000000000E+00 0.  1.
          3    1    6    6  503    0  0.50161359088E+01 -0.67618635837E+01  0.48790213590E+01  0.97308410737E+01  0.00000000000E+00 0. -1.
         -3    1    6    6    0  503 -0.26540672799E+03 -0.37345520647E+03 -0.17536531714E+03  0.49057366109E+03  0.00000000000E+00 0.  1.
<mgrwt>
<rscale>  0 0.18068771E+04</rscale>
<asrwt>0</asrwt>
<pdfrwt beam="1">  1        2 0.14506687E+00 0.18068771E+04</pdfrwt>
<pdfrwt beam="2">  1       -1 0.13316873E+00 0.18068771E+04</pdfrwt>
<totfact> 0.14096163E+01</totfact>
</mgrwt>
</event>
<event>
12    6  0.1569942E-007  0.4134955E+04  0.7818608E-02  0.7977862E-01
          2   -1    0    0  501    0  0.00000000000E+00  0.00000000000E+00  0.29680789103E+04  0.29680789103E+04  0.00000000000E+00 0. -1.
         -1   -1    0    0    0  501 -0.00000000000E+00 -0.00000000000E+00 -0.14401445648E+04  0.14401445648E+04  0.00000000000E+00 0.  1.
         24    2    1    2    0    0 -0.34789842707E+03  0.14387162979E+02 -0.13382421676E+04  0.13850467719E+04  0.78880637918E+02 0.  0.
        254    2    1    2    0    0  0.34789842707E+03 -0.14387162979E+02  0.28661765132E+04  0.30231767032E+04  0.89631984686E+03 0.  0.
         23    2    4    4    0    0  0.44136334781E+03  0.60252957105E+02  0.28319409570E+04  0.28681377796E+04  0.88840952655E+02 0.  0.
         23    2    4    4    0    0 -0.93464920743E+02 -0.74640120084E+02  0.34235556149E+02  0.15503892360E+03  0.92510299916E+02 0.  0.
          4    1    3    3  502    0 -0.14539926123E+02 -0.16116119677E+02 -0.64663592326E+02  0.68209375731E+02  0.00000000000E+00 0. -1.
         -3    1    3    3    0  502 -0.33335850095E+03  0.30503282656E+02 -0.12735785753E+04  0.13168373962E+04  0.00000000000E+00 0.  1.
         11    1    5    5    0    0  0.48305046055E+01  0.10404194747E+02  0.33365488181E+02  0.35282245459E+02  0.00000000000E+00 0.  1.
        -11    1    5    5    0    0  0.43653284321E+03  0.49848762358E+02  0.27985754689E+04  0.28328555341E+04  0.00000000000E+00 0. -1.
          3    1    6    6  503    0 -0.91301496516E+02 -0.76529429742E+02  0.57018894219E+02  0.13207524818E+03  0.00000000000E+00 0. -1.
         -3    1    6    6    0  503 -0.21634242262E+01  0.18893096576E+01 -0.22783338070E+02  0.22963675424E+02  0.00000000000E+00 0.  1.
<mgrwt>
<rscale>  0 0.41349548E+04</rscale>
<asrwt>0</asrwt>
<pdfrwt beam="1">  1        2 0.45662752E+00 0.41349548E+04</pdfrwt>
<pdfrwt beam="2">  1       -1 0.22156070E+00 0.41349548E+04</pdfrwt>
<totfact> 0.17350121E-01</totfact>
</mgrwt>
</event>
<event>
12    6  0.1569942E-007  0.2077879E+04  0.7818608E-02  0.8571051E-01
          2   -1    0    0  501    0  0.00000000000E+00  0.00000000000E+00  0.11725090149E+04  0.11725090149E+04  0.00000000000E+00 0. -1.
         -1   -1    0    0    0  501 -0.00000000000E+00 -0.00000000000E+00 -0.92058566120E+03  0.92058566120E+03  0.00000000000E+00 0.  1.
         24    2    1    2    0    0 -0.68850799258E+03 -0.43714542145E+03  0.28366048151E+03  0.86712701072E+03  0.79414158778E+02 0.  0.
        254    2    1    2    0    0  0.68850799258E+03  0.43714542145E+03 -0.31737127817E+02  0.12259676654E+04  0.91479511143E+03 0.  0.
         23    2    4    4    0    0  0.22961806507E+03  0.59691317672E+02  0.40813386819E+03  0.48101573758E+03  0.92278796183E+02 0.  0.
         23    2    4    4    0    0  0.45888992751E+03  0.37745410378E+03 -0.43987099601E+03  0.74495192778E+03  0.91735029017E+02 0.  0.
          2    1    3    3  502    0  0.28984525508E+00  0.21931554255E+01 -0.23308527624E+00  0.22244706648E+01  0.00000000000E+00 0. -1.
         -1    1    3    3    0  502 -0.68879783783E+03 -0.43933857688E+03  0.28389356679E+03  0.86490254006E+03  0.00000000000E+00 0.  1.
         11    1    5    5    0    0  0.67575478684E+02  0.58635100467E+02  0.18216160690E+03  0.20294672049E+03  0.00000000000E+00 0. -1.
        -11    1    5    5    0    0  0.16204258639E+03  0.10562172045E+01  0.22597226129E+03  0.27806901709E+03  0.00000000000E+00 0.  1.
          3    1    6    6  503    0  0.37442908091E+02  0.25441123134E+02 -0.71593388081E+01  0.45830974731E+02  0.00000000000E+00 0. -1.
         -3    1    6    6    0  503  0.42144701942E+03  0.35201298064E+03 -0.43271165720E+03  0.69912095305E+03  0.00000000000E+00 0.  1.
<mgrwt>
<rscale>  0 0.20778787E+04</rscale>
<asrwt>0</asrwt>
<pdfrwt beam="1">  1        2 0.18038600E+00 0.20778787E+04</pdfrwt>
<pdfrwt beam="2">  1       -1 0.14162856E+00 0.20778787E+04</pdfrwt>
<totfact> 0.84219498E+00</totfact>
</mgrwt>
</event>
<event>
12    6  0.1569942E-007  0.1498134E+04  0.7818608E-02  0.8885695E-01
          2   -1    0    0  501    0  0.00000000000E+00  0.00000000000E+00  0.59405990384E+03  0.59405990384E+03  0.00000000000E+00 0. -1.
         -1   -1    0    0    0  501 -0.00000000000E+00 -0.00000000000E+00 -0.94452016732E+03  0.94452016732E+03  0.00000000000E+00 0.  1.
         24    2    1    2    0    0  0.33321057837E+03  0.26431553204E+03 -0.34160202396E+03  0.55139838083E+03  0.80350741031E+02 0.  0.
        254    2    1    2    0    0 -0.33321057837E+03 -0.26431553204E+03 -0.88582395152E+01  0.98718169034E+03  0.89081829310E+03 0.  0.
         23    2    4    4    0    0 -0.59491613099E+03 -0.34881097065E+03 -0.31080128273E+02  0.69640297129E+03  0.91743271660E+02 0.  0.
         23    2    4    4    0    0  0.26170555261E+03  0.84495438608E+02  0.22221888758E+02  0.29077871905E+03  0.91810542419E+02 0.  0.
          2    1    3    3  502    0  0.17188386634E+02 -0.37874995048E+01 -0.21237216349E+02  0.27582696494E+02  0.00000000000E+00 0. -1.
         -1    1    3    3    0  502  0.31602219174E+03  0.26810303155E+03 -0.32036480761E+03  0.52381568433E+03  0.00000000000E+00 0.  1.
         11    1    5    5    0    0 -0.45897159122E+03 -0.29763785192E+03 -0.52625423428E+02  0.54955677381E+03  0.00000000000E+00 0.  1.
        -11    1    5    5    0    0 -0.13594453977E+03 -0.51173118727E+02  0.21545295154E+02  0.14684619748E+03  0.00000000000E+00 0. -1.
          4    1    6    6  503    0  0.97005911033E+02 -0.65578857344E+01  0.31927760002E+02  0.10233540198E+03  0.00000000000E+00 0. -1.
         -4    1    6    6    0  503  0.16469964158E+03  0.91053324343E+02 -0.97058712443E+01  0.18844331707E+03  0.00000000000E+00 0.  1.
<mgrwt>
<rscale>  0 0.14981343E+04</rscale>
<asrwt>0</asrwt>
<pdfrwt beam="1">  1        2 0.91393832E-01 0.14981343E+04</pdfrwt>
<pdfrwt beam="2">  1       -1 0.14531079E+00 0.14981343E+04</pdfrwt>
<totfact> 0.21060611E+01</totfact>
</mgrwt>
</event>
<event>
12    6  0.1569942E-007  0.2262041E+04  0.7818608E-02  0.8493040E-01
          2   -1    0    0  501    0  0.00000000000E+00  0.00000000000E+00  0.21927319540E+04  0.21927319540E+04  0.00000000000E+00 0. -1.
         -1   -1    0    0    0  501 -0.00000000000E+00 -0.00000000000E+00 -0.58338542148E+03  0.58338542148E+03  0.00000000000E+00 0.  1.
         24    2    1    2    0    0  0.84487934375E+03  0.22948818361E+03  0.11308993241E+04  0.14321020194E+04  0.74141625603E+02 0.  0.
        254    2    1    2    0    0 -0.84487934375E+03 -0.22948818361E+03  0.47844720838E+03  0.13440153561E+04  0.90054406574E+03 0.  0.
         23    2    4    4    0    0 -0.78618249582E+03 -0.51680161306E+03  0.40452176927E+03  0.10281431321E+04  0.90959410467E+02 0.  0.
         23    2    4    4    0    0 -0.58696847924E+02  0.28731342945E+03  0.73925439107E+02  0.31587222396E+03  0.91191910955E+02 0.  0.
          2    1    3    3  502    0  0.30479129024E+03  0.94219692451E+02  0.35761948570E+03  0.47923561804E+03  0.00000000000E+00 0. -1.
         -1    1    3    3    0  502  0.54008805351E+03  0.13526849116E+03  0.77327983845E+03  0.95286640134E+03  0.00000000000E+00 0.  1.
         11    1    5    5    0    0 -0.93693019827E+02 -0.29326518860E+02  0.48264680400E+02  0.10939792524E+03  0.00000000000E+00 0. -1.
        -11    1    5    5    0    0 -0.69248947600E+03 -0.48747509420E+03  0.35625708887E+03  0.91874520690E+03  0.00000000000E+00 0.  1.
          1    1    6    6  503    0  0.20016653631E+02  0.19945256939E+02  0.41884724165E+01  0.28566116260E+02  0.00000000000E+00 0. -1.
         -1    1    6    6    0  503 -0.78713501555E+02  0.26736817251E+03  0.69736966690E+02  0.28730610770E+03  0.00000000000E+00 0.  1.
<mgrwt>
<rscale>  0 0.22620414E+04</rscale>
<asrwt>0</asrwt>
<pdfrwt beam="1">  1        2 0.33734337E+00 0.22620414E+04</pdfrwt>
<pdfrwt beam="2">  1       -1 0.89751605E-01 0.22620414E+04</pdfrwt>
<totfact> 0.65555891E+00</totfact>
</mgrwt>
</event>
<event>
12    6  0.1569942E-007  0.1247344E+04  0.7818608E-02  0.9072397E-01
         -1   -1    0    0    0  501 -0.00000000000E+00  0.00000000000E+00  0.16218686983E+03  0.16218686983E+03  0.00000000000E+00 0.  1.
          2   -1    0    0  501    0  0.00000000000E+00 -0.00000000000E+00 -0.23982615031E+04  0.23982615031E+04  0.00000000000E+00 0. -1.
         24    2    1    2    0    0  0.27317072850E+02  0.21625962872E+03 -0.90521714512E+03  0.93514448550E+03  0.86963667431E+02 0.  0.
        254    2    1    2    0    0 -0.27317072850E+02 -0.21625962872E+03 -0.13308574882E+04  0.16253038875E+04  0.90714752011E+03 0.  0.
         23    2    4    4    0    0 -0.21635907037E+02 -0.49840865254E+03 -0.11972435865E+04  0.13001621541E+04  0.90278037436E+02 0.  0.
         23    2    4    4    0    0 -0.56811658131E+01  0.28214902381E+03 -0.13361390165E+03  0.32514173337E+03  0.90686960354E+02 0.  0.
          2    1    3    3  502    0 -0.12153328427E+02  0.18098200457E+03 -0.67836472522E+03  0.70219718726E+03  0.00000000000E+00 0. -1.
         -1    1    3    3    0  502  0.39470401277E+02  0.35277624155E+02 -0.22685241990E+03  0.23294729824E+03  0.00000000000E+00 0.  1.
         11    1    5    5    0    0 -0.76170945162E+01 -0.33151514652E+02 -0.38223091336E+02  0.51166861970E+02  0.00000000000E+00 0. -1.
        -11    1    5    5    0    0 -0.14018812521E+02 -0.46525713788E+03 -0.11590204952E+04  0.12489952921E+04  0.00000000000E+00 0.  1.
          2    1    6    6  503    0 -0.11761749322E+02  0.19121449565E+03 -0.13436944318E+03  0.23400100290E+03  0.00000000000E+00 0. -1.
         -2    1    6    6    0  503  0.60805835090E+01  0.90934528161E+02  0.75554153353E+00  0.91140730470E+02  0.00000000000E+00 0.  1.
<mgrwt>
<rscale>  0 0.12473436E+04</rscale>
<asrwt>0</asrwt>
<pdfrwt beam="1">  1        2 0.36896324E+00 0.12473436E+04</pdfrwt>
<pdfrwt beam="2">  1       -1 0.24951830E-01 0.12473436E+04</pdfrwt>
<totfact> 0.63018265E+01</totfact>
</mgrwt>
</event>
<event>
12    6  0.1569942E-007  0.2553998E+04  0.7818608E-02  0.8383997E-01
         -1   -1    0    0    0  501 -0.00000000000E+00  0.00000000000E+00  0.15325802568E+04  0.15325802568E+04  0.00000000000E+00 0.  1.
          2   -1    0    0  501    0  0.00000000000E+00 -0.00000000000E+00 -0.10640398692E+04  0.10640398692E+04  0.00000000000E+00 0. -1.
         24    2    1    2    0    0  0.10118136156E+04  0.17336073396E+03  0.65374659781E+03  0.12200276521E+04  0.85218078484E+02 0.  0.
        254    2    1    2    0    0 -0.10118136156E+04 -0.17336073396E+03 -0.18520621018E+03  0.13765924739E+04  0.89826764498E+03 0.  0.
         23    2    4    4    0    0 -0.27126027914E+03  0.51954076108E+02  0.33060697803E+03  0.44192318648E+03  0.98558428161E+02 0.  0.
         23    2    4    4    0    0 -0.74055333648E+03 -0.22531481007E+03 -0.51581318822E+03  0.93466928740E+03  0.91418946970E+02 0.  0.
          2    1    3    3  502    0  0.11351605131E+02 -0.66853724090E+01  0.12354593393E+02  0.18060706554E+02  0.00000000000E+00 0. -1.
         -1    1    3    3    0  502  0.10004620105E+04  0.18004610637E+03  0.64139200442E+03  0.12019669455E+04  0.00000000000E+00 0.  1.
         11    1    5    5    0    0 -0.27194017838E+03  0.32830336145E+02  0.31285080768E+03  0.41581837316E+03  0.00000000000E+00 0. -1.
        -11    1    5    5    0    0  0.67989923644E+00  0.19123739963E+02  0.17756170350E+02  0.26104813324E+02  0.00000000000E+00 0.  1.
          1    1    6    6  503    0 -0.70860395859E+03 -0.22299977852E+03 -0.51242693036E+03  0.90245766123E+03  0.00000000000E+00 0. -1.
         -1    1    6    6    0  503 -0.31949377884E+02 -0.23150315471E+01 -0.33862578584E+01  0.32211626170E+02  0.00000000000E+00 0.  1.
<mgrwt>
<rscale>  0 0.25539980E+04</rscale>
<asrwt>0</asrwt>
<pdfrwt beam="1">  1        2 0.16369844E+00 0.25539980E+04</pdfrwt>
<pdfrwt beam="2">  1       -1 0.23578158E+00 0.25539980E+04</pdfrwt>
<totfact> 0.20065664E+00</totfact>
</mgrwt>
</event>
<event>
12    6  0.1569942E-007  0.3017928E+04  0.7818608E-02  0.8238630E-01
         -1   -1    0    0    0  501 -0.00000000000E+00  0.00000000000E+00  0.58151875166E+03  0.58151875166E+03  0.00000000000E+00 0.  1.
          2   -1    0    0  501    0  0.00000000000E+00 -0.00000000000E+00 -0.39155615844E+04  0.39155615844E+04  0.00000000000E+00 0. -1.
         24    2    1    2    0    0 -0.85308397890E+03  0.10088628403E+04 -0.95883825482E+03  0.16341532834E+04  0.74361610833E+02 0.  0.
        254    2    1    2    0    0  0.85308397890E+03 -0.10088628403E+04 -0.23752045780E+04  0.28629270527E+04  0.89955434300E+03 0.  0.
         23    2    4    4    0    0  0.26211085696E+02 -0.55956324456E+03 -0.47729626931E+03  0.74258986421E+03  0.99146013803E+02 0.  0.
         23    2    4    4    0    0  0.82687289321E+03 -0.44929959578E+03 -0.18979083087E+04  0.21203371885E+04  0.90470638238E+02 0.  0.
          4    1    3    3  502    0 -0.40407079121E+03  0.42991749524E+03 -0.40281026232E+03  0.71439370409E+03  0.00000000000E+00 0. -1.
         -3    1    3    3    0  502 -0.44901318769E+03  0.57894534510E+03 -0.55602799250E+03  0.91975957934E+03  0.00000000000E+00 0.  1.
         11    1    5    5    0    0  0.27436939937E+02 -0.50870735230E+03 -0.39013948832E+03  0.64167341873E+03  0.00000000000E+00 0. -1.
        -11    1    5    5    0    0 -0.12258542411E+01 -0.50855892265E+02 -0.87156780986E+02  0.10091644548E+03  0.00000000000E+00 0.  1.
          1    1    6    6  503    0  0.53625942003E+03 -0.33965624296E+03 -0.12792102640E+04  0.14280474181E+04  0.00000000000E+00 0. -1.
         -1    1    6    6    0  503  0.29061347318E+03 -0.10964335282E+03 -0.61869804469E+03  0.69228977034E+03  0.00000000000E+00 0.  1.
<mgrwt>
<rscale>  0 0.30179281E+04</rscale>
<asrwt>0</asrwt>
<pdfrwt beam="1">  1        2 0.60239407E+00 0.30179281E+04</pdfrwt>
<pdfrwt beam="2">  1       -1 0.89464426E-01 0.30179281E+04</pdfrwt>
<totfact> 0.47461869E-01</totfact>
</mgrwt>
</event>
<event>
12    6  0.1569942E-007  0.1418656E+04  0.7818608E-02  0.8940424E-01
         -1   -1    0    0    0  501 -0.00000000000E+00  0.00000000000E+00  0.12053511540E+04  0.12053511540E+04  0.00000000000E+00 0.  1.
          2   -1    0    0  501    0  0.00000000000E+00 -0.00000000000E+00 -0.41742733575E+03  0.41742733575E+03  0.00000000000E+00 0. -1.
         24    2    1    2    0    0 -0.27681344352E+02 -0.38385007141E+03  0.42548414331E+03  0.57932612941E+03  0.80466600959E+02 0.  0.
        254    2    1    2    0    0  0.27681344352E+02  0.38385007141E+03  0.36243967498E+03  0.10434523604E+04  0.89962390821E+03 0.  0.
         23    2    4    4    0    0  0.38559030298E+03  0.71037818947E+02 -0.52385969171E+02  0.40623374646E+03  0.92494937810E+02 0.  0.
         23    2    4    4    0    0 -0.35790895863E+03  0.31281225246E+03  0.41482564415E+03  0.63721861391E+03  0.89537248766E+02 0.  0.
          4    1    3    3  502    0 -0.25962406053E+02 -0.32288020054E+02  0.39744539450E+02  0.57412465399E+02  0.00000000000E+00 0. -1.
         -3    1    3    3    0  502 -0.17189382991E+01 -0.35156205135E+03  0.38573960386E+03  0.52191366402E+03  0.00000000000E+00 0.  1.
         11    1    5    5    0    0  0.49104039825E+02  0.42655883411E+02 -0.12069688721E+02  0.66154429198E+02  0.00000000000E+00 0. -1.
        -11    1    5    5    0    0  0.33648626316E+03  0.28381935535E+02 -0.40316280449E+02  0.34007931726E+03  0.00000000000E+00 0.  1.
          1    1    6    6  503    0 -0.91573799350E+01  0.39665243300E+02  0.35842710843E+02  0.54239183750E+02  0.00000000000E+00 0. -1.
         -1    1    6    6    0  503 -0.34875157869E+03  0.27314700916E+03  0.37898293331E+03  0.58297943016E+03  0.00000000000E+00 0.  1.
<mgrwt>
<rscale>  0 0.14186564E+04</rscale>
<asrwt>0</asrwt>
<pdfrwt beam="1">  1        2 0.64219591E-01 0.14186564E+04</pdfrwt>
<pdfrwt beam="2">  1       -1 0.18543864E+00 0.14186564E+04</pdfrwt>
<totfact> 0.16032184E+01</totfact>
</mgrwt>
</event>
<event>
12    6  0.1569942E-007  0.1193511E+04  0.7818608E-02  0.9118555E-01
         -1   -1    0    0    0  501 -0.00000000000E+00  0.00000000000E+00  0.34822482513E+03  0.34822482513E+03  0.00000000000E+00 0.  1.
          2   -1    0    0  501    0  0.00000000000E+00 -0.00000000000E+00 -0.10226650922E+04  0.10226650922E+04  0.00000000000E+00 0. -1.
         24    2    1    2    0    0 -0.33160109203E+02  0.19273339990E+03 -0.34371281024E+03  0.40336801050E+03  0.79507859318E+02 0.  0.
        254    2    1    2    0    0  0.33160109203E+02 -0.19273339990E+03 -0.33072745685E+03  0.96752190685E+03  0.88795958987E+03 0.  0.
         23    2    4    4    0    0 -0.13546848400E+03  0.24611690248E+03  0.11029793127E+03  0.31619063343E+03  0.94263689658E+02 0.  0.
         23    2    4    4    0    0  0.16862859320E+03 -0.43885030237E+03 -0.44102538812E+03  0.65133127342E+03  0.93294396527E+02 0.  0.
          2    1    3    3  502    0 -0.99440949058E+01  0.14823917216E+03 -0.30740144867E+03  0.34142259420E+03  0.00000000000E+00 0. -1.
         -1    1    3    3    0  502 -0.23216014297E+02  0.44494227738E+02 -0.36311361580E+02  0.61945416308E+02  0.00000000000E+00 0.  1.
         11    1    5    5    0    0 -0.35161908136E+02  0.11964088149E+02 -0.32756922553E+01  0.37285779444E+02  0.00000000000E+00 0.  1.
        -11    1    5    5    0    0 -0.10030657586E+03  0.23415281433E+03  0.11357362353E+03  0.27890485399E+03  0.00000000000E+00 0. -1.
          4    1    6    6  503    0  0.10641127324E+03 -0.31779678638E+03 -0.36462949524E+03  0.49525026533E+03  0.00000000000E+00 0. -1.
         -4    1    6    6    0  503  0.62217319954E+02 -0.12105351599E+03 -0.76395892881E+02  0.15608100809E+03  0.00000000000E+00 0.  1.
<mgrwt>
<rscale>  0 0.11935114E+04</rscale>
<asrwt>0</asrwt>
<pdfrwt beam="1">  1        2 0.15733309E+00 0.11935114E+04</pdfrwt>
<pdfrwt beam="2">  1       -1 0.53573051E-01 0.11935114E+04</pdfrwt>
<totfact> 0.96413686E+01</totfact>
</mgrwt>
</event>
<event>
12    6  0.1569942E-007  0.1315194E+04  0.7818608E-02  0.9017602E-01
         -1   -1    0    0    0  501 -0.00000000000E+00  0.00000000000E+00  0.10833081861E+04  0.10833081861E+04  0.00000000000E+00 0.  1.
          2   -1    0    0  501    0  0.00000000000E+00 -0.00000000000E+00 -0.39917920341E+03  0.39917920341E+03  0.00000000000E+00 0. -1.
         24    2    1    2    0    0 -0.33063565280E+03  0.65450442752E+02  0.88942807409E+02  0.35770683476E+03  0.80247500196E+02 0.  0.
        254    2    1    2    0    0  0.33063565280E+03 -0.65450442752E+02  0.59518617527E+03  0.11247805547E+04  0.89290594003E+03 0.  0.
         23    2    4    4    0    0 -0.20025021124E+03 -0.13214746402E+03 -0.70711947191E+02  0.26617752753E+03  0.91034044933E+02 0.  0.
         23    2    4    4    0    0  0.53088586404E+03  0.66697021267E+02  0.66589812246E+03  0.85860302721E+03  0.86547995743E+02 0.  0.
          2    1    3    3  502    0 -0.52123871655E+02 -0.18387344764E+02  0.84195436741E+01  0.55909580212E+02  0.00000000000E+00 0. -1.
         -1    1    3    3    0  502 -0.27851178114E+03  0.83837787517E+02  0.80523263734E+02  0.30179725455E+03  0.00000000000E+00 0.  1.
         11    1    5    5    0    0 -0.20424278300E+02 -0.24033036267E+02 -0.44758487149E+02  0.54754544543E+02  0.00000000000E+00 0. -1.
        -11    1    5    5    0    0 -0.17982593294E+03 -0.10811442775E+03 -0.25953460042E+02  0.21142298298E+03  0.00000000000E+00 0.  1.
          4    1    6    6  503    0  0.33682613058E+03  0.83871687890E+02  0.41922853191E+03  0.54427829668E+03  0.00000000000E+00 0.  1.
         -4    1    6    6    0  503  0.19405973345E+03 -0.17174666623E+02  0.24666959055E+03  0.31432473053E+03  0.00000000000E+00 0. -1.
<mgrwt>
<rscale>  0 0.13151944E+04</rscale>
<asrwt>0</asrwt>
<pdfrwt beam="1">  1        2 0.61412185E-01 0.13151944E+04</pdfrwt>
<pdfrwt beam="2">  1       -1 0.16666280E+00 0.13151944E+04</pdfrwt>
<totfact> 0.23260032E+01</totfact>
</mgrwt>
</event>
<event>
12    6  0.1569942E-007  0.1294100E+04  0.7818608E-02  0.9034257E-01
          2   -1    0    0  501    0  0.00000000000E+00  0.00000000000E+00  0.11948295926E+04  0.11948295926E+04  0.00000000000E+00 0. -1.
         -1   -1    0    0    0  501 -0.00000000000E+00 -0.00000000000E+00 -0.35040432104E+03  0.35040432104E+03  0.00000000000E+00 0.  1.
         24    2    1    2    0    0  0.16700415790E+03 -0.10746980079E+03  0.52792699863E+03  0.56981494993E+03  0.80882720295E+02 0.  0.
        254    2    1    2    0    0 -0.16700415790E+03  0.10746980079E+03  0.31649827297E+03  0.97541896376E+03  0.90101656545E+03 0.  0.
         23    2    4    4    0    0 -0.22147492955E+03  0.46579031327E+03  0.29546025531E+03  0.60135241935E+03  0.91193253248E+02 0.  0.
         23    2    4    4    0    0  0.54470771648E+02 -0.35832051248E+03  0.21038017659E+02  0.37406654441E+03  0.90125062181E+02 0.  0.
          2    1    3    3  502    0  0.14187688978E+03 -0.11457229444E+03  0.49664423960E+03  0.52906650171E+03  0.00000000000E+00 0. -1.
         -1    1    3    3    0  502  0.25127268123E+02  0.71024936535E+01  0.31282759026E+02  0.40748448212E+02  0.00000000000E+00 0.  1.
         11    1    5    5    0    0 -0.84163677850E+02  0.20903832560E+03  0.17889881550E+03  0.28772440359E+03  0.00000000000E+00 0. -1.
        -11    1    5    5    0    0 -0.13731125170E+03  0.25675198767E+03  0.11656143982E+03  0.31362801576E+03  0.00000000000E+00 0.  1.
          3    1    6    6  503    0  0.15175530496E+02 -0.15841344945E+03 -0.34635279134E+02  0.16286411591E+03  0.00000000000E+00 0. -1.
         -3    1    6    6    0  503  0.39295241152E+02 -0.19990706303E+03  0.55673296793E+02  0.21120242850E+03  0.00000000000E+00 0.  1.
<mgrwt>
<rscale>  0 0.12940996E+04</rscale>
<asrwt>0</asrwt>
<pdfrwt beam="1">  1        2 0.18381994E+00 0.12940996E+04</pdfrwt>
<pdfrwt beam="2">  1       -1 0.53908358E-01 0.12940996E+04</pdfrwt>
<totfact> 0.74068720E+01</totfact>
</mgrwt>
</event>
<event>
12    6  0.1569942E-007  0.3543349E+04  0.7818608E-02  0.8103593E-01
          2   -1    0    0  501    0  0.00000000000E+00  0.00000000000E+00  0.27977712818E+04  0.27977712818E+04  0.00000000000E+00 0. -1.
         -1   -1    0    0    0  501 -0.00000000000E+00 -0.00000000000E+00 -0.11219039982E+04  0.11219039982E+04  0.00000000000E+00 0.  1.
         24    2    1    2    0    0  0.96109168507E+03  0.83563035511E+03 -0.38342888927E+03  0.13324548534E+04  0.80267712430E+02 0.  0.
        254    2    1    2    0    0 -0.96109168507E+03 -0.83563035511E+03  0.20592961729E+04  0.25872204267E+04  0.91161038328E+03 0.  0.
         23    2    4    4    0    0 -0.13575062517E+03 -0.63081700711E+03  0.55124955741E+03  0.85357856386E+03  0.91443761087E+02 0.  0.
         23    2    4    4    0    0 -0.82534105989E+03 -0.20481334800E+03  0.15080466155E+04  0.17336418628E+04  0.90405427302E+02 0.  0.
          4    1    3    3  502    0  0.16639883896E+03  0.18507868104E+03 -0.84172892768E+02  0.26273136025E+03  0.00000000000E+00 0. -1.
         -3    1    3    3    0  502  0.79469284611E+03  0.65055167407E+03 -0.29925599651E+03  0.10697234931E+04  0.00000000000E+00 0.  1.
         11    1    5    5    0    0 -0.43791020447E+02 -0.19427635753E+03  0.22756466644E+03  0.30240144506E+03  0.00000000000E+00 0.  1.
        -11    1    5    5    0    0 -0.91959604726E+02 -0.43654064958E+03  0.32368489097E+03  0.55117711879E+03  0.00000000000E+00 0. -1.
          2    1    6    6  503    0 -0.14936814692E+03 -0.24154213497E+02  0.20732007826E+03  0.25666297784E+03  0.00000000000E+00 0. -1.
         -2    1    6    6    0  503 -0.67597291297E+03 -0.18065913450E+03  0.13007265372E+04  0.14769788850E+04  0.00000000000E+00 0.  1.
<mgrwt>
<rscale>  0 0.35433491E+04</rscale>
<asrwt>0</asrwt>
<pdfrwt beam="1">  1        2 0.43042635E+00 0.35433491E+04</pdfrwt>
<pdfrwt beam="2">  1       -1 0.17260062E+00 0.35433491E+04</pdfrwt>
<totfact> 0.50785102E-01</totfact>
</mgrwt>
</event>
<event>
12    6  0.1569942E-007  0.1593767E+04  0.7818608E-02  0.8824386E-01
         -1   -1    0    0    0  501 -0.00000000000E+00  0.00000000000E+00  0.36011248020E+03  0.36011248020E+03  0.00000000000E+00 0.  1.
          2   -1    0    0  501    0  0.00000000000E+00 -0.00000000000E+00 -0.17634034701E+04  0.17634034701E+04  0.00000000000E+00 0. -1.
         24    2    1    2    0    0 -0.24644376939E+03 -0.25196880120E+03  0.57320587315E+02  0.36528707016E+03  0.76981722805E+02 0.  0.
        254    2    1    2    0    0  0.24644376939E+03  0.25196880120E+03 -0.14606115773E+04  0.17582288802E+04  0.91310448868E+03 0.  0.
         23    2    4    4    0    0  0.44983811879E+03 -0.90380360969E+02 -0.37897350521E+03  0.60218035042E+03  0.92072330314E+02 0.  0.
         23    2    4    4    0    0 -0.20339434941E+03  0.34234916217E+03 -0.10816380720E+04  0.11560485298E+04  0.89079032680E+02 0.  0.
          2    1    3    3  502    0 -0.11629077076E+03 -0.12024658466E+03 -0.11642737249E+02  0.16768523434E+03  0.00000000000E+00 0. -1.
         -1    1    3    3    0  502 -0.13015299863E+03 -0.13172221654E+03  0.68963324564E+02  0.19760183581E+03  0.00000000000E+00 0.  1.
         11    1    5    5    0    0  0.15318127774E+03 -0.66303236125E+02 -0.17187122294E+03  0.23958368109E+03  0.00000000000E+00 0. -1.
        -11    1    5    5    0    0  0.29665684106E+03 -0.24077124844E+02 -0.20710228227E+03  0.36259666933E+03  0.00000000000E+00 0.  1.
          2    1    6    6  503    0 -0.32754325762E+02  0.11153332091E+03 -0.23709110611E+03  0.26405438857E+03  0.00000000000E+00 0. -1.
         -2    1    6    6    0  503 -0.17064002365E+03  0.23081584126E+03 -0.84454696594E+03  0.89199414119E+03  0.00000000000E+00 0.  1.
<mgrwt>
<rscale>  0 0.15937674E+04</rscale>
<asrwt>0</asrwt>
<pdfrwt beam="1">  1        2 0.27129284E+00 0.15937674E+04</pdfrwt>
<pdfrwt beam="2">  1       -1 0.55401919E-01 0.15937674E+04</pdfrwt>
<totfact> 0.32552416E+01</totfact>
</mgrwt>
</event>
<event>
12    6  0.1569942E-007  0.1145153E+04  0.7818608E-02  0.9162267E-01
         -1   -1    0    0    0  501 -0.00000000000E+00  0.00000000000E+00  0.13668422676E+03  0.13668422676E+03  0.00000000000E+00 0.  1.
          2   -1    0    0  501    0  0.00000000000E+00 -0.00000000000E+00 -0.23985493246E+04  0.23985493246E+04  0.00000000000E+00 0. -1.
         24    2    1    2    0    0 -0.46983893647E+02  0.17764864825E+03 -0.64952374324E+03  0.67948719502E+03  0.77815337039E+02 0.  0.
        254    2    1    2    0    0  0.46983893647E+02 -0.17764864825E+03 -0.16123413546E+04  0.18557463563E+04  0.90021295637E+03 0.  0.
         23    2    4    4    0    0 -0.41368387037E+03 -0.11886194398E+03 -0.67699281874E+03  0.80748259077E+03  0.91904033931E+02 0.  0.
         23    2    4    4    0    0  0.46066776401E+03 -0.58786704273E+02 -0.93534853582E+03  0.10482637655E+04  0.91155763705E+02 0.  0.
          4    1    3    3  502    0 -0.11243518910E+02  0.15394388683E+03 -0.54684620163E+03  0.56821290486E+03  0.00000000000E+00 0. -1.
         -3    1    3    3    0  502 -0.35740374737E+02  0.23704761414E+02 -0.10267754161E+03  0.11127429016E+03  0.00000000000E+00 0.  1.
         11    1    5    5    0    0 -0.63530669217E+01 -0.10348959988E+02 -0.53512422318E+02  0.54872960322E+02  0.00000000000E+00 0. -1.
        -11    1    5    5    0    0 -0.40733080344E+03 -0.10851298399E+03 -0.62348039642E+03  0.75260963045E+03  0.00000000000E+00 0.  1.
          2    1    6    6  503    0  0.35954611953E+02  0.82919205931E+01 -0.13228481847E+03  0.13733449409E+03  0.00000000000E+00 0. -1.
         -2    1    6    6    0  503  0.42471315206E+03 -0.67078624866E+02 -0.80306371735E+03  0.91092927144E+03  0.00000000000E+00 0.  1.
<mgrwt>
<rscale>  0 0.11451530E+04</rscale>
<asrwt>0</asrwt>
<pdfrwt beam="1">  1        2 0.36900759E+00 0.11451530E+04</pdfrwt>
<pdfrwt beam="2">  1       -1 0.21028343E-01 0.11451530E+04</pdfrwt>
<totfact> 0.84984261E+01</totfact>
</mgrwt>
</event>
<event>
12    6  0.1569942E-007  0.1197375E+04  0.7818608E-02  0.9115157E-01
         -1   -1    0    0    0  501 -0.00000000000E+00  0.00000000000E+00  0.30732532457E+03  0.30732532457E+03  0.00000000000E+00 0.  1.
          2   -1    0    0  501    0  0.00000000000E+00 -0.00000000000E+00 -0.11662774465E+04  0.11662774465E+04  0.00000000000E+00 0. -1.
         24    2    1    2    0    0  0.21377383539E+03  0.65948464462E+02 -0.58391630244E+02  0.24331412322E+03  0.75787382953E+02 0.  0.
        254    2    1    2    0    0 -0.21377383539E+03 -0.65948464462E+02 -0.80056049171E+03  0.12302886479E+04  0.90700860170E+03 0.  0.
         23    2    4    4    0    0  0.10030762231E+03 -0.39190037979E+03 -0.59365394538E+03  0.72439559061E+03  0.93147399592E+02 0.  0.
         23    2    4    4    0    0 -0.31408145770E+03  0.32595191533E+03 -0.20690654633E+03  0.50589305727E+03  0.90695387443E+02 0.  0.
          4    1    3    3  502    0  0.13772930591E+02  0.22166918184E+01 -0.27910784830E+02  0.31202872456E+02  0.00000000000E+00 0. -1.
         -3    1    3    3    0  502  0.20000090480E+03  0.63731772644E+02 -0.30480845414E+02  0.21211125077E+03  0.00000000000E+00 0.  1.
         11    1    5    5    0    0 -0.64410158614E+01 -0.11295977315E+03 -0.12440835067E+03  0.16816311948E+03  0.00000000000E+00 0. -1.
        -11    1    5    5    0    0  0.10674863817E+03 -0.27894060664E+03 -0.46924559471E+03  0.55623247113E+03  0.00000000000E+00 0.  1.
          1    1    6    6  503    0 -0.29396637553E+03  0.29734860806E+03 -0.21475437031E+03  0.47005517147E+03  0.00000000000E+00 0. -1.
         -1    1    6    6    0  503 -0.20115082168E+02  0.28603307277E+02  0.78478239805E+01  0.35837885806E+02  0.00000000000E+00 0.  1.
<mgrwt>
<rscale>  0 0.11973748E+04</rscale>
<asrwt>0</asrwt>
<pdfrwt beam="1">  1        2 0.17942730E+00 0.11973748E+04</pdfrwt>
<pdfrwt beam="2">  1       -1 0.47280819E-01 0.11973748E+04</pdfrwt>
<totfact> 0.99623059E+01</totfact>
</mgrwt>
</event>
<event>
12    6  0.1569942E-007  0.1434459E+04  0.7818608E-02  0.8929246E-01
         -1   -1    0    0    0  501 -0.00000000000E+00  0.00000000000E+00  0.90138913888E+03  0.90138913888E+03  0.00000000000E+00 0.  1.
          2   -1    0    0  501    0  0.00000000000E+00 -0.00000000000E+00 -0.57069525645E+03  0.57069525645E+03  0.00000000000E+00 0. -1.
         24    2    1    2    0    0 -0.26680171484E+03  0.61346681136E+02 -0.20670007550E+03  0.35208812747E+03  0.79338250328E+02 0.  0.
        254    2    1    2    0    0  0.26680171484E+03 -0.61346681136E+02  0.53739395793E+03  0.11199962679E+04  0.94374403504E+03 0.  0.
         23    2    4    4    0    0  0.60853521794E+03 -0.46133398412E+02  0.42157731107E+03  0.74697186380E+03  0.88295720086E+02 0.  0.
         23    2    4    4    0    0 -0.34173350309E+03 -0.15213282723E+02  0.11581664686E+03  0.37302440406E+03  0.93383506182E+02 0.  0.
          2    1    3    3  502    0 -0.17634439525E+03  0.37503173870E+02 -0.87034259755E+02  0.20019689348E+03  0.00000000000E+00 0. -1.
         -1    1    3    3    0  502 -0.90457319595E+02  0.23843507266E+02 -0.11966581575E+03  0.15189123400E+03  0.00000000000E+00 0.  1.
         11    1    5    5    0    0  0.12833196367E+03  0.25821401451E+02  0.82465594792E+02  0.15471396833E+03  0.00000000000E+00 0. -1.
        -11    1    5    5    0    0  0.48020325427E+03 -0.71954799863E+02  0.33911171628E+03  0.59225789547E+03  0.00000000000E+00 0.  1.
          1    1    6    6  503    0 -0.26480875501E+03 -0.44485344121E+02  0.11106231937E+03  0.29058124743E+03  0.00000000000E+00 0. -1.
         -1    1    6    6    0  503 -0.76924748083E+02  0.29272061398E+02  0.47543274934E+01  0.82443156635E+02  0.00000000000E+00 0.  1.
<mgrwt>
<rscale>  0 0.14344595E+04</rscale>
<asrwt>0</asrwt>
<pdfrwt beam="1">  1        2 0.87799270E-01 0.14344595E+04</pdfrwt>
<pdfrwt beam="2">  1       -1 0.13867525E+00 0.14344595E+04</pdfrwt>
<totfact> 0.25123361E+01</totfact>
</mgrwt>
</event>
<event>
12    6  0.1569942E-007  0.1045604E+04  0.7818608E-02  0.9259895E-01
          4   -1    0    0  501    0  0.00000000000E+00  0.00000000000E+00  0.52568302823E+03  0.52568302823E+03  0.00000000000E+00 0. -1.
         -3   -1    0    0    0  501 -0.00000000000E+00 -0.00000000000E+00 -0.51993634034E+03  0.51993634034E+03  0.00000000000E+00 0.  1.
         24    2    1    2    0    0 -0.72052671606E+02  0.56215406738E+02 -0.73314382122E+02  0.14140289997E+03  0.79170840928E+02 0.  0.
        254    2    1    2    0    0  0.72052671606E+02 -0.56215406738E+02  0.79061070018E+02  0.90421646860E+03  0.89610546804E+03 0.  0.
         23    2    4    4    0    0 -0.37962982579E+03  0.27436996638E+02  0.17259987892E+03  0.42735934310E+03  0.89295557120E+02 0.  0.
         23    2    4    4    0    0  0.45168249739E+03 -0.83652403376E+02 -0.93538808900E+02  0.47685712550E+03  0.87340748376E+02 0.  0.
          4    1    3    3  502    0 -0.61398159307E+02  0.75661316223E+02 -0.67321867616E+02  0.11843395881E+03  0.00000000000E+00 0. -1.
         -3    1    3    3    0  502 -0.10654512300E+02 -0.19445909486E+02 -0.59925145060E+01  0.22968941163E+02  0.00000000000E+00 0.  1.
         11    1    5    5    0    0 -0.10703381006E+03 -0.13508386080E+01  0.93328940590E+02  0.14201532457E+03  0.00000000000E+00 0. -1.
        -11    1    5    5    0    0 -0.27259601573E+03  0.28787835246E+02  0.79270938328E+02  0.28534401853E+03  0.00000000000E+00 0.  1.
          3    1    6    6  503    0  0.36570452665E+03 -0.81430078682E+02 -0.10737739784E+03  0.38974422907E+03  0.00000000000E+00 0. -1.
         -3    1    6    6    0  503  0.85977970742E+02 -0.22223246937E+01  0.13838588943E+02  0.87112896427E+02  0.00000000000E+00 0.  1.
<mgrwt>
<rscale>  0 0.10456036E+04</rscale>
<asrwt>0</asrwt>
<pdfrwt beam="1">  1        4 0.80874312E-01 0.10456036E+04</pdfrwt>
<pdfrwt beam="2">  1       -3 0.79990206E-01 0.10456036E+04</pdfrwt>
<totfact> 0.44765299E+00</totfact>
</mgrwt>
</event>
<event>
12    6  0.1569942E-007  0.1499117E+04  0.7818608E-02  0.8885040E-01
          2   -1    0    0  501    0  0.00000000000E+00  0.00000000000E+00  0.14148289229E+04  0.14148289229E+04  0.00000000000E+00 0. -1.
         -1   -1    0    0    0  501 -0.00000000000E+00 -0.00000000000E+00 -0.39710652481E+03  0.39710652481E+03  0.00000000000E+00 0.  1.
         24    2    1    2    0    0  0.41769232942E+02  0.45980651556E+03  0.43430793286E+03  0.63890527439E+03  0.80061654514E+02 0.  0.
        254    2    1    2    0    0 -0.41769232942E+02 -0.45980651556E+03  0.58341446519E+03  0.11730301733E+04  0.90689616202E+03 0.  0.
         23    2    4    4    0    0 -0.23279017510E+03  0.16740766166E+03  0.37166375424E+03  0.47790206563E+03  0.89665195632E+02 0.  0.
         23    2    4    4    0    0  0.19102094216E+03 -0.62721417722E+03  0.21175071095E+03  0.69512810766E+03  0.92076587795E+02 0.  0.
          4    1    3    3  502    0  0.43435693203E+02  0.37539231796E+03  0.31075432513E+03  0.48925893187E+03  0.00000000000E+00 0. -1.
         -3    1    3    3    0  502 -0.16664602612E+01  0.84414197604E+02  0.12355360773E+03  0.14964634252E+03  0.00000000000E+00 0.  1.
         11    1    5    5    0    0 -0.16871791857E+03  0.69219421654E+02  0.20880358948E+03  0.27722915316E+03  0.00000000000E+00 0.  1.
        -11    1    5    5    0    0 -0.64072256528E+02  0.98188240010E+02  0.16286016476E+03  0.20067291246E+03  0.00000000000E+00 0. -1.
          2    1    6    6  503    0  0.18873216519E+03 -0.62831984161E+03  0.20410279271E+03  0.68706884919E+03  0.00000000000E+00 0. -1.
         -2    1    6    6    0  503  0.22887769674E+01  0.11056643830E+01  0.76479182384E+01  0.80592584718E+01  0.00000000000E+00 0.  1.
<mgrwt>
<rscale>  0 0.14991168E+04</rscale>
<asrwt>0</asrwt>
<pdfrwt beam="1">  1        2 0.21766599E+00 0.14991168E+04</pdfrwt>
<pdfrwt beam="2">  1       -1 0.61093312E-01 0.14991168E+04</pdfrwt>
<totfact> 0.42460943E+01</totfact>
</mgrwt>
</event>
<event>
12    6  0.1569942E-007  0.2483516E+04  0.7818608E-02  0.8408882E-01
         -1   -1    0    0    0  501 -0.00000000000E+00  0.00000000000E+00  0.54213405340E+03  0.54213405340E+03  0.00000000000E+00 0.  1.
          2   -1    0    0  501    0  0.00000000000E+00 -0.00000000000E+00 -0.28442458540E+04  0.28442458540E+04  0.00000000000E+00 0. -1.
         24    2    1    2    0    0 -0.34090795035E+03  0.69521654391E+03 -0.20300560286E+04  0.21741127123E+04  0.78066208621E+02 0.  0.
        254    2    1    2    0    0  0.34090795035E+03 -0.69521654391E+03 -0.27205577195E+03  0.12122671951E+04  0.89220689060E+03 0.  0.
         23    2    4    4    0    0  0.32212757988E+03 -0.13351532775E+03  0.25034728655E+03  0.43885333179E+03  0.91246712147E+02 0.  0.
         23    2    4    4    0    0  0.18780370464E+02 -0.56170121616E+03 -0.52240305850E+03  0.77341386327E+03  0.96969530326E+02 0.  0.
          4    1    3    3  502    0 -0.24139573994E+03  0.50128070942E+03 -0.15517675041E+04  0.16484952653E+04  0.00000000000E+00 0. -1.
         -3    1    3    3    0  502 -0.99512210408E+02  0.19393583449E+03 -0.47828852452E+03  0.52561744702E+03  0.00000000000E+00 0.  1.
         11    1    5    5    0    0  0.71293767364E+02 -0.48610899141E+02  0.10789344313E+03  0.13815504279E+03  0.00000000000E+00 0. -1.
        -11    1    5    5    0    0  0.25083381252E+03 -0.84904428610E+02  0.14245384343E+03  0.30069828900E+03  0.00000000000E+00 0.  1.
          3    1    6    6  503    0 -0.41951383841E+00 -0.13689890225E+02 -0.42736627024E+02  0.44877704661E+02  0.00000000000E+00 0. -1.
         -3    1    6    6    0  503  0.19199884303E+02 -0.54801132594E+03 -0.47966643148E+03  0.72853615861E+03  0.00000000000E+00 0.  1.
<mgrwt>
<rscale>  0 0.24835157E+04</rscale>
<asrwt>0</asrwt>
<pdfrwt beam="1">  1        2 0.43757629E+00 0.24835157E+04</pdfrwt>
<pdfrwt beam="2">  1       -1 0.83405238E-01 0.24835157E+04</pdfrwt>
<totfact> 0.31491503E+00</totfact>
</mgrwt>
</event>
<event>
12    6  0.1569942E-007  0.1603896E+04  0.7818608E-02  0.8818158E-01
          2   -1    0    0  501    0  0.00000000000E+00  0.00000000000E+00  0.13245692526E+04  0.13245692526E+04  0.00000000000E+00 0. -1.
         -1   -1    0    0    0  501 -0.00000000000E+00 -0.00000000000E+00 -0.48553189075E+03  0.48553189075E+03  0.00000000000E+00 0.  1.
         24    2    1    2    0    0  0.10314990215E+03 -0.48468304104E+03  0.18992826199E+02  0.50366525729E+03  0.88093197055E+02 0.  0.
        254    2    1    2    0    0 -0.10314990215E+03  0.48468304104E+03  0.82004453565E+03  0.13064358861E+04  0.88811267942E+03 0.  0.
         23    2    4    4    0    0 -0.49264927244E+02  0.31973265361E+03  0.99104145288E+03  0.10465218615E+04  0.91590624478E+02 0.  0.
         23    2    4    4    0    0 -0.53884974907E+02  0.16495038743E+03 -0.17099691723E+03  0.25991402453E+03  0.90571152206E+02 0.  0.
          2    1    3    3  502    0  0.46862678830E+02 -0.69141339936E+02 -0.47133639810E+01  0.83659137907E+02  0.00000000000E+00 0. -1.
         -1    1    3    3    0  502  0.56287223321E+02 -0.41554170111E+03  0.23706190180E+02  0.42000611939E+03  0.00000000000E+00 0.  1.
         11    1    5    5    0    0  0.12905782593E+02  0.16512363533E+03  0.41403792389E+03  0.44593696481E+03  0.00000000000E+00 0.  1.
        -11    1    5    5    0    0 -0.62170709837E+02  0.15460901828E+03  0.57700352899E+03  0.60058489671E+03  0.00000000000E+00 0. -1.
          3    1    6    6  503    0 -0.36115335616E+02  0.15628881924E+03 -0.10671681420E+03  0.19266289451E+03  0.00000000000E+00 0. -1.
         -3    1    6    6    0  503 -0.17769639291E+02  0.86615681884E+01 -0.64280103030E+02  0.67251130024E+02  0.00000000000E+00 0.  1.
<mgrwt>
<rscale>  0 0.16038960E+04</rscale>
<asrwt>0</asrwt>
<pdfrwt beam="1">  1        2 0.20377988E+00 0.16038960E+04</pdfrwt>
<pdfrwt beam="2">  1       -1 0.74697214E-01 0.16038960E+04</pdfrwt>
<totfact> 0.31519267E+01</totfact>
</mgrwt>
</event>
<event>
12    6  0.1569942E-007  0.1410296E+04  0.7818608E-02  0.8946400E-01
         -1   -1    0    0    0  501 -0.00000000000E+00  0.00000000000E+00  0.11169060328E+04  0.11169060328E+04  0.00000000000E+00 0.  1.
          2   -1    0    0  501    0  0.00000000000E+00 -0.00000000000E+00 -0.44518822085E+03  0.44518822085E+03  0.00000000000E+00 0. -1.
         24    2    1    2    0    0 -0.19558468665E+03 -0.29833555799E+03  0.42449047935E+03  0.56023271366E+03  0.80069042582E+02 0.  0.
        254    2    1    2    0    0  0.19558468665E+03  0.29833555799E+03  0.24722733256E+03  0.10018615399E+04  0.90296606605E+03 0.  0.
         23    2    4    4    0    0  0.51190186479E+03 -0.47204295143E+00  0.19002316529E+03  0.55377700292E+03  0.92284471146E+02 0.  0.
         23    2    4    4    0    0 -0.31631717814E+03  0.29880760094E+03  0.57204167270E+02  0.44808453702E+03  0.90359814072E+02 0.  0.
          2    1    3    3  502    0 -0.80653590893E+02 -0.95976607229E+02  0.97168200635E+02  0.15861327206E+03  0.00000000000E+00 0. -1.
         -1    1    3    3    0  502 -0.11493109575E+03 -0.20235895076E+03  0.32732227872E+03  0.40161944160E+03  0.00000000000E+00 0.  1.
         11    1    5    5    0    0  0.21211317377E+03 -0.35049960597E+02  0.48152279564E+02  0.22031600089E+03  0.00000000000E+00 0.  1.
        -11    1    5    5    0    0  0.29978869103E+03  0.34577917645E+02  0.14187088572E+03  0.33346100203E+03  0.00000000000E+00 0. -1.
          3    1    6    6  503    0 -0.89606382063E+02  0.97431960532E+02 -0.23162188875E+02  0.13438295142E+03  0.00000000000E+00 0. -1.
         -3    1    6    6    0  503 -0.22671079608E+03  0.20137564041E+03  0.80366356144E+02  0.31370158560E+03  0.00000000000E+00 0.  1.
<mgrwt>
<rscale>  0 0.14102956E+04</rscale>
<asrwt>0</asrwt>
<pdfrwt beam="1">  1        2 0.68490495E-01 0.14102956E+04</pdfrwt>
<pdfrwt beam="2">  1       -1 0.17183170E+00 0.14102956E+04</pdfrwt>
<totfact> 0.18684545E+01</totfact>
</mgrwt>
</event>
<event>
12    6  0.1569942E-007  0.1460048E+04  0.7818608E-02  0.8911464E-01
         -1   -1    0    0    0  501 -0.00000000000E+00  0.00000000000E+00  0.95070374526E+03  0.95070374526E+03  0.00000000000E+00 0.  1.
          2   -1    0    0  501    0  0.00000000000E+00 -0.00000000000E+00 -0.56056896067E+03  0.56056896067E+03  0.00000000000E+00 0. -1.
         24    2    1    2    0    0 -0.11004697167E+03 -0.40223290609E+03  0.25401221932E+03  0.49493807097E+03  0.80869276125E+02 0.  0.
        254    2    1    2    0    0  0.11004697167E+03  0.40223290609E+03  0.13612256527E+03  0.10163346350E+04  0.91679064716E+03 0.  0.
         23    2    4    4    0    0  0.17930711648E+03  0.67764809606E+03  0.70510095218E+02  0.71044968632E+03  0.91701140388E+02 0.  0.
         23    2    4    4    0    0 -0.69260144814E+02 -0.27541518997E+03  0.65612470056E+02  0.30588494864E+03  0.92790684054E+02 0.  0.
          4    1    3    3  502    0 -0.48224108438E+02 -0.11339731723E+03  0.11473589577E+03  0.16837114352E+03  0.00000000000E+00 0. -1.
         -3    1    3    3    0  502 -0.61822863232E+02 -0.28883558886E+03  0.13927632355E+03  0.32656692746E+03  0.00000000000E+00 0.  1.
         11    1    5    5    0    0  0.16766546201E+02  0.93989110314E+02  0.40879243368E+02  0.10385654754E+03  0.00000000000E+00 0. -1.
        -11    1    5    5    0    0  0.16254057028E+03  0.58365898575E+03  0.29630851850E+02  0.60659313878E+03  0.00000000000E+00 0.  1.
          2    1    6    6  503    0 -0.77467323538E+01 -0.12643833842E+03 -0.11528266650E+02  0.12719892380E+03  0.00000000000E+00 0. -1.
         -2    1    6    6    0  503 -0.61513412461E+02 -0.14897685156E+03  0.77140736707E+02  0.17868602484E+03  0.00000000000E+00 0.  1.
<mgrwt>
<rscale>  0 0.14600480E+04</rscale>
<asrwt>0</asrwt>
<pdfrwt beam="1">  1        2 0.86241379E-01 0.14600480E+04</pdfrwt>
<pdfrwt beam="2">  1       -1 0.14626211E+00 0.14600480E+04</pdfrwt>
<totfact> 0.22258052E+01</totfact>
</mgrwt>
</event>
<event>
12    6  0.1569942E-007  0.1324927E+04  0.7818608E-02  0.9010028E-01
         -1   -1    0    0    0  501 -0.00000000000E+00  0.00000000000E+00  0.17508336418E+03  0.17508336418E+03  0.00000000000E+00 0.  1.
          2   -1    0    0  501    0  0.00000000000E+00 -0.00000000000E+00 -0.25065650552E+04  0.25065650552E+04  0.00000000000E+00 0. -1.
         24    2    1    2    0    0  0.26993174683E+03  0.13644577430E+03 -0.10085965298E+04  0.10560405023E+04  0.80461078621E+02 0.  0.
        254    2    1    2    0    0 -0.26993174683E+03 -0.13644577430E+03 -0.13228851612E+04  0.16256079171E+04  0.89503930263E+03 0.  0.
         23    2    4    4    0    0 -0.35962775933E+03  0.30579870126E+02 -0.13619956199E+04  0.14118098765E+04  0.88925840407E+02 0.  0.
         23    2    4    4    0    0  0.89696012498E+02 -0.16702564442E+03  0.39110458680E+02  0.21379804062E+03  0.90758105109E+02 0.  0.
          2    1    3    3  502    0  0.26059270222E+03  0.11395189608E+03 -0.96569390240E+03  0.10067066624E+04  0.00000000000E+00 0. -1.
         -1    1    3    3    0  502  0.93390446093E+01  0.22493878216E+02 -0.42902627414E+02  0.49333839810E+02  0.00000000000E+00 0.  1.
         11    1    5    5    0    0 -0.35823358393E+02 -0.24162336707E+02 -0.14768581626E+03  0.15387732726E+03  0.00000000000E+00 0.  1.
        -11    1    5    5    0    0 -0.32380440094E+03  0.54742206833E+02 -0.12143098036E+04  0.12579325493E+04  0.00000000000E+00 0. -1.
          1    1    6    6  503    0  0.99296571704E+02 -0.16812343999E+03  0.25222878667E+02  0.19687938906E+03  0.00000000000E+00 0. -1.
         -1    1    6    6    0  503 -0.96005592063E+01  0.10977955696E+01  0.13887580013E+02  0.16918651566E+02  0.00000000000E+00 0.  1.
<mgrwt>
<rscale>  0 0.13249269E+04</rscale>
<asrwt>0</asrwt>
<pdfrwt beam="1">  1        2 0.38562533E+00 0.13249269E+04</pdfrwt>
<pdfrwt beam="2">  1       -1 0.26935907E-01 0.13249269E+04</pdfrwt>
<totfact> 0.47577074E+01</totfact>
</mgrwt>
</event>
<event>
12    6  0.1569942E-007  0.1169009E+04  0.7818608E-02  0.9140424E-01
          2   -1    0    0  501    0  0.00000000000E+00  0.00000000000E+00  0.11870401668E+04  0.11870401668E+04  0.00000000000E+00 0. -1.
         -1   -1    0    0    0  501 -0.00000000000E+00 -0.00000000000E+00 -0.28781310306E+03  0.28781310306E+03  0.00000000000E+00 0.  1.
         24    2    1    2    0    0 -0.14592545870E+03 -0.14271589315E+02 -0.35780208180E+02  0.17250269043E+03  0.83540631733E+02 0.  0.
        254    2    1    2    0    0  0.14592545870E+03  0.14271589315E+02  0.93500727191E+03  0.13023505794E+04  0.89463988029E+03 0.  0.
         23    2    4    4    0    0  0.31819588331E+02  0.31555292073E+03  0.90789680505E+03  0.96629295335E+03  0.94124019728E+02 0.  0.
         23    2    4    4    0    0  0.11410587037E+03 -0.30128133141E+03  0.27110466865E+02  0.33605762606E+03  0.91701473879E+02 0.  0.
          2    1    3    3  502    0 -0.39538578811E+01  0.77735811282E+01  0.17270928119E+02  0.19348036433E+02  0.00000000000E+00 0. -1.
         -1    1    3    3    0  502 -0.14197160082E+03 -0.22045170443E+02 -0.53051136299E+02  0.15315465400E+03  0.00000000000E+00 0.  1.
         11    1    5    5    0    0  0.35445658297E+02  0.31097471981E+03  0.81222505143E+03  0.87044310855E+03  0.00000000000E+00 0.  1.
        -11    1    5    5    0    0 -0.36260699657E+01  0.45782009173E+01  0.95671753618E+02  0.95849844796E+02  0.00000000000E+00 0. -1.
          1    1    6    6  503    0 -0.75774008776E+01 -0.20025520070E+02  0.20340768914E+02  0.29532784125E+02  0.00000000000E+00 0. -1.
         -1    1    6    6    0  503  0.12168327125E+03 -0.28125581134E+03  0.67696979502E+01  0.30652484194E+03  0.00000000000E+00 0.  1.
<mgrwt>
<rscale>  0 0.11690093E+04</rscale>
<asrwt>0</asrwt>
<pdfrwt beam="1">  1        2 0.18262156E+00 0.11690093E+04</pdfrwt>
<pdfrwt beam="2">  1       -1 0.44278940E-01 0.11690093E+04</pdfrwt>
<totfact> 0.10964232E+02</totfact>
</mgrwt>
</event>
<event>
12    6  0.1569942E-007  0.1426464E+04  0.7818608E-02  0.8934882E-01
          2   -1    0    0  501    0  0.00000000000E+00  0.00000000000E+00  0.87927855082E+03  0.87927855082E+03  0.00000000000E+00 0. -1.
         -1   -1    0    0    0  501 -0.00000000000E+00 -0.00000000000E+00 -0.57854251142E+03  0.57854251142E+03  0.00000000000E+00 0.  1.
         24    2    1    2    0    0  0.41556364171E+03  0.28355413395E+02  0.17843353467E+03  0.45956259864E+03  0.76564260561E+02 0.  0.
        254    2    1    2    0    0 -0.41556364171E+03 -0.28355413395E+02  0.12230250473E+03  0.99825846360E+03  0.89892429476E+03 0.  0.
         23    2    4    4    0    0 -0.47855390988E+03  0.66654528245E+02 -0.28278245882E+03  0.56739915347E+03  0.92299564209E+02 0.  0.
         23    2    4    4    0    0  0.62990268170E+02 -0.95009941640E+02  0.40508496355E+03  0.43085931013E+03  0.92472993554E+02 0.  0.
          4    1    3    3  502    0  0.20017452416E+03 -0.14422166828E+02  0.11351330662E+03  0.23057126837E+03  0.00000000000E+00 0. -1.
         -3    1    3    3    0  502  0.21538911755E+03  0.42777580223E+02  0.64920228049E+02  0.22899133027E+03  0.00000000000E+00 0.  1.
         11    1    5    5    0    0 -0.73794737514E+02  0.72880509007E+01 -0.85647402448E+02  0.11328837768E+03  0.00000000000E+00 0.  1.
        -11    1    5    5    0    0 -0.40475917236E+03  0.59366477344E+02 -0.19713505637E+03  0.45411077580E+03  0.00000000000E+00 0. -1.
          3    1    6    6  503    0 -0.60306080900E+01 -0.74405220931E+02  0.19799699701E+03  0.21160178629E+03  0.00000000000E+00 0. -1.
         -3    1    6    6    0  503  0.69020876260E+02 -0.20604720709E+02  0.20708796653E+03  0.21925752384E+03  0.00000000000E+00 0.  1.
<mgrwt>
<rscale>  0 0.14264642E+04</rscale>
<asrwt>0</asrwt>
<pdfrwt beam="1">  1        2 0.13527362E+00 0.14264642E+04</pdfrwt>
<pdfrwt beam="2">  1       -1 0.89006540E-01 0.14264642E+04</pdfrwt>
<totfact> 0.41591078E+01</totfact>
</mgrwt>
</event>
<event>
12    6  0.1569942E-007  0.1501304E+04  0.7818608E-02  0.8883586E-01
         -1   -1    0    0    0  501 -0.00000000000E+00  0.00000000000E+00  0.41537560609E+03  0.41537560609E+03  0.00000000000E+00 0.  1.
          2   -1    0    0  501    0  0.00000000000E+00 -0.00000000000E+00 -0.13565519069E+04  0.13565519069E+04  0.00000000000E+00 0. -1.
         24    2    1    2    0    0 -0.37753615595E+03 -0.64372966853E+02 -0.61603223071E+03  0.73004747896E+03  0.82438973471E+02 0.  0.
        254    2    1    2    0    0  0.37753615595E+03  0.64372966853E+02 -0.32514407014E+03  0.10418800341E+04  0.91275292995E+03 0.  0.
         23    2    4    4    0    0 -0.11921293082E+03  0.36941430126E+03 -0.15683568681E+03  0.42833602000E+03  0.90529909526E+02 0.  0.
         23    2    4    4    0    0  0.49674908677E+03 -0.30504133441E+03 -0.16830838333E+03  0.61354401407E+03  0.91097060307E+02 0.  0.
          2    1    3    3  502    0 -0.30457886743E+03 -0.52620641634E+02 -0.42737920858E+03  0.52743739566E+03  0.00000000000E+00 0. -1.
         -1    1    3    3    0  502 -0.72957288519E+02 -0.11752325219E+02 -0.18865302212E+03  0.20261008329E+03  0.00000000000E+00 0.  1.
         11    1    5    5    0    0 -0.26950142025E+02  0.44454003944E+02  0.77675234813E+01  0.52562372881E+02  0.00000000000E+00 0.  1.
        -11    1    5    5    0    0 -0.92262788794E+02  0.32496029732E+03 -0.16460321029E+03  0.37577364712E+03  0.00000000000E+00 0. -1.
          1    1    6    6  503    0  0.43301043101E+03 -0.25400026264E+03 -0.11199167001E+03  0.51435036787E+03  0.00000000000E+00 0. -1.
         -1    1    6    6    0  503  0.63738655762E+02 -0.51041071773E+02 -0.56316713323E+02  0.99193646196E+02  0.00000000000E+00 0.  1.
<mgrwt>
<rscale>  0 0.15013042E+04</rscale>
<asrwt>0</asrwt>
<pdfrwt beam="1">  1        2 0.20870029E+00 0.15013042E+04</pdfrwt>
<pdfrwt beam="2">  1       -1 0.63903939E-01 0.15013042E+04</pdfrwt>
<totfact> 0.41915054E+01</totfact>
</mgrwt>
</event>
<event>
12    6  0.1569942E-007  0.1940801E+04  0.7818608E-02  0.8634809E-01
          2   -1    0    0  501    0  0.00000000000E+00  0.00000000000E+00  0.16432632085E+04  0.16432632085E+04  0.00000000000E+00 0. -1.
         -1   -1    0    0    0  501 -0.00000000000E+00 -0.00000000000E+00 -0.57305316431E+03  0.57305316431E+03  0.00000000000E+00 0.  1.
         24    2    1    2    0    0  0.46780842837E+03  0.30033270746E+03  0.10040824397E+04  0.11530216238E+04  0.11060225362E+03 0.  0.
        254    2    1    2    0    0 -0.46780842837E+03 -0.30033270746E+03  0.66127604469E+02  0.10632947489E+04  0.90397920453E+03 0.  0.
         23    2    4    4    0    0 -0.39606496430E+03 -0.56462719449E+03  0.22759483066E+03  0.73191216339E+03  0.90690039492E+02 0.  0.
         23    2    4    4    0    0 -0.71743464068E+02  0.26429448704E+03 -0.16146722619E+03  0.33138258555E+03  0.93509637780E+02 0.  0.
          2    1    3    3  502    0  0.42702889058E+03  0.28411243254E+03  0.97071847331E+03  0.10978924820E+04  0.00000000000E+00 0. -1.
         -3    1    3    3    0  502  0.40779537792E+02  0.16220274920E+02  0.33363966372E+02  0.55129141777E+02  0.00000000000E+00 0.  1.
         11    1    5    5    0    0 -0.15413810650E+03 -0.16852315395E+03  0.10788339323E+03  0.25258154293E+03  0.00000000000E+00 0.  1.
        -11    1    5    5    0    0 -0.24192685780E+03 -0.39610404054E+03  0.11971143743E+03  0.47933062046E+03  0.00000000000E+00 0. -1.
          1    1    6    6  503    0 -0.74567939983E+02  0.17090275104E+03 -0.65992114595E+02  0.19779556915E+03  0.00000000000E+00 0. -1.
         -1    1    6    6    0  503  0.28244759147E+01  0.93391735995E+02 -0.95475111596E+02  0.13358701640E+03  0.00000000000E+00 0.  1.
<mgrwt>
<rscale>  0 0.19408011E+04</rscale>
<asrwt>0</asrwt>
<pdfrwt beam="1">  1        2 0.25280972E+00 0.19408011E+04</pdfrwt>
<pdfrwt beam="2">  1       -1 0.88162026E-01 0.19408011E+04</pdfrwt>
<totfact> 0.14178102E+01</totfact>
</mgrwt>
</event>
<event>
12    6  0.1569942E-007  0.2149519E+04  0.7818608E-02  0.8539738E-01
          2   -1    0    0  501    0  0.00000000000E+00  0.00000000000E+00  0.14093588218E+04  0.14093588218E+04  0.00000000000E+00 0. -1.
         -1   -1    0    0    0  501 -0.00000000000E+00 -0.00000000000E+00 -0.81959827112E+03  0.81959827112E+03  0.00000000000E+00 0.  1.
         24    2    1    2    0    0 -0.64423299502E+03 -0.23987660841E+03 -0.34044644808E+03  0.77146367613E+03  0.81703613427E+02 0.  0.
        254    2    1    2    0    0  0.64423299502E+03  0.23987660841E+03  0.93020699873E+03  0.14574934168E+04  0.88680610072E+03 0.  0.
         23    2    4    4    0    0  0.31714442544E+03 -0.31629657938E+03  0.27832714270E+03  0.53554037292E+03  0.93345487031E+02 0.  0.
         23    2    4    4    0    0  0.32708856957E+03  0.55617318779E+03  0.65187985603E+03  0.92195304383E+03  0.93458660248E+02 0.  0.
          4    1    3    3  502    0 -0.68320841179E+02 -0.54926640927E+01 -0.17141662694E+02  0.70652270298E+02  0.00000000000E+00 0. -1.
         -3    1    3    3    0  502 -0.57591215384E+03 -0.23438394431E+03 -0.32330478538E+03  0.70081140583E+03  0.00000000000E+00 0.  1.
         11    1    5    5    0    0  0.11777272093E+02 -0.33834722493E+02  0.14684676988E+01  0.35855947645E+02  0.00000000000E+00 0.  1.
        -11    1    5    5    0    0  0.30536715335E+03 -0.28246185689E+03  0.27685867500E+03  0.49968442528E+03  0.00000000000E+00 0. -1.
          1    1    6    6  503    0  0.30420533081E+03  0.44891486783E+03  0.54396829749E+03  0.76809306111E+03  0.00000000000E+00 0. -1.
         -1    1    6    6    0  503  0.22883238761E+02  0.10725831996E+03  0.10791155855E+03  0.15385998273E+03  0.00000000000E+00 0.  1.
<mgrwt>
<rscale>  0 0.21495191E+04</rscale>
<asrwt>0</asrwt>
<pdfrwt beam="1">  1        2 0.21682443E+00 0.21495191E+04</pdfrwt>
<pdfrwt beam="2">  1       -1 0.12609204E+00 0.21495191E+04</pdfrwt>
<totfact> 0.81864094E+00</totfact>
</mgrwt>
</event>
<event>
12    6  0.1569942E-007  0.2495661E+04  0.7818608E-02  0.8404533E-01
          2   -1    0    0  501    0  0.00000000000E+00  0.00000000000E+00  0.18333640433E+04  0.18333640433E+04  0.00000000000E+00 0. -1.
         -1   -1    0    0    0  501 -0.00000000000E+00 -0.00000000000E+00 -0.84930277915E+03  0.84930277915E+03  0.00000000000E+00 0.  1.
         24    2    1    2    0    0 -0.54816460484E+03 -0.34816720431E+03  0.13597034106E+04  0.15096105728E+04  0.91792594799E+02 0.  0.
        254    2    1    2    0    0  0.54816460484E+03  0.34816720431E+03 -0.37564214651E+03  0.11730562496E+04  0.90180325259E+03 0.  0.
         23    2    4    4    0    0 -0.12190656941E+03  0.38633476795E+02 -0.39937207554E+03  0.42896908433E+03  0.90347459274E+02 0.  0.
         23    2    4    4    0    0  0.67007117425E+03  0.30953372752E+03  0.23729929029E+02  0.74408716529E+03  0.91082890763E+02 0.  0.
          4    1    3    3  502    0 -0.53127449018E+03 -0.33698557322E+03  0.12655655053E+04  0.14133180494E+04  0.00000000000E+00 0. -1.
         -3    1    3    3    0  502 -0.16890114657E+02 -0.11181631091E+02  0.94137905346E+02  0.96292523437E+02  0.00000000000E+00 0.  1.
         11    1    5    5    0    0 -0.12578598155E+03  0.51142583995E+02 -0.30720128388E+03  0.33587245476E+03  0.00000000000E+00 0. -1.
        -11    1    5    5    0    0  0.38794121413E+01 -0.12509107200E+02 -0.92170791660E+02  0.93096629567E+02  0.00000000000E+00 0.  1.
          4    1    6    6  503    0  0.56996064374E+03  0.23066483767E+03  0.36835380401E+02  0.61596935638E+03  0.00000000000E+00 0. -1.
         -4    1    6    6    0  503  0.10011053051E+03  0.78868889848E+02 -0.13105451372E+02  0.12811780891E+03  0.00000000000E+00 0.  1.
<mgrwt>
<rscale>  0 0.24956612E+04</rscale>
<asrwt>0</asrwt>
<pdfrwt beam="1">  1        2 0.28205601E+00 0.24956612E+04</pdfrwt>
<pdfrwt beam="2">  1       -1 0.13066197E+00 0.24956612E+04</pdfrwt>
<totfact> 0.42039377E+00</totfact>
</mgrwt>
</event>
<event>
12    6  0.1569942E-007  0.1779669E+04  0.7818608E-02  0.8717187E-01
          2   -1    0    0  501    0  0.00000000000E+00  0.00000000000E+00  0.27080487399E+04  0.27080487399E+04  0.00000000000E+00 0. -1.
         -1   -1    0    0    0  501 -0.00000000000E+00 -0.00000000000E+00 -0.29238955162E+03  0.29238955162E+03  0.00000000000E+00 0.  1.
         24    2    1    2    0    0  0.62276012032E+03  0.20993512500E+03  0.90563807414E+03  0.11218349103E+04  0.80189278924E+02 0.  0.
        254    2    1    2    0    0 -0.62276012032E+03 -0.20993512500E+03  0.15100211141E+04  0.18786033812E+04  0.90392697416E+03 0.  0.
         23    2    4    4    0    0 -0.21719554492E+03 -0.40622948309E+03  0.23845323340E+03  0.52645563957E+03  0.89996101315E+02 0.  0.
         23    2    4    4    0    0 -0.40556457540E+03  0.19629435809E+03  0.12715678807E+04  0.13521477416E+04  0.91676278728E+02 0.  0.
          4    1    3    3  502    0  0.39837488939E+03  0.17231685174E+03  0.57315533866E+03  0.71895945096E+03  0.00000000000E+00 0. -1.
         -3    1    3    3    0  502  0.22438523093E+03  0.37618273265E+02  0.33248273547E+03  0.40287545933E+03  0.00000000000E+00 0.  1.
         11    1    5    5    0    0 -0.68191774150E+02 -0.11057969525E+03  0.11374130822E+03  0.17267041513E+03  0.00000000000E+00 0. -1.
        -11    1    5    5    0    0 -0.14900377077E+03 -0.29564978784E+03  0.12471192517E+03  0.35378522445E+03  0.00000000000E+00 0.  1.
          4    1    6    6  503    0 -0.25747340450E+03  0.76131305114E+02  0.77723067374E+03  0.82229924592E+03  0.00000000000E+00 0.  1.
         -4    1    6    6    0  503 -0.14809117090E+03  0.12016305298E+03  0.49433720696E+03  0.52984849569E+03  0.00000000000E+00 0. -1.
<mgrwt>
<rscale>  0 0.17796687E+04</rscale>
<asrwt>0</asrwt>
<pdfrwt beam="1">  1        2 0.41662287E+00 0.17796687E+04</pdfrwt>
<pdfrwt beam="2">  1       -1 0.44983010E-01 0.17796687E+04</pdfrwt>
<totfact> 0.13888490E+01</totfact>
</mgrwt>
</event>
<event>
12    6  0.1569942E-007  0.2174025E+04  0.7818608E-02  0.8529318E-01
         -1   -1    0    0    0  501 -0.00000000000E+00  0.00000000000E+00  0.69939860273E+03  0.69939860273E+03  0.00000000000E+00 0.  1.
          2   -1    0    0  501    0  0.00000000000E+00 -0.00000000000E+00 -0.16894455256E+04  0.16894455256E+04  0.00000000000E+00 0. -1.
         24    2    1    2    0    0 -0.48691306773E+03 -0.33150082284E+01  0.41474394501E+03  0.64465967729E+03  0.80487482262E+02 0.  0.
        254    2    1    2    0    0  0.48691306773E+03  0.33150082284E+01 -0.14047908679E+04  0.17441844510E+04  0.91194664972E+03 0.  0.
         23    2    4    4    0    0  0.23102659009E+03 -0.41316441596E+03 -0.97350880004E+03  0.10859916363E+04  0.87065093433E+02 0.  0.
         23    2    4    4    0    0  0.25588647764E+03  0.41647942419E+03 -0.43128206784E+03  0.65819281470E+03  0.90997577246E+02 0.  0.
          2    1    3    3  502    0 -0.83074105995E+02 -0.16942428971E+02  0.10825094824E+03  0.13750134829E+03  0.00000000000E+00 0. -1.
         -1    1    3    3    0  502 -0.40383896174E+03  0.13627420743E+02  0.30649299677E+03  0.50715832901E+03  0.00000000000E+00 0.  1.
         11    1    5    5    0    0  0.17810720934E+03 -0.24414435669E+03 -0.66039623597E+03  0.72625879231E+03  0.00000000000E+00 0.  1.
        -11    1    5    5    0    0  0.52919380747E+02 -0.16902005926E+03 -0.31311256407E+03  0.35973284403E+03  0.00000000000E+00 0. -1.
          1    1    6    6  503    0  0.25127754817E+03  0.41287927531E+03 -0.43580761794E+03  0.65079795793E+03  0.00000000000E+00 0. -1.
         -1    1    6    6    0  503  0.46089294732E+01  0.36001488823E+01  0.45255501011E+01  0.73948567654E+01  0.00000000000E+00 0.  1.
<mgrwt>
<rscale>  0 0.21740247E+04</rscale>
<asrwt>0</asrwt>
<pdfrwt beam="1">  1        2 0.25991469E+00 0.21740247E+04</pdfrwt>
<pdfrwt beam="2">  1       -1 0.10759979E+00 0.21740247E+04</pdfrwt>
<totfact> 0.83363950E+00</totfact>
</mgrwt>
</event>
<event>
12    6  0.1569942E-007  0.1247130E+04  0.7818608E-02  0.9072575E-01
          2   -1    0    0  501    0  0.00000000000E+00  0.00000000000E+00  0.83033877564E+03  0.83033877564E+03  0.00000000000E+00 0. -1.
         -1   -1    0    0    0  501 -0.00000000000E+00 -0.00000000000E+00 -0.46828286874E+03  0.46828286874E+03  0.00000000000E+00 0.  1.
         24    2    1    2    0    0 -0.20408492432E+02  0.16985225071E+03 -0.16439999260E+03  0.24959112945E+03  0.77473096613E+02 0.  0.
        254    2    1    2    0    0  0.20408492432E+02 -0.16985225071E+03  0.52645589949E+03  0.10490305149E+04  0.89109085592E+03 0.  0.
         23    2    4    4    0    0  0.15939420693E+03 -0.27382165026E+03  0.70792368112E+03  0.78163924586E+03  0.97052372628E+02 0.  0.
         23    2    4    4    0    0 -0.13898571450E+03  0.10396939955E+03 -0.18146778162E+03  0.26739126907E+03  0.91874208180E+02 0.  0.
          4    1    3    3  502    0 -0.22175848864E+02  0.79258885587E+01 -0.91738933113E+01  0.25273470296E+02  0.00000000000E+00 0. -1.
         -3    1    3    3    0  502  0.17673564319E+01  0.16192636215E+03 -0.15522609928E+03  0.22431765915E+03  0.00000000000E+00 0.  1.
         11    1    5    5    0    0  0.14215397107E+03 -0.27920063201E+03  0.66895055765E+03  0.73868504316E+03  0.00000000000E+00 0.  1.
        -11    1    5    5    0    0  0.17240235865E+02  0.53789817483E+01  0.38973123464E+02  0.42954202703E+02  0.00000000000E+00 0. -1.
          3    1    6    6  503    0  0.63059967113E+01  0.27909045550E+02 -0.10483864528E+02  0.30472804818E+02  0.00000000000E+00 0. -1.
         -3    1    6    6    0  503 -0.14529171121E+03  0.76060353998E+02 -0.17098391709E+03  0.23691846425E+03  0.00000000000E+00 0.  1.
<mgrwt>
<rscale>  0 0.12471302E+04</rscale>
<asrwt>0</asrwt>
<pdfrwt beam="1">  1        2 0.12774443E+00 0.12471302E+04</pdfrwt>
<pdfrwt beam="2">  1       -1 0.72043518E-01 0.12471302E+04</pdfrwt>
<totfact> 0.71554984E+01</totfact>
</mgrwt>
</event>
<event>
12    6  0.1569942E-007  0.1005066E+04  0.7818608E-02  0.9303006E-01
         -3   -1    0    0    0  501 -0.00000000000E+00  0.00000000000E+00  0.29366207664E+03  0.29366207664E+03  0.00000000000E+00 0.  1.
          2   -1    0    0  501    0  0.00000000000E+00 -0.00000000000E+00 -0.85996540327E+03  0.85996540327E+03  0.00000000000E+00 0. -1.
         24    2    1    2    0    0  0.43011671846E+02  0.11438608394E+03 -0.17153093620E+03  0.22422275424E+03  0.76933746370E+02 0.  0.
        254    2    1    2    0    0 -0.43011671846E+02 -0.11438608394E+03 -0.39477239043E+03  0.92940472568E+03  0.83247445832E+03 0.  0.
         23    2    4    4    0    0 -0.30914757437E+03  0.22090509444E+03 -0.10693644819E+03  0.40539658870E+03  0.92410533450E+02 0.  0.
         23    2    4    4    0    0  0.26613590252E+03 -0.33529117837E+03 -0.28783594224E+03  0.52400813698E+03  0.92122228948E+02 0.  0.
          4    1    3    3  502    0  0.43570920474E+02  0.11338920012E+03 -0.17918810296E+03  0.21648074293E+03  0.00000000000E+00 0. -1.
         -3    1    3    3    0  502 -0.55924862797E+00  0.99688381525E+00  0.76571667594E+01  0.77420113117E+01  0.00000000000E+00 0.  1.
         11    1    5    5    0    0 -0.28438230964E+03  0.22261938192E+03 -0.11544043158E+03  0.37915587887E+03  0.00000000000E+00 0. -1.
        -11    1    5    5    0    0 -0.24765264729E+02 -0.17142874843E+01  0.85039833882E+01  0.26240709825E+02  0.00000000000E+00 0.  1.
          4    1    6    6  503    0  0.23566533778E+03 -0.24595364065E+03 -0.19964260767E+03  0.39482719711E+03  0.00000000000E+00 0. -1.
         -4    1    6    6    0  503  0.30470564741E+02 -0.89337537721E+02 -0.88193334573E+02  0.12918093987E+03  0.00000000000E+00 0.  1.
<mgrwt>
<rscale>  0 0.10050656E+04</rscale>
<asrwt>0</asrwt>
<pdfrwt beam="1">  1        2 0.13230237E+00 0.10050656E+04</pdfrwt>
<pdfrwt beam="2">  1       -3 0.45178781E-01 0.10050656E+04</pdfrwt>
<totfact> 0.96769795E+01</totfact>
</mgrwt>
</event>
<event>
12    6  0.1569942E-007  0.1539115E+04  0.7818608E-02  0.8858851E-01
         -1   -1    0    0    0  501 -0.00000000000E+00  0.00000000000E+00  0.36692819345E+03  0.36692819345E+03  0.00000000000E+00 0.  1.
          2   -1    0    0  501    0  0.00000000000E+00 -0.00000000000E+00 -0.16139908542E+04  0.16139908542E+04  0.00000000000E+00 0. -1.
         24    2    1    2    0    0  0.33337528737E+03 -0.28915270652E+03 -0.77763819939E+03  0.89769591051E+03  0.79927521404E+02 0.  0.
        254    2    1    2    0    0 -0.33337528737E+03  0.28915270652E+03 -0.46942446137E+03  0.10832231372E+04  0.87078393992E+03 0.  0.
         23    2    4    4    0    0  0.67888001352E+02  0.93075184340E+02 -0.59476467009E+03  0.61272582623E+03  0.91739602555E+02 0.  0.
         23    2    4    4    0    0 -0.40126328872E+03  0.19607752218E+03  0.12534020873E+03  0.47049731092E+03  0.78733284460E+02 0.  0.
          4    1    3    3  502    0  0.16195168559E+03 -0.14123939306E+03 -0.29902676099E+03  0.36823079503E+03  0.00000000000E+00 0. -1.
         -3    1    3    3    0  502  0.17142360177E+03 -0.14791331347E+03 -0.47861143840E+03  0.52946511549E+03  0.00000000000E+00 0.  1.
         11    1    5    5    0    0  0.86046175730E+02  0.87716107695E+02 -0.55804708077E+03  0.57141456427E+03  0.00000000000E+00 0. -1.
        -11    1    5    5    0    0 -0.18158174378E+02  0.53590766449E+01 -0.36717589320E+02  0.41311261959E+02  0.00000000000E+00 0.  1.
          3    1    6    6  503    0 -0.27669959100E+03  0.17216623052E+03  0.77838577284E+02  0.33505629185E+03  0.00000000000E+00 0. -1.
         -3    1    6    6    0  503 -0.12456369772E+03  0.23911291657E+02  0.47501631442E+02  0.13544101907E+03  0.00000000000E+00 0.  1.
<mgrwt>
<rscale>  0 0.15391150E+04</rscale>
<asrwt>0</asrwt>
<pdfrwt beam="1">  1        2 0.24830629E+00 0.15391150E+04</pdfrwt>
<pdfrwt beam="2">  1       -1 0.56450491E-01 0.15391150E+04</pdfrwt>
<totfact> 0.38175620E+01</totfact>
</mgrwt>
</event>
<event>
12    6  0.1569942E-007  0.1497197E+04  0.7818608E-02  0.8886319E-01
          2   -1    0    0  501    0  0.00000000000E+00  0.00000000000E+00  0.64468488033E+03  0.64468488033E+03  0.00000000000E+00 0. -1.
         -1   -1    0    0    0  501 -0.00000000000E+00 -0.00000000000E+00 -0.86926096423E+03  0.86926096423E+03  0.00000000000E+00 0.  1.
         24    2    1    2    0    0  0.15244708855E+03 -0.19510410197E+03 -0.50899623201E+03  0.57153388661E+03  0.79171294847E+02 0.  0.
        254    2    1    2    0    0 -0.15244708855E+03  0.19510410197E+03  0.28442014811E+03  0.94241195795E+03  0.86367803748E+03 0.  0.
         23    2    4    4    0    0 -0.32409334709E+03 -0.20046491856E+03  0.31176242657E+03  0.50106273712E+03  0.92980507167E+02 0.  0.
         23    2    4    4    0    0  0.17164625854E+03  0.39556902052E+03 -0.27342278461E+02  0.44134922083E+03  0.90023588397E+02 0.  0.
          2    1    3    3  502    0  0.65094601686E+01 -0.54201613166E+02 -0.78257125510E+02  0.95416799541E+02  0.00000000000E+00 0. -1.
         -1    1    3    3    0  502  0.14593762838E+03 -0.14090248880E+03 -0.43073910650E+03  0.47611708707E+03  0.00000000000E+00 0.  1.
         11    1    5    5    0    0 -0.30438546051E+03 -0.15491644427E+03  0.28403378649E+03  0.44421256752E+03  0.00000000000E+00 0. -1.
        -11    1    5    5    0    0 -0.19707886574E+02 -0.45548474283E+02  0.27728640083E+02  0.56850169601E+02  0.00000000000E+00 0.  1.
          4    1    6    6  503    0  0.14324997605E+03  0.22516204993E+03 -0.29911122475E+01  0.26688471504E+03  0.00000000000E+00 0. -1.
         -4    1    6    6    0  503  0.28396282485E+02  0.17040697059E+03 -0.24351166214E+02  0.17446450579E+03  0.00000000000E+00 0.  1.
<mgrwt>
<rscale>  0 0.14971966E+04</rscale>
<asrwt>0</asrwt>
<pdfrwt beam="1">  1        2 0.99182289E-01 0.14971966E+04</pdfrwt>
<pdfrwt beam="2">  1       -1 0.13373246E+00 0.14971966E+04</pdfrwt>
<totfact> 0.23670450E+01</totfact>
</mgrwt>
</event>
<event>
12    6  0.1569942E-007  0.1958269E+04  0.7818608E-02  0.8626384E-01
         -1   -1    0    0    0  501 -0.00000000000E+00  0.00000000000E+00  0.34717059930E+03  0.34717059930E+03  0.00000000000E+00 0.  1.
          2   -1    0    0  501    0  0.00000000000E+00 -0.00000000000E+00 -0.27614790596E+04  0.27614790596E+04  0.00000000000E+00 0. -1.
         24    2    1    2    0    0 -0.53356199744E+03  0.31727165127E+03 -0.16825935112E+04  0.17951727749E+04  0.78579017378E+02 0.  0.
        254    2    1    2    0    0  0.53356199744E+03 -0.31727165127E+03 -0.73171494915E+03  0.13134768841E+04  0.89691975802E+03 0.  0.
         23    2    4    4    0    0 -0.14326206914E+03  0.92031435069E+02  0.48222481650E+02  0.19887989319E+03  0.90741383535E+02 0.  0.
         23    2    4    4    0    0  0.67682406658E+03 -0.40930308634E+03 -0.77993743080E+03  0.11145969909E+04  0.91674546613E+02 0.  0.
          2    1    3    3  502    0 -0.18628029271E+03  0.72541701513E+02 -0.58576405534E+03  0.61893632503E+03  0.00000000000E+00 0. -1.
         -1    1    3    3    0  502 -0.34728170474E+03  0.24472994976E+03 -0.10968294558E+04  0.11762364498E+04  0.00000000000E+00 0.  1.
         11    1    5    5    0    0 -0.50204851137E+02  0.20984781434E+02  0.60251165144E+02  0.81185534615E+02  0.00000000000E+00 0. -1.
        -11    1    5    5    0    0 -0.93057217998E+02  0.71046653635E+02 -0.12028683494E+02  0.11769435858E+03  0.00000000000E+00 0.  1.
          4    1    6    6  503    0  0.17678568085E+03 -0.86273127096E+02 -0.24551148536E+03  0.31459834528E+03  0.00000000000E+00 0. -1.
         -4    1    6    6    0  503  0.50003838573E+03 -0.32302995925E+03 -0.53442594544E+03  0.79999864559E+03  0.00000000000E+00 0.  1.
<mgrwt>
<rscale>  0 0.19582690E+04</rscale>
<asrwt>0</asrwt>
<pdfrwt beam="1">  1        2 0.42484295E+00 0.19582690E+04</pdfrwt>
<pdfrwt beam="2">  1       -1 0.53410859E-01 0.19582690E+04</pdfrwt>
<totfact> 0.91690359E+00</totfact>
</mgrwt>
</event>
<event>
12    6  0.1569942E-007  0.1314649E+04  0.7818608E-02  0.9018028E-01
          2   -1    0    0  501    0  0.00000000000E+00  0.00000000000E+00  0.15306134143E+04  0.15306134143E+04  0.00000000000E+00 0. -1.
         -1   -1    0    0    0  501 -0.00000000000E+00 -0.00000000000E+00 -0.28228917708E+03  0.28228917708E+03  0.00000000000E+00 0.  1.
         24    2    1    2    0    0 -0.18143791089E+03 -0.17242727026E+03  0.65571829937E+03  0.70628860206E+03  0.78906414423E+02 0.  0.
        254    2    1    2    0    0  0.18143791089E+03  0.17242727026E+03  0.59260593786E+03  0.11066139893E+04  0.90042314762E+03 0.  0.
         23    2    4    4    0    0 -0.34778924974E+03  0.42497604390E+02  0.12538887144E+03  0.38327839262E+03  0.91741749272E+02 0.  0.
         23    2    4    4    0    0  0.52922716063E+03  0.12992966587E+03  0.46721706643E+03  0.72333559672E+03  0.89215989015E+02 0.  0.
          2    1    3    3  502    0 -0.15809718065E+03 -0.17006156291E+03  0.63024544193E+03  0.67165837356E+03  0.00000000000E+00 0. -1.
         -1    1    3    3    0  502 -0.23340730243E+02 -0.23657073502E+01  0.25472857440E+02  0.34630228497E+02  0.00000000000E+00 0.  1.
         11    1    5    5    0    0  0.60193712501E+00 -0.92340221698E+01  0.73388406644E+01  0.11810507018E+02  0.00000000000E+00 0.  1.
        -11    1    5    5    0    0 -0.34839118686E+03  0.51731626559E+02  0.11805003077E+03  0.37146788561E+03  0.00000000000E+00 0. -1.
          2    1    6    6  503    0  0.22122068481E+03  0.34633451103E+02  0.24413716686E+03  0.33127182730E+03  0.00000000000E+00 0. -1.
         -2    1    6    6    0  503  0.30800647582E+03  0.95296214763E+02  0.22307989957E+03  0.39206376941E+03  0.00000000000E+00 0.  1.
<mgrwt>
<rscale>  0 0.13146492E+04</rscale>
<asrwt>0</asrwt>
<pdfrwt beam="1">  1        2 0.23547898E+00 0.13146492E+04</pdfrwt>
<pdfrwt beam="2">  1       -1 0.43429105E-01 0.13146492E+04</pdfrwt>
<totfact> 0.71203637E+01</totfact>
</mgrwt>
</event>
<event>
12    6  0.1569942E-007  0.2617919E+04  0.7818608E-02  0.8362140E-01
         -1   -1    0    0    0  501 -0.00000000000E+00  0.00000000000E+00  0.15392032058E+04  0.15392032058E+04  0.00000000000E+00 0.  1.
          2   -1    0    0  501    0  0.00000000000E+00 -0.00000000000E+00 -0.11131567592E+04  0.11131567592E+04  0.00000000000E+00 0. -1.
         24    2    1    2    0    0  0.28586271469E+03  0.52170958439E+03 -0.86859795228E+03  0.10558067303E+04  0.79793903566E+02 0.  0.
        254    2    1    2    0    0 -0.28586271469E+03 -0.52170958439E+03  0.12946443989E+04  0.15965532347E+04  0.72040247737E+03 0.  0.
         23    2    4    4    0    0 -0.12123178093E+03  0.95407469158E+02  0.36496048917E+02  0.18260474974E+03  0.90624517434E+02 0.  0.
         23    2    4    4    0    0 -0.16463093375E+03 -0.61711705355E+03  0.12581483500E+04  0.14139484849E+04  0.91521829693E+02 0.  0.
          2    1    3    3  502    0  0.28794341605E+03  0.50342321522E+03 -0.85403216422E+03  0.10323358378E+04  0.00000000000E+00 0. -1.
         -1    1    3    3    0  502 -0.20807013570E+01  0.18286369167E+02 -0.14565788061E+02  0.23470892554E+02  0.00000000000E+00 0.  1.
         11    1    5    5    0    0 -0.67014034861E+02  0.85658578678E+02  0.58253524589E+02  0.12337644061E+03  0.00000000000E+00 0.  1.
        -11    1    5    5    0    0 -0.54217746073E+02  0.97488904801E+01 -0.21757475672E+02  0.59228309131E+02  0.00000000000E+00 0. -1.
          4    1    6    6  503    0 -0.61458985066E+01 -0.47157209055E+02  0.15573564472E+03  0.16283477967E+03  0.00000000000E+00 0. -1.
         -4    1    6    6    0  503 -0.15848503525E+03 -0.56995984449E+03  0.11024127053E+04  0.12511137052E+04  0.00000000000E+00 0.  1.
<mgrwt>
<rscale>  0 0.26179186E+04</rscale>
<asrwt>0</asrwt>
<pdfrwt beam="1">  1        2 0.17125488E+00 0.26179186E+04</pdfrwt>
<pdfrwt beam="2">  1       -1 0.23680049E+00 0.26179186E+04</pdfrwt>
<totfact> 0.18318808E+00</totfact>
</mgrwt>
</event>
<event>
12    6  0.1569942E-007  0.2584792E+04  0.7818608E-02  0.8373385E-01
          2   -1    0    0  501    0  0.00000000000E+00  0.00000000000E+00  0.88208072540E+03  0.88208072540E+03  0.00000000000E+00 0. -1.
         -1   -1    0    0    0  501 -0.00000000000E+00 -0.00000000000E+00 -0.18935769204E+04  0.18935769204E+04  0.00000000000E+00 0.  1.
         24    2    1    2    0    0  0.41174043853E+03 -0.85034530207E+03 -0.11343466325E+04  0.14784904440E+04  0.81082606113E+02 0.  0.
        254    2    1    2    0    0 -0.41174043853E+03  0.85034530207E+03  0.12285043746E+03  0.12971672018E+04  0.88030290124E+03 0.  0.
         23    2    4    4    0    0 -0.45462888632E+03  0.68400738414E+02  0.19088115208E+03  0.50601864876E+03  0.90846977866E+02 0.  0.
         23    2    4    4    0    0  0.42888447788E+02  0.78194456366E+03 -0.68030714617E+02  0.79114855303E+03  0.89504945301E+02 0.  0.
          4    1    3    3  502    0  0.12033986493E+03 -0.17503220650E+03 -0.23775803266E+03  0.31882101327E+03  0.00000000000E+00 0. -1.
         -3    1    3    3    0  502  0.29140057360E+03 -0.67531309557E+03 -0.89658859983E+03  0.11596694308E+04  0.00000000000E+00 0.  1.
         11    1    5    5    0    0 -0.30736184691E+03  0.38415275407E+02  0.17267331994E+03  0.35463095428E+03  0.00000000000E+00 0. -1.
        -11    1    5    5    0    0 -0.14726703941E+03  0.29985463007E+02  0.18207832144E+02  0.15138769448E+03  0.00000000000E+00 0.  1.
          1    1    6    6  503    0  0.33953658423E+02  0.20795668566E+03  0.14406215415E+02  0.21120220897E+03  0.00000000000E+00 0. -1.
         -1    1    6    6    0  503  0.89347893649E+01  0.57398787800E+03 -0.82436930032E+02  0.57994634405E+03  0.00000000000E+00 0.  1.
<mgrwt>
<rscale>  0 0.25847922E+04</rscale>
<asrwt>0</asrwt>
<pdfrwt beam="1">  1        2 0.13570473E+00 0.25847922E+04</pdfrwt>
<pdfrwt beam="2">  1       -1 0.29131952E+00 0.25847922E+04</pdfrwt>
<totfact> 0.11449529E+00</totfact>
</mgrwt>
</event>
<event>
12    6  0.1569942E-007  0.2243329E+04  0.7818608E-02  0.8500607E-01
          2   -1    0    0  501    0  0.00000000000E+00  0.00000000000E+00  0.61712568435E+03  0.61712568435E+03  0.00000000000E+00 0. -1.
         -1   -1    0    0    0  501 -0.00000000000E+00 -0.00000000000E+00 -0.20386948422E+04  0.20386948422E+04  0.00000000000E+00 0.  1.
         24    2    1    2    0    0 -0.34778459517E+03 -0.19468593433E+03  0.40998990960E+03  0.57738702674E+03  0.80170537026E+02 0.  0.
        254    2    1    2    0    0  0.34778459517E+03  0.19468593433E+03 -0.18315590674E+04  0.20784334998E+04  0.89800916359E+03 0.  0.
         23    2    4    4    0    0  0.50535163307E+03 -0.12627846265E+03 -0.14677594435E+04  0.15599793870E+04  0.88833443737E+02 0.  0.
         23    2    4    4    0    0 -0.15756703790E+03  0.32096439698E+03 -0.36379962390E+03  0.51845411275E+03  0.92730712923E+02 0.  0.
          4    1    3    3  502    0 -0.12512720819E+03 -0.10436773963E+03  0.20253606881E+03  0.25994288310E+03  0.00000000000E+00 0. -1.
         -3    1    3    3    0  502 -0.22265738698E+03 -0.90318194699E+02  0.20745384079E+03  0.31744414364E+03  0.00000000000E+00 0.  1.
         11    1    5    5    0    0  0.25614559395E+03 -0.18295146067E+02 -0.70703212540E+03  0.75222317434E+03  0.00000000000E+00 0. -1.
        -11    1    5    5    0    0  0.24920603911E+03 -0.10798331658E+03 -0.76072731813E+03  0.80775621269E+03  0.00000000000E+00 0.  1.
          2    1    6    6  503    0  0.64107858331E+00  0.48029662633E+02 -0.84067185196E+02  0.96822265524E+02  0.00000000000E+00 0.  1.
         -2    1    6    6    0  503 -0.15820811648E+03  0.27293473435E+03 -0.27973243870E+03  0.42163184723E+03  0.00000000000E+00 0. -1.
<mgrwt>
<rscale>  0 0.22433287E+04</rscale>
<asrwt>0</asrwt>
<pdfrwt beam="1">  1        2 0.94942413E-01 0.22433287E+04</pdfrwt>
<pdfrwt beam="2">  1       -1 0.31364536E+00 0.22433287E+04</pdfrwt>
<totfact> 0.13421634E+00</totfact>
</mgrwt>
</event>
<event>
12    6  0.1569942E-007  0.1752893E+04  0.7818608E-02  0.8731759E-01
          2   -1    0    0  501    0  0.00000000000E+00  0.00000000000E+00  0.41960847877E+03  0.41960847877E+03  0.00000000000E+00 0. -1.
         -1   -1    0    0    0  501 -0.00000000000E+00 -0.00000000000E+00 -0.18306556767E+04  0.18306556767E+04  0.00000000000E+00 0.  1.
         24    2    1    2    0    0 -0.18040732951E+03 -0.58134500930E+03 -0.76468085724E+03  0.98072637927E+03  0.81108527200E+02 0.  0.
        254    2    1    2    0    0  0.18040732951E+03  0.58134500930E+03 -0.64636634065E+03  0.12695377762E+04  0.90742927790E+03 0.  0.
         23    2    4    4    0    0 -0.69973055463E+02  0.20262323795E+02 -0.63762261009E+03  0.64844895407E+03  0.92825981709E+02 0.  0.
         23    2    4    4    0    0  0.25038038497E+03  0.56108268551E+03 -0.87437305698E+01  0.62108882210E+03  0.90392228384E+02 0.  0.
          4    1    3    3  502    0 -0.50867001402E+02 -0.21351990746E+03 -0.21938035682E+03  0.31033198945E+03  0.00000000000E+00 0. -1.
         -3    1    3    3    0  502 -0.12954032811E+03 -0.36782510184E+03 -0.54530050042E+03  0.67039438983E+03  0.00000000000E+00 0.  1.
         11    1    5    5    0    0 -0.57182289122E+02  0.46479043284E+01 -0.15294329933E+03  0.16334953325E+03  0.00000000000E+00 0. -1.
        -11    1    5    5    0    0 -0.12790766341E+02  0.15614419467E+02 -0.48467931075E+03  0.48509942081E+03  0.00000000000E+00 0.  1.
          2    1    6    6  503    0  0.15580270306E+03  0.25253132981E+03 -0.26306550068E+02  0.29789023044E+03  0.00000000000E+00 0. -1.
         -2    1    6    6    0  503  0.94577681920E+02  0.30855135570E+03  0.17562819498E+02  0.32319859166E+03  0.00000000000E+00 0.  1.
<mgrwt>
<rscale>  0 0.17528932E+04</rscale>
<asrwt>0</asrwt>
<pdfrwt beam="1">  1        2 0.64555150E-01 0.17528932E+04</pdfrwt>
<pdfrwt beam="2">  1       -1 0.28163934E+00 0.17528932E+04</pdfrwt>
<totfact> 0.35473452E+00</totfact>
</mgrwt>
</event>
<event>
12    6  0.1569942E-007  0.1813186E+04  0.7818608E-02  0.8699319E-01
         -1   -1    0    0    0  501 -0.00000000000E+00  0.00000000000E+00  0.14923365109E+04  0.14923365109E+04  0.00000000000E+00 0.  1.
          2   -1    0    0  501    0  0.00000000000E+00 -0.00000000000E+00 -0.55075432362E+03  0.55075432362E+03  0.00000000000E+00 0. -1.
         24    2    1    2    0    0 -0.89324651136E+02 -0.66804316475E+03  0.22372558374E+03  0.71689412531E+03  0.98099372111E+02 0.  0.
        254    2    1    2    0    0  0.89324651136E+02  0.66804316475E+03  0.71785660354E+03  0.13261967092E+04  0.88838001161E+03 0.  0.
         23    2    4    4    0    0 -0.23227096645E+03  0.11947010511E+03 -0.90913128729E+02  0.29304503946E+03  0.96888029746E+02 0.  0.
         23    2    4    4    0    0  0.32159561758E+03  0.54857305964E+03  0.80876973227E+03  0.10331516698E+04  0.94539673543E+02 0.  0.
          4    1    3    3  502    0 -0.64583576735E+02 -0.53713957812E+03  0.13751535227E+03  0.55821182079E+03  0.00000000000E+00 0. -1.
         -3    1    3    3    0  502 -0.24741074401E+02 -0.13090358664E+03  0.86210231463E+02  0.15868230451E+03  0.00000000000E+00 0.  1.
         11    1    5    5    0    0 -0.15677387992E+03  0.46055008162E+02 -0.16773430487E+02  0.16425730173E+03  0.00000000000E+00 0.  1.
        -11    1    5    5    0    0 -0.75497086530E+02  0.73415096952E+02 -0.74139698241E+02  0.12878773773E+03  0.00000000000E+00 0. -1.
          2    1    6    6  503    0  0.29192973729E+03  0.46063156937E+03  0.73133465668E+03  0.91227999774E+03  0.00000000000E+00 0. -1.
         -2    1    6    6    0  503  0.29665880294E+02  0.87941490269E+02  0.77435075586E+02  0.12087167201E+03  0.00000000000E+00 0.  1.
<mgrwt>
<rscale>  0 0.18131859E+04</rscale>
<asrwt>0</asrwt>
<pdfrwt beam="1">  1        2 0.84731435E-01 0.18131859E+04</pdfrwt>
<pdfrwt beam="2">  1       -1 0.22959023E+00 0.18131859E+04</pdfrwt>
<totfact> 0.56243321E+00</totfact>
</mgrwt>
</event>
<event>
12    6  0.1569942E-007  0.1329569E+04  0.7818608E-02  0.9006439E-01
         -1   -1    0    0    0  501 -0.00000000000E+00  0.00000000000E+00  0.22849635690E+03  0.22849635690E+03  0.00000000000E+00 0.  1.
          2   -1    0    0  501    0  0.00000000000E+00 -0.00000000000E+00 -0.19341172168E+04  0.19341172168E+04  0.00000000000E+00 0. -1.
         24    2    1    2    0    0 -0.29106909190E+03 -0.17362466351E+03 -0.26315619888E+03  0.43674563051E+03  0.81417570115E+02 0.  0.
        254    2    1    2    0    0  0.29106909190E+03  0.17362466351E+03 -0.14424646610E+04  0.17258679432E+04  0.88490062661E+03 0.  0.
         23    2    4    4    0    0  0.24653893110E+03 -0.30436512372E+03 -0.36693986105E+03  0.54452207857E+03  0.91868707079E+02 0.  0.
         23    2    4    4    0    0  0.44530160800E+02  0.47798978724E+03 -0.10755248000E+04  0.11813458646E+04  0.91472862424E+02 0.  0.
          4    1    3    3  502    0 -0.58586232766E+02 -0.22977771904E+01 -0.31736228515E+02  0.66669443151E+02  0.00000000000E+00 0. -1.
         -3    1    3    3    0  502 -0.23248285913E+03 -0.17132688632E+03 -0.23141997036E+03  0.37007618736E+03  0.00000000000E+00 0.  1.
         11    1    5    5    0    0  0.13637230121E+03 -0.23225993310E+03 -0.26671841457E+03  0.37905249469E+03  0.00000000000E+00 0. -1.
        -11    1    5    5    0    0  0.11016662989E+03 -0.72105190623E+02 -0.10022144648E+03  0.16546958388E+03  0.00000000000E+00 0.  1.
          2    1    6    6  503    0  0.42300914029E+02  0.35993136456E+03 -0.70874015549E+03  0.79602296608E+03  0.00000000000E+00 0. -1.
         -2    1    6    6    0  503  0.22292467711E+01  0.11805842268E+03 -0.36678464450E+03  0.38532289855E+03  0.00000000000E+00 0.  1.
<mgrwt>
<rscale>  0 0.13295695E+04</rscale>
<asrwt>0</asrwt>
<pdfrwt beam="1">  1        2 0.29755648E+00 0.13295695E+04</pdfrwt>
<pdfrwt beam="2">  1       -1 0.35153287E-01 0.13295695E+04</pdfrwt>
<totfact> 0.62396729E+01</totfact>
</mgrwt>
</event>
<event>
12    6  0.1569942E-007  0.1892023E+04  0.7818608E-02  0.8658837E-01
         -1   -1    0    0    0  501 -0.00000000000E+00  0.00000000000E+00  0.88374607681E+03  0.88374607681E+03  0.00000000000E+00 0.  1.
          2   -1    0    0  501    0  0.00000000000E+00 -0.00000000000E+00 -0.10126640510E+04  0.10126640510E+04  0.00000000000E+00 0. -1.
         24    2    1    2    0    0 -0.36714641042E+03 -0.63749316074E+03  0.26028582171E+02  0.74068963269E+03  0.82156120900E+02 0.  0.
        254    2    1    2    0    0  0.36714641042E+03  0.63749316074E+03 -0.15494655633E+03  0.11557204951E+04  0.87777412287E+03 0.  0.
         23    2    4    4    0    0 -0.32248821712E+02 -0.62082588429E+02  0.22982284989E+03  0.25721410070E+03  0.91903846389E+02 0.  0.
         23    2    4    4    0    0  0.39939523213E+03  0.69957574917E+03 -0.38476940622E+03  0.89850639439E+03  0.10170282456E+03 0.  0.
          4    1    3    3  502    0 -0.10332836126E+01  0.26163391172E+01  0.27403553425E+00  0.28263051629E+01  0.00000000000E+00 0. -1.
         -3    1    3    3    0  502 -0.36611312680E+03 -0.64010949986E+03  0.25754546636E+02  0.73786332752E+03  0.00000000000E+00 0.  1.
         11    1    5    5    0    0 -0.60941746535E+02 -0.51254571092E+02  0.12686147529E+03  0.14978238028E+03  0.00000000000E+00 0. -1.
        -11    1    5    5    0    0  0.28692924823E+02 -0.10828017337E+02  0.10296137460E+03  0.10743172042E+03  0.00000000000E+00 0.  1.
          3    1    6    6  503    0  0.65881530686E+02  0.53688627540E+02 -0.43422981256E+02  0.95437938546E+02  0.00000000000E+00 0. -1.
         -3    1    6    6    0  503  0.33351370144E+03  0.64588712163E+03 -0.34134642496E+03  0.80306845585E+03  0.00000000000E+00 0.  1.
<mgrwt>
<rscale>  0 0.18920231E+04</rscale>
<asrwt>0</asrwt>
<pdfrwt beam="1">  1        2 0.15579447E+00 0.18920231E+04</pdfrwt>
<pdfrwt beam="2">  1       -1 0.13596094E+00 0.18920231E+04</pdfrwt>
<totfact> 0.11955452E+01</totfact>
</mgrwt>
</event>
<event>
12    6  0.1569942E-007  0.1754779E+04  0.7818608E-02  0.8730724E-01
          2   -1    0    0  501    0  0.00000000000E+00  0.00000000000E+00  0.15457271018E+04  0.15457271018E+04  0.00000000000E+00 0. -1.
         -1   -1    0    0    0  501 -0.00000000000E+00 -0.00000000000E+00 -0.49802602742E+03  0.49802602742E+03  0.00000000000E+00 0.  1.
         24    2    1    2    0    0  0.13259674691E+03  0.56417100926E+03  0.61849828875E+02  0.58841531526E+03  0.80847739104E+02 0.  0.
        254    2    1    2    0    0 -0.13259674691E+03 -0.56417100926E+03  0.98585124549E+03  0.14553378139E+04  0.90013035139E+03 0.  0.
         23    2    4    4    0    0 -0.25729796657E+03  0.14887755322E+03  0.15206629025E+03  0.34657656604E+03  0.92867594191E+02 0.  0.
         23    2    4    4    0    0  0.12470121966E+03 -0.71304856248E+03  0.83378495524E+03  0.11087612479E+04  0.10082413715E+03 0.  0.
          4    1    3    3  502    0  0.71538264928E+02  0.21591318602E+03  0.58379440598E+02  0.23482841891E+03  0.00000000000E+00 0. -1.
         -3    1    3    3    0  502  0.61058481980E+02  0.34825782324E+03  0.34703882765E+01  0.35358689634E+03  0.00000000000E+00 0.  1.
         11    1    5    5    0    0 -0.89282800106E+02  0.27815798754E+02  0.91454475616E+02  0.13080159848E+03  0.00000000000E+00 0.  1.
        -11    1    5    5    0    0 -0.16801516646E+03  0.12106175446E+03  0.60611814633E+02  0.21577496756E+03  0.00000000000E+00 0. -1.
          3    1    6    6  503    0  0.24489950891E+02 -0.31381548174E+03  0.42267325559E+03  0.52700341106E+03  0.00000000000E+00 0. -1.
         -3    1    6    6    0  503  0.10021126877E+03 -0.39923308074E+03  0.41111169965E+03  0.58175783685E+03  0.00000000000E+00 0.  1.
<mgrwt>
<rscale>  0 0.17547790E+04</rscale>
<asrwt>0</asrwt>
<pdfrwt beam="1">  1        2 0.23780417E+00 0.17547790E+04</pdfrwt>
<pdfrwt beam="2">  1       -1 0.76619389E-01 0.17547790E+04</pdfrwt>
<totfact> 0.22074234E+01</totfact>
</mgrwt>
</event>
<event>
12    6  0.1569942E-007  0.1593305E+04  0.7818608E-02  0.8824671E-01
          2   -1    0    0  501    0  0.00000000000E+00  0.00000000000E+00  0.29984158906E+04  0.29984158906E+04  0.00000000000E+00 0. -1.
         -1   -1    0    0    0  501 -0.00000000000E+00 -0.00000000000E+00 -0.21166362299E+03  0.21166362299E+03  0.00000000000E+00 0.  1.
         24    2    1    2    0    0 -0.28727244002E+01  0.24519342261E+03  0.19422942986E+04  0.19593604896E+04  0.80363665800E+02 0.  0.
        254    2    1    2    0    0  0.28727244002E+01 -0.24519342261E+03  0.84445796901E+03  0.12507190240E+04  0.88941595921E+03 0.  0.
         23    2    4    4    0    0  0.27782848362E+03 -0.98396943827E+02  0.87048253886E+03  0.92350714306E+03  0.90856854174E+02 0.  0.
         23    2    4    4    0    0 -0.27495575922E+03 -0.14679647878E+03 -0.26024569859E+02  0.32721188092E+03  0.96127316979E+02 0.  0.
          4    1    3    3  502    0 -0.26851715485E+02  0.21484969756E+03  0.17382488747E+04  0.17516822079E+04  0.00000000000E+00 0. -1.
         -3    1    3    3    0  502  0.23978991084E+02  0.30343725042E+02  0.20404542387E+03  0.20767828164E+03  0.00000000000E+00 0.  1.
         11    1    5    5    0    0  0.43530602571E+02 -0.24665211006E+02  0.68995384852E+02  0.85227044563E+02  0.00000000000E+00 0. -1.
        -11    1    5    5    0    0  0.23429788105E+03 -0.73731732822E+02  0.80148715401E+03  0.83828009850E+03  0.00000000000E+00 0.  1.
          2    1    6    6  503    0 -0.55097016877E+02 -0.78361792299E+02 -0.36188110805E+01  0.95861084673E+02  0.00000000000E+00 0.  1.
         -2    1    6    6    0  503 -0.21985874234E+03 -0.68434686480E+02 -0.22405758778E+02  0.23135079625E+03  0.00000000000E+00 0. -1.
<mgrwt>
<rscale>  0 0.15933055E+04</rscale>
<asrwt>0</asrwt>
<pdfrwt beam="1">  1        2 0.46129472E+00 0.15933055E+04</pdfrwt>
<pdfrwt beam="2">  1       -1 0.32563636E-01 0.15933055E+04</pdfrwt>
<totfact> 0.16931191E+01</totfact>
</mgrwt>
</event>
<event>
12    6  0.1569942E-007  0.1477062E+04  0.7818608E-02  0.8899851E-01
          2   -1    0    0  501    0  0.00000000000E+00  0.00000000000E+00  0.26124895041E+04  0.26124895041E+04  0.00000000000E+00 0. -1.
         -1   -1    0    0    0  501 -0.00000000000E+00 -0.00000000000E+00 -0.20877711697E+03  0.20877711697E+03  0.00000000000E+00 0.  1.
         24    2    1    2    0    0  0.13697829658E+02 -0.22499856378E+02 -0.11723338301E+03  0.14227873921E+03  0.76195140697E+02 0.  0.
        254    2    1    2    0    0 -0.13697829658E+02  0.22499856378E+02  0.25209457702E+04  0.26789878819E+04  0.90615375137E+03 0.  0.
         23    2    4    4    0    0  0.39783188924E+03 -0.88358689068E+02  0.16844893369E+04  0.17355565728E+04  0.92600330741E+02 0.  0.
         23    2    4    4    0    0 -0.41152971890E+03  0.11085854545E+03  0.83645643326E+03  0.94343130907E+03  0.93578542225E+02 0.  0.
          4    1    3    3  502    0  0.91094261881E+01 -0.45333509652E+02 -0.10752559767E+03  0.11704641343E+03  0.00000000000E+00 0. -1.
         -3    1    3    3    0  502  0.45884034696E+01  0.22833653274E+02 -0.97077853428E+01  0.25232325785E+02  0.00000000000E+00 0.  1.
         11    1    5    5    0    0  0.17653138543E+03 -0.62031388547E+02  0.93930645576E+03  0.95776189162E+03  0.00000000000E+00 0.  1.
        -11    1    5    5    0    0  0.22130050381E+03 -0.26327300521E+02  0.74518288115E+03  0.77779468120E+03  0.00000000000E+00 0. -1.
          3    1    6    6  503    0 -0.25199875188E+03  0.50363610227E+02  0.59150116338E+03  0.64491355271E+03  0.00000000000E+00 0. -1.
         -3    1    6    6    0  503 -0.15953096702E+03  0.60494935219E+02  0.24495526987E+03  0.29851775636E+03  0.00000000000E+00 0.  1.
<mgrwt>
<rscale>  0 0.14770620E+04</rscale>
<asrwt>0</asrwt>
<pdfrwt beam="1">  1        2 0.40192144E+00 0.14770620E+04</pdfrwt>
<pdfrwt beam="2">  1       -1 0.32119558E-01 0.14770620E+04</pdfrwt>
<totfact> 0.29946191E+01</totfact>
</mgrwt>
</event>
<event>
12    6  0.1569942E-007  0.1942744E+04  0.7818608E-02  0.8633868E-01
          2   -1    0    0  501    0  0.00000000000E+00  0.00000000000E+00  0.15488782848E+04  0.15488782848E+04  0.00000000000E+00 0. -1.
         -1   -1    0    0    0  501 -0.00000000000E+00 -0.00000000000E+00 -0.60919159432E+03  0.60919159432E+03  0.00000000000E+00 0.  1.
         24    2    1    2    0    0 -0.52044995648E+03 -0.36068403586E+03 -0.10295396775E+03  0.64649397489E+03  0.79961297939E+02 0.  0.
        254    2    1    2    0    0  0.52044995648E+03  0.36068403586E+03  0.10426406583E+04  0.15115759043E+04  0.89263712739E+03 0.  0.
         23    2    4    4    0    0  0.53098040173E+02  0.19702502874E+03 -0.11299991881E+03  0.25070829201E+03  0.91909750380E+02 0.  0.
         23    2    4    4    0    0  0.46735191631E+03  0.16365900712E+03  0.11556405771E+04  0.12608676123E+04  0.95288551083E+02 0.  0.
          4    1    3    3  502    0 -0.10661635793E+03 -0.76849902967E+02 -0.54724900510E+02  0.14236491879E+03  0.00000000000E+00 0. -1.
         -3    1    3    3    0  502 -0.41383359855E+03 -0.28383413289E+03 -0.48229067243E+02  0.50412905610E+03  0.00000000000E+00 0.  1.
         11    1    5    5    0    0  0.61901540167E+01  0.10224556580E+01  0.12008805739E+02  0.13548979209E+02  0.00000000000E+00 0. -1.
        -11    1    5    5    0    0  0.46907886156E+02  0.19600257308E+03 -0.12500872455E+03  0.23715931281E+03  0.00000000000E+00 0.  1.
          2    1    6    6  503    0  0.43455666092E+03  0.17639444370E+03  0.10687682745E+04  0.11671418577E+04  0.00000000000E+00 0.  1.
         -2    1    6    6    0  503  0.32795255385E+02 -0.12735436575E+02  0.86872302550E+02  0.93725754576E+02  0.00000000000E+00 0. -1.
<mgrwt>
<rscale>  0 0.19427441E+04</rscale>
<asrwt>0</asrwt>
<pdfrwt beam="1">  1        2 0.23828897E+00 0.19427441E+04</pdfrwt>
<pdfrwt beam="2">  1       -1 0.93721784E-01 0.19427441E+04</pdfrwt>
<totfact> 0.13983475E+01</totfact>
</mgrwt>
</event>
<event>
12    6  0.1569942E-007  0.1791874E+04  0.7818608E-02  0.8710633E-01
         -1   -1    0    0    0  501 -0.00000000000E+00  0.00000000000E+00  0.72027041250E+03  0.72027041250E+03  0.00000000000E+00 0.  1.
          2   -1    0    0  501    0  0.00000000000E+00 -0.00000000000E+00 -0.11144465329E+04  0.11144465329E+04  0.00000000000E+00 0. -1.
         24    2    1    2    0    0 -0.65482419888E+03 -0.61437283679E+02 -0.66210627855E+02  0.66592474224E+03  0.80638972062E+02 0.  0.
        254    2    1    2    0    0  0.65482419888E+03  0.61437283679E+02 -0.32796549256E+03  0.11687922032E+04  0.90881493090E+03 0.  0.
         23    2    4    4    0    0  0.12504715203E+03 -0.23152875790E+02 -0.55755966853E+03  0.57852174919E+03  0.87417300487E+02 0.  0.
         23    2    4    4    0    0  0.52977704685E+03  0.84590159469E+02  0.22959417597E+03  0.59027045398E+03  0.88806017596E+02 0.  0.
          4    1    3    3  502    0 -0.15758791308E+03 -0.46863989935E+02 -0.26430198903E+01  0.16442983141E+03  0.00000000000E+00 0. -1.
         -3    1    3    3    0  502 -0.49723628580E+03 -0.14573293743E+02 -0.63567607965E+02  0.50149491083E+03  0.00000000000E+00 0.  1.
         11    1    5    5    0    0  0.37042219571E+02  0.19552283792E+02 -0.72786791978E+02  0.83978181206E+02  0.00000000000E+00 0. -1.
        -11    1    5    5    0    0  0.88004932462E+02 -0.42705159582E+02 -0.48477287655E+03  0.49454356798E+03  0.00000000000E+00 0.  1.
          3    1    6    6  503    0  0.27235606043E+03  0.19040151213E+02  0.15678839310E+03  0.31483797614E+03  0.00000000000E+00 0. -1.
         -3    1    6    6    0  503  0.25742098642E+03  0.65550008256E+02  0.72805782875E+02  0.27543247784E+03  0.00000000000E+00 0.  1.
<mgrwt>
<rscale>  0 0.17918737E+04</rscale>
<asrwt>0</asrwt>
<pdfrwt beam="1">  1        2 0.17145331E+00 0.17918737E+04</pdfrwt>
<pdfrwt beam="2">  1       -1 0.11081083E+00 0.17918737E+04</pdfrwt>
<totfact> 0.17249754E+01</totfact>
</mgrwt>
</event>
<event>
12    6  0.1569942E-007  0.2093188E+04  0.7818608E-02  0.8564250E-01
          2   -1    0    0  501    0  0.00000000000E+00  0.00000000000E+00  0.24877598895E+04  0.24877598895E+04  0.00000000000E+00 0. -1.
         -1   -1    0    0    0  501 -0.00000000000E+00 -0.00000000000E+00 -0.44029921200E+03  0.44029921200E+03  0.00000000000E+00 0.  1.
         24    2    1    2    0    0  0.14196109589E+02 -0.46703960568E+03  0.17186120570E+04  0.17828610863E+04  0.81478387877E+02 0.  0.
        254    2    1    2    0    0 -0.14196109589E+02  0.46703960568E+03  0.32884862048E+03  0.11451980152E+04  0.99247647631E+03 0.  0.
         23    2    4    4    0    0 -0.88143217667E+02 -0.46093609880E+02  0.55586764883E+03  0.57207348396E+03  0.91571722347E+02 0.  0.
         23    2    4    4    0    0  0.73947108078E+02  0.51313321556E+03 -0.22701902835E+03  0.57312453125E+03  0.90333921568E+02 0.  0.
          2    1    3    3  502    0  0.46695955903E+02 -0.21699188543E+03  0.83018237905E+03  0.85934205828E+03  0.00000000000E+00 0. -1.
         -3    1    3    3    0  502 -0.32499846314E+02 -0.25004772025E+03  0.88842967793E+03  0.92351902798E+03  0.00000000000E+00 0.  1.
         11    1    5    5    0    0  0.14486974067E+02  0.96775475849E+01  0.98336277503E+02  0.99867666530E+02  0.00000000000E+00 0. -1.
        -11    1    5    5    0    0 -0.10263019173E+03 -0.55771157464E+02  0.45753137133E+03  0.47220581743E+03  0.00000000000E+00 0.  1.
          3    1    6    6  503    0  0.41636821463E+02  0.10957742745E+03 -0.82136407058E+02  0.14313359799E+03  0.00000000000E+00 0. -1.
         -3    1    6    6    0  503  0.32310286615E+02  0.40355578811E+03 -0.14488262129E+03  0.42999093326E+03  0.00000000000E+00 0.  1.
<mgrwt>
<rscale>  0 0.20931877E+04</rscale>
<asrwt>0</asrwt>
<pdfrwt beam="1">  1        2 0.38273228E+00 0.20931877E+04</pdfrwt>
<pdfrwt beam="2">  1       -1 0.67738342E-01 0.20931877E+04</pdfrwt>
<totfact> 0.81975700E+00</totfact>
</mgrwt>
</event>
<event>
12    6  0.1569942E-007  0.1695934E+04  0.7818608E-02  0.8763687E-01
          2   -1    0    0  501    0  0.00000000000E+00  0.00000000000E+00  0.10402286144E+04  0.10402286144E+04  0.00000000000E+00 0. -1.
         -1   -1    0    0    0  501 -0.00000000000E+00 -0.00000000000E+00 -0.69124003303E+03  0.69124003303E+03  0.00000000000E+00 0.  1.
         24    2    1    2    0    0 -0.33412894737E+03  0.83136573781E+02  0.63974827854E+03  0.73083125426E+03  0.79262973299E+02 0.  0.
        254    2    1    2    0    0  0.33412894737E+03 -0.83136573781E+02 -0.29075969718E+03  0.10006373932E+04  0.89340928342E+03 0.  0.
         23    2    4    4    0    0  0.44468576068E+03 -0.35801790491E+03 -0.31141408052E+01  0.57749774740E+03  0.87015541060E+02 0.  0.
         23    2    4    4    0    0 -0.11055681332E+03  0.27488133113E+03 -0.28764555638E+03  0.42313964575E+03  0.92328969085E+02 0.  0.
          4    1    3    3  502    0 -0.27497428717E+03  0.71647816371E+02  0.58053556056E+03  0.64634805273E+03  0.00000000000E+00 0. -1.
         -1    1    3    3    0  502 -0.59154660192E+02  0.11488757410E+02  0.59212717984E+02  0.84483201528E+02  0.00000000000E+00 0.  1.
         11    1    5    5    0    0  0.19407571231E+03 -0.21074372174E+03 -0.11094550732E+02  0.28670784331E+03  0.00000000000E+00 0.  1.
        -11    1    5    5    0    0  0.25061004837E+03 -0.14727418316E+03  0.79804099264E+01  0.29078990408E+03  0.00000000000E+00 0. -1.
          2    1    6    6  503    0  0.15702313859E+02  0.46211436840E+02 -0.38520939111E+02  0.62176541439E+02  0.00000000000E+00 0. -1.
         -2    1    6    6    0  503 -0.12625912718E+03  0.22866989429E+03 -0.24912461727E+03  0.36096310432E+03  0.00000000000E+00 0.  1.
<mgrwt>
<rscale>  0 0.16959336E+04</rscale>
<asrwt>0</asrwt>
<pdfrwt beam="1">  1        2 0.16003517E+00 0.16959336E+04</pdfrwt>
<pdfrwt beam="2">  1       -1 0.10634462E+00 0.16959336E+04</pdfrwt>
<totfact> 0.21309883E+01</totfact>
</mgrwt>
</event>
<event>
12    6  0.1569942E-007  0.1881299E+04  0.7818608E-02  0.8664222E-01
         -1   -1    0    0    0  501 -0.00000000000E+00  0.00000000000E+00  0.46510810787E+03  0.46510810787E+03  0.00000000000E+00 0.  1.
          2   -1    0    0  501    0  0.00000000000E+00 -0.00000000000E+00 -0.19023989047E+04  0.19023989047E+04  0.00000000000E+00 0. -1.
         24    2    1    2    0    0  0.45785362703E+02 -0.49810965109E+03 -0.12141963228E+04  0.13154896961E+04  0.77658909925E+02 0.  0.
        254    2    1    2    0    0 -0.45785362703E+02  0.49810965109E+03 -0.22309447403E+03  0.10520173165E+04  0.89819806605E+03 0.  0.
         23    2    4    4    0    0  0.87359206901E+02  0.55869111402E+03  0.19041619690E+03  0.60344517883E+03  0.90113061734E+02 0.  0.
         23    2    4    4    0    0 -0.13314456960E+03 -0.60581462927E+02 -0.41351067093E+03  0.44857213764E+03  0.93959020977E+02 0.  0.
          4    1    3    3  502    0  0.38806507113E+02 -0.44385044041E+03 -0.11342379874E+04  0.12186078001E+04  0.00000000000E+00 0. -1.
         -3    1    3    3    0  502  0.69788555904E+01 -0.54259210678E+02 -0.79958335410E+02  0.96881895989E+02  0.00000000000E+00 0.  1.
         11    1    5    5    0    0 -0.14813848117E+02  0.17044968773E+03  0.60969587785E+02  0.18163104574E+03  0.00000000000E+00 0.  1.
        -11    1    5    5    0    0  0.10217305502E+03  0.38824142629E+03  0.12944660912E+03  0.42181413309E+03  0.00000000000E+00 0. -1.
          2    1    6    6  503    0 -0.11012279563E+03 -0.13062363986E+01 -0.27062068913E+03  0.29217168541E+03  0.00000000000E+00 0. -1.
         -2    1    6    6    0  503 -0.23021773979E+02 -0.59275226528E+02 -0.14288998180E+03  0.15640045222E+03  0.00000000000E+00 0.  1.
<mgrwt>
<rscale>  0 0.18812987E+04</rscale>
<asrwt>0</asrwt>
<pdfrwt beam="1">  1        2 0.29267675E+00 0.18812987E+04</pdfrwt>
<pdfrwt beam="2">  1       -1 0.71555095E-01 0.18812987E+04</pdfrwt>
<totfact> 0.15943255E+01</totfact>
</mgrwt>
</event>
<event>
12    6  0.1569942E-007  0.1727765E+04  0.7818608E-02  0.8745685E-01
         -1   -1    0    0    0  501 -0.00000000000E+00  0.00000000000E+00  0.26526253948E+03  0.26526253948E+03  0.00000000000E+00 0.  1.
          2   -1    0    0  501    0  0.00000000000E+00 -0.00000000000E+00 -0.28134139760E+04  0.28134139760E+04  0.00000000000E+00 0. -1.
         24    2    1    2    0    0 -0.18372408203E+03 -0.54083559300E+03 -0.14056024135E+04  0.15193218427E+04  0.79768663691E+02 0.  0.
        254    2    1    2    0    0  0.18372408203E+03  0.54083559300E+03 -0.11425490230E+04  0.15593546729E+04  0.89437746436E+03 0.  0.
         23    2    4    4    0    0  0.22183006456E+03 -0.13956076879E+03 -0.70020456997E+02  0.28542443328E+03  0.88760672513E+02 0.  0.
         23    2    4    4    0    0 -0.38105982536E+02  0.68039636179E+03 -0.10725285660E+04  0.12739302396E+04  0.90495609345E+02 0.  0.
          2    1    3    3  502    0 -0.96754491431E+02 -0.29358782076E+03 -0.86401037195E+03  0.91764326562E+03  0.00000000000E+00 0. -1.
         -1    1    3    3    0  502 -0.86969590595E+02 -0.24724777225E+03 -0.54159204160E+03  0.60167857706E+03  0.00000000000E+00 0.  1.
         11    1    5    5    0    0  0.84666237714E+02 -0.79672415527E+02  0.82026022522E+01  0.11654762241E+03  0.00000000000E+00 0. -1.
        -11    1    5    5    0    0  0.13716382685E+03 -0.59888353262E+02 -0.78223059249E+02  0.16887681087E+03  0.00000000000E+00 0.  1.
          3    1    6    6  503    0 -0.33348462656E+02  0.16624395556E+03 -0.32610574998E+03  0.36755153773E+03  0.00000000000E+00 0.  1.
         -3    1    6    6    0  503 -0.47575198793E+01  0.51415240623E+03 -0.74642281605E+03  0.90637870184E+03  0.00000000000E+00 0. -1.
<mgrwt>
<rscale>  0 0.17277654E+04</rscale>
<asrwt>0</asrwt>
<pdfrwt beam="1">  1        2 0.43283293E+00 0.17277654E+04</pdfrwt>
<pdfrwt beam="2">  1       -1 0.40809620E-01 0.17277654E+04</pdfrwt>
<totfact> 0.14450713E+01</totfact>
</mgrwt>
</event>
<event>
12    6  0.1569942E-007  0.1183566E+04  0.7818608E-02  0.9127364E-01
          2   -1    0    0  501    0  0.00000000000E+00  0.00000000000E+00  0.89282630204E+03  0.89282630204E+03  0.00000000000E+00 0. -1.
         -1   -1    0    0    0  501 -0.00000000000E+00 -0.00000000000E+00 -0.39224580014E+03  0.39224580014E+03  0.00000000000E+00 0.  1.
         24    2    1    2    0    0 -0.70027539278E+02 -0.18854773261E+03 -0.52081729407E+02  0.22242740492E+03  0.79418764734E+02 0.  0.
        254    2    1    2    0    0  0.70027539278E+02  0.18854773261E+03  0.55266223130E+03  0.10626446973E+04  0.88505599087E+03 0.  0.
         23    2    4    4    0    0  0.37791406124E+03 -0.13786568539E+03  0.41307439130E+03  0.58399318146E+03  0.92690875227E+02 0.  0.
         23    2    4    4    0    0 -0.30788652197E+03  0.32641341800E+03  0.13958784000E+03  0.47865151580E+03  0.91009222856E+02 0.  0.
          2    1    3    3  502    0 -0.63515211257E+02 -0.18012068199E+03 -0.24122613610E+02  0.19250855209E+03  0.00000000000E+00 0. -1.
         -1    1    3    3    0  502 -0.65123280206E+01 -0.84270506212E+01 -0.27959115797E+02  0.29918852828E+02  0.00000000000E+00 0.  1.
         11    1    5    5    0    0  0.27349383498E+03 -0.14209054270E+03  0.30259218391E+03  0.43191507251E+03  0.00000000000E+00 0.  1.
        -11    1    5    5    0    0  0.10442022626E+03  0.42248573135E+01  0.11048220739E+03  0.15207810895E+03  0.00000000000E+00 0. -1.
          4    1    6    6  503    0 -0.25659076474E+03  0.21587874716E+03  0.11368562796E+03  0.35407185150E+03  0.00000000000E+00 0. -1.
         -4    1    6    6    0  503 -0.51295757226E+02  0.11053467084E+03  0.25902212045E+02  0.12457966430E+03  0.00000000000E+00 0.  1.
<mgrwt>
<rscale>  0 0.11835664E+04</rscale>
<asrwt>0</asrwt>
<pdfrwt beam="1">  1        2 0.13735789E+00 0.11835664E+04</pdfrwt>
<pdfrwt beam="2">  1       -1 0.60345508E-01 0.11835664E+04</pdfrwt>
<totfact> 0.93078756E+01</totfact>
</mgrwt>
</event>
<event>
12    6  0.1569942E-007  0.2154675E+04  0.7818608E-02  0.8537534E-01
         -1   -1    0    0    0  501 -0.00000000000E+00  0.00000000000E+00  0.77359565011E+03  0.77359565011E+03  0.00000000000E+00 0.  1.
          2   -1    0    0  501    0  0.00000000000E+00 -0.00000000000E+00 -0.15003394433E+04  0.15003394433E+04  0.00000000000E+00 0. -1.
         24    2    1    2    0    0 -0.40763138983E+02  0.46560246815E+03 -0.10943149140E+04  0.11923310029E+04  0.75371066116E+02 0.  0.
        254    2    1    2    0    0  0.40763138983E+02 -0.46560246815E+03  0.36757112080E+03  0.10816040905E+04  0.90349963363E+03 0.  0.
         23    2    4    4    0    0 -0.20867016867E+03 -0.29566114088E+03  0.58833937170E+03  0.69626961063E+03  0.87689251763E+02 0.  0.
         23    2    4    4    0    0  0.24943330765E+03 -0.16994132727E+03 -0.22076825091E+03  0.38533447990E+03  0.92989306437E+02 0.  0.
          4    1    3    3  502    0 -0.29003682683E+02  0.37707255842E+03 -0.95135727388E+03  0.10237702821E+04  0.00000000000E+00 0. -1.
         -3    1    3    3    0  502 -0.11759456300E+02  0.88529909733E+02 -0.14295764013E+03  0.16856072081E+03  0.00000000000E+00 0.  1.
         11    1    5    5    0    0 -0.88951634640E+02 -0.18652391562E+03  0.37774863972E+03  0.43057821498E+03  0.00000000000E+00 0. -1.
        -11    1    5    5    0    0 -0.11971853403E+03 -0.10913722526E+03  0.21059073198E+03  0.26569139565E+03  0.00000000000E+00 0.  1.
          2    1    6    6  503    0  0.25260788751E+03 -0.17076503074E+03 -0.22573814902E+03  0.37937995793E+03  0.00000000000E+00 0. -1.
         -2    1    6    6    0  503 -0.31745798628E+01  0.82370346590E+00  0.49698981089E+01  0.59545219723E+01  0.00000000000E+00 0.  1.
<mgrwt>
<rscale>  0 0.21546750E+04</rscale>
<asrwt>0</asrwt>
<pdfrwt beam="1">  1        2 0.23082145E+00 0.21546750E+04</pdfrwt>
<pdfrwt beam="2">  1       -1 0.11901472E+00 0.21546750E+04</pdfrwt>
<totfact> 0.83779641E+00</totfact>
</mgrwt>
</event>
<event>
12    6  0.2846039E-007  0.2420968E+04  0.7818608E-02  0.8431695E-01
          2   -1    0    0  501    0  0.00000000000E+00  0.00000000000E+00  0.14078619138E+04  0.14078619138E+04  0.00000000000E+00 0. -1.
         -1   -1    0    0    0  501 -0.00000000000E+00 -0.00000000000E+00 -0.10407779622E+04  0.10407779622E+04  0.00000000000E+00 0.  1.
         24    2    1    2    0    0 -0.58929596005E+03  0.57250153365E+03  0.80323207433E+03  0.11515990014E+04  0.77270695072E+02 0.  0.
        254    2    1    2    0    0  0.58929596005E+03 -0.57250153365E+03 -0.43614812274E+03  0.12970408746E+04  0.90391488030E+03 0.  0.
         23    2    4    4    0    0 -0.18883524642E+03  0.55225220451E+02 -0.53698755893E+02  0.22329319530E+03  0.90927000484E+02 0.  0.
         23    2    4    4    0    0  0.77813120646E+03 -0.62772675410E+03 -0.38244936685E+03  0.10737476793E+04  0.84483775407E+02 0.  0.
          2    1    3    3  502    0 -0.54711694077E+03  0.52801060140E+03  0.71191911528E+03  0.10416145970E+04  0.00000000000E+00 0. -1.
         -1    1    3    3    0  502 -0.42179019277E+02  0.44490932249E+02  0.91312959048E+02  0.10998440439E+03  0.00000000000E+00 0.  1.
         11    1    5    5    0    0 -0.19647303114E+01  0.87996696120E+01 -0.27533846104E+02  0.28972522013E+02  0.00000000000E+00 0.  1.
        -11    1    5    5    0    0 -0.18687051611E+03  0.46425550839E+02 -0.26164909788E+02  0.19432067328E+03  0.00000000000E+00 0. -1.
          3    1    6    6  503    0  0.69150232987E+03 -0.54939102574E+03 -0.36510780625E+03  0.95567237146E+03  0.00000000000E+00 0. -1.
         -3    1    6    6    0  503  0.86628876592E+02 -0.78335728366E+02 -0.17341560597E+02  0.11807530784E+03  0.00000000000E+00 0.  1.
<mgrwt>
<rscale>  0 0.24209681E+04</rscale>
<asrwt>0</asrwt>
<pdfrwt beam="1">  1        2 0.21659414E+00 0.24209681E+04</pdfrwt>
<pdfrwt beam="2">  1       -1 0.16011969E+00 0.24209681E+04</pdfrwt>
<totfact> 0.42716325E+00</totfact>
</mgrwt>
</event>
<event>
12    6  0.1569942E-007  0.4355126E+04  0.7818608E-02  0.7936503E-01
         -1   -1    0    0    0  501 -0.00000000000E+00  0.00000000000E+00  0.19071148299E+04  0.19071148299E+04  0.00000000000E+00 0.  1.
          2   -1    0    0  501    0  0.00000000000E+00 -0.00000000000E+00 -0.24863633826E+04  0.24863633826E+04  0.00000000000E+00 0. -1.
         24    2    1    2    0    0  0.19692159395E+04 -0.54854849501E+03  0.11877508084E+03  0.20492051458E+04  0.80108312286E+02 0.  0.
        254    2    1    2    0    0 -0.19692159395E+04  0.54854849501E+03 -0.69802363353E+03  0.23442730667E+04  0.91085802967E+03 0.  0.
         23    2    4    4    0    0 -0.79925720083E+03 -0.22171698560E+03 -0.29047623198E+03  0.88269642344E+03  0.82498726190E+02 0.  0.
         23    2    4    4    0    0 -0.11699587387E+04  0.77026548061E+03 -0.40754740155E+03  0.14615766432E+04  0.89437344611E+02 0.  0.
          4    1    3    3  502    0  0.47904937316E+02 -0.59329909955E+01  0.12758171067E+02  0.49928492170E+02  0.00000000000E+00 0. -1.
         -1    1    3    3    0  502  0.19213110022E+04 -0.54261550401E+03  0.10601690977E+03  0.19992766536E+04  0.00000000000E+00 0.  1.
         11    1    5    5    0    0 -0.73740239662E+02 -0.44808091426E+02 -0.39273914123E+02  0.94804157784E+02  0.00000000000E+00 0. -1.
        -11    1    5    5    0    0 -0.72551696117E+03 -0.17690889418E+03 -0.25120231786E+03  0.78789226566E+03  0.00000000000E+00 0.  1.
          1    1    6    6  503    0 -0.10707340882E+03  0.47282566947E+02 -0.18324208530E+02  0.11847418551E+03  0.00000000000E+00 0. -1.
         -1    1    6    6    0  503 -0.10628853299E+04  0.72298291366E+03 -0.38922319302E+03  0.13431024577E+04  0.00000000000E+00 0.  1.
<mgrwt>
<rscale>  0 0.43551259E+04</rscale>
<asrwt>0</asrwt>
<pdfrwt beam="1">  1        2 0.38251744E+00 0.43551259E+04</pdfrwt>
<pdfrwt beam="2">  1       -1 0.29340228E+00 0.43551259E+04</pdfrwt>
<totfact> 0.11260634E-01</totfact>
</mgrwt>
</event>
<event>
12    6  0.1569942E-007  0.1139215E+04  0.7818608E-02  0.9167791E-01
          2   -1    0    0  501    0  0.00000000000E+00  0.00000000000E+00  0.66843406479E+03  0.66843406479E+03  0.00000000000E+00 0. -1.
         -1   -1    0    0    0  501 -0.00000000000E+00 -0.00000000000E+00 -0.48539258795E+03  0.48539258795E+03  0.00000000000E+00 0.  1.
         24    2    1    2    0    0 -0.18686499194E+03  0.43243663373E+02  0.10631499708E+03  0.23240509638E+03  0.76946153792E+02 0.  0.
        254    2    1    2    0    0  0.18686499194E+03 -0.43243663373E+02  0.76726479759E+02  0.92142155636E+03  0.89796558519E+03 0.  0.
         23    2    4    4    0    0  0.49390015524E+03  0.11760559977E+03  0.18257918024E+03  0.54720750727E+03  0.91282301230E+02 0.  0.
         23    2    4    4    0    0 -0.30703516330E+03 -0.16084926315E+03 -0.10585270048E+03  0.37421404909E+03  0.93210961695E+02 0.  0.
          4    1    3    3  502    0 -0.15833965520E+01  0.56070750147E+01  0.26584691450E+02  0.27215661931E+02  0.00000000000E+00 0. -1.
         -3    1    3    3    0  502 -0.18528159539E+03  0.37636588359E+02  0.79730305635E+02  0.20518943445E+03  0.00000000000E+00 0.  1.
         11    1    5    5    0    0  0.37833375853E+03  0.61190316311E+02  0.10643751548E+03  0.39775574459E+03  0.00000000000E+00 0.  1.
        -11    1    5    5    0    0  0.11556639670E+03  0.56415283463E+02  0.76141664758E+02  0.14945176268E+03  0.00000000000E+00 0. -1.
          2    1    6    6  503    0 -0.11598978952E+03 -0.37115063422E+02  0.31961596028E+01  0.12182518066E+03  0.00000000000E+00 0. -1.
         -2    1    6    6    0  503 -0.19104537378E+03 -0.12373419973E+03 -0.10904886008E+03  0.25238886843E+03  0.00000000000E+00 0.  1.
<mgrwt>
<rscale>  0 0.11392154E+04</rscale>
<asrwt>0</asrwt>
<pdfrwt beam="1">  1        2 0.10283601E+00 0.11392154E+04</pdfrwt>
<pdfrwt beam="2">  1       -1 0.74675783E-01 0.11392154E+04</pdfrwt>
<totfact> 0.88690773E+01</totfact>
</mgrwt>
</event>
<event>
12    6  0.1569942E-007  0.1763489E+04  0.7818608E-02  0.8725960E-01
          2   -1    0    0  501    0  0.00000000000E+00  0.00000000000E+00  0.22703517133E+04  0.22703517133E+04  0.00000000000E+00 0. -1.
         -1   -1    0    0    0  501 -0.00000000000E+00 -0.00000000000E+00 -0.34244613986E+03  0.34244613986E+03  0.00000000000E+00 0.  1.
         24    2    1    2    0    0 -0.58223349116E+03  0.17158347736E+03  0.38671793291E+03  0.72407197102E+03  0.79326739889E+02 0.  0.
        254    2    1    2    0    0  0.58223349116E+03 -0.17158347736E+03  0.15411876406E+04  0.18887258822E+04  0.90751825693E+03 0.  0.
         23    2    4    4    0    0  0.46766273069E+03 -0.31714827834E+03  0.15785472824E+04  0.16793325897E+04  0.95157574841E+02 0.  0.
         23    2    4    4    0    0  0.11457076047E+03  0.14556480098E+03 -0.37359641794E+02  0.20939329248E+03  0.90190008660E+02 0.  0.
          2    1    3    3  502    0 -0.52035314811E+02  0.81240188485E+01  0.61457302321E+02  0.80936232173E+02  0.00000000000E+00 0. -1.
         -1    1    3    3    0  502 -0.53019817634E+03  0.16345945851E+03  0.32526063059E+03  0.64313573885E+03  0.00000000000E+00 0.  1.
         11    1    5    5    0    0  0.12364244115E+02  0.68005207881E+01  0.33854894808E+02  0.36677997737E+02  0.00000000000E+00 0.  1.
        -11    1    5    5    0    0  0.45529848657E+03 -0.32394879913E+03  0.15446923876E+04  0.16426545920E+04  0.00000000000E+00 0. -1.
          4    1    6    6  503    0  0.12903023010E+03  0.12871342391E+03 -0.24938858436E+02  0.18395078808E+03  0.00000000000E+00 0. -1.
         -4    1    6    6    0  503 -0.14459469630E+02  0.16851377071E+02 -0.12420783358E+02  0.25442504405E+02  0.00000000000E+00 0.  1.
<mgrwt>
<rscale>  0 0.17634888E+04</rscale>
<asrwt>0</asrwt>
<pdfrwt beam="1">  1        2 0.34928487E+00 0.17634888E+04</pdfrwt>
<pdfrwt beam="2">  1       -1 0.52684023E-01 0.17634888E+04</pdfrwt>
<totfact> 0.18459369E+01</totfact>
</mgrwt>
</event>
<event>
12    6  0.1569942E-007  0.2374686E+04  0.7818608E-02  0.8449042E-01
         -1   -1    0    0    0  501 -0.00000000000E+00  0.00000000000E+00  0.12787400027E+04  0.12787400027E+04  0.00000000000E+00 0.  1.
          2   -1    0    0  501    0  0.00000000000E+00 -0.00000000000E+00 -0.11024783548E+04  0.11024783548E+04  0.00000000000E+00 0. -1.
         24    2    1    2    0    0  0.54753073253E+03  0.67696595160E+03  0.60676262104E+03  0.10641975137E+04  0.79263278050E+02 0.  0.
        254    2    1    2    0    0 -0.54753073253E+03 -0.67696595160E+03 -0.43050097307E+03  0.13170208438E+04  0.88946051767E+03 0.  0.
         23    2    4    4    0    0 -0.50990077175E+03 -0.87747273880E+03 -0.32833144769E+03  0.10712585722E+04  0.99177540935E+02 0.  0.
         23    2    4    4    0    0 -0.37629960774E+02  0.20050678719E+03 -0.10216952538E+03  0.24576227159E+03  0.91331793802E+02 0.  0.
          2    1    3    3  502    0  0.16085556639E+03  0.22671555812E+03  0.15462518491E+03  0.31809339091E+03  0.00000000000E+00 0. -1.
         -1    1    3    3    0  502  0.38667516614E+03  0.45025039348E+03  0.45213743613E+03  0.74610412282E+03  0.00000000000E+00 0.  1.
         11    1    5    5    0    0 -0.50621212606E+03 -0.87882277477E+03 -0.33061188338E+03  0.10667166463E+04  0.00000000000E+00 0. -1.
        -11    1    5    5    0    0 -0.36886456916E+01  0.13500359726E+01  0.22804356938E+01  0.45419259262E+01  0.00000000000E+00 0.  1.
          1    1    6    6  503    0 -0.62910236154E+02  0.15764207554E+03 -0.58427060293E+02  0.17950610900E+03  0.00000000000E+00 0. -1.
         -1    1    6    6    0  503  0.25280275380E+02  0.42864711653E+02 -0.43742465090E+02  0.66256162585E+02  0.00000000000E+00 0.  1.
<mgrwt>
<rscale>  0 0.23746858E+04</rscale>
<asrwt>0</asrwt>
<pdfrwt beam="1">  1        2 0.16961205E+00 0.23746858E+04</pdfrwt>
<pdfrwt beam="2">  1       -1 0.19672923E+00 0.23746858E+04</pdfrwt>
<totfact> 0.35361949E+00</totfact>
</mgrwt>
</event>
<event>
12    6  0.1569942E-007  0.2038919E+04  0.7818608E-02  0.8588638E-01
          2   -1    0    0  501    0  0.00000000000E+00  0.00000000000E+00  0.11390582675E+04  0.11390582675E+04  0.00000000000E+00 0. -1.
         -1   -1    0    0    0  501 -0.00000000000E+00 -0.00000000000E+00 -0.91241862949E+03  0.91241862949E+03  0.00000000000E+00 0.  1.
         24    2    1    2    0    0  0.81331214803E+03  0.47304039070E+02  0.94352170057E+02  0.82391559397E+03  0.78868572701E+02 0.  0.
        254    2    1    2    0    0 -0.81331214803E+03 -0.47304039070E+02  0.13228746797E+03  0.12275613030E+04  0.90867621091E+03 0.  0.
         23    2    4    4    0    0 -0.29892171758E+03  0.38504518702E+03  0.22166527838E+03  0.54340481933E+03  0.92408401910E+02 0.  0.
         23    2    4    4    0    0 -0.51439043044E+03 -0.43234922609E+03 -0.89377810418E+02  0.68415648370E+03  0.92511258587E+02 0.  0.
          4    1    3    3  502    0  0.77940385164E+03  0.57664285308E+02  0.10036992775E+03  0.78795282609E+03  0.00000000000E+00 0. -1.
         -3    1    3    3    0  502  0.33908296386E+02 -0.10360246238E+02 -0.60177576978E+01  0.35962767880E+02  0.00000000000E+00 0.  1.
         11    1    5    5    0    0 -0.20531323922E+03  0.19807939103E+03  0.10519630852E+03  0.30406452387E+03  0.00000000000E+00 0. -1.
        -11    1    5    5    0    0 -0.93608478364E+02  0.18696579599E+03  0.11646896986E+03  0.23934029546E+03  0.00000000000E+00 0.  1.
          1    1    6    6  503    0 -0.27045827560E+03 -0.28587472294E+03 -0.43177395044E+02  0.39589938557E+03  0.00000000000E+00 0. -1.
         -1    1    6    6    0  503 -0.24393215485E+03 -0.14647450315E+03 -0.46200415374E+02  0.28825709813E+03  0.00000000000E+00 0.  1.
<mgrwt>
<rscale>  0 0.20389193E+04</rscale>
<asrwt>0</asrwt>
<pdfrwt beam="1">  1        2 0.17523973E+00 0.20389193E+04</pdfrwt>
<pdfrwt beam="2">  1       -1 0.14037210E+00 0.20389193E+04</pdfrwt>
<totfact> 0.90634044E+00</totfact>
</mgrwt>
</event>
<event>
12    6  0.1569942E-007  0.1423574E+04  0.7818608E-02  0.8936929E-01
         -1   -1    0    0    0  501 -0.00000000000E+00  0.00000000000E+00  0.48818498780E+03  0.48818498780E+03  0.00000000000E+00 0.  1.
          2   -1    0    0  501    0  0.00000000000E+00 -0.00000000000E+00 -0.10378049104E+04  0.10378049104E+04  0.00000000000E+00 0. -1.
         24    2    1    2    0    0 -0.28417258602E+03 -0.21831889935E+03 -0.46701322812E+03  0.59365093077E+03  0.76830149671E+02 0.  0.
        254    2    1    2    0    0  0.28417258602E+03  0.21831889935E+03 -0.82606694456E+02  0.93233896741E+03  0.85674668586E+03 0.  0.
         23    2    4    4    0    0  0.30363298830E+03  0.33308914316E+03 -0.38198760635E+03  0.59744751760E+03  0.88812364051E+02 0.  0.
         23    2    4    4    0    0 -0.19460402277E+02 -0.11477024381E+03  0.29938091190E+03  0.33489144981E+03  0.94722946678E+02 0.  0.
          2    1    3    3  502    0 -0.26253657870E+03 -0.22268021099E+03 -0.44299642910E+03  0.56103276885E+03  0.00000000000E+00 0. -1.
         -1    1    3    3    0  502 -0.21636007324E+02  0.43613116326E+01 -0.24016799016E+02  0.32618161920E+02  0.00000000000E+00 0.  1.
         11    1    5    5    0    0  0.19282944418E+03  0.15732533330E+03 -0.24041129404E+03  0.34602318614E+03  0.00000000000E+00 0.  1.
        -11    1    5    5    0    0  0.11080354412E+03  0.17576380986E+03 -0.14157631231E+03  0.25142433146E+03  0.00000000000E+00 0. -1.
          3    1    6    6  503    0 -0.44432148051E+02 -0.48028885531E+02  0.75312325558E+02  0.99764402503E+02  0.00000000000E+00 0. -1.
         -3    1    6    6    0  503  0.24971745774E+02 -0.66741358276E+02  0.22406858634E+03  0.23512704731E+03  0.00000000000E+00 0.  1.
<mgrwt>
<rscale>  0 0.14235741E+04</rscale>
<asrwt>0</asrwt>
<pdfrwt beam="1">  1        2 0.15966229E+00 0.14235741E+04</pdfrwt>
<pdfrwt beam="2">  1       -1 0.75105384E-01 0.14235741E+04</pdfrwt>
<totfact> 0.47089742E+01</totfact>
</mgrwt>
</event>
<event>
12    6  0.1569942E-007  0.1965903E+04  0.7818608E-02  0.8622730E-01
          2   -1    0    0  501    0  0.00000000000E+00  0.00000000000E+00  0.69567159996E+03  0.69567159996E+03  0.00000000000E+00 0. -1.
         -1   -1    0    0    0  501 -0.00000000000E+00 -0.00000000000E+00 -0.13888649671E+04  0.13888649671E+04  0.00000000000E+00 0.  1.
         24    2    1    2    0    0  0.75014425347E+03 -0.84614607923E+02 -0.45254842898E+03  0.88388601240E+03  0.81107147998E+02 0.  0.
        254    2    1    2    0    0 -0.75014425347E+03  0.84614607923E+02 -0.24064493814E+03  0.12006505547E+04  0.90209519190E+03 0.  0.
         23    2    4    4    0    0 -0.17933896383E+03 -0.35745425036E+03 -0.23641252377E+03  0.47333194018E+03  0.90643472721E+02 0.  0.
         23    2    4    4    0    0 -0.57080528964E+03  0.44206885828E+03 -0.42324143750E+01  0.72731861448E+03  0.87925533789E+02 0.  0.
          4    1    3    3  502    0  0.66125830235E+02 -0.21703944893E+02 -0.21110687658E+02  0.72727902360E+02  0.00000000000E+00 0. -1.
         -3    1    3    3    0  502  0.68401842323E+03 -0.62910663030E+02 -0.43143774133E+03  0.81115811004E+03  0.00000000000E+00 0.  1.
         11    1    5    5    0    0 -0.17372771485E+03 -0.26871568973E+03 -0.19934903341E+03  0.37700063386E+03  0.00000000000E+00 0. -1.
        -11    1    5    5    0    0 -0.56112489860E+01 -0.88738560635E+02 -0.37063490359E+02  0.96331306315E+02  0.00000000000E+00 0.  1.
          3    1    6    6  503    0 -0.33321885479E+03  0.30353165411E+03 -0.25575272791E+02  0.45146468833E+03  0.00000000000E+00 0. -1.
         -3    1    6    6    0  503 -0.23758643485E+03  0.13853720418E+03  0.21342858416E+02  0.27585392614E+03  0.00000000000E+00 0.  1.
<mgrwt>
<rscale>  0 0.19659033E+04</rscale>
<asrwt>0</asrwt>
<pdfrwt beam="1">  1        2 0.10702640E+00 0.19659033E+04</pdfrwt>
<pdfrwt beam="2">  1       -1 0.21367153E+00 0.19659033E+04</pdfrwt>
<totfact> 0.53312328E+00</totfact>
</mgrwt>
</event>
<event>
12    6  0.1569942E-007  0.2110197E+04  0.7818608E-02  0.8556765E-01
         -1   -1    0    0    0  501 -0.00000000000E+00  0.00000000000E+00  0.48702641795E+03  0.48702641795E+03  0.00000000000E+00 0.  1.
          2   -1    0    0  501    0  0.00000000000E+00 -0.00000000000E+00 -0.22857754618E+04  0.22857754618E+04  0.00000000000E+00 0. -1.
         24    2    1    2    0    0 -0.67892190786E+03 -0.51396702726E+02 -0.14317581278E+04  0.15874011165E+04  0.79588880989E+02 0.  0.
        254    2    1    2    0    0  0.67892190786E+03  0.51396702726E+02 -0.36699091598E+03  0.11854007632E+04  0.89828506557E+03 0.  0.
         23    2    4    4    0    0  0.35429644686E+03 -0.23224287494E+03  0.19169073977E+03  0.47378918307E+03  0.90929231048E+02 0.  0.
         23    2    4    4    0    0  0.32462546100E+03  0.28363957766E+03 -0.55868165575E+03  0.71161158016E+03  0.91829998400E+02 0.  0.
          2    1    3    3  502    0 -0.67040837259E+03 -0.56451005632E+02 -0.14236077201E+04  0.15745770997E+04  0.00000000000E+00 0. -1.
         -1    1    3    3    0  502 -0.85135352736E+01  0.50543029055E+01 -0.81504076778E+01  0.12824016767E+02  0.00000000000E+00 0.  1.
         11    1    5    5    0    0  0.29813357499E+03 -0.15028953142E+03  0.14451138635E+03  0.36380504748E+03  0.00000000000E+00 0. -1.
        -11    1    5    5    0    0  0.56162871875E+02 -0.81953343518E+02  0.47179353417E+02  0.10998413558E+03  0.00000000000E+00 0.  1.
          1    1    6    6  503    0  0.24139220592E+03  0.25876745684E+03 -0.44704166880E+03  0.57015528362E+03  0.00000000000E+00 0. -1.
         -1    1    6    6    0  503  0.83233255081E+02  0.24872120825E+02 -0.11163998695E+03  0.14145629654E+03  0.00000000000E+00 0.  1.
<mgrwt>
<rscale>  0 0.21101972E+04</rscale>
<asrwt>0</asrwt>
<pdfrwt beam="1">  1        2 0.35165776E+00 0.21101972E+04</pdfrwt>
<pdfrwt beam="2">  1       -1 0.74927142E-01 0.21101972E+04</pdfrwt>
<totfact> 0.86721873E+00</totfact>
</mgrwt>
</event>
<event>
12    6  0.1569942E-007  0.1869465E+04  0.7818608E-02  0.8670207E-01
         -1   -1    0    0    0  501 -0.00000000000E+00  0.00000000000E+00  0.50773749975E+03  0.50773749975E+03  0.00000000000E+00 0.  1.
          2   -1    0    0  501    0  0.00000000000E+00 -0.00000000000E+00 -0.17208204365E+04  0.17208204365E+04  0.00000000000E+00 0. -1.
         24    2    1    2    0    0 -0.25861577939E+02 -0.28721775239E+02 -0.13228025023E+04  0.13253702615E+04  0.72843039373E+02 0.  0.
        254    2    1    2    0    0  0.25861577939E+02  0.28721775239E+02  0.10971956551E+03  0.90318767479E+03  0.89566502179E+03 0.  0.
         23    2    4    4    0    0  0.36894234982E+03  0.43322634159E+02  0.31270325990E+03  0.49401988830E+03  0.90978091684E+02 0.  0.
         23    2    4    4    0    0 -0.34308077188E+03 -0.14600858920E+02 -0.20298369438E+03  0.40916778649E+03  0.91094984496E+02 0.  0.
          2    1    3    3  502    0 -0.18464488791E+02 -0.42665636041E+02 -0.12505439994E+04  0.12514078425E+04  0.00000000000E+00 0. -1.
         -1    1    3    3    0  502 -0.73970891474E+01  0.13943860802E+02 -0.72258502856E+02  0.73962418950E+02  0.00000000000E+00 0.  1.
         11    1    5    5    0    0  0.15067013550E+03  0.18570453975E+02  0.18722053538E+03  0.24103501895E+03  0.00000000000E+00 0.  1.
        -11    1    5    5    0    0  0.21827221432E+03  0.24752180184E+02  0.12548272451E+03  0.25298486935E+03  0.00000000000E+00 0. -1.
          2    1    6    6  503    0 -0.22539314713E+02 -0.11080822841E+02 -0.45592485386E+02  0.52052666274E+02  0.00000000000E+00 0. -1.
         -2    1    6    6    0  503 -0.32054145717E+03 -0.35200360790E+01 -0.15739120900E+03  0.35711512022E+03  0.00000000000E+00 0.  1.
<mgrwt>
<rscale>  0 0.18694652E+04</rscale>
<asrwt>0</asrwt>
<pdfrwt beam="1">  1        2 0.26474160E+00 0.18694652E+04</pdfrwt>
<pdfrwt beam="2">  1       -1 0.78113462E-01 0.18694652E+04</pdfrwt>
<totfact> 0.16756372E+01</totfact>
</mgrwt>
</event>
<event>
12    6  0.1569942E-007  0.1515923E+04  0.7818608E-02  0.8873933E-01
         -1   -1    0    0    0  501 -0.00000000000E+00  0.00000000000E+00  0.20158036815E+03  0.20158036815E+03  0.00000000000E+00 0.  1.
          2   -1    0    0  501    0  0.00000000000E+00 -0.00000000000E+00 -0.28500086672E+04  0.28500086672E+04  0.00000000000E+00 0. -1.
         24    2    1    2    0    0  0.34052166198E+03  0.28810626324E+03 -0.13423973587E+04  0.14167803815E+04  0.79219691258E+02 0.  0.
        254    2    1    2    0    0 -0.34052166198E+03 -0.28810626324E+03 -0.13060309403E+04  0.16348086538E+04  0.87631175755E+03 0.  0.
         23    2    4    4    0    0  0.11021739629E+03  0.11081143511E+02  0.65810380422E+02  0.15733539150E+03  0.90292596928E+02 0.  0.
         23    2    4    4    0    0 -0.45073905826E+03 -0.29918740675E+03 -0.13718413207E+04  0.14774732623E+04  0.91103395519E+02 0.  0.
          2    1    3    3  502    0  0.12982564563E+03  0.11152072897E+03 -0.39931965271E+03  0.43445109770E+03  0.00000000000E+00 0. -1.
         -1    1    3    3    0  502  0.21069601635E+03  0.17658553428E+03 -0.94307770601E+03  0.98232928379E+03  0.00000000000E+00 0.  1.
         11    1    5    5    0    0  0.19485293705E+02 -0.33331418512E+02  0.33946704436E+02  0.51410493801E+02  0.00000000000E+00 0. -1.
        -11    1    5    5    0    0  0.90732102581E+02  0.44412562023E+02  0.31863675986E+02  0.10592489769E+03  0.00000000000E+00 0.  1.
          4    1    6    6  503    0 -0.13735430724E+03 -0.10466022213E+03 -0.33334641160E+03  0.37541949595E+03  0.00000000000E+00 0.  1.
         -4    1    6    6    0  503 -0.31338475102E+03 -0.19452718462E+03 -0.10384949091E+04  0.11020537664E+04  0.00000000000E+00 0. -1.
<mgrwt>
<rscale>  0 0.15159232E+04</rscale>
<asrwt>0</asrwt>
<pdfrwt beam="1">  1        2 0.43846284E+00 0.15159232E+04</pdfrwt>
<pdfrwt beam="2">  1       -1 0.31012367E-01 0.15159232E+04</pdfrwt>
<totfact> 0.22930280E+01</totfact>
</mgrwt>
</event>
<event>
12    6  0.1569942E-007  0.1994503E+04  0.7818608E-02  0.8609195E-01
          2   -1    0    0  501    0  0.00000000000E+00  0.00000000000E+00  0.11955633375E+04  0.11955633375E+04  0.00000000000E+00 0. -1.
         -1   -1    0    0    0  501 -0.00000000000E+00 -0.00000000000E+00 -0.83183438247E+03  0.83183438247E+03  0.00000000000E+00 0.  1.
         24    2    1    2    0    0  0.62870869751E+02  0.43598813484E+03 -0.51622518963E+03  0.68366378881E+03  0.82881419733E+02 0.  0.
        254    2    1    2    0    0 -0.62870869751E+02 -0.43598813484E+03  0.87995414466E+03  0.13437339312E+04  0.91502086372E+03 0.  0.
         23    2    4    4    0    0  0.41181261141E+03 -0.26737638532E+03  0.37910210016E+03  0.62765560194E+03  0.95673371202E+02 0.  0.
         23    2    4    4    0    0 -0.47468348116E+03 -0.16861174951E+03  0.50085204450E+03  0.71607832921E+03  0.90338661307E+02 0.  0.
          2    1    3    3  502    0  0.76062500860E+02  0.23957003613E+03 -0.28703082024E+03  0.38153112326E+03  0.00000000000E+00 0. -1.
         -1    1    3    3    0  502 -0.13191631110E+02  0.19641809871E+03 -0.22919436939E+03  0.30213266555E+03  0.00000000000E+00 0.  1.
         11    1    5    5    0    0  0.67261991372E+01 -0.59973990673E+01  0.32953640334E+02  0.34163620441E+02  0.00000000000E+00 0. -1.
        -11    1    5    5    0    0  0.40508641227E+03 -0.26137898626E+03  0.34614845983E+03  0.59349198150E+03  0.00000000000E+00 0.  1.
          1    1    6    6  503    0 -0.16609118928E+03 -0.14493731864E+02  0.15605565819E+03  0.22836313160E+03  0.00000000000E+00 0. -1.
         -1    1    6    6    0  503 -0.30859229188E+03 -0.15411801765E+03  0.34479638631E+03  0.48771519762E+03  0.00000000000E+00 0.  1.
<mgrwt>
<rscale>  0 0.19945031E+04</rscale>
<asrwt>0</asrwt>
<pdfrwt beam="1">  1        2 0.18393282E+00 0.19945031E+04</pdfrwt>
<pdfrwt beam="2">  1       -1 0.12797452E+00 0.19945031E+04</pdfrwt>
<totfact> 0.10656972E+01</totfact>
</mgrwt>
</event>
<event>
12    6  0.1569942E-007  0.2226954E+04  0.7818608E-02  0.8507292E-01
         -1   -1    0    0    0  501 -0.00000000000E+00  0.00000000000E+00  0.98284968412E+03  0.98284968412E+03  0.00000000000E+00 0.  1.
          2   -1    0    0  501    0  0.00000000000E+00 -0.00000000000E+00 -0.12614652631E+04  0.12614652631E+04  0.00000000000E+00 0. -1.
         24    2    1    2    0    0  0.17730716228E+03  0.66448282344E+03  0.51823998745E+03  0.86511737863E+03  0.82946620059E+02 0.  0.
        254    2    1    2    0    0 -0.17730716228E+03 -0.66448282344E+03 -0.79685556640E+03  0.13791975686E+04  0.89119688454E+03 0.  0.
         23    2    4    4    0    0 -0.14702935825E+02 -0.46695773119E+03 -0.95407422252E+03  0.10662034557E+04  0.90920228302E+02 0.  0.
         23    2    4    4    0    0 -0.16260422645E+03 -0.19752509225E+03  0.15721865612E+03  0.31299411284E+03  0.88268410611E+02 0.  0.
          4    1    3    3  502    0  0.25192196408E+02  0.28088692324E+02  0.20069212170E+02  0.42736339027E+02  0.00000000000E+00 0. -1.
         -3    1    3    3    0  502  0.15211496587E+03  0.63639413111E+03  0.49817077528E+03  0.82238103960E+03  0.00000000000E+00 0.  1.
         11    1    5    5    0    0  0.40548022532E+01 -0.70267234050E+02 -0.22800673954E+03  0.23862313148E+03  0.00000000000E+00 0. -1.
        -11    1    5    5    0    0 -0.18757738079E+02 -0.39669049714E+03 -0.72606748298E+03  0.82758032426E+03  0.00000000000E+00 0.  1.
          3    1    6    6  503    0  0.66580610224E+01 -0.30320170120E+02  0.76754109243E+01  0.31977404922E+02  0.00000000000E+00 0. -1.
         -3    1    6    6    0  503 -0.16926228747E+03 -0.16720492213E+03  0.14954324519E+03  0.28101670792E+03  0.00000000000E+00 0.  1.
<mgrwt>
<rscale>  0 0.22269537E+04</rscale>
<asrwt>0</asrwt>
<pdfrwt beam="1">  1        2 0.19407158E+00 0.22269537E+04</pdfrwt>
<pdfrwt beam="2">  1       -1 0.15120764E+00 0.22269537E+04</pdfrwt>
<totfact> 0.61809131E+00</totfact>
</mgrwt>
</event>
<event>
12    6  0.1569942E-007  0.1589577E+04  0.7818608E-02  0.8826977E-01
         -1   -1    0    0    0  501 -0.00000000000E+00  0.00000000000E+00  0.42150402377E+03  0.42150402377E+03  0.00000000000E+00 0.  1.
          2   -1    0    0  501    0  0.00000000000E+00 -0.00000000000E+00 -0.14986539923E+04  0.14986539923E+04  0.00000000000E+00 0. -1.
         24    2    1    2    0    0  0.36764225015E+03 -0.28440167129E+03 -0.66265372799E+03  0.81307151909E+03  0.77007773641E+02 0.  0.
        254    2    1    2    0    0 -0.36764225015E+03  0.28440167129E+03 -0.41449624053E+03  0.11070864970E+04  0.91530773167E+03 0.  0.
         23    2    4    4    0    0 -0.34475632725E+03 -0.26612848918E+03 -0.30214906070E+03  0.53763537789E+03  0.89869053336E+02 0.  0.
         23    2    4    4    0    0 -0.22885922901E+02  0.55053016048E+03 -0.11234717983E+03  0.56945111909E+03  0.89696516946E+02 0.  0.
          2    1    3    3  502    0  0.36774709065E+03 -0.28547212576E+03 -0.64540257807E+03  0.79578687162E+03  0.00000000000E+00 0. -1.
         -3    1    3    3    0  502 -0.10484049933E+00  0.10704544713E+01 -0.17251149927E+02  0.17284647469E+02  0.00000000000E+00 0.  1.
         11    1    5    5    0    0 -0.14398813790E+03 -0.13484252342E+03 -0.18593264062E+03  0.27108308104E+03  0.00000000000E+00 0.  1.
        -11    1    5    5    0    0 -0.20076818935E+03 -0.13128596576E+03 -0.11621642007E+03  0.26655229685E+03  0.00000000000E+00 0. -1.
          1    1    6    6  503    0 -0.27055907592E+02  0.60134676665E+02 -0.28870427828E+02  0.71984047373E+02  0.00000000000E+00 0. -1.
         -1    1    6    6    0  503  0.41699846907E+01  0.49039548381E+03 -0.83476752003E+02  0.49746707171E+03  0.00000000000E+00 0.  1.
<mgrwt>
<rscale>  0 0.15895769E+04</rscale>
<asrwt>0</asrwt>
<pdfrwt beam="1">  1        2 0.23056215E+00 0.15895769E+04</pdfrwt>
<pdfrwt beam="2">  1       -1 0.64846772E-01 0.15895769E+04</pdfrwt>
<totfact> 0.33528726E+01</totfact>
</mgrwt>
</event>
<event>
12    6  0.1569942E-007  0.2951471E+04  0.7818608E-02  0.8257726E-01
         -3   -1    0    0    0  501 -0.00000000000E+00  0.00000000000E+00  0.14011551025E+04  0.14011551025E+04  0.00000000000E+00 0.  1.
          2   -1    0    0  501    0  0.00000000000E+00 -0.00000000000E+00 -0.15542860711E+04  0.15542860711E+04  0.00000000000E+00 0. -1.
         24    2    1    2    0    0  0.80200949820E+03 -0.10497375545E+04  0.97280169134E+02  0.13276613607E+04  0.89739003529E+02 0.  0.
        254    2    1    2    0    0 -0.80200949820E+03  0.10497375545E+04 -0.25041113777E+03  0.16277798130E+04  0.91749289536E+03 0.  0.
         23    2    4    4    0    0 -0.68625258150E+03  0.46859722013E+03  0.22114580355E+03  0.86508418686E+03  0.94547467415E+02 0.  0.
         23    2    4    4    0    0 -0.11575691670E+03  0.58114033437E+03 -0.47155694132E+03  0.76269562611E+03  0.90636180298E+02 0.  0.
          2    1    3    3  502    0  0.58176699195E+03 -0.76326233654E+03  0.11068947824E+03  0.96606127543E+03  0.00000000000E+00 0. -1.
         -1    1    3    3    0  502  0.22024250625E+03 -0.28647521797E+03 -0.13409309103E+02  0.36160008524E+03  0.00000000000E+00 0.  1.
         11    1    5    5    0    0 -0.35986491202E+03  0.18915363367E+03  0.10018876528E+03  0.41871188271E+03  0.00000000000E+00 0. -1.
        -11    1    5    5    0    0 -0.32638766948E+03  0.27944358647E+03  0.12095703827E+03  0.44637230415E+03  0.00000000000E+00 0.  1.
          3    1    6    6  503    0 -0.12543320735E+03  0.55394956514E+03 -0.46245534875E+03  0.73243331424E+03  0.00000000000E+00 0. -1.
         -3    1    6    6    0  503  0.96762906465E+01  0.27190769235E+02 -0.91015925691E+01  0.30262311867E+02  0.00000000000E+00 0.  1.
<mgrwt>
<rscale>  0 0.29514714E+04</rscale>
<asrwt>0</asrwt>
<pdfrwt beam="1">  1        2 0.23912093E+00 0.29514714E+04</pdfrwt>
<pdfrwt beam="2">  1       -3 0.21556232E+00 0.29514714E+04</pdfrwt>
<totfact> 0.75145660E-01</totfact>
</mgrwt>
</event>
<event>
12    6  0.1569942E-007  0.4438957E+04  0.7818608E-02  0.7921412E-01
         -1   -1    0    0    0  501 -0.00000000000E+00  0.00000000000E+00  0.24785539619E+04  0.24785539619E+04  0.00000000000E+00 0.  1.
          2   -1    0    0  501    0  0.00000000000E+00 -0.00000000000E+00 -0.19874835584E+04  0.19874835584E+04  0.00000000000E+00 0. -1.
         24    2    1    2    0    0  0.13391836087E+04 -0.10345292525E+04 -0.10589530231E+04  0.19978581949E+04  0.79952170950E+02 0.  0.
        254    2    1    2    0    0 -0.13391836087E+04  0.10345292525E+04  0.15500234266E+04  0.24681793254E+04  0.90866553100E+03 0.  0.
         23    2    4    4    0    0 -0.42772096316E+03 -0.11353260859E+03  0.38405516987E+03  0.59295623976E+03  0.90905738121E+02 0.  0.
         23    2    4    4    0    0 -0.91146264554E+03  0.11480618611E+04  0.11659682568E+04  0.18752230857E+04  0.90385032589E+02 0.  0.
          2    1    3    3  502    0  0.75486757439E+03 -0.62397248825E+03 -0.58558820181E+03  0.11410873161E+04  0.00000000000E+00 0. -1.
         -1    1    3    3    0  502  0.58431603432E+03 -0.41055676424E+03 -0.47336482133E+03  0.85677087876E+03  0.00000000000E+00 0.  1.
         11    1    5    5    0    0 -0.13601585800E+03 -0.48182237861E+01  0.80372179451E+02  0.15806079886E+03  0.00000000000E+00 0. -1.
        -11    1    5    5    0    0 -0.29170510516E+03 -0.10871438481E+03  0.30368299042E+03  0.43489544089E+03  0.00000000000E+00 0.  1.
          3    1    6    6  503    0 -0.22031668251E+03  0.34166604692E+03  0.33111912684E+03  0.52432337767E+03  0.00000000000E+00 0. -1.
         -3    1    6    6    0  503 -0.69114596303E+03  0.80639581416E+03  0.83484912993E+03  0.13508997080E+04  0.00000000000E+00 0.  1.
<mgrwt>
<rscale>  0 0.44389572E+04</rscale>
<asrwt>0</asrwt>
<pdfrwt beam="1">  1        2 0.30576670E+00 0.44389572E+04</pdfrwt>
<pdfrwt beam="2">  1       -1 0.38131600E+00 0.44389572E+04</pdfrwt>
<totfact> 0.56392979E-02</totfact>
</mgrwt>
</event>
<event>
12    6  0.1569942E-007  0.1676815E+04  0.7818608E-02  0.8774699E-01
          4   -1    0    0  501    0  0.00000000000E+00  0.00000000000E+00  0.38261060772E+03  0.38261060772E+03  0.00000000000E+00 0. -1.
         -3   -1    0    0    0  501 -0.00000000000E+00 -0.00000000000E+00 -0.18371859574E+04  0.18371859574E+04  0.00000000000E+00 0.  1.
         24    2    1    2    0    0  0.14607178410E+03 -0.33460055431E+03 -0.11312254942E+04  0.11915614458E+04  0.82783232233E+02 0.  0.
        254    2    1    2    0    0 -0.14607178410E+03  0.33460055431E+03 -0.32334985548E+03  0.10282351192E+04  0.90521700952E+03 0.  0.
         23    2    4    4    0    0 -0.13003370668E+03  0.63754537399E+03 -0.24658550382E+03  0.70197954887E+03  0.92725441812E+02 0.  0.
         23    2    4    4    0    0 -0.16038077415E+02 -0.30294481968E+03 -0.76764351664E+02  0.32625557036E+03  0.92288394765E+02 0.  0.
          2    1    3    3  502    0  0.13029801197E+02  0.11951530972E+01 -0.44528544517E+02  0.46411155846E+02  0.00000000000E+00 0. -1.
         -1    1    3    3    0  502  0.13304198290E+03 -0.33579570741E+03 -0.10866969496E+04  0.11451502900E+04  0.00000000000E+00 0.  1.
         11    1    5    5    0    0 -0.13589494439E+03  0.61523597368E+03 -0.22141353556E+03  0.66783732522E+03  0.00000000000E+00 0. -1.
        -11    1    5    5    0    0  0.58612377095E+01  0.22309400312E+02 -0.25171968258E+02  0.34142223650E+02  0.00000000000E+00 0.  1.
          2    1    6    6  503    0 -0.43450510836E+02 -0.72502031906E+02 -0.12417706367E+02  0.85432376496E+02  0.00000000000E+00 0.  1.
         -2    1    6    6    0  503  0.27412433421E+02 -0.23044278777E+03 -0.64346645298E+02  0.24082319387E+03  0.00000000000E+00 0. -1.
<mgrwt>
<rscale>  0 0.16768146E+04</rscale>
<asrwt>0</asrwt>
<pdfrwt beam="1">  1        4 0.58863171E-01 0.16768146E+04</pdfrwt>
<pdfrwt beam="2">  1       -3 0.28264399E+00 0.16768146E+04</pdfrwt>
<totfact> 0.28458020E-01</totfact>
</mgrwt>
</event>
<event>
12    6  0.1569942E-007  0.2628175E+04  0.7818608E-02  0.8358693E-01
          2   -1    0    0  501    0  0.00000000000E+00  0.00000000000E+00  0.25998260996E+04  0.25998260996E+04  0.00000000000E+00 0. -1.
         -1   -1    0    0    0  501 -0.00000000000E+00 -0.00000000000E+00 -0.66420822506E+03  0.66420822506E+03  0.00000000000E+00 0.  1.
         24    2    1    2    0    0 -0.18331791044E+03 -0.47857229306E+03  0.21471338265E+04  0.22088732415E+04  0.79375262537E+02 0.  0.
        254    2    1    2    0    0  0.18331791044E+03  0.47857229306E+03 -0.21151595197E+03  0.10551610831E+04  0.89776891092E+03 0.  0.
         23    2    4    4    0    0  0.47227966782E+03  0.53618199872E+03 -0.19530080801E+03  0.74641598047E+03  0.91952106548E+02 0.  0.
         23    2    4    4    0    0 -0.28896175739E+03 -0.57609705667E+02 -0.16215143962E+02  0.30874510265E+03  0.90790044024E+02 0.  0.
          2    1    3    3  502    0 -0.18228375824E+03 -0.44624412828E+03  0.19270143963E+04  0.19863901113E+04  0.00000000000E+00 0. -1.
         -1    1    3    3    0  502 -0.10341521978E+01 -0.32328164776E+02  0.22011943014E+03  0.22248313022E+03  0.00000000000E+00 0.  1.
         11    1    5    5    0    0  0.72148586648E+02  0.13796724263E+03 -0.49528381027E+02  0.16338126919E+03  0.00000000000E+00 0.  1.
        -11    1    5    5    0    0  0.40013108118E+03  0.39821475610E+03 -0.14577242698E+03  0.58303471129E+03  0.00000000000E+00 0. -1.
          3    1    6    6  503    0 -0.17313478388E+03 -0.78942582395E+02 -0.38404695372E+01  0.19032165907E+03  0.00000000000E+00 0. -1.
         -3    1    6    6    0  503 -0.11582697350E+03  0.21332876728E+02 -0.12374674425E+02  0.11842344357E+03  0.00000000000E+00 0.  1.
<mgrwt>
<rscale>  0 0.26281749E+04</rscale>
<asrwt>0</asrwt>
<pdfrwt beam="1">  1        2 0.39997324E+00 0.26281749E+04</pdfrwt>
<pdfrwt beam="2">  1       -1 0.10218588E+00 0.26281749E+04</pdfrwt>
<totfact> 0.27691562E+00</totfact>
</mgrwt>
</event>
<event>
12    6  0.1759605E-007  0.2805173E+04  0.7818608E-02  0.8301664E-01
          2   -1    0    0  501    0  0.00000000000E+00  0.00000000000E+00  0.19730961373E+04  0.19730961373E+04  0.00000000000E+00 0. -1.
         -1   -1    0    0    0  501 -0.00000000000E+00 -0.00000000000E+00 -0.99703622332E+03  0.99703622332E+03  0.00000000000E+00 0.  1.
         24    2    1    2    0    0  0.54911101104E+03 -0.48653857587E+03 -0.64271245937E+03  0.97869662793E+03  0.80778065289E+02 0.  0.
        254    2    1    2    0    0 -0.54911101104E+03  0.48653857587E+03  0.16187723734E+04  0.19914357327E+04  0.89841504465E+03 0.  0.
         23    2    4    4    0    0 -0.21089102775E+03  0.54568485496E+03  0.15064410530E+04  0.16186640494E+04  0.91987346948E+02 0.  0.
         23    2    4    4    0    0 -0.33821998329E+03 -0.59146279087E+02  0.11233132034E+03  0.37277168332E+03  0.91920416287E+02 0.  0.
          2    1    3    3  502    0  0.14200796972E+03 -0.11772642375E+03 -0.20927612374E+03  0.27896643217E+03  0.00000000000E+00 0. -1.
         -1    1    3    3    0  502  0.40710304132E+03 -0.36881215212E+03 -0.43343633564E+03  0.69973019576E+03  0.00000000000E+00 0.  1.
         11    1    5    5    0    0 -0.19078599334E+03  0.53413289841E+03  0.14681416524E+04  0.15738923597E+04  0.00000000000E+00 0. -1.
        -11    1    5    5    0    0 -0.20105034405E+02  0.11551956544E+02  0.38299400671E+02  0.44771689718E+02  0.00000000000E+00 0.  1.
          1    1    6    6  503    0 -0.28623535950E+03 -0.20081792829E+02  0.70568232258E+02  0.29548914504E+03  0.00000000000E+00 0. -1.
         -1    1    6    6    0  503 -0.51984623784E+02 -0.39064486258E+02  0.41763088080E+02  0.77282538277E+02  0.00000000000E+00 0.  1.
<mgrwt>
<rscale>  0 0.28051726E+04</rscale>
<asrwt>0</asrwt>
<pdfrwt beam="1">  1        2 0.30355325E+00 0.28051726E+04</pdfrwt>
<pdfrwt beam="2">  1       -1 0.15339019E+00 0.28051726E+04</pdfrwt>
<totfact> 0.22470846E+00</totfact>
</mgrwt>
</event>
<event>
12    6  0.1569942E-007  0.1343835E+04  0.7818608E-02  0.8995508E-01
          2   -1    0    0  501    0  0.00000000000E+00  0.00000000000E+00  0.60937924618E+03  0.60937924618E+03  0.00000000000E+00 0. -1.
         -1   -1    0    0    0  501 -0.00000000000E+00 -0.00000000000E+00 -0.74087330294E+03  0.74087330294E+03  0.00000000000E+00 0.  1.
         24    2    1    2    0    0  0.38721884234E+02  0.90999412817E+01 -0.39314113396E+03  0.40291771218E+03  0.78743497017E+02 0.  0.
        254    2    1    2    0    0 -0.38721884234E+02 -0.90999412817E+01  0.26164707720E+03  0.94733483695E+03  0.90961635156E+03 0.  0.
         23    2    4    4    0    0  0.18237466451E+03 -0.18813758183E+03  0.49564903171E+03  0.56719734737E+03  0.85956967598E+02 0.  0.
         23    2    4    4    0    0 -0.22109654874E+03  0.17903764055E+03 -0.23400195451E+03  0.38013748957E+03  0.93858593988E+02 0.  0.
          4    1    3    3  502    0  0.56351934159E+02  0.85385696432E+01 -0.17462645037E+03  0.18369225576E+03  0.00000000000E+00 0. -1.
         -1    1    3    3    0  502 -0.17630049925E+02  0.56137163850E+00 -0.21851468359E+03  0.21922545642E+03  0.00000000000E+00 0.  1.
         11    1    5    5    0    0  0.18659556192E+03 -0.19044754240E+03  0.49513505650E+03  0.56235833266E+03  0.00000000000E+00 0. -1.
        -11    1    5    5    0    0 -0.42208974175E+01  0.23099605759E+01  0.51397521377E+00  0.48390147129E+01  0.00000000000E+00 0.  1.
          3    1    6    6  503    0 -0.22075896281E+03  0.14494942880E+03 -0.19466401313E+03  0.32808373104E+03  0.00000000000E+00 0. -1.
         -3    1    6    6    0  503 -0.33758593257E+00  0.34088211750E+02 -0.39337941385E+02  0.52053758529E+02  0.00000000000E+00 0.  1.
<mgrwt>
<rscale>  0 0.13438345E+04</rscale>
<asrwt>0</asrwt>
<pdfrwt beam="1">  1        2 0.93750653E-01 0.13438345E+04</pdfrwt>
<pdfrwt beam="2">  1       -1 0.11398051E+00 0.13438345E+04</pdfrwt>
<totfact> 0.38127970E+01</totfact>
</mgrwt>
</event>
<event>
12    6  0.1569942E-007  0.1783724E+04  0.7818608E-02  0.8715003E-01
         -1   -1    0    0    0  501 -0.00000000000E+00  0.00000000000E+00  0.62802502326E+03  0.62802502326E+03  0.00000000000E+00 0.  1.
          2   -1    0    0  501    0  0.00000000000E+00 -0.00000000000E+00 -0.12665390547E+04  0.12665390547E+04  0.00000000000E+00 0. -1.
         24    2    1    2    0    0 -0.48047054954E+03 -0.32459696846E+03  0.10049349936E+03  0.59395382128E+03  0.80418017151E+02 0.  0.
        254    2    1    2    0    0  0.48047054954E+03  0.32459696846E+03 -0.73900753082E+03  0.13006102567E+04  0.89957754990E+03 0.  0.
         23    2    4    4    0    0  0.30049731402E+03  0.48274896119E+03 -0.65941480312E+02  0.57994535803E+03  0.92968511945E+02 0.  0.
         23    2    4    4    0    0  0.17997323553E+03 -0.15815199272E+03 -0.67306605051E+03  0.72066489866E+03  0.94538719662E+02 0.  0.
          2    1    3    3  502    0 -0.15957439114E+03 -0.12292748946E+03 -0.15990247716E+01  0.20143909961E+03  0.00000000000E+00 0. -1.
         -1    1    3    3    0  502 -0.32089615840E+03 -0.20166947900E+03  0.10209252413E+03  0.39251472166E+03  0.00000000000E+00 0.  1.
         11    1    5    5    0    0  0.79108239407E+02  0.11428007514E+03 -0.56342013130E+02  0.14997490310E+03  0.00000000000E+00 0.  1.
        -11    1    5    5    0    0  0.22138907461E+03  0.36846888604E+03 -0.95994671822E+01  0.42997045493E+03  0.00000000000E+00 0. -1.
          4    1    6    6  503    0  0.66006805382E+01 -0.54453590015E+02 -0.12305620701E+03  0.13472784617E+03  0.00000000000E+00 0.  1.
         -4    1    6    6    0  503  0.17337255499E+03 -0.10369840271E+03 -0.55000984349E+03  0.58593705250E+03  0.00000000000E+00 0. -1.
<mgrwt>
<rscale>  0 0.17837244E+04</rscale>
<asrwt>0</asrwt>
<pdfrwt beam="1">  1        2 0.19485216E+00 0.17837244E+04</pdfrwt>
<pdfrwt beam="2">  1       -1 0.96619235E-01 0.17837244E+04</pdfrwt>
<totfact> 0.19212833E+01</totfact>
</mgrwt>
</event>
<event>
12    6  0.1569942E-007  0.5712717E+04  0.7818608E-02  0.7727079E-01
          2   -1    0    0  501    0  0.00000000000E+00  0.00000000000E+00  0.28821501408E+04  0.28821501408E+04  0.00000000000E+00 0. -1.
         -1   -1    0    0    0  501 -0.00000000000E+00 -0.00000000000E+00 -0.28307981350E+04  0.28307981350E+04  0.00000000000E+00 0.  1.
         24    2    1    2    0    0  0.80229133201E+03  0.86334174948E+03 -0.25053241853E+04  0.27698822809E+04  0.81044547983E+02 0.  0.
        254    2    1    2    0    0 -0.80229133201E+03 -0.86334174948E+03  0.25566761912E+04  0.29430659949E+04  0.85791255156E+03 0.  0.
         23    2    4    4    0    0 -0.70595420548E+02 -0.61679716840E+03  0.76093963004E+03  0.98626852982E+03  0.90961706270E+02 0.  0.
         23    2    4    4    0    0 -0.73169591146E+03 -0.24654458108E+03  0.17957365611E+04  0.19567974651E+04  0.90682882060E+02 0.  0.
          4    1    3    3  502    0  0.27881724157E+03  0.27403619282E+03 -0.91143896261E+03  0.99174385389E+03  0.00000000000E+00 0. -1.
         -3    1    3    3    0  502  0.52347409044E+03  0.58930555667E+03 -0.15938852227E+04  0.17781384270E+04  0.00000000000E+00 0.  1.
         11    1    5    5    0    0 -0.22460786266E+02 -0.55337658245E+02  0.11103036178E+03  0.12607333016E+03  0.00000000000E+00 0.  1.
        -11    1    5    5    0    0 -0.48134634283E+02 -0.56145951016E+03  0.64990926826E+03  0.86019519967E+03  0.00000000000E+00 0. -1.
          3    1    6    6  503    0 -0.70174870168E+03 -0.21677983018E+03  0.17159173090E+04  0.18664985793E+04  0.00000000000E+00 0. -1.
         -3    1    6    6    0  503 -0.29947209779E+02 -0.29764750907E+02  0.79819252089E+02  0.90298885786E+02  0.00000000000E+00 0.  1.
<mgrwt>
<rscale>  0 0.57127175E+04</rscale>
<asrwt>0</asrwt>
<pdfrwt beam="1">  1        2 0.44340772E+00 0.57127175E+04</pdfrwt>
<pdfrwt beam="2">  1       -1 0.43550740E+00 0.57127175E+04</pdfrwt>
<totfact> 0.65908901E-03</totfact>
</mgrwt>
</event>
<event>
12    6  0.1569942E-007  0.2230715E+04  0.7818608E-02  0.8505752E-01
         -1   -1    0    0    0  501 -0.00000000000E+00  0.00000000000E+00  0.52075427458E+03  0.52075427458E+03  0.00000000000E+00 0.  1.
          2   -1    0    0  501    0  0.00000000000E+00 -0.00000000000E+00 -0.23888848811E+04  0.23888848811E+04  0.00000000000E+00 0. -1.
         24    2    1    2    0    0 -0.34793260531E+03  0.39946756729E+03  0.21891304258E+03  0.57832549712E+03  0.76850668552E+02 0.  0.
        254    2    1    2    0    0  0.34793260531E+03 -0.39946756729E+03 -0.20870436491E+04  0.23313136586E+04  0.89366702198E+03 0.  0.
         23    2    4    4    0    0 -0.14699935336E+03  0.18976774079E+03 -0.40455889179E+03  0.47896183751E+03  0.90088509468E+02 0.  0.
         23    2    4    4    0    0  0.49493195867E+03 -0.58923530808E+03 -0.16824847573E+04  0.18523518211E+04  0.91084676645E+02 0.  0.
          2    1    3    3  502    0 -0.18394567892E+03  0.17175307306E+03  0.72988761266E+02  0.26203528421E+03  0.00000000000E+00 0. -1.
         -1    1    3    3    0  502 -0.16398692639E+03  0.22771449423E+03  0.14592428131E+03  0.31629021291E+03  0.00000000000E+00 0.  1.
         11    1    5    5    0    0 -0.50053196331E+02  0.97871517097E+02 -0.10991629792E+03  0.15545336558E+03  0.00000000000E+00 0.  1.
        -11    1    5    5    0    0 -0.96946157033E+02  0.91896223693E+02 -0.29464259387E+03  0.32350847194E+03  0.00000000000E+00 0. -1.
          1    1    6    6  503    0  0.37874692550E+02 -0.68837642813E+02 -0.23297938495E+03  0.24587091576E+03  0.00000000000E+00 0. -1.
         -1    1    6    6    0  503  0.45705726612E+03 -0.52039766527E+03 -0.14495053724E+04  0.16064809053E+04  0.00000000000E+00 0.  1.
<mgrwt>
<rscale>  0 0.22307147E+04</rscale>
<asrwt>0</asrwt>
<pdfrwt beam="1">  1        2 0.36752075E+00 0.22307147E+04</pdfrwt>
<pdfrwt beam="2">  1       -1 0.80116042E-01 0.22307147E+04</pdfrwt>
<totfact> 0.65086135E+00</totfact>
</mgrwt>
</event>
<event>
12    6  0.1569942E-007  0.2069210E+04  0.7818608E-02  0.8574929E-01
          2   -1    0    0  501    0  0.00000000000E+00  0.00000000000E+00  0.24046427518E+04  0.24046427518E+04  0.00000000000E+00 0. -1.
         -1   -1    0    0    0  501 -0.00000000000E+00 -0.00000000000E+00 -0.44514209288E+03  0.44514209288E+03  0.00000000000E+00 0.  1.
         24    2    1    2    0    0 -0.65545909604E+03  0.12383439616E+03  0.98688892607E+02  0.67887228786E+03  0.78527074660E+02 0.  0.
        254    2    1    2    0    0  0.65545909604E+03 -0.12383439616E+03  0.18608117663E+04  0.21709125568E+04  0.89737356516E+03 0.  0.
         23    2    4    4    0    0 -0.16213459160E+03 -0.19860996764E+03  0.63998995760E+03  0.69680253662E+03  0.10105980492E+03 0.  0.
         23    2    4    4    0    0  0.81759368764E+03  0.74775571477E+02  0.12208218087E+04  0.14741100202E+04  0.92431806587E+02 0.  0.
          4    1    3    3  502    0 -0.46602974064E+03  0.72805292802E+02  0.10233611134E+03  0.48265620218E+03  0.00000000000E+00 0. -1.
         -3    1    3    3    0  502 -0.18942935540E+03  0.51029103357E+02 -0.36472187310E+01  0.19621608568E+03  0.00000000000E+00 0.  1.
         11    1    5    5    0    0  0.37290827928E+01 -0.18906698634E+01 -0.23820178143E+01  0.48119330705E+01  0.00000000000E+00 0. -1.
        -11    1    5    5    0    0 -0.16586367440E+03 -0.19671929777E+03  0.64237197542E+03  0.69199060355E+03  0.00000000000E+00 0.  1.
          1    1    6    6  503    0  0.42166944045E+03  0.74105654845E+02  0.68707271346E+03  0.80954658833E+03  0.00000000000E+00 0. -1.
         -1    1    6    6    0  503  0.39592424720E+03  0.66991663214E+00  0.53374909526E+03  0.66456343189E+03  0.00000000000E+00 0.  1.
<mgrwt>
<rscale>  0 0.20692102E+04</rscale>
<asrwt>0</asrwt>
<pdfrwt beam="1">  1        2 0.36994503E+00 0.20692102E+04</pdfrwt>
<pdfrwt beam="2">  1       -1 0.68483400E-01 0.20692102E+04</pdfrwt>
<totfact> 0.89686239E+00</totfact>
</mgrwt>
</event>
<event>
12    6  0.1569942E-007  0.1913781E+04  0.7818608E-02  0.8648027E-01
         -1   -1    0    0    0  501 -0.00000000000E+00  0.00000000000E+00  0.23917633544E+03  0.23917633544E+03  0.00000000000E+00 0.  1.
          2   -1    0    0  501    0  0.00000000000E+00 -0.00000000000E+00 -0.38283012366E+04  0.38283012366E+04  0.00000000000E+00 0. -1.
         24    2    1    2    0    0  0.25555760950E+03  0.25827761991E+03 -0.28555505490E+04  0.28796660888E+04  0.79314718648E+02 0.  0.
        254    2    1    2    0    0 -0.25555760950E+03 -0.25827761991E+03 -0.73357435218E+03  0.11878114832E+04  0.86066704872E+03 0.  0.
         23    2    4    4    0    0 -0.19610705671E+03 -0.43330827626E+02 -0.87893141875E+03  0.90650028528E+03  0.94269772634E+02 0.  0.
         23    2    4    4    0    0 -0.59450552796E+02 -0.21494679228E+03  0.14535706658E+03  0.28131119793E+03  0.90944057175E+02 0.  0.
          4    1    3    3  502    0  0.18598478624E+03  0.21299186924E+03 -0.19626124450E+04  0.19828775772E+04  0.00000000000E+00 0. -1.
         -3    1    3    3    0  502  0.69572823261E+02  0.45285750670E+02 -0.89293810400E+03  0.89678851160E+03  0.00000000000E+00 0.  1.
         11    1    5    5    0    0 -0.12351345837E+03  0.70643416369E+01 -0.37503889741E+03  0.39491727475E+03  0.00000000000E+00 0.  1.
        -11    1    5    5    0    0 -0.72593598332E+02 -0.50395169263E+02 -0.50389252134E+03  0.51158301053E+03  0.00000000000E+00 0. -1.
          3    1    6    6  503    0 -0.25532955882E+02 -0.19536971331E+02 -0.48568798035E+01  0.32514833019E+02  0.00000000000E+00 0. -1.
         -3    1    6    6    0  503 -0.33917596915E+02 -0.19540982095E+03  0.15021394638E+03  0.24879636491E+03  0.00000000000E+00 0.  1.
<mgrwt>
<rscale>  0 0.19137806E+04</rscale>
<asrwt>0</asrwt>
<pdfrwt beam="1">  1        2 0.58896944E+00 0.19137806E+04</pdfrwt>
<pdfrwt beam="2">  1       -1 0.36796358E-01 0.19137806E+04</pdfrwt>
<totfact> 0.35639473E+00</totfact>
</mgrwt>
</event>
<event>
12    6  0.1569942E-007  0.1395950E+04  0.7818608E-02  0.8956755E-01
         -1   -1    0    0    0  501 -0.00000000000E+00  0.00000000000E+00  0.47999474504E+03  0.47999474504E+03  0.00000000000E+00 0.  1.
          2   -1    0    0  501    0  0.00000000000E+00 -0.00000000000E+00 -0.10149474414E+04  0.10149474414E+04  0.00000000000E+00 0. -1.
         24    2    1    2    0    0  0.31133061287E+03  0.91842513992E+02 -0.31986176884E+03  0.46324410445E+03  0.83197062784E+02 0.  0.
        254    2    1    2    0    0 -0.31133061287E+03 -0.91842513992E+02 -0.21509092753E+03  0.10316980820E+04  0.95539260381E+03 0.  0.
         23    2    4    4    0    0  0.10911659691E+03 -0.18593731685E+03 -0.46829791499E+03  0.52376246372E+03  0.92439513731E+02 0.  0.
         23    2    4    4    0    0 -0.42044720978E+03  0.94094802855E+02  0.25320698746E+03  0.50793561829E+03  0.90857722223E+02 0.  0.
          2    1    3    3  502    0  0.28499339746E+03  0.85353314275E+02 -0.31886946358E+03  0.43610108880E+03  0.00000000000E+00 0. -1.
         -1    1    3    3    0  502  0.26337215415E+02  0.64891997176E+01 -0.99230526160E+00  0.27143015649E+02  0.00000000000E+00 0.  1.
         11    1    5    5    0    0 -0.16662879725E+02 -0.25405308946E+02 -0.52937626491E+02  0.61036657690E+02  0.00000000000E+00 0. -1.
        -11    1    5    5    0    0  0.12577947663E+03 -0.16053200790E+03 -0.41536028850E+03  0.46272580603E+03  0.00000000000E+00 0.  1.
          4    1    6    6  503    0 -0.84656373076E+02  0.83216478315E+01  0.93282676834E+02  0.12624424392E+03  0.00000000000E+00 0. -1.
         -4    1    6    6    0  503 -0.33579083670E+03  0.85773155023E+02  0.15992431063E+03  0.38169137437E+03  0.00000000000E+00 0.  1.
<mgrwt>
<rscale>  0 0.13959505E+04</rscale>
<asrwt>0</asrwt>
<pdfrwt beam="1">  1        2 0.15614576E+00 0.13959505E+04</pdfrwt>
<pdfrwt beam="2">  1       -1 0.73845346E-01 0.13959505E+04</pdfrwt>
<totfact> 0.50550921E+01</totfact>
</mgrwt>
</event>
<event>
12    6  0.1569942E-007  0.1326052E+04  0.7818608E-02  0.9009157E-01
         -1   -1    0    0    0  501 -0.00000000000E+00  0.00000000000E+00  0.28860882225E+03  0.28860882225E+03  0.00000000000E+00 0.  1.
          2   -1    0    0  501    0  0.00000000000E+00 -0.00000000000E+00 -0.15231816411E+04  0.15231816411E+04  0.00000000000E+00 0. -1.
         24    2    1    2    0    0  0.22288647288E+02 -0.16664681182E+03  0.87184478678E+02  0.20541191643E+03  0.79529732815E+02 0.  0.
        254    2    1    2    0    0 -0.22288647288E+02  0.16664681182E+03 -0.13217572975E+04  0.16063785469E+04  0.89729690669E+03 0.  0.
         23    2    4    4    0    0 -0.25007319252E+03 -0.16297635290E+03 -0.11662393635E+03  0.33309334407E+03  0.90841290784E+02 0.  0.
         23    2    4    4    0    0  0.22778454524E+03  0.32962316473E+03 -0.12051333612E+04  0.12732852028E+04  0.91496228301E+02 0.  0.
          2    1    3    3  502    0 -0.13826346161E+02 -0.31664711912E+02  0.50074321585E+02  0.60837977538E+02  0.00000000000E+00 0. -1.
         -1    1    3    3    0  502  0.36114993449E+02 -0.13498209991E+03  0.37110157093E+02  0.14457393890E+03  0.00000000000E+00 0.  1.
         11    1    5    5    0    0 -0.17845129797E+03 -0.10398729925E+03 -0.12247611503E+03  0.24012209999E+03  0.00000000000E+00 0. -1.
        -11    1    5    5    0    0 -0.71621894550E+02 -0.58989053658E+02  0.58521786792E+01  0.92971244079E+02  0.00000000000E+00 0.  1.
          2    1    6    6  503    0  0.85427148375E+02  0.11497282253E+03 -0.30381373912E+03  0.33588589682E+03  0.00000000000E+00 0. -1.
         -2    1    6    6    0  503  0.14235739686E+03  0.21465034219E+03 -0.90131962205E+03  0.93739930602E+03  0.00000000000E+00 0.  1.
<mgrwt>
<rscale>  0 0.13260523E+04</rscale>
<asrwt>0</asrwt>
<pdfrwt beam="1">  1        2 0.23433564E+00 0.13260523E+04</pdfrwt>
<pdfrwt beam="2">  1       -1 0.44401357E-01 0.13260523E+04</pdfrwt>
<totfact> 0.68936964E+01</totfact>
</mgrwt>
</event>
<event>
12    6  0.1569942E-007  0.2053268E+04  0.7818608E-02  0.8582113E-01
         -1   -1    0    0    0  501 -0.00000000000E+00  0.00000000000E+00  0.14410674268E+04  0.14410674268E+04  0.00000000000E+00 0.  1.
          2   -1    0    0  501    0  0.00000000000E+00 -0.00000000000E+00 -0.73138680295E+03  0.73138680295E+03  0.00000000000E+00 0. -1.
         24    2    1    2    0    0  0.10352186832E+03  0.72558254710E+03  0.69469286352E+03  0.10127957570E+04  0.77267462736E+02 0.  0.
        254    2    1    2    0    0 -0.10352186832E+03 -0.72558254710E+03  0.14987760299E+02  0.11596584728E+04  0.89855235275E+03 0.  0.
         23    2    4    4    0    0  0.15146408861E+03 -0.11955335306E+03 -0.34389007562E+03  0.40450466272E+03  0.90162429456E+02 0.  0.
         23    2    4    4    0    0 -0.25498595693E+03 -0.60602919405E+03  0.35887783592E+03  0.75515381005E+03  0.95784933307E+02 0.  0.
          2    1    3    3  502    0  0.26386217247E+02  0.16348657304E+03  0.11471628155E+03  0.20145450424E+03  0.00000000000E+00 0. -1.
         -1    1    3    3    0  502  0.77135651075E+02  0.56209597406E+03  0.57997658198E+03  0.81134125272E+03  0.00000000000E+00 0.  1.
         11    1    5    5    0    0  0.13198958537E+03 -0.54190101887E+02 -0.25804449858E+03  0.29486400431E+03  0.00000000000E+00 0.  1.
        -11    1    5    5    0    0  0.19474503246E+02 -0.65363251169E+02 -0.85845577043E+02  0.10964065842E+03  0.00000000000E+00 0. -1.
          4    1    6    6  503    0 -0.12916991314E+03 -0.29922974615E+03  0.12359965277E+03  0.34856876166E+03  0.00000000000E+00 0.  1.
         -4    1    6    6    0  503 -0.12581604380E+03 -0.30679944789E+03  0.23527818316E+03  0.40658504839E+03  0.00000000000E+00 0. -1.
<mgrwt>
<rscale>  0 0.20532683E+04</rscale>
<asrwt>0</asrwt>
<pdfrwt beam="1">  1        2 0.11252105E+00 0.20532683E+04</pdfrwt>
<pdfrwt beam="2">  1       -1 0.22170268E+00 0.20532683E+04</pdfrwt>
<totfact> 0.43842290E+00</totfact>
</mgrwt>
</event>
<event>
12    6  0.1569942E-007  0.1604360E+04  0.7818608E-02  0.8817874E-01
         -1   -1    0    0    0  501 -0.00000000000E+00  0.00000000000E+00  0.78037992958E+03  0.78037992958E+03  0.00000000000E+00 0.  1.
          2   -1    0    0  501    0  0.00000000000E+00 -0.00000000000E+00 -0.82458858363E+03  0.82458858363E+03  0.00000000000E+00 0. -1.
         24    2    1    2    0    0 -0.25959662299E+03  0.46424898555E+03 -0.16019764885E+03  0.56101616423E+03  0.78474980599E+02 0.  0.
        254    2    1    2    0    0  0.25959662299E+03 -0.46424898555E+03  0.11598899480E+03  0.10439523490E+04  0.89076682290E+03 0.  0.
         23    2    4    4    0    0 -0.15024659374E+02 -0.11214546429E+03  0.45416007767E+03  0.47654656008E+03  0.89626459397E+02 0.  0.
         23    2    4    4    0    0  0.27462128236E+03 -0.35210352126E+03 -0.33817108287E+03  0.56740578890E+03  0.90531262975E+02 0.  0.
          4    1    3    3  502    0 -0.19535989126E+03  0.33315718103E+03 -0.79843532690E+02  0.39437822468E+03  0.00000000000E+00 0. -1.
         -3    1    3    3    0  502 -0.64236731730E+02  0.13109180451E+03 -0.80354116163E+02  0.16663793955E+03  0.00000000000E+00 0.  1.
         11    1    5    5    0    0 -0.21622050441E+02 -0.48339780098E+02  0.35169261270E+03  0.35565705565E+03  0.00000000000E+00 0. -1.
        -11    1    5    5    0    0  0.65973910667E+01 -0.63805684191E+02  0.10246746497E+03  0.12088950443E+03  0.00000000000E+00 0.  1.
          3    1    6    6  503    0  0.13044851127E+03 -0.19089196119E+03 -0.12117482904E+03  0.26103619315E+03  0.00000000000E+00 0. -1.
         -3    1    6    6    0  503  0.14417277109E+03 -0.16121156007E+03 -0.21699625383E+03  0.30636959575E+03  0.00000000000E+00 0.  1.
<mgrwt>
<rscale>  0 0.16043595E+04</rscale>
<asrwt>0</asrwt>
<pdfrwt beam="1">  1        2 0.12685978E+00 0.16043595E+04</pdfrwt>
<pdfrwt beam="2">  1       -1 0.12005845E+00 0.16043595E+04</pdfrwt>
<totfact> 0.22386249E+01</totfact>
</mgrwt>
</event>
<event>
12    6  0.1569942E-007  0.2056230E+04  0.7818608E-02  0.8580773E-01
          2   -1    0    0  501    0  0.00000000000E+00  0.00000000000E+00  0.89179772535E+03  0.89179772535E+03  0.00000000000E+00 0. -1.
         -3   -1    0    0    0  501 -0.00000000000E+00 -0.00000000000E+00 -0.11852694673E+04  0.11852694673E+04  0.00000000000E+00 0.  1.
         24    2    1    2    0    0  0.19110081566E+03  0.14916548421E+03  0.67709740560E+03  0.72429312775E+03  0.85847392554E+02 0.  0.
        254    2    1    2    0    0 -0.19110081566E+03 -0.14916548421E+03 -0.97056914758E+03  0.13527740649E+04  0.91061700901E+03 0.  0.
         23    2    4    4    0    0  0.24644164032E+03 -0.25130937410E+03 -0.77219765472E+03  0.85367022373E+03  0.92594542702E+02 0.  0.
         23    2    4    4    0    0 -0.43754245598E+03  0.10214388989E+03 -0.19837149286E+03  0.49910384120E+03  0.88750324466E+02 0.  0.
          4    1    3    3  502    0  0.16757674026E+03  0.13176310080E+03  0.65124605372E+03  0.68524805807E+03  0.00000000000E+00 0. -1.
         -3    1    3    3    0  502  0.23524075402E+02  0.17402383417E+02  0.25851351885E+02  0.39045069681E+02  0.00000000000E+00 0.  1.
         11    1    5    5    0    0  0.41273312401E+02 -0.31750568533E+01 -0.10441427470E+03  0.11232055939E+03  0.00000000000E+00 0. -1.
        -11    1    5    5    0    0  0.20516832792E+03 -0.24813431725E+03 -0.66778338002E+03  0.74134966434E+03  0.00000000000E+00 0.  1.
          2    1    6    6  503    0 -0.14394971926E+02  0.15710439539E+02  0.47604572794E+01  0.21833347905E+02  0.00000000000E+00 0. -1.
         -2    1    6    6    0  503 -0.42314748406E+03  0.86433450349E+02 -0.20313195014E+03  0.47727049329E+03  0.00000000000E+00 0.  1.
<mgrwt>
<rscale>  0 0.20562302E+04</rscale>
<asrwt>0</asrwt>
<pdfrwt beam="1">  1        2 0.13719965E+00 0.20562302E+04</pdfrwt>
<pdfrwt beam="2">  1       -3 0.18234915E+00 0.20562302E+04</pdfrwt>
<totfact> 0.32961775E+00</totfact>
</mgrwt>
</event>
<event>
12    6  0.1569942E-007  0.1277142E+04  0.7818608E-02  0.9047890E-01
          2   -1    0    0  501    0  0.00000000000E+00  0.00000000000E+00  0.17640003871E+04  0.17640003871E+04  0.00000000000E+00 0. -1.
         -1   -1    0    0    0  501 -0.00000000000E+00 -0.00000000000E+00 -0.23116389724E+03  0.23116389724E+03  0.00000000000E+00 0.  1.
         24    2    1    2    0    0 -0.10247756871E+03 -0.27522680305E+03  0.21995473123E+03  0.37568301519E+03  0.80661012295E+02 0.  0.
        254    2    1    2    0    0  0.10247756871E+03  0.27522680305E+03  0.13128817586E+04  0.16194812691E+04  0.90155955088E+03 0.  0.
         23    2    4    4    0    0  0.24720944283E+03  0.50425867339E+03  0.49727217902E+03  0.75518702728E+03  0.87398557338E+02 0.  0.
         23    2    4    4    0    0 -0.14473187412E+03 -0.22903187034E+03  0.81560957959E+03  0.86429424186E+03  0.91556742937E+02 0.  0.
          4    1    3    3  502    0 -0.14353383703E+02 -0.16471855245E+02 -0.41152994472E+01  0.22232348695E+02  0.00000000000E+00 0. -1.
         -3    1    3    3    0  502 -0.88124185004E+02 -0.25875494781E+03  0.22407003068E+03  0.35345066650E+03  0.00000000000E+00 0.  1.
         11    1    5    5    0    0  0.12049426090E+03  0.26455348098E+03  0.31407874805E+03  0.42796363301E+03  0.00000000000E+00 0.  1.
        -11    1    5    5    0    0  0.12671518192E+03  0.23970519241E+03  0.18319343097E+03  0.32722339426E+03  0.00000000000E+00 0. -1.
          3    1    6    6  503    0 -0.12211083221E+03 -0.18711790013E+03  0.75406788662E+03  0.78647475580E+03  0.00000000000E+00 0. -1.
         -3    1    6    6    0  503 -0.22621041910E+02 -0.41913970213E+02  0.61541692975E+02  0.77819486058E+02  0.00000000000E+00 0.  1.
<mgrwt>
<rscale>  0 0.12771424E+04</rscale>
<asrwt>0</asrwt>
<pdfrwt beam="1">  1        2 0.27138467E+00 0.12771424E+04</pdfrwt>
<pdfrwt beam="2">  1       -1 0.35563678E-01 0.12771424E+04</pdfrwt>
<totfact> 0.76196175E+01</totfact>
</mgrwt>
</event>
<event>
12    6  0.1569942E-007  0.2815620E+04  0.7818608E-02  0.8298435E-01
         -1   -1    0    0    0  501 -0.00000000000E+00  0.00000000000E+00  0.14857431717E+04  0.14857431717E+04  0.00000000000E+00 0.  1.
          2   -1    0    0  501    0  0.00000000000E+00 -0.00000000000E+00 -0.13339648820E+04  0.13339648820E+04  0.00000000000E+00 0. -1.
         24    2    1    2    0    0  0.62353662188E+03  0.79338669665E+02 -0.10282755803E+04  0.12078176232E+04  0.79876144503E+02 0.  0.
        254    2    1    2    0    0 -0.62353662188E+03 -0.79338669665E+02  0.11800538700E+04  0.16118904306E+04  0.90031721113E+03 0.  0.
         23    2    4    4    0    0 -0.77250840667E+03 -0.16293264593E+03  0.58637072669E+03  0.98751423850E+03  0.89651863536E+02 0.  0.
         23    2    4    4    0    0  0.14897178479E+03  0.83593976269E+02  0.59368314333E+03  0.62437619206E+03  0.90583712666E+02 0.  0.
          2    1    3    3  502    0  0.54749012282E+03  0.49580830521E+02 -0.92670349968E+03  0.10774892434E+04  0.00000000000E+00 0. -1.
         -1    1    3    3    0  502  0.76046499063E+02  0.29757839144E+02 -0.10157208066E+03  0.13032837980E+03  0.00000000000E+00 0.  1.
         11    1    5    5    0    0 -0.32166188581E+03 -0.38645465166E+02  0.28208708343E+03  0.42957300124E+03  0.00000000000E+00 0.  1.
        -11    1    5    5    0    0 -0.45084652086E+03 -0.12428718077E+03  0.30428364326E+03  0.55794123726E+03  0.00000000000E+00 0. -1.
          1    1    6    6  503    0  0.14073406548E+02 -0.25874640050E+01  0.18360247312E+03  0.18415923511E+03  0.00000000000E+00 0. -1.
         -1    1    6    6    0  503  0.13489837824E+03  0.86181440274E+02  0.41008067022E+03  0.44021695695E+03  0.00000000000E+00 0.  1.
<mgrwt>
<rscale>  0 0.28156202E+04</rscale>
<asrwt>0</asrwt>
<pdfrwt beam="1">  1        2 0.20522537E+00 0.28156202E+04</pdfrwt>
<pdfrwt beam="2">  1       -1 0.22857587E+00 0.28156202E+04</pdfrwt>
<totfact> 0.15085364E+00</totfact>
</mgrwt>
</event>
<event>
12    6  0.1569942E-007  0.3253252E+04  0.7818608E-02  0.8174893E-01
          2   -1    0    0  501    0  0.00000000000E+00  0.00000000000E+00  0.22357988579E+04  0.22357988579E+04  0.00000000000E+00 0. -1.
         -1   -1    0    0    0  501 -0.00000000000E+00 -0.00000000000E+00 -0.11834305948E+04  0.11834305948E+04  0.00000000000E+00 0.  1.
         24    2    1    2    0    0  0.76171520316E+03 -0.13323251477E+03  0.18386138075E+04  0.19962179314E+04  0.80151996357E+02 0.  0.
        254    2    1    2    0    0 -0.76171520316E+03  0.13323251477E+03 -0.78624554438E+03  0.14230115213E+04  0.89934352731E+03 0.  0.
         23    2    4    4    0    0 -0.34129871465E+03  0.13211796848E+03 -0.90091368808E+03  0.97774680925E+03  0.10199695779E+03 0.  0.
         23    2    4    4    0    0 -0.42041648851E+03  0.11145462897E+01  0.11466814370E+03  0.44526471210E+03  0.91436396694E+02 0.  0.
          2    1    3    3  502    0  0.16870178181E+03  0.38025849753E+01  0.40716437398E+03  0.44074661459E+03  0.00000000000E+00 0. -1.
         -1    1    3    3    0  502  0.59301342135E+03 -0.13703509975E+03  0.14314494336E+04  0.15554713168E+04  0.00000000000E+00 0.  1.
         11    1    5    5    0    0 -0.15883716455E+03  0.10840211979E+03 -0.39284091916E+03  0.43738341553E+03  0.00000000000E+00 0.  1.
        -11    1    5    5    0    0 -0.18246155011E+03  0.23715848693E+02 -0.50807276892E+03  0.54036339371E+03  0.00000000000E+00 0. -1.
          1    1    6    6  503    0 -0.70724952455E+02 -0.22766318152E+02 -0.60696195193E+01  0.74546391080E+02  0.00000000000E+00 0. -1.
         -1    1    6    6    0  503 -0.34969153605E+03  0.23880864442E+02  0.12073776322E+03  0.37071832102E+03  0.00000000000E+00 0.  1.
<mgrwt>
<rscale>  0 0.32532524E+04</rscale>
<asrwt>0</asrwt>
<pdfrwt beam="1">  1        2 0.34396906E+00 0.32532524E+04</pdfrwt>
<pdfrwt beam="2">  1       -1 0.18206625E+00 0.32532524E+04</pdfrwt>
<totfact> 0.94498675E-01</totfact>
</mgrwt>
</event>
<event>
12    6  0.1569942E-007  0.1553772E+04  0.7818608E-02  0.8849462E-01
          2   -1    0    0  501    0  0.00000000000E+00  0.00000000000E+00  0.40404568314E+04  0.40404568314E+04  0.00000000000E+00 0. -1.
         -1   -1    0    0    0  501 -0.00000000000E+00 -0.00000000000E+00 -0.14937722311E+03  0.14937722311E+03  0.00000000000E+00 0.  1.
         24    2    1    2    0    0  0.13478375694E+03 -0.39896329843E+03  0.59949521499E+03  0.73759225472E+03  0.85495302805E+02 0.  0.
        254    2    1    2    0    0 -0.13478375694E+03  0.39896329843E+03  0.32915843933E+04  0.34522417997E+04  0.95189666001E+03 0.  0.
         23    2    4    4    0    0 -0.31116233936E+03  0.35503822171E+03  0.68027653639E+03  0.83303989852E+03  0.91132684851E+02 0.  0.
         23    2    4    4    0    0  0.17637858242E+03  0.43925076714E+02  0.26113078569E+04  0.26192019012E+04  0.90835341968E+02 0.  0.
          2    1    3    3  502    0  0.22889578080E+02 -0.16093915620E+02  0.21352899728E+02  0.35197915158E+02  0.00000000000E+00 0. -1.
         -1    1    3    3    0  502  0.11189417886E+03 -0.38286938281E+03  0.57814231526E+03  0.70239433956E+03  0.00000000000E+00 0.  1.
         11    1    5    5    0    0 -0.27249628698E+01  0.98058988820E+01 -0.54546780275E-02  0.10177480301E+02  0.00000000000E+00 0. -1.
        -11    1    5    5    0    0 -0.30843737649E+03  0.34523232283E+03  0.68028199107E+03  0.82286241822E+03  0.00000000000E+00 0.  1.
          4    1    6    6  503    0  0.46656086473E+02 -0.14986449874E+02  0.35047334218E+03  0.35388267500E+03  0.00000000000E+00 0. -1.
         -4    1    6    6    0  503  0.12972249595E+03  0.58911526588E+02  0.22608345147E+04  0.22653192262E+04  0.00000000000E+00 0.  1.
<mgrwt>
<rscale>  0 0.15537725E+04</rscale>
<asrwt>0</asrwt>
<pdfrwt beam="1">  1        2 0.62160866E+00 0.15537725E+04</pdfrwt>
<pdfrwt beam="2">  1       -1 0.22981114E-01 0.15537725E+04</pdfrwt>
<totfact> 0.57486739E+00</totfact>
</mgrwt>
</event>
<event>
12    6  0.1569942E-007  0.1988627E+04  0.7818608E-02  0.8611957E-01
          2   -1    0    0  501    0  0.00000000000E+00  0.00000000000E+00  0.10862673756E+04  0.10862673756E+04  0.00000000000E+00 0. -1.
         -1   -1    0    0    0  501 -0.00000000000E+00 -0.00000000000E+00 -0.91014339598E+03  0.91014339598E+03  0.00000000000E+00 0.  1.
         24    2    1    2    0    0 -0.59727109636E+02  0.37964061167E+03 -0.62029042509E+03  0.73443555208E+03  0.83312946420E+02 0.  0.
        254    2    1    2    0    0  0.59727109636E+02 -0.37964061167E+03  0.79641440471E+03  0.12619752195E+04  0.90033950758E+03 0.  0.
         23    2    4    4    0    0 -0.14659579841E+03 -0.36370769873E+02  0.83030449168E+03  0.84929007204E+03  0.95262356424E+02 0.  0.
         23    2    4    4    0    0  0.20632290804E+03 -0.34326984180E+03 -0.33890086976E+02  0.41268514744E+03  0.93579732063E+02 0.  0.
          2    1    3    3  502    0 -0.48092746301E+02  0.13212614670E+03 -0.17137517166E+03  0.22167471744E+03  0.00000000000E+00 0. -1.
         -3    1    3    3    0  502 -0.11634363336E+02  0.24751446496E+03 -0.44891525343E+03  0.51276083464E+03  0.00000000000E+00 0.  1.
         11    1    5    5    0    0 -0.46998722153E+01  0.23661389799E+02  0.13257581704E+03  0.13475272699E+03  0.00000000000E+00 0. -1.
        -11    1    5    5    0    0 -0.14189592619E+03 -0.60032159672E+02  0.69772867464E+03  0.71453734505E+03  0.00000000000E+00 0.  1.
          2    1    6    6  503    0  0.16733570770E+03 -0.31678864334E+03 -0.52341707906E+02  0.36207173048E+03  0.00000000000E+00 0.  1.
         -2    1    6    6    0  503  0.38987200339E+02 -0.26481198452E+02  0.18451620930E+02  0.50613416963E+02  0.00000000000E+00 0. -1.
<mgrwt>
<rscale>  0 0.19886267E+04</rscale>
<asrwt>0</asrwt>
<pdfrwt beam="1">  1        2 0.16711806E+00 0.19886267E+04</pdfrwt>
<pdfrwt beam="2">  1       -1 0.14002206E+00 0.19886267E+04</pdfrwt>
<totfact> 0.98731115E+00</totfact>
</mgrwt>
</event>
<event>
12    6  0.1569942E-007  0.1810039E+04  0.7818608E-02  0.8700979E-01
          2   -1    0    0  501    0  0.00000000000E+00  0.00000000000E+00  0.21479140525E+04  0.21479140525E+04  0.00000000000E+00 0. -1.
         -1   -1    0    0    0  501 -0.00000000000E+00 -0.00000000000E+00 -0.38132829393E+03  0.38132829393E+03  0.00000000000E+00 0.  1.
         24    2    1    2    0    0  0.47707136446E+03  0.63028315680E+02  0.27799489471E+01  0.48789091870E+03  0.80375152104E+02 0.  0.
        254    2    1    2    0    0 -0.47707136446E+03 -0.63028315680E+02  0.17638058097E+04  0.20413514278E+04  0.90803913026E+03 0.  0.
         23    2    4    4    0    0 -0.59662679998E+03 -0.35146086952E+03  0.12838957884E+04  0.14612976301E+04  0.86683834261E+02 0.  0.
         23    2    4    4    0    0  0.11955543552E+03  0.28843255384E+03  0.47991002126E+03  0.58005379763E+03  0.93069540428E+02 0.  0.
          2    1    3    3  502    0  0.27401557865E+03  0.34715505420E+02  0.41320835101E+02  0.27927963598E+03  0.00000000000E+00 0. -1.
         -1    1    3    3    0  502  0.20305578581E+03  0.28312810259E+02 -0.38540886154E+02  0.20861128272E+03  0.00000000000E+00 0.  1.
         11    1    5    5    0    0 -0.38755027229E+03 -0.20396662422E+03  0.73266365964E+03  0.85357696519E+03  0.00000000000E+00 0. -1.
        -11    1    5    5    0    0 -0.20907652769E+03 -0.14749424530E+03  0.55123212877E+03  0.60772066496E+03  0.00000000000E+00 0.  1.
          1    1    6    6  503    0  0.12763045791E+03  0.28871749690E+03  0.47578825367E+03  0.57098317763E+03  0.00000000000E+00 0. -1.
         -1    1    6    6    0  503 -0.80750223843E+01 -0.28494306106E+00  0.41217675860E+01  0.90706199947E+01  0.00000000000E+00 0.  1.
<mgrwt>
<rscale>  0 0.18100391E+04</rscale>
<asrwt>0</asrwt>
<pdfrwt beam="1">  1        2 0.33044831E+00 0.18100391E+04</pdfrwt>
<pdfrwt beam="2">  1       -1 0.58665892E-01 0.18100391E+04</pdfrwt>
<totfact> 0.17475316E+01</totfact>
</mgrwt>
</event>
<event>
12    6  0.1569942E-007  0.2528585E+04  0.7818608E-02  0.8392872E-01
         -1   -1    0    0    0  501 -0.00000000000E+00  0.00000000000E+00  0.95665358877E+03  0.95665358877E+03  0.00000000000E+00 0.  1.
          2   -1    0    0  501    0  0.00000000000E+00 -0.00000000000E+00 -0.16708611966E+04  0.16708611966E+04  0.00000000000E+00 0. -1.
         24    2    1    2    0    0  0.33375019582E+03  0.13097473497E+03 -0.14094868710E+04  0.14565187453E+04  0.79057202702E+02 0.  0.
        254    2    1    2    0    0 -0.33375019582E+03 -0.13097473497E+03  0.69527926323E+03  0.11709960401E+04  0.87136381471E+03 0.  0.
         23    2    4    4    0    0  0.12983257505E+03  0.23396269802E+03  0.42621880541E+02  0.28656051450E+03  0.93301994420E+02 0.  0.
         23    2    4    4    0    0 -0.46358277087E+03 -0.36493743299E+03  0.65265738268E+03  0.88443552558E+03  0.90422476679E+02 0.  0.
          4    1    3    3  502    0  0.17752464539E+03  0.89140227255E+02 -0.91275329235E+03  0.93411966714E+03  0.00000000000E+00 0. -1.
         -3    1    3    3    0  502  0.15622555044E+03  0.41834507718E+02 -0.49673357868E+03  0.52239907813E+03  0.00000000000E+00 0.  1.
         11    1    5    5    0    0  0.14461245871E+02  0.88564189982E+02 -0.17556229219E+02  0.91438310154E+02  0.00000000000E+00 0. -1.
        -11    1    5    5    0    0  0.11537132917E+03  0.14539850804E+03  0.60178109761E+02  0.19512220435E+03  0.00000000000E+00 0.  1.
          2    1    6    6  503    0 -0.20294363952E+03 -0.21538205250E+03  0.34097235706E+03  0.45148388415E+03  0.00000000000E+00 0. -1.
         -2    1    6    6    0  503 -0.26063913135E+03 -0.14955538049E+03  0.31168502562E+03  0.43295164143E+03  0.00000000000E+00 0.  1.
<mgrwt>
<rscale>  0 0.25285849E+04</rscale>
<asrwt>0</asrwt>
<pdfrwt beam="1">  1        2 0.25705557E+00 0.25285849E+04</pdfrwt>
<pdfrwt beam="2">  1       -1 0.14717748E+00 0.25285849E+04</pdfrwt>
<totfact> 0.37870328E+00</totfact>
</mgrwt>
</event>
<event>
12    6  0.1569942E-007  0.1698885E+04  0.7818608E-02  0.8762000E-01
          2   -1    0    0  501    0  0.00000000000E+00  0.00000000000E+00  0.53697147897E+03  0.53697147897E+03  0.00000000000E+00 0. -1.
         -1   -1    0    0    0  501 -0.00000000000E+00 -0.00000000000E+00 -0.13437454522E+04  0.13437454522E+04  0.00000000000E+00 0.  1.
         24    2    1    2    0    0  0.38768871504E+03 -0.33628370134E+03 -0.65451892356E+03  0.83552983728E+03  0.79535024557E+02 0.  0.
        254    2    1    2    0    0 -0.38768871504E+03  0.33628370134E+03 -0.15225504967E+03  0.10451870939E+04  0.89768880662E+03 0.  0.
         23    2    4    4    0    0  0.12099731129E+03 -0.12078775322E+03  0.19295564999E+03  0.27368445440E+03  0.91876368303E+02 0.  0.
         23    2    4    4    0    0 -0.50868602633E+03  0.45707145456E+03 -0.34521069965E+03  0.77150263949E+03  0.91488292343E+02 0.  0.
          4    1    3    3  502    0  0.85242581949E+01  0.37400018525E+01 -0.66259451975E+01  0.11426011613E+02  0.00000000000E+00 0. -1.
         -3    1    3    3    0  502  0.37916445684E+03 -0.34002370319E+03 -0.64789297836E+03  0.82410382566E+03  0.00000000000E+00 0.  1.
         11    1    5    5    0    0  0.10476849963E+03 -0.96045944738E+02  0.19793488392E+03  0.24367905180E+03  0.00000000000E+00 0.  1.
        -11    1    5    5    0    0  0.16228811659E+02 -0.24741808478E+02 -0.49792339304E+01  0.30005402599E+02  0.00000000000E+00 0. -1.
          4    1    6    6  503    0 -0.36844248754E+03  0.31820011813E+03 -0.19923577923E+03  0.52601908476E+03  0.00000000000E+00 0. -1.
         -4    1    6    6    0  503 -0.14024353879E+03  0.13887133642E+03 -0.14597492043E+03  0.24548355474E+03  0.00000000000E+00 0.  1.
<mgrwt>
<rscale>  0 0.16988855E+04</rscale>
<asrwt>0</asrwt>
<pdfrwt beam="1">  1        2 0.82610997E-01 0.16988855E+04</pdfrwt>
<pdfrwt beam="2">  1       -1 0.20673007E+00 0.16988855E+04</pdfrwt>
<totfact> 0.83329838E+00</totfact>
</mgrwt>
</event>
<event>
12    6  0.1569942E-007  0.1285835E+04  0.7818608E-02  0.9040875E-01
          2   -1    0    0  501    0  0.00000000000E+00  0.00000000000E+00  0.58485930201E+03  0.58485930201E+03  0.00000000000E+00 0. -1.
         -1   -1    0    0    0  501 -0.00000000000E+00 -0.00000000000E+00 -0.70673853773E+03  0.70673853773E+03  0.00000000000E+00 0.  1.
         24    2    1    2    0    0  0.94684503778E+02 -0.30679953023E+03  0.68330995484E+01  0.33155480186E+03  0.82406239924E+02 0.  0.
        254    2    1    2    0    0 -0.94684503778E+02  0.30679953023E+03 -0.12871233528E+03  0.96004303788E+03  0.89555829644E+03 0.  0.
         23    2    4    4    0    0 -0.47029699122E+03  0.27201991115E+03 -0.15142167826E+03  0.57142818761E+03  0.91801726223E+02 0.  0.
         23    2    4    4    0    0  0.37561248744E+03  0.34779619080E+02  0.22709342986E+02  0.38861485027E+03  0.90616913261E+02 0.  0.
          2    1    3    3  502    0  0.29981188605E+02 -0.13047665000E+03  0.42330965446E+02  0.14040989459E+03  0.00000000000E+00 0. -1.
         -1    1    3    3    0  502  0.64703315173E+02 -0.17632288024E+03 -0.35497865897E+02  0.19114490726E+03  0.00000000000E+00 0.  1.
         11    1    5    5    0    0 -0.19390770349E+03  0.13035395912E+03 -0.10948311795E+03  0.25802888452E+03  0.00000000000E+00 0. -1.
        -11    1    5    5    0    0 -0.27638928773E+03  0.14166595203E+03 -0.41938560309E+02  0.31339930309E+03  0.00000000000E+00 0.  1.
          3    1    6    6  503    0  0.20750454129E+03 -0.49307715884E+01  0.50603550437E+02  0.21364261392E+03  0.00000000000E+00 0. -1.
         -3    1    6    6    0  503  0.16810794615E+03  0.39710390669E+02 -0.27894207451E+02  0.17497223635E+03  0.00000000000E+00 0.  1.
<mgrwt>
<rscale>  0 0.12858345E+04</rscale>
<asrwt>0</asrwt>
<pdfrwt beam="1">  1        2 0.89978354E-01 0.12858345E+04</pdfrwt>
<pdfrwt beam="2">  1       -1 0.10872901E+00 0.12858345E+04</pdfrwt>
<totfact> 0.45016623E+01</totfact>
</mgrwt>
</event>
<event>
12    6  0.1569942E-007  0.1719204E+04  0.7818608E-02  0.8750487E-01
          2   -1    0    0  501    0  0.00000000000E+00  0.00000000000E+00  0.20281380545E+04  0.20281380545E+04  0.00000000000E+00 0. -1.
         -1   -1    0    0    0  501 -0.00000000000E+00 -0.00000000000E+00 -0.36433184085E+03  0.36433184085E+03  0.00000000000E+00 0.  1.
         24    2    1    2    0    0 -0.45651998080E+03 -0.37370487413E+03  0.83354163938E+03  0.10245246024E+04  0.82420691811E+02 0.  0.
        254    2    1    2    0    0  0.45651998080E+03  0.37370487413E+03  0.83026457432E+03  0.13679452930E+04  0.91316440773E+03 0.  0.
         23    2    4    4    0    0  0.71523299492E+03  0.17441932903E+03  0.49802045120E+03  0.89404692896E+03  0.96515294126E+02 0.  0.
         23    2    4    4    0    0 -0.25871301413E+03  0.19928554510E+03  0.33224412312E+03  0.47389836407E+03  0.86869729820E+02 0.  0.
          2    1    3    3  502    0 -0.73503080608E+02 -0.51805254586E+02  0.82143102821E+02  0.12179481353E+03  0.00000000000E+00 0. -1.
         -1    1    3    3    0  502 -0.38301690019E+03 -0.32189961955E+03  0.75139853656E+03  0.90272978883E+03  0.00000000000E+00 0.  1.
         11    1    5    5    0    0  0.51640125453E+03  0.15225514220E+03  0.32034430008E+03  0.62647614049E+03  0.00000000000E+00 0. -1.
        -11    1    5    5    0    0  0.19883174040E+03  0.22164186829E+02  0.17767615113E+03  0.26757078848E+03  0.00000000000E+00 0.  1.
          2    1    6    6  503    0 -0.18131850148E+03  0.93374086987E+02  0.23132796187E+03  0.30839543615E+03  0.00000000000E+00 0. -1.
         -2    1    6    6    0  503 -0.77394512651E+02  0.10591145811E+03  0.10091616125E+03  0.16550292792E+03  0.00000000000E+00 0.  1.
<mgrwt>
<rscale>  0 0.17192036E+04</rscale>
<asrwt>0</asrwt>
<pdfrwt beam="1">  1        2 0.31202123E+00 0.17192036E+04</pdfrwt>
<pdfrwt beam="2">  1       -1 0.56051054E-01 0.17192036E+04</pdfrwt>
<totfact> 0.22458854E+01</totfact>
</mgrwt>
</event>
<event>
12    6  0.1569942E-007  0.1432228E+04  0.7818608E-02  0.8930815E-01
         -1   -1    0    0    0  501 -0.00000000000E+00  0.00000000000E+00  0.40799071246E+03  0.40799071246E+03  0.00000000000E+00 0.  1.
          2   -1    0    0  501    0  0.00000000000E+00 -0.00000000000E+00 -0.12569383233E+04  0.12569383233E+04  0.00000000000E+00 0. -1.
         24    2    1    2    0    0  0.40246148026E+03  0.10095845707E+03 -0.13546687939E+03  0.44334421337E+03  0.77685024124E+02 0.  0.
        254    2    1    2    0    0 -0.40246148026E+03 -0.10095845707E+03 -0.71348073142E+03  0.12215848224E+04  0.90058140718E+03 0.  0.
         23    2    4    4    0    0 -0.39503691321E+03 -0.46400648150E+03 -0.46719770284E+03  0.77324481247E+03  0.90981694829E+02 0.  0.
         23    2    4    4    0    0 -0.74245670504E+01  0.36304802444E+03 -0.24628302858E+03  0.44834000989E+03  0.92165297478E+02 0.  0.
          4    1    3    3  502    0  0.55109539258E+01 -0.63466696838E+01 -0.10755012552E+02  0.13649949606E+02  0.00000000000E+00 0. -1.
         -3    1    3    3    0  502  0.39695052633E+03  0.10730512675E+03 -0.12471186684E+03  0.42969426377E+03  0.00000000000E+00 0.  1.
         11    1    5    5    0    0 -0.18008497197E+03 -0.18055853312E+03 -0.24611626594E+03  0.35440823547E+03  0.00000000000E+00 0.  1.
        -11    1    5    5    0    0 -0.21495194124E+03 -0.28344794838E+03 -0.22108143690E+03  0.41883657699E+03  0.00000000000E+00 0. -1.
          1    1    6    6  503    0 -0.36311295012E+02  0.32418382256E+03 -0.21503160843E+03  0.39070737590E+03  0.00000000000E+00 0. -1.
         -1    1    6    6    0  503  0.28886727961E+02  0.38864201874E+02 -0.31251420150E+02  0.57632633994E+02  0.00000000000E+00 0.  1.
<mgrwt>
<rscale>  0 0.14322279E+04</rscale>
<asrwt>0</asrwt>
<pdfrwt beam="1">  1        2 0.19337512E+00 0.14322279E+04</pdfrwt>
<pdfrwt beam="2">  1       -1 0.62767803E-01 0.14322279E+04</pdfrwt>
<totfact> 0.49936737E+01</totfact>
</mgrwt>
</event>
<event>
12    6  0.1569942E-007  0.1288897E+04  0.7818608E-02  0.9038417E-01
         -1   -1    0    0    0  501 -0.00000000000E+00  0.00000000000E+00  0.33620507818E+03  0.33620507818E+03  0.00000000000E+00 0.  1.
          2   -1    0    0  501    0  0.00000000000E+00 -0.00000000000E+00 -0.12352985094E+04  0.12352985094E+04  0.00000000000E+00 0. -1.
         24    2    1    2    0    0  0.24026919479E+02 -0.20305904071E+03  0.74327250876E+02  0.23197925851E+03  0.80495771832E+02 0.  0.
        254    2    1    2    0    0 -0.24026919479E+02  0.20305904071E+03 -0.97342068207E+03  0.13395243290E+04  0.89719971965E+03 0.  0.
         23    2    4    4    0    0 -0.17516970107E+03  0.24817891723E+02 -0.10565372699E+04  0.10752693199E+04  0.92912624147E+02 0.  0.
         23    2    4    4    0    0  0.15114278159E+03  0.17824114899E+03  0.83116587874E+02  0.26425500909E+03  0.91149849315E+02 0.  0.
          4    1    3    3  502    0  0.16830652054E+02 -0.30975228071E+01  0.16324974664E+02  0.23651010420E+02  0.00000000000E+00 0. -1.
         -3    1    3    3    0  502  0.71962674247E+01 -0.19996151791E+03  0.58002276212E+02  0.20832824809E+03  0.00000000000E+00 0.  1.
         11    1    5    5    0    0 -0.50749352109E+02  0.15615955188E+02 -0.58845961564E+03  0.59085029748E+03  0.00000000000E+00 0.  1.
        -11    1    5    5    0    0 -0.12442034896E+03  0.92019365355E+01 -0.46807765431E+03  0.48441902247E+03  0.00000000000E+00 0. -1.
          1    1    6    6  503    0  0.74403032362E+02  0.12317800693E+03  0.89824827849E+01  0.14418501174E+03  0.00000000000E+00 0. -1.
         -1    1    6    6    0  503  0.76739749226E+02  0.55063142064E+02  0.74134105089E+02  0.12006999735E+03  0.00000000000E+00 0.  1.
<mgrwt>
<rscale>  0 0.12888966E+04</rscale>
<asrwt>0</asrwt>
<pdfrwt beam="1">  1        2 0.19004593E+00 0.12888966E+04</pdfrwt>
<pdfrwt beam="2">  1       -1 0.51723857E-01 0.12888966E+04</pdfrwt>
<totfact> 0.75896604E+01</totfact>
</mgrwt>
</event>
<event>
12    6  0.1569942E-007  0.1750647E+04  0.7818608E-02  0.8732994E-01
          2   -1    0    0  501    0  0.00000000000E+00  0.00000000000E+00  0.14397426335E+04  0.14397426335E+04  0.00000000000E+00 0. -1.
         -1   -1    0    0    0  501 -0.00000000000E+00 -0.00000000000E+00 -0.53217218771E+03  0.53217218771E+03  0.00000000000E+00 0.  1.
         24    2    1    2    0    0  0.52358272726E+03  0.27684166589E+03  0.91224352359E+02  0.60449267908E+03  0.79431330971E+02 0.  0.
        254    2    1    2    0    0 -0.52358272726E+03 -0.27684166589E+03  0.81634609344E+03  0.13674221421E+04  0.92338626275E+03 0.  0.
         23    2    4    4    0    0 -0.10147121144E+03  0.32699552884E+03  0.25553485187E+03  0.43705048829E+03  0.92155228631E+02 0.  0.
         23    2    4    4    0    0 -0.42211151582E+03 -0.60383719473E+03  0.56081124157E+03  0.93037165383E+03  0.91020195863E+02 0.  0.
          4    1    3    3  502    0  0.46774379553E+03  0.25859991233E+03  0.10370566771E+03  0.54443827788E+03  0.00000000000E+00 0. -1.
         -1    1    3    3    0  502  0.55838931737E+02  0.18241753561E+02 -0.12481315350E+02  0.60054401199E+02  0.00000000000E+00 0.  1.
         11    1    5    5    0    0 -0.76541091760E+01  0.17022492016E+02 -0.72152558206E+01  0.20010260825E+02  0.00000000000E+00 0. -1.
        -11    1    5    5    0    0 -0.93817102267E+02  0.30997303682E+03  0.26275010769E+03  0.41704022747E+03  0.00000000000E+00 0.  1.
          1    1    6    6  503    0 -0.28737439239E+02 -0.54451812415E+02  0.80546393309E+02  0.10138324203E+03  0.00000000000E+00 0. -1.
         -1    1    6    6    0  503 -0.39337407658E+03 -0.54938538232E+03  0.48026484826E+03  0.82898841180E+03  0.00000000000E+00 0.  1.
<mgrwt>
<rscale>  0 0.17506467E+04</rscale>
<asrwt>0</asrwt>
<pdfrwt beam="1">  1        2 0.22149886E+00 0.17506467E+04</pdfrwt>
<pdfrwt beam="2">  1       -1 0.81872645E-01 0.17506467E+04</pdfrwt>
<totfact> 0.22021340E+01</totfact>
</mgrwt>
</event>
<event>
12    6  0.1569942E-007  0.1358504E+04  0.7818608E-02  0.8984415E-01
         -1   -1    0    0    0  501 -0.00000000000E+00  0.00000000000E+00  0.53161041745E+03  0.53161041745E+03  0.00000000000E+00 0.  1.
          2   -1    0    0  501    0  0.00000000000E+00 -0.00000000000E+00 -0.86789793607E+03  0.86789793607E+03  0.00000000000E+00 0. -1.
         24    2    1    2    0    0  0.13010411364E+03  0.10759784786E+03 -0.43893706560E+03  0.47746862723E+03  0.82499485925E+02 0.  0.
        254    2    1    2    0    0 -0.13010411364E+03 -0.10759784786E+03  0.10264954698E+03  0.92203972629E+03  0.90061975889E+03 0.  0.
         23    2    4    4    0    0  0.13807409096E+03 -0.35650987727E+03 -0.19709918926E+03  0.43926168435E+03  0.89101008675E+02 0.  0.
         23    2    4    4    0    0 -0.26817820459E+03  0.24891202941E+03  0.29974873625E+03  0.48277804194E+03  0.96688081434E+02 0.  0.
          4    1    3    3  502    0  0.44580087006E+02  0.85188240308E+02 -0.27319523625E+03  0.28962054063E+03  0.00000000000E+00 0. -1.
         -3    1    3    3    0  502  0.85524026633E+02  0.22409607553E+02 -0.16574182935E+03  0.18784808660E+03  0.00000000000E+00 0.  1.
         11    1    5    5    0    0  0.38376284074E+02 -0.36405326541E+02 -0.56968241936E+01  0.53202826859E+02  0.00000000000E+00 0.  1.
        -11    1    5    5    0    0  0.99697806882E+02 -0.32010455073E+03 -0.19140236507E+03  0.38605885749E+03  0.00000000000E+00 0. -1.
          2    1    6    6  503    0 -0.98298181065E+02  0.12783463983E+03  0.18225656079E+03  0.24335505232E+03  0.00000000000E+00 0. -1.
         -2    1    6    6    0  503 -0.16988002353E+03  0.12107738958E+03  0.11749217546E+03  0.23942298962E+03  0.00000000000E+00 0.  1.
<mgrwt>
<rscale>  0 0.13585044E+04</rscale>
<asrwt>0</asrwt>
<pdfrwt beam="1">  1        2 0.13352276E+00 0.13585044E+04</pdfrwt>
<pdfrwt beam="2">  1       -1 0.81786218E-01 0.13585044E+04</pdfrwt>
<totfact> 0.51151381E+01</totfact>
</mgrwt>
</event>
<event>
12    6  0.1569942E-007  0.1811155E+04  0.7818608E-02  0.8700390E-01
          2   -1    0    0  501    0  0.00000000000E+00  0.00000000000E+00  0.22356232384E+04  0.22356232384E+04  0.00000000000E+00 0. -1.
         -1   -1    0    0    0  501 -0.00000000000E+00 -0.00000000000E+00 -0.36681965314E+03  0.36681965314E+03  0.00000000000E+00 0.  1.
         24    2    1    2    0    0 -0.29714068995E+03  0.44964607902E+03  0.11510384283E+03  0.55669433708E+03  0.78647977119E+02 0.  0.
        254    2    1    2    0    0  0.29714068995E+03 -0.44964607902E+03  0.17536997424E+04  0.20457485544E+04  0.90506915508E+03 0.  0.
         23    2    4    4    0    0  0.46664536262E+03 -0.27376265750E+02  0.42517166701E+03  0.63829754611E+03  0.90252183155E+02 0.  0.
         23    2    4    4    0    0 -0.16950467267E+03 -0.42226981327E+03  0.13285280754E+04  0.14074510083E+04  0.94275471171E+02 0.  0.
          2    1    3    3  502    0 -0.15464486701E+03  0.24108379706E+03  0.10100581111E+03  0.30370809336E+03  0.00000000000E+00 0. -1.
         -1    1    3    3    0  502 -0.14249582294E+03  0.20856228196E+03  0.14098031714E+02  0.25298624372E+03  0.00000000000E+00 0.  1.
         11    1    5    5    0    0  0.34393411525E+03  0.19858122397E+02  0.31310049888E+03  0.46552867050E+03  0.00000000000E+00 0. -1.
        -11    1    5    5    0    0  0.12271124737E+03 -0.47234388147E+02  0.11207116813E+03  0.17276887562E+03  0.00000000000E+00 0.  1.
          2    1    6    6  503    0 -0.15633340687E+03 -0.40328606423E+03  0.13035056569E+04  0.13733924353E+04  0.00000000000E+00 0. -1.
         -2    1    6    6    0  503 -0.13171265799E+02 -0.18983749039E+02  0.25022418472E+02  0.34058573025E+02  0.00000000000E+00 0.  1.
<mgrwt>
<rscale>  0 0.18111549E+04</rscale>
<asrwt>0</asrwt>
<pdfrwt beam="1">  1        2 0.34394203E+00 0.18111549E+04</pdfrwt>
<pdfrwt beam="2">  1       -1 0.56433794E-01 0.18111549E+04</pdfrwt>
<totfact> 0.16833298E+01</totfact>
</mgrwt>
</event>
<event>
12    6  0.1569942E-007  0.1727192E+04  0.7818608E-02  0.8746006E-01
         -1   -1    0    0    0  501 -0.00000000000E+00  0.00000000000E+00  0.71255585906E+03  0.71255585906E+03  0.00000000000E+00 0.  1.
          2   -1    0    0  501    0  0.00000000000E+00 -0.00000000000E+00 -0.10466519258E+04  0.10466519258E+04  0.00000000000E+00 0. -1.
         24    2    1    2    0    0  0.86730425207E+02 -0.40119829675E+03  0.36710432898E+03  0.55639071277E+03  0.79516016811E+02 0.  0.
        254    2    1    2    0    0 -0.86730425207E+02  0.40119829675E+03 -0.70120039574E+03  0.12028170721E+04  0.88690736494E+03 0.  0.
         23    2    4    4    0    0 -0.46416608239E+02  0.59707920580E+03 -0.76302027855E+03  0.97403064209E+03  0.88756220847E+02 0.  0.
         23    2    4    4    0    0 -0.40313816968E+02 -0.19588090905E+03  0.61819882802E+02  0.22878643002E+03  0.92341747229E+02 0.  0.
          2    1    3    3  502    0  0.56166949866E+02 -0.11284377889E+03  0.86462983752E+02  0.15285382642E+03  0.00000000000E+00 0. -1.
         -1    1    3    3    0  502  0.30563475341E+02 -0.28835451786E+03  0.28064134523E+03  0.40353688635E+03  0.00000000000E+00 0.  1.
         11    1    5    5    0    0 -0.44622578086E+02  0.31193863256E+03 -0.46361510049E+03  0.56056743249E+03  0.00000000000E+00 0.  1.
        -11    1    5    5    0    0 -0.17940301532E+01  0.28514057324E+03 -0.29940517805E+03  0.41346320960E+03  0.00000000000E+00 0. -1.
          4    1    6    6  503    0  0.89865923493E+01 -0.46581421041E+02  0.53260238731E+02  0.71324895078E+02  0.00000000000E+00 0.  1.
         -4    1    6    6    0  503 -0.49300409317E+02 -0.14929948801E+03  0.85596440715E+01  0.15746153494E+03  0.00000000000E+00 0. -1.
<mgrwt>
<rscale>  0 0.17271919E+04</rscale>
<asrwt>0</asrwt>
<pdfrwt beam="1">  1        2 0.16102337E+00 0.17271919E+04</pdfrwt>
<pdfrwt beam="2">  1       -1 0.10962398E+00 0.17271919E+04</pdfrwt>
<totfact> 0.19606279E+01</totfact>
</mgrwt>
</event>
<event>
12    6  0.1569942E-007  0.1870270E+04  0.7818608E-02  0.8669798E-01
         -1   -1    0    0    0  501 -0.00000000000E+00  0.00000000000E+00  0.65651909694E+03  0.65651909694E+03  0.00000000000E+00 0.  1.
          2   -1    0    0  501    0  0.00000000000E+00 -0.00000000000E+00 -0.13319904013E+04  0.13319904013E+04  0.00000000000E+00 0. -1.
         24    2    1    2    0    0  0.63522411163E+02  0.17398335387E+03  0.47536141163E+03  0.51633839777E+03  0.79571132993E+02 0.  0.
        254    2    1    2    0    0 -0.63522411163E+02 -0.17398335387E+03 -0.11508327160E+04  0.14721711004E+04  0.89920326106E+03 0.  0.
         23    2    4    4    0    0 -0.40640415977E+03 -0.24206092923E+03 -0.35724038850E+03  0.59986995104E+03  0.92007762958E+02 0.  0.
         23    2    4    4    0    0  0.34288174861E+03  0.68077575358E+02 -0.79359232746E+03  0.87230114940E+03  0.94435497793E+02 0.  0.
          4    1    3    3  502    0 -0.15924974509E+02  0.57130754895E+02  0.16463604169E+03  0.17499301184E+03  0.00000000000E+00 0. -1.
         -3    1    3    3    0  502  0.79447385672E+02  0.11685259897E+03  0.31072536994E+03  0.34134538594E+03  0.00000000000E+00 0.  1.
         11    1    5    5    0    0 -0.21060738714E+03 -0.17782411516E+03 -0.19603140037E+03  0.33823837361E+03  0.00000000000E+00 0. -1.
        -11    1    5    5    0    0 -0.19579677263E+03 -0.64236814067E+02 -0.16120898812E+03  0.26163157742E+03  0.00000000000E+00 0.  1.
          2    1    6    6  503    0  0.31355143558E+03  0.35255033540E+02 -0.65795537021E+03  0.72970041067E+03  0.00000000000E+00 0.  1.
         -2    1    6    6    0  503  0.29330313027E+02  0.32822541817E+02 -0.13563695725E+03  0.14260073873E+03  0.00000000000E+00 0. -1.
<mgrwt>
<rscale>  0 0.18702696E+04</rscale>
<asrwt>0</asrwt>
<pdfrwt beam="1">  1        2 0.20492160E+00 0.18702696E+04</pdfrwt>
<pdfrwt beam="2">  1       -1 0.10100294E+00 0.18702696E+04</pdfrwt>
<totfact> 0.15787941E+01</totfact>
</mgrwt>
</event>
<event>
12    6  0.1569942E-007  0.1234370E+04  0.7818608E-02  0.9083293E-01
          2   -1    0    0  501    0  0.00000000000E+00  0.00000000000E+00  0.21424336744E+04  0.21424336744E+04  0.00000000000E+00 0. -1.
         -1   -1    0    0    0  501 -0.00000000000E+00 -0.00000000000E+00 -0.17779660279E+03  0.17779660279E+03  0.00000000000E+00 0.  1.
         24    2    1    2    0    0  0.17098852909E+03 -0.78531785957E+02  0.11264360767E+03  0.23310675309E+03  0.79030737706E+02 0.  0.
        254    2    1    2    0    0 -0.17098852909E+03  0.78531785957E+02  0.18519934639E+04  0.20871235241E+04  0.94382227982E+03 0.  0.
         23    2    4    4    0    0  0.26352656457E+03  0.33233928612E+03  0.10488518044E+04  0.11350041803E+04  0.90822520940E+02 0.  0.
         23    2    4    4    0    0 -0.43451509366E+03 -0.25380750016E+03  0.80314165949E+03  0.95211934378E+03  0.90956615160E+02 0.  0.
          2    1    3    3  502    0  0.97981220798E+02 -0.66468767898E+02  0.10581867672E+03  0.15879549452E+03  0.00000000000E+00 0. -1.
         -1    1    3    3    0  502  0.73007308293E+02 -0.12063018059E+02  0.68249309462E+01  0.74311258577E+02  0.00000000000E+00 0.  1.
         11    1    5    5    0    0  0.14082139173E+03  0.22196970923E+03  0.55065092990E+03  0.61017838604E+03  0.00000000000E+00 0. -1.
        -11    1    5    5    0    0  0.12270517284E+03  0.11036957689E+03  0.49820087451E+03  0.52482579425E+03  0.00000000000E+00 0.  1.
          1    1    6    6  503    0 -0.40104512792E+03 -0.25137867628E+03  0.77600536739E+03  0.90896246552E+03  0.00000000000E+00 0. -1.
         -1    1    6    6    0  503 -0.33469965738E+02 -0.24288238793E+01  0.27136292104E+02  0.43156878259E+02  0.00000000000E+00 0.  1.
<mgrwt>
<rscale>  0 0.12343702E+04</rscale>
<asrwt>0</asrwt>
<pdfrwt beam="1">  1        2 0.32960516E+00 0.12343702E+04</pdfrwt>
<pdfrwt beam="2">  1       -1 0.27353325E-01 0.12343702E+04</pdfrwt>
<totfact> 0.74971869E+01</totfact>
</mgrwt>
</event>
<event>
12    6  0.1569942E-007  0.1904777E+04  0.7818608E-02  0.8652482E-01
          2   -1    0    0  501    0  0.00000000000E+00  0.00000000000E+00  0.18395134029E+04  0.18395134029E+04  0.00000000000E+00 0. -1.
         -1   -1    0    0    0  501 -0.00000000000E+00 -0.00000000000E+00 -0.49308922601E+03  0.49308922601E+03  0.00000000000E+00 0.  1.
         24    2    1    2    0    0 -0.30483896903E+02  0.54361254513E+03 -0.68232770387E+02  0.55410768453E+03  0.77043805089E+02 0.  0.
        254    2    1    2    0    0  0.30483896903E+02 -0.54361254513E+03  0.14146569473E+04  0.17784949444E+04  0.93023981936E+03 0.  0.
         23    2    4    4    0    0 -0.33237524312E+03 -0.60305233077E+03  0.98721583269E+03  0.12074200140E+04  0.95512166907E+02 0.  0.
         23    2    4    4    0    0  0.36285914003E+03  0.59439785640E+02  0.42744111462E+03  0.57107493040E+03  0.90668771068E+02 0.  0.
          4    1    3    3  502    0  0.74132067715E+01  0.23010835014E+02 -0.17137591635E+02  0.29633616211E+02  0.00000000000E+00 0. -1.
         -3    1    3    3    0  502 -0.37897103675E+02  0.52060171012E+03 -0.51095178752E+02  0.52447406832E+03  0.00000000000E+00 0.  1.
         11    1    5    5    0    0 -0.24262604886E+03 -0.47784440783E+03  0.82436325534E+03  0.98324841950E+03  0.00000000000E+00 0.  1.
        -11    1    5    5    0    0 -0.89749194267E+02 -0.12520792294E+03  0.16285257734E+03  0.22417159451E+03  0.00000000000E+00 0. -1.
          3    1    6    6  503    0  0.16959747157E+03  0.40758345617E+02  0.26836089077E+03  0.32006579448E+03  0.00000000000E+00 0. -1.
         -3    1    6    6    0  503  0.19326166846E+03  0.18681440022E+02  0.15908022385E+03  0.25100913592E+03  0.00000000000E+00 0.  1.
<mgrwt>
<rscale>  0 0.19047774E+04</rscale>
<asrwt>0</asrwt>
<pdfrwt beam="1">  1        2 0.28300206E+00 0.19047774E+04</pdfrwt>
<pdfrwt beam="2">  1       -1 0.75859881E-01 0.19047774E+04</pdfrwt>
<totfact> 0.15267852E+01</totfact>
</mgrwt>
</event>
<event>
12    6  0.1569942E-007  0.3749324E+04  0.7818608E-02  0.8057118E-01
          2   -1    0    0  501    0  0.00000000000E+00  0.00000000000E+00  0.36946185943E+04  0.36946185943E+04  0.00000000000E+00 0. -1.
         -1   -1    0    0    0  501 -0.00000000000E+00 -0.00000000000E+00 -0.95120980798E+03  0.95120980798E+03  0.00000000000E+00 0.  1.
         24    2    1    2    0    0  0.15525509734E+04 -0.74299467660E+03  0.82833636873E+03  0.19118441697E+04  0.80940565540E+02 0.  0.
        254    2    1    2    0    0 -0.15525509734E+04  0.74299467660E+03  0.19150724176E+04  0.27339842325E+04  0.91908204468E+03 0.  0.
         23    2    4    4    0    0 -0.48042690987E+03  0.47413879412E+02  0.11277970971E+04  0.12302202264E+04  0.91964240441E+02 0.  0.
         23    2    4    4    0    0 -0.10721240635E+04  0.69558079719E+03  0.78727532051E+03  0.15037640062E+04  0.90670298493E+02 0.  0.
          2    1    3    3  502    0  0.52794757622E+03 -0.21676758473E+03  0.29681104625E+03  0.64328347266E+03  0.00000000000E+00 0. -1.
         -1    1    3    3    0  502  0.10246033972E+04 -0.52622709188E+03  0.53152532248E+03  0.12685606971E+04  0.00000000000E+00 0.  1.
         11    1    5    5    0    0 -0.27143425791E+02 -0.13372448349E+02  0.39699318868E+02  0.49916168294E+02  0.00000000000E+00 0. -1.
        -11    1    5    5    0    0 -0.45328348408E+03  0.60786327761E+02  0.10880977782E+04  0.11803040581E+04  0.00000000000E+00 0.  1.
          1    1    6    6  503    0 -0.29869342746E+03  0.14950293618E+03  0.18871729572E+03  0.38364450894E+03  0.00000000000E+00 0. -1.
         -1    1    6    6    0  503 -0.77343063604E+03  0.54607786101E+03  0.59855802479E+03  0.11201194972E+04  0.00000000000E+00 0.  1.
<mgrwt>
<rscale>  0 0.37493239E+04</rscale>
<asrwt>0</asrwt>
<pdfrwt beam="1">  1        2 0.56840286E+00 0.37493239E+04</pdfrwt>
<pdfrwt beam="2">  1       -1 0.14633997E+00 0.37493239E+04</pdfrwt>
<totfact> 0.20019970E-01</totfact>
</mgrwt>
</event>
<event>
12    6  0.1569942E-007  0.1807149E+04  0.7818608E-02  0.8702507E-01
         -1   -1    0    0    0  501 -0.00000000000E+00  0.00000000000E+00  0.70751441683E+03  0.70751441683E+03  0.00000000000E+00 0.  1.
          2   -1    0    0  501    0  0.00000000000E+00 -0.00000000000E+00 -0.11539643957E+04  0.11539643957E+04  0.00000000000E+00 0. -1.
         24    2    1    2    0    0 -0.59594721428E+03  0.31168554268E+03 -0.12025533765E+03  0.68785752993E+03  0.79910421887E+02 0.  0.
        254    2    1    2    0    0  0.59594721428E+03 -0.31168554268E+03 -0.32619464124E+03  0.11736212826E+04  0.90481103624E+03 0.  0.
         23    2    4    4    0    0  0.66207832511E+03 -0.41670126513E+03 -0.50847895244E+03  0.93755907085E+03  0.92078842882E+02 0.  0.
         23    2    4    4    0    0 -0.66131110831E+02  0.10501572246E+03  0.18228431120E+03  0.23606221176E+03  0.84238779239E+02 0.  0.
          2    1    3    3  502    0 -0.44365134891E+03  0.25782026089E+03 -0.11694234924E+03  0.52628254708E+03  0.00000000000E+00 0. -1.
         -1    1    3    3    0  502 -0.15229586537E+03  0.53865281785E+02 -0.33129884100E+01  0.16157498285E+03  0.00000000000E+00 0.  1.
         11    1    5    5    0    0  0.97830152000E+02 -0.10263115487E+03 -0.84791815044E+02  0.16520758000E+03  0.00000000000E+00 0.  1.
        -11    1    5    5    0    0  0.56424817311E+03 -0.31407011026E+03 -0.42368713740E+03  0.77235149085E+03  0.00000000000E+00 0. -1.
          4    1    6    6  503    0 -0.22021338019E+02  0.10265282999E+03  0.13923535755E+03  0.17438184431E+03  0.00000000000E+00 0. -1.
         -4    1    6    6    0  503 -0.44109772813E+02  0.23628924708E+01  0.43048953651E+02  0.61680367450E+02  0.00000000000E+00 0.  1.
<mgrwt>
<rscale>  0 0.18071485E+04</rscale>
<asrwt>0</asrwt>
<pdfrwt beam="1">  1        2 0.17753298E+00 0.18071485E+04</pdfrwt>
<pdfrwt beam="2">  1       -1 0.10884837E+00 0.18071485E+04</pdfrwt>
<totfact> 0.16999406E+01</totfact>
</mgrwt>
</event>
<event>
12    6  0.1569942E-007  0.1240734E+04  0.7818608E-02  0.9077930E-01
         -1   -1    0    0    0  501 -0.00000000000E+00  0.00000000000E+00  0.51623374923E+03  0.51623374923E+03  0.00000000000E+00 0.  1.
          2   -1    0    0  501    0  0.00000000000E+00 -0.00000000000E+00 -0.74550624240E+03  0.74550624240E+03  0.00000000000E+00 0. -1.
         24    2    1    2    0    0 -0.28881834498E+02  0.18516399503E+03  0.17476623785E+03  0.26874785536E+03  0.81008064106E+02 0.  0.
        254    2    1    2    0    0  0.28881834498E+02 -0.18516399503E+03 -0.40403873101E+03  0.99299213627E+03  0.88750561751E+03 0.  0.
         23    2    4    4    0    0  0.15835342407E+03 -0.50396628590E+03 -0.15660291044E+03  0.55891271559E+03  0.93814326495E+02 0.  0.
         23    2    4    4    0    0 -0.12947158957E+03  0.31880229087E+03 -0.24743582056E+03  0.43407942067E+03  0.93822518543E+02 0.  0.
          2    1    3    3  502    0  0.18236246093E+02  0.21128867330E+02  0.50264974464E+02  0.57493976764E+02  0.00000000000E+00 0. -1.
         -1    1    3    3    0  502 -0.47118080591E+02  0.16403512770E+03  0.12450126338E+03  0.21125387860E+03  0.00000000000E+00 0.  1.
         11    1    5    5    0    0  0.12097731257E+03 -0.46511497758E+03 -0.15503638235E+03  0.50497894251E+03  0.00000000000E+00 0. -1.
        -11    1    5    5    0    0  0.37376111502E+02 -0.38851308320E+02 -0.15665280989E+01  0.53933773088E+02  0.00000000000E+00 0.  1.
          2    1    6    6  503    0 -0.31720541776E+02  0.17186624756E+03 -0.16076462538E+03  0.23746465967E+03  0.00000000000E+00 0. -1.
         -2    1    6    6    0  503 -0.97751047796E+02  0.14693604331E+03 -0.86671195183E+02  0.19661476100E+03  0.00000000000E+00 0.  1.
<mgrwt>
<rscale>  0 0.12407344E+04</rscale>
<asrwt>0</asrwt>
<pdfrwt beam="1">  1        2 0.11469327E+00 0.12407344E+04</pdfrwt>
<pdfrwt beam="2">  1       -1 0.79420577E-01 0.12407344E+04</pdfrwt>
<totfact> 0.67317439E+01</totfact>
</mgrwt>
</event>
<event>
12    6  0.1569942E-007  0.1289333E+04  0.7818608E-02  0.9038067E-01
         -1   -1    0    0    0  501 -0.00000000000E+00  0.00000000000E+00  0.32884166070E+03  0.32884166070E+03  0.00000000000E+00 0.  1.
          2   -1    0    0  501    0  0.00000000000E+00 -0.00000000000E+00 -0.12638153907E+04  0.12638153907E+04  0.00000000000E+00 0. -1.
         24    2    1    2    0    0  0.36440663061E+02  0.11202746583E+03  0.12094994864E+03  0.18985471157E+03  0.86820771731E+02 0.  0.
        254    2    1    2    0    0 -0.36440663061E+02 -0.11202746583E+03 -0.10559236786E+04  0.14028023398E+04  0.91597025853E+03 0.  0.
         23    2    4    4    0    0  0.12145346678E+03 -0.95208930024E+02  0.11784137588E+03  0.21471837918E+03  0.91660828830E+02 0.  0.
         23    2    4    4    0    0 -0.15789412984E+03 -0.16818535810E+02 -0.11737650545E+04  0.11880839606E+04  0.92766777379E+02 0.  0.
          4    1    3    3  502    0  0.21771949481E+02  0.43906246388E+02 -0.14277064063E+01  0.49028712013E+02  0.00000000000E+00 0. -1.
         -3    1    3    3    0  502  0.14668713579E+02  0.68121219446E+02  0.12237765504E+03  0.14082599955E+03  0.00000000000E+00 0.  1.
         11    1    5    5    0    0  0.40014453137E+02 -0.84180328958E+02  0.85237427485E+02  0.12630480311E+03  0.00000000000E+00 0. -1.
        -11    1    5    5    0    0  0.81439013638E+02 -0.11028601066E+02  0.32603948394E+02  0.88413576077E+02  0.00000000000E+00 0.  1.
          2    1    6    6  503    0 -0.11784511687E+03 -0.36479169452E+02 -0.10349345841E+04  0.10422609053E+04  0.00000000000E+00 0. -1.
         -2    1    6    6    0  503 -0.40049012965E+02  0.19660633642E+02 -0.13883047042E+03  0.14582305535E+03  0.00000000000E+00 0.  1.
<mgrwt>
<rscale>  0 0.12893334E+04</rscale>
<asrwt>0</asrwt>
<pdfrwt beam="1">  1        2 0.19443314E+00 0.12893334E+04</pdfrwt>
<pdfrwt beam="2">  1       -1 0.50591024E-01 0.12893334E+04</pdfrwt>
<totfact> 0.76162779E+01</totfact>
</mgrwt>
</event>
<event>
12    6  0.1569942E-007  0.1808005E+04  0.7818608E-02  0.8702054E-01
         -1   -1    0    0    0  501 -0.00000000000E+00  0.00000000000E+00  0.23810965063E+03  0.23810965063E+03  0.00000000000E+00 0.  1.
          2   -1    0    0  501    0  0.00000000000E+00 -0.00000000000E+00 -0.34321166963E+04  0.34321166963E+04  0.00000000000E+00 0. -1.
         24    2    1    2    0    0 -0.46009160461E+03 -0.41462834350E+03 -0.17827553727E+04  0.18882608268E+04  0.60920303411E+02 0.  0.
        254    2    1    2    0    0  0.46009160461E+03  0.41462834350E+03 -0.14112516730E+04  0.17819655202E+04  0.89452159423E+03 0.  0.
         23    2    4    4    0    0 -0.21592885911E+03  0.15019252475E+03 -0.13113362227E+03  0.30751858272E+03  0.90490801420E+02 0.  0.
         23    2    4    4    0    0  0.67602046372E+03  0.26443581875E+03 -0.12801180508E+04  0.14744469374E+04  0.91441663566E+02 0.  0.
          4    1    3    3  502    0 -0.43511599339E+03 -0.37659318224E+03 -0.16157034707E+04  0.17151227530E+04  0.00000000000E+00 0. -1.
         -3    1    3    3    0  502 -0.24975611219E+02 -0.38035161262E+02 -0.16705190195E+03  0.17313807378E+03  0.00000000000E+00 0.  1.
         11    1    5    5    0    0 -0.38717831981E+02 -0.59263448181E+01 -0.35011303363E+02  0.52535544533E+02  0.00000000000E+00 0. -1.
        -11    1    5    5    0    0 -0.17721102713E+03  0.15611886957E+03 -0.96122318906E+02  0.25498303819E+03  0.00000000000E+00 0.  1.
          2    1    6    6  503    0  0.53383994595E+01 -0.48646158070E+01 -0.25993881088E+02  0.26978599848E+02  0.00000000000E+00 0. -1.
         -2    1    6    6    0  503  0.67068206426E+03  0.26930043456E+03 -0.12541241697E+04  0.14474683376E+04  0.00000000000E+00 0.  1.
<mgrwt>
<rscale>  0 0.18080045E+04</rscale>
<asrwt>0</asrwt>
<pdfrwt beam="1">  1        2 0.52801791E+00 0.18080045E+04</pdfrwt>
<pdfrwt beam="2">  1       -1 0.36632257E-01 0.18080045E+04</pdfrwt>
<totfact> 0.70095449E+00</totfact>
</mgrwt>
</event>
<event>
12    6  0.1569942E-007  0.1344474E+04  0.7818608E-02  0.8995022E-01
          2   -1    0    0  501    0  0.00000000000E+00  0.00000000000E+00  0.19070459565E+04  0.19070459565E+04  0.00000000000E+00 0. -1.
         -1   -1    0    0    0  501 -0.00000000000E+00 -0.00000000000E+00 -0.23696470764E+03  0.23696470764E+03  0.00000000000E+00 0.  1.
         24    2    1    2    0    0 -0.35195266355E+03  0.69277159874E+02  0.45498306458E+03  0.58469125715E+03  0.78640160646E+02 0.  0.
        254    2    1    2    0    0  0.35195266355E+03 -0.69277159874E+02  0.12150981843E+04  0.15593194070E+04  0.90903433013E+03 0.  0.
         23    2    4    4    0    0 -0.18570738755E+03  0.23649073903E+03  0.62565816993E+03  0.69993845608E+03  0.89725098323E+02 0.  0.
         23    2    4    4    0    0  0.53766005110E+03 -0.30576789890E+03  0.58944001440E+03  0.85938095095E+03  0.92324155795E+02 0.  0.
          2    1    3    3  502    0 -0.25236471514E+02  0.16924337553E+02  0.74494618205E+02  0.80453470016E+02  0.00000000000E+00 0. -1.
         -1    1    3    3    0  502 -0.32671619204E+03  0.52352822321E+02  0.38048844638E+03  0.50423778713E+03  0.00000000000E+00 0.  1.
         11    1    5    5    0    0 -0.91689706794E+01  0.16121511897E+02  0.11436195938E+03  0.11585607848E+03  0.00000000000E+00 0.  1.
        -11    1    5    5    0    0 -0.17653841687E+03  0.22036922713E+03  0.51129621055E+03  0.58408237760E+03  0.00000000000E+00 0. -1.
          3    1    6    6  503    0  0.40052242581E+03 -0.24015076895E+03  0.38889531664E+03  0.60772540897E+03  0.00000000000E+00 0. -1.
         -3    1    6    6    0  503  0.13713762529E+03 -0.65617129954E+02  0.20054469775E+03  0.25165554198E+03  0.00000000000E+00 0.  1.
<mgrwt>
<rscale>  0 0.13444740E+04</rscale>
<asrwt>0</asrwt>
<pdfrwt beam="1">  1        2 0.29339168E+00 0.13444740E+04</pdfrwt>
<pdfrwt beam="2">  1       -1 0.36456110E-01 0.13444740E+04</pdfrwt>
<totfact> 0.60426681E+01</totfact>
</mgrwt>
</event>
<event>
12    6  0.1569942E-007  0.2165109E+04  0.7818608E-02  0.8533092E-01
         -1   -1    0    0    0  501 -0.00000000000E+00  0.00000000000E+00  0.62032289697E+03  0.62032289697E+03  0.00000000000E+00 0.  1.
          2   -1    0    0  501    0  0.00000000000E+00 -0.00000000000E+00 -0.18892166331E+04  0.18892166331E+04  0.00000000000E+00 0. -1.
         24    2    1    2    0    0  0.76108620420E+03  0.40694722975E+03 -0.25541519435E+03  0.90359424864E+03  0.79921127644E+02 0.  0.
        254    2    1    2    0    0 -0.76108620420E+03 -0.40694722975E+03 -0.10134785418E+04  0.16059452814E+04  0.89836698198E+03 0.  0.
         23    2    4    4    0    0 -0.83179856093E+03 -0.58622248588E+02 -0.50668590962E+03  0.98003680122E+03  0.91739341285E+02 0.  0.
         23    2    4    4    0    0  0.70712356729E+02 -0.34832498116E+03 -0.50679263216E+03  0.62590848022E+03  0.92693709114E+02 0.  0.
          4    1    3    3  502    0  0.65341930441E+03  0.34147640297E+03 -0.24603128913E+03  0.77723504578E+03  0.00000000000E+00 0. -1.
         -3    1    3    3    0  502  0.10766689979E+03  0.65470826776E+02 -0.93839052229E+01  0.12635920286E+03  0.00000000000E+00 0.  1.
         11    1    5    5    0    0 -0.78736363109E+02 -0.27470619677E+02 -0.70611618124E+02  0.10927053782E+03  0.00000000000E+00 0.  1.
        -11    1    5    5    0    0 -0.75306219782E+03 -0.31151628911E+02 -0.43607429149E+03  0.87076626340E+03  0.00000000000E+00 0. -1.
          1    1    6    6  503    0  0.71048612437E+02 -0.28283013606E+03 -0.46278360851E+03  0.54700042002E+03  0.00000000000E+00 0. -1.
         -1    1    6    6    0  503 -0.33625570766E+00 -0.65494845100E+02 -0.44009023642E+02  0.78908060200E+02  0.00000000000E+00 0.  1.
<mgrwt>
<rscale>  0 0.21651091E+04</rscale>
<asrwt>0</asrwt>
<pdfrwt beam="1">  1        2 0.29064871E+00 0.21651091E+04</pdfrwt>
<pdfrwt beam="2">  1       -1 0.95434292E-01 0.21651091E+04</pdfrwt>
<totfact> 0.85144708E+00</totfact>
</mgrwt>
</event>
<event>
12    6  0.1569942E-007  0.1363444E+04  0.7818608E-02  0.8980713E-01
          2   -1    0    0  501    0  0.00000000000E+00  0.00000000000E+00  0.11431926834E+04  0.11431926834E+04  0.00000000000E+00 0. -1.
         -1   -1    0    0    0  501 -0.00000000000E+00 -0.00000000000E+00 -0.40653256087E+03  0.40653256087E+03  0.00000000000E+00 0.  1.
         24    2    1    2    0    0  0.31923188634E+02  0.37578647342E+03  0.28902121143E+03  0.47868215408E+03  0.58041195733E+02 0.  0.
        254    2    1    2    0    0 -0.31923188634E+02 -0.37578647342E+03  0.44763891110E+03  0.10710430902E+04  0.89694935349E+03 0.  0.
         23    2    4    4    0    0 -0.19733424110E+03 -0.34027079331E+03  0.66704199910E+03  0.77967141303E+03  0.90650252249E+02 0.  0.
         23    2    4    4    0    0  0.16541105246E+03 -0.35515680111E+02 -0.21940308801E+03  0.29137167716E+03  0.90208422065E+02 0.  0.
          2    1    3    3  502    0  0.38339610415E+02  0.31097577474E+03  0.21453212188E+03  0.37973660545E+03  0.00000000000E+00 0. -1.
         -1    1    3    3    0  502 -0.64164217805E+01  0.64810698686E+02  0.74489089551E+02  0.98945548635E+02  0.00000000000E+00 0.  1.
         11    1    5    5    0    0 -0.32937151678E+02 -0.11902026607E+03  0.26314181277E+03  0.29067902113E+03  0.00000000000E+00 0.  1.
        -11    1    5    5    0    0 -0.16439708942E+03 -0.22125052725E+03  0.40390018633E+03  0.48899239190E+03  0.00000000000E+00 0. -1.
          4    1    6    6  503    0  0.44119567236E+02  0.14955106412E+02 -0.16047845573E+02  0.49271947073E+02  0.00000000000E+00 0. -1.
         -4    1    6    6    0  503  0.12129148523E+03 -0.50470786523E+02 -0.20335524243E+03  0.24209973008E+03  0.00000000000E+00 0.  1.
<mgrwt>
<rscale>  0 0.13634442E+04</rscale>
<asrwt>0</asrwt>
<pdfrwt beam="1">  1        2 0.17587580E+00 0.13634442E+04</pdfrwt>
<pdfrwt beam="2">  1       -1 0.62543471E-01 0.13634442E+04</pdfrwt>
<totfact> 0.59144891E+01</totfact>
</mgrwt>
</event>
<event>
12    6  0.1569942E-007  0.1504933E+04  0.7818608E-02  0.8881179E-01
          2   -1    0    0  501    0  0.00000000000E+00  0.00000000000E+00  0.14054745511E+04  0.14054745511E+04  0.00000000000E+00 0. -1.
         -3   -1    0    0    0  501 -0.00000000000E+00 -0.00000000000E+00 -0.40285749463E+03  0.40285749463E+03  0.00000000000E+00 0.  1.
         24    2    1    2    0    0 -0.31019459271E+03  0.55203019498E+02  0.75547449540E+03  0.82238113255E+03  0.79378556634E+02 0.  0.
        254    2    1    2    0    0  0.31019459271E+03 -0.55203019498E+02  0.24714256106E+03  0.98595091318E+03  0.90097264054E+03 0.  0.
         23    2    4    4    0    0  0.10163218465E+03  0.41234144384E+03  0.12317062501E+03  0.45144516344E+03  0.90978928666E+02 0.  0.
         23    2    4    4    0    0  0.20856240806E+03 -0.46754446333E+03  0.12397193605E+03  0.53450574974E+03  0.90726249396E+02 0.  0.
          4    1    3    3  502    0 -0.28247700250E+03  0.29569454587E+02  0.69847304763E+03  0.75401074784E+03  0.00000000000E+00 0. -1.
         -1    1    3    3    0  502 -0.27717590215E+02  0.25633564911E+02  0.57001447773E+02  0.68370384712E+02  0.00000000000E+00 0.  1.
         11    1    5    5    0    0 -0.54131086954E+01  0.16916279850E+01 -0.55957350560E+01  0.79671576992E+01  0.00000000000E+00 0.  1.
        -11    1    5    5    0    0  0.10704529334E+03  0.41064981585E+03  0.12876636007E+03  0.44347800574E+03  0.00000000000E+00 0. -1.
          1    1    6    6  503    0  0.21261344021E+03 -0.46785836341E+03  0.11798891472E+03  0.52727346526E+03  0.00000000000E+00 0. -1.
         -1    1    6    6    0  503 -0.40510321426E+01  0.31390007506E+00  0.59830213268E+01  0.72322844852E+01  0.00000000000E+00 0.  1.
<mgrwt>
<rscale>  0 0.15049332E+04</rscale>
<asrwt>0</asrwt>
<pdfrwt beam="1">  1        2 0.21622685E+00 0.15049332E+04</pdfrwt>
<pdfrwt beam="2">  1       -3 0.61978077E-01 0.15049332E+04</pdfrwt>
<totfact> 0.22462090E+01</totfact>
</mgrwt>
</event>
<event>
12    6  0.1569942E-007  0.1659999E+04  0.7818608E-02  0.8784513E-01
          2   -1    0    0  501    0  0.00000000000E+00  0.00000000000E+00  0.14944568798E+04  0.14944568798E+04  0.00000000000E+00 0. -1.
         -1   -1    0    0    0  501 -0.00000000000E+00 -0.00000000000E+00 -0.46096971404E+03  0.46096971404E+03  0.00000000000E+00 0.  1.
         24    2    1    2    0    0  0.28024860304E+03 -0.30463696758E+03 -0.10560987840E+03  0.43455465678E+03  0.79632542292E+02 0.  0.
        254    2    1    2    0    0 -0.28024860304E+03  0.30463696758E+03  0.11390970441E+04  0.15208719371E+04  0.91878529125E+03 0.  0.
         23    2    4    4    0    0 -0.15752771071E+02 -0.17132976667E+03 -0.55629109883E+02  0.20487130317E+03  0.96309990392E+02 0.  0.
         23    2    4    4    0    0 -0.26449583197E+03  0.47596673425E+03  0.11947261540E+04  0.13160006339E+04  0.89357193534E+02 0.  0.
          2    1    3    3  502    0  0.10331402320E+02 -0.13631321055E+02  0.11636504954E+02  0.20687170786E+02  0.00000000000E+00 0. -1.
         -1    1    3    3    0  502  0.26991720072E+03 -0.29100564652E+03 -0.11724638335E+03  0.41386748599E+03  0.00000000000E+00 0.  1.
         11    1    5    5    0    0 -0.20048834577E+02 -0.17494769738E+03 -0.69958527020E+02  0.18948046889E+03  0.00000000000E+00 0. -1.
        -11    1    5    5    0    0  0.42960635061E+01  0.36179307078E+01  0.14329417138E+02  0.15390834277E+02  0.00000000000E+00 0.  1.
          1    1    6    6  503    0 -0.18305951276E+03  0.39707899249E+03  0.91241473286E+03  0.10117722848E+04  0.00000000000E+00 0. -1.
         -1    1    6    6    0  503 -0.81436319208E+02  0.78887741765E+02  0.28231142116E+03  0.30422834911E+03  0.00000000000E+00 0.  1.
<mgrwt>
<rscale>  0 0.16599992E+04</rscale>
<asrwt>0</asrwt>
<pdfrwt beam="1">  1        2 0.22991644E+00 0.16599992E+04</pdfrwt>
<pdfrwt beam="2">  1       -1 0.70918418E-01 0.16599992E+04</pdfrwt>
<totfact> 0.27932363E+01</totfact>
</mgrwt>
</event>
<event>
12    6  0.1569942E-007  0.3353085E+04  0.7818608E-02  0.8149518E-01
         -1   -1    0    0    0  501 -0.00000000000E+00  0.00000000000E+00  0.14463596488E+04  0.14463596488E+04  0.00000000000E+00 0.  1.
          2   -1    0    0  501    0  0.00000000000E+00 -0.00000000000E+00 -0.19433580754E+04  0.19433580754E+04  0.00000000000E+00 0. -1.
         24    2    1    2    0    0 -0.11802143019E+04  0.19302876913E+03 -0.12195868362E+04  0.17099134693E+04  0.79032382432E+02 0.  0.
        254    2    1    2    0    0  0.11802143019E+04 -0.19302876913E+03  0.72258840956E+03  0.16798042549E+04  0.93243896383E+03 0.  0.
         23    2    4    4    0    0  0.85508720436E+03  0.11084075130E+03  0.84297771270E+03  0.12093846898E+04  0.92412686387E+02 0.  0.
         23    2    4    4    0    0  0.32512709749E+03 -0.30386952043E+03 -0.12038930314E+03  0.47041956514E+03  0.93577069770E+02 0.  0.
          2    1    3    3  502    0 -0.76434686721E+03  0.16218570706E+03 -0.78315664575E+03  0.11062841718E+04  0.00000000000E+00 0. -1.
         -1    1    3    3    0  502 -0.41586743464E+03  0.30843062067E+02 -0.43643019040E+03  0.60362929747E+03  0.00000000000E+00 0.  1.
         11    1    5    5    0    0  0.99468326767E+02 -0.82195706201E+01  0.70080208410E+02  0.12195386415E+03  0.00000000000E+00 0.  1.
        -11    1    5    5    0    0  0.75561887760E+03  0.11906032192E+03  0.77289750429E+03  0.10874308256E+04  0.00000000000E+00 0. -1.
          3    1    6    6  503    0  0.92455417673E+02 -0.64419467536E+02  0.73933693502E+01  0.11292711793E+03  0.00000000000E+00 0.  1.
         -3    1    6    6    0  503  0.23267167981E+03 -0.23945005289E+03 -0.12778267249E+03  0.35749244720E+03  0.00000000000E+00 0. -1.
<mgrwt>
<rscale>  0 0.33530850E+04</rscale>
<asrwt>0</asrwt>
<pdfrwt beam="1">  1        2 0.29897817E+00 0.33530850E+04</pdfrwt>
<pdfrwt beam="2">  1       -1 0.22251687E+00 0.33530850E+04</pdfrwt>
<totfact> 0.71946698E-01</totfact>
</mgrwt>
</event>
<event>
12    6  0.1569942E-007  0.1278648E+04  0.7818608E-02  0.9046671E-01
         -1   -1    0    0    0  501 -0.00000000000E+00  0.00000000000E+00  0.33952293099E+03  0.33952293099E+03  0.00000000000E+00 0.  1.
          2   -1    0    0  501    0  0.00000000000E+00 -0.00000000000E+00 -0.12038512287E+04  0.12038512287E+04  0.00000000000E+00 0. -1.
         24    2    1    2    0    0 -0.36370472125E+02  0.97112488625E+02 -0.57825213631E+03  0.59284976839E+03  0.79634590716E+02 0.  0.
        254    2    1    2    0    0  0.36370472125E+02 -0.97112488625E+02 -0.28607616142E+03  0.95052439133E+03  0.90050174997E+03 0.  0.
         23    2    4    4    0    0  0.41433083878E+03 -0.23836377786E+03 -0.97446169659E+02  0.49590695896E+03  0.89110164437E+02 0.  0.
         23    2    4    4    0    0 -0.37796036665E+03  0.14125128923E+03 -0.18862999176E+03  0.45461743237E+03  0.91048177121E+02 0.  0.
          2    1    3    3  502    0 -0.54654656989E+01  0.99253366289E+02 -0.45890306305E+03  0.46954565626E+03  0.00000000000E+00 0. -1.
         -1    1    3    3    0  502 -0.30905006426E+02 -0.21408776639E+01 -0.11934907326E+03  0.12330411213E+03  0.00000000000E+00 0.  1.
         11    1    5    5    0    0  0.39433111814E+02 -0.25518477511E+02 -0.38617167971E+02  0.60806649833E+02  0.00000000000E+00 0. -1.
        -11    1    5    5    0    0  0.37489772696E+03 -0.21284530034E+03 -0.58829001689E+02  0.43510030912E+03  0.00000000000E+00 0.  1.
          2    1    6    6  503    0 -0.45521684364E+02  0.48327670632E+00 -0.50732232115E+02  0.68163162186E+02  0.00000000000E+00 0. -1.
         -2    1    6    6    0  503 -0.33243868229E+03  0.14076801252E+03 -0.13789775965E+03  0.38645427019E+03  0.00000000000E+00 0.  1.
<mgrwt>
<rscale>  0 0.12786479E+04</rscale>
<asrwt>0</asrwt>
<pdfrwt beam="1">  1        2 0.18520788E+00 0.12786479E+04</pdfrwt>
<pdfrwt beam="2">  1       -1 0.52234298E-01 0.12786479E+04</pdfrwt>
<totfact> 0.77819195E+01</totfact>
</mgrwt>
</event>
<event>
12    6  0.1569942E-007  0.1555378E+04  0.7818608E-02  0.8848440E-01
          4   -1    0    0  501    0  0.00000000000E+00  0.00000000000E+00  0.10257406410E+04  0.10257406410E+04  0.00000000000E+00 0. -1.
         -3   -1    0    0    0  501 -0.00000000000E+00 -0.00000000000E+00 -0.58962297084E+03  0.58962297084E+03  0.00000000000E+00 0.  1.
         24    2    1    2    0    0 -0.35112601052E+03  0.37831915694E+03  0.18755047690E+03  0.55499587702E+03  0.80189664855E+02 0.  0.
        254    2    1    2    0    0  0.35112601052E+03 -0.37831915694E+03  0.24856719329E+03  0.10603677349E+04  0.89228875582E+03 0.  0.
         23    2    4    4    0    0 -0.32419007719E+02 -0.26655837417E+03  0.50251887162E+03  0.57630721438E+03  0.86605023528E+02 0.  0.
         23    2    4    4    0    0  0.38354501824E+03 -0.11176078277E+03 -0.25395167833E+03  0.48406052048E+03  0.10112308826E+03 0.  0.
          2    1    3    3  502    0 -0.11390329490E+03  0.16190390614E+03  0.10198600952E+03  0.22268359067E+03  0.00000000000E+00 0. -1.
         -1    1    3    3    0  502 -0.23722271561E+03  0.21641525080E+03  0.85564467378E+02  0.33231228635E+03  0.00000000000E+00 0.  1.
         11    1    5    5    0    0 -0.12029009024E+02  0.15735981175E+01  0.34048919921E+02  0.36145569810E+02  0.00000000000E+00 0.  1.
        -11    1    5    5    0    0 -0.20389998695E+02 -0.26813197229E+03  0.46846995170E+03  0.54016164457E+03  0.00000000000E+00 0. -1.
          3    1    6    6  503    0  0.21347938986E+03 -0.10074867435E+02 -0.13988064569E+03  0.25542425078E+03  0.00000000000E+00 0. -1.
         -3    1    6    6    0  503  0.17006562837E+03 -0.10168591533E+03 -0.11407103264E+03  0.22863626970E+03  0.00000000000E+00 0.  1.
<mgrwt>
<rscale>  0 0.15553781E+04</rscale>
<asrwt>0</asrwt>
<pdfrwt beam="1">  1        4 0.15780625E+00 0.15553781E+04</pdfrwt>
<pdfrwt beam="2">  1       -3 0.90711226E-01 0.15553781E+04</pdfrwt>
<totfact> 0.62572825E-01</totfact>
</mgrwt>
</event>
<event>
12    6  0.1569942E-007  0.1441484E+04  0.7818608E-02  0.8924326E-01
         -1   -1    0    0    0  501 -0.00000000000E+00  0.00000000000E+00  0.21694584466E+03  0.21694584466E+03  0.00000000000E+00 0.  1.
          2   -1    0    0  501    0  0.00000000000E+00 -0.00000000000E+00 -0.23944650839E+04  0.23944650839E+04  0.00000000000E+00 0. -1.
         24    2    1    2    0    0  0.30074581845E+00  0.23822216870E+02  0.12424141856E+03  0.14964975704E+03  0.79947052689E+02 0.  0.
        254    2    1    2    0    0 -0.30074581845E+00 -0.23822216870E+02 -0.23017606578E+04  0.24617611715E+04  0.87269602457E+03 0.  0.
         23    2    4    4    0    0 -0.16341957978E+03 -0.74556051867E+02 -0.57874992056E+02  0.20957333452E+03  0.91142218050E+02 0.  0.
         23    2    4    4    0    0  0.16311883396E+03  0.50733834997E+02 -0.22438856657E+04  0.22521878370E+04  0.90252402560E+02 0.  0.
          4    1    3    3  502    0 -0.17936720316E+02 -0.23192360710E+02  0.25846797908E+02  0.39085399999E+02  0.00000000000E+00 0. -1.
         -3    1    3    3    0  502  0.18237466134E+02  0.47014577580E+02  0.98394620651E+02  0.11056435705E+03  0.00000000000E+00 0.  1.
         11    1    5    5    0    0 -0.70702432845E+02 -0.82162269464E+02 -0.31152204340E+02  0.11278267761E+03  0.00000000000E+00 0. -1.
        -11    1    5    5    0    0 -0.92717146935E+02  0.76062175967E+01 -0.26722787716E+02  0.96790656910E+02  0.00000000000E+00 0.  1.
          1    1    6    6  503    0  0.16494552994E+03  0.58035683756E+02 -0.22249596442E+04  0.22318200167E+04  0.00000000000E+00 0. -1.
         -1    1    6    6    0  503 -0.18266959827E+01 -0.73018487600E+01 -0.18926021457E+02  0.20367820250E+02  0.00000000000E+00 0.  1.
<mgrwt>
<rscale>  0 0.14414843E+04</rscale>
<asrwt>0</asrwt>
<pdfrwt beam="1">  1        2 0.36837924E+00 0.14414843E+04</pdfrwt>
<pdfrwt beam="2">  1       -1 0.33376284E-01 0.14414843E+04</pdfrwt>
<totfact> 0.37484808E+01</totfact>
</mgrwt>
</event>
<event>
12    6  0.1569942E-007  0.1217080E+04  0.7818608E-02  0.9098036E-01
          2   -1    0    0  501    0  0.00000000000E+00  0.00000000000E+00  0.28850380564E+04  0.28850380564E+04  0.00000000000E+00 0. -1.
         -1   -1    0    0    0  501 -0.00000000000E+00 -0.00000000000E+00 -0.12835920073E+03  0.12835920073E+03  0.00000000000E+00 0.  1.
         24    2    1    2    0    0  0.12307708219E+03  0.18305077170E+03  0.26492496291E+03  0.35436464249E+03  0.82057971538E+02 0.  0.
        254    2    1    2    0    0 -0.12307708219E+03 -0.18305077170E+03  0.24917538928E+04  0.26590326147E+04  0.90164373810E+03 0.  0.
         23    2    4    4    0    0 -0.32333737373E+03 -0.33869462616E+03  0.22376650491E+04  0.22878819397E+04  0.89430371425E+02 0.  0.
         23    2    4    4    0    0  0.20026029154E+03  0.15564385446E+03  0.25408884370E+03  0.37115067490E+03  0.94140794506E+02 0.  0.
          2    1    3    3  502    0  0.40935465522E+02  0.77702949601E+02  0.49313664115E+02  0.10072387097E+03  0.00000000000E+00 0. -1.
         -1    1    3    3    0  502  0.82141616667E+02  0.10534782210E+03  0.21561129880E+03  0.25364077152E+03  0.00000000000E+00 0.  1.
         11    1    5    5    0    0 -0.19753501712E+03 -0.15357182448E+03  0.13014695706E+04  0.13253027698E+04  0.00000000000E+00 0. -1.
        -11    1    5    5    0    0 -0.12580235661E+03 -0.18512280168E+03  0.93619547845E+03  0.96257916999E+03  0.00000000000E+00 0.  1.
          4    1    6    6  503    0  0.19559947490E+03  0.16713496442E+03  0.24795460707E+03  0.35731601991E+03  0.00000000000E+00 0. -1.
         -4    1    6    6    0  503  0.46608166367E+01 -0.11491109962E+02  0.61342366326E+01  0.13834654999E+02  0.00000000000E+00 0.  1.
<mgrwt>
<rscale>  0 0.12170804E+04</rscale>
<asrwt>0</asrwt>
<pdfrwt beam="1">  1        2 0.44385196E+00 0.12170804E+04</pdfrwt>
<pdfrwt beam="2">  1       -1 0.19747572E-01 0.12170804E+04</pdfrwt>
<totfact> 0.48710202E+01</totfact>
</mgrwt>
</event>
<event>
12    6  0.1569942E-007  0.1186650E+04  0.7818608E-02  0.9124623E-01
         -1   -1    0    0    0  501 -0.00000000000E+00  0.00000000000E+00  0.37249494242E+03  0.37249494242E+03  0.00000000000E+00 0.  1.
          2   -1    0    0  501    0  0.00000000000E+00 -0.00000000000E+00 -0.94507149911E+03  0.94507149911E+03  0.00000000000E+00 0. -1.
         24    2    1    2    0    0  0.44356668985E+02  0.16134555348E+03 -0.31017453712E+03  0.36114358500E+03  0.78845061971E+02 0.  0.
        254    2    1    2    0    0 -0.44356668985E+02 -0.16134555348E+03 -0.26240201957E+03  0.95642285654E+03  0.90437268807E+03 0.  0.
         23    2    4    4    0    0  0.37450071876E+03 -0.19060263394E+03 -0.29925518421E+03  0.52506949333E+03  0.97796498571E+02 0.  0.
         23    2    4    4    0    0 -0.41885738774E+03  0.29257080458E+02  0.36853164643E+02  0.43135336321E+03  0.91706489321E+02 0.  0.
          4    1    3    3  502    0  0.44916116819E+02  0.16963480753E+03 -0.28559961057E+03  0.33520227182E+03  0.00000000000E+00 0. -1.
         -3    1    3    3    0  502 -0.55944783394E+00 -0.82892540474E+01 -0.24574926555E+02  0.25941313185E+02  0.00000000000E+00 0.  1.
         11    1    5    5    0    0  0.21926271935E+02  0.33836011195E+01 -0.41858634478E+02  0.47374628631E+02  0.00000000000E+00 0.  1.
        -11    1    5    5    0    0  0.35257444682E+03 -0.19398623506E+03 -0.25739654973E+03  0.47769486470E+03  0.00000000000E+00 0. -1.
          1    1    6    6  503    0 -0.29271384062E+03  0.54444539048E+02  0.50541700877E+02  0.30199348313E+03  0.00000000000E+00 0. -1.
         -1    1    6    6    0  503 -0.12614354712E+03 -0.25187458590E+02 -0.13688536234E+02  0.12935988008E+03  0.00000000000E+00 0.  1.
<mgrwt>
<rscale>  0 0.11866497E+04</rscale>
<asrwt>0</asrwt>
<pdfrwt beam="1">  1        2 0.14539562E+00 0.11866497E+04</pdfrwt>
<pdfrwt beam="2">  1       -1 0.57306914E-01 0.11866497E+04</pdfrwt>
<totfact> 0.95034213E+01</totfact>
</mgrwt>
</event>
<event>
12    6  0.1569942E-007  0.1861129E+04  0.7818608E-02  0.8674450E-01
          2   -1    0    0  501    0  0.00000000000E+00  0.00000000000E+00  0.11902740544E+04  0.11902740544E+04  0.00000000000E+00 0. -1.
         -1   -1    0    0    0  501 -0.00000000000E+00 -0.00000000000E+00 -0.72752196389E+03  0.72752196389E+03  0.00000000000E+00 0.  1.
         24    2    1    2    0    0  0.37390611542E+03  0.53259876509E+03  0.47224390300E+03  0.80817823085E+03  0.81673258580E+02 0.  0.
        254    2    1    2    0    0 -0.37390611542E+03 -0.53259876509E+03 -0.94918124676E+01  0.11096177875E+04  0.89871814937E+03 0.  0.
         23    2    4    4    0    0  0.74266306769E+02  0.12878723982E+03 -0.21352851794E+03  0.27998243681E+03  0.10341227920E+03 0.  0.
         23    2    4    4    0    0 -0.44817242219E+03 -0.66138600491E+03  0.20403670548E+03  0.82963535064E+03  0.91508853978E+02 0.  0.
          4    1    3    3  502    0  0.33097598153E+03  0.50315566015E+03  0.44879357684E+03  0.75108347958E+03  0.00000000000E+00 0. -1.
         -3    1    3    3    0  502  0.42930133896E+02  0.29443104938E+02  0.23450326159E+02  0.57094751262E+02  0.00000000000E+00 0.  1.
         11    1    5    5    0    0  0.24831878218E+02  0.55261610500E+02 -0.17156563558E+03  0.18194844073E+03  0.00000000000E+00 0. -1.
        -11    1    5    5    0    0  0.49434428551E+02  0.73525629316E+02 -0.41962882363E+02  0.98033996087E+02  0.00000000000E+00 0.  1.
          3    1    6    6  503    0 -0.51102812457E+02 -0.55615504610E+02  0.45516465503E+02  0.88183504274E+02  0.00000000000E+00 0. -1.
         -3    1    6    6    0  503 -0.39706960973E+03 -0.60577050030E+03  0.15852023997E+03  0.74145184637E+03  0.00000000000E+00 0.  1.
<mgrwt>
<rscale>  0 0.18611292E+04</rscale>
<asrwt>0</asrwt>
<pdfrwt beam="1">  1        2 0.18311909E+00 0.18611292E+04</pdfrwt>
<pdfrwt beam="2">  1       -1 0.11192646E+00 0.18611292E+04</pdfrwt>
<totfact> 0.15062058E+01</totfact>
</mgrwt>
</event>
<event>
12    6  0.1569942E-007  0.1585021E+04  0.7818608E-02  0.8829803E-01
          2   -1    0    0  501    0  0.00000000000E+00  0.00000000000E+00  0.15449405485E+04  0.15449405485E+04  0.00000000000E+00 0. -1.
         -3   -1    0    0    0  501 -0.00000000000E+00 -0.00000000000E+00 -0.40653556093E+03  0.40653556093E+03  0.00000000000E+00 0.  1.
         24    2    1    2    0    0  0.17779203128E+03  0.48105011900E+03  0.52519472315E+03  0.73834425544E+03  0.79394703447E+02 0.  0.
        254    2    1    2    0    0 -0.17779203128E+03 -0.48105011900E+03  0.61321026440E+03  0.12131318540E+04  0.91249265387E+03 0.  0.
         23    2    4    4    0    0  0.16208096374E+03 -0.47563822402E+03  0.68433307008E+03  0.85422443306E+03  0.94263843915E+02 0.  0.
         23    2    4    4    0    0 -0.33987299502E+03 -0.54118949770E+01 -0.71122805673E+02  0.35890742091E+03  0.90626386590E+02 0.  0.
          4    1    3    3  502    0  0.14076902337E+03  0.35053585464E+03  0.43142788364E+03  0.57342943953E+03  0.00000000000E+00 0. -1.
         -3    1    3    3    0  502  0.37023007915E+02  0.13051426436E+03  0.93766839501E+02  0.16491481591E+03  0.00000000000E+00 0.  1.
         11    1    5    5    0    0  0.13602323912E+02 -0.86541869081E+00  0.22168487465E+02  0.26023335716E+02  0.00000000000E+00 0.  1.
        -11    1    5    5    0    0  0.14847863983E+03 -0.47477280533E+03  0.66216458261E+03  0.82820109734E+03  0.00000000000E+00 0. -1.
          2    1    6    6  503    0 -0.64227195452E+02 -0.19133896777E+02  0.17097276622E+02  0.69163252594E+02  0.00000000000E+00 0.  1.
         -2    1    6    6    0  503 -0.27564579957E+03  0.13722001800E+02 -0.88220082295E+02  0.28974416832E+03  0.00000000000E+00 0. -1.
<mgrwt>
<rscale>  0 0.15850215E+04</rscale>
<asrwt>0</asrwt>
<pdfrwt beam="1">  1        2 0.23768316E+00 0.15850215E+04</pdfrwt>
<pdfrwt beam="2">  1       -3 0.62543933E-01 0.15850215E+04</pdfrwt>
<totfact> 0.18269125E+01</totfact>
</mgrwt>
</event>
