<event>
12    6  0.9491186E-008  0.2872705E+04  0.7818608E-02  0.8281045E-01
          2   -1    0    0  501    0  0.00000000000E+00  0.00000000000E+00  0.23147672119E+04  0.23147672119E+04  0.00000000000E+00 0. -1.
         -1   -1    0    0    0  501 -0.00000000000E+00 -0.00000000000E+00 -0.89128098755E+03  0.89128098755E+03  0.00000000000E+00 0.  1.
         24    2    1    2    0    0  0.82898644196E+02  0.12647609653E+03 -0.79178308476E+03  0.81030345649E+03  0.82479391869E+02 0.  0.
        254    2    1    2    0    0 -0.82898644196E+02 -0.12647609653E+03  0.22152693091E+04  0.23957447429E+04  0.89961456931E+03 0.  0.
         23    2    4    4    0    0 -0.24855109895E+03 -0.72982484978E+02  0.13256435325E+03  0.30373707160E+03  0.87056355337E+02 0.  0.
         23    2    4    4    0    0  0.16565245475E+03 -0.53493611551E+02  0.20827049558E+04  0.20920076713E+04  0.92378902651E+02 0.  0.
          2    1    3    3  502    0  0.18498298781E+02  0.54851443441E+02 -0.49280107180E+03  0.49618924240E+03  0.00000000000E+00 0. -1.
         -1    1    3    3    0  502  0.64400345416E+02  0.71624653088E+02 -0.29898201296E+03  0.31411421409E+03  0.00000000000E+00 0.  1.
         11    1    5    5    0    0 -0.17536100073E+03 -0.82665419614E+02  0.67359804696E+02  0.20523741244E+03  0.00000000000E+00 0.  1.
        -11    1    5    5    0    0 -0.73190098217E+02  0.96829346361E+01  0.65204548558E+02  0.98499659151E+02  0.00000000000E+00 0. -1.
          1    1    6    6  503    0  0.33015607723E+02 -0.47313163869E+02  0.40976803440E+03  0.41380962754E+03  0.00000000000E+00 0. -1.
         -1    1    6    6    0  503  0.13263684703E+03 -0.61804476812E+01  0.16729369214E+04  0.16781980438E+04  0.00000000000E+00 0.  1.
<mgrwt>
<rscale>  0 0.28727047E+04</rscale>
<asrwt>0</asrwt>
<pdfrwt beam="1">  1        2 0.35611803E+00 0.28727047E+04</pdfrwt>
<pdfrwt beam="2">  1       -1 0.13712015E+00 0.28727047E+04</pdfrwt>
<totfact> 0.19350311E+00</totfact>
</mgrwt>
</event>
<event>
12    6  0.9491186E-008  0.1854444E+04  0.7818608E-02  0.8677871E-01
         -1   -1    0    0    0  501 -0.00000000000E+00  0.00000000000E+00  0.49290028770E+03  0.49290028770E+03  0.00000000000E+00 0.  1.
          2   -1    0    0  501    0  0.00000000000E+00 -0.00000000000E+00 -0.17442487607E+04  0.17442487607E+04  0.00000000000E+00 0. -1.
         24    2    1    2    0    0  0.59673316367E+03 -0.50164375388E+02 -0.93299333414E+03  0.11112809005E+04  0.76562034491E+02 0.  0.
        254    2    1    2    0    0 -0.59673316367E+03  0.50164375388E+02 -0.31835513888E+03  0.11258681479E+04  0.89867800619E+03 0.  0.
         23    2    4    4    0    0 -0.45430151835E+02 -0.31738685729E+03  0.85022719801E+02  0.34427846879E+03  0.92198076507E+02 0.  0.
         23    2    4    4    0    0 -0.55130301184E+03  0.36755123268E+03 -0.40337785868E+03  0.78158967911E+03  0.95602354141E+02 0.  0.
          4    1    3    3  502    0  0.34334768276E+03 -0.65457828919E+02 -0.52214089509E+03  0.62833388652E+03  0.00000000000E+00 0. -1.
         -3    1    3    3    0  502  0.25338548091E+03  0.15293453530E+02 -0.41085243905E+03  0.48294701400E+03  0.00000000000E+00 0.  1.
         11    1    5    5    0    0  0.77698273465E+01 -0.15770857931E+03  0.77270085878E+02  0.17579258339E+03  0.00000000000E+00 0. -1.
        -11    1    5    5    0    0 -0.53199979182E+02 -0.15967827798E+03  0.77526339234E+01  0.16848588539E+03  0.00000000000E+00 0.  1.
          3    1    6    6  503    0 -0.42065264141E+03  0.23788100040E+03 -0.26372066966E+03  0.55053120410E+03  0.00000000000E+00 0. -1.
         -3    1    6    6    0  503 -0.13065037042E+03  0.12967023228E+03 -0.13965718902E+03  0.23105847501E+03  0.00000000000E+00 0.  1.
<mgrwt>
<rscale>  0 0.18544441E+04</rscale>
<asrwt>0</asrwt>
<pdfrwt beam="1">  1        2 0.26834596E+00 0.18544441E+04</pdfrwt>
<pdfrwt beam="2">  1       -1 0.75830814E-01 0.18544441E+04</pdfrwt>
<totfact> 0.17331604E+01</totfact>
</mgrwt>
</event>
<event>
12    6  0.9491186E-008  0.1280775E+04  0.7818608E-02  0.9044951E-01
          2   -1    0    0  501    0  0.00000000000E+00  0.00000000000E+00  0.22025860797E+03  0.22025860797E+03  0.00000000000E+00 0. -1.
         -1   -1    0    0    0  501 -0.00000000000E+00 -0.00000000000E+00 -0.18618845871E+04  0.18618845871E+04  0.00000000000E+00 0.  1.
         24    2    1    2    0    0 -0.20797296799E+03 -0.21497892341E+03 -0.58012519017E+03  0.65763465396E+03  0.80432635774E+02 0.  0.
        254    2    1    2    0    0  0.20797296799E+03  0.21497892341E+03 -0.10615007889E+04  0.14245085411E+04  0.90164958037E+03 0.  0.
         23    2    4    4    0    0 -0.12075899146E+02  0.46080414769E+03 -0.22629068124E+03  0.52161823514E+03  0.91606882593E+02 0.  0.
         23    2    4    4    0    0  0.22004886714E+03 -0.24582522428E+03 -0.83521010771E+03  0.90289030596E+03  0.93719985908E+02 0.  0.
          2    1    3    3  502    0 -0.80980638455E+02 -0.62255264769E+02 -0.12767836173E+03  0.16350946715E+03  0.00000000000E+00 0. -1.
         -1    1    3    3    0  502 -0.12699232954E+03 -0.15272365864E+03 -0.45244682844E+03  0.49412518681E+03  0.00000000000E+00 0.  1.
         11    1    5    5    0    0 -0.40170436598E+01  0.18638864823E+03 -0.42415909280E+02  0.19119616677E+03  0.00000000000E+00 0. -1.
        -11    1    5    5    0    0 -0.80588554863E+01  0.27441549947E+03 -0.18387477196E+03  0.33042206837E+03  0.00000000000E+00 0.  1.
          3    1    6    6  503    0  0.59988891407E+02 -0.61584244602E+02 -0.34144002006E+03  0.35209739217E+03  0.00000000000E+00 0. -1.
         -3    1    6    6    0  503  0.16005997573E+03 -0.18424097968E+03 -0.49377008764E+03  0.55079291379E+03  0.00000000000E+00 0.  1.
<mgrwt>
<rscale>  0 0.12807749E+04</rscale>
<asrwt>0</asrwt>
<pdfrwt beam="1">  1        2 0.33885940E-01 0.12807749E+04</pdfrwt>
<pdfrwt beam="2">  1       -1 0.28644378E+00 0.12807749E+04</pdfrwt>
<totfact> 0.70891702E+00</totfact>
</mgrwt>
</event>
<event>
12    6  0.1680341E-007  0.1881239E+04  0.7818608E-02  0.8664252E-01
          2   -1    0    0  501    0  0.00000000000E+00  0.00000000000E+00  0.12269008472E+04  0.12269008472E+04  0.00000000000E+00 0. -1.
         -1   -1    0    0    0  501 -0.00000000000E+00 -0.00000000000E+00 -0.72113804510E+03  0.72113804510E+03  0.00000000000E+00 0.  1.
         24    2    1    2    0    0 -0.68241173318E+02 -0.88071576615E+02  0.93695731593E+03  0.94703263285E+03  0.81045267979E+02 0.  0.
        254    2    1    2    0    0  0.68241173318E+02  0.88071576615E+02 -0.43119451379E+03  0.10010062595E+04  0.89647719574E+03 0.  0.
         23    2    4    4    0    0 -0.33351298324E+03 -0.12176582441E+03  0.34680048381E+01  0.36652171055E+03  0.90930254948E+02 0.  0.
         23    2    4    4    0    0  0.40175415656E+03  0.20983740103E+03 -0.43466251863E+03  0.63448454894E+03  0.90559375895E+02 0.  0.
          2    1    3    3  502    0 -0.85765859966E+02 -0.83236391473E+02  0.80200134734E+03  0.81085771917E+03  0.00000000000E+00 0. -1.
         -1    1    3    3    0  502  0.17524686648E+02 -0.48351851427E+01  0.13495596859E+03  0.13617491368E+03  0.00000000000E+00 0.  1.
         11    1    5    5    0    0 -0.33512712093E+02 -0.36976274579E+02 -0.20279064982E+02  0.53866383117E+02  0.00000000000E+00 0. -1.
        -11    1    5    5    0    0 -0.30000027115E+03 -0.84789549834E+02  0.23747069820E+02  0.31265532744E+03  0.00000000000E+00 0.  1.
          4    1    6    6  503    0  0.36398352340E+03  0.18072840204E+03 -0.42040872078E+03  0.58471382156E+03  0.00000000000E+00 0.  1.
         -4    1    6    6    0  503  0.37770633159E+02  0.29108998983E+02 -0.14253797843E+02  0.49770727380E+02  0.00000000000E+00 0. -1.
<mgrwt>
<rscale>  0 0.18812388E+04</rscale>
<asrwt>0</asrwt>
<pdfrwt beam="1">  1        2 0.18875398E+00 0.18812388E+04</pdfrwt>
<pdfrwt beam="2">  1       -1 0.11094431E+00 0.18812388E+04</pdfrwt>
<totfact> 0.14600596E+01</totfact>
</mgrwt>
</event>
<event>
12    6  0.9491186E-008  0.1693421E+04  0.7818608E-02  0.8765126E-01
         -1   -1    0    0    0  501 -0.00000000000E+00  0.00000000000E+00  0.42761820945E+03  0.42761820945E+03  0.00000000000E+00 0.  1.
          2   -1    0    0  501    0  0.00000000000E+00 -0.00000000000E+00 -0.16765390465E+04  0.16765390465E+04  0.00000000000E+00 0. -1.
         24    2    1    2    0    0 -0.49071628017E+03 -0.19242784068E+03 -0.82117953553E+03  0.97908026923E+03  0.80196025616E+02 0.  0.
        254    2    1    2    0    0  0.49071628017E+03  0.19242784068E+03 -0.42774130148E+03  0.11250769867E+04  0.89722052110E+03 0.  0.
         23    2    4    4    0    0  0.95866867237E+02  0.36370695247E+03 -0.54744595433E+03  0.66918864721E+03  0.81505638627E+02 0.  0.
         23    2    4    4    0    0  0.39484941294E+03 -0.17127911179E+03  0.11970465284E+03  0.45588833948E+03  0.90897640953E+02 0.  0.
          2    1    3    3  502    0 -0.22583452356E+03 -0.58064832566E+02 -0.31046515307E+03  0.38828001247E+03  0.00000000000E+00 0. -1.
         -1    1    3    3    0  502 -0.26488175661E+03 -0.13436300811E+03 -0.51071438246E+03  0.59080025676E+03  0.00000000000E+00 0.  1.
         11    1    5    5    0    0  0.75460375833E+01  0.18724025880E+03 -0.27540507530E+03  0.33311231244E+03  0.00000000000E+00 0. -1.
        -11    1    5    5    0    0  0.88320829654E+02  0.17646669367E+03 -0.27204087903E+03  0.33607633476E+03  0.00000000000E+00 0.  1.
          2    1    6    6  503    0  0.65208012964E+02 -0.68082203193E+02  0.20019726525E+02  0.96374585843E+02  0.00000000000E+00 0.  1.
         -2    1    6    6    0  503  0.32964139997E+03 -0.10319690860E+03  0.99684926316E+02  0.35951375364E+03  0.00000000000E+00 0. -1.
<mgrwt>
<rscale>  0 0.16934209E+04</rscale>
<asrwt>0</asrwt>
<pdfrwt beam="1">  1        2 0.25792908E+00 0.16934209E+04</pdfrwt>
<pdfrwt beam="2">  1       -1 0.65787417E-01 0.16934209E+04</pdfrwt>
<totfact> 0.25669286E+01</totfact>
</mgrwt>
</event>
<event>
12    6  0.9491186E-008  0.1260622E+04  0.7818608E-02  0.9061389E-01
          2   -1    0    0  501    0  0.00000000000E+00  0.00000000000E+00  0.14014029429E+04  0.14014029429E+04  0.00000000000E+00 0. -1.
         -1   -1    0    0    0  501 -0.00000000000E+00 -0.00000000000E+00 -0.28349565605E+03  0.28349565605E+03  0.00000000000E+00 0.  1.
         24    2    1    2    0    0  0.21819875246E+03 -0.14964139814E+03  0.85102461491E+02  0.28944373494E+03  0.80820808756E+02 0.  0.
        254    2    1    2    0    0 -0.21819875246E+03  0.14964139814E+03  0.10328048254E+04  0.13954548640E+04  0.90033617423E+03 0.  0.
         23    2    4    4    0    0  0.26656704211E+03  0.29894111532E+03  0.57025383543E+03  0.70275771861E+03  0.90858108424E+02 0.  0.
         23    2    4    4    0    0 -0.48476579457E+03 -0.14929971718E+03  0.46255098995E+03  0.69269714543E+03  0.92669497950E+02 0.  0.
          2    1    3    3  502    0  0.56040780579E+02 -0.64868887815E+01  0.38140876961E+02  0.68098276846E+02  0.00000000000E+00 0. -1.
         -1    1    3    3    0  502  0.16215797188E+03 -0.14315450936E+03  0.46961584530E+02  0.22134545809E+03  0.00000000000E+00 0.  1.
         11    1    5    5    0    0  0.12436059405E+03  0.79209616878E+02  0.17699527441E+03  0.23036286142E+03  0.00000000000E+00 0. -1.
        -11    1    5    5    0    0  0.14220644806E+03  0.21973149845E+03  0.39325856102E+03  0.47239485719E+03  0.00000000000E+00 0.  1.
          4    1    6    6  503    0 -0.11034758699E+03  0.34960531636E+00  0.12593719706E+03  0.16744219833E+03  0.00000000000E+00 0. -1.
         -4    1    6    6    0  503 -0.37441820758E+03 -0.14964932250E+03  0.33661379289E+03  0.52525494710E+03  0.00000000000E+00 0.  1.
<mgrwt>
<rscale>  0 0.12606215E+04</rscale>
<asrwt>0</asrwt>
<pdfrwt beam="1">  1        2 0.21560045E+00 0.12606215E+04</pdfrwt>
<pdfrwt beam="2">  1       -1 0.43614717E-01 0.12606215E+04</pdfrwt>
<totfact> 0.83952143E+01</totfact>
</mgrwt>
</event>
<event>
12    6  0.9491186E-008  0.1408943E+04  0.7818608E-02  0.8947371E-01
          2   -1    0    0  501    0  0.00000000000E+00  0.00000000000E+00  0.21615621580E+04  0.21615621580E+04  0.00000000000E+00 0. -1.
         -1   -1    0    0    0  501 -0.00000000000E+00 -0.00000000000E+00 -0.22959321404E+03  0.22959321404E+03  0.00000000000E+00 0.  1.
         24    2    1    2    0    0 -0.38557051900E+03  0.13307454306E+03  0.66081808938E+03  0.78064328302E+03  0.79686441414E+02 0.  0.
        254    2    1    2    0    0  0.38557051900E+03 -0.13307454306E+03  0.12711508546E+04  0.16105120890E+04  0.90086138481E+03 0.  0.
         23    2    4    4    0    0 -0.16303107229E+03  0.10249881819E+03  0.11455542429E+02  0.21346683240E+03  0.91387749850E+02 0.  0.
         23    2    4    4    0    0  0.54860159129E+03 -0.23557336125E+03  0.12596953122E+04  0.13970452566E+04  0.91894804337E+02 0.  0.
          4    1    3    3  502    0 -0.10343746581E+03  0.58576481302E+02  0.24903482422E+03  0.27595082383E+03  0.00000000000E+00 0. -1.
         -3    1    3    3    0  502 -0.28213305318E+03  0.74498061757E+02  0.41178326516E+03  0.50469245920E+03  0.00000000000E+00 0.  1.
         11    1    5    5    0    0 -0.16647581969E+03  0.89374127460E+02  0.29132641639E+02  0.19118222723E+03  0.00000000000E+00 0.  1.
        -11    1    5    5    0    0  0.34447473965E+01  0.13124690727E+02 -0.17677099210E+02  0.22284605175E+02  0.00000000000E+00 0. -1.
          3    1    6    6  503    0  0.47811007605E+02 -0.50665648411E+02  0.16577939374E+03  0.17982132178E+03  0.00000000000E+00 0. -1.
         -3    1    6    6    0  503  0.50079058368E+03 -0.18490771284E+03  0.10939159184E+04  0.12172239349E+04  0.00000000000E+00 0.  1.
<mgrwt>
<rscale>  0 0.14089429E+04</rscale>
<asrwt>0</asrwt>
<pdfrwt beam="1">  1        2 0.33254801E+00 0.14089429E+04</pdfrwt>
<pdfrwt beam="2">  1       -1 0.35322034E-01 0.14089429E+04</pdfrwt>
<totfact> 0.45957041E+01</totfact>
</mgrwt>
</event>
<event>
12    6  0.1037245E-007  0.1574767E+04  0.7818608E-02  0.8836201E-01
         -1   -1    0    0    0  501 -0.00000000000E+00  0.00000000000E+00  0.38424053541E+03  0.38424053541E+03  0.00000000000E+00 0.  1.
          2   -1    0    0  501    0  0.00000000000E+00 -0.00000000000E+00 -0.16135025407E+04  0.16135025407E+04  0.00000000000E+00 0. -1.
         24    2    1    2    0    0 -0.20114360194E+03  0.16134379057E+03  0.17126485854E+03  0.31893402075E+03  0.76789911212E+02 0.  0.
        254    2    1    2    0    0  0.20114360194E+03 -0.16134379057E+03 -0.14005268639E+04  0.16788090554E+04  0.88906342896E+03 0.  0.
         23    2    4    4    0    0  0.45755635475E+03  0.15965729506E+03 -0.88514509220E+03  0.10132765047E+04  0.91646991586E+02 0.  0.
         23    2    4    4    0    0 -0.25641275281E+03 -0.32100108563E+03 -0.51538177165E+03  0.66553255070E+03  0.92336388833E+02 0.  0.
          4    1    3    3  502    0  0.56465664613E+01  0.71120618023E+00 -0.59703904246E+00  0.57224105629E+01  0.00000000000E+00 0. -1.
         -3    1    3    3    0  502 -0.20679016840E+03  0.16063258439E+03  0.17186189758E+03  0.31321161019E+03  0.00000000000E+00 0.  1.
         11    1    5    5    0    0  0.42786153695E+03  0.17185078278E+03 -0.82545015800E+03  0.94549783167E+03  0.00000000000E+00 0. -1.
        -11    1    5    5    0    0  0.29694817803E+02 -0.12193487727E+02 -0.59694934195E+02  0.67778673017E+02  0.00000000000E+00 0.  1.
          1    1    6    6  503    0 -0.22835953129E+03 -0.30706085671E+03 -0.43554833606E+03  0.57977305758E+03  0.00000000000E+00 0. -1.
         -1    1    6    6    0  503 -0.28053221519E+02 -0.13940228918E+02 -0.79833435596E+02  0.85759493112E+02  0.00000000000E+00 0.  1.
<mgrwt>
<rscale>  0 0.15747674E+04</rscale>
<asrwt>0</asrwt>
<pdfrwt beam="1">  1        2 0.24823116E+00 0.15747674E+04</pdfrwt>
<pdfrwt beam="2">  1       -1 0.59113928E-01 0.15747674E+04</pdfrwt>
<totfact> 0.34797068E+01</totfact>
</mgrwt>
</event>
<event>
12    6  0.9491186E-008  0.1523831E+04  0.7818608E-02  0.8868758E-01
         -1   -1    0    0    0  501 -0.00000000000E+00  0.00000000000E+00  0.78203339619E+03  0.78203339619E+03  0.00000000000E+00 0.  1.
          2   -1    0    0  501    0  0.00000000000E+00 -0.00000000000E+00 -0.74231562040E+03  0.74231562040E+03  0.00000000000E+00 0. -1.
         24    2    1    2    0    0 -0.34556887898E+03  0.34765947498E+03  0.13259359205E+02  0.49627083950E+03  0.76314971463E+02 0.  0.
        254    2    1    2    0    0  0.34556887898E+03 -0.34765947498E+03  0.26458416581E+02  0.10280781771E+04  0.90330489301E+03 0.  0.
         23    2    4    4    0    0 -0.28257063990E+03 -0.24369936634E+03  0.15776546350E+02  0.38442112597E+03  0.91077741455E+02 0.  0.
         23    2    4    4    0    0  0.62813951888E+03 -0.10396010864E+03  0.10681870230E+02  0.64365705112E+03  0.93879378694E+02 0.  0.
          2    1    3    3  502    0 -0.25410522686E+03  0.24882361136E+03 -0.24284552876E+02  0.35647215234E+03  0.00000000000E+00 0. -1.
         -1    1    3    3    0  502 -0.91463652118E+02  0.98835863619E+02  0.37543912080E+02  0.13979868716E+03  0.00000000000E+00 0.  1.
         11    1    5    5    0    0 -0.81809114117E+02 -0.40140760828E+02 -0.27669657898E+02  0.95234562007E+02  0.00000000000E+00 0.  1.
        -11    1    5    5    0    0 -0.20076152578E+03 -0.20355860551E+03  0.43446204248E+02  0.28918656396E+03  0.00000000000E+00 0. -1.
          1    1    6    6  503    0  0.30247316164E+03 -0.80427130161E+02 -0.30897930211E+02  0.31450471994E+03  0.00000000000E+00 0. -1.
         -1    1    6    6    0  503  0.32566635724E+03 -0.23532978477E+02  0.41579800441E+02  0.32915233118E+03  0.00000000000E+00 0.  1.
<mgrwt>
<rscale>  0 0.15238315E+04</rscale>
<asrwt>0</asrwt>
<pdfrwt beam="1">  1        2 0.11420240E+00 0.15238315E+04</pdfrwt>
<pdfrwt beam="2">  1       -1 0.12031283E+00 0.15238315E+04</pdfrwt>
<totfact> 0.25755170E+01</totfact>
</mgrwt>
</event>
<event>
12    6  0.9491186E-008  0.2224232E+04  0.7818608E-02  0.8508410E-01
         -1   -1    0    0    0  501 -0.00000000000E+00  0.00000000000E+00  0.77649013440E+03  0.77649013440E+03  0.00000000000E+00 0.  1.
          2   -1    0    0  501    0  0.00000000000E+00 -0.00000000000E+00 -0.15928104512E+04  0.15928104512E+04  0.00000000000E+00 0. -1.
         24    2    1    2    0    0 -0.61222858497E+03  0.27623210284E+03 -0.10202297067E+04  0.12240958440E+04  0.80087240529E+02 0.  0.
        254    2    1    2    0    0  0.61222858497E+03 -0.27623210284E+03  0.20390938990E+03  0.11452047415E+04  0.90486841356E+03 0.  0.
         23    2    4    4    0    0  0.46016192950E+03 -0.21477203431E+03 -0.30708360515E+03  0.60072409373E+03  0.93236624532E+02 0.  0.
         23    2    4    4    0    0  0.15206665546E+03 -0.61460068536E+02  0.51099299505E+03  0.54448064781E+03  0.91889755249E+02 0.  0.
          2    1    3    3  502    0 -0.23577622944E+03  0.11071243300E+03 -0.32693328649E+03  0.41801082164E+03  0.00000000000E+00 0. -1.
         -1    1    3    3    0  502 -0.37645235553E+03  0.16551966984E+03 -0.69329642016E+03  0.80608502237E+03  0.00000000000E+00 0.  1.
         11    1    5    5    0    0  0.31858198113E+03 -0.17739819816E+03 -0.25642745596E+03  0.44577981065E+03  0.00000000000E+00 0. -1.
        -11    1    5    5    0    0  0.14157994837E+03 -0.37373836148E+02 -0.50656149186E+02  0.15494428308E+03  0.00000000000E+00 0.  1.
          3    1    6    6  503    0  0.14947334317E+03 -0.25136882624E+02  0.40920282061E+03  0.43637265219E+03  0.00000000000E+00 0. -1.
         -3    1    6    6    0  503  0.25933122912E+01 -0.36323185912E+02  0.10179017444E+03  0.10810799562E+03  0.00000000000E+00 0.  1.
<mgrwt>
<rscale>  0 0.22242316E+04</rscale>
<asrwt>0</asrwt>
<pdfrwt beam="1">  1        2 0.24504776E+00 0.22242316E+04</pdfrwt>
<pdfrwt beam="2">  1       -1 0.11946002E+00 0.22242316E+04</pdfrwt>
<totfact> 0.73206750E+00</totfact>
</mgrwt>
</event>
<event>
12    6  0.9491186E-008  0.2884211E+04  0.7818608E-02  0.8277591E-01
         -1   -1    0    0    0  501 -0.00000000000E+00  0.00000000000E+00  0.12077229911E+04  0.12077229911E+04  0.00000000000E+00 0.  1.
          2   -1    0    0  501    0  0.00000000000E+00 -0.00000000000E+00 -0.17219746417E+04  0.17219746417E+04  0.00000000000E+00 0. -1.
         24    2    1    2    0    0  0.13998194658E+03 -0.12707791386E+04 -0.47118758982E+03  0.13649897257E+04  0.81881877659E+02 0.  0.
        254    2    1    2    0    0 -0.13998194658E+03  0.12707791386E+04 -0.43064060831E+02  0.15647079072E+04  0.90110030346E+03 0.  0.
         23    2    4    4    0    0 -0.11445225418E+03  0.21765343561E+03  0.34954171724E+03  0.43690417292E+03  0.90738678076E+02 0.  0.
         23    2    4    4    0    0 -0.25529692394E+02  0.10531257030E+04 -0.39260577807E+03  0.11278037342E+04  0.89869096380E+02 0.  0.
          4    1    3    3  502    0  0.14004910823E+03 -0.11181300559E+04 -0.39260385881E+03  0.11933006178E+04  0.00000000000E+00 0. -1.
         -3    1    3    3    0  502 -0.67161649569E-01 -0.15264908274E+03 -0.78583731014E+02  0.17168910785E+03  0.00000000000E+00 0.  1.
         11    1    5    5    0    0 -0.90879210505E+02  0.10295785297E+03  0.24025617183E+03  0.27673521368E+03  0.00000000000E+00 0. -1.
        -11    1    5    5    0    0 -0.23573043678E+02  0.11469558264E+03  0.10928554541E+03  0.16016895923E+03  0.00000000000E+00 0.  1.
          3    1    6    6  503    0  0.25266957052E+02  0.70412353480E+03 -0.25995081688E+03  0.75100119746E+03  0.00000000000E+00 0. -1.
         -3    1    6    6    0  503 -0.50796649446E+02  0.34900216819E+03 -0.13265496119E+03  0.37680253678E+03  0.00000000000E+00 0.  1.
<mgrwt>
<rscale>  0 0.28842111E+04</rscale>
<asrwt>0</asrwt>
<pdfrwt beam="1">  1        2 0.26491918E+00 0.28842111E+04</pdfrwt>
<pdfrwt beam="2">  1       -1 0.18580354E+00 0.28842111E+04</pdfrwt>
<totfact> 0.17742051E+00</totfact>
</mgrwt>
</event>
<event>
12    6  0.9491186E-008  0.2801389E+04  0.7818608E-02  0.8302837E-01
         -1   -1    0    0    0  501 -0.00000000000E+00  0.00000000000E+00  0.95995790964E+03  0.95995790964E+03  0.00000000000E+00 0.  1.
          2   -1    0    0  501    0  0.00000000000E+00 -0.00000000000E+00 -0.20437825081E+04  0.20437825081E+04  0.00000000000E+00 0. -1.
         24    2    1    2    0    0  0.34130107040E+03  0.61265703532E+03  0.62993990016E+03  0.94603126569E+03  0.79472097413E+02 0.  0.
        254    2    1    2    0    0 -0.34130107040E+03 -0.61265703532E+03 -0.17137644986E+04  0.20577091520E+04  0.89740912301E+03 0.  0.
         23    2    4    4    0    0 -0.24366671999E+03  0.11537301167E+03 -0.13725654651E+03  0.31597330794E+03  0.91188647965E+02 0.  0.
         23    2    4    4    0    0 -0.97634350416E+02 -0.72803004700E+03 -0.15765079521E+04  0.17417358441E+04  0.93307083636E+02 0.  0.
          4    1    3    3  502    0  0.24213418184E+02  0.27553329160E+02  0.14071464625E+02  0.39287169466E+02  0.00000000000E+00 0. -1.
         -3    1    3    3    0  502  0.31708765222E+03  0.58510370616E+03  0.61586843553E+03  0.90674409622E+03  0.00000000000E+00 0.  1.
         11    1    5    5    0    0 -0.58106501973E+01  0.96688008208E+01  0.11556751217E+02  0.16149546858E+02  0.00000000000E+00 0.  1.
        -11    1    5    5    0    0 -0.23785606979E+03  0.10570421085E+03 -0.14881329773E+03  0.29982376108E+03  0.00000000000E+00 0. -1.
          2    1    6    6  503    0 -0.10621952619E+03 -0.72243586367E+03 -0.15548936845E+04  0.17178156289E+04  0.00000000000E+00 0. -1.
         -2    1    6    6    0  503  0.85851757703E+01 -0.55941833216E+01 -0.21614267549E+02  0.23920215127E+02  0.00000000000E+00 0.  1.
<mgrwt>
<rscale>  0 0.28013891E+04</rscale>
<asrwt>0</asrwt>
<pdfrwt beam="1">  1        2 0.31442807E+00 0.28013891E+04</pdfrwt>
<pdfrwt beam="2">  1       -1 0.14768583E+00 0.28013891E+04</pdfrwt>
<totfact> 0.22742347E+00</totfact>
</mgrwt>
</event>
<event>
12    6  0.9491186E-008  0.1714902E+04  0.7818608E-02  0.8752911E-01
          2   -1    0    0  501    0  0.00000000000E+00  0.00000000000E+00  0.69197142074E+03  0.69197142074E+03  0.00000000000E+00 0. -1.
         -1   -1    0    0    0  501 -0.00000000000E+00 -0.00000000000E+00 -0.10625033187E+04  0.10625033187E+04  0.00000000000E+00 0.  1.
         24    2    1    2    0    0 -0.63542460509E+03  0.22667448778E+03 -0.25130549888E+03  0.72445141455E+03  0.80806225774E+02 0.  0.
        254    2    1    2    0    0  0.63542460509E+03 -0.22667448778E+03 -0.11922639912E+03  0.10300233249E+04  0.76914716634E+03 0.  0.
         23    2    4    4    0    0  0.21492930348E+03  0.14418250868E+03  0.23434304456E+03  0.36098475041E+03  0.91706740160E+02 0.  0.
         23    2    4    4    0    0  0.42049530161E+03 -0.37085699646E+03 -0.35356944368E+03  0.66903857452E+03  0.90829797991E+02 0.  0.
          4    1    3    3  502    0 -0.26440071495E+03  0.10789577184E+03 -0.14686913514E+03  0.32112268450E+03  0.00000000000E+00 0. -1.
         -3    1    3    3    0  502 -0.37102389014E+03  0.11877871594E+03 -0.10443636374E+03  0.40332873005E+03  0.00000000000E+00 0.  1.
         11    1    5    5    0    0  0.44943548887E+02  0.11160090355E+02  0.90318708886E+02  0.10149846983E+03  0.00000000000E+00 0. -1.
        -11    1    5    5    0    0  0.16998575459E+03  0.13302241833E+03  0.14402433567E+03  0.25948628057E+03  0.00000000000E+00 0.  1.
          3    1    6    6  503    0  0.71735767488E+02 -0.28976912445E+02 -0.28908313241E+02  0.82591599854E+02  0.00000000000E+00 0. -1.
         -3    1    6    6    0  503  0.34875953412E+03 -0.34188008401E+03 -0.32466113044E+03  0.58644697467E+03  0.00000000000E+00 0.  1.
<mgrwt>
<rscale>  0 0.17149017E+04</rscale>
<asrwt>0</asrwt>
<pdfrwt beam="1">  1        2 0.10645714E+00 0.17149017E+04</pdfrwt>
<pdfrwt beam="2">  1       -1 0.16346205E+00 0.17149017E+04</pdfrwt>
<totfact> 0.12417852E+01</totfact>
</mgrwt>
</event>
<event>
12    6  0.9491186E-008  0.2565563E+04  0.7818608E-02  0.8379994E-01
          2   -1    0    0  501    0  0.00000000000E+00  0.00000000000E+00  0.16004191857E+04  0.16004191857E+04  0.00000000000E+00 0. -1.
         -1   -1    0    0    0  501 -0.00000000000E+00 -0.00000000000E+00 -0.10281857573E+04  0.10281857573E+04  0.00000000000E+00 0.  1.
         24    2    1    2    0    0  0.99045259194E+03  0.31314223586E+03 -0.18282984219E+03  0.10577751230E+04  0.80044130230E+02 0.  0.
        254    2    1    2    0    0 -0.99045259194E+03 -0.31314223586E+03  0.75506327062E+03  0.15708298201E+04  0.90461670575E+03 0.  0.
         23    2    4    4    0    0 -0.50963308044E+03  0.16314161615E+03  0.70010841732E+03  0.88579010273E+03  0.90173424546E+02 0.  0.
         23    2    4    4    0    0 -0.48081951150E+03 -0.47628385201E+03  0.54954853302E+02  0.68503971737E+03  0.90695469305E+02 0.  0.
          4    1    3    3  502    0  0.38920734634E+02  0.25083895074E+01 -0.19428927413E+02  0.43572913866E+02  0.00000000000E+00 0. -1.
         -3    1    3    3    0  502  0.95153185730E+03  0.31063384635E+03 -0.16340091478E+03  0.10142022091E+04  0.00000000000E+00 0.  1.
         11    1    5    5    0    0 -0.35813048245E+03  0.14478612648E+03  0.45283075085E+03  0.59521101619E+03  0.00000000000E+00 0. -1.
        -11    1    5    5    0    0 -0.15150259799E+03  0.18355489668E+02  0.24727766647E+03  0.29057908654E+03  0.00000000000E+00 0.  1.
          4    1    6    6  503    0 -0.43537053873E+03 -0.41850974699E+03  0.75780671165E+02  0.60863833632E+03  0.00000000000E+00 0. -1.
         -4    1    6    6    0  503 -0.45448972771E+02 -0.57774105019E+02 -0.20825817863E+02  0.76401381049E+02  0.00000000000E+00 0.  1.
<mgrwt>
<rscale>  0 0.25655629E+04</rscale>
<asrwt>0</asrwt>
<pdfrwt beam="1">  1        2 0.24621834E+00 0.25655629E+04</pdfrwt>
<pdfrwt beam="2">  1       -1 0.15818242E+00 0.25655629E+04</pdfrwt>
<totfact> 0.33967829E+00</totfact>
</mgrwt>
</event>
<event>
12    6  0.9491186E-008  0.1954631E+04  0.7818608E-02  0.8628131E-01
         -1   -1    0    0    0  501 -0.00000000000E+00  0.00000000000E+00  0.79334621832E+03  0.79334621832E+03  0.00000000000E+00 0.  1.
          2   -1    0    0  501    0  0.00000000000E+00 -0.00000000000E+00 -0.12039459608E+04  0.12039459608E+04  0.00000000000E+00 0. -1.
         24    2    1    2    0    0  0.52005635331E+03 -0.42026019251E+03 -0.55815738201E+03  0.87459401157E+03  0.79358565707E+02 0.  0.
        254    2    1    2    0    0 -0.52005635331E+03  0.42026019251E+03  0.14755763955E+03  0.11226981675E+04  0.88971943801E+03 0.  0.
         23    2    4    4    0    0  0.24217380972E+03  0.78708475246E+02  0.64894100619E+02  0.27812842809E+03  0.91109823972E+02 0.  0.
         23    2    4    4    0    0 -0.76223016303E+03  0.34155171726E+03  0.82663538934E+02  0.84456973945E+03  0.93874315588E+02 0.  0.
          2    1    3    3  502    0  0.33988819905E+03 -0.31196711624E+03 -0.35351468431E+03  0.58122293614E+03  0.00000000000E+00 0. -1.
         -1    1    3    3    0  502  0.18016815425E+03 -0.10829307627E+03 -0.20464269770E+03  0.29337107543E+03  0.00000000000E+00 0.  1.
         11    1    5    5    0    0  0.13336665411E+02 -0.13400091998E+02 -0.85488181079E+01  0.20748768659E+02  0.00000000000E+00 0. -1.
        -11    1    5    5    0    0  0.22883714431E+03  0.92108567243E+02  0.73442918727E+02  0.25737965943E+03  0.00000000000E+00 0.  1.
          2    1    6    6  503    0 -0.19728265691E+03  0.95030967600E+02 -0.19201081636E+02  0.21981813632E+03  0.00000000000E+00 0.  1.
         -2    1    6    6    0  503 -0.56494750612E+03  0.24652074966E+03  0.10186462057E+03  0.62475160313E+03  0.00000000000E+00 0. -1.
<mgrwt>
<rscale>  0 0.19546314E+04</rscale>
<asrwt>0</asrwt>
<pdfrwt beam="1">  1        2 0.18522245E+00 0.19546314E+04</pdfrwt>
<pdfrwt beam="2">  1       -1 0.12205327E+00 0.19546314E+04</pdfrwt>
<totfact> 0.11892978E+01</totfact>
</mgrwt>
</event>
<event>
12    6  0.9491186E-008  0.1367517E+04  0.7818608E-02  0.8977673E-01
         -1   -1    0    0    0  501 -0.00000000000E+00  0.00000000000E+00  0.65588458578E+03  0.65588458578E+03  0.00000000000E+00 0.  1.
          2   -1    0    0  501    0  0.00000000000E+00 -0.00000000000E+00 -0.71281744766E+03  0.71281744766E+03  0.00000000000E+00 0. -1.
         24    2    1    2    0    0 -0.25123309211E+03  0.14714848597E+03  0.23043982374E+03  0.37989688564E+03  0.80301854668E+02 0.  0.
        254    2    1    2    0    0  0.25123309211E+03 -0.14714848597E+03 -0.28737268561E+03  0.98880514780E+03  0.90021209522E+03 0.  0.
         23    2    4    4    0    0  0.11543436845E+03  0.13995991446E+02 -0.59063222748E+03  0.60873175654E+03  0.90481722339E+02 0.  0.
         23    2    4    4    0    0  0.13579872366E+03 -0.16114447742E+03  0.30325954187E+03  0.38007339126E+03  0.89892141245E+02 0.  0.
          4    1    3    3  502    0 -0.59249131330E+02  0.16702023174E+02  0.15331302979E+02  0.63438678994E+02  0.00000000000E+00 0. -1.
         -3    1    3    3    0  502 -0.19198396078E+03  0.13044646280E+03  0.21510852076E+03  0.31645820665E+03  0.00000000000E+00 0.  1.
         11    1    5    5    0    0  0.10721721197E+03  0.19253340659E+02 -0.32208303603E+03  0.34000544667E+03  0.00000000000E+00 0.  1.
        -11    1    5    5    0    0  0.82171564728E+01 -0.52573492132E+01 -0.26854919146E+03  0.26872630986E+03  0.00000000000E+00 0. -1.
          2    1    6    6  503    0  0.98250383755E+02 -0.15293862051E+03  0.28371902173E+03  0.33695673735E+03  0.00000000000E+00 0.  1.
         -2    1    6    6    0  503  0.37548339906E+02 -0.82058569068E+01  0.19540520140E+02  0.43116653912E+02  0.00000000000E+00 0. -1.
<mgrwt>
<rscale>  0 0.13675174E+04</rscale>
<asrwt>0</asrwt>
<pdfrwt beam="1">  1        2 0.10966422E+00 0.13675174E+04</pdfrwt>
<pdfrwt beam="2">  1       -1 0.10090532E+00 0.13675174E+04</pdfrwt>
<totfact> 0.41668172E+01</totfact>
</mgrwt>
</event>
<event>
12    6  0.9491186E-008  0.2288707E+04  0.7818608E-02  0.8482387E-01
         -1   -1    0    0    0  501 -0.00000000000E+00  0.00000000000E+00  0.19764543658E+04  0.19764543658E+04  0.00000000000E+00 0.  1.
          2   -1    0    0  501    0  0.00000000000E+00 -0.00000000000E+00 -0.66257276696E+03  0.66257276696E+03  0.00000000000E+00 0. -1.
         24    2    1    2    0    0 -0.81527812042E+03 -0.27230356494E+03  0.49218576358E+02  0.86471270458E+03  0.80485701213E+02 0.  0.
        254    2    1    2    0    0  0.81527812042E+03  0.27230356494E+03  0.12646630224E+04  0.17743144281E+04  0.89999526911E+03 0.  0.
         23    2    4    4    0    0  0.92016854718E+03  0.55727529955E+02  0.11897577246E+04  0.15081197391E+04  0.95320466227E+02 0.  0.
         23    2    4    4    0    0 -0.10489042676E+03  0.21657603498E+03  0.74905297838E+02  0.26619468907E+03  0.85683302271E+02 0.  0.
          4    1    3    3  502    0 -0.60245096272E+03 -0.23259857276E+03  0.55044831077E+02  0.64813516488E+03  0.00000000000E+00 0. -1.
         -3    1    3    3    0  502 -0.21282715770E+03 -0.39704992175E+02 -0.58262547194E+01  0.21657753970E+03  0.00000000000E+00 0.  1.
         11    1    5    5    0    0  0.34490397678E+03  0.31943750804E+02  0.52134719492E+03  0.62592495881E+03  0.00000000000E+00 0.  1.
        -11    1    5    5    0    0  0.57526457040E+03  0.23783779151E+02  0.66841052969E+03  0.88219478025E+03  0.00000000000E+00 0. -1.
          2    1    6    6  503    0 -0.65352346723E+02  0.16215798675E+03  0.90905076575E+02  0.19705297469E+03  0.00000000000E+00 0. -1.
         -2    1    6    6    0  503 -0.39538080040E+02  0.54418048236E+02 -0.15999778737E+02  0.69141714375E+02  0.00000000000E+00 0.  1.
<mgrwt>
<rscale>  0 0.22887069E+04</rscale>
<asrwt>0</asrwt>
<pdfrwt beam="1">  1        2 0.10193427E+00 0.22887069E+04</pdfrwt>
<pdfrwt beam="2">  1       -1 0.30406990E+00 0.22887069E+04</pdfrwt>
<totfact> 0.14133850E+00</totfact>
</mgrwt>
</event>
<event>
12    6  0.9491186E-008  0.2364371E+04  0.7818608E-02  0.8452964E-01
         -1   -1    0    0    0  501 -0.00000000000E+00  0.00000000000E+00  0.33105852032E+03  0.33105852032E+03  0.00000000000E+00 0.  1.
          2   -1    0    0  501    0  0.00000000000E+00 -0.00000000000E+00 -0.42214969759E+04  0.42214969759E+04  0.00000000000E+00 0. -1.
         24    2    1    2    0    0  0.10081984979E+02  0.20150085501E+02  0.27841855100E+03  0.28859120737E+03  0.72528084672E+02 0.  0.
        254    2    1    2    0    0 -0.10081984979E+02 -0.20150085501E+02 -0.41688570065E+04  0.42639642888E+04  0.89527372513E+03 0.  0.
         23    2    4    4    0    0  0.37660996216E+02 -0.15589123308E+03 -0.13966880308E+03  0.23120578598E+03  0.90710053090E+02 0.  0.
         23    2    4    4    0    0 -0.47742981196E+02  0.13574114758E+03 -0.40291882035E+04  0.40327585028E+04  0.89880541948E+02 0.  0.
          2    1    3    3  502    0  0.10912648391E+02  0.26284488161E+02  0.35074182691E+02  0.45168113800E+02  0.00000000000E+00 0. -1.
         -1    1    3    3    0  502 -0.83066341188E+00 -0.61344026600E+01  0.24334436831E+03  0.24342309357E+03  0.00000000000E+00 0.  1.
         11    1    5    5    0    0  0.21676115764E+02  0.35047418299E+01 -0.65339421552E+01  0.22909159958E+02  0.00000000000E+00 0.  1.
        -11    1    5    5    0    0  0.15984880453E+02 -0.15939597491E+03 -0.13313486092E+03  0.20829662603E+03  0.00000000000E+00 0. -1.
          3    1    6    6  503    0 -0.27263903198E+02  0.14132554321E+03 -0.31144579523E+04  0.31177819947E+04  0.00000000000E+00 0. -1.
         -3    1    6    6    0  503 -0.20479077997E+02 -0.55843956287E+01 -0.91473025111E+03  0.91497650812E+03  0.00000000000E+00 0.  1.
<mgrwt>
<rscale>  0 0.23643710E+04</rscale>
<asrwt>0</asrwt>
<pdfrwt beam="1">  1        2 0.64946108E+00 0.23643710E+04</pdfrwt>
<pdfrwt beam="2">  1       -1 0.50932079E-01 0.23643710E+04</pdfrwt>
<totfact> 0.89104407E-01</totfact>
</mgrwt>
</event>
<event>
12    6  0.9491186E-008  0.1748543E+04  0.7818608E-02  0.8734153E-01
          4   -1    0    0  501    0  0.00000000000E+00  0.00000000000E+00  0.69200485512E+03  0.69200485512E+03  0.00000000000E+00 0. -1.
         -3   -1    0    0    0  501 -0.00000000000E+00 -0.00000000000E+00 -0.11045451265E+04  0.11045451265E+04  0.00000000000E+00 0.  1.
         24    2    1    2    0    0  0.31067108047E+03 -0.53414305686E+03 -0.31701117427E+03  0.69896761091E+03  0.78957653628E+02 0.  0.
        254    2    1    2    0    0 -0.31067108047E+03  0.53414305686E+03 -0.95529097071E+02  0.10975823707E+04  0.90207312707E+03 0.  0.
         23    2    4    4    0    0  0.11752479448E+03 -0.49796719586E+02 -0.30098807691E+03  0.33942561158E+03  0.91236685368E+02 0.  0.
         23    2    4    4    0    0 -0.42819587495E+03  0.58393977644E+03  0.20545897984E+03  0.75815675909E+03  0.90834515051E+02 0.  0.
          2    1    3    3  502    0  0.19886759643E+03 -0.30806300204E+03 -0.22656843582E+03  0.43102713400E+03  0.00000000000E+00 0. -1.
         -1    1    3    3    0  502  0.11180348405E+03 -0.22608005482E+03 -0.90442738446E+02  0.26794047691E+03  0.00000000000E+00 0.  1.
         11    1    5    5    0    0  0.10469949818E+03 -0.13476705945E+02 -0.27028438933E+03  0.29016763713E+03  0.00000000000E+00 0. -1.
        -11    1    5    5    0    0  0.12825296294E+02 -0.36320013640E+02 -0.30703687578E+02  0.49257974448E+02  0.00000000000E+00 0.  1.
          1    1    6    6  503    0 -0.26539974740E+03  0.42102683170E+03  0.11565599650E+03  0.51095687534E+03  0.00000000000E+00 0. -1.
         -1    1    6    6    0  503 -0.16279612755E+03  0.16291294474E+03  0.89802983339E+02  0.24719988375E+03  0.00000000000E+00 0.  1.
<mgrwt>
<rscale>  0 0.17485429E+04</rscale>
<asrwt>0</asrwt>
<pdfrwt beam="1">  1        4 0.10646229E+00 0.17485429E+04</pdfrwt>
<pdfrwt beam="2">  1       -3 0.16993002E+00 0.17485429E+04</pdfrwt>
<totfact> 0.35664516E-01</totfact>
</mgrwt>
</event>
<event>
12    6  0.9491186E-008  0.2248392E+04  0.7818608E-02  0.8498552E-01
          2   -1    0    0  501    0  0.00000000000E+00  0.00000000000E+00  0.20388068355E+04  0.20388068355E+04  0.00000000000E+00 0. -1.
         -1   -1    0    0    0  501 -0.00000000000E+00 -0.00000000000E+00 -0.61988031962E+03  0.61988031962E+03  0.00000000000E+00 0.  1.
         24    2    1    2    0    0  0.55605582991E+03 -0.59392975247E+03  0.26786264899E+02  0.81781630389E+03  0.78456141108E+02 0.  0.
        254    2    1    2    0    0 -0.55605582991E+03  0.59392975247E+03  0.13921402510E+04  0.18408708512E+04  0.88814434391E+03 0.  0.
         23    2    4    4    0    0 -0.31036471287E+03 -0.11220686381E+03  0.12001413640E+03  0.36255492561E+03  0.90144583137E+02 0.  0.
         23    2    4    4    0    0 -0.24569111705E+03  0.70613661628E+03  0.12721261146E+04  0.14783159256E+04  0.90111479183E+02 0.  0.
          2    1    3    3  502    0  0.95431859868E+02 -0.13697156944E+03  0.26202428160E+02  0.16898230071E+03  0.00000000000E+00 0. -1.
         -1    1    3    3    0  502  0.46062397004E+03 -0.45695818303E+03  0.58383673950E+00  0.64883400318E+03  0.00000000000E+00 0.  1.
         11    1    5    5    0    0 -0.30227633796E+03 -0.10348322612E+03  0.92563864357E+02  0.33263768813E+03  0.00000000000E+00 0. -1.
        -11    1    5    5    0    0 -0.80883749072E+01 -0.87236376849E+01  0.27450272046E+02  0.29917237481E+02  0.00000000000E+00 0.  1.
          3    1    6    6  503    0 -0.21638486859E+03  0.67048493447E+03  0.12189079991E+04  0.14078739891E+04  0.00000000000E+00 0. -1.
         -3    1    6    6    0  503 -0.29306248453E+02  0.35651681812E+02  0.53218115436E+02  0.70441936550E+02  0.00000000000E+00 0.  1.
<mgrwt>
<rscale>  0 0.22483916E+04</rscale>
<asrwt>0</asrwt>
<pdfrwt beam="1">  1        2 0.31366259E+00 0.22483916E+04</pdfrwt>
<pdfrwt beam="2">  1       -1 0.95366204E-01 0.22483916E+04</pdfrwt>
<totfact> 0.69915831E+00</totfact>
</mgrwt>
</event>
<event>
12    6  0.9491186E-008  0.2548598E+04  0.7818608E-02  0.8385874E-01
          2   -1    0    0  501    0  0.00000000000E+00  0.00000000000E+00  0.15959731746E+04  0.15959731746E+04  0.00000000000E+00 0. -1.
         -1   -1    0    0    0  501 -0.00000000000E+00 -0.00000000000E+00 -0.10174596535E+04  0.10174596535E+04  0.00000000000E+00 0.  1.
         24    2    1    2    0    0  0.13874362782E+03 -0.10081781028E+04 -0.20715179411E+03  0.10419815277E+04  0.84502999917E+02 0.  0.
        254    2    1    2    0    0 -0.13874362782E+03  0.10081781028E+04  0.78566531520E+03  0.15714513005E+04  0.90361292660E+03 0.  0.
         23    2    4    4    0    0 -0.81471405737E+02  0.51879534936E+03 -0.11077094649E+03  0.54440386735E+03  0.91209449733E+02 0.  0.
         23    2    4    4    0    0 -0.57272222083E+02  0.48938275342E+03  0.89643626168E+03  0.10270474331E+04  0.91939501330E+02 0.  0.
          2    1    3    3  502    0  0.10974008225E+03 -0.89183300102E+03 -0.15776889865E+03  0.91230478062E+03  0.00000000000E+00 0. -1.
         -1    1    3    3    0  502  0.29003545573E+02 -0.11634510177E+03 -0.49382895453E+02  0.12967674704E+03  0.00000000000E+00 0.  1.
         11    1    5    5    0    0 -0.34895632655E+02  0.39995553151E+03 -0.55434337778E+02  0.40528397226E+03  0.00000000000E+00 0. -1.
        -11    1    5    5    0    0 -0.46575773083E+02  0.11883981785E+03 -0.55336608710E+02  0.13911989509E+03  0.00000000000E+00 0.  1.
          4    1    6    6  503    0 -0.33560713497E+02  0.74701202828E+02  0.20056769230E+03  0.21664254058E+03  0.00000000000E+00 0. -1.
         -4    1    6    6    0  503 -0.23711508586E+02  0.41468155059E+03  0.69586856939E+03  0.81040489257E+03  0.00000000000E+00 0.  1.
<mgrwt>
<rscale>  0 0.25485983E+04</rscale>
<asrwt>0</asrwt>
<pdfrwt beam="1">  1        2 0.24553434E+00 0.25485983E+04</pdfrwt>
<pdfrwt beam="2">  1       -1 0.15653225E+00 0.25485983E+04</pdfrwt>
<totfact> 0.35220455E+00</totfact>
</mgrwt>
</event>
<event>
12    6  0.9491186E-008  0.1717554E+04  0.7818608E-02  0.8751415E-01
         -1   -1    0    0    0  501 -0.00000000000E+00  0.00000000000E+00  0.29359754561E+03  0.29359754561E+03  0.00000000000E+00 0.  1.
          2   -1    0    0  501    0  0.00000000000E+00 -0.00000000000E+00 -0.25119355749E+04  0.25119355749E+04  0.00000000000E+00 0. -1.
         24    2    1    2    0    0 -0.54277343790E+03 -0.22412604699E+03 -0.48384501003E+03  0.76496655720E+03  0.78945234653E+02 0.  0.
        254    2    1    2    0    0  0.54277343790E+03  0.22412604699E+03 -0.17344930193E+04  0.20405665633E+04  0.90033903371E+03 0.  0.
         23    2    4    4    0    0  0.40419774762E+03  0.28245524333E+03 -0.17871960652E+04  0.18561983928E+04  0.90807015488E+02 0.  0.
         23    2    4    4    0    0  0.13857569027E+03 -0.58329196342E+02  0.52703045969E+02  0.18436817055E+03  0.92781971176E+02 0.  0.
          2    1    3    3  502    0 -0.45608359517E+03 -0.16384922638E+03 -0.37019691081E+03  0.60983978842E+03  0.00000000000E+00 0. -1.
         -1    1    3    3    0  502 -0.86689842730E+02 -0.60276820612E+02 -0.11364809922E+03  0.15512676878E+03  0.00000000000E+00 0.  1.
         11    1    5    5    0    0  0.29920709857E+03  0.23050995172E+03 -0.14797424783E+04  0.15271861471E+04  0.00000000000E+00 0.  1.
        -11    1    5    5    0    0  0.10499064905E+03  0.51945291619E+02 -0.30745358688E+03  0.32901224566E+03  0.00000000000E+00 0. -1.
          4    1    6    6  503    0  0.34990396205E+02  0.68408682153E+01 -0.21126453550E+02  0.41442156606E+02  0.00000000000E+00 0. -1.
         -4    1    6    6    0  503  0.10358529407E+03 -0.65170064557E+02  0.73829499519E+02  0.14292601394E+03  0.00000000000E+00 0.  1.
<mgrwt>
<rscale>  0 0.17175542E+04</rscale>
<asrwt>0</asrwt>
<pdfrwt beam="1">  1        2 0.38645163E+00 0.17175542E+04</pdfrwt>
<pdfrwt beam="2">  1       -1 0.45168852E-01 0.17175542E+04</pdfrwt>
<totfact> 0.18057223E+01</totfact>
</mgrwt>
</event>
<event>
12    6  0.9491186E-008  0.1540248E+04  0.7818608E-02  0.8858121E-01
          2   -1    0    0  501    0  0.00000000000E+00  0.00000000000E+00  0.11675129805E+04  0.11675129805E+04  0.00000000000E+00 0. -1.
         -1   -1    0    0    0  501 -0.00000000000E+00 -0.00000000000E+00 -0.50799506491E+03  0.50799506491E+03  0.00000000000E+00 0.  1.
         24    2    1    2    0    0  0.12303969475E+03  0.20587540625E+03 -0.26430369196E+03  0.36604209025E+03  0.81282967879E+02 0.  0.
        254    2    1    2    0    0 -0.12303969475E+03 -0.20587540625E+03  0.92382160754E+03  0.13094659551E+04  0.89651061106E+03 0.  0.
         23    2    4    4    0    0  0.49529877457E+02 -0.52307261370E+03  0.39710023653E+03  0.66455138118E+03  0.88779346774E+02 0.  0.
         23    2    4    4    0    0 -0.17256957221E+03  0.31719720745E+03  0.52672137101E+03  0.64491457397E+03  0.89917069397E+02 0.  0.
          2    1    3    3  502    0  0.21997687802E+02  0.19026319301E+00 -0.11474426252E+02  0.24811225817E+02  0.00000000000E+00 0. -1.
         -1    1    3    3    0  502  0.10104200695E+03  0.20568514306E+03 -0.25282926571E+03  0.34123086444E+03  0.00000000000E+00 0.  1.
         11    1    5    5    0    0  0.74119053618E+02 -0.33701431562E+03  0.25057352688E+03  0.42644973375E+03  0.00000000000E+00 0.  1.
        -11    1    5    5    0    0 -0.24589176161E+02 -0.18605829808E+03  0.14652670965E+03  0.23810164743E+03  0.00000000000E+00 0. -1.
          3    1    6    6  503    0 -0.13616242323E+03  0.30378460508E+03  0.48070151732E+03  0.58472150682E+03  0.00000000000E+00 0. -1.
         -3    1    6    6    0  503 -0.36407148976E+02  0.13412602372E+02  0.46019853690E+02  0.60193067147E+02  0.00000000000E+00 0.  1.
<mgrwt>
<rscale>  0 0.15402478E+04</rscale>
<asrwt>0</asrwt>
<pdfrwt beam="1">  1        2 0.17961738E+00 0.15402478E+04</pdfrwt>
<pdfrwt beam="2">  1       -1 0.78153087E-01 0.15402478E+04</pdfrwt>
<totfact> 0.35681870E+01</totfact>
</mgrwt>
</event>
<event>
12    6  0.9491186E-008  0.2561313E+04  0.7818608E-02  0.8381462E-01
          2   -1    0    0  501    0  0.00000000000E+00  0.00000000000E+00  0.13988065324E+04  0.13988065324E+04  0.00000000000E+00 0. -1.
         -1   -1    0    0    0  501 -0.00000000000E+00 -0.00000000000E+00 -0.11724862847E+04  0.11724862847E+04  0.00000000000E+00 0.  1.
         24    2    1    2    0    0  0.67946360825E+03  0.18507739317E+03  0.97361534670E+03  0.12051299014E+04  0.92123826501E+02 0.  0.
        254    2    1    2    0    0 -0.67946360825E+03 -0.18507739317E+03 -0.74729509897E+03  0.13661629157E+04  0.90112524711E+03 0.  0.
         23    2    4    4    0    0 -0.40276393016E+03 -0.51825485579E+03 -0.27274143199E+03  0.71666273407E+03  0.91709905093E+02 0.  0.
         23    2    4    4    0    0 -0.27669967809E+03  0.33317746262E+03 -0.47455366698E+03  0.64950018166E+03  0.95285726536E+02 0.  0.
          2    1    3    3  502    0  0.45277663838E+03  0.16506507089E+03  0.68637206235E+03  0.83866546958E+03  0.00000000000E+00 0. -1.
         -1    1    3    3    0  502  0.22668696987E+03  0.20012322285E+02  0.28724328434E+03  0.36646443177E+03  0.00000000000E+00 0.  1.
         11    1    5    5    0    0 -0.25166168617E+03 -0.39121556640E+03 -0.18437919684E+03  0.50037876844E+03  0.00000000000E+00 0. -1.
        -11    1    5    5    0    0 -0.15110224399E+03 -0.12703928940E+03 -0.88362235160E+02  0.21628396564E+03  0.00000000000E+00 0.  1.
          3    1    6    6  503    0 -0.14612959755E+03  0.21598972244E+03 -0.22489375406E+03  0.34435827288E+03  0.00000000000E+00 0. -1.
         -3    1    6    6    0  503 -0.13057008054E+03  0.11718774017E+03 -0.24965991291E+03  0.30514190878E+03  0.00000000000E+00 0.  1.
<mgrwt>
<rscale>  0 0.25613133E+04</rscale>
<asrwt>0</asrwt>
<pdfrwt beam="1">  1        2 0.21520100E+00 0.25613133E+04</pdfrwt>
<pdfrwt beam="2">  1       -1 0.18038251E+00 0.25613133E+04</pdfrwt>
<totfact> 0.30299928E+00</totfact>
</mgrwt>
</event>
<event>
12    6  0.9491186E-008  0.1290672E+04  0.7818608E-02  0.9036995E-01
          2   -1    0    0  501    0  0.00000000000E+00  0.00000000000E+00  0.66242738681E+03  0.66242738681E+03  0.00000000000E+00 0. -1.
         -1   -1    0    0    0  501 -0.00000000000E+00 -0.00000000000E+00 -0.62868586817E+03  0.62868586817E+03  0.00000000000E+00 0.  1.
         24    2    1    2    0    0  0.14834052130E+03  0.22352276866E+03  0.19966311448E+03  0.34337715208E+03  0.77943382781E+02 0.  0.
        254    2    1    2    0    0 -0.14834052130E+03 -0.22352276866E+03 -0.16592159584E+03  0.94773610290E+03  0.89370375763E+03 0.  0.
         23    2    4    4    0    0 -0.60693782109E+02  0.89067796961E+02 -0.47176705210E+03  0.49232860383E+03  0.90589707262E+02 0.  0.
         23    2    4    4    0    0 -0.87646739191E+02 -0.31259056562E+03  0.30584545626E+03  0.45540749907E+03  0.91976814944E+02 0.  0.
          4    1    3    3  502    0  0.83939185195E+02  0.17339108382E+03  0.16877060867E+03  0.25611281325E+03  0.00000000000E+00 0. -1.
         -3    1    3    3    0  502  0.64401336105E+02  0.50131684836E+02  0.30892505815E+02  0.87264338834E+02  0.00000000000E+00 0.  1.
         11    1    5    5    0    0 -0.61540654694E+02  0.10025351277E+03 -0.33408558131E+03  0.35419090141E+03  0.00000000000E+00 0.  1.
        -11    1    5    5    0    0  0.84687258548E+00 -0.11185715808E+02 -0.13768147079E+03  0.13813770242E+03  0.00000000000E+00 0. -1.
          1    1    6    6  503    0  0.87938515781E+01 -0.12133030799E+03  0.13231082611E+03  0.17973461038E+03  0.00000000000E+00 0. -1.
         -1    1    6    6    0  503 -0.96440590769E+02 -0.19126025763E+03  0.17353463015E+03  0.27567288869E+03  0.00000000000E+00 0.  1.
<mgrwt>
<rscale>  0 0.12906723E+04</rscale>
<asrwt>0</asrwt>
<pdfrwt beam="1">  1        2 0.10191191E+00 0.12906723E+04</pdfrwt>
<pdfrwt beam="2">  1       -1 0.96720903E-01 0.12906723E+04</pdfrwt>
<totfact> 0.50625070E+01</totfact>
</mgrwt>
</event>
<event>
12    6  0.9491186E-008  0.1223719E+04  0.7818608E-02  0.9092345E-01
         -1   -1    0    0    0  501 -0.00000000000E+00  0.00000000000E+00  0.27768505866E+03  0.27768505866E+03  0.00000000000E+00 0.  1.
          2   -1    0    0  501    0  0.00000000000E+00 -0.00000000000E+00 -0.13481904028E+04  0.13481904028E+04  0.00000000000E+00 0. -1.
         24    2    1    2    0    0 -0.55233665678E+02  0.21768322013E+02  0.99110517202E+02  0.14392928604E+03  0.85837795251E+02 0.  0.
        254    2    1    2    0    0  0.55233665678E+02 -0.21768322013E+02 -0.11696158613E+04  0.14819461754E+04  0.90809613262E+03 0.  0.
         23    2    4    4    0    0 -0.59077409495E+02  0.28266766252E+03 -0.10937043101E+04  0.11353929642E+04  0.97657141707E+02 0.  0.
         23    2    4    4    0    0  0.11431107517E+03 -0.30443598454E+03 -0.75911551195E+02  0.34655321124E+03  0.92672941197E+02 0.  0.
          2    1    3    3  502    0 -0.60062474312E+01 -0.10370455170E+02 -0.12788781120E+02  0.17526387853E+02  0.00000000000E+00 0. -1.
         -1    1    3    3    0  502 -0.49227418247E+02  0.32138777183E+02  0.11189929832E+03  0.12640289819E+03  0.00000000000E+00 0.  1.
         11    1    5    5    0    0  0.14623078049E+02  0.87361140571E+01 -0.12018159759E+03  0.12138274383E+03  0.00000000000E+00 0. -1.
        -11    1    5    5    0    0 -0.73700487544E+02  0.27393154847E+03 -0.97352271255E+03  0.10140102203E+04  0.00000000000E+00 0.  1.
          3    1    6    6  503    0  0.64423106056E+02 -0.79606010655E+02 -0.52462397170E+02  0.11506414143E+03  0.00000000000E+00 0. -1.
         -3    1    6    6    0  503  0.49887969117E+02 -0.22482997388E+03 -0.23449154026E+02  0.23148906981E+03  0.00000000000E+00 0.  1.
<mgrwt>
<rscale>  0 0.12237195E+04</rscale>
<asrwt>0</asrwt>
<pdfrwt beam="1">  1        2 0.20741391E+00 0.12237195E+04</pdfrwt>
<pdfrwt beam="2">  1       -1 0.42720778E-01 0.12237195E+04</pdfrwt>
<totfact> 0.93846551E+01</totfact>
</mgrwt>
</event>
<event>
12    6  0.9491186E-008  0.1457723E+04  0.7818608E-02  0.8913064E-01
          2   -1    0    0  501    0  0.00000000000E+00  0.00000000000E+00  0.24307484253E+04  0.24307484253E+04  0.00000000000E+00 0. -1.
         -1   -1    0    0    0  501 -0.00000000000E+00 -0.00000000000E+00 -0.21854946573E+03  0.21854946573E+03  0.00000000000E+00 0.  1.
         24    2    1    2    0    0  0.25821469628E+03  0.31704497776E+03  0.10065722032E+04  0.10896132874E+04  0.82928695064E+02 0.  0.
        254    2    1    2    0    0 -0.25821469628E+03 -0.31704497776E+03  0.12056267564E+04  0.15596846037E+04  0.90104818957E+03 0.  0.
         23    2    4    4    0    0 -0.40697215910E+03 -0.37557358884E+03  0.12512675405E+04  0.13711305153E+04  0.87444685946E+02 0.  0.
         23    2    4    4    0    0  0.14875746282E+03  0.58528611081E+02 -0.45640784160E+02  0.18855408836E+03  0.88967308590E+02 0.  0.
          4    1    3    3  502    0  0.23478484947E+03  0.30843992310E+03  0.97591229743E+03  0.10500780561E+04  0.00000000000E+00 0. -1.
         -3    1    3    3    0  502  0.23429846813E+02  0.86050546612E+01  0.30659905790E+02  0.39535231256E+02  0.00000000000E+00 0.  1.
         11    1    5    5    0    0 -0.22940563284E+03 -0.26295145968E+03  0.82730659648E+03  0.89789009299E+03  0.00000000000E+00 0.  1.
        -11    1    5    5    0    0 -0.17756652626E+03 -0.11262212916E+03  0.42396094406E+03  0.47324042231E+03  0.00000000000E+00 0. -1.
          2    1    6    6  503    0  0.11462767674E+03  0.38320316633E+02  0.88152277762E+01  0.12118440157E+03  0.00000000000E+00 0. -1.
         -2    1    6    6    0  503  0.34129786075E+02  0.20208294449E+02 -0.54456011936E+02  0.67369686789E+02  0.00000000000E+00 0.  1.
<mgrwt>
<rscale>  0 0.14577226E+04</rscale>
<asrwt>0</asrwt>
<pdfrwt beam="1">  1        2 0.37396128E+00 0.14577226E+04</pdfrwt>
<pdfrwt beam="2">  1       -1 0.33622996E-01 0.14577226E+04</pdfrwt>
<totfact> 0.35224410E+01</totfact>
</mgrwt>
</event>
<event>
12    6  0.9491186E-008  0.3319978E+04  0.7818608E-02  0.8157830E-01
          2   -1    0    0  501    0  0.00000000000E+00  0.00000000000E+00  0.15046586662E+04  0.15046586662E+04  0.00000000000E+00 0. -1.
         -1   -1    0    0    0  501 -0.00000000000E+00 -0.00000000000E+00 -0.18313546229E+04  0.18313546229E+04  0.00000000000E+00 0.  1.
         24    2    1    2    0    0 -0.86637365382E+03  0.82718971480E+03 -0.10932392798E+04  0.16238574173E+04  0.83034069271E+02 0.  0.
        254    2    1    2    0    0  0.86637365382E+03 -0.82718971480E+03  0.76654332311E+03  0.17121558718E+04  0.95343742885E+03 0.  0.
         23    2    4    4    0    0 -0.60407551500E+02 -0.49347304776E+03  0.88736669894E+02  0.51333982547E+03  0.92080718306E+02 0.  0.
         23    2    4    4    0    0  0.92678120532E+03 -0.33371666704E+03  0.67780665322E+03  0.11988160463E+04  0.86300853563E+02 0.  0.
          2    1    3    3  502    0 -0.27775037856E+03  0.30607097567E+03 -0.41239775979E+03  0.58386353476E+03  0.00000000000E+00 0. -1.
         -1    1    3    3    0  502 -0.58862327525E+03  0.52111873913E+03 -0.68084151999E+03  0.10399938826E+04  0.00000000000E+00 0.  1.
         11    1    5    5    0    0  0.24684542298E+02 -0.97623582248E+02  0.15672576266E+02  0.10190839066E+03  0.00000000000E+00 0.  1.
        -11    1    5    5    0    0 -0.85092093799E+02 -0.39584946552E+03  0.73064093628E+02  0.41143143481E+03  0.00000000000E+00 0. -1.
          4    1    6    6  503    0  0.43037735388E+03 -0.10934879004E+03  0.30454897739E+03  0.53845325168E+03  0.00000000000E+00 0. -1.
         -4    1    6    6    0  503  0.49640385144E+03 -0.22436787700E+03  0.37325767583E+03  0.66036279462E+03  0.00000000000E+00 0.  1.
<mgrwt>
<rscale>  0 0.33199781E+04</rscale>
<asrwt>0</asrwt>
<pdfrwt beam="1">  1        2 0.23148595E+00 0.33199781E+04</pdfrwt>
<pdfrwt beam="2">  1       -1 0.28174686E+00 0.33199781E+04</pdfrwt>
<totfact> 0.51936846E-01</totfact>
</mgrwt>
</event>
<event>
12    6  0.9491186E-008  0.3172980E+04  0.7818608E-02  0.8195990E-01
         -1   -1    0    0    0  501 -0.00000000000E+00  0.00000000000E+00  0.19395196963E+04  0.19395196963E+04  0.00000000000E+00 0.  1.
          2   -1    0    0  501    0  0.00000000000E+00 -0.00000000000E+00 -0.12977181594E+04  0.12977181594E+04  0.00000000000E+00 0. -1.
         24    2    1    2    0    0  0.36979166312E+03 -0.25056871693E+03 -0.11163244215E+04  0.12048468032E+04  0.77104144524E+02 0.  0.
        254    2    1    2    0    0 -0.36979166312E+03  0.25056871693E+03  0.17581259584E+04  0.20323910524E+04  0.91655657126E+03 0.  0.
         23    2    4    4    0    0 -0.73586192184E+02  0.56445518558E+03  0.10569909828E+04  0.12039865243E+04  0.91263513876E+02 0.  0.
         23    2    4    4    0    0 -0.29620547093E+03 -0.31388646865E+03  0.70113497568E+03  0.82840452810E+03  0.91659215855E+02 0.  0.
          4    1    3    3  502    0  0.97599968890E+02 -0.77275502946E+02 -0.22861438934E+03  0.26031096077E+03  0.00000000000E+00 0. -1.
         -3    1    3    3    0  502  0.27219169423E+03 -0.17329321398E+03 -0.88771003218E+03  0.94453584244E+03  0.00000000000E+00 0.  1.
         11    1    5    5    0    0 -0.34303755926E+02  0.27157996770E+03  0.41359501283E+03  0.49597707725E+03  0.00000000000E+00 0.  1.
        -11    1    5    5    0    0 -0.39282436258E+02  0.29287521788E+03  0.64339596993E+03  0.70800944709E+03  0.00000000000E+00 0. -1.
          1    1    6    6  503    0 -0.25418673102E+03 -0.30613482780E+03  0.61989212517E+03  0.73661093792E+03  0.00000000000E+00 0. -1.
         -1    1    6    6    0  503 -0.42018739915E+02 -0.77516408511E+01  0.81242850507E+02  0.91793590182E+02  0.00000000000E+00 0.  1.
<mgrwt>
<rscale>  0 0.31729796E+04</rscale>
<asrwt>0</asrwt>
<pdfrwt beam="1">  1        2 0.19964895E+00 0.31729796E+04</pdfrwt>
<pdfrwt beam="2">  1       -1 0.29838765E+00 0.31729796E+04</pdfrwt>
<totfact> 0.53915033E-01</totfact>
</mgrwt>
</event>
<event>
12    6  0.9491186E-008  0.1774749E+04  0.7818608E-02  0.8719844E-01
          2   -1    0    0  501    0  0.00000000000E+00  0.00000000000E+00  0.83297450773E+03  0.83297450773E+03  0.00000000000E+00 0. -1.
         -1   -1    0    0    0  501 -0.00000000000E+00 -0.00000000000E+00 -0.94532703223E+03  0.94532703223E+03  0.00000000000E+00 0.  1.
         24    2    1    2    0    0 -0.59698320134E+03 -0.46863459251E+02  0.22650644098E+03  0.64514755413E+03  0.79530323145E+02 0.  0.
        254    2    1    2    0    0  0.59698320134E+03  0.46863459251E+02 -0.33885896548E+03  0.11331539858E+04  0.90034850510E+03 0.  0.
         23    2    4    4    0    0  0.12360937838E+03 -0.65738465578E+02 -0.56472628250E+03  0.58902943903E+03  0.91864474146E+02 0.  0.
         23    2    4    4    0    0  0.47337382296E+03  0.11260192483E+03  0.22586731702E+03  0.54412454681E+03  0.91068698265E+02 0.  0.
          4    1    3    3  502    0 -0.36823917885E+03 -0.55397867225E+02  0.17011961027E+03  0.40940163450E+03  0.00000000000E+00 0. -1.
         -3    1    3    3    0  502 -0.22874402249E+03  0.85344079741E+01  0.56386830707E+02  0.23574591963E+03  0.00000000000E+00 0.  1.
         11    1    5    5    0    0  0.51698506459E+02 -0.75266284560E+02 -0.25297333680E+03  0.26894843054E+03  0.00000000000E+00 0.  1.
        -11    1    5    5    0    0  0.71910871923E+02  0.95278189825E+01 -0.31175294571E+03  0.32008100848E+03  0.00000000000E+00 0. -1.
          1    1    6    6  503    0  0.47695173521E+03  0.10769756366E+03  0.22304633713E+03  0.53743035963E+03  0.00000000000E+00 0.  1.
         -1    1    6    6    0  503 -0.35779122516E+01  0.49043611637E+01  0.28209798886E+01  0.66941871827E+01  0.00000000000E+00 0. -1.
<mgrwt>
<rscale>  0 0.17747488E+04</rscale>
<asrwt>0</asrwt>
<pdfrwt beam="1">  1        2 0.12814992E+00 0.17747488E+04</pdfrwt>
<pdfrwt beam="2">  1       -1 0.14543493E+00 0.17747488E+04</pdfrwt>
<totfact> 0.13353798E+01</totfact>
</mgrwt>
</event>
<event>
12    6  0.9491186E-008  0.2656634E+04  0.7818608E-02  0.8349214E-01
          2   -1    0    0  501    0  0.00000000000E+00  0.00000000000E+00  0.26024719691E+04  0.26024719691E+04  0.00000000000E+00 0. -1.
         -1   -1    0    0    0  501 -0.00000000000E+00 -0.00000000000E+00 -0.67798083476E+03  0.67798083476E+03  0.00000000000E+00 0.  1.
         24    2    1    2    0    0 -0.96031803833E+03  0.66702393743E+03  0.98890687148E+03  0.15334637487E+04  0.80265810717E+02 0.  0.
        254    2    1    2    0    0  0.96031803833E+03 -0.66702393743E+03  0.93558426287E+03  0.17469890551E+04  0.89973394847E+03 0.  0.
         23    2    4    4    0    0  0.25806302144E+03 -0.53265951924E+03  0.44355993020E+02  0.60027587729E+03  0.89671557746E+02 0.  0.
         23    2    4    4    0    0  0.70225501690E+03 -0.13436441819E+03  0.89122826985E+03  0.11467131779E+04  0.97197621671E+02 0.  0.
          2    1    3    3  502    0 -0.74783389358E+02  0.67232142926E+02  0.61818189310E+02  0.11804323316E+03  0.00000000000E+00 0. -1.
         -1    1    3    3    0  502 -0.88553464897E+03  0.59979179450E+03  0.92708868217E+03  0.14154205156E+04  0.00000000000E+00 0.  1.
         11    1    5    5    0    0  0.21166872219E+03 -0.37906011207E+03  0.63159627820E+02  0.43872469169E+03  0.00000000000E+00 0. -1.
        -11    1    5    5    0    0  0.46394299249E+02 -0.15359940717E+03 -0.18803634799E+02  0.16155118560E+03  0.00000000000E+00 0.  1.
          3    1    6    6  503    0  0.86325584448E+02 -0.47417083488E+02  0.10155463744E+03  0.14147024678E+03  0.00000000000E+00 0.  1.
         -3    1    6    6    0  503  0.61592943245E+03 -0.86947334699E+02  0.78967363240E+03  0.10052429311E+04  0.00000000000E+00 0. -1.
<mgrwt>
<rscale>  0 0.26566340E+04</rscale>
<asrwt>0</asrwt>
<pdfrwt beam="1">  1        2 0.40038030E+00 0.26566340E+04</pdfrwt>
<pdfrwt beam="2">  1       -1 0.10430475E+00 0.26566340E+04</pdfrwt>
<totfact> 0.26245926E+00</totfact>
</mgrwt>
</event>
<event>
12    6  0.9491186E-008  0.3209145E+04  0.7818608E-02  0.8186406E-01
          2   -1    0    0  501    0  0.00000000000E+00  0.00000000000E+00  0.16675798019E+04  0.16675798019E+04  0.00000000000E+00 0. -1.
         -1   -1    0    0    0  501 -0.00000000000E+00 -0.00000000000E+00 -0.15439462453E+04  0.15439462453E+04  0.00000000000E+00 0.  1.
         24    2    1    2    0    0 -0.11778255008E+04 -0.86718685375E+03 -0.18350459386E+03  0.14762496155E+04  0.79705968645E+02 0.  0.
        254    2    1    2    0    0  0.11778255008E+04  0.86718685375E+03  0.30713815045E+03  0.17352764318E+04  0.88179617914E+03 0.  0.
         23    2    4    4    0    0  0.66785478047E+02 -0.43415177211E+02  0.27056545754E+03  0.29563713186E+03  0.88602873705E+02 0.  0.
         23    2    4    4    0    0  0.11110400228E+04  0.91060203096E+03  0.36572692904E+02  0.14396392999E+04  0.87279785930E+02 0.  0.
          2    1    3    3  502    0 -0.10232239371E+02 -0.14591392106E+01 -0.59131909248E+01  0.11907713328E+02  0.00000000000E+00 0. -1.
         -1    1    3    3    0  502 -0.11675932615E+04 -0.86572771454E+03 -0.17759140293E+03  0.14643419021E+04  0.00000000000E+00 0.  1.
         11    1    5    5    0    0  0.79588680428E+02 -0.54688186196E+02  0.25449799805E+03  0.27220284123E+03  0.00000000000E+00 0. -1.
        -11    1    5    5    0    0 -0.12803202381E+02  0.11273008985E+02  0.16067459488E+02  0.23434290627E+02  0.00000000000E+00 0.  1.
          4    1    6    6  503    0  0.10556028373E+04  0.88682508431E+03  0.30539338253E+02  0.13790173064E+04  0.00000000000E+00 0. -1.
         -4    1    6    6    0  503  0.55437185510E+02  0.23776946646E+02  0.60333546513E+01  0.60621993512E+02  0.00000000000E+00 0.  1.
<mgrwt>
<rscale>  0 0.32091454E+04</rscale>
<asrwt>0</asrwt>
<pdfrwt beam="1">  1        2 0.25655074E+00 0.32091454E+04</pdfrwt>
<pdfrwt beam="2">  1       -1 0.23753019E+00 0.32091454E+04</pdfrwt>
<totfact> 0.82408197E-01</totfact>
</mgrwt>
</event>
<event>
12    6  0.9491186E-008  0.2080552E+04  0.7818608E-02  0.8569859E-01
         -1   -1    0    0    0  501 -0.00000000000E+00  0.00000000000E+00  0.91444510993E+03  0.91444510993E+03  0.00000000000E+00 0.  1.
          2   -1    0    0  501    0  0.00000000000E+00 -0.00000000000E+00 -0.11834212991E+04  0.11834212991E+04  0.00000000000E+00 0. -1.
         24    2    1    2    0    0 -0.59619291429E+02  0.63248301452E+03 -0.66713706723E+03  0.92479391025E+03  0.81133756145E+02 0.  0.
        254    2    1    2    0    0  0.59619291429E+02 -0.63248301452E+03  0.39816087806E+03  0.11730724988E+04  0.90220717080E+03 0.  0.
         23    2    4    4    0    0  0.33662269858E+03 -0.43039355460E+03 -0.98705552600E+02  0.56278702124E+03  0.91831324287E+02 0.  0.
         23    2    4    4    0    0 -0.27700340715E+03 -0.20208945992E+03  0.49686643066E+03  0.61028547756E+03  0.89448738500E+02 0.  0.
          2    1    3    3  502    0 -0.13026193422E+02  0.39208194939E+03 -0.36452038683E+03  0.53551195054E+03  0.00000000000E+00 0. -1.
         -1    1    3    3    0  502 -0.46593098008E+02  0.24040106513E+03 -0.30261668041E+03  0.38928195971E+03  0.00000000000E+00 0.  1.
         11    1    5    5    0    0  0.58235408213E+02 -0.44186238022E+02 -0.39345187252E+02  0.83017047407E+02  0.00000000000E+00 0. -1.
        -11    1    5    5    0    0  0.27838729036E+03 -0.38620731658E+03 -0.59360365348E+02  0.47976997383E+03  0.00000000000E+00 0.  1.
          3    1    6    6  503    0 -0.96435902845E+00 -0.13581296055E+00 -0.38119377263E+01  0.39343745024E+01  0.00000000000E+00 0. -1.
         -3    1    6    6    0  503 -0.27603904812E+03 -0.20195364696E+03  0.50067836839E+03  0.60635110306E+03  0.00000000000E+00 0.  1.
<mgrwt>
<rscale>  0 0.20805517E+04</rscale>
<asrwt>0</asrwt>
<pdfrwt beam="1">  1        2 0.18206482E+00 0.20805517E+04</pdfrwt>
<pdfrwt beam="2">  1       -1 0.14068386E+00 0.20805517E+04</pdfrwt>
<totfact> 0.84406092E+00</totfact>
</mgrwt>
</event>
<event>
12    6  0.9491186E-008  0.1590329E+04  0.7818608E-02  0.8826512E-01
         -1   -1    0    0    0  501 -0.00000000000E+00  0.00000000000E+00  0.64664253459E+03  0.64664253459E+03  0.00000000000E+00 0.  1.
          2   -1    0    0  501    0  0.00000000000E+00 -0.00000000000E+00 -0.97779897197E+03  0.97779897197E+03  0.00000000000E+00 0. -1.
         24    2    1    2    0    0  0.45451495533E+03 -0.27239224795E+03 -0.20380790455E+03  0.57355200411E+03  0.81503730619E+02 0.  0.
        254    2    1    2    0    0 -0.45451495533E+03  0.27239224795E+03 -0.12734853283E+03  0.10508895024E+04  0.89853754299E+03 0.  0.
         23    2    4    4    0    0 -0.64555194504E+03  0.13298168857E+02  0.81334077418E+02  0.65674766889E+03  0.88250288391E+02 0.  0.
         23    2    4    4    0    0  0.19103698971E+03  0.25909407909E+03 -0.20868261025E+03  0.39414183355E+03  0.90412830249E+02 0.  0.
          4    1    3    3  502    0  0.73957483338E+02 -0.28232813757E+02 -0.59171919660E+02  0.98833785674E+02  0.00000000000E+00 0. -1.
         -3    1    3    3    0  502  0.38055747199E+03 -0.24415943419E+03 -0.14463598489E+03  0.47471821844E+03  0.00000000000E+00 0.  1.
         11    1    5    5    0    0 -0.10263717235E+03 -0.17290621070E+02 -0.12856783186E+02  0.10487445637E+03  0.00000000000E+00 0. -1.
        -11    1    5    5    0    0 -0.54291477270E+03  0.30588789927E+02  0.94190860604E+02  0.55187321253E+03  0.00000000000E+00 0.  1.
          2    1    6    6  503    0  0.10230169900E+03  0.11106663688E+03 -0.48297361193E+02  0.15853728440E+03  0.00000000000E+00 0. -1.
         -2    1    6    6    0  503  0.88735290715E+02  0.14802744221E+03 -0.16038524906E+03  0.23560454915E+03  0.00000000000E+00 0.  1.
<mgrwt>
<rscale>  0 0.15903288E+04</rscale>
<asrwt>0</asrwt>
<pdfrwt beam="1">  1        2 0.15043061E+00 0.15903288E+04</pdfrwt>
<pdfrwt beam="2">  1       -1 0.99483467E-01 0.15903288E+04</pdfrwt>
<totfact> 0.27501596E+01</totfact>
</mgrwt>
</event>
<event>
12    6  0.9491186E-008  0.1960133E+04  0.7818608E-02  0.8625490E-01
         -1   -1    0    0    0  501 -0.00000000000E+00  0.00000000000E+00  0.57307067204E+03  0.57307067204E+03  0.00000000000E+00 0.  1.
          2   -1    0    0  501    0  0.00000000000E+00 -0.00000000000E+00 -0.16761115730E+04  0.16761115730E+04  0.00000000000E+00 0. -1.
         24    2    1    2    0    0 -0.59192074372E+03 -0.39563009393E+03 -0.78433976174E+03  0.10623528958E+04  0.80693712504E+02 0.  0.
        254    2    1    2    0    0  0.59192074372E+03  0.39563009393E+03 -0.31870113919E+03  0.11868293492E+04  0.89448317482E+03 0.  0.
         23    2    4    4    0    0  0.33226979814E+03  0.46758658114E+03  0.18382020844E+03  0.60928271909E+03  0.91624959145E+02 0.  0.
         23    2    4    4    0    0  0.25965094558E+03 -0.71956487205E+02 -0.50252134763E+03  0.57754663016E+03  0.91848002640E+02 0.  0.
          4    1    3    3  502    0 -0.15089889944E+03 -0.14026209533E+03 -0.20232828493E+03  0.28875710921E+03  0.00000000000E+00 0. -1.
         -3    1    3    3    0  502 -0.44102184428E+03 -0.25536799860E+03 -0.58201147682E+03  0.77359578656E+03  0.00000000000E+00 0.  1.
         11    1    5    5    0    0  0.27100836281E+03  0.37038211713E+03  0.18381317892E+03  0.49438419285E+03  0.00000000000E+00 0.  1.
        -11    1    5    5    0    0  0.61261435331E+02  0.97204464012E+02  0.70295208174E-02  0.11489852624E+03  0.00000000000E+00 0. -1.
          3    1    6    6  503    0  0.12611315834E+02  0.12722117159E+02 -0.11181110410E+02  0.21116694393E+02  0.00000000000E+00 0. -1.
         -3    1    6    6    0  503  0.24703962975E+03 -0.84678604364E+02 -0.49134023722E+03  0.55642993576E+03  0.00000000000E+00 0.  1.
<mgrwt>
<rscale>  0 0.19601330E+04</rscale>
<asrwt>0</asrwt>
<pdfrwt beam="1">  1        2 0.25786331E+00 0.19601330E+04</pdfrwt>
<pdfrwt beam="2">  1       -1 0.88164720E-01 0.19601330E+04</pdfrwt>
<totfact> 0.13569379E+01</totfact>
</mgrwt>
</event>
<event>
12    6  0.9491186E-008  0.2736025E+04  0.7818608E-02  0.8323410E-01
         -1   -1    0    0    0  501 -0.00000000000E+00  0.00000000000E+00  0.65919716324E+03  0.65919716324E+03  0.00000000000E+00 0.  1.
          2   -1    0    0  501    0  0.00000000000E+00 -0.00000000000E+00 -0.28389968613E+04  0.28389968613E+04  0.00000000000E+00 0. -1.
         24    2    1    2    0    0 -0.25555514505E+03  0.11584440983E+03 -0.24874436438E+04  0.25039550501E+04  0.60717809103E+02 0.  0.
        254    2    1    2    0    0  0.25555514505E+03 -0.11584440983E+03  0.30764394576E+03  0.99423897443E+03  0.90284992189E+03 0.  0.
         23    2    4    4    0    0  0.38194095247E+02 -0.49010826909E+03  0.19680551624E+03  0.53739709758E+03  0.91642375157E+02 0.  0.
         23    2    4    4    0    0  0.21736104980E+03  0.37426385926E+03  0.11083842952E+03  0.45684187685E+03  0.95394342918E+02 0.  0.
          2    1    3    3  502    0 -0.24557296366E+03  0.11675768010E+03 -0.22614008047E+04  0.22776900658E+04  0.00000000000E+00 0. -1.
         -1    1    3    3    0  502 -0.99821813902E+01 -0.91327027083E+00 -0.22604283910E+03  0.22626498429E+03  0.00000000000E+00 0.  1.
         11    1    5    5    0    0  0.54335773117E+02 -0.18609045060E+03  0.54774869139E+02  0.20145053570E+03  0.00000000000E+00 0.  1.
        -11    1    5    5    0    0 -0.16141677870E+02 -0.30401781849E+03  0.14203064710E+03  0.33594656189E+03  0.00000000000E+00 0. -1.
          1    1    6    6  503    0  0.18946117584E+03  0.24545753412E+03  0.93813112377E+02  0.32395345076E+03  0.00000000000E+00 0. -1.
         -1    1    6    6    0  503  0.27899873968E+02  0.12880632514E+03  0.17025317143E+02  0.13288842609E+03  0.00000000000E+00 0.  1.
<mgrwt>
<rscale>  0 0.27360253E+04</rscale>
<asrwt>0</asrwt>
<pdfrwt beam="1">  1        2 0.43676875E+00 0.27360253E+04</pdfrwt>
<pdfrwt beam="2">  1       -1 0.10141495E+00 0.27360253E+04</pdfrwt>
<totfact> 0.20084677E+00</totfact>
</mgrwt>
</event>
<event>
12    6  0.9491186E-008  0.3592822E+04  0.7818608E-02  0.8092138E-01
         -1   -1    0    0    0  501 -0.00000000000E+00  0.00000000000E+00  0.13316859285E+04  0.13316859285E+04  0.00000000000E+00 0.  1.
          2   -1    0    0  501    0  0.00000000000E+00 -0.00000000000E+00 -0.24233130098E+04  0.24233130098E+04  0.00000000000E+00 0. -1.
         24    2    1    2    0    0  0.16741858704E+04  0.16150635451E+03 -0.56446279905E+03  0.17762724811E+04  0.86850701714E+02 0.  0.
        254    2    1    2    0    0 -0.16741858704E+04 -0.16150635451E+03 -0.52716428226E+03  0.19787264573E+04  0.89915158960E+03 0.  0.
         23    2    4    4    0    0 -0.53242496586E+02 -0.87019557166E+02  0.16128449429E+03  0.21366154670E+03  0.96080183531E+02 0.  0.
         23    2    4    4    0    0 -0.16209433738E+04 -0.74486797339E+02 -0.68844877655E+03  0.17650649106E+04  0.92123376959E+02 0.  0.
          4    1    3    3  502    0  0.10556157507E+04  0.91407181851E+02 -0.39823125719E+03  0.11319311023E+04  0.00000000000E+00 0. -1.
         -3    1    3    3    0  502  0.61857011965E+03  0.70099172654E+02 -0.16623154186E+03  0.64434137881E+03  0.00000000000E+00 0.  1.
         11    1    5    5    0    0  0.57088615994E+01 -0.63879179051E+02  0.12545704008E+03  0.14089928858E+03  0.00000000000E+00 0.  1.
        -11    1    5    5    0    0 -0.58951358185E+02 -0.23140378115E+02  0.35827454208E+02  0.72762258116E+02  0.00000000000E+00 0. -1.
          3    1    6    6  503    0 -0.17785930834E+03 -0.79385833070E+00 -0.10654209282E+03  0.20733012641E+03  0.00000000000E+00 0. -1.
         -3    1    6    6    0  503 -0.14430840654E+04 -0.73692939009E+02 -0.58190668372E+03  0.15577347842E+04  0.00000000000E+00 0.  1.
<mgrwt>
<rscale>  0 0.35928216E+04</rscale>
<asrwt>0</asrwt>
<pdfrwt beam="1">  1        2 0.37281738E+00 0.35928216E+04</pdfrwt>
<pdfrwt beam="2">  1       -1 0.20487476E+00 0.35928216E+04</pdfrwt>
<totfact> 0.49779158E-01</totfact>
</mgrwt>
</event>
<event>
12    6  0.9491186E-008  0.1917229E+04  0.7818608E-02  0.8646327E-01
         -1   -1    0    0    0  501 -0.00000000000E+00  0.00000000000E+00  0.85474297791E+03  0.85474297791E+03  0.00000000000E+00 0.  1.
          2   -1    0    0  501    0  0.00000000000E+00 -0.00000000000E+00 -0.10751091833E+04  0.10751091833E+04  0.00000000000E+00 0. -1.
         24    2    1    2    0    0  0.56761172832E+03  0.47681730505E+03 -0.13836176642E+03  0.75842321018E+03  0.80771101322E+02 0.  0.
        254    2    1    2    0    0 -0.56761172832E+03 -0.47681730505E+03 -0.82004438996E+02  0.11714289511E+04  0.90331790795E+03 0.  0.
         23    2    4    4    0    0 -0.67027713509E+03 -0.47627545200E+01 -0.55422134005E+02  0.67875660154E+03  0.91349819651E+02 0.  0.
         23    2    4    4    0    0  0.10266540676E+03 -0.47205455053E+03 -0.26582304991E+02  0.49267234951E+03  0.92971719408E+02 0.  0.
          2    1    3    3  502    0  0.70055826255E+02  0.28593920257E+02 -0.21149713969E+02  0.78566796224E+02  0.00000000000E+00 0. -1.
         -1    1    3    3    0  502  0.49755590207E+03  0.44822338479E+03 -0.11721205245E+03  0.67985641396E+03  0.00000000000E+00 0.  1.
         11    1    5    5    0    0 -0.31169751655E+03 -0.45149364489E+02 -0.41153475056E+02  0.31762779388E+03  0.00000000000E+00 0. -1.
        -11    1    5    5    0    0 -0.35857961854E+03  0.40386609969E+02 -0.14268658949E+02  0.36112880766E+03  0.00000000000E+00 0.  1.
          4    1    6    6  503    0  0.54222481588E+02 -0.15271360092E+03 -0.47872108434E+02  0.16897709958E+03  0.00000000000E+00 0. -1.
         -4    1    6    6    0  503  0.48442925174E+02 -0.31934094961E+03  0.21289803443E+02  0.32369524993E+03  0.00000000000E+00 0.  1.
<mgrwt>
<rscale>  0 0.19172293E+04</rscale>
<asrwt>0</asrwt>
<pdfrwt beam="1">  1        2 0.16540141E+00 0.19172293E+04</pdfrwt>
<pdfrwt beam="2">  1       -1 0.13149892E+00 0.19172293E+04</pdfrwt>
<totfact> 0.11864301E+01</totfact>
</mgrwt>
</event>
<event>
12    6  0.9491186E-008  0.3092316E+04  0.7818608E-02  0.8217850E-01
         -1   -1    0    0    0  501 -0.00000000000E+00  0.00000000000E+00  0.13167102624E+04  0.13167102624E+04  0.00000000000E+00 0.  1.
          2   -1    0    0  501    0  0.00000000000E+00 -0.00000000000E+00 -0.18155892606E+04  0.18155892606E+04  0.00000000000E+00 0. -1.
         24    2    1    2    0    0  0.29699461932E+03 -0.10150405869E+04  0.73441518509E+03  0.12899975849E+04  0.78834688903E+02 0.  0.
        254    2    1    2    0    0 -0.29699461932E+03  0.10150405869E+04 -0.12332941833E+04  0.18423019381E+04  0.86864762222E+03 0.  0.
         23    2    4    4    0    0 -0.12603297725E+03  0.51519227106E+03 -0.11886494315E+04  0.13048081152E+04  0.91265322797E+02 0.  0.
         23    2    4    4    0    0 -0.17096164207E+03  0.49984831582E+03 -0.44644751800E+02  0.53749382282E+03  0.88488608424E+02 0.  0.
          4    1    3    3  502    0  0.99696608961E+02 -0.29213946323E+03  0.17466608949E+03  0.35467326179E+03  0.00000000000E+00 0. -1.
         -3    1    3    3    0  502  0.19729801036E+03 -0.72290112365E+03  0.55974909559E+03  0.93532432315E+03  0.00000000000E+00 0.  1.
         11    1    5    5    0    0 -0.18191563265E+02  0.60601702634E+02 -0.22729234736E+03  0.23593497092E+03  0.00000000000E+00 0.  1.
        -11    1    5    5    0    0 -0.10784141398E+03  0.45459056842E+03 -0.96135708413E+03  0.10688731443E+04  0.00000000000E+00 0. -1.
          3    1    6    6  503    0  0.10612407111E+02  0.32251007049E+02 -0.70898159378E+00  0.33959583261E+02  0.00000000000E+00 0. -1.
         -3    1    6    6    0  503 -0.18157404918E+03  0.46759730877E+03 -0.43935770207E+02  0.50353423956E+03  0.00000000000E+00 0.  1.
<mgrwt>
<rscale>  0 0.30923163E+04</rscale>
<asrwt>0</asrwt>
<pdfrwt beam="1">  1        2 0.27932142E+00 0.30923163E+04</pdfrwt>
<pdfrwt beam="2">  1       -1 0.20257081E+00 0.30923163E+04</pdfrwt>
<totfact> 0.11815341E+00</totfact>
</mgrwt>
</event>
<event>
12    6  0.9491186E-008  0.1624789E+04  0.7818608E-02  0.8805462E-01
         -1   -1    0    0    0  501 -0.00000000000E+00  0.00000000000E+00  0.70314803579E+03  0.70314803579E+03  0.00000000000E+00 0.  1.
          2   -1    0    0  501    0  0.00000000000E+00 -0.00000000000E+00 -0.93861469231E+03  0.93861469231E+03  0.00000000000E+00 0. -1.
         24    2    1    2    0    0  0.35322311168E+03 -0.43160841762E+03 -0.21710220623E+03  0.60358553777E+03  0.78292660404E+02 0.  0.
        254    2    1    2    0    0 -0.35322311168E+03  0.43160841762E+03 -0.18364450294E+02  0.10381771903E+04  0.87545544301E+03 0.  0.
         23    2    4    4    0    0 -0.56936240490E+03  0.33953555721E+02 -0.14355174224E+02  0.57783606009E+03  0.91444241226E+02 0.  0.
         23    2    4    4    0    0  0.21613929323E+03  0.39765486190E+03 -0.40092760707E+01  0.46034113023E+03  0.83977965082E+02 0.  0.
          2    1    3    3  502    0  0.31025860346E+03 -0.33330629954E+03 -0.18603214324E+03  0.49189577011E+03  0.00000000000E+00 0. -1.
         -1    1    3    3    0  502  0.42964508212E+02 -0.98302118084E+02 -0.31070062985E+02  0.11168976766E+03  0.00000000000E+00 0.  1.
         11    1    5    5    0    0 -0.21599305356E+02  0.20396381971E+02 -0.17810612276E+01  0.29760957116E+02  0.00000000000E+00 0.  1.
        -11    1    5    5    0    0 -0.54776309955E+03  0.13557173751E+02 -0.12574112996E+02  0.54807510298E+03  0.00000000000E+00 0. -1.
          1    1    6    6  503    0  0.10886567941E+03  0.24938618850E+03 -0.36251124156E+02  0.27451657722E+03  0.00000000000E+00 0. -1.
         -1    1    6    6    0  503  0.10727361382E+03  0.14826867340E+03  0.32241848085E+02  0.18582455301E+03  0.00000000000E+00 0.  1.
<mgrwt>
<rscale>  0 0.16247893E+04</rscale>
<asrwt>0</asrwt>
<pdfrwt beam="1">  1        2 0.14440226E+00 0.16247893E+04</pdfrwt>
<pdfrwt beam="2">  1       -1 0.10817662E+00 0.16247893E+04</pdfrwt>
<totfact> 0.23959276E+01</totfact>
</mgrwt>
</event>
<event>
12    6  0.9491186E-008  0.1386864E+04  0.7818608E-02  0.8963382E-01
         -1   -1    0    0    0  501 -0.00000000000E+00  0.00000000000E+00  0.62528105870E+03  0.62528105870E+03  0.00000000000E+00 0.  1.
          2   -1    0    0  501    0  0.00000000000E+00 -0.00000000000E+00 -0.76901136266E+03  0.76901136266E+03  0.00000000000E+00 0. -1.
         24    2    1    2    0    0  0.38891874941E+03  0.56531164089E+02  0.13387340341E+03  0.42300241917E+03  0.80965377308E+02 0.  0.
        254    2    1    2    0    0 -0.38891874941E+03 -0.56531164089E+02 -0.27760370737E+03  0.97129000219E+03  0.84373389398E+03 0.  0.
         23    2    4    4    0    0  0.14425426079E+03  0.22381316371E+03 -0.22450530010E+03  0.36008395806E+03  0.91412269826E+02 0.  0.
         23    2    4    4    0    0 -0.53317301021E+03 -0.28034432779E+03 -0.53098407276E+02  0.61120604413E+03  0.88808707848E+02 0.  0.
          4    1    3    3  502    0  0.45000937681E+02  0.13896517593E+02  0.45220439183E+02  0.65292309756E+02  0.00000000000E+00 0. -1.
         -3    1    3    3    0  502  0.34391781173E+03  0.42634646495E+02  0.88652964222E+02  0.35771010941E+03  0.00000000000E+00 0.  1.
         11    1    5    5    0    0  0.11229794325E+03  0.20516298075E+03 -0.15274175506E+03  0.27934337377E+03  0.00000000000E+00 0. -1.
        -11    1    5    5    0    0  0.31956317544E+02  0.18650182951E+02 -0.71763545038E+02  0.80740584290E+02  0.00000000000E+00 0.  1.
          4    1    6    6  503    0 -0.39499965664E+03 -0.18498566242E+03 -0.72678071917E+02  0.44218381493E+03  0.00000000000E+00 0. -1.
         -4    1    6    6    0  503 -0.13817335357E+03 -0.95358665373E+02  0.19579664641E+02  0.16902222920E+03  0.00000000000E+00 0.  1.
<mgrwt>
<rscale>  0 0.13868644E+04</rscale>
<asrwt>0</asrwt>
<pdfrwt beam="1">  1        2 0.11830944E+00 0.13868644E+04</pdfrwt>
<pdfrwt beam="2">  1       -1 0.96197086E-01 0.13868644E+04</pdfrwt>
<totfact> 0.42046785E+01</totfact>
</mgrwt>
</event>
<event>
12    6  0.9491186E-008  0.3115145E+04  0.7818608E-02  0.8211594E-01
         -1   -1    0    0    0  501 -0.00000000000E+00  0.00000000000E+00  0.83427474312E+03  0.83427474312E+03  0.00000000000E+00 0.  1.
          2   -1    0    0  501    0  0.00000000000E+00 -0.00000000000E+00 -0.29079527843E+04  0.29079527843E+04  0.00000000000E+00 0. -1.
         24    2    1    2    0    0 -0.37771448631E+03 -0.64863334480E+03  0.50591664627E+03  0.90870768072E+03  0.80028412956E+02 0.  0.
        254    2    1    2    0    0  0.37771448631E+03  0.64863334480E+03 -0.25795946875E+04  0.28335198467E+04  0.90062895850E+03 0.  0.
         23    2    4    4    0    0  0.64739718678E+03  0.58604276465E+03 -0.18594278274E+04  0.20563635745E+04  0.92682608169E+02 0.  0.
         23    2    4    4    0    0 -0.26968270047E+03  0.62590580152E+02 -0.72016686005E+03  0.77715627217E+03  0.93194556680E+02 0.  0.
          2    1    3    3  502    0 -0.12462083279E+03 -0.28494965234E+03  0.22878494966E+03  0.38609481934E+03  0.00000000000E+00 0. -1.
         -1    1    3    3    0  502 -0.25309365352E+03 -0.36368369246E+03  0.27713169661E+03  0.52261286139E+03  0.00000000000E+00 0.  1.
         11    1    5    5    0    0  0.56368746794E+03  0.54626514262E+03 -0.16403177854E+04  0.18184585793E+04  0.00000000000E+00 0. -1.
        -11    1    5    5    0    0  0.83709718838E+02  0.39777622030E+02 -0.21911004201E+03  0.23790499522E+03  0.00000000000E+00 0.  1.
          1    1    6    6  503    0 -0.26619094632E+03  0.45076560915E+02 -0.69977546561E+03  0.75005014400E+03  0.00000000000E+00 0. -1.
         -1    1    6    6    0  503 -0.34917541535E+01  0.17514019238E+02 -0.20391394444E+02  0.27106128168E+02  0.00000000000E+00 0.  1.
<mgrwt>
<rscale>  0 0.31151447E+04</rscale>
<asrwt>0</asrwt>
<pdfrwt beam="1">  1        2 0.44737735E+00 0.31151447E+04</pdfrwt>
<pdfrwt beam="2">  1       -1 0.12834996E+00 0.31151447E+04</pdfrwt>
<totfact> 0.10017183E+00</totfact>
</mgrwt>
</event>
<event>
12    6  0.9491186E-008  0.1124917E+04  0.7818608E-02  0.9181241E-01
          2   -1    0    0  501    0  0.00000000000E+00  0.00000000000E+00  0.90997016175E+03  0.90997016175E+03  0.00000000000E+00 0. -1.
         -1   -1    0    0    0  501 -0.00000000000E+00 -0.00000000000E+00 -0.34765900174E+03  0.34765900174E+03  0.00000000000E+00 0.  1.
         24    2    1    2    0    0  0.13236148802E+03  0.83317945187E+02  0.23810972339E+03  0.29576954039E+03  0.79510610289E+02 0.  0.
        254    2    1    2    0    0 -0.13236148802E+03 -0.83317945187E+02  0.32420143661E+03  0.96185962310E+03  0.89196744310E+03 0.  0.
         23    2    4    4    0    0 -0.32170860054E+03 -0.38581907787E+03  0.72002003470E+02  0.51578579562E+03  0.92184130692E+02 0.  0.
         23    2    4    4    0    0  0.18934711252E+03  0.30250113268E+03  0.25219943314E+03  0.44607382748E+03  0.89543515627E+02 0.  0.
          4    1    3    3  502    0  0.85598104408E+02  0.40218445009E+02  0.20100004162E+03  0.22213864033E+03  0.00000000000E+00 0. -1.
         -3    1    3    3    0  502  0.46763383611E+02  0.43099500179E+02  0.37109681773E+02  0.73630900061E+02  0.00000000000E+00 0.  1.
         11    1    5    5    0    0 -0.52251527559E+02 -0.74597490023E+02  0.49142560248E+02  0.10348912444E+03  0.00000000000E+00 0. -1.
        -11    1    5    5    0    0 -0.26945707298E+03 -0.31122158784E+03  0.22859443222E+02  0.41229667118E+03  0.00000000000E+00 0.  1.
          2    1    6    6  503    0  0.16169037950E+02 -0.10795389805E+00  0.72165231898E+00  0.16185494257E+02  0.00000000000E+00 0. -1.
         -2    1    6    6    0  503  0.17317807457E+03  0.30260908658E+03  0.25147778082E+03  0.42988833322E+03  0.00000000000E+00 0.  1.
<mgrwt>
<rscale>  0 0.11249166E+04</rscale>
<asrwt>0</asrwt>
<pdfrwt beam="1">  1        2 0.13999541E+00 0.11249166E+04</pdfrwt>
<pdfrwt beam="2">  1       -1 0.53486001E-01 0.11249166E+04</pdfrwt>
<totfact> 0.11515021E+02</totfact>
</mgrwt>
</event>
<event>
12    6  0.9491186E-008  0.2635455E+04  0.7818608E-02  0.8356257E-01
         -1   -1    0    0    0  501 -0.00000000000E+00  0.00000000000E+00  0.68100932912E+03  0.68100932912E+03  0.00000000000E+00 0.  1.
          2   -1    0    0  501    0  0.00000000000E+00 -0.00000000000E+00 -0.25497533676E+04  0.25497533676E+04  0.00000000000E+00 0. -1.
         24    2    1    2    0    0 -0.80470946228E+03  0.26185700337E+03 -0.17961428531E+04  0.19869823554E+04  0.76441631144E+02 0.  0.
        254    2    1    2    0    0  0.80470946228E+03 -0.26185700337E+03 -0.72601185411E+02  0.12437803414E+04  0.90862104122E+03 0.  0.
         23    2    4    4    0    0  0.87640655483E+03 -0.48030900135E+02  0.17065645636E+03  0.89983826043E+03  0.10094479739E+03 0.  0.
         23    2    4    4    0    0 -0.71697092547E+02 -0.21382610324E+03 -0.24325764177E+03  0.34394208093E+03  0.90883437712E+02 0.  0.
          2    1    3    3  502    0 -0.70617334037E+03  0.20670077926E+03 -0.15235258004E+04  0.16919033257E+04  0.00000000000E+00 0. -1.
         -1    1    3    3    0  502 -0.98536121918E+02  0.55156224109E+02 -0.27261705263E+03  0.29507902969E+03  0.00000000000E+00 0.  1.
         11    1    5    5    0    0  0.26080344933E+03 -0.15526017996E+02  0.41969266660E+01  0.26129889133E+03  0.00000000000E+00 0. -1.
        -11    1    5    5    0    0  0.61560310550E+03 -0.32504882138E+02  0.16645952970E+03  0.63853936910E+03  0.00000000000E+00 0.  1.
          4    1    6    6  503    0 -0.57470227927E+02 -0.63124386515E+02 -0.51725202583E+02  0.99814887933E+02  0.00000000000E+00 0. -1.
         -4    1    6    6    0  503 -0.14226864620E+02 -0.15070171672E+03 -0.19153243919E+03  0.24412719300E+03  0.00000000000E+00 0.  1.
<mgrwt>
<rscale>  0 0.26354551E+04</rscale>
<asrwt>0</asrwt>
<pdfrwt beam="1">  1        2 0.39226974E+00 0.26354551E+04</pdfrwt>
<pdfrwt beam="2">  1       -1 0.10477067E+00 0.26354551E+04</pdfrwt>
<totfact> 0.27940381E+00</totfact>
</mgrwt>
</event>
<event>
12    6  0.9491186E-008  0.1965805E+04  0.7818608E-02  0.8622777E-01
          2   -1    0    0  501    0  0.00000000000E+00  0.00000000000E+00  0.24330909336E+04  0.24330909336E+04  0.00000000000E+00 0. -1.
         -1   -1    0    0    0  501 -0.00000000000E+00 -0.00000000000E+00 -0.39706576118E+03  0.39706576118E+03  0.00000000000E+00 0.  1.
         24    2    1    2    0    0 -0.53848702832E+03 -0.17531011746E+02  0.16170506494E+04  0.17063238541E+04  0.80079186473E+02 0.  0.
        254    2    1    2    0    0  0.53848702832E+03  0.17531011746E+02  0.41897452300E+03  0.11238328407E+04  0.89285216409E+03 0.  0.
         23    2    4    4    0    0  0.29579471123E+03 -0.64196326184E+02 -0.24851963996E+03  0.40253799787E+03  0.93054547438E+02 0.  0.
         23    2    4    4    0    0  0.24269231709E+03  0.81727337930E+02  0.66749416295E+03  0.72129484285E+03  0.95597459201E+02 0.  0.
          4    1    3    3  502    0 -0.44826533602E+03  0.39765903438E+01  0.12579405931E+04  0.13354295790E+04  0.00000000000E+00 0. -1.
         -3    1    3    3    0  502 -0.90221692299E+02 -0.21507602090E+02  0.35911005633E+03  0.37089427505E+03  0.00000000000E+00 0.  1.
         11    1    5    5    0    0  0.26756950563E+02  0.19203136616E+02 -0.41473410293E+02  0.52959783049E+02  0.00000000000E+00 0.  1.
        -11    1    5    5    0    0  0.26903776067E+03 -0.83399462800E+02 -0.20704622966E+03  0.34957821482E+03  0.00000000000E+00 0. -1.
          2    1    6    6  503    0  0.23049502625E+03  0.57207182352E+02  0.52533644105E+03  0.57652319566E+03  0.00000000000E+00 0. -1.
         -2    1    6    6    0  503  0.12197290838E+02  0.24520155578E+02  0.14215772190E+03  0.14477164718E+03  0.00000000000E+00 0.  1.
<mgrwt>
<rscale>  0 0.19658048E+04</rscale>
<asrwt>0</asrwt>
<pdfrwt beam="1">  1        2 0.37432167E+00 0.19658048E+04</pdfrwt>
<pdfrwt beam="2">  1       -1 0.61087042E-01 0.19658048E+04</pdfrwt>
<totfact> 0.10973537E+01</totfact>
</mgrwt>
</event>
<event>
12    6  0.9491186E-008  0.1193289E+04  0.7818608E-02  0.9118751E-01
         -1   -1    0    0    0  501 -0.00000000000E+00  0.00000000000E+00  0.55482427001E+03  0.55482427001E+03  0.00000000000E+00 0.  1.
          2   -1    0    0  501    0  0.00000000000E+00 -0.00000000000E+00 -0.64161697026E+03  0.64161697026E+03  0.00000000000E+00 0. -1.
         24    2    1    2    0    0 -0.22045435406E+03  0.73664328722E+02 -0.12423937778E+03  0.27539629662E+03  0.79882048368E+02 0.  0.
        254    2    1    2    0    0  0.22045435406E+03 -0.73664328722E+02  0.37446677532E+02  0.92104494366E+03  0.89044650543E+03 0.  0.
         23    2    4    4    0    0 -0.71540612871E+02 -0.40588537934E+03  0.16442126868E+03  0.45338531138E+03  0.93074628805E+02 0.  0.
         23    2    4    4    0    0  0.29199496693E+03  0.33222105062E+03 -0.12697459115E+03  0.46765963227E+03  0.83373243140E+02 0.  0.
          4    1    3    3  502    0 -0.15286869143E+03  0.26844527405E+02 -0.11392856048E+03  0.19253358762E+03  0.00000000000E+00 0. -1.
         -3    1    3    3    0  502 -0.67585662633E+02  0.46819801318E+02 -0.10310817299E+02  0.82862708997E+02  0.00000000000E+00 0.  1.
         11    1    5    5    0    0 -0.57788429781E+02 -0.19870685142E+03  0.38317853881E+02  0.21045705819E+03  0.00000000000E+00 0.  1.
        -11    1    5    5    0    0 -0.13752183089E+02 -0.20717852792E+03  0.12610341480E+03  0.24292825319E+03  0.00000000000E+00 0. -1.
          2    1    6    6  503    0  0.27352999024E+02  0.32299060040E+02 -0.40191809583E+02  0.58367777006E+02  0.00000000000E+00 0. -1.
         -2    1    6    6    0  503  0.26464196790E+03  0.29992199058E+03 -0.86782781565E+02  0.40929185527E+03  0.00000000000E+00 0.  1.
<mgrwt>
<rscale>  0 0.11932890E+04</rscale>
<asrwt>0</asrwt>
<pdfrwt beam="1">  1        2 0.98710303E-01 0.11932890E+04</pdfrwt>
<pdfrwt beam="2">  1       -1 0.85357580E-01 0.11932890E+04</pdfrwt>
<totfact> 0.69951779E+01</totfact>
</mgrwt>
</event>
<event>
12    6  0.9491186E-008  0.3209820E+04  0.7818608E-02  0.8186228E-01
          2   -1    0    0  501    0  0.00000000000E+00  0.00000000000E+00  0.14261805179E+04  0.14261805179E+04  0.00000000000E+00 0. -1.
         -1   -1    0    0    0  501 -0.00000000000E+00 -0.00000000000E+00 -0.18060383523E+04  0.18060383523E+04  0.00000000000E+00 0.  1.
         24    2    1    2    0    0  0.12732396526E+04  0.63100281783E+03 -0.58496101566E+03  0.15387030261E+04  0.78254989991E+02 0.  0.
        254    2    1    2    0    0 -0.12732396526E+04 -0.63100281783E+03  0.20510318122E+03  0.16935158441E+04  0.89812294830E+03 0.  0.
         23    2    4    4    0    0 -0.34328435237E+03  0.61152047464E+02 -0.25609338477E+03  0.44223403678E+03  0.91670071809E+02 0.  0.
         23    2    4    4    0    0 -0.92995530024E+03 -0.69215486529E+03  0.46119656599E+03  0.12512818073E+04  0.95439357364E+02 0.  0.
          4    1    3    3  502    0  0.82167665148E+03  0.43895587481E+03 -0.40895118650E+03  0.10173867763E+04  0.00000000000E+00 0. -1.
         -3    1    3    3    0  502  0.45156300114E+03  0.19204694302E+03 -0.17600982916E+03  0.52131624977E+03  0.00000000000E+00 0.  1.
         11    1    5    5    0    0 -0.24082587657E+03  0.17020604900E+02 -0.21520206224E+03  0.32341727135E+03  0.00000000000E+00 0.  1.
        -11    1    5    5    0    0 -0.10245847581E+03  0.44131442564E+02 -0.40891322529E+02  0.11881676543E+03  0.00000000000E+00 0. -1.
          2    1    6    6  503    0 -0.77646421640E+03 -0.61821913870E+03  0.38351097825E+03  0.10640358327E+04  0.00000000000E+00 0. -1.
         -2    1    6    6    0  503 -0.15349108384E+03 -0.73935726592E+02  0.77685587736E+02  0.18724597466E+03  0.00000000000E+00 0.  1.
<mgrwt>
<rscale>  0 0.32098204E+04</rscale>
<asrwt>0</asrwt>
<pdfrwt beam="1">  1        2 0.21941239E+00 0.32098204E+04</pdfrwt>
<pdfrwt beam="2">  1       -1 0.27785205E+00 0.32098204E+04</pdfrwt>
<totfact> 0.61549170E-01</totfact>
</mgrwt>
</event>
<event>
12    6  0.9491186E-008  0.2416027E+04  0.7818608E-02  0.8433527E-01
         -1   -1    0    0    0  501 -0.00000000000E+00  0.00000000000E+00  0.18180542645E+04  0.18180542645E+04  0.00000000000E+00 0.  1.
          2   -1    0    0  501    0  0.00000000000E+00 -0.00000000000E+00 -0.80266967061E+03  0.80266967061E+03  0.00000000000E+00 0. -1.
         24    2    1    2    0    0  0.73819974743E+03 -0.39846552676E+03 -0.22885415245E+03  0.87305329060E+03  0.78321018959E+02 0.  0.
        254    2    1    2    0    0 -0.73819974743E+03  0.39846552676E+03  0.12442387463E+04  0.17476706445E+04  0.89582865587E+03 0.  0.
         23    2    4    4    0    0 -0.34842696795E+03 -0.23566005982E+03  0.70304583714E+03  0.82305387705E+03  0.78785910057E+02 0.  0.
         23    2    4    4    0    0 -0.38977277949E+03  0.63412558658E+03  0.54119290919E+03  0.92461676746E+03  0.89377416144E+02 0.  0.
          4    1    3    3  502    0  0.69848418706E+03 -0.38323437087E+03 -0.23360442702E+03  0.83025283553E+03  0.00000000000E+00 0. -1.
         -3    1    3    3    0  502  0.39715560377E+02 -0.15231155889E+02  0.47502745700E+01  0.42800455071E+02  0.00000000000E+00 0.  1.
         11    1    5    5    0    0 -0.14456221653E+03 -0.65578730834E+02  0.21219511467E+03  0.26500107750E+03  0.00000000000E+00 0. -1.
        -11    1    5    5    0    0 -0.20386475142E+03 -0.17008132899E+03  0.49085072247E+03  0.55805279955E+03  0.00000000000E+00 0.  1.
          1    1    6    6  503    0 -0.17569453455E+03  0.33847744445E+03  0.31983602466E+03  0.49772545901E+03  0.00000000000E+00 0. -1.
         -1    1    6    6    0  503 -0.21407824494E+03  0.29564814213E+03  0.22135688453E+03  0.42689130845E+03  0.00000000000E+00 0.  1.
<mgrwt>
<rscale>  0 0.24160273E+04</rscale>
<asrwt>0</asrwt>
<pdfrwt beam="1">  1        2 0.12348764E+00 0.24160273E+04</pdfrwt>
<pdfrwt beam="2">  1       -1 0.27970066E+00 0.24160273E+04</pdfrwt>
<totfact> 0.15705619E+00</totfact>
</mgrwt>
</event>
<event>
12    6  0.9491186E-008  0.3102827E+04  0.7818608E-02  0.8214962E-01
          2   -1    0    0  501    0  0.00000000000E+00  0.00000000000E+00  0.26168703746E+04  0.26168703746E+04  0.00000000000E+00 0. -1.
         -1   -1    0    0    0  501 -0.00000000000E+00 -0.00000000000E+00 -0.91975668893E+03  0.91975668893E+03  0.00000000000E+00 0.  1.
         24    2    1    2    0    0 -0.90914905031E+03 -0.38225617584E+03 -0.38407731376E+03  0.10615116906E+04  0.81362809468E+02 0.  0.
        254    2    1    2    0    0  0.90914905031E+03  0.38225617584E+03  0.20811909994E+04  0.24751153728E+04  0.90673499619E+03 0.  0.
         23    2    4    4    0    0  0.91705919126E+03  0.20823444047E+03  0.20720186906E+04  0.22773399174E+04  0.93040328844E+02 0.  0.
         23    2    4    4    0    0 -0.79101409494E+01  0.17402173538E+03  0.91723087825E+01  0.19777545543E+03  0.93192622066E+02 0.  0.
          4    1    3    3  502    0 -0.10830832659E+03 -0.61844516039E+02 -0.73343868710E+02  0.14468849591E+03  0.00000000000E+00 0. -1.
         -3    1    3    3    0  502 -0.80084072372E+03 -0.32041165980E+03 -0.31073344505E+03  0.91682319472E+03  0.00000000000E+00 0.  1.
         11    1    5    5    0    0  0.51316844241E+03  0.81908955650E+02  0.10652562236E+04  0.11852517661E+04  0.00000000000E+00 0.  1.
        -11    1    5    5    0    0  0.40389074885E+03  0.12632548482E+03  0.10067624670E+04  0.10920881513E+04  0.00000000000E+00 0. -1.
          3    1    6    6  503    0 -0.98353558489E+01 -0.91620014167E+01  0.55595977697E+01  0.14545983019E+02  0.00000000000E+00 0. -1.
         -3    1    6    6    0  503  0.19252148996E+01  0.18318373679E+03  0.36127110128E+01  0.18322947241E+03  0.00000000000E+00 0.  1.
<mgrwt>
<rscale>  0 0.31028271E+04</rscale>
<asrwt>0</asrwt>
<pdfrwt beam="1">  1        2 0.40259544E+00 0.31028271E+04</pdfrwt>
<pdfrwt beam="2">  1       -1 0.14150103E+00 0.31028271E+04</pdfrwt>
<totfact> 0.11690460E+00</totfact>
</mgrwt>
</event>
<event>
12    6  0.9491186E-008  0.1944476E+04  0.7818608E-02  0.8633029E-01
          2   -1    0    0  501    0  0.00000000000E+00  0.00000000000E+00  0.22908248519E+04  0.22908248519E+04  0.00000000000E+00 0. -1.
         -1   -1    0    0    0  501 -0.00000000000E+00 -0.00000000000E+00 -0.41262273731E+03  0.41262273731E+03  0.00000000000E+00 0.  1.
         24    2    1    2    0    0  0.48994835927E+03 -0.33802390740E+03  0.13738179256E+04  0.14992947309E+04  0.78736527759E+02 0.  0.
        254    2    1    2    0    0 -0.48994835927E+03  0.33802390740E+03  0.50438418906E+03  0.12041528583E+04  0.91720834021E+03 0.  0.
         23    2    4    4    0    0 -0.63109980248E+03  0.43149775925E+03  0.60975196831E+03  0.98262894997E+03  0.96358256228E+02 0.  0.
         23    2    4    4    0    0  0.14115144321E+03 -0.93473851856E+02 -0.10536777925E+03  0.22152390837E+03  0.96485139645E+02 0.  0.
          4    1    3    3  502    0  0.20849440034E+03 -0.16280026793E+03  0.70037959283E+03  0.74866909664E+03  0.00000000000E+00 0. -1.
         -3    1    3    3    0  502  0.28145395892E+03 -0.17522363947E+03  0.67343833274E+03  0.75062563427E+03  0.00000000000E+00 0.  1.
         11    1    5    5    0    0 -0.62201036371E+03  0.40590063729E+03  0.58018765157E+03  0.94248073241E+03  0.00000000000E+00 0. -1.
        -11    1    5    5    0    0 -0.90894387633E+01  0.25597121960E+02  0.29564316737E+02  0.40148217567E+02  0.00000000000E+00 0.  1.
          4    1    6    6  503    0  0.14506595088E+03 -0.77149343951E+02 -0.63030876330E+02  0.17598023397E+03  0.00000000000E+00 0. -1.
         -4    1    6    6    0  503 -0.39145076697E+01 -0.16324507904E+02 -0.42336902922E+02  0.45543674398E+02  0.00000000000E+00 0.  1.
<mgrwt>
<rscale>  0 0.19444757E+04</rscale>
<asrwt>0</asrwt>
<pdfrwt beam="1">  1        2 0.35243459E+00 0.19444757E+04</pdfrwt>
<pdfrwt beam="2">  1       -1 0.63480422E-01 0.19444757E+04</pdfrwt>
<totfact> 0.12271988E+01</totfact>
</mgrwt>
</event>
<event>
12    6  0.9491186E-008  0.1517864E+04  0.7818608E-02  0.8872660E-01
         -1   -1    0    0    0  501 -0.00000000000E+00  0.00000000000E+00  0.16243192515E+03  0.16243192515E+03  0.00000000000E+00 0.  1.
          2   -1    0    0  501    0  0.00000000000E+00 -0.00000000000E+00 -0.35459636552E+04  0.35459636552E+04  0.00000000000E+00 0. -1.
         24    2    1    2    0    0  0.34325535004E+02  0.12351934711E+03 -0.22261030528E+04  0.22313099006E+04  0.82303095049E+02 0.  0.
        254    2    1    2    0    0 -0.34325535004E+02 -0.12351934711E+03 -0.11574286773E+04  0.14770856798E+04  0.90868349325E+03 0.  0.
         23    2    4    4    0    0 -0.15642191983E+03  0.10445068702E+03 -0.11842727687E+04  0.12025381746E+04  0.90654881558E+02 0.  0.
         23    2    4    4    0    0  0.12209638482E+03 -0.22797003412E+03  0.26844091408E+02  0.27454750521E+03  0.88192197673E+02 0.  0.
          4    1    3    3  502    0  0.29295166948E+02  0.98892299500E+02 -0.21098990819E+04  0.21124185261E+04  0.00000000000E+00 0. -1.
         -3    1    3    3    0  502  0.50303680558E+01  0.24627047607E+02 -0.11620397089E+03  0.11889137448E+03  0.00000000000E+00 0.  1.
         11    1    5    5    0    0 -0.93869908029E+01  0.51696498838E+02 -0.30873727164E+03  0.31317622273E+03  0.00000000000E+00 0. -1.
        -11    1    5    5    0    0 -0.14703492902E+03  0.52754188179E+02 -0.87553549708E+03  0.88936195184E+03  0.00000000000E+00 0.  1.
          1    1    6    6  503    0  0.10868515511E+02 -0.42157597036E+02 -0.27215652929E+02  0.51342763673E+02  0.00000000000E+00 0. -1.
         -1    1    6    6    0  503  0.11122786931E+03 -0.18581243709E+03  0.54059744337E+02  0.22320474154E+03  0.00000000000E+00 0.  1.
<mgrwt>
<rscale>  0 0.15178639E+04</rscale>
<asrwt>0</asrwt>
<pdfrwt beam="1">  1        2 0.54553283E+00 0.15178639E+04</pdfrwt>
<pdfrwt beam="2">  1       -1 0.24989529E-01 0.15178639E+04</pdfrwt>
<totfact> 0.11790353E+01</totfact>
</mgrwt>
</event>
<event>
12    6  0.9491186E-008  0.1703141E+04  0.7818608E-02  0.8759575E-01
         -1   -1    0    0    0  501 -0.00000000000E+00  0.00000000000E+00  0.69760772011E+03  0.69760772011E+03  0.00000000000E+00 0.  1.
          2   -1    0    0  501    0  0.00000000000E+00 -0.00000000000E+00 -0.10395135392E+04  0.10395135392E+04  0.00000000000E+00 0. -1.
         24    2    1    2    0    0  0.44338971232E+02  0.53129569730E+03 -0.40380608229E+03  0.67356769498E+03  0.79956396155E+02 0.  0.
        254    2    1    2    0    0 -0.44338971232E+02 -0.53129569730E+03  0.61900263212E+02  0.10635535643E+04  0.91819032846E+03 0.  0.
         23    2    4    4    0    0 -0.18831080097E+03 -0.51401321697E+03 -0.32285865533E+03  0.64161343436E+03  0.88088267379E+02 0.  0.
         23    2    4    4    0    0  0.14397182974E+03 -0.17282480329E+02  0.38475891854E+03  0.42194012997E+03  0.94696758141E+02 0.  0.
          4    1    3    3  502    0  0.48116209966E+02  0.44128679843E+03 -0.29823592757E+03  0.53478395322E+03  0.00000000000E+00 0. -1.
         -3    1    3    3    0  502 -0.37772387341E+01  0.90008898863E+02 -0.10557015472E+03  0.13878374175E+03  0.00000000000E+00 0.  1.
         11    1    5    5    0    0 -0.43317375097E+02 -0.69992177205E+02 -0.81546952724E+02  0.11586718843E+03  0.00000000000E+00 0. -1.
        -11    1    5    5    0    0 -0.14499342587E+03 -0.44402103976E+03 -0.24131170260E+03  0.52574624593E+03  0.00000000000E+00 0.  1.
          2    1    6    6  503    0 -0.81674591892E+01 -0.15227964798E+02  0.18400200891E+02  0.25242141239E+02  0.00000000000E+00 0. -1.
         -2    1    6    6    0  503  0.15213928892E+03 -0.20545155310E+01  0.36635871765E+03  0.39669798873E+03  0.00000000000E+00 0.  1.
<mgrwt>
<rscale>  0 0.17031414E+04</rscale>
<asrwt>0</asrwt>
<pdfrwt beam="1">  1        2 0.15992516E+00 0.17031414E+04</pdfrwt>
<pdfrwt beam="2">  1       -1 0.10732427E+00 0.17031414E+04</pdfrwt>
<totfact> 0.20866300E+01</totfact>
</mgrwt>
</event>
<event>
12    6  0.9491186E-008  0.2174373E+04  0.7818608E-02  0.8529171E-01
          2   -1    0    0  501    0  0.00000000000E+00  0.00000000000E+00  0.10809376551E+04  0.10809376551E+04  0.00000000000E+00 0. -1.
         -1   -1    0    0    0  501 -0.00000000000E+00 -0.00000000000E+00 -0.10934714113E+04  0.10934714113E+04  0.00000000000E+00 0.  1.
         24    2    1    2    0    0 -0.47564815844E+03 -0.74901411467E+03 -0.14500165957E+03  0.90255782704E+03  0.79509969619E+02 0.  0.
        254    2    1    2    0    0  0.47564815844E+03  0.74901411467E+03  0.13246790338E+03  0.12718512393E+04  0.90155117155E+03 0.  0.
         23    2    4    4    0    0 -0.20620630435E+03 -0.18728620285E+02  0.82553697451E+02  0.23988112319E+03  0.88634299939E+02 0.  0.
         23    2    4    4    0    0  0.68185446280E+03  0.76774273496E+03  0.49914205928E+02  0.10319701161E+04  0.90091493019E+02 0.  0.
          4    1    3    3  502    0 -0.85239359655E+02 -0.16018232354E+03 -0.59219978518E+02  0.19086940840E+03  0.00000000000E+00 0. -1.
         -3    1    3    3    0  502 -0.39040879879E+03 -0.58883179113E+03 -0.85781681055E+02  0.71168841864E+03  0.00000000000E+00 0.  1.
         11    1    5    5    0    0 -0.13405932782E+02 -0.32014368728E+01  0.39344766442E+02  0.41689073846E+02  0.00000000000E+00 0. -1.
        -11    1    5    5    0    0 -0.19280037157E+03 -0.15527183412E+02  0.43208931010E+02  0.19819204934E+03  0.00000000000E+00 0.  1.
          2    1    6    6  503    0  0.41483177020E+03  0.40009368313E+03  0.23262046162E+02  0.57680280481E+03  0.00000000000E+00 0.  1.
         -2    1    6    6    0  503  0.26702269260E+03  0.36764905183E+03  0.26652159766E+02  0.45516731132E+03  0.00000000000E+00 0. -1.
<mgrwt>
<rscale>  0 0.21743729E+04</rscale>
<asrwt>0</asrwt>
<pdfrwt beam="1">  1        2 0.16629810E+00 0.21743729E+04</pdfrwt>
<pdfrwt beam="2">  1       -1 0.16822637E+00 0.21743729E+04</pdfrwt>
<totfact> 0.59299006E+00</totfact>
</mgrwt>
</event>
<event>
12    6  0.9491186E-008  0.1659205E+04  0.7818608E-02  0.8784979E-01
          2   -1    0    0  501    0  0.00000000000E+00  0.00000000000E+00  0.14482218817E+04  0.14482218817E+04  0.00000000000E+00 0. -1.
         -3   -1    0    0    0  501 -0.00000000000E+00 -0.00000000000E+00 -0.47523134114E+03  0.47523134114E+03  0.00000000000E+00 0.  1.
         24    2    1    2    0    0  0.34593388603E+03 -0.21831905407E+03  0.81101541724E+03  0.91193156553E+03  0.80868475582E+02 0.  0.
        254    2    1    2    0    0 -0.34593388603E+03  0.21831905407E+03  0.16197512327E+03  0.10115216573E+04  0.91082745879E+03 0.  0.
         23    2    4    4    0    0 -0.21812044676E+03 -0.31601319654E+03 -0.82724354527E+02  0.40326411561E+03  0.91311326936E+02 0.  0.
         23    2    4    4    0    0 -0.12781343927E+03  0.53433225061E+03  0.24469947780E+03  0.60825754166E+03  0.90841473180E+02 0.  0.
          4    1    3    3  502    0  0.31323124531E+03 -0.21657740447E+03  0.70914062620E+03  0.80492236451E+03  0.00000000000E+00 0. -1.
         -3    1    3    3    0  502  0.32702640716E+02 -0.17416495943E+01  0.10187479104E+03  0.10700920102E+03  0.00000000000E+00 0.  1.
         11    1    5    5    0    0 -0.16437756984E+03 -0.29332170798E+03 -0.73867598314E+02  0.34425867007E+03  0.00000000000E+00 0. -1.
        -11    1    5    5    0    0 -0.53742876921E+02 -0.22691488558E+02 -0.88567562130E+01  0.59005445540E+02  0.00000000000E+00 0.  1.
          3    1    6    6  503    0 -0.12057425424E+03  0.50893335506E+03  0.20759582862E+03  0.56271426030E+03  0.00000000000E+00 0. -1.
         -3    1    6    6    0  503 -0.72391850321E+01  0.25398895545E+02  0.37103649175E+02  0.45543281359E+02  0.00000000000E+00 0.  1.
<mgrwt>
<rscale>  0 0.16592051E+04</rscale>
<asrwt>0</asrwt>
<pdfrwt beam="1">  1        2 0.22280336E+00 0.16592051E+04</pdfrwt>
<pdfrwt beam="2">  1       -3 0.73112515E-01 0.16592051E+04</pdfrwt>
<totfact> 0.14674599E+01</totfact>
</mgrwt>
</event>
<event>
12    6  0.9491186E-008  0.1612158E+04  0.7818608E-02  0.8813114E-01
         -1   -1    0    0    0  501 -0.00000000000E+00  0.00000000000E+00  0.74593179700E+03  0.74593179700E+03  0.00000000000E+00 0.  1.
          2   -1    0    0  501    0  0.00000000000E+00 -0.00000000000E+00 -0.87107568727E+03  0.87107568727E+03  0.00000000000E+00 0. -1.
         24    2    1    2    0    0 -0.55860467456E+02  0.49454858435E+03 -0.23361243520E+03  0.55496059661E+03  0.75549982160E+02 0.  0.
        254    2    1    2    0    0  0.55860467456E+02 -0.49454858435E+03  0.10846854493E+03  0.10620468877E+04  0.93192246042E+03 0.  0.
         23    2    4    4    0    0  0.46362953237E+03 -0.31731671668E+03 -0.72826826686E+02  0.57363870999E+03  0.90085409191E+02 0.  0.
         23    2    4    4    0    0 -0.40776906491E+03 -0.17723186767E+03  0.18129537161E+03  0.48840817766E+03  0.89374442762E+02 0.  0.
          4    1    3    3  502    0 -0.63508897431E+02  0.31905570083E+03 -0.12541601024E+03  0.34865326029E+03  0.00000000000E+00 0. -1.
         -3    1    3    3    0  502  0.76484299744E+01  0.17549288352E+03 -0.10819642495E+03  0.20630733632E+03  0.00000000000E+00 0.  1.
         11    1    5    5    0    0  0.42362195596E+03 -0.27743550703E+03 -0.39205869892E+02  0.50790070128E+03  0.00000000000E+00 0. -1.
        -11    1    5    5    0    0  0.40007576412E+02 -0.39881209650E+02 -0.33620956794E+02  0.65738008710E+02  0.00000000000E+00 0.  1.
          3    1    6    6  503    0 -0.33634511420E+03 -0.17193083346E+03  0.17560009631E+03  0.41656168950E+03  0.00000000000E+00 0. -1.
         -3    1    6    6    0  503 -0.71423950717E+02 -0.53010342143E+01  0.56952752999E+01  0.71846488157E+02  0.00000000000E+00 0.  1.
<mgrwt>
<rscale>  0 0.16121576E+04</rscale>
<asrwt>0</asrwt>
<pdfrwt beam="1">  1        2 0.13401164E+00 0.16121576E+04</pdfrwt>
<pdfrwt beam="2">  1       -1 0.11475874E+00 0.16121576E+04</pdfrwt>
<totfact> 0.23155445E+01</totfact>
</mgrwt>
</event>
<event>
12    6  0.9491186E-008  0.1165868E+04  0.7818608E-02  0.9143268E-01
         -1   -1    0    0    0  501 -0.00000000000E+00  0.00000000000E+00  0.15652733171E+03  0.15652733171E+03  0.00000000000E+00 0.  1.
          2   -1    0    0  501    0  0.00000000000E+00 -0.00000000000E+00 -0.21709451449E+04  0.21709451449E+04  0.00000000000E+00 0. -1.
         24    2    1    2    0    0 -0.10482172035E+03  0.17676298280E+03 -0.21557182813E+03  0.30726897032E+03  0.75566274823E+02 0.  0.
        254    2    1    2    0    0  0.10482172035E+03 -0.17676298280E+03 -0.17988459850E+04  0.20202035062E+04  0.89618222682E+03 0.  0.
         23    2    4    4    0    0 -0.38490406196E+03 -0.53177355832E+02 -0.89051425068E+03  0.97579357024E+03  0.90435020761E+02 0.  0.
         23    2    4    4    0    0  0.48972578231E+03 -0.12358562697E+03 -0.90833173435E+03  0.10444099360E+04  0.10305739055E+03 0.  0.
          2    1    3    3  502    0 -0.25384374871E+00 -0.43790036051E+01 -0.21501413173E+02  0.21944267535E+02  0.00000000000E+00 0. -1.
         -1    1    3    3    0  502 -0.10456787661E+03  0.18114198641E+03 -0.19407041496E+03  0.28532470278E+03  0.00000000000E+00 0.  1.
         11    1    5    5    0    0 -0.12990296162E+03 -0.50139156969E+02 -0.24623017028E+03  0.28287455038E+03  0.00000000000E+00 0. -1.
        -11    1    5    5    0    0 -0.25500110034E+03 -0.30381988633E+01 -0.64428408040E+03  0.69291901986E+03  0.00000000000E+00 0.  1.
          3    1    6    6  503    0  0.21445897090E+03 -0.92260515091E+02 -0.34398716868E+03  0.41573047165E+03  0.00000000000E+00 0. -1.
         -3    1    6    6    0  503  0.27526681142E+03 -0.31325111878E+02 -0.56434456567E+03  0.62867946435E+03  0.00000000000E+00 0.  1.
<mgrwt>
<rscale>  0 0.11658683E+04</rscale>
<asrwt>0</asrwt>
<pdfrwt beam="1">  1        2 0.33399159E+00 0.11658683E+04</pdfrwt>
<pdfrwt beam="2">  1       -1 0.24081126E-01 0.11658683E+04</pdfrwt>
<totfact> 0.90490144E+01</totfact>
</mgrwt>
</event>
<event>
12    6  0.9491186E-008  0.1583267E+04  0.7818608E-02  0.8830894E-01
          2   -1    0    0  501    0  0.00000000000E+00  0.00000000000E+00  0.70110552479E+03  0.70110552479E+03  0.00000000000E+00 0. -1.
         -1   -1    0    0    0  501 -0.00000000000E+00 -0.00000000000E+00 -0.89385068441E+03  0.89385068441E+03  0.00000000000E+00 0.  1.
         24    2    1    2    0    0 -0.39404056287E+03 -0.34734836174E+03 -0.15933718539E+03  0.55432847684E+03  0.77284358045E+02 0.  0.
        254    2    1    2    0    0  0.39404056287E+03  0.34734836174E+03 -0.33407974240E+02  0.10406277324E+04  0.89770325555E+03 0.  0.
         23    2    4    4    0    0  0.61727363817E+03  0.31046794455E+02  0.69265371008E+02  0.62858436591E+03  0.91268645327E+02 0.  0.
         23    2    4    4    0    0 -0.22323307531E+03  0.31630156729E+03 -0.10267334525E+03  0.41204336645E+03  0.96737958591E+02 0.  0.
          2    1    3    3  502    0 -0.33539773888E+02 -0.41639792365E+02 -0.40142393995E+02  0.66859558302E+02  0.00000000000E+00 0. -1.
         -1    1    3    3    0  502 -0.36050078898E+03 -0.30570856938E+03 -0.11919479139E+03  0.48746891854E+03  0.00000000000E+00 0.  1.
         11    1    5    5    0    0  0.47835414547E+03  0.78745838739E+01  0.18171472785E+02  0.47876392929E+03  0.00000000000E+00 0.  1.
        -11    1    5    5    0    0  0.13891949270E+03  0.23172210581E+02  0.51093898224E+02  0.14982043662E+03  0.00000000000E+00 0. -1.
          4    1    6    6  503    0 -0.11938772295E+03  0.13122245394E+03 -0.91291021965E+02  0.19951644419E+03  0.00000000000E+00 0. -1.
         -4    1    6    6    0  503 -0.10384535235E+03  0.18507911335E+03 -0.11382323284E+02  0.21252692227E+03  0.00000000000E+00 0.  1.
<mgrwt>
<rscale>  0 0.15832671E+04</rscale>
<asrwt>0</asrwt>
<pdfrwt beam="1">  1        2 0.10786239E+00 0.15832671E+04</pdfrwt>
<pdfrwt beam="2">  1       -1 0.13751549E+00 0.15832671E+04</pdfrwt>
<totfact> 0.19697472E+01</totfact>
</mgrwt>
</event>
<event>
12    6  0.9491186E-008  0.1602232E+04  0.7818608E-02  0.8819178E-01
          2   -1    0    0  501    0  0.00000000000E+00  0.00000000000E+00  0.76496985944E+03  0.76496985944E+03  0.00000000000E+00 0. -1.
         -1   -1    0    0    0  501 -0.00000000000E+00 -0.00000000000E+00 -0.83897027803E+03  0.83897027803E+03  0.00000000000E+00 0.  1.
         24    2    1    2    0    0 -0.26115851920E+03  0.18157244491E+03 -0.48103829295E+03  0.58255567201E+03  0.82467853144E+02 0.  0.
        254    2    1    2    0    0  0.26115851920E+03 -0.18157244491E+03  0.40703787435E+03  0.10213844655E+04  0.88112091692E+03 0.  0.
         23    2    4    4    0    0 -0.69339325416E+02  0.21386718585E+03 -0.12691589941E+03  0.27400020799E+03  0.91767931325E+02 0.  0.
         23    2    4    4    0    0  0.33049784462E+03 -0.39543963076E+03  0.53395377377E+03  0.74738425748E+03  0.88742711984E+02 0.  0.
          2    1    3    3  502    0 -0.63610096944E+02  0.12998747827E+02 -0.63313113846E+02  0.90684961616E+02  0.00000000000E+00 0. -1.
         -1    1    3    3    0  502 -0.19754842226E+03  0.16857369708E+03 -0.41772517910E+03  0.49187071039E+03  0.00000000000E+00 0.  1.
         11    1    5    5    0    0 -0.44898404004E+02  0.17031662397E+03 -0.13688849515E+03  0.22307415625E+03  0.00000000000E+00 0. -1.
        -11    1    5    5    0    0 -0.24440921412E+02  0.43550561884E+02  0.99725957362E+01  0.50926051738E+02  0.00000000000E+00 0.  1.
          4    1    6    6  503    0  0.12818383321E+03 -0.90273377458E+02  0.16377537513E+03  0.22672174856E+03  0.00000000000E+00 0. -1.
         -4    1    6    6    0  503  0.20231401141E+03 -0.30516625331E+03  0.37017839864E+03  0.52066250891E+03  0.00000000000E+00 0.  1.
<mgrwt>
<rscale>  0 0.16022322E+04</rscale>
<asrwt>0</asrwt>
<pdfrwt beam="1">  1        2 0.11768767E+00 0.16022322E+04</pdfrwt>
<pdfrwt beam="2">  1       -1 0.12907235E+00 0.16022322E+04</pdfrwt>
<totfact> 0.20664255E+01</totfact>
</mgrwt>
</event>
<event>
12    6  0.9491186E-008  0.1371167E+04  0.7818608E-02  0.8974958E-01
         -1   -1    0    0    0  501 -0.00000000000E+00  0.00000000000E+00  0.55827368831E+03  0.55827368831E+03  0.00000000000E+00 0.  1.
          2   -1    0    0  501    0  0.00000000000E+00 -0.00000000000E+00 -0.84192553290E+03  0.84192553290E+03  0.00000000000E+00 0. -1.
         24    2    1    2    0    0  0.33956086972E+03  0.56027375994E+02 -0.15346312987E+03  0.38531271335E+03  0.80463058186E+02 0.  0.
        254    2    1    2    0    0 -0.33956086972E+03 -0.56027375994E+02 -0.13018871473E+03  0.10148865079E+04  0.94583554135E+03 0.  0.
         23    2    4    4    0    0 -0.52468662817E+03  0.10094696212E+03 -0.37444940898E+03  0.65842509030E+03  0.88458423577E+02 0.  0.
         23    2    4    4    0    0  0.18512575845E+03 -0.15697433812E+03  0.24426069425E+03  0.35646141756E+03  0.92135585887E+02 0.  0.
          2    1    3    3  502    0  0.76591041337E+02  0.12253823176E+02  0.28672061760E+00  0.77565623856E+02  0.00000000000E+00 0. -1.
         -1    1    3    3    0  502  0.26296982839E+03  0.43773552819E+02 -0.15374985049E+03  0.30774708950E+03  0.00000000000E+00 0.  1.
         11    1    5    5    0    0 -0.18828016929E+02  0.14851871272E+02 -0.37635761144E+02  0.44626481137E+02  0.00000000000E+00 0.  1.
        -11    1    5    5    0    0 -0.50585861125E+03  0.86095090850E+02 -0.33681364783E+03  0.61379860916E+03  0.00000000000E+00 0. -1.
          2    1    6    6  503    0  0.10020495067E+02 -0.53857069175E+02  0.69076411903E+02  0.88162037765E+02  0.00000000000E+00 0.  1.
         -2    1    6    6    0  503  0.17510526338E+03 -0.10311726894E+03  0.17518428235E+03  0.26829937980E+03  0.00000000000E+00 0. -1.
<mgrwt>
<rscale>  0 0.13711672E+04</rscale>
<asrwt>0</asrwt>
<pdfrwt beam="1">  1        2 0.12952700E+00 0.13711672E+04</pdfrwt>
<pdfrwt beam="2">  1       -1 0.85888260E-01 0.13711672E+04</pdfrwt>
<totfact> 0.47935702E+01</totfact>
</mgrwt>
</event>
<event>
12    6  0.9491186E-008  0.3397794E+04  0.7818608E-02  0.8138448E-01
         -1   -1    0    0    0  501 -0.00000000000E+00  0.00000000000E+00  0.71394691665E+03  0.71394691665E+03  0.00000000000E+00 0.  1.
          2   -1    0    0  501    0  0.00000000000E+00 -0.00000000000E+00 -0.40426690010E+04  0.40426690010E+04  0.00000000000E+00 0. -1.
         24    2    1    2    0    0  0.12165710944E+04 -0.10125691390E+04 -0.17984970763E+04  0.23971069531E+04  0.78667161014E+02 0.  0.
        254    2    1    2    0    0 -0.12165710944E+04  0.10125691390E+04 -0.15302250080E+04  0.23595089645E+04  0.84873581841E+03 0.  0.
         23    2    4    4    0    0 -0.50473187037E+03  0.37134860806E+03 -0.11730483079E+04  0.13329960476E+04  0.90454853562E+02 0.  0.
         23    2    4    4    0    0 -0.71183922404E+03  0.64122053094E+03 -0.35717670017E+03  0.10265129170E+04  0.90965506543E+02 0.  0.
          4    1    3    3  502    0  0.34423915541E+03 -0.32492025931E+03 -0.50652337101E+03  0.69328183043E+03  0.00000000000E+00 0. -1.
         -3    1    3    3    0  502  0.87233193901E+03 -0.68764887969E+03 -0.12919737053E+04  0.17038251227E+04  0.00000000000E+00 0.  1.
         11    1    5    5    0    0 -0.70175034715E+01  0.21244990964E+02 -0.24318675678E+02  0.33045317109E+02  0.00000000000E+00 0.  1.
        -11    1    5    5    0    0 -0.49771436690E+03  0.35010361709E+03 -0.11487296322E+04  0.12999507304E+04  0.00000000000E+00 0. -1.
          2    1    6    6  503    0 -0.50515913936E+03  0.39982482362E+03 -0.25200727413E+03  0.69177547793E+03  0.00000000000E+00 0. -1.
         -2    1    6    6    0  503 -0.20668008468E+03  0.24139570733E+03 -0.10516942604E+03  0.33473743904E+03  0.00000000000E+00 0.  1.
<mgrwt>
<rscale>  0 0.33977940E+04</rscale>
<asrwt>0</asrwt>
<pdfrwt beam="1">  1        2 0.62194908E+00 0.33977940E+04</pdfrwt>
<pdfrwt beam="2">  1       -1 0.10983799E+00 0.33977940E+04</pdfrwt>
<totfact> 0.22688074E-01</totfact>
</mgrwt>
</event>
<event>
12    6  0.9491186E-008  0.1673827E+04  0.7818608E-02  0.8776434E-01
         -1   -1    0    0    0  501 -0.00000000000E+00  0.00000000000E+00  0.40957990767E+03  0.40957990767E+03  0.00000000000E+00 0.  1.
          2   -1    0    0  501    0  0.00000000000E+00 -0.00000000000E+00 -0.17101039825E+04  0.17101039825E+04  0.00000000000E+00 0. -1.
         24    2    1    2    0    0  0.15261690098E+02 -0.42569420950E+03  0.54490909304E+02  0.43666099240E+03  0.79089088386E+02 0.  0.
        254    2    1    2    0    0 -0.15261690098E+02  0.42569420950E+03 -0.13550149841E+04  0.16830228978E+04  0.90280229732E+03 0.  0.
         23    2    4    4    0    0  0.10888815183E+03  0.18439932392E+03  0.57852923748E+02  0.24082225539E+03  0.93747840693E+02 0.  0.
         23    2    4    4    0    0 -0.12414984193E+03  0.24129488558E+03 -0.14128679079E+04  0.14422006424E+04  0.10055129399E+03 0.  0.
          4    1    3    3  502    0 -0.31675011406E+02 -0.14200857582E+03  0.11940122366E+02  0.14598735725E+03  0.00000000000E+00 0. -1.
         -3    1    3    3    0  502  0.46936701504E+02 -0.28368563368E+03  0.42550786938E+02  0.29067363515E+03  0.00000000000E+00 0.  1.
         11    1    5    5    0    0  0.86925493880E+02  0.18828742993E+03  0.37742736017E+02  0.21079068262E+03  0.00000000000E+00 0. -1.
        -11    1    5    5    0    0  0.21962657952E+02 -0.38881060127E+01  0.20110187731E+02  0.30031572773E+02  0.00000000000E+00 0.  1.
          2    1    6    6  503    0 -0.13623596750E+03  0.23105866766E+03 -0.13785626693E+04  0.14044156721E+04  0.00000000000E+00 0. -1.
         -2    1    6    6    0  503  0.12086125569E+02  0.10236217919E+02 -0.34305238593E+02  0.37784970339E+02  0.00000000000E+00 0.  1.
<mgrwt>
<rscale>  0 0.16738270E+04</rscale>
<asrwt>0</asrwt>
<pdfrwt beam="1">  1        2 0.26309292E+00 0.16738270E+04</pdfrwt>
<pdfrwt beam="2">  1       -1 0.63012293E-01 0.16738270E+04</pdfrwt>
<totfact> 0.26859439E+01</totfact>
</mgrwt>
</event>
<event>
12    6  0.9491186E-008  0.2476765E+04  0.7818608E-02  0.8411310E-01
         -1   -1    0    0    0  501 -0.00000000000E+00  0.00000000000E+00  0.49763105879E+03  0.49763105879E+03  0.00000000000E+00 0.  1.
          2   -1    0    0  501    0  0.00000000000E+00 -0.00000000000E+00 -0.30817828140E+04  0.30817828140E+04  0.00000000000E+00 0. -1.
         24    2    1    2    0    0  0.95484861990E+03 -0.37183231145E+03 -0.15846838141E+04  0.18887454524E+04  0.78367330930E+02 0.  0.
        254    2    1    2    0    0 -0.95484861990E+03  0.37183231145E+03 -0.99946794111E+03  0.16906684204E+04  0.89968238150E+03 0.  0.
         23    2    4    4    0    0 -0.10818461685E+04  0.44598984401E+03 -0.95280992655E+03  0.15117657740E+04  0.91054522082E+02 0.  0.
         23    2    4    4    0    0  0.12699754856E+03 -0.74157532552E+02 -0.46658014564E+02  0.17890264643E+03  0.90561965528E+02 0.  0.
          2    1    3    3  502    0  0.92011632803E+03 -0.34580810635E+03 -0.14963257139E+04  0.17903038696E+04  0.00000000000E+00 0. -1.
         -1    1    3    3    0  502  0.34732291873E+02 -0.26024205108E+02 -0.88358100172E+02  0.98441582760E+02  0.00000000000E+00 0.  1.
         11    1    5    5    0    0 -0.58530816653E+03  0.24887794683E+03 -0.57531741729E+03  0.85762230198E+03  0.00000000000E+00 0.  1.
        -11    1    5    5    0    0 -0.49653800193E+03  0.19711189718E+03 -0.37749250926E+03  0.65414347197E+03  0.00000000000E+00 0. -1.
          1    1    6    6  503    0  0.13462364448E+03 -0.85119561511E+02 -0.41560929914E+02  0.16460916226E+03  0.00000000000E+00 0. -1.
         -1    1    6    6    0  503 -0.76260959131E+01  0.10962028959E+02 -0.50970846503E+01  0.14293484170E+02  0.00000000000E+00 0.  1.
<mgrwt>
<rscale>  0 0.24767647E+04</rscale>
<asrwt>0</asrwt>
<pdfrwt beam="1">  1        2 0.47412043E+00 0.24767647E+04</pdfrwt>
<pdfrwt beam="2">  1       -1 0.76558625E-01 0.24767647E+04</pdfrwt>
<totfact> 0.26907039E+00</totfact>
</mgrwt>
</event>
<event>
12    6  0.9491186E-008  0.1000339E+04  0.7818608E-02  0.9308173E-01
          2   -1    0    0  501    0  0.00000000000E+00  0.00000000000E+00  0.14497890708E+04  0.14497890708E+04  0.00000000000E+00 0. -1.
         -1   -1    0    0    0  501 -0.00000000000E+00 -0.00000000000E+00 -0.17255572286E+03  0.17255572286E+03  0.00000000000E+00 0.  1.
         24    2    1    2    0    0 -0.35124058118E+02 -0.11527163333E+02  0.10825904205E+03  0.13984633642E+03  0.80438813209E+02 0.  0.
        254    2    1    2    0    0  0.35124058118E+02  0.11527163333E+02  0.11689743059E+04  0.14824984572E+04  0.91100722990E+03 0.  0.
         23    2    4    4    0    0  0.17508649801E+03  0.41458873782E+03  0.74151244547E+03  0.87203263283E+03  0.89783643422E+02 0.  0.
         23    2    4    4    0    0 -0.13996243989E+03 -0.40306157448E+03  0.42746186042E+03  0.61046582441E+03  0.88863734173E+02 0.  0.
          4    1    3    3  502    0 -0.58967192530E+02  0.36192193941E+01  0.61963870504E+02  0.85613957926E+02  0.00000000000E+00 0. -1.
         -3    1    3    3    0  502  0.23843134413E+02 -0.15146382727E+02  0.46295171544E+02  0.54232378489E+02  0.00000000000E+00 0.  1.
         11    1    5    5    0    0  0.15034723159E+03  0.39532286150E+03  0.65180836973E+03  0.77700618127E+03  0.00000000000E+00 0. -1.
        -11    1    5    5    0    0  0.24739266412E+02  0.19265876315E+02  0.89704075740E+02  0.95026451566E+02  0.00000000000E+00 0.  1.
          3    1    6    6  503    0 -0.71907303545E+02 -0.31332537947E+03  0.33960550320E+03  0.46762736396E+03  0.00000000000E+00 0. -1.
         -3    1    6    6    0  503 -0.68055136344E+02 -0.89736195015E+02  0.87856357222E+02  0.14283846045E+03  0.00000000000E+00 0.  1.
<mgrwt>
<rscale>  0 0.10003387E+04</rscale>
<asrwt>0</asrwt>
<pdfrwt beam="1">  1        2 0.22304446E+00 0.10003387E+04</pdfrwt>
<pdfrwt beam="2">  1       -1 0.26547035E-01 0.10003387E+04</pdfrwt>
<totfact> 0.19452786E+02</totfact>
</mgrwt>
</event>
<event>
12    6  0.9491186E-008  0.2186265E+04  0.7818608E-02  0.8524167E-01
          2   -1    0    0  501    0  0.00000000000E+00  0.00000000000E+00  0.26728134149E+04  0.26728134149E+04  0.00000000000E+00 0. -1.
         -1   -1    0    0    0  501 -0.00000000000E+00 -0.00000000000E+00 -0.44707132804E+03  0.44707132804E+03  0.00000000000E+00 0.  1.
         24    2    1    2    0    0  0.27398882412E+03  0.65860959002E+03  0.17306308654E+04  0.18735872547E+04  0.80059607497E+02 0.  0.
        254    2    1    2    0    0 -0.27398882412E+03 -0.65860959002E+03  0.49511122141E+03  0.12462974882E+04  0.89402787416E+03 0.  0.
         23    2    4    4    0    0  0.22902395204E+03  0.56010264201E+02  0.37532479825E+02  0.25556537833E+03  0.91191311293E+02 0.  0.
         23    2    4    4    0    0 -0.50301277616E+03 -0.71461985422E+03  0.45757874159E+03  0.99073210989E+03  0.92024017508E+02 0.  0.
          2    1    3    3  502    0  0.12697414003E+03  0.37966535972E+03  0.89544449805E+03  0.98086139015E+03  0.00000000000E+00 0. -1.
         -1    1    3    3    0  502  0.14701468409E+03  0.27894423030E+03  0.83518636736E+03  0.89272586452E+03  0.00000000000E+00 0.  1.
         11    1    5    5    0    0  0.21203956752E+03  0.20002963776E+02  0.31926922308E+02  0.21536068611E+03  0.00000000000E+00 0. -1.
        -11    1    5    5    0    0  0.16984384521E+02  0.36007300426E+02  0.56055575175E+01  0.40204692221E+02  0.00000000000E+00 0.  1.
          1    1    6    6  503    0 -0.25819363726E+03 -0.42379988486E+03  0.29466226376E+03  0.57714482274E+03  0.00000000000E+00 0. -1.
         -1    1    6    6    0  503 -0.24481913890E+03 -0.29081996936E+03  0.16291647783E+03  0.41358728716E+03  0.00000000000E+00 0.  1.
<mgrwt>
<rscale>  0 0.21862646E+04</rscale>
<asrwt>0</asrwt>
<pdfrwt beam="1">  1        2 0.41120205E+00 0.21862646E+04</pdfrwt>
<pdfrwt beam="2">  1       -1 0.68780206E-01 0.21862646E+04</pdfrwt>
<totfact> 0.61418887E+00</totfact>
</mgrwt>
</event>
<event>
12    6  0.9491186E-008  0.2284311E+04  0.7818608E-02  0.8484133E-01
         -1   -1    0    0    0  501 -0.00000000000E+00  0.00000000000E+00  0.20734480666E+04  0.20734480666E+04  0.00000000000E+00 0.  1.
          2   -1    0    0  501    0  0.00000000000E+00 -0.00000000000E+00 -0.62915456265E+03  0.62915456265E+03  0.00000000000E+00 0. -1.
         24    2    1    2    0    0  0.53993943981E+03  0.52859231158E+03 -0.10001397128E+03  0.76618451020E+03  0.78047925592E+02 0.  0.
        254    2    1    2    0    0 -0.53993943981E+03 -0.52859231158E+03  0.15443074752E+04  0.19364181190E+04  0.89100231381E+03 0.  0.
         23    2    4    4    0    0 -0.37573708464E+03 -0.30685045925E+03  0.15551483853E+03  0.51757553747E+03  0.91454966372E+02 0.  0.
         23    2    4    4    0    0 -0.16420235518E+03 -0.22174185233E+03  0.13887926367E+04  0.14188425816E+04  0.90760239257E+02 0.  0.
          2    1    3    3  502    0  0.35294287952E+02  0.38276609638E+02  0.12713821780E+02  0.53595026557E+02  0.00000000000E+00 0. -1.
         -1    1    3    3    0  502  0.50464515186E+03  0.49031570194E+03 -0.11272779306E+03  0.71258948364E+03  0.00000000000E+00 0.  1.
         11    1    5    5    0    0 -0.27858173573E+03 -0.18194356942E+03  0.13029827292E+03  0.35733581665E+03  0.00000000000E+00 0.  1.
        -11    1    5    5    0    0 -0.97155348904E+02 -0.12490688983E+03  0.25216565612E+02  0.16023972082E+03  0.00000000000E+00 0. -1.
          3    1    6    6  503    0 -0.11458216790E+02 -0.65752151172E+02  0.45492656641E+03  0.45979649514E+03  0.00000000000E+00 0. -1.
         -3    1    6    6    0  503 -0.15274413839E+03 -0.15598970116E+03  0.93386607028E+03  0.95904608643E+03  0.00000000000E+00 0.  1.
<mgrwt>
<rscale>  0 0.22843111E+04</rscale>
<asrwt>0</asrwt>
<pdfrwt beam="1">  1        2 0.96793011E-01 0.22843111E+04</pdfrwt>
<pdfrwt beam="2">  1       -1 0.31899201E+00 0.22843111E+04</pdfrwt>
<totfact> 0.12055963E+00</totfact>
</mgrwt>
</event>
<event>
12    6  0.9491186E-008  0.1623897E+04  0.7818608E-02  0.8806000E-01
          2   -1    0    0  501    0  0.00000000000E+00  0.00000000000E+00  0.12447923458E+04  0.12447923458E+04  0.00000000000E+00 0. -1.
         -1   -1    0    0    0  501 -0.00000000000E+00 -0.00000000000E+00 -0.52961489356E+03  0.52961489356E+03  0.00000000000E+00 0.  1.
         24    2    1    2    0    0  0.15525931330E+03  0.32827733576E+03 -0.21576237070E+03  0.42970483900E+03  0.78875753623E+02 0.  0.
        254    2    1    2    0    0 -0.15525931330E+03 -0.32827733576E+03  0.93093982293E+03  0.13447024003E+04  0.89983561168E+03 0.  0.
         23    2    4    4    0    0 -0.26220276937E+03  0.35741608667E+01  0.94495631158E+03  0.98410203034E+03  0.82166346188E+02 0.  0.
         23    2    4    4    0    0  0.10694345607E+03 -0.33185149662E+03 -0.14016488644E+02  0.36060037001E+03  0.90960685394E+02 0.  0.
          4    1    3    3  502    0  0.37689713838E+02  0.65847449435E+02 -0.10941655890E+02  0.76655860571E+02  0.00000000000E+00 0. -1.
         -3    1    3    3    0  502  0.11756959946E+03  0.26242988632E+03 -0.20482071481E+03  0.35304897842E+03  0.00000000000E+00 0.  1.
         11    1    5    5    0    0 -0.10162738757E+03  0.39040320191E+02  0.32740436727E+03  0.34503027724E+03  0.00000000000E+00 0. -1.
        -11    1    5    5    0    0 -0.16057538181E+03 -0.35466159325E+02  0.61755194430E+03  0.63907175310E+03  0.00000000000E+00 0.  1.
          3    1    6    6  503    0  0.42367231385E+02 -0.83352298653E+02  0.33818341208E+02  0.99429714815E+02  0.00000000000E+00 0. -1.
         -3    1    6    6    0  503  0.64576224689E+02 -0.24849919797E+03 -0.47834829853E+02  0.26117065519E+03  0.00000000000E+00 0.  1.
<mgrwt>
<rscale>  0 0.16238972E+04</rscale>
<asrwt>0</asrwt>
<pdfrwt beam="1">  1        2 0.19150651E+00 0.16238972E+04</pdfrwt>
<pdfrwt beam="2">  1       -1 0.81479215E-01 0.16238972E+04</pdfrwt>
<totfact> 0.29162347E+01</totfact>
</mgrwt>
</event>
<event>
12    6  0.9491186E-008  0.4127558E+04  0.7818608E-02  0.7979297E-01
          2   -1    0    0  501    0  0.00000000000E+00  0.00000000000E+00  0.33324414620E+04  0.33324414620E+04  0.00000000000E+00 0. -1.
         -1   -1    0    0    0  501 -0.00000000000E+00 -0.00000000000E+00 -0.12780972657E+04  0.12780972657E+04  0.00000000000E+00 0.  1.
         24    2    1    2    0    0  0.10025254099E+04 -0.18194690272E+03 -0.89849012425E+03  0.13606591667E+04  0.77116740750E+02 0.  0.
        254    2    1    2    0    0 -0.10025254099E+04  0.18194690272E+03  0.29528343206E+04  0.32498795610E+04  0.89684154848E+03 0.  0.
         23    2    4    4    0    0 -0.40903426698E+03  0.23662503686E+03  0.23442602308E+04  0.23931702777E+04  0.91692470068E+02 0.  0.
         23    2    4    4    0    0 -0.59349114294E+03 -0.54678134145E+02  0.60857408985E+03  0.85670928327E+03  0.91470968585E+02 0.  0.
          4    1    3    3  502    0  0.10942542036E+03 -0.44679224734E+02 -0.10749299532E+03  0.15976513946E+03  0.00000000000E+00 0. -1.
         -3    1    3    3    0  502  0.89309998956E+03 -0.13726767798E+03 -0.79099712893E+03  0.12008940273E+04  0.00000000000E+00 0.  1.
         11    1    5    5    0    0 -0.17662605258E+03  0.52056784338E+02  0.84826013437E+03  0.86801608672E+03  0.00000000000E+00 0. -1.
        -11    1    5    5    0    0 -0.23240821439E+03  0.18456825252E+03  0.14960000964E+04  0.15251541910E+04  0.00000000000E+00 0.  1.
          2    1    6    6  503    0 -0.36381807568E+03 -0.63378116488E+02  0.32720852789E+03  0.49340226851E+03  0.00000000000E+00 0. -1.
         -2    1    6    6    0  503 -0.22967306726E+03  0.86999823434E+01  0.28136556196E+03  0.36330701476E+03  0.00000000000E+00 0.  1.
<mgrwt>
<rscale>  0 0.41275583E+04</rscale>
<asrwt>0</asrwt>
<pdfrwt beam="1">  1        2 0.51268330E+00 0.41275583E+04</pdfrwt>
<pdfrwt beam="2">  1       -1 0.19663035E+00 0.41275583E+04</pdfrwt>
<totfact> 0.14893551E-01</totfact>
</mgrwt>
</event>
<event>
12    6  0.9491186E-008  0.1932730E+04  0.7818608E-02  0.8638734E-01
          2   -1    0    0  501    0  0.00000000000E+00  0.00000000000E+00  0.30913184601E+04  0.30913184601E+04  0.00000000000E+00 0. -1.
         -1   -1    0    0    0  501 -0.00000000000E+00 -0.00000000000E+00 -0.30209159791E+03  0.30209159791E+03  0.00000000000E+00 0.  1.
         24    2    1    2    0    0 -0.37958716778E+01 -0.59840123172E+03  0.19115050089E+04  0.20042393849E+04  0.70891960349E+02 0.  0.
        254    2    1    2    0    0  0.37958716778E+01  0.59840123172E+03  0.87772185329E+03  0.13891706731E+04  0.89515421277E+03 0.  0.
         23    2    4    4    0    0 -0.14492863922E+03  0.77394631267E+03  0.81489329558E+03  0.11367644353E+04  0.90471502141E+02 0.  0.
         23    2    4    4    0    0  0.14872451090E+03 -0.17554508095E+03  0.62828557703E+02  0.25240623790E+03  0.82622186351E+02 0.  0.
          4    1    3    3  502    0  0.91930667707E+01 -0.55637811885E+03  0.17210565728E+04  0.18087777228E+04  0.00000000000E+00 0. -1.
         -3    1    3    3    0  502 -0.12988938449E+02 -0.42023112871E+02  0.19044843610E+03  0.19546166210E+03  0.00000000000E+00 0.  1.
         11    1    5    5    0    0 -0.65907526133E+02  0.54458163389E+03  0.53298029902E+03  0.76484047821E+03  0.00000000000E+00 0. -1.
        -11    1    5    5    0    0 -0.79021113086E+02  0.22936467878E+03  0.28191299657E+03  0.37192395704E+03  0.00000000000E+00 0.  1.
          4    1    6    6  503    0  0.44987047184E+01 -0.44560263145E+02 -0.72256568557E+01  0.45365906942E+02  0.00000000000E+00 0.  1.
         -4    1    6    6    0  503  0.14422580618E+03 -0.13098481781E+03  0.70054214558E+02  0.20704033095E+03  0.00000000000E+00 0. -1.
<mgrwt>
<rscale>  0 0.19327300E+04</rscale>
<asrwt>0</asrwt>
<pdfrwt beam="1">  1        2 0.47558743E+00 0.19327300E+04</pdfrwt>
<pdfrwt beam="2">  1       -1 0.46475632E-01 0.19327300E+04</pdfrwt>
<totfact> 0.74963678E+00</totfact>
</mgrwt>
</event>
<event>
12    6  0.9491186E-008  0.1276622E+04  0.7818608E-02  0.9048312E-01
         -1   -1    0    0    0  501 -0.00000000000E+00  0.00000000000E+00  0.20078539344E+03  0.20078539344E+03  0.00000000000E+00 0.  1.
          2   -1    0    0  501    0  0.00000000000E+00 -0.00000000000E+00 -0.20292374840E+04  0.20292374840E+04  0.00000000000E+00 0. -1.
         24    2    1    2    0    0  0.45894833592E+01 -0.31266594906E+03 -0.58174376523E+03  0.66496439177E+03  0.77270789289E+02 0.  0.
        254    2    1    2    0    0 -0.45894833592E+01  0.31266594906E+03 -0.12467083253E+04  0.15650584857E+04  0.89294196681E+03 0.  0.
         23    2    4    4    0    0 -0.51224821982E+01  0.27604294838E+03 -0.13737547179E+04  0.14042171929E+04  0.91640333749E+02 0.  0.
         23    2    4    4    0    0  0.53299883904E+00  0.36623000682E+02  0.12704639252E+03  0.16084129281E+03  0.91583881521E+02 0.  0.
          4    1    3    3  502    0 -0.28312288939E+02 -0.13790293255E+03 -0.20926709934E+03  0.25221324981E+03  0.00000000000E+00 0. -1.
         -3    1    3    3    0  502  0.32901772298E+02 -0.17476301651E+03 -0.37247666589E+03  0.41275114196E+03  0.00000000000E+00 0.  1.
         11    1    5    5    0    0 -0.24138297253E+02  0.92211909973E+02 -0.66349604029E+03  0.67030790627E+03  0.00000000000E+00 0.  1.
        -11    1    5    5    0    0  0.19015815055E+02  0.18383103841E+03 -0.71025867758E+03  0.73390928661E+03  0.00000000000E+00 0. -1.
          2    1    6    6  503    0 -0.38203189419E+02  0.19685727203E+01  0.87612683608E+02  0.95599902141E+02  0.00000000000E+00 0. -1.
         -2    1    6    6    0  503  0.38736188258E+02  0.34654427962E+02  0.39433708907E+02  0.65241390668E+02  0.00000000000E+00 0.  1.
<mgrwt>
<rscale>  0 0.12766225E+04</rscale>
<asrwt>0</asrwt>
<pdfrwt beam="1">  1        2 0.31219039E+00 0.12766225E+04</pdfrwt>
<pdfrwt beam="2">  1       -1 0.30890060E-01 0.12766225E+04</pdfrwt>
<totfact> 0.69827991E+01</totfact>
</mgrwt>
</event>
<event>
12    6  0.9491186E-008  0.1333528E+04  0.7818608E-02  0.9003392E-01
         -1   -1    0    0    0  501 -0.00000000000E+00  0.00000000000E+00  0.24317794173E+03  0.24317794173E+03  0.00000000000E+00 0.  1.
          2   -1    0    0  501    0  0.00000000000E+00 -0.00000000000E+00 -0.18281853253E+04  0.18281853253E+04  0.00000000000E+00 0. -1.
         24    2    1    2    0    0 -0.28930317879E+03 -0.78461207648E+00 -0.11686682112E+03  0.32250730011E+03  0.81585291982E+02 0.  0.
        254    2    1    2    0    0  0.28930317879E+03  0.78461207648E+00 -0.14681405625E+04  0.17488559669E+04  0.90518701771E+03 0.  0.
         23    2    4    4    0    0  0.51738832795E+03 -0.22554261334E+03 -0.11641976169E+04  0.12971805715E+04  0.93601236778E+02 0.  0.
         23    2    4    4    0    0 -0.22808514916E+03  0.22632722541E+03 -0.30394294556E+03  0.45167539543E+03  0.91555996270E+02 0.  0.
          4    1    3    3  502    0 -0.19033877790E+02 -0.11758156171E+02  0.90620335972E+01  0.24138417371E+02  0.00000000000E+00 0. -1.
         -3    1    3    3    0  502 -0.27026930100E+03  0.10973544095E+02 -0.12592885472E+03  0.29836888273E+03  0.00000000000E+00 0.  1.
         11    1    5    5    0    0  0.32977238202E+03 -0.17439268263E+03 -0.84040773489E+03  0.91948235033E+03  0.00000000000E+00 0.  1.
        -11    1    5    5    0    0  0.18761594593E+03 -0.51149930709E+02 -0.32378988201E+03  0.37769822117E+03  0.00000000000E+00 0. -1.
          3    1    6    6  503    0 -0.20224570292E+03  0.18764533644E+03 -0.29572859918E+03  0.40443726462E+03  0.00000000000E+00 0. -1.
         -3    1    6    6    0  503 -0.25839446240E+02  0.38681888973E+02 -0.82143463785E+01  0.47238130815E+02  0.00000000000E+00 0.  1.
<mgrwt>
<rscale>  0 0.13335282E+04</rscale>
<asrwt>0</asrwt>
<pdfrwt beam="1">  1        2 0.28125927E+00 0.13335282E+04</pdfrwt>
<pdfrwt beam="2">  1       -1 0.37411992E-01 0.13335282E+04</pdfrwt>
<totfact> 0.63813843E+01</totfact>
</mgrwt>
</event>
<event>
12    6  0.9491186E-008  0.1882576E+04  0.7818608E-02  0.8663578E-01
          2   -1    0    0  501    0  0.00000000000E+00  0.00000000000E+00  0.31600660585E+04  0.31600660585E+04  0.00000000000E+00 0. -1.
         -1   -1    0    0    0  501 -0.00000000000E+00 -0.00000000000E+00 -0.28038125074E+03  0.28038125074E+03  0.00000000000E+00 0.  1.
         24    2    1    2    0    0 -0.28412261381E+03  0.13648020386E+03 -0.81276873673E+02  0.33502631974E+03  0.79272939894E+02 0.  0.
        254    2    1    2    0    0  0.28412261381E+03 -0.13648020386E+03  0.29609616815E+04  0.31054209895E+04  0.88147202868E+03 0.  0.
         23    2    4    4    0    0 -0.21515286840E+03 -0.18145080720E+03  0.41991208685E+03  0.51374505739E+03  0.91611522751E+02 0.  0.
         23    2    4    4    0    0  0.49927548222E+03  0.44970603335E+02  0.25410495946E+04  0.25916759321E+04  0.92480984865E+02 0.  0.
          2    1    3    3  502    0 -0.18188763815E+03  0.85808961382E+02 -0.11850647374E+02  0.20146148170E+03  0.00000000000E+00 0. -1.
         -3    1    3    3    0  502 -0.10223497567E+03  0.50671242483E+02 -0.69426226299E+02  0.13356483805E+03  0.00000000000E+00 0.  1.
         11    1    5    5    0    0 -0.19526836139E+03 -0.11829420241E+03  0.30298459024E+03  0.37937173485E+03  0.00000000000E+00 0.  1.
        -11    1    5    5    0    0 -0.19884507016E+02 -0.63156604788E+02  0.11692749661E+03  0.13437332254E+03  0.00000000000E+00 0. -1.
          3    1    6    6  503    0  0.20230332758E+03 -0.23037770556E+02  0.11162892338E+04  0.11347065827E+04  0.00000000000E+00 0. -1.
         -3    1    6    6    0  503  0.29697215464E+03  0.68008373891E+02  0.14247603608E+04  0.14569693494E+04  0.00000000000E+00 0.  1.
<mgrwt>
<rscale>  0 0.18825762E+04</rscale>
<asrwt>0</asrwt>
<pdfrwt beam="1">  1        2 0.48616398E+00 0.18825762E+04</pdfrwt>
<pdfrwt beam="2">  1       -1 0.43135579E-01 0.18825762E+04</pdfrwt>
<totfact> 0.78219173E+00</totfact>
</mgrwt>
</event>
<event>
12    6  0.9491186E-008  0.1648970E+04  0.7818608E-02  0.8791016E-01
          2   -1    0    0  501    0  0.00000000000E+00  0.00000000000E+00  0.16624921691E+04  0.16624921691E+04  0.00000000000E+00 0. -1.
         -1   -1    0    0    0  501 -0.00000000000E+00 -0.00000000000E+00 -0.40888935673E+03  0.40888935673E+03  0.00000000000E+00 0.  1.
         24    2    1    2    0    0 -0.28038687324E+03 -0.35191881476E+03 -0.55536312226E+00  0.46064743591E+03  0.98651411119E+02 0.  0.
        254    2    1    2    0    0  0.28038687324E+03  0.35191881476E+03  0.12541581755E+04  0.16107340899E+04  0.90503476641E+03 0.  0.
         23    2    4    4    0    0 -0.40574176717E+02 -0.84955172736E+02  0.99494359757E+03  0.10034545233E+04  0.90247286662E+02 0.  0.
         23    2    4    4    0    0  0.32096104996E+03  0.43687398750E+03  0.25921457789E+03  0.60727956661E+03  0.87871486264E+02 0.  0.
          2    1    3    3  502    0 -0.14608077130E+03 -0.20258652323E+03  0.47251907542E+02  0.25419212007E+03  0.00000000000E+00 0. -1.
         -1    1    3    3    0  502 -0.13430610194E+03 -0.14933229153E+03 -0.47807270664E+02  0.20645531584E+03  0.00000000000E+00 0.  1.
         11    1    5    5    0    0 -0.45988302718E+02 -0.37037426042E+02  0.81579518603E+03  0.81792938599E+03  0.00000000000E+00 0.  1.
        -11    1    5    5    0    0  0.54141260015E+01 -0.47917746694E+02  0.17914841154E+03  0.18552513729E+03  0.00000000000E+00 0. -1.
          2    1    6    6  503    0  0.54931569425E+02  0.12601204854E+03  0.91233312849E+02  0.16498494195E+03  0.00000000000E+00 0. -1.
         -2    1    6    6    0  503  0.26602948053E+03  0.31086193895E+03  0.16798126504E+03  0.44229462466E+03  0.00000000000E+00 0.  1.
<mgrwt>
<rscale>  0 0.16489698E+04</rscale>
<asrwt>0</asrwt>
<pdfrwt beam="1">  1        2 0.25576802E+00 0.16489698E+04</pdfrwt>
<pdfrwt beam="2">  1       -1 0.62906056E-01 0.16489698E+04</pdfrwt>
<totfact> 0.28704584E+01</totfact>
</mgrwt>
</event>
<event>
12    6  0.9491186E-008  0.2261378E+04  0.7818608E-02  0.8493307E-01
         -1   -1    0    0    0  501 -0.00000000000E+00  0.00000000000E+00  0.63500720042E+03  0.63500720042E+03  0.00000000000E+00 0.  1.
          2   -1    0    0  501    0  0.00000000000E+00 -0.00000000000E+00 -0.20132967588E+04  0.20132967588E+04  0.00000000000E+00 0. -1.
         24    2    1    2    0    0  0.52664462193E+03 -0.77361656869E+03 -0.38684623829E+03  0.10157257745E+04  0.78814235938E+02 0.  0.
        254    2    1    2    0    0 -0.52664462193E+03  0.77361656869E+03 -0.99144332011E+03  0.16325781847E+04  0.89806153412E+03 0.  0.
         23    2    4    4    0    0  0.14317898299E+03 -0.94969760670E+02 -0.11696747860E+03  0.22685906697E+03  0.90907472749E+02 0.  0.
         23    2    4    4    0    0 -0.66982360492E+03  0.86858632936E+03 -0.87447584151E+03  0.14057191178E+04  0.90732394260E+02 0.  0.
          2    1    3    3  502    0  0.12649941481E+03 -0.16766632906E+03 -0.53624315763E+02  0.21677100149E+03  0.00000000000E+00 0. -1.
         -1    1    3    3    0  502  0.40014520712E+03 -0.60595023963E+03 -0.33322192253E+03  0.79895477303E+03  0.00000000000E+00 0.  1.
         11    1    5    5    0    0 -0.33357813568E+01 -0.30343933233E+02 -0.36690933496E+02  0.47729512066E+02  0.00000000000E+00 0. -1.
        -11    1    5    5    0    0  0.14651476435E+03 -0.64625827437E+02 -0.80276545106E+02  0.17912955490E+03  0.00000000000E+00 0.  1.
          3    1    6    6  503    0 -0.32927697220E+03  0.41140162352E+03 -0.36355153385E+03  0.64019086062E+03  0.00000000000E+00 0. -1.
         -3    1    6    6    0  503 -0.34054663272E+03  0.45718470585E+03 -0.51092430766E+03  0.76552825714E+03  0.00000000000E+00 0.  1.
<mgrwt>
<rscale>  0 0.22613783E+04</rscale>
<asrwt>0</asrwt>
<pdfrwt beam="1">  1        2 0.30973796E+00 0.22613783E+04</pdfrwt>
<pdfrwt beam="2">  1       -1 0.97693417E-01 0.22613783E+04</pdfrwt>
<totfact> 0.68337846E+00</totfact>
</mgrwt>
</event>
<event>
12    6  0.9491186E-008  0.2056845E+04  0.7818608E-02  0.8580495E-01
          2   -1    0    0  501    0  0.00000000000E+00  0.00000000000E+00  0.23338988435E+04  0.23338988435E+04  0.00000000000E+00 0. -1.
         -1   -1    0    0    0  501 -0.00000000000E+00 -0.00000000000E+00 -0.45317016245E+03  0.45317016245E+03  0.00000000000E+00 0.  1.
         24    2    1    2    0    0 -0.81224967281E+03  0.13584376274E+03  0.66415844580E+03  0.10610485950E+04  0.80713202398E+02 0.  0.
        254    2    1    2    0    0  0.81224967281E+03 -0.13584376274E+03  0.12165702353E+04  0.17260204110E+04  0.90603546444E+03 0.  0.
         23    2    4    4    0    0  0.84583256907E+03  0.19670365882E+03  0.80831140858E+03  0.11899745257E+04  0.92449847399E+02 0.  0.
         23    2    4    4    0    0 -0.33582896262E+02 -0.33254742156E+03  0.40825882672E+03  0.53604588527E+03  0.94627284717E+02 0.  0.
          4    1    3    3  502    0 -0.63417905707E+03  0.12716801927E+03  0.55278213068E+03  0.85083656806E+03  0.00000000000E+00 0. -1.
         -3    1    3    3    0  502 -0.17807061573E+03  0.86757434688E+01  0.11137631512E+03  0.21021202697E+03  0.00000000000E+00 0.  1.
         11    1    5    5    0    0  0.17399796913E+03  0.52615787773E+02  0.22023644290E+03  0.28556576329E+03  0.00000000000E+00 0. -1.
        -11    1    5    5    0    0  0.67183459994E+03  0.14408787105E+03  0.58807496568E+03  0.90440876241E+03  0.00000000000E+00 0.  1.
          4    1    6    6  503    0  0.18952866883E+01 -0.50850132102E+02  0.12512397595E+03  0.13507530271E+03  0.00000000000E+00 0. -1.
         -4    1    6    6    0  503 -0.35478182951E+02 -0.28169728946E+03  0.28313485077E+03  0.40097058255E+03  0.00000000000E+00 0.  1.
<mgrwt>
<rscale>  0 0.20568455E+04</rscale>
<asrwt>0</asrwt>
<pdfrwt beam="1">  1        2 0.35906135E+00 0.20568455E+04</pdfrwt>
<pdfrwt beam="2">  1       -1 0.69718488E-01 0.20568455E+04</pdfrwt>
<totfact> 0.94987266E+00</totfact>
</mgrwt>
</event>
<event>
12    6  0.9491186E-008  0.2086596E+04  0.7818608E-02  0.8567171E-01
         -1   -1    0    0    0  501 -0.00000000000E+00  0.00000000000E+00  0.23755446478E+04  0.23755446478E+04  0.00000000000E+00 0.  1.
          2   -1    0    0  501    0  0.00000000000E+00 -0.00000000000E+00 -0.45819830940E+03  0.45819830940E+03  0.00000000000E+00 0. -1.
         24    2    1    2    0    0 -0.54444848845E+03  0.36302002581E+03  0.15010287445E+04  0.16393956425E+04  0.79517828855E+02 0.  0.
        254    2    1    2    0    0  0.54444848845E+03 -0.36302002581E+03  0.41631759388E+03  0.11943473147E+04  0.90826068582E+03 0.  0.
         23    2    4    4    0    0 -0.23071246635E+03  0.22865836221E+02  0.87177407713E+02  0.26365963858E+03  0.90362691456E+02 0.  0.
         23    2    4    4    0    0  0.77516095480E+03 -0.38588586203E+03  0.32914018616E+03  0.93068767610E+03  0.89799131018E+02 0.  0.
          2    1    3    3  502    0 -0.17233664934E+03  0.15111237948E+03  0.58168072089E+03  0.62520983117E+03  0.00000000000E+00 0. -1.
         -1    1    3    3    0  502 -0.37211183911E+03  0.21190764633E+03  0.91934802364E+03  0.10141858114E+04  0.00000000000E+00 0.  1.
         11    1    5    5    0    0 -0.22840816033E+03  0.40047602749E+01  0.87574747408E+02  0.24465416856E+03  0.00000000000E+00 0. -1.
        -11    1    5    5    0    0 -0.23043060229E+01  0.18861075946E+02 -0.39733969528E+00  0.19005470026E+02  0.00000000000E+00 0.  1.
          1    1    6    6  503    0  0.54886486262E+03 -0.22732405038E+03  0.21666146571E+03  0.63235358149E+03  0.00000000000E+00 0. -1.
         -1    1    6    6    0  503  0.22629609218E+03 -0.15856181166E+03  0.11247872045E+03  0.29833409461E+03  0.00000000000E+00 0.  1.
<mgrwt>
<rscale>  0 0.20865958E+04</rscale>
<asrwt>0</asrwt>
<pdfrwt beam="1">  1        2 0.70492049E-01 0.20865958E+04</pdfrwt>
<pdfrwt beam="2">  1       -1 0.36546840E+00 0.20865958E+04</pdfrwt>
<totfact> 0.88104272E-01</totfact>
</mgrwt>
</event>
<event>
12    6  0.9491186E-008  0.1867090E+04  0.7818608E-02  0.8671413E-01
         -1   -1    0    0    0  501 -0.00000000000E+00  0.00000000000E+00  0.23204526195E+03  0.23204526195E+03  0.00000000000E+00 0.  1.
          2   -1    0    0  501    0  0.00000000000E+00 -0.00000000000E+00 -0.37557601489E+04  0.37557601489E+04  0.00000000000E+00 0. -1.
         24    2    1    2    0    0 -0.42790617567E+03  0.90549101603E+02 -0.25553103936E+04  0.25937489483E+04  0.81360704698E+02 0.  0.
        254    2    1    2    0    0  0.42790617567E+03 -0.90549101603E+02 -0.96840449336E+03  0.13940564625E+04  0.90237648630E+03 0.  0.
         23    2    4    4    0    0 -0.93702442692E+02  0.10410197591E+02 -0.82660381423E+03  0.83692953870E+03  0.91042116959E+02 0.  0.
         23    2    4    4    0    0  0.52160861836E+03 -0.10095929919E+03 -0.14180067913E+03  0.55712692385E+03  0.89524554387E+02 0.  0.
          4    1    3    3  502    0 -0.25343430562E+03  0.43890658768E+02 -0.17210775203E+04  0.17401905551E+04  0.00000000000E+00 0. -1.
         -3    1    3    3    0  502 -0.17447187005E+03  0.46658442835E+02 -0.83423287330E+03  0.85355839321E+03  0.00000000000E+00 0.  1.
         11    1    5    5    0    0 -0.54377131999E+02 -0.33871394345E+02 -0.28576847656E+03  0.29286134268E+03  0.00000000000E+00 0. -1.
        -11    1    5    5    0    0 -0.39325310693E+02  0.44281591936E+02 -0.54083533767E+03  0.54406819602E+03  0.00000000000E+00 0.  1.
          2    1    6    6  503    0  0.19411000378E+03 -0.78453294192E+02 -0.37595246488E+02  0.21271345866E+03  0.00000000000E+00 0.  1.
         -2    1    6    6    0  503  0.32749861458E+03 -0.22506005002E+02 -0.10420543264E+03  0.34441346519E+03  0.00000000000E+00 0. -1.
<mgrwt>
<rscale>  0 0.18670901E+04</rscale>
<asrwt>0</asrwt>
<pdfrwt beam="1">  1        2 0.57780922E+00 0.18670901E+04</pdfrwt>
<pdfrwt beam="2">  1       -1 0.35699273E-01 0.18670901E+04</pdfrwt>
<totfact> 0.42888825E+00</totfact>
</mgrwt>
</event>
<event>
12    6  0.9491186E-008  0.2558842E+04  0.7818608E-02  0.8382318E-01
          2   -1    0    0  501    0  0.00000000000E+00  0.00000000000E+00  0.16492115371E+04  0.16492115371E+04  0.00000000000E+00 0. -1.
         -1   -1    0    0    0  501 -0.00000000000E+00 -0.00000000000E+00 -0.99254596418E+03  0.99254596418E+03  0.00000000000E+00 0.  1.
         24    2    1    2    0    0  0.91724629850E+01  0.95735227549E+03  0.88902996343E+03  0.13089810726E+04  0.80309768888E+02 0.  0.
        254    2    1    2    0    0 -0.91724629850E+01 -0.95735227549E+03 -0.23236439048E+03  0.13327764288E+04  0.89760363502E+03 0.  0.
         23    2    4    4    0    0 -0.34342360772E+03 -0.50077711141E+03 -0.40358789023E+03  0.73460162881E+03  0.89659791747E+02 0.  0.
         23    2    4    4    0    0  0.33425114473E+03 -0.45657516408E+03  0.17122349975E+03  0.59817479994E+03  0.91164116863E+02 0.  0.
          4    1    3    3  502    0 -0.28230792859E+02  0.24764616650E+03  0.20752462655E+03  0.32433327315E+03  0.00000000000E+00 0. -1.
         -3    1    3    3    0  502  0.37403255844E+02  0.70970610899E+03  0.68150533688E+03  0.98464779941E+03  0.00000000000E+00 0.  1.
         11    1    5    5    0    0 -0.14249519051E+03 -0.22307738168E+03 -0.12419482162E+03  0.29239143498E+03  0.00000000000E+00 0.  1.
        -11    1    5    5    0    0 -0.20092841721E+03 -0.27769972973E+03 -0.27939306861E+03  0.44221019383E+03  0.00000000000E+00 0. -1.
          4    1    6    6  503    0  0.39920240414E+02 -0.73240460103E+02 -0.54655802039E+01  0.83592243407E+02  0.00000000000E+00 0.  1.
         -4    1    6    6    0  503  0.29433090432E+03 -0.38333470398E+03  0.17668907996E+03  0.51458255653E+03  0.00000000000E+00 0. -1.
<mgrwt>
<rscale>  0 0.25588421E+04</rscale>
<asrwt>0</asrwt>
<pdfrwt beam="1">  1        2 0.25372485E+00 0.25588421E+04</pdfrwt>
<pdfrwt beam="2">  1       -1 0.15269938E+00 0.25588421E+04</pdfrwt>
<totfact> 0.35166392E+00</totfact>
</mgrwt>
</event>
<event>
12    6  0.9491186E-008  0.2240534E+04  0.7818608E-02  0.8501744E-01
          2   -1    0    0  501    0  0.00000000000E+00  0.00000000000E+00  0.20810630590E+04  0.20810630590E+04  0.00000000000E+00 0. -1.
         -1   -1    0    0    0  501 -0.00000000000E+00 -0.00000000000E+00 -0.60305608032E+03  0.60305608032E+03  0.00000000000E+00 0.  1.
         24    2    1    2    0    0  0.53942717203E+03  0.65498211129E+03  0.10982748045E+04  0.13901468691E+04  0.79482900298E+02 0.  0.
        254    2    1    2    0    0 -0.53942717203E+03 -0.65498211129E+03  0.37973217421E+03  0.12939722702E+04  0.90010247860E+03 0.  0.
         23    2    4    4    0    0 -0.68262894916E+03 -0.62658806362E+03  0.66380014354E+02  0.93357349692E+03  0.92510994652E+02 0.  0.
         23    2    4    4    0    0  0.14320177713E+03 -0.28394047668E+02  0.31335215985E+03  0.36039877332E+03  0.10190548960E+03 0.  0.
          2    1    3    3  502    0  0.38260824112E+03  0.45077010912E+03  0.70542219030E+03  0.92043643127E+03  0.00000000000E+00 0. -1.
         -1    1    3    3    0  502  0.15681893091E+03  0.20421200217E+03  0.39285261416E+03  0.46971043780E+03  0.00000000000E+00 0.  1.
         11    1    5    5    0    0 -0.51286270527E+03 -0.48087583325E+03  0.11145320825E+02  0.70313152372E+03  0.00000000000E+00 0. -1.
        -11    1    5    5    0    0 -0.16976624389E+03 -0.14571223037E+03  0.55234693529E+02  0.23044197320E+03  0.00000000000E+00 0.  1.
          3    1    6    6  503    0  0.11118084609E+03 -0.37701109039E+02  0.30382568179E+03  0.32571858878E+03  0.00000000000E+00 0. -1.
         -3    1    6    6    0  503  0.32020931036E+02  0.93070613712E+01  0.95264780670E+01  0.34680184546E+02  0.00000000000E+00 0.  1.
<mgrwt>
<rscale>  0 0.22405336E+04</rscale>
<asrwt>0</asrwt>
<pdfrwt beam="1">  1        2 0.32016354E+00 0.22405336E+04</pdfrwt>
<pdfrwt beam="2">  1       -1 0.92777860E-01 0.22405336E+04</pdfrwt>
<totfact> 0.70476892E+00</totfact>
</mgrwt>
</event>
<event>
12    6  0.9491186E-008  0.2058573E+04  0.7818608E-02  0.8579715E-01
          2   -1    0    0  501    0  0.00000000000E+00  0.00000000000E+00  0.19564263371E+04  0.19564263371E+04  0.00000000000E+00 0. -1.
         -1   -1    0    0    0  501 -0.00000000000E+00 -0.00000000000E+00 -0.54151311400E+03  0.54151311400E+03  0.00000000000E+00 0.  1.
         24    2    1    2    0    0  0.23657373545E+03  0.32996488938E+03 -0.30515053874E+03  0.51410251493E+03  0.79627784335E+02 0.  0.
        254    2    1    2    0    0 -0.23657373545E+03 -0.32996488938E+03  0.17200637619E+04  0.19838369362E+04  0.90119125830E+03 0.  0.
         23    2    4    4    0    0 -0.42187022242E+03  0.12304101848E+03  0.53380218995E+03  0.69730629719E+03  0.90430732094E+02 0.  0.
         23    2    4    4    0    0  0.18529648697E+03 -0.45300590786E+03  0.11862615719E+04  0.12865306390E+04  0.91626565349E+02 0.  0.
          4    1    3    3  502    0  0.83666618293E+02  0.58464454983E+02 -0.79608927341E+02  0.12944410696E+03  0.00000000000E+00 0. -1.
         -3    1    3    3    0  502  0.15290711716E+03  0.27150043439E+03 -0.22554161140E+03  0.38465840797E+03  0.00000000000E+00 0.  1.
         11    1    5    5    0    0 -0.26913728276E+03  0.42660665915E+02  0.28309990349E+03  0.39293811821E+03  0.00000000000E+00 0.  1.
        -11    1    5    5    0    0 -0.15273293966E+03  0.80380352568E+02  0.25070228646E+03  0.30436817898E+03  0.00000000000E+00 0. -1.
          3    1    6    6  503    0  0.21798180161E+02 -0.61389826529E+02  0.90892630825E+02  0.11182728557E+03  0.00000000000E+00 0. -1.
         -3    1    6    6    0  503  0.16349830681E+03 -0.39161608133E+03  0.10953689411E+04  0.11747033534E+04  0.00000000000E+00 0.  1.
<mgrwt>
<rscale>  0 0.20585728E+04</rscale>
<asrwt>0</asrwt>
<pdfrwt beam="1">  1        2 0.30098866E+00 0.20585728E+04</pdfrwt>
<pdfrwt beam="2">  1       -1 0.83309711E-01 0.20585728E+04</pdfrwt>
<totfact> 0.10634284E+01</totfact>
</mgrwt>
</event>
<event>
12    6  0.9491186E-008  0.1971514E+04  0.7818608E-02  0.8620056E-01
         -1   -1    0    0    0  501 -0.00000000000E+00  0.00000000000E+00  0.62655005610E+03  0.62655005610E+03  0.00000000000E+00 0.  1.
          2   -1    0    0  501    0  0.00000000000E+00 -0.00000000000E+00 -0.15509007948E+04  0.15509007948E+04  0.00000000000E+00 0. -1.
         24    2    1    2    0    0 -0.97264327263E+02 -0.35918964820E+03  0.38520979167E+03  0.54144839513E+03  0.79386574780E+02 0.  0.
        254    2    1    2    0    0  0.97264327263E+02  0.35918964820E+03 -0.13095605304E+04  0.16360024558E+04  0.90723629770E+03 0.  0.
         23    2    4    4    0    0 -0.11319279062E+03  0.61667433131E+03 -0.78638710619E+03  0.10098416847E+04  0.90970921482E+02 0.  0.
         23    2    4    4    0    0  0.21045711788E+03 -0.25748468311E+03 -0.52317342417E+03  0.62616077110E+03  0.88183439498E+02 0.  0.
          4    1    3    3  502    0 -0.79054799297E+02 -0.25759257129E+03  0.22586179024E+03  0.35159229566E+03  0.00000000000E+00 0. -1.
         -3    1    3    3    0  502 -0.18209527966E+02 -0.10159707691E+03  0.15934800143E+03  0.18985609947E+03  0.00000000000E+00 0.  1.
         11    1    5    5    0    0 -0.99986855983E+02  0.57951404176E+03 -0.69570459555E+03  0.91095487278E+03  0.00000000000E+00 0. -1.
        -11    1    5    5    0    0 -0.13205934639E+02  0.37160289555E+02 -0.90682510644E+02  0.98886811892E+02  0.00000000000E+00 0.  1.
          2    1    6    6  503    0  0.11775719378E+03 -0.18560395496E+03 -0.27825662974E+03  0.35460165929E+03  0.00000000000E+00 0. -1.
         -2    1    6    6    0  503  0.92699924108E+02 -0.71880728158E+02 -0.24491679444E+03  0.27155911181E+03  0.00000000000E+00 0.  1.
<mgrwt>
<rscale>  0 0.19715141E+04</rscale>
<asrwt>0</asrwt>
<pdfrwt beam="1">  1        2 0.23860012E+00 0.19715141E+04</pdfrwt>
<pdfrwt beam="2">  1       -1 0.96392316E-01 0.19715141E+04</pdfrwt>
<totfact> 0.13062137E+01</totfact>
</mgrwt>
</event>
<event>
12    6  0.9491186E-008  0.1235264E+04  0.7818608E-02  0.9082538E-01
          2   -1    0    0  501    0  0.00000000000E+00  0.00000000000E+00  0.13407162557E+04  0.13407162557E+04  0.00000000000E+00 0. -1.
         -1   -1    0    0    0  501 -0.00000000000E+00 -0.00000000000E+00 -0.28452644693E+03  0.28452644693E+03  0.00000000000E+00 0.  1.
         24    2    1    2    0    0  0.12370114433E+03  0.23420775040E+02  0.57109850529E+03  0.58994231525E+03  0.77639724183E+02 0.  0.
        254    2    1    2    0    0 -0.12370114433E+03 -0.23420775040E+02  0.48509130343E+03  0.10353003873E+04  0.90591545606E+03 0.  0.
         23    2    4    4    0    0 -0.22504237991E+03 -0.10565291931E+03 -0.19982943351E+03  0.33243535250E+03  0.93674163878E+02 0.  0.
         23    2    4    4    0    0  0.10134123558E+03  0.82232144275E+02  0.68492073694E+03  0.70286503483E+03  0.88716794966E+02 0.  0.
          2    1    3    3  502    0  0.98883653298E+02  0.35643560686E+02  0.53050971827E+03  0.54082252309E+03  0.00000000000E+00 0. -1.
         -1    1    3    3    0  502  0.24817491030E+02 -0.12222785646E+02  0.40588787020E+02  0.49119792159E+02  0.00000000000E+00 0.  1.
         11    1    5    5    0    0 -0.84741249722E+02 -0.55177011743E+02 -0.13784839468E+03  0.17096128786E+03  0.00000000000E+00 0. -1.
        -11    1    5    5    0    0 -0.14030113019E+03 -0.50475907571E+02 -0.61981038829E+02  0.16147406464E+03  0.00000000000E+00 0.  1.
          2    1    6    6  503    0  0.70710309105E+02  0.13138832510E+02  0.45993240013E+03  0.46552163153E+03  0.00000000000E+00 0. -1.
         -2    1    6    6    0  503  0.30630926480E+02  0.69093311764E+02  0.22498833682E+03  0.23734340330E+03  0.00000000000E+00 0.  1.
<mgrwt>
<rscale>  0 0.12352639E+04</rscale>
<asrwt>0</asrwt>
<pdfrwt beam="1">  1        2 0.20626404E+00 0.12352639E+04</pdfrwt>
<pdfrwt beam="2">  1       -1 0.43773300E-01 0.12352639E+04</pdfrwt>
<totfact> 0.90532378E+01</totfact>
</mgrwt>
</event>
<event>
12    6  0.9491186E-008  0.1550119E+04  0.7818608E-02  0.8851792E-01
          2   -1    0    0  501    0  0.00000000000E+00  0.00000000000E+00  0.24542496085E+04  0.24542496085E+04  0.00000000000E+00 0. -1.
         -1   -1    0    0    0  501 -0.00000000000E+00 -0.00000000000E+00 -0.24476612741E+03  0.24476612741E+03  0.00000000000E+00 0.  1.
         24    2    1    2    0    0  0.26263057231E+03  0.38362411351E+03  0.13943839968E+04  0.14721441378E+04  0.82215291041E+02 0.  0.
        254    2    1    2    0    0 -0.26263057231E+03 -0.38362411351E+03  0.81509948432E+03  0.12268715981E+04  0.79036983173E+03 0.  0.
         23    2    4    4    0    0 -0.40324007214E+03 -0.25416741982E+03  0.87940524351E+03  0.10051946918E+04  0.99293267801E+02 0.  0.
         23    2    4    4    0    0  0.14060949983E+03 -0.12945669369E+03 -0.64305759194E+02  0.22167690630E+03  0.92061681148E+02 0.  0.
          4    1    3    3  502    0  0.18861382393E+03  0.23278789063E+03  0.79231707459E+03  0.84707244276E+03  0.00000000000E+00 0. -1.
         -3    1    3    3    0  502  0.74016748372E+02  0.15083622289E+03  0.60206692217E+03  0.62507169505E+03  0.00000000000E+00 0.  1.
         11    1    5    5    0    0 -0.27141567638E+03 -0.22286428056E+03  0.64764972565E+03  0.73673952253E+03  0.00000000000E+00 0.  1.
        -11    1    5    5    0    0 -0.13182439576E+03 -0.31303139263E+02  0.23175551786E+03  0.26845516926E+03  0.00000000000E+00 0. -1.
          2    1    6    6  503    0  0.12291006835E+03 -0.98910060692E+02 -0.11536632858E+02  0.15818716416E+03  0.00000000000E+00 0. -1.
         -2    1    6    6    0  503  0.17699431484E+02 -0.30546632999E+02 -0.52769126336E+02  0.63489742137E+02  0.00000000000E+00 0.  1.
<mgrwt>
<rscale>  0 0.15501189E+04</rscale>
<asrwt>0</asrwt>
<pdfrwt beam="1">  1        2 0.37757685E+00 0.15501189E+04</pdfrwt>
<pdfrwt beam="2">  1       -1 0.37656329E-01 0.15501189E+04</pdfrwt>
<totfact> 0.27639201E+01</totfact>
</mgrwt>
</event>
<event>
12    6  0.9491186E-008  0.1146079E+04  0.7818608E-02  0.9161408E-01
         -1   -1    0    0    0  501 -0.00000000000E+00  0.00000000000E+00  0.24123013289E+03  0.24123013289E+03  0.00000000000E+00 0.  1.
          2   -1    0    0  501    0  0.00000000000E+00 -0.00000000000E+00 -0.13612492665E+04  0.13612492665E+04  0.00000000000E+00 0. -1.
         24    2    1    2    0    0 -0.70120513423E+01  0.55939810895E+01 -0.54575086538E+03  0.55164541356E+03  0.79926176902E+02 0.  0.
        254    2    1    2    0    0  0.70120513423E+01 -0.55939810895E+01 -0.57426826826E+03  0.10508339859E+04  0.87999293204E+03 0.  0.
         23    2    4    4    0    0 -0.23627138206E+03 -0.15253872531E+03 -0.67434437676E+03  0.73620548032E+03  0.90365602363E+02 0.  0.
         23    2    4    4    0    0  0.24328343340E+03  0.14694474422E+03  0.10007610849E+03  0.31462850555E+03  0.90533320887E+02 0.  0.
          4    1    3    3  502    0 -0.20760779298E+02 -0.73579966700E+01 -0.51557550369E+03  0.51604578293E+03  0.00000000000E+00 0. -1.
         -1    1    3    3    0  502  0.13748727956E+02  0.12951977760E+02 -0.30175361690E+02  0.35599630636E+02  0.00000000000E+00 0.  1.
         11    1    5    5    0    0 -0.19904840530E+03 -0.91152376318E+02 -0.44588000985E+03  0.49672729595E+03  0.00000000000E+00 0. -1.
        -11    1    5    5    0    0 -0.37222976757E+02 -0.61386348995E+02 -0.22846436691E+03  0.23947818437E+03  0.00000000000E+00 0.  1.
          1    1    6    6  503    0  0.20735836387E+03  0.93573082083E+02  0.49559327733E+02  0.23282942194E+03  0.00000000000E+00 0. -1.
         -1    1    6    6    0  503  0.35925069532E+02  0.53371662140E+02  0.50516780761E+02  0.81799083607E+02  0.00000000000E+00 0.  1.
<mgrwt>
<rscale>  0 0.11460791E+04</rscale>
<asrwt>0</asrwt>
<pdfrwt beam="1">  1        2 0.20942296E+00 0.11460791E+04</pdfrwt>
<pdfrwt beam="2">  1       -1 0.37112328E-01 0.11460791E+04</pdfrwt>
<totfact> 0.11990737E+02</totfact>
</mgrwt>
</event>
<event>
12    6  0.9491186E-008  0.1243014E+04  0.7818608E-02  0.9076018E-01
         -1   -1    0    0    0  501 -0.00000000000E+00  0.00000000000E+00  0.36893145664E+03  0.36893145664E+03  0.00000000000E+00 0.  1.
          2   -1    0    0  501    0  0.00000000000E+00 -0.00000000000E+00 -0.10469984996E+04  0.10469984996E+04  0.00000000000E+00 0. -1.
         24    2    1    2    0    0  0.22197732273E+03 -0.11935948417E+03 -0.30071885704E+03  0.40030679553E+03  0.79328943671E+02 0.  0.
        254    2    1    2    0    0 -0.22197732273E+03  0.11935948417E+03 -0.37734818589E+03  0.10156231607E+04  0.90861330215E+03 0.  0.
         23    2    4    4    0    0 -0.47249728218E+03  0.33852992819E+03 -0.16617335024E+03  0.61137687534E+03  0.91169662858E+02 0.  0.
         23    2    4    4    0    0  0.25051995945E+03 -0.21917044402E+03 -0.21117483565E+03  0.40424628534E+03  0.89578537508E+02 0.  0.
          2    1    3    3  502    0  0.18642975210E+03 -0.12966438467E+03 -0.26273076049E+03  0.34726986283E+03  0.00000000000E+00 0. -1.
         -1    1    3    3    0  502  0.35547570629E+02  0.10304900492E+02 -0.37988096546E+02  0.53036932707E+02  0.00000000000E+00 0.  1.
         11    1    5    5    0    0 -0.37263097480E+03  0.21766686954E+03 -0.11916340152E+03  0.44769702449E+03  0.00000000000E+00 0. -1.
        -11    1    5    5    0    0 -0.99866307374E+02  0.12086305865E+03 -0.47009948720E+02  0.16367985085E+03  0.00000000000E+00 0.  1.
          3    1    6    6  503    0  0.90983755251E+02 -0.27196354578E+02 -0.63198966232E+02  0.11406925420E+03  0.00000000000E+00 0. -1.
         -3    1    6    6    0  503  0.15953620420E+03 -0.19197408944E+03 -0.14797586942E+03  0.29017703113E+03  0.00000000000E+00 0.  1.
<mgrwt>
<rscale>  0 0.12430136E+04</rscale>
<asrwt>0</asrwt>
<pdfrwt beam="1">  1        2 0.16107669E+00 0.12430136E+04</pdfrwt>
<pdfrwt beam="2">  1       -1 0.56758687E-01 0.12430136E+04</pdfrwt>
<totfact> 0.82900240E+01</totfact>
</mgrwt>
</event>
<event>
12    6  0.9491186E-008  0.3336664E+04  0.7818608E-02  0.8153628E-01
          2   -1    0    0  501    0  0.00000000000E+00  0.00000000000E+00  0.37658871127E+04  0.37658871127E+04  0.00000000000E+00 0. -1.
         -1   -1    0    0    0  501 -0.00000000000E+00 -0.00000000000E+00 -0.73909053550E+03  0.73909053550E+03  0.00000000000E+00 0.  1.
         24    2    1    2    0    0 -0.26310461705E+03  0.15121711096E+04  0.11437963105E+04  0.19159216410E+04  0.81241802279E+02 0.  0.
        254    2    1    2    0    0  0.26310461705E+03 -0.15121711096E+04  0.18830002667E+04  0.25890560071E+04  0.89534099631E+03 0.  0.
         23    2    4    4    0    0 -0.26991268768E+03 -0.45318380013E+03  0.31468573663E+03  0.62104007392E+03  0.91843589322E+02 0.  0.
         23    2    4    4    0    0  0.53301730473E+03 -0.10589873095E+04  0.15683145300E+04  0.19680159332E+04  0.88964484927E+02 0.  0.
          4    1    3    3  502    0 -0.11914759666E+03  0.80760392441E+03  0.56485075943E+03  0.99271175521E+03  0.00000000000E+00 0. -1.
         -3    1    3    3    0  502 -0.14395702039E+03  0.70456718519E+03  0.57894555108E+03  0.92320988582E+03  0.00000000000E+00 0.  1.
         11    1    5    5    0    0 -0.10122400492E+02 -0.79570308145E+02  0.52283326604E+02  0.95746765851E+02  0.00000000000E+00 0. -1.
        -11    1    5    5    0    0 -0.25979028719E+03 -0.37361349199E+03  0.26240241002E+03  0.52529330806E+03  0.00000000000E+00 0.  1.
          1    1    6    6  503    0  0.19780182052E+03 -0.35923867474E+03  0.60887594687E+03  0.73410346975E+03  0.00000000000E+00 0. -1.
         -1    1    6    6    0  503  0.33521548421E+03 -0.69974863471E+03  0.95943858316E+03  0.12339124635E+04  0.00000000000E+00 0.  1.
<mgrwt>
<rscale>  0 0.33366639E+04</rscale>
<asrwt>0</asrwt>
<pdfrwt beam="1">  1        2 0.57936724E+00 0.33366639E+04</pdfrwt>
<pdfrwt beam="2">  1       -1 0.11370624E+00 0.33366639E+04</pdfrwt>
<totfact> 0.34688404E-01</totfact>
</mgrwt>
</event>
<event>
12    6  0.9491186E-008  0.1424053E+04  0.7818608E-02  0.8936590E-01
          2   -1    0    0  501    0  0.00000000000E+00  0.00000000000E+00  0.64894628257E+03  0.64894628257E+03  0.00000000000E+00 0. -1.
         -1   -1    0    0    0  501 -0.00000000000E+00 -0.00000000000E+00 -0.78123784782E+03  0.78123784782E+03  0.00000000000E+00 0.  1.
         24    2    1    2    0    0 -0.11256834996E+02  0.24209473402E+03  0.30416875568E+03  0.39708789339E+03  0.80147280512E+02 0.  0.
        254    2    1    2    0    0  0.11256834996E+02 -0.24209473402E+03 -0.43646032094E+03  0.10330962370E+04  0.90446318143E+03 0.  0.
         23    2    4    4    0    0 -0.39499786281E+03 -0.98225994270E+01 -0.37465953722E+03  0.55231780352E+03  0.92549403948E+02 0.  0.
         23    2    4    4    0    0  0.40625469780E+03 -0.23227213459E+03 -0.61800783716E+02  0.48077843348E+03  0.91298089973E+02 0.  0.
          4    1    3    3  502    0 -0.97247928858E+01  0.14797601423E+03  0.12197442243E+03  0.19201362481E+03  0.00000000000E+00 0. -1.
         -3    1    3    3    0  502 -0.15320421100E+01  0.94118719786E+02  0.18219433325E+03  0.20507426858E+03  0.00000000000E+00 0.  1.
         11    1    5    5    0    0 -0.13882573206E+00  0.10434322145E+02 -0.94747562953E+01  0.14094869920E+02  0.00000000000E+00 0. -1.
        -11    1    5    5    0    0 -0.39485903707E+03 -0.20256921572E+02 -0.36518478093E+03  0.53822293360E+03  0.00000000000E+00 0.  1.
          4    1    6    6  503    0  0.56979623016E+02 -0.51528763007E+02  0.19349782532E+02  0.79223133869E+02  0.00000000000E+00 0. -1.
         -4    1    6    6    0  503  0.34927507479E+03 -0.18074337159E+03 -0.81150566249E+02  0.40155529961E+03  0.00000000000E+00 0.  1.
<mgrwt>
<rscale>  0 0.14240525E+04</rscale>
<asrwt>0</asrwt>
<pdfrwt beam="1">  1        2 0.99837889E-01 0.14240525E+04</pdfrwt>
<pdfrwt beam="2">  1       -1 0.12019044E+00 0.14240525E+04</pdfrwt>
<totfact> 0.30851110E+01</totfact>
</mgrwt>
</event>
<event>
12    6  0.9491186E-008  0.1782111E+04  0.7818608E-02  0.8715871E-01
          2   -1    0    0  501    0  0.00000000000E+00  0.00000000000E+00  0.11037305425E+04  0.11037305425E+04  0.00000000000E+00 0. -1.
         -1   -1    0    0    0  501 -0.00000000000E+00 -0.00000000000E+00 -0.71935997335E+03  0.71935997335E+03  0.00000000000E+00 0.  1.
         24    2    1    2    0    0  0.15307314531E+02 -0.52559846123E+03 -0.25571069774E+03  0.59031861582E+03  0.81240697403E+02 0.  0.
        254    2    1    2    0    0 -0.15307314531E+02  0.52559846123E+03  0.64008126688E+03  0.12327719000E+04  0.91298109123E+03 0.  0.
         23    2    4    4    0    0 -0.25722145958E+03 -0.13480511163E+03  0.45120244947E+02  0.30707942464E+03  0.89031674939E+02 0.  0.
         23    2    4    4    0    0  0.24191414505E+03  0.66040357286E+03  0.59496102193E+03  0.92569247538E+03  0.90953882441E+02 0.  0.
          4    1    3    3  502    0  0.62244390988E+01 -0.39735553561E+02  0.19888010812E+01  0.40269258606E+02  0.00000000000E+00 0. -1.
         -3    1    3    3    0  502  0.90828754326E+01 -0.48586290767E+03 -0.25769949882E+03  0.55004935721E+03  0.00000000000E+00 0.  1.
         11    1    5    5    0    0 -0.24636491981E+03 -0.14143666183E+03  0.56924635406E+02  0.28972472649E+03  0.00000000000E+00 0.  1.
        -11    1    5    5    0    0 -0.10856539772E+02  0.66315501992E+01 -0.11804390459E+02  0.17354698152E+02  0.00000000000E+00 0. -1.
          2    1    6    6  503    0  0.12418612736E+03  0.45582087719E+03  0.37714696505E+03  0.60451195154E+03  0.00000000000E+00 0. -1.
         -2    1    6    6    0  503  0.11772801768E+03  0.20458269568E+03  0.21781405688E+03  0.32118052384E+03  0.00000000000E+00 0.  1.
<mgrwt>
<rscale>  0 0.17821106E+04</rscale>
<asrwt>0</asrwt>
<pdfrwt beam="1">  1        2 0.16980470E+00 0.17821106E+04</pdfrwt>
<pdfrwt beam="2">  1       -1 0.11067077E+00 0.17821106E+04</pdfrwt>
<totfact> 0.17580871E+01</totfact>
</mgrwt>
</event>
<event>
12    6  0.9491186E-008  0.2043169E+04  0.7818608E-02  0.8586699E-01
          2   -1    0    0  501    0  0.00000000000E+00  0.00000000000E+00  0.10840325456E+04  0.10840325456E+04  0.00000000000E+00 0. -1.
         -1   -1    0    0    0  501 -0.00000000000E+00 -0.00000000000E+00 -0.96273410070E+03  0.96273410070E+03  0.00000000000E+00 0.  1.
         24    2    1    2    0    0  0.40602165059E+03  0.24521218618E+03 -0.62371213983E+03  0.78751680602E+03  0.78633894648E+02 0.  0.
        254    2    1    2    0    0 -0.40602165059E+03 -0.24521218618E+03  0.74501058476E+03  0.12592498403E+04  0.89760057482E+03 0.  0.
         23    2    4    4    0    0  0.24482886121E+03 -0.22907653578E+03  0.17414142960E+03  0.38865039448E+03  0.91140885985E+02 0.  0.
         23    2    4    4    0    0 -0.65085051180E+03 -0.16135650406E+02  0.57086915516E+03  0.87059944583E+03  0.90471292900E+02 0.  0.
          2    1    3    3  502    0  0.95742436352E+02  0.96374992801E+02 -0.15629007659E+03  0.20707810458E+03  0.00000000000E+00 0. -1.
         -1    1    3    3    0  502  0.31027921424E+03  0.14883719338E+03 -0.46742206324E+03  0.58043870144E+03  0.00000000000E+00 0.  1.
         11    1    5    5    0    0  0.21570466674E+03 -0.21128731478E+03  0.18341276356E+03  0.35328610853E+03  0.00000000000E+00 0. -1.
        -11    1    5    5    0    0  0.29124194476E+02 -0.17789220994E+02 -0.92713339609E+01  0.35364285951E+02  0.00000000000E+00 0.  1.
          1    1    6    6  503    0 -0.51131705052E+03 -0.22369069218E+02  0.39792530649E+03  0.64829781039E+03  0.00000000000E+00 0. -1.
         -1    1    6    6    0  503 -0.13953346129E+03  0.62334188117E+01  0.17294384867E+03  0.22230163544E+03  0.00000000000E+00 0.  1.
<mgrwt>
<rscale>  0 0.20431692E+04</rscale>
<asrwt>0</asrwt>
<pdfrwt beam="1">  1        2 0.16677424E+00 0.20431692E+04</pdfrwt>
<pdfrwt beam="2">  1       -1 0.14811294E+00 0.20431692E+04</pdfrwt>
<totfact> 0.84958423E+00</totfact>
</mgrwt>
</event>
<event>
12    6  0.9491186E-008  0.2510887E+04  0.7818608E-02  0.8399117E-01
         -1   -1    0    0    0  501 -0.00000000000E+00  0.00000000000E+00  0.94762756960E+03  0.94762756960E+03  0.00000000000E+00 0.  1.
          2   -1    0    0  501    0  0.00000000000E+00 -0.00000000000E+00 -0.16632462477E+04  0.16632462477E+04  0.00000000000E+00 0. -1.
         24    2    1    2    0    0  0.10339135039E+04  0.35825393771E+03 -0.39652373185E+03  0.11666027747E+04  0.80049651614E+02 0.  0.
        254    2    1    2    0    0 -0.10339135039E+04 -0.35825393771E+03 -0.31909494625E+03  0.14442710426E+04  0.88700295509E+03 0.  0.
         23    2    4    4    0    0 -0.10112423990E+04  0.23165378063E+02 -0.21848693220E+03  0.10385499876E+04  0.87759403915E+02 0.  0.
         23    2    4    4    0    0 -0.22671104847E+02 -0.38141931577E+03 -0.10060801405E+03  0.40572105493E+03  0.92157085919E+02 0.  0.
          4    1    3    3  502    0  0.79154427384E+03  0.29933486099E+03 -0.28067399957E+03  0.89158375405E+03  0.00000000000E+00 0. -1.
         -3    1    3    3    0  502  0.24236923002E+03  0.58919076719E+02 -0.11584973229E+03  0.27501902067E+03  0.00000000000E+00 0.  1.
         11    1    5    5    0    0 -0.98246874405E+03  0.74383880396E+01 -0.21256527219E+03  0.10052284107E+04  0.00000000000E+00 0. -1.
        -11    1    5    5    0    0 -0.28773654968E+02  0.15726990024E+02 -0.59216600110E+01  0.33321576984E+02  0.00000000000E+00 0.  1.
          3    1    6    6  503    0 -0.11501926956E+01 -0.18547758624E+03 -0.95295701833E+02  0.20852944331E+03  0.00000000000E+00 0. -1.
         -3    1    6    6    0  503 -0.21520912151E+02 -0.19594172953E+03 -0.53123122187E+01  0.19719161162E+03  0.00000000000E+00 0.  1.
<mgrwt>
<rscale>  0 0.25108867E+04</rscale>
<asrwt>0</asrwt>
<pdfrwt beam="1">  1        2 0.25588404E+00 0.25108867E+04</pdfrwt>
<pdfrwt beam="2">  1       -1 0.14578886E+00 0.25108867E+04</pdfrwt>
<totfact> 0.39281519E+00</totfact>
</mgrwt>
</event>
<event>
12    6  0.9491186E-008  0.2844433E+04  0.7818608E-02  0.8289605E-01
          2   -1    0    0  501    0  0.00000000000E+00  0.00000000000E+00  0.20722013733E+04  0.20722013733E+04  0.00000000000E+00 0. -1.
         -1   -1    0    0    0  501 -0.00000000000E+00 -0.00000000000E+00 -0.97611130416E+03  0.97611130416E+03  0.00000000000E+00 0.  1.
         24    2    1    2    0    0  0.53169335358E+03 -0.68765454993E+03 -0.51458284541E+03  0.10132738405E+04  0.79760697472E+02 0.  0.
        254    2    1    2    0    0 -0.53169335358E+03  0.68765454993E+03  0.16106729146E+04  0.20350388369E+04  0.88969052363E+03 0.  0.
         23    2    4    4    0    0  0.23025264673E+03  0.22369451953E+03  0.57999017013E+03  0.66885764221E+03  0.89030493048E+02 0.  0.
         23    2    4    4    0    0 -0.76194600032E+03  0.46396003040E+03  0.10306827444E+04  0.13661811947E+04  0.91233326973E+02 0.  0.
          4    1    3    3  502    0  0.42792181999E+02 -0.47798508428E+02 -0.15860875315E+02  0.66086576654E+02  0.00000000000E+00 0. -1.
         -3    1    3    3    0  502  0.48890117159E+03 -0.63985604150E+03 -0.49872197009E+03  0.94718726389E+03  0.00000000000E+00 0.  1.
         11    1    5    5    0    0 -0.68301030095E+01  0.58529458740E+00  0.19619292565E+02  0.20782432909E+02  0.00000000000E+00 0. -1.
        -11    1    5    5    0    0  0.23708274974E+03  0.22310922494E+03  0.56037087757E+03  0.64807520930E+03  0.00000000000E+00 0.  1.
          2    1    6    6  503    0 -0.51220812886E+03  0.30962906310E+03  0.75496896326E+03  0.96343420090E+03  0.00000000000E+00 0. -1.
         -2    1    6    6    0  503 -0.24973787145E+03  0.15433096729E+03  0.27571378119E+03  0.40274699384E+03  0.00000000000E+00 0.  1.
<mgrwt>
<rscale>  0 0.28444326E+04</rscale>
<asrwt>0</asrwt>
<pdfrwt beam="1">  1        2 0.31880021E+00 0.28444326E+04</pdfrwt>
<pdfrwt beam="2">  1       -1 0.15017097E+00 0.28444326E+04</pdfrwt>
<totfact> 0.20888607E+00</totfact>
</mgrwt>
</event>
<event>
12    6  0.9491186E-008  0.2726557E+04  0.7818608E-02  0.8326439E-01
          2   -1    0    0  501    0  0.00000000000E+00  0.00000000000E+00  0.13921740170E+04  0.13921740170E+04  0.00000000000E+00 0. -1.
         -1   -1    0    0    0  501 -0.00000000000E+00 -0.00000000000E+00 -0.13349826768E+04  0.13349826768E+04  0.00000000000E+00 0.  1.
         24    2    1    2    0    0  0.70185367856E+03  0.92040574686E+03  0.40641872993E+03  0.12293364243E+04  0.79665144017E+02 0.  0.
        254    2    1    2    0    0 -0.70185367856E+03 -0.92040574686E+03 -0.34922738970E+03  0.14978202694E+04  0.88417219188E+03 0.  0.
         23    2    4    4    0    0 -0.72873503093E+03 -0.79746465724E+03 -0.57276709825E+03  0.12263455789E+04  0.94110069908E+02 0.  0.
         23    2    4    4    0    0  0.26881352374E+02 -0.12294108961E+03  0.22353970856E+03  0.27147469052E+03  0.88833482819E+02 0.  0.
          2    1    3    3  502    0  0.64353218225E+03  0.87187556177E+03  0.39010521240E+03  0.11517303250E+04  0.00000000000E+00 0. -1.
         -1    1    3    3    0  502  0.58321496308E+02  0.48530185085E+02  0.16313517530E+02  0.77606099311E+02  0.00000000000E+00 0.  1.
         11    1    5    5    0    0 -0.64495798365E+03 -0.71502727539E+03 -0.54141245218E+03  0.11047000718E+04  0.00000000000E+00 0. -1.
        -11    1    5    5    0    0 -0.83777047287E+02 -0.82437381855E+02 -0.31354646077E+02  0.12164550715E+03  0.00000000000E+00 0.  1.
          3    1    6    6  503    0  0.93925210572E+01 -0.52515427753E+02  0.17795560749E+03  0.18578021380E+03  0.00000000000E+00 0. -1.
         -3    1    6    6    0  503  0.17488831316E+02 -0.70425661860E+02  0.45584101065E+02  0.85694476713E+02  0.00000000000E+00 0.  1.
<mgrwt>
<rscale>  0 0.27265569E+04</rscale>
<asrwt>0</asrwt>
<pdfrwt beam="1">  1        2 0.21418062E+00 0.27265569E+04</pdfrwt>
<pdfrwt beam="2">  1       -1 0.20538195E+00 0.27265569E+04</pdfrwt>
<totfact> 0.20151428E+00</totfact>
</mgrwt>
</event>
<event>
12    6  0.9491186E-008  0.1299610E+04  0.7818608E-02  0.9029875E-01
         -1   -1    0    0    0  501 -0.00000000000E+00  0.00000000000E+00  0.53768729051E+03  0.53768729051E+03  0.00000000000E+00 0.  1.
          2   -1    0    0  501    0  0.00000000000E+00 -0.00000000000E+00 -0.78530103687E+03  0.78530103687E+03  0.00000000000E+00 0. -1.
         24    2    1    2    0    0 -0.13183015089E+03 -0.28130293536E+03 -0.15513006168E+03  0.35641318721E+03  0.80339864674E+02 0.  0.
        254    2    1    2    0    0  0.13183015089E+03  0.28130293536E+03 -0.92483684688E+02  0.96657514017E+03  0.91060624835E+03 0.  0.
         23    2    4    4    0    0  0.15878545312E+03  0.60097581461E+03 -0.53672366980E+02  0.63067960962E+03  0.92148234631E+02 0.  0.
         23    2    4    4    0    0 -0.26955302234E+02 -0.31967287924E+03 -0.38811317708E+02  0.33589553055E+03  0.91663247903E+02 0.  0.
          2    1    3    3  502    0 -0.13071325226E+03 -0.28076664425E+03 -0.16194380890E+03  0.34948771092E+03  0.00000000000E+00 0. -1.
         -1    1    3    3    0  502 -0.11168986240E+01 -0.53629111493E+00  0.68137472241E+01  0.69254762963E+01  0.00000000000E+00 0.  1.
         11    1    5    5    0    0  0.16362283145E+03  0.56769724120E+03 -0.66818142288E+02  0.59457316857E+03  0.00000000000E+00 0.  1.
        -11    1    5    5    0    0 -0.48373783297E+01  0.33278573407E+02  0.13145775308E+02  0.36106441054E+02  0.00000000000E+00 0. -1.
          3    1    6    6  503    0  0.32713978572E+02 -0.14488835127E+03 -0.89205650837E+01  0.14880327687E+03  0.00000000000E+00 0. -1.
         -3    1    6    6    0  503 -0.59669280805E+02 -0.17478452798E+03 -0.29890752624E+02  0.18709225367E+03  0.00000000000E+00 0.  1.
<mgrwt>
<rscale>  0 0.12996098E+04</rscale>
<asrwt>0</asrwt>
<pdfrwt beam="1">  1        2 0.12081554E+00 0.12996098E+04</pdfrwt>
<pdfrwt beam="2">  1       -1 0.82721122E-01 0.12996098E+04</pdfrwt>
<totfact> 0.57395800E+01</totfact>
</mgrwt>
</event>
<event>
12    6  0.9491186E-008  0.1386764E+04  0.7818608E-02  0.8963456E-01
         -1   -1    0    0    0  501 -0.00000000000E+00  0.00000000000E+00  0.10897073477E+03  0.10897073477E+03  0.00000000000E+00 0.  1.
          2   -1    0    0  501    0  0.00000000000E+00 -0.00000000000E+00 -0.44119958074E+04  0.44119958074E+04  0.00000000000E+00 0. -1.
         24    2    1    2    0    0 -0.33246663453E+03  0.91524711579E+02 -0.18788853266E+04  0.19119018386E+04  0.79042608704E+02 0.  0.
        254    2    1    2    0    0  0.33246663453E+03 -0.91524711579E+02 -0.24241397460E+04  0.26090647035E+04  0.90102956848E+03 0.  0.
         23    2    4    4    0    0  0.54995427398E+03 -0.16145718480E+03 -0.22031906424E+04  0.22782904794E+04  0.89668140473E+02 0.  0.
         23    2    4    4    0    0 -0.21748763945E+03  0.69932473223E+02 -0.22094910355E+03  0.33077422418E+03  0.91660552570E+02 0.  0.
          2    1    3    3  502    0 -0.28729325030E+03  0.10557302017E+03 -0.15951036774E+04  0.16242040561E+04  0.00000000000E+00 0. -1.
         -1    1    3    3    0  502 -0.45173384227E+02 -0.14048308592E+02 -0.28378164925E+03  0.28769778252E+03  0.00000000000E+00 0.  1.
         11    1    5    5    0    0  0.26489582250E+02 -0.18249725379E+01 -0.49679709239E+02  0.56330293826E+02  0.00000000000E+00 0.  1.
        -11    1    5    5    0    0  0.52346469173E+03 -0.15963221226E+03 -0.21535109332E+04  0.22219601855E+04  0.00000000000E+00 0. -1.
          3    1    6    6  503    0 -0.13297987695E+03  0.79762126499E+02 -0.17594926052E+03  0.23452886129E+03  0.00000000000E+00 0. -1.
         -3    1    6    6    0  503 -0.84507762499E+02 -0.98296532765E+01 -0.44999843027E+02  0.96245362894E+02  0.00000000000E+00 0.  1.
<mgrwt>
<rscale>  0 0.13867638E+04</rscale>
<asrwt>0</asrwt>
<pdfrwt beam="1">  1        2 0.67876847E+00 0.13867638E+04</pdfrwt>
<pdfrwt beam="2">  1       -1 0.16764731E-01 0.13867638E+04</pdfrwt>
<totfact> 0.47355237E+00</totfact>
</mgrwt>
</event>
<event>
12    6  0.9491186E-008  0.2495743E+04  0.7818608E-02  0.8404504E-01
         -1   -1    0    0    0  501 -0.00000000000E+00  0.00000000000E+00  0.11347167999E+04  0.11347167999E+04  0.00000000000E+00 0.  1.
          2   -1    0    0  501    0  0.00000000000E+00 -0.00000000000E+00 -0.13723104911E+04  0.13723104911E+04  0.00000000000E+00 0. -1.
         24    2    1    2    0    0 -0.55349904234E+03  0.14524677968E+03  0.80860647442E+03  0.99406270812E+03  0.82815580239E+02 0.  0.
        254    2    1    2    0    0  0.55349904234E+03 -0.14524677968E+03 -0.10462001656E+04  0.15129645829E+04  0.93116552000E+03 0.  0.
         23    2    4    4    0    0  0.83191294758E+02  0.26988928319E+03 -0.84385824241E+01  0.29691963476E+03  0.91263591483E+02 0.  0.
         23    2    4    4    0    0  0.47030774758E+03 -0.41513606287E+03 -0.10377615832E+04  0.12160449481E+04  0.91043309184E+02 0.  0.
          2    1    3    3  502    0 -0.55881565156E+02  0.12502477873E+02  0.13083455503E+03  0.14281716307E+03  0.00000000000E+00 0. -1.
         -1    1    3    3    0  502 -0.49761747718E+03  0.13274430181E+03  0.67777191938E+03  0.85124554505E+03  0.00000000000E+00 0.  1.
         11    1    5    5    0    0  0.15380871210E+02  0.19413459638E+03  0.16428290077E+01  0.19474986932E+03  0.00000000000E+00 0.  1.
        -11    1    5    5    0    0  0.67810423548E+02  0.75754686809E+02 -0.10081411432E+02  0.10216976545E+03  0.00000000000E+00 0. -1.
          4    1    6    6  503    0  0.16254359701E+03 -0.19408912841E+03 -0.37126113039E+03  0.44936158896E+03  0.00000000000E+00 0. -1.
         -4    1    6    6    0  503  0.30776415057E+03 -0.22104693446E+03 -0.66650045284E+03  0.76668335918E+03  0.00000000000E+00 0.  1.
<mgrwt>
<rscale>  0 0.24957434E+04</rscale>
<asrwt>0</asrwt>
<pdfrwt beam="1">  1        2 0.21112469E+00 0.24957434E+04</pdfrwt>
<pdfrwt beam="2">  1       -1 0.17457182E+00 0.24957434E+04</pdfrwt>
<totfact> 0.34761341E+00</totfact>
</mgrwt>
</event>
<event>
12    6  0.9491186E-008  0.1349690E+04  0.7818608E-02  0.8991063E-01
         -1   -1    0    0    0  501 -0.00000000000E+00  0.00000000000E+00  0.52297052135E+03  0.52297052135E+03  0.00000000000E+00 0.  1.
          2   -1    0    0  501    0  0.00000000000E+00 -0.00000000000E+00 -0.87082543747E+03  0.87082543747E+03  0.00000000000E+00 0. -1.
         24    2    1    2    0    0  0.12235070391E+01  0.24821537492E+03 -0.38149567528E+03  0.46184914154E+03  0.78443036444E+02 0.  0.
        254    2    1    2    0    0 -0.12235070391E+01 -0.24821537492E+03  0.33640759158E+02  0.93194681729E+03  0.89765293976E+03 0.  0.
         23    2    4    4    0    0  0.26549248872E+03  0.21633058869E+03 -0.10692761762E+03  0.37044001817E+03  0.92233976841E+02 0.  0.
         23    2    4    4    0    0 -0.26671599576E+03 -0.46454596361E+03  0.14056837678E+03  0.56150679912E+03  0.92682480584E+02 0.  0.
          4    1    3    3  502    0  0.10910564399E+02  0.16478476369E+03 -0.18404256471E+03  0.24727459309E+03  0.00000000000E+00 0. -1.
         -3    1    3    3    0  502 -0.96870573599E+01  0.83430611225E+02 -0.19745311056E+03  0.21457454845E+03  0.00000000000E+00 0.  1.
         11    1    5    5    0    0  0.55355898233E+02  0.15708133039E+02 -0.45816728989E+02  0.73554018027E+02  0.00000000000E+00 0. -1.
        -11    1    5    5    0    0  0.21013659049E+03  0.20062245565E+03 -0.61110888636E+02  0.29688600014E+03  0.00000000000E+00 0.  1.
          1    1    6    6  503    0 -0.11926592522E+02 -0.46481594247E+01 -0.80797138268E+01  0.15137066121E+02  0.00000000000E+00 0. -1.
         -1    1    6    6    0  503 -0.25478940324E+03 -0.45989780418E+03  0.14864809061E+03  0.54636973300E+03  0.00000000000E+00 0.  1.
<mgrwt>
<rscale>  0 0.13496904E+04</rscale>
<asrwt>0</asrwt>
<pdfrwt beam="1">  1        2 0.13397314E+00 0.13496904E+04</pdfrwt>
<pdfrwt beam="2">  1       -1 0.80457003E-01 0.13496904E+04</pdfrwt>
<totfact> 0.52763915E+01</totfact>
</mgrwt>
</event>
<event>
12    6  0.9491186E-008  0.1807170E+04  0.7818608E-02  0.8702496E-01
          2   -1    0    0  501    0  0.00000000000E+00  0.00000000000E+00  0.11002438735E+04  0.11002438735E+04  0.00000000000E+00 0. -1.
         -1   -1    0    0    0  501 -0.00000000000E+00 -0.00000000000E+00 -0.74207744229E+03  0.74207744229E+03  0.00000000000E+00 0.  1.
         24    2    1    2    0    0 -0.17689031422E+03 -0.40846381746E+03  0.65516856433E+03  0.79601616203E+03  0.79139175387E+02 0.  0.
        254    2    1    2    0    0  0.17689031422E+03  0.40846381746E+03 -0.29700213315E+03  0.10463051537E+04  0.89911697470E+03 0.  0.
         23    2    4    4    0    0  0.30317633477E+03  0.63983804812E+03 -0.14191635937E+03  0.72785945372E+03  0.91271646853E+02 0.  0.
         23    2    4    4    0    0 -0.12628602055E+03 -0.23137423066E+03 -0.15508577378E+03  0.31844570001E+03  0.88734846737E+02 0.  0.
          2    1    3    3  502    0 -0.18136803489E+03 -0.36544570080E+03  0.60596772661E+03  0.73050791235E+03  0.00000000000E+00 0. -1.
         -1    1    3    3    0  502  0.44777206660E+01 -0.43018116662E+02  0.49200837724E+02  0.65508249681E+02  0.00000000000E+00 0.  1.
         11    1    5    5    0    0  0.15771550202E+03  0.23322579446E+03 -0.42769728910E+02  0.28477657995E+03  0.00000000000E+00 0.  1.
        -11    1    5    5    0    0  0.14546083276E+03  0.40661225366E+03 -0.99146630456E+02  0.44308287376E+03  0.00000000000E+00 0. -1.
          3    1    6    6  503    0 -0.10035629133E+02 -0.10715075269E+03 -0.68199370079E+02  0.12740938636E+03  0.00000000000E+00 0. -1.
         -3    1    6    6    0  503 -0.11625039142E+03 -0.12422347797E+03 -0.86886403704E+02  0.19103631365E+03  0.00000000000E+00 0.  1.
<mgrwt>
<rscale>  0 0.18071703E+04</rscale>
<asrwt>0</asrwt>
<pdfrwt beam="1">  1        2 0.16926829E+00 0.18071703E+04</pdfrwt>
<pdfrwt beam="2">  1       -1 0.11416576E+00 0.18071703E+04</pdfrwt>
<totfact> 0.16372816E+01</totfact>
</mgrwt>
</event>
<event>
12    6  0.9491186E-008  0.2156632E+04  0.7818608E-02  0.8536699E-01
          2   -1    0    0  501    0  0.00000000000E+00  0.00000000000E+00  0.11935612205E+04  0.11935612205E+04  0.00000000000E+00 0. -1.
         -1   -1    0    0    0  501 -0.00000000000E+00 -0.00000000000E+00 -0.97419815733E+03  0.97419815733E+03  0.00000000000E+00 0.  1.
         24    2    1    2    0    0 -0.44697313943E+02  0.78764469964E+03 -0.34362502315E+03  0.86415322586E+03  0.79376435353E+02 0.  0.
        254    2    1    2    0    0  0.44697313943E+02 -0.78764469964E+03  0.56298808635E+03  0.13036061520E+04  0.87180926319E+03 0.  0.
         23    2    4    4    0    0 -0.31569809997E+03 -0.38171141308E+03 -0.16862278053E+02  0.50439737000E+03  0.93613445891E+02 0.  0.
         23    2    4    4    0    0  0.36039541391E+03 -0.40593328656E+03  0.57985036441E+03  0.79920878199E+03  0.88552496277E+02 0.  0.
          2    1    3    3  502    0 -0.50174788720E+02  0.25183644928E+03 -0.12197294866E+03  0.28428244198E+03  0.00000000000E+00 0. -1.
         -1    1    3    3    0  502  0.54774747766E+01  0.53580825036E+03 -0.22165207449E+03  0.57987078389E+03  0.00000000000E+00 0.  1.
         11    1    5    5    0    0 -0.42832304820E+02 -0.65466407080E+02  0.30626280659E+02  0.84014438398E+02  0.00000000000E+00 0.  1.
        -11    1    5    5    0    0 -0.27286579515E+03 -0.31624500600E+03 -0.47488558712E+02  0.42038293161E+03  0.00000000000E+00 0. -1.
          1    1    6    6  503    0  0.17982792157E+03 -0.26747464224E+03  0.34935631656E+03  0.47532157698E+03  0.00000000000E+00 0. -1.
         -1    1    6    6    0  503  0.18056749234E+03 -0.13845864432E+03  0.23049404784E+03  0.32388720501E+03  0.00000000000E+00 0.  1.
<mgrwt>
<rscale>  0 0.21566318E+04</rscale>
<asrwt>0</asrwt>
<pdfrwt beam="1">  1        2 0.18362480E+00 0.21566318E+04</pdfrwt>
<pdfrwt beam="2">  1       -1 0.14987664E+00 0.21566318E+04</pdfrwt>
<totfact> 0.69884605E+00</totfact>
</mgrwt>
</event>
<event>
12    6  0.9491186E-008  0.2359396E+04  0.7818608E-02  0.8454863E-01
          2   -1    0    0  501    0  0.00000000000E+00  0.00000000000E+00  0.24321606665E+04  0.24321606665E+04  0.00000000000E+00 0. -1.
         -1   -1    0    0    0  501 -0.00000000000E+00 -0.00000000000E+00 -0.57220197911E+03  0.57220197911E+03  0.00000000000E+00 0.  1.
         24    2    1    2    0    0 -0.93266738595E+03 -0.72210482646E+02  0.12583344958E+04  0.15700138678E+04  0.80343233740E+02 0.  0.
        254    2    1    2    0    0  0.93266738595E+03  0.72210482646E+02  0.60162419158E+03  0.14343487778E+04  0.90571625900E+03 0.  0.
         23    2    4    4    0    0  0.93987406033E+03  0.30252102959E+03  0.28232129530E+03  0.10307021444E+04  0.88087309712E+02 0.  0.
         23    2    4    4    0    0 -0.72066743804E+01 -0.23031054695E+03  0.31930289628E+03  0.40364663335E+03  0.88777141486E+02 0.  0.
          4    1    3    3  502    0 -0.23258823520E+03  0.18527459943E+01  0.26635926893E+03  0.35362123800E+03  0.00000000000E+00 0. -1.
         -3    1    3    3    0  502 -0.70007915075E+03 -0.74063228640E+02  0.99197522690E+03  0.12163926298E+04  0.00000000000E+00 0.  1.
         11    1    5    5    0    0  0.61167725869E+03  0.21568436291E+03  0.14570676668E+03  0.66475504892E+03  0.00000000000E+00 0. -1.
        -11    1    5    5    0    0  0.32819680164E+03  0.86836666683E+02  0.13661452862E+03  0.36594709552E+03  0.00000000000E+00 0.  1.
          3    1    6    6  503    0  0.15531877766E+02 -0.30506375997E-01  0.20466903965E+02  0.25693079136E+02  0.00000000000E+00 0. -1.
         -3    1    6    6    0  503 -0.22738552147E+02 -0.23028004057E+03  0.29883599231E+03  0.37795355421E+03  0.00000000000E+00 0.  1.
<mgrwt>
<rscale>  0 0.23593958E+04</rscale>
<asrwt>0</asrwt>
<pdfrwt beam="1">  1        2 0.37417856E+00 0.23593958E+04</pdfrwt>
<pdfrwt beam="2">  1       -1 0.88031075E-01 0.23593958E+04</pdfrwt>
<totfact> 0.49591678E+00</totfact>
</mgrwt>
</event>
<event>
12    6  0.9491186E-008  0.1579377E+04  0.7818608E-02  0.8833319E-01
         -1   -1    0    0    0  501 -0.00000000000E+00  0.00000000000E+00  0.74492570003E+03  0.74492570003E+03  0.00000000000E+00 0.  1.
          2   -1    0    0  501    0  0.00000000000E+00 -0.00000000000E+00 -0.83714058853E+03  0.83714058853E+03  0.00000000000E+00 0. -1.
         24    2    1    2    0    0 -0.12160128776E+03  0.49198332958E+03  0.11554538605E+03  0.52522627655E+03  0.75348759597E+02 0.  0.
        254    2    1    2    0    0  0.12160128776E+03 -0.49198332958E+03 -0.20776027454E+03  0.10568400120E+04  0.90383184805E+03 0.  0.
         23    2    4    4    0    0  0.15532650668E+03 -0.63144488572E+03  0.13826589646E+03  0.67121113115E+03  0.92509226956E+02 0.  0.
         23    2    4    4    0    0 -0.33725218918E+02  0.13946155614E+03 -0.34602617100E+03  0.38562888087E+03  0.91589337330E+02 0.  0.
          2    1    3    3  502    0 -0.17820764464E+02  0.47805099931E+02 -0.10290651036E+02  0.52046178767E+02  0.00000000000E+00 0. -1.
         -1    1    3    3    0  502 -0.10378052330E+03  0.44417822965E+03  0.12583603708E+03  0.47318009778E+03  0.00000000000E+00 0.  1.
         11    1    5    5    0    0  0.52758734325E+02 -0.32962889817E+03  0.32720070739E+02  0.33542405636E+03  0.00000000000E+00 0. -1.
        -11    1    5    5    0    0  0.10256777235E+03 -0.30181598755E+03  0.10554582572E+03  0.33578707479E+03  0.00000000000E+00 0.  1.
          3    1    6    6  503    0 -0.51335129590E+02  0.37035148197E+02 -0.97487482122E+02  0.11623556643E+03  0.00000000000E+00 0. -1.
         -3    1    6    6    0  503  0.17609910672E+02  0.10242640795E+03 -0.24853868887E+03  0.26939331444E+03  0.00000000000E+00 0.  1.
<mgrwt>
<rscale>  0 0.15793765E+04</rscale>
<asrwt>0</asrwt>
<pdfrwt beam="1">  1        2 0.12879086E+00 0.15793765E+04</pdfrwt>
<pdfrwt beam="2">  1       -1 0.11460395E+00 0.15793765E+04</pdfrwt>
<totfact> 0.24596188E+01</totfact>
</mgrwt>
</event>
<event>
12    6  0.9491186E-008  0.2106756E+04  0.7818608E-02  0.8558273E-01
          2   -1    0    0  501    0  0.00000000000E+00  0.00000000000E+00  0.72988853503E+03  0.72988853503E+03  0.00000000000E+00 0. -1.
         -1   -1    0    0    0  501 -0.00000000000E+00 -0.00000000000E+00 -0.15202389900E+04  0.15202389900E+04  0.00000000000E+00 0.  1.
         24    2    1    2    0    0  0.30085698919E+03  0.62085603926E+03  0.21047460951E+03  0.72565231023E+03  0.79338292582E+02 0.  0.
        254    2    1    2    0    0 -0.30085698919E+03 -0.62085603926E+03 -0.10008250644E+04  0.15244752148E+04  0.91999821814E+03 0.  0.
         23    2    4    4    0    0  0.92246979961E+02 -0.52187636318E+03 -0.96737692519E+03  0.11070772726E+04  0.94538501745E+02 0.  0.
         23    2    4    4    0    0 -0.39310396915E+03 -0.98979676075E+02 -0.33448139254E+02  0.41739794218E+03  0.93672606915E+02 0.  0.
          4    1    3    3  502    0  0.18388895877E+03  0.44575238201E+03  0.16956075634E+03  0.51113714923E+03  0.00000000000E+00 0. -1.
         -3    1    3    3    0  502  0.11696803042E+03  0.17510365724E+03  0.40913853171E+02  0.21451516100E+03  0.00000000000E+00 0.  1.
         11    1    5    5    0    0  0.63446293495E+02 -0.27938026371E+03 -0.42852127287E+03  0.51546992658E+03  0.00000000000E+00 0. -1.
        -11    1    5    5    0    0  0.28800686466E+02 -0.24249609947E+03 -0.53885565232E+03  0.59160734599E+03  0.00000000000E+00 0.  1.
          4    1    6    6  503    0 -0.39109281124E+03 -0.89881893280E+02 -0.20984620498E+02  0.40183665343E+03  0.00000000000E+00 0. -1.
         -4    1    6    6    0  503 -0.20111579067E+01 -0.90977827955E+01 -0.12463518756E+02  0.15561288755E+02  0.00000000000E+00 0.  1.
<mgrwt>
<rscale>  0 0.21067558E+04</rscale>
<asrwt>0</asrwt>
<pdfrwt beam="1">  1        2 0.11229054E+00 0.21067558E+04</pdfrwt>
<pdfrwt beam="2">  1       -1 0.23388292E+00 0.21067558E+04</pdfrwt>
<totfact> 0.36320906E+00</totfact>
</mgrwt>
</event>
<event>
12    6  0.9491186E-008  0.2013458E+04  0.7818608E-02  0.8600354E-01
          2   -1    0    0  501    0  0.00000000000E+00  0.00000000000E+00  0.12015365534E+04  0.12015365534E+04  0.00000000000E+00 0. -1.
         -1   -1    0    0    0  501 -0.00000000000E+00 -0.00000000000E+00 -0.84350632389E+03  0.84350632389E+03  0.00000000000E+00 0.  1.
         24    2    1    2    0    0  0.23125845713E+03  0.47762472576E+03 -0.47391894970E+03  0.71610713464E+03  0.81267488787E+02 0.  0.
        254    2    1    2    0    0 -0.23125845713E+03 -0.47762472576E+03  0.83194917918E+03  0.13289357426E+04  0.89012634981E+03 0.  0.
         23    2    4    4    0    0 -0.13267094669E+03 -0.59712588122E+03  0.16799166202E+03  0.64105674262E+03  0.92583209234E+02 0.  0.
         23    2    4    4    0    0 -0.98587510445E+02  0.11950115546E+03  0.66395751717E+03  0.68787900000E+03  0.91312160576E+02 0.  0.
          4    1    3    3  502    0  0.11814054935E+03  0.26675828694E+03 -0.31215674868E+03  0.42726924626E+03  0.00000000000E+00 0. -1.
         -3    1    3    3    0  502  0.11311790778E+03  0.21086643883E+03 -0.16176220103E+03  0.28883788838E+03  0.00000000000E+00 0.  1.
         11    1    5    5    0    0 -0.72262342698E+02 -0.15390536848E+03  0.27790860140E+02  0.17228186361E+03  0.00000000000E+00 0.  1.
        -11    1    5    5    0    0 -0.60408603990E+02 -0.44322051274E+03  0.14020080188E+03  0.46877487902E+03  0.00000000000E+00 0. -1.
          2    1    6    6  503    0 -0.67700983323E+02  0.94166102960E+02  0.29840712907E+03  0.32015229621E+03  0.00000000000E+00 0. -1.
         -2    1    6    6    0  503 -0.30886527122E+02  0.25335052500E+02  0.36555038809E+03  0.36772670379E+03  0.00000000000E+00 0.  1.
<mgrwt>
<rscale>  0 0.20134584E+04</rscale>
<asrwt>0</asrwt>
<pdfrwt beam="1">  1        2 0.18485178E+00 0.20134584E+04</pdfrwt>
<pdfrwt beam="2">  1       -1 0.12977020E+00 0.20134584E+04</pdfrwt>
<totfact> 0.10188771E+01</totfact>
</mgrwt>
</event>
<event>
12    6  0.9491186E-008  0.1463613E+04  0.7818608E-02  0.8909017E-01
          2   -1    0    0  501    0  0.00000000000E+00  0.00000000000E+00  0.15609494557E+04  0.15609494557E+04  0.00000000000E+00 0. -1.
         -1   -1    0    0    0  501 -0.00000000000E+00 -0.00000000000E+00 -0.34308667855E+03  0.34308667855E+03  0.00000000000E+00 0.  1.
         24    2    1    2    0    0 -0.21293352891E+03 -0.10887049849E+03  0.86247006178E+03  0.89874698137E+03  0.81841651201E+02 0.  0.
        254    2    1    2    0    0  0.21293352891E+03  0.10887049849E+03  0.35539271540E+03  0.10052891529E+04  0.90945523565E+03 0.  0.
         23    2    4    4    0    0  0.49353440331E+03 -0.12440299005E+03  0.36013258682E+03  0.63040624744E+03  0.93081929161E+02 0.  0.
         23    2    4    4    0    0 -0.28060087440E+03  0.23327348854E+03 -0.47398714204E+01  0.37488290548E+03  0.85798340718E+02 0.  0.
          2    1    3    3  502    0 -0.14084946475E+03 -0.10956708307E+03  0.66515215439E+03  0.68867329402E+03  0.00000000000E+00 0. -1.
         -1    1    3    3    0  502 -0.72084064161E+02  0.69658458627E+00  0.19731790739E+03  0.21007368734E+03  0.00000000000E+00 0.  1.
         11    1    5    5    0    0  0.34366281610E+03 -0.12958687397E+03  0.24836175638E+03  0.44337394049E+03  0.00000000000E+00 0. -1.
        -11    1    5    5    0    0  0.14987158722E+03  0.51838839120E+01  0.11177083044E+03  0.18703230696E+03  0.00000000000E+00 0.  1.
          2    1    6    6  503    0 -0.22050706010E+03  0.20293293304E+03 -0.33769378368E+02  0.30157173239E+03  0.00000000000E+00 0. -1.
         -2    1    6    6    0  503 -0.60093814304E+02  0.30340555507E+02  0.29029506947E+02  0.73311173089E+02  0.00000000000E+00 0.  1.
<mgrwt>
<rscale>  0 0.14636133E+04</rscale>
<asrwt>0</asrwt>
<pdfrwt beam="1">  1        2 0.24014607E+00 0.14636133E+04</pdfrwt>
<pdfrwt beam="2">  1       -1 0.52782567E-01 0.14636133E+04</pdfrwt>
<totfact> 0.46838816E+01</totfact>
</mgrwt>
</event>
<event>
12    6  0.9491186E-008  0.2520150E+04  0.7818608E-02  0.8395842E-01
         -1   -1    0    0    0  501 -0.00000000000E+00  0.00000000000E+00  0.82925311000E+03  0.82925311000E+03  0.00000000000E+00 0.  1.
          2   -1    0    0  501    0  0.00000000000E+00 -0.00000000000E+00 -0.19147223286E+04  0.19147223286E+04  0.00000000000E+00 0. -1.
         24    2    1    2    0    0 -0.90391127827E+03 -0.55338552052E+03 -0.15066639314E+03  0.10734634824E+04  0.79576081709E+02 0.  0.
        254    2    1    2    0    0  0.90391127827E+03  0.55338552052E+03 -0.93480282550E+03  0.16705119562E+04  0.89076525526E+03 0.  0.
         23    2    4    4    0    0  0.54469119072E+03  0.74588344427E+03 -0.81849854571E+03  0.12372739583E+04  0.88748931544E+02 0.  0.
         23    2    4    4    0    0  0.35922008755E+03 -0.19249792375E+03 -0.11630427978E+03  0.43323799792E+03  0.89855191250E+02 0.  0.
          4    1    3    3  502    0 -0.33409539049E+02 -0.36810296426E+02 -0.16478348498E+02  0.52371091183E+02  0.00000000000E+00 0. -1.
         -3    1    3    3    0  502 -0.87050173922E+03 -0.51657522410E+03 -0.13418804464E+03  0.10210923912E+04  0.00000000000E+00 0.  1.
         11    1    5    5    0    0  0.45718590933E+03  0.59882888104E+03 -0.70591410874E+03  0.10324387214E+04  0.00000000000E+00 0. -1.
        -11    1    5    5    0    0  0.87505281389E+02  0.14705456323E+03 -0.11258443697E+03  0.20483523693E+03  0.00000000000E+00 0.  1.
          4    1    6    6  503    0  0.29720089084E+03 -0.12282083842E+03 -0.70056029430E+02  0.32912182414E+03  0.00000000000E+00 0. -1.
         -4    1    6    6    0  503  0.62019196708E+02 -0.69677085331E+02 -0.46248250354E+02  0.10411617377E+03  0.00000000000E+00 0.  1.
<mgrwt>
<rscale>  0 0.25201503E+04</rscale>
<asrwt>0</asrwt>
<pdfrwt beam="1">  1        2 0.29457266E+00 0.25201503E+04</pdfrwt>
<pdfrwt beam="2">  1       -1 0.12757740E+00 0.25201503E+04</pdfrwt>
<totfact> 0.40152566E+00</totfact>
</mgrwt>
</event>
<event>
12    6  0.9491186E-008  0.1412095E+04  0.7818608E-02  0.8945110E-01
         -1   -1    0    0    0  501 -0.00000000000E+00  0.00000000000E+00  0.34897892669E+03  0.34897892669E+03  0.00000000000E+00 0.  1.
          2   -1    0    0  501    0  0.00000000000E+00 -0.00000000000E+00 -0.14284617241E+04  0.14284617241E+04  0.00000000000E+00 0. -1.
         24    2    1    2    0    0 -0.13238920643E+03  0.31861245550E+03 -0.60909679714E+03  0.70430918291E+03  0.77535269781E+02 0.  0.
        254    2    1    2    0    0  0.13238920643E+03 -0.31861245550E+03 -0.47038600032E+03  0.10731314679E+04  0.90072601793E+03 0.  0.
         23    2    4    4    0    0 -0.36688319485E+03 -0.23807832852E+03 -0.17132350638E+03  0.47867090321E+03  0.92138594332E+02 0.  0.
         23    2    4    4    0    0  0.49927240128E+03 -0.80534126978E+02 -0.29906249394E+03  0.59446056471E+03  0.90478237341E+02 0.  0.
          2    1    3    3  502    0 -0.81846015182E+02  0.24516155360E+03 -0.39114685584E+03  0.46882706876E+03  0.00000000000E+00 0. -1.
         -1    1    3    3    0  502 -0.50543191247E+02  0.73450901897E+02 -0.21794994130E+03  0.23548211415E+03  0.00000000000E+00 0.  1.
         11    1    5    5    0    0 -0.15901639211E+03 -0.15667911906E+03 -0.96844000499E+02  0.24333787157E+03  0.00000000000E+00 0. -1.
        -11    1    5    5    0    0 -0.20786680274E+03 -0.81399209462E+02 -0.74479505884E+02  0.23533303164E+03  0.00000000000E+00 0.  1.
          3    1    6    6  503    0  0.11733376202E+03 -0.26166896326E+02 -0.11743150899E+03  0.16805379340E+03  0.00000000000E+00 0. -1.
         -3    1    6    6    0  503  0.38193863926E+03 -0.54367230652E+02 -0.18163098495E+03  0.42640677131E+03  0.00000000000E+00 0.  1.
<mgrwt>
<rscale>  0 0.14120950E+04</rscale>
<asrwt>0</asrwt>
<pdfrwt beam="1">  1        2 0.21976334E+00 0.14120950E+04</pdfrwt>
<pdfrwt beam="2">  1       -1 0.53689066E-01 0.14120950E+04</pdfrwt>
<totfact> 0.54075049E+01</totfact>
</mgrwt>
</event>
<event>
12    6  0.9491186E-008  0.1361432E+04  0.7818608E-02  0.8982219E-01
          2   -1    0    0  501    0  0.00000000000E+00  0.00000000000E+00  0.27421347852E+04  0.27421347852E+04  0.00000000000E+00 0. -1.
         -1   -1    0    0    0  501 -0.00000000000E+00 -0.00000000000E+00 -0.16898308702E+03  0.16898308702E+03  0.00000000000E+00 0.  1.
         24    2    1    2    0    0  0.29193112510E+03 -0.26145755841E+03  0.83858572022E+03  0.92921183203E+03  0.81392763607E+02 0.  0.
        254    2    1    2    0    0 -0.29193112510E+03  0.26145755841E+03  0.17345659780E+04  0.19819060402E+04  0.87501347626E+03 0.  0.
         23    2    4    4    0    0  0.11276256977E+03 -0.24814939898E+03  0.69063803862E+03  0.74821056658E+03  0.92437168937E+02 0.  0.
         23    2    4    4    0    0 -0.40469369487E+03  0.50960695739E+03  0.10439279394E+04  0.12336954736E+04  0.93502627823E+02 0.  0.
          4    1    3    3  502    0  0.17170729957E+02 -0.22905165387E+02  0.25165732639E+02  0.38115543652E+02  0.00000000000E+00 0. -1.
         -3    1    3    3    0  502  0.27476039515E+03 -0.23855239302E+03  0.81341998758E+03  0.89109628838E+03  0.00000000000E+00 0.  1.
         11    1    5    5    0    0  0.24209516190E+02 -0.40046103326E+02  0.23402552060E+03  0.23865819776E+03  0.00000000000E+00 0. -1.
        -11    1    5    5    0    0  0.88553053578E+02 -0.20810329565E+03  0.45661251802E+03  0.50955236882E+03  0.00000000000E+00 0.  1.
          1    1    6    6  503    0 -0.15464845921E+03  0.19739974829E+03  0.31930258301E+03  0.40600116512E+03  0.00000000000E+00 0. -1.
         -1    1    6    6    0  503 -0.25004523566E+03  0.31220720910E+03  0.72462535635E+03  0.82769430852E+03  0.00000000000E+00 0.  1.
<mgrwt>
<rscale>  0 0.13614322E+04</rscale>
<asrwt>0</asrwt>
<pdfrwt beam="1">  1        2 0.42186686E+00 0.13614322E+04</pdfrwt>
<pdfrwt beam="2">  1       -1 0.25997400E-01 0.13614322E+04</pdfrwt>
<totfact> 0.36714291E+01</totfact>
</mgrwt>
</event>
<event>
12    6  0.9491186E-008  0.3563101E+04  0.7818608E-02  0.8098997E-01
         -1   -1    0    0    0  501 -0.00000000000E+00  0.00000000000E+00  0.15677009778E+04  0.15677009778E+04  0.00000000000E+00 0.  1.
          2   -1    0    0  501    0  0.00000000000E+00 -0.00000000000E+00 -0.20245710428E+04  0.20245710428E+04  0.00000000000E+00 0. -1.
         24    2    1    2    0    0 -0.15905431146E+04  0.49655203872E+03 -0.15854087725E+03  0.16756737990E+04  0.79725430563E+02 0.  0.
        254    2    1    2    0    0  0.15905431146E+04 -0.49655203872E+03 -0.29832918774E+03  0.19165982216E+04  0.89886434592E+03 0.  0.
         23    2    4    4    0    0 -0.71412890052E+02  0.61724711090E+02 -0.59377002688E+02  0.14474653934E+03  0.92283212877E+02 0.  0.
         23    2    4    4    0    0  0.16619560046E+04 -0.55827674981E+03 -0.23895218505E+03  0.17718516823E+04  0.92679806516E+02 0.  0.
          2    1    3    3  502    0 -0.47803634129E+03  0.13169862671E+03 -0.14699739924E+02  0.49606386103E+03  0.00000000000E+00 0. -1.
         -1    1    3    3    0  502 -0.11125067733E+04  0.36485341201E+03 -0.14384113733E+03  0.11796099379E+04  0.00000000000E+00 0.  1.
         11    1    5    5    0    0 -0.81003710227E+01  0.53644511498E+02 -0.60035212020E+02  0.80917095270E+02  0.00000000000E+00 0. -1.
        -11    1    5    5    0    0 -0.63312519029E+02  0.80801995922E+01  0.65820933187E+00  0.63829444074E+02  0.00000000000E+00 0.  1.
          4    1    6    6  503    0  0.14463525372E+04 -0.48616290762E+03 -0.17624620885E+03  0.15360184767E+04  0.00000000000E+00 0. -1.
         -4    1    6    6    0  503  0.21560346738E+03 -0.72113842193E+02 -0.62705976194E+02  0.23583320553E+03  0.00000000000E+00 0.  1.
<mgrwt>
<rscale>  0 0.35631009E+04</rscale>
<asrwt>0</asrwt>
<pdfrwt beam="1">  1        2 0.31147247E+00 0.35631009E+04</pdfrwt>
<pdfrwt beam="2">  1       -1 0.24118477E+00 0.35631009E+04</pdfrwt>
<totfact> 0.47939013E-01</totfact>
</mgrwt>
</event>
<event>
12    6  0.9491186E-008  0.2918134E+04  0.7818608E-02  0.8267502E-01
         -1   -1    0    0    0  501 -0.00000000000E+00  0.00000000000E+00  0.19348114990E+04  0.19348114990E+04  0.00000000000E+00 0.  1.
          2   -1    0    0  501    0  0.00000000000E+00 -0.00000000000E+00 -0.11003018215E+04  0.11003018215E+04  0.00000000000E+00 0. -1.
         24    2    1    2    0    0  0.10446222485E+04 -0.46899621920E+03 -0.30001932151E+03  0.11863747814E+04  0.79249184156E+02 0.  0.
        254    2    1    2    0    0 -0.10446222485E+04  0.46899621920E+03  0.11345289990E+04  0.18487385390E+04  0.90525413041E+03 0.  0.
         23    2    4    4    0    0 -0.18590279401E+03 -0.25285357890E+03  0.33859516072E+03  0.47017503079E+03  0.89011771854E+02 0.  0.
         23    2    4    4    0    0 -0.85871945444E+03  0.72184979810E+03  0.79593383825E+03  0.13785635082E+04  0.91980644440E+02 0.  0.
          2    1    3    3  502    0  0.49192515996E+03 -0.24104077837E+03 -0.10725934704E+03  0.55820747699E+03  0.00000000000E+00 0. -1.
         -1    1    3    3    0  502  0.55269708850E+03 -0.22795544082E+03 -0.19275997447E+03  0.62816730446E+03  0.00000000000E+00 0.  1.
         11    1    5    5    0    0 -0.82326595671E+02 -0.70858166731E+02  0.16809797704E+03  0.20013864703E+03  0.00000000000E+00 0. -1.
        -11    1    5    5    0    0 -0.10357619834E+03 -0.18199541217E+03  0.17049718368E+03  0.27003638376E+03  0.00000000000E+00 0.  1.
          1    1    6    6  503    0 -0.34978960980E+03  0.31950660576E+03  0.38651448862E+03  0.61141695443E+03  0.00000000000E+00 0. -1.
         -1    1    6    6    0  503 -0.50892984464E+03  0.40234319233E+03  0.40941934963E+03  0.76714655381E+03  0.00000000000E+00 0.  1.
<mgrwt>
<rscale>  0 0.29181341E+04</rscale>
<asrwt>0</asrwt>
<pdfrwt beam="1">  1        2 0.16927720E+00 0.29181341E+04</pdfrwt>
<pdfrwt beam="2">  1       -1 0.29766331E+00 0.29181341E+04</pdfrwt>
<totfact> 0.73125103E-01</totfact>
</mgrwt>
</event>
<event>
12    6  0.9491186E-008  0.1601788E+04  0.7818608E-02  0.8819450E-01
          2   -1    0    0  501    0  0.00000000000E+00  0.00000000000E+00  0.14630484156E+04  0.14630484156E+04  0.00000000000E+00 0. -1.
         -1   -1    0    0    0  501 -0.00000000000E+00 -0.00000000000E+00 -0.43842099528E+03  0.43842099528E+03  0.00000000000E+00 0.  1.
         24    2    1    2    0    0  0.44078854253E+02  0.36387559338E+03  0.83704678166E+03  0.91731773798E+03  0.80474374007E+02 0.  0.
        254    2    1    2    0    0 -0.44078854253E+02 -0.36387559338E+03  0.18758063866E+03  0.98415167291E+03  0.89387897751E+03 0.  0.
         23    2    4    4    0    0  0.31552086971E+03  0.86856395669E+02  0.21354749993E+03  0.39973637717E+03  0.84197291026E+02 0.  0.
         23    2    4    4    0    0 -0.35959972396E+03 -0.45073198905E+03 -0.25966861271E+02  0.58441529574E+03  0.91627902868E+02 0.  0.
          4    1    3    3  502    0  0.39793896477E+02  0.25629517237E+03  0.67139645806E+03  0.71975271689E+03  0.00000000000E+00 0. -1.
         -3    1    3    3    0  502  0.42849577755E+01  0.10758042102E+03  0.16565032360E+03  0.19756502109E+03  0.00000000000E+00 0.  1.
         11    1    5    5    0    0  0.84868203380E+02 -0.53003923656E+01  0.27388556736E+02  0.89335542446E+02  0.00000000000E+00 0.  1.
        -11    1    5    5    0    0  0.23065266633E+03  0.92156788035E+02  0.18615894320E+03  0.31040083472E+03  0.00000000000E+00 0. -1.
          1    1    6    6  503    0 -0.72080534214E+02 -0.68959863782E+02 -0.36897379643E+02  0.10636015631E+03  0.00000000000E+00 0.  1.
         -1    1    6    6    0  503 -0.28751918975E+03 -0.38177212527E+03  0.10930518372E+02  0.47805513943E+03  0.00000000000E+00 0. -1.
<mgrwt>
<rscale>  0 0.16017879E+04</rscale>
<asrwt>0</asrwt>
<pdfrwt beam="1">  1        2 0.22508437E+00 0.16017879E+04</pdfrwt>
<pdfrwt beam="2">  1       -1 0.67449385E-01 0.16017879E+04</pdfrwt>
<totfact> 0.32400687E+01</totfact>
</mgrwt>
</event>
<event>
12    6  0.9491186E-008  0.3217047E+04  0.7818608E-02  0.8184330E-01
         -1   -1    0    0    0  501 -0.00000000000E+00  0.00000000000E+00  0.95522748106E+03  0.95522748106E+03  0.00000000000E+00 0.  1.
          2   -1    0    0  501    0  0.00000000000E+00 -0.00000000000E+00 -0.27086197249E+04  0.27086197249E+04  0.00000000000E+00 0. -1.
         24    2    1    2    0    0 -0.23955921269E+03  0.13072562781E+04 -0.63150668266E+02  0.13329126947E+04  0.79753693728E+02 0.  0.
        254    2    1    2    0    0  0.23955921269E+03 -0.13072562781E+04 -0.16902415756E+04  0.23309345113E+04  0.90001751039E+03 0.  0.
         23    2    4    4    0    0 -0.14285259482E+03  0.63605204955E+01 -0.45336679958E+03  0.48431729902E+03  0.92598440064E+02 0.  0.
         23    2    4    4    0    0  0.38241180751E+03 -0.13136167986E+04 -0.12368747760E+04  0.18466172123E+04  0.91148411906E+02 0.  0.
          4    1    3    3  502    0  0.21889631494E+01  0.93533448596E+02  0.26964978297E+01  0.93597909520E+02  0.00000000000E+00 0. -1.
         -3    1    3    3    0  502 -0.24174817584E+03  0.12137228295E+04 -0.65847166096E+02  0.12393147852E+04  0.00000000000E+00 0.  1.
         11    1    5    5    0    0 -0.32057149581E+02 -0.24672879753E+01 -0.22241063333E+02  0.39094926109E+02  0.00000000000E+00 0. -1.
        -11    1    5    5    0    0 -0.11079544524E+03  0.88278084708E+01 -0.43112573624E+03  0.44522237291E+03  0.00000000000E+00 0.  1.
          3    1    6    6  503    0 -0.26831547661E+01 -0.46132277620E+00 -0.25358529695E+01  0.37205763647E+01  0.00000000000E+00 0. -1.
         -3    1    6    6    0  503  0.38509496228E+03 -0.13131554758E+04 -0.12343389230E+04  0.18428966359E+04  0.00000000000E+00 0.  1.
<mgrwt>
<rscale>  0 0.32170471E+04</rscale>
<asrwt>0</asrwt>
<pdfrwt beam="1">  1        2 0.41671072E+00 0.32170471E+04</pdfrwt>
<pdfrwt beam="2">  1       -1 0.14695808E+00 0.32170471E+04</pdfrwt>
<totfact> 0.92389594E-01</totfact>
</mgrwt>
</event>
<event>
12    6  0.9491186E-008  0.1532502E+04  0.7818608E-02  0.8863123E-01
         -1   -1    0    0    0  501 -0.00000000000E+00  0.00000000000E+00  0.50901926775E+03  0.50901926775E+03  0.00000000000E+00 0.  1.
          2   -1    0    0  501    0  0.00000000000E+00 -0.00000000000E+00 -0.11534738491E+04  0.11534738491E+04  0.00000000000E+00 0. -1.
         24    2    1    2    0    0  0.32961782862E+03  0.37248681111E+03 -0.18440644492E+03  0.53658916106E+03  0.80795132536E+02 0.  0.
        254    2    1    2    0    0 -0.32961782862E+03 -0.37248681111E+03 -0.46004813639E+03  0.11259039558E+04  0.89923361392E+03 0.  0.
         23    2    4    4    0    0 -0.61840640491E+03 -0.33233115683E+03 -0.40309623981E+03  0.81519740354E+03  0.95863177260E+02 0.  0.
         23    2    4    4    0    0  0.28878857629E+03 -0.40155654280E+02 -0.56951896576E+02  0.31070655222E+03  0.91014969657E+02 0.  0.
          2    1    3    3  502    0  0.28598355441E+03  0.31071499647E+03 -0.18480566005E+03  0.46095936308E+03  0.00000000000E+00 0. -1.
         -1    1    3    3    0  502  0.43634274204E+02  0.61771814646E+02  0.39921512243E+00  0.75629797981E+02  0.00000000000E+00 0.  1.
         11    1    5    5    0    0 -0.30215570662E+03 -0.20958167262E+03 -0.23697559173E+03  0.43746997568E+03  0.00000000000E+00 0. -1.
        -11    1    5    5    0    0 -0.31625069828E+03 -0.12274948421E+03 -0.16612064808E+03  0.37772742786E+03  0.00000000000E+00 0.  1.
          3    1    6    6  503    0  0.26720525146E+03 -0.11388001537E+02 -0.61580548645E+02  0.27444579968E+03  0.00000000000E+00 0. -1.
         -3    1    6    6    0  503  0.21583324825E+02 -0.28767652743E+02  0.46286520690E+01  0.36260752541E+02  0.00000000000E+00 0.  1.
<mgrwt>
<rscale>  0 0.15325018E+04</rscale>
<asrwt>0</asrwt>
<pdfrwt beam="1">  1        2 0.17745751E+00 0.15325018E+04</pdfrwt>
<pdfrwt beam="2">  1       -1 0.78310657E-01 0.15325018E+04</pdfrwt>
<totfact> 0.36254932E+01</totfact>
</mgrwt>
</event>
<event>
12    6  0.9491186E-008  0.1117794E+04  0.7818608E-02  0.9188020E-01
          2   -1    0    0  501    0  0.00000000000E+00  0.00000000000E+00  0.19007066764E+04  0.19007066764E+04  0.00000000000E+00 0. -1.
         -1   -1    0    0    0  501 -0.00000000000E+00 -0.00000000000E+00 -0.16434200648E+03  0.16434200648E+03  0.00000000000E+00 0.  1.
         24    2    1    2    0    0 -0.46648922858E+02 -0.10027199732E+03  0.57047079924E+03  0.58746558183E+03  0.86303427506E+02 0.  0.
        254    2    1    2    0    0  0.46648922858E+02  0.10027199732E+03  0.11658938707E+04  0.14775831011E+04  0.90095100165E+03 0.  0.
         23    2    4    4    0    0  0.23507185423E+03  0.25548813496E+02  0.12225865727E+04  0.12485365972E+04  0.90632159692E+02 0.  0.
         23    2    4    4    0    0 -0.18842293138E+03  0.74723183820E+02 -0.56692701981E+02  0.22904650385E+03  0.90340927594E+02 0.  0.
          2    1    3    3  502    0 -0.22031911413E+02 -0.60304001037E+02  0.49090154527E+03  0.49508211926E+03  0.00000000000E+00 0. -1.
         -1    1    3    3    0  502 -0.24617011445E+02 -0.39967996280E+02  0.79569253967E+02  0.92383462568E+02  0.00000000000E+00 0.  1.
         11    1    5    5    0    0  0.14307671776E+03  0.25705474029E+02  0.51943833527E+03  0.53939586827E+03  0.00000000000E+00 0. -1.
        -11    1    5    5    0    0  0.91995136473E+02 -0.15666053287E+00  0.70314823743E+03  0.70914072896E+03  0.00000000000E+00 0.  1.
          2    1    6    6  503    0  0.37461003691E+01 -0.31144113554E+01  0.10104410225E+02  0.11217483321E+02  0.00000000000E+00 0. -1.
         -2    1    6    6    0  503 -0.19216903175E+03  0.77837595176E+02 -0.66797112206E+02  0.21782902053E+03  0.00000000000E+00 0.  1.
<mgrwt>
<rscale>  0 0.11177942E+04</rscale>
<asrwt>0</asrwt>
<pdfrwt beam="1">  1        2 0.29241640E+00 0.11177942E+04</pdfrwt>
<pdfrwt beam="2">  1       -1 0.25283387E-01 0.11177942E+04</pdfrwt>
<totfact> 0.11790232E+02</totfact>
</mgrwt>
</event>
<event>
12    6  0.9491186E-008  0.2291168E+04  0.7818608E-02  0.8481412E-01
          2   -1    0    0  501    0  0.00000000000E+00  0.00000000000E+00  0.16440186073E+04  0.16440186073E+04  0.00000000000E+00 0. -1.
         -1   -1    0    0    0  501 -0.00000000000E+00 -0.00000000000E+00 -0.79826501031E+03  0.79826501031E+03  0.00000000000E+00 0.  1.
         24    2    1    2    0    0 -0.75779831594E+03  0.59978668518E+03  0.37643250747E+03  0.10402940987E+04  0.80672323036E+02 0.  0.
        254    2    1    2    0    0  0.75779831594E+03 -0.59978668518E+03  0.46932108950E+03  0.14019895189E+04  0.90072746752E+03 0.  0.
         23    2    4    4    0    0  0.11253418698E+03  0.19510316725E+03 -0.53827459734E+02  0.24876259129E+03  0.90863866827E+02 0.  0.
         23    2    4    4    0    0  0.64526412896E+03 -0.79488985243E+03  0.52314854923E+03  0.11532269276E+04  0.89622923503E+02 0.  0.
          2    1    3    3  502    0 -0.31359805173E+03  0.29512888042E+03  0.15019990799E+03  0.45607543945E+03  0.00000000000E+00 0. -1.
         -1    1    3    3    0  502 -0.44420026421E+03  0.30465780475E+03  0.22623259948E+03  0.58421865923E+03  0.00000000000E+00 0.  1.
         11    1    5    5    0    0  0.17166219593E+02  0.10272811671E+03  0.33422352174E+01  0.10420612071E+03  0.00000000000E+00 0.  1.
        -11    1    5    5    0    0  0.95367967383E+02  0.92375050541E+02 -0.57169694951E+02  0.14455647058E+03  0.00000000000E+00 0. -1.
          3    1    6    6  503    0  0.47208173282E+02 -0.10099309597E+03  0.49785347460E+02  0.12209339818E+03  0.00000000000E+00 0. -1.
         -3    1    6    6    0  503  0.59805595568E+03 -0.69389675646E+03  0.47336320177E+03  0.10311335294E+04  0.00000000000E+00 0.  1.
<mgrwt>
<rscale>  0 0.22911679E+04</rscale>
<asrwt>0</asrwt>
<pdfrwt beam="1">  1        2 0.25292594E+00 0.22911679E+04</pdfrwt>
<pdfrwt beam="2">  1       -1 0.12281000E+00 0.22911679E+04</pdfrwt>
<totfact> 0.63664501E+00</totfact>
</mgrwt>
</event>
<event>
12    6  0.9491186E-008  0.1376825E+04  0.7818608E-02  0.8970767E-01
          2   -1    0    0  501    0  0.00000000000E+00  0.00000000000E+00  0.26443357039E+04  0.26443357039E+04  0.00000000000E+00 0. -1.
         -1   -1    0    0    0  501 -0.00000000000E+00 -0.00000000000E+00 -0.17921774458E+03  0.17921774458E+03  0.00000000000E+00 0.  1.
         24    2    1    2    0    0 -0.18215946585E+03 -0.22517036611E+03  0.12364075162E+04  0.12723655629E+04  0.79541275857E+02 0.  0.
        254    2    1    2    0    0  0.18215946585E+03  0.22517036611E+03  0.12287104430E+04  0.15511878856E+04  0.90142705683E+03 0.  0.
         23    2    4    4    0    0  0.50586640757E+01  0.55059319012E+03  0.63468199176E+03  0.84528333568E+03  0.92218413695E+02 0.  0.
         23    2    4    4    0    0  0.17710080178E+03 -0.32542282401E+03  0.59402845129E+03  0.70590454991E+03  0.90369930144E+02 0.  0.
          4    1    3    3  502    0 -0.18457779379E+03 -0.22609796740E+03  0.12356692171E+04  0.12696722675E+04  0.00000000000E+00 0. -1.
         -3    1    3    3    0  502  0.24183279431E+01  0.92760129203E+00  0.73829914966E+00  0.26932953480E+01  0.00000000000E+00 0.  1.
         11    1    5    5    0    0  0.45221472589E+02  0.38594537262E+03  0.45285586390E+03  0.59672208414E+03  0.00000000000E+00 0. -1.
        -11    1    5    5    0    0 -0.40162808513E+02  0.16464781750E+03  0.18182612786E+03  0.24856125154E+03  0.00000000000E+00 0.  1.
          2    1    6    6  503    0  0.56604949560E+02 -0.19305140029E+03  0.34186723938E+03  0.39666884530E+03  0.00000000000E+00 0. -1.
         -2    1    6    6    0  503  0.12049585222E+03 -0.13237142372E+03  0.25216121191E+03  0.30923570461E+03  0.00000000000E+00 0.  1.
<mgrwt>
<rscale>  0 0.13768252E+04</rscale>
<asrwt>0</asrwt>
<pdfrwt beam="1">  1        2 0.40682085E+00 0.13768252E+04</pdfrwt>
<pdfrwt beam="2">  1       -1 0.27571963E-01 0.13768252E+04</pdfrwt>
<totfact> 0.37827682E+01</totfact>
</mgrwt>
</event>
<event>
12    6  0.9491186E-008  0.1604024E+04  0.7818608E-02  0.8818080E-01
          2   -1    0    0  501    0  0.00000000000E+00  0.00000000000E+00  0.89475028847E+03  0.89475028847E+03  0.00000000000E+00 0. -1.
         -1   -1    0    0    0  501 -0.00000000000E+00 -0.00000000000E+00 -0.71888603346E+03  0.71888603346E+03  0.00000000000E+00 0.  1.
         24    2    1    2    0    0  0.44561039486E+03 -0.44223285995E+01 -0.24779981047E+03  0.51614573520E+03  0.80084286199E+02 0.  0.
        254    2    1    2    0    0 -0.44561039486E+03  0.44223285995E+01  0.42366406549E+03  0.10974905867E+04  0.90906884590E+03 0.  0.
         23    2    4    4    0    0 -0.29805068660E+03  0.14833593230E+03  0.67545593853E+03  0.75863670184E+03  0.91930190332E+02 0.  0.
         23    2    4    4    0    0 -0.14755970826E+03 -0.14391360370E+03 -0.25179187304E+03  0.33885388490E+03  0.94540018760E+02 0.  0.
          2    1    3    3  502    0  0.63652902425E+02 -0.10319075888E+02 -0.68763134233E+02  0.94268467389E+02  0.00000000000E+00 0. -1.
         -1    1    3    3    0  502  0.38195749243E+03  0.58967472882E+01 -0.17903667624E+03  0.42187726781E+03  0.00000000000E+00 0.  1.
         11    1    5    5    0    0 -0.18722931815E+03  0.50320285112E+02  0.32832422136E+03  0.38129220160E+03  0.00000000000E+00 0. -1.
        -11    1    5    5    0    0 -0.11082136845E+03  0.98015647185E+02  0.34713171717E+03  0.37734450024E+03  0.00000000000E+00 0.  1.
          1    1    6    6  503    0 -0.33799947834E+02 -0.68037961800E+02 -0.15081608315E+03  0.16887004369E+03  0.00000000000E+00 0. -1.
         -1    1    6    6    0  503 -0.11375976043E+03 -0.75875641897E+02 -0.10097578989E+03  0.16998384120E+03  0.00000000000E+00 0.  1.
<mgrwt>
<rscale>  0 0.16040243E+04</rscale>
<asrwt>0</asrwt>
<pdfrwt beam="1">  1        2 0.13765389E+00 0.16040243E+04</pdfrwt>
<pdfrwt beam="2">  1       -1 0.11059785E+00 0.16040243E+04</pdfrwt>
<totfact> 0.24376088E+01</totfact>
</mgrwt>
</event>
<event>
12    6  0.9491186E-008  0.1727899E+04  0.7818608E-02  0.8745611E-01
         -1   -1    0    0    0  501 -0.00000000000E+00  0.00000000000E+00  0.12200750735E+04  0.12200750735E+04  0.00000000000E+00 0.  1.
          2   -1    0    0  501    0  0.00000000000E+00 -0.00000000000E+00 -0.61177282436E+03  0.61177282436E+03  0.00000000000E+00 0. -1.
         24    2    1    2    0    0 -0.39530661198E+03 -0.30727070120E+03 -0.18572063829E+03  0.54016864919E+03  0.81285993820E+02 0.  0.
        254    2    1    2    0    0  0.39530661198E+03  0.30727070120E+03  0.79402288739E+03  0.12916792486E+04  0.88728819127E+03 0.  0.
         23    2    4    4    0    0  0.39210705182E+03  0.36009234739E+03  0.52278064322E+02  0.54258777272E+03  0.90851837384E+02 0.  0.
         23    2    4    4    0    0  0.31995601562E+01 -0.52821646191E+02  0.74174482307E+03  0.74909147592E+03  0.90290050681E+02 0.  0.
          4    1    3    3  502    0 -0.18485185972E+03 -0.13980908142E+03 -0.43098844238E+02  0.23574201930E+03  0.00000000000E+00 0. -1.
         -3    1    3    3    0  502 -0.21045475226E+03 -0.16746161978E+03 -0.14262179405E+03  0.30442662989E+03  0.00000000000E+00 0.  1.
         11    1    5    5    0    0  0.10440856067E+03  0.14159772603E+03  0.43461856014E+02  0.18121809094E+03  0.00000000000E+00 0.  1.
        -11    1    5    5    0    0  0.28769849116E+03  0.21849462136E+03  0.88162083075E+01  0.36136968178E+03  0.00000000000E+00 0. -1.
          1    1    6    6  503    0  0.22538917787E+02 -0.47911712755E+02  0.70734396138E+03  0.70932292698E+03  0.00000000000E+00 0. -1.
         -1    1    6    6    0  503 -0.19339357631E+02 -0.49099334354E+01  0.34400861685E+02  0.39768548937E+02  0.00000000000E+00 0.  1.
<mgrwt>
<rscale>  0 0.17278990E+04</rscale>
<asrwt>0</asrwt>
<pdfrwt beam="1">  1        2 0.94118896E-01 0.17278990E+04</pdfrwt>
<pdfrwt beam="2">  1       -1 0.18770386E+00 0.17278990E+04</pdfrwt>
<totfact> 0.96339934E+00</totfact>
</mgrwt>
</event>
<event>
12    6  0.9491186E-008  0.1884726E+04  0.7818608E-02  0.8662497E-01
         -1   -1    0    0    0  501 -0.00000000000E+00  0.00000000000E+00  0.70687450119E+03  0.70687450119E+03  0.00000000000E+00 0.  1.
          2   -1    0    0  501    0  0.00000000000E+00 -0.00000000000E+00 -0.12563019834E+04  0.12563019834E+04  0.00000000000E+00 0. -1.
         24    2    1    2    0    0  0.53146061152E+03 -0.31130318987E+03 -0.59870384270E+03  0.86273719045E+03  0.80679061046E+02 0.  0.
        254    2    1    2    0    0 -0.53146061152E+03  0.31130318987E+03  0.49276360443E+02  0.11004392942E+04  0.91059234726E+03 0.  0.
         23    2    4    4    0    0 -0.18802112569E+03  0.58340385281E+03 -0.10253676156E+03  0.62794467465E+03  0.89937354692E+02 0.  0.
         23    2    4    4    0    0 -0.34343948583E+03 -0.27210066293E+03  0.15181312200E+03  0.47249461955E+03  0.90633825339E+02 0.  0.
          4    1    3    3  502    0  0.41534089114E+03 -0.24355606954E+03 -0.41871381491E+03  0.63808218409E+03  0.00000000000E+00 0. -1.
         -3    1    3    3    0  502  0.11611972038E+03 -0.67747120333E+02 -0.17999002779E+03  0.22465500635E+03  0.00000000000E+00 0.  1.
         11    1    5    5    0    0 -0.28400687882E+02  0.23359252950E+02 -0.83017963114E+00  0.36782373071E+02  0.00000000000E+00 0. -1.
        -11    1    5    5    0    0 -0.15962043781E+03  0.56004459986E+03 -0.10170658193E+03  0.59116230158E+03  0.00000000000E+00 0.  1.
          2    1    6    6  503    0 -0.15497047954E+03 -0.10265904020E+03  0.10892903648E+03  0.21545362158E+03  0.00000000000E+00 0. -1.
         -2    1    6    6    0  503 -0.18846900629E+03 -0.16944162273E+03  0.42884085524E+02  0.25704099797E+03  0.00000000000E+00 0.  1.
<mgrwt>
<rscale>  0 0.18847258E+04</rscale>
<asrwt>0</asrwt>
<pdfrwt beam="1">  1        2 0.19327722E+00 0.18847258E+04</pdfrwt>
<pdfrwt beam="2">  1       -1 0.10874993E+00 0.18847258E+04</pdfrwt>
<totfact> 0.14700940E+01</totfact>
</mgrwt>
</event>
<event>
12    6  0.9491186E-008  0.3819003E+04  0.7818608E-02  0.8042089E-01
         -1   -1    0    0    0  501 -0.00000000000E+00  0.00000000000E+00  0.40549405970E+04  0.40549405970E+04  0.00000000000E+00 0.  1.
          2   -1    0    0  501    0  0.00000000000E+00 -0.00000000000E+00 -0.89919845114E+03  0.89919845114E+03  0.00000000000E+00 0. -1.
         24    2    1    2    0    0  0.89564105843E+03  0.91478771582E+03 -0.15505452865E+03  0.12920446670E+04  0.79549003920E+02 0.  0.
        254    2    1    2    0    0 -0.89564105843E+03 -0.91478771582E+03  0.33107966745E+04  0.36620943812E+04  0.90030615130E+03 0.  0.
         23    2    4    4    0    0 -0.31899421641E+03 -0.84526594454E+03  0.25057113866E+04  0.26651101811E+04  0.89391820400E+02 0.  0.
         23    2    4    4    0    0 -0.57664684202E+03 -0.69521771284E+02  0.80508528796E+03  0.99698420008E+03  0.91979982710E+02 0.  0.
          4    1    3    3  502    0  0.83771813272E+03  0.85297571520E+03 -0.12459406154E+03  0.12020245092E+04  0.00000000000E+00 0. -1.
         -3    1    3    3    0  502  0.57922925709E+02  0.61812000618E+02 -0.30460467106E+02  0.90020157739E+02  0.00000000000E+00 0.  1.
         11    1    5    5    0    0 -0.17649535999E+02 -0.96867241277E+02  0.34140817341E+03  0.35532282424E+03  0.00000000000E+00 0.  1.
        -11    1    5    5    0    0 -0.30134468041E+03 -0.74839870326E+03  0.21643032131E+04  0.23097873569E+04  0.00000000000E+00 0. -1.
          3    1    6    6  503    0 -0.39482564624E+03 -0.24096774346E+02  0.60500566136E+03  0.72284147345E+03  0.00000000000E+00 0. -1.
         -3    1    6    6    0  503 -0.18182119578E+03 -0.45424996938E+02  0.20007962660E+03  0.27414272663E+03  0.00000000000E+00 0.  1.
<mgrwt>
<rscale>  0 0.38190032E+04</rscale>
<asrwt>0</asrwt>
<pdfrwt beam="1">  1        2 0.13833823E+00 0.38190032E+04</pdfrwt>
<pdfrwt beam="2">  1       -1 0.62383700E+00 0.38190032E+04</pdfrwt>
<totfact> 0.95957466E-03</totfact>
</mgrwt>
</event>
<event>
12    6  0.9491186E-008  0.2437462E+04  0.7818608E-02  0.8425610E-01
          2   -1    0    0  501    0  0.00000000000E+00  0.00000000000E+00  0.12180031613E+04  0.12180031613E+04  0.00000000000E+00 0. -1.
         -1   -1    0    0    0  501 -0.00000000000E+00 -0.00000000000E+00 -0.12194596860E+04  0.12194596860E+04  0.00000000000E+00 0.  1.
         24    2    1    2    0    0  0.37491726572E+03 -0.59886903986E+03 -0.77649981777E+03  0.10522084142E+04  0.70593886530E+02 0.  0.
        254    2    1    2    0    0 -0.37491726572E+03  0.59886903986E+03  0.77504329303E+03  0.13852544331E+04  0.90500312454E+03 0.  0.
         23    2    4    4    0    0 -0.36137242164E+03  0.72017868832E+03  0.26511570060E+03  0.85309130327E+03  0.90725226805E+02 0.  0.
         23    2    4    4    0    0 -0.13544844089E+02 -0.12130964846E+03  0.50992759242E+03  0.53216312987E+03  0.90950281300E+02 0.  0.
          4    1    3    3  502    0  0.16629694993E+03 -0.27145621186E+03 -0.29837725370E+03  0.43631655486E+03  0.00000000000E+00 0. -1.
         -1    1    3    3    0  502  0.20862031579E+03 -0.32741282800E+03 -0.47812256407E+03  0.61589185932E+03  0.00000000000E+00 0.  1.
         11    1    5    5    0    0 -0.27929405081E+03  0.50364436324E+03  0.22383944072E+03  0.61787288876E+03  0.00000000000E+00 0. -1.
        -11    1    5    5    0    0 -0.82078370826E+02  0.21653432508E+03  0.41276259885E+02  0.23521841451E+03  0.00000000000E+00 0.  1.
          3    1    6    6  503    0  0.25356139142E+01 -0.12197824958E+03  0.33550567563E+03  0.35700025362E+03  0.00000000000E+00 0. -1.
         -3    1    6    6    0  503 -0.16080458003E+02  0.66860111932E+00  0.17442191679E+03  0.17516287625E+03  0.00000000000E+00 0.  1.
<mgrwt>
<rscale>  0 0.24374624E+04</rscale>
<asrwt>0</asrwt>
<pdfrwt beam="1">  1        2 0.18738510E+00 0.24374624E+04</pdfrwt>
<pdfrwt beam="2">  1       -1 0.18760918E+00 0.24374624E+04</pdfrwt>
<totfact> 0.34679039E+00</totfact>
</mgrwt>
</event>
<event>
12    6  0.9491186E-008  0.1949997E+04  0.7818608E-02  0.8630362E-01
          2   -1    0    0  501    0  0.00000000000E+00  0.00000000000E+00  0.87012130546E+03  0.87012130546E+03  0.00000000000E+00 0. -1.
         -1   -1    0    0    0  501 -0.00000000000E+00 -0.00000000000E+00 -0.10925164327E+04  0.10925164327E+04  0.00000000000E+00 0.  1.
         24    2    1    2    0    0  0.28485669212E+03 -0.91477030911E+02  0.61745154163E+03  0.69082721014E+03  0.80526056487E+02 0.  0.
        254    2    1    2    0    0 -0.28485669212E+03  0.91477030911E+02 -0.83984666888E+03  0.12718105280E+04  0.90699956436E+03 0.  0.
         23    2    4    4    0    0 -0.28980654025E+03 -0.36479947607E+03 -0.31284331265E+03  0.56842625856E+03  0.90393498867E+02 0.  0.
         23    2    4    4    0    0  0.49498481265E+01  0.45627650698E+03 -0.52700335623E+03  0.70338426947E+03  0.93830385444E+02 0.  0.
          2    1    3    3  502    0  0.28779748637E+03 -0.96802814306E+02  0.60259383961E+03  0.67477219382E+03  0.00000000000E+00 0. -1.
         -1    1    3    3    0  502 -0.29407942478E+01  0.53257833953E+01  0.14857702019E+02  0.16055016315E+02  0.00000000000E+00 0.  1.
         11    1    5    5    0    0 -0.76475330682E+02 -0.11854730353E+03 -0.14352357751E+03  0.20124849485E+03  0.00000000000E+00 0. -1.
        -11    1    5    5    0    0 -0.21333120957E+03 -0.24625217255E+03 -0.16931973514E+03  0.36717776371E+03  0.00000000000E+00 0.  1.
          2    1    6    6  503    0 -0.10886168723E+02  0.52520442168E+01 -0.43448579772E+01  0.12844081468E+02  0.00000000000E+00 0. -1.
         -2    1    6    6    0  503  0.15836016850E+02  0.45102446277E+03 -0.52265849826E+03  0.69054018800E+03  0.00000000000E+00 0.  1.
<mgrwt>
<rscale>  0 0.19499967E+04</rscale>
<asrwt>0</asrwt>
<pdfrwt beam="1">  1        2 0.13386482E+00 0.19499967E+04</pdfrwt>
<pdfrwt beam="2">  1       -1 0.16807945E+00 0.19499967E+04</pdfrwt>
<totfact> 0.83168615E+00</totfact>
</mgrwt>
</event>
<event>
12    6  0.9491186E-008  0.2654432E+04  0.7818608E-02  0.8349944E-01
          2   -1    0    0  501    0  0.00000000000E+00  0.00000000000E+00  0.39096967650E+04  0.39096967650E+04  0.00000000000E+00 0. -1.
         -1   -1    0    0    0  501 -0.00000000000E+00 -0.00000000000E+00 -0.45054691479E+03  0.45054691479E+03  0.00000000000E+00 0.  1.
         24    2    1    2    0    0 -0.10608384952E+04 -0.89170343989E+02  0.72488172183E+03  0.12903750211E+04  0.79274972633E+02 0.  0.
        254    2    1    2    0    0  0.10608384952E+04  0.89170343989E+02  0.27342681284E+04  0.30698686587E+04  0.90251965122E+03 0.  0.
         23    2    4    4    0    0 -0.12176595339E+03 -0.29974943363E+02  0.65477135080E+03  0.67293117855E+03  0.91571854861E+02 0.  0.
         23    2    4    4    0    0  0.11826044486E+04  0.11914528735E+03  0.20794967776E+04  0.23969374802E+04  0.90849076028E+02 0.  0.
          4    1    3    3  502    0 -0.39464920877E+03 -0.68979259897E+02  0.28930935943E+03  0.49417207705E+03  0.00000000000E+00 0. -1.
         -3    1    3    3    0  502 -0.66618928639E+03 -0.20191084092E+02  0.43557236240E+03  0.79620294402E+03  0.00000000000E+00 0.  1.
         11    1    5    5    0    0 -0.42011881939E+02 -0.39733725818E+02  0.13324277673E+03  0.14524945695E+03  0.00000000000E+00 0. -1.
        -11    1    5    5    0    0 -0.79754071453E+02  0.97587824549E+01  0.52152857407E+03  0.52768172161E+03  0.00000000000E+00 0.  1.
          3    1    6    6  503    0  0.95571828088E+03  0.10205426485E+03  0.17488807526E+04  0.19955942454E+04  0.00000000000E+00 0. -1.
         -3    1    6    6    0  503  0.22688616768E+03  0.17091022504E+02  0.33061602495E+03  0.40134323476E+03  0.00000000000E+00 0.  1.
<mgrwt>
<rscale>  0 0.26544316E+04</rscale>
<asrwt>0</asrwt>
<pdfrwt beam="1">  1        2 0.60149179E+00 0.26544316E+04</pdfrwt>
<pdfrwt beam="2">  1       -1 0.69314913E-01 0.26544316E+04</pdfrwt>
<totfact> 0.85269790E-01</totfact>
</mgrwt>
</event>
<event>
12    6  0.9491186E-008  0.1603106E+04  0.7818608E-02  0.8818642E-01
          2   -1    0    0  501    0  0.00000000000E+00  0.00000000000E+00  0.27564801348E+04  0.27564801348E+04  0.00000000000E+00 0. -1.
         -1   -1    0    0    0  501 -0.00000000000E+00 -0.00000000000E+00 -0.23308240574E+03  0.23308240574E+03  0.00000000000E+00 0.  1.
         24    2    1    2    0    0 -0.42770800925E+02 -0.47995689911E+03  0.39280519899E+03  0.62677444808E+03  0.79764139842E+02 0.  0.
        254    2    1    2    0    0  0.42770800925E+02  0.47995689911E+03  0.21305925301E+04  0.23627880924E+04  0.90064147930E+03 0.  0.
         23    2    4    4    0    0  0.27063687910E+03  0.65424361966E+03  0.13720478745E+04  0.15466344121E+04  0.91014287915E+02 0.  0.
         23    2    4    4    0    0 -0.22786607818E+03 -0.17428672055E+03  0.75854465560E+03  0.81615368037E+03  0.91749795084E+02 0.  0.
          4    1    3    3  502    0  0.18240074055E+02 -0.49381264730E+02  0.54799667013E+02  0.75988243253E+02  0.00000000000E+00 0. -1.
         -3    1    3    3    0  502 -0.61010874981E+02 -0.43057563438E+03  0.33800553198E+03  0.55078620483E+03  0.00000000000E+00 0.  1.
         11    1    5    5    0    0  0.14765186326E+02  0.94219990493E+02  0.23438580947E+03  0.25304569748E+03  0.00000000000E+00 0. -1.
        -11    1    5    5    0    0  0.25587169278E+03  0.56002362917E+03  0.11376620650E+04  0.12935887146E+04  0.00000000000E+00 0.  1.
          4    1    6    6  503    0  0.67540341095E+01 -0.53674748931E+01  0.76601660329E+01  0.11537109999E+02  0.00000000000E+00 0. -1.
         -4    1    6    6    0  503 -0.23462011229E+03 -0.16891924566E+03  0.75088448957E+03  0.80461657037E+03  0.00000000000E+00 0.  1.
<mgrwt>
<rscale>  0 0.16031058E+04</rscale>
<asrwt>0</asrwt>
<pdfrwt beam="1">  1        2 0.42407384E+00 0.16031058E+04</pdfrwt>
<pdfrwt beam="2">  1       -1 0.35858834E-01 0.16031058E+04</pdfrwt>
<totfact> 0.19999373E+01</totfact>
</mgrwt>
</event>
<event>
12    6  0.9491186E-008  0.1889191E+04  0.7818608E-02  0.8660255E-01
         -1   -1    0    0    0  501 -0.00000000000E+00  0.00000000000E+00  0.35093439350E+03  0.35093439350E+03  0.00000000000E+00 0.  1.
          2   -1    0    0  501    0  0.00000000000E+00 -0.00000000000E+00 -0.25425295682E+04  0.25425295682E+04  0.00000000000E+00 0. -1.
         24    2    1    2    0    0  0.43240715191E+03  0.18949054877E+03  0.10480595347E+01  0.47900169508E+03  0.80987112368E+02 0.  0.
        254    2    1    2    0    0 -0.43240715191E+03 -0.18949054877E+03 -0.21926432342E+04  0.24144622666E+04  0.89390215974E+03 0.  0.
         23    2    4    4    0    0 -0.54209643355E+03  0.18090047198E+03 -0.15990549688E+04  0.17004993608E+04  0.90154083588E+02 0.  0.
         23    2    4    4    0    0  0.10968928165E+03 -0.37039102075E+03 -0.59358826545E+03  0.71396290584E+03  0.90414353251E+02 0.  0.
          2    1    3    3  502    0  0.18711047001E+02  0.22351093851E+02 -0.14480210354E+02  0.32547675311E+02  0.00000000000E+00 0. -1.
         -1    1    3    3    0  502  0.41369610491E+03  0.16713945492E+03  0.15528269888E+02  0.44645401977E+03  0.00000000000E+00 0.  1.
         11    1    5    5    0    0 -0.20751928053E+03  0.49723785298E+02 -0.48375742255E+03  0.52873239969E+03  0.00000000000E+00 0. -1.
        -11    1    5    5    0    0 -0.33457715303E+03  0.13117668668E+03 -0.11152975462E+04  0.11717669611E+04  0.00000000000E+00 0.  1.
          4    1    6    6  503    0  0.11337795964E+02 -0.12257663367E+02 -0.40304214144E+01  0.17176735001E+02  0.00000000000E+00 0. -1.
         -4    1    6    6    0  503  0.98351485681E+02 -0.35813335738E+03 -0.58955784403E+03  0.69678617083E+03  0.00000000000E+00 0.  1.
<mgrwt>
<rscale>  0 0.18891914E+04</rscale>
<asrwt>0</asrwt>
<pdfrwt beam="1">  1        2 0.39115838E+00 0.18891914E+04</pdfrwt>
<pdfrwt beam="2">  1       -1 0.53989908E-01 0.18891914E+04</pdfrwt>
<totfact> 0.12166167E+01</totfact>
</mgrwt>
</event>
<event>
12    6  0.1257205E-007  0.3176650E+04  0.7818608E-02  0.8195011E-01
          2   -1    0    0  501    0  0.00000000000E+00  0.00000000000E+00  0.19614753879E+04  0.19614753879E+04  0.00000000000E+00 0. -1.
         -1   -1    0    0    0  501 -0.00000000000E+00 -0.00000000000E+00 -0.12861630111E+04  0.12861630111E+04  0.00000000000E+00 0.  1.
         24    2    1    2    0    0 -0.42714755223E+03  0.11687953029E+04 -0.46487812893E+03  0.13308922723E+04  0.81394559702E+02 0.  0.
        254    2    1    2    0    0  0.42714755223E+03 -0.11687953029E+04  0.11401905058E+04  0.19167461267E+04  0.90848436038E+03 0.  0.
         23    2    4    4    0    0  0.32795924999E+03 -0.10955611079E+04  0.12729929342E+04  0.17136051490E+04  0.90112071301E+02 0.  0.
         23    2    4    4    0    0  0.99188302237E+02 -0.73234194972E+02 -0.13280242834E+03  0.20314097766E+03  0.91805257023E+02 0.  0.
          4    1    3    3  502    0 -0.11666249151E+03  0.27662798964E+03 -0.14628216279E+03  0.33396354999E+03  0.00000000000E+00 0. -1.
         -3    1    3    3    0  502 -0.31048506072E+03  0.89216731327E+03 -0.31859596614E+03  0.99692872234E+03  0.00000000000E+00 0.  1.
         11    1    5    5    0    0  0.14042187769E+03 -0.36608788641E+03  0.48264580354E+03  0.62184050687E+03  0.00000000000E+00 0. -1.
        -11    1    5    5    0    0  0.18753737230E+03 -0.72947322152E+03  0.79034713062E+03  0.10917646421E+04  0.00000000000E+00 0.  1.
          1    1    6    6  503    0  0.40062464862E+02 -0.79652019546E+02 -0.10422594909E+03  0.13715864454E+03  0.00000000000E+00 0. -1.
         -1    1    6    6    0  503  0.59125837375E+02  0.64178245744E+01 -0.28576479259E+02  0.65982333123E+02  0.00000000000E+00 0.  1.
<mgrwt>
<rscale>  0 0.31766505E+04</rscale>
<asrwt>0</asrwt>
<pdfrwt beam="1">  1        2 0.30176545E+00 0.31766505E+04</pdfrwt>
<pdfrwt beam="2">  1       -1 0.19787123E+00 0.31766505E+04</pdfrwt>
<totfact> 0.10488682E+00</totfact>
</mgrwt>
</event>
<event>
12    6  0.9491186E-008  0.1437027E+04  0.7818608E-02  0.8927444E-01
         -1   -1    0    0    0  501 -0.00000000000E+00  0.00000000000E+00  0.42912612074E+03  0.42912612074E+03  0.00000000000E+00 0.  1.
          2   -1    0    0  501    0  0.00000000000E+00 -0.00000000000E+00 -0.12030534959E+04  0.12030534959E+04  0.00000000000E+00 0. -1.
         24    2    1    2    0    0 -0.33711587106E+03 -0.10564186223E+03  0.41423645486E+02  0.36572573659E+03  0.85041651111E+02 0.  0.
        254    2    1    2    0    0  0.33711587106E+03  0.10564186223E+03 -0.81535102062E+03  0.12664538800E+04  0.90238618663E+03 0.  0.
         23    2    4    4    0    0 -0.26958111108E+01  0.44519774204E+03 -0.53915429989E+03  0.70469542754E+03  0.87749584572E+02 0.  0.
         23    2    4    4    0    0  0.33981168218E+03 -0.33955587981E+03 -0.27619672073E+03  0.56175845248E+03  0.92291687250E+02 0.  0.
          4    1    3    3  502    0 -0.17758292224E+03 -0.73750385042E+02  0.61308796016E+02  0.20182562284E+03  0.00000000000E+00 0. -1.
         -3    1    3    3    0  502 -0.15953294883E+03 -0.31891477187E+02 -0.19885150529E+02  0.16390011376E+03  0.00000000000E+00 0.  1.
         11    1    5    5    0    0 -0.13575274316E+02  0.31298485570E+03 -0.31523142721E+03  0.44442621510E+03  0.00000000000E+00 0. -1.
        -11    1    5    5    0    0  0.10879463205E+02  0.13221288634E+03 -0.22392287268E+03  0.26026921244E+03  0.00000000000E+00 0.  1.
          1    1    6    6  503    0  0.31537959992E+03 -0.33579462111E+03 -0.24442712064E+03  0.52150449367E+03  0.00000000000E+00 0. -1.
         -1    1    6    6    0  503  0.24432082254E+02 -0.37612587029E+01 -0.31769600089E+02  0.40253958813E+02  0.00000000000E+00 0.  1.
<mgrwt>
<rscale>  0 0.14370270E+04</rscale>
<asrwt>0</asrwt>
<pdfrwt beam="1">  1        2 0.18508515E+00 0.14370270E+04</pdfrwt>
<pdfrwt beam="2">  1       -1 0.66019403E-01 0.14370270E+04</pdfrwt>
<totfact> 0.48544530E+01</totfact>
</mgrwt>
</event>
<event>
12    6  0.9491186E-008  0.1469749E+04  0.7818608E-02  0.8904823E-01
         -1   -1    0    0    0  501 -0.00000000000E+00  0.00000000000E+00  0.30830869280E+03  0.30830869280E+03  0.00000000000E+00 0.  1.
          2   -1    0    0  501    0  0.00000000000E+00 -0.00000000000E+00 -0.17516224055E+04  0.17516224055E+04  0.00000000000E+00 0. -1.
         24    2    1    2    0    0 -0.35416763294E+03 -0.62825738729E+02 -0.67100222179E+02  0.37546523702E+03  0.84201655151E+02 0.  0.
        254    2    1    2    0    0  0.35416763294E+03  0.62825738729E+02 -0.13762134905E+04  0.16844658613E+04  0.90226375337E+03 0.  0.
         23    2    4    4    0    0  0.21098474036E+03 -0.66612341225E+00  0.59313516507E+02  0.23756998350E+03  0.91686419044E+02 0.  0.
         23    2    4    4    0    0  0.14318289258E+03  0.63491862141E+02 -0.14355270070E+04  0.14468958777E+04  0.90759770540E+02 0.  0.
          4    1    3    3  502    0 -0.79472348684E+02  0.14268463488E+02  0.59225527623E+01  0.80959989420E+02  0.00000000000E+00 0. -1.
         -3    1    3    3    0  502 -0.27469528425E+03 -0.77094202217E+02 -0.73022774941E+02  0.29450524760E+03  0.00000000000E+00 0.  1.
         11    1    5    5    0    0  0.56006901489E+02  0.12317491328E+02  0.58680243273E+02  0.82047940606E+02  0.00000000000E+00 0. -1.
        -11    1    5    5    0    0  0.15497783887E+03 -0.12983614740E+02  0.63327323386E+00  0.15552204290E+03  0.00000000000E+00 0.  1.
          3    1    6    6  503    0  0.12484511562E+03  0.61087277864E+02 -0.86715695264E+03  0.87822499333E+03  0.00000000000E+00 0. -1.
         -3    1    6    6    0  503  0.18337776960E+02  0.24045842775E+01 -0.56837005436E+03  0.56867088442E+03  0.00000000000E+00 0.  1.
<mgrwt>
<rscale>  0 0.14697488E+04</rscale>
<asrwt>0</asrwt>
<pdfrwt beam="1">  1        2 0.26948036E+00 0.14697488E+04</pdfrwt>
<pdfrwt beam="2">  1       -1 0.47432108E-01 0.14697488E+04</pdfrwt>
<totfact> 0.44923931E+01</totfact>
</mgrwt>
</event>
<event>
12    6  0.9491186E-008  0.1522908E+04  0.7818608E-02  0.8869360E-01
         -1   -1    0    0    0  501 -0.00000000000E+00  0.00000000000E+00  0.56055651013E+03  0.56055651013E+03  0.00000000000E+00 0.  1.
          2   -1    0    0  501    0  0.00000000000E+00 -0.00000000000E+00 -0.10343514261E+04  0.10343514261E+04  0.00000000000E+00 0. -1.
         24    2    1    2    0    0  0.83232539505E+02 -0.34011404731E+03  0.20602604365E+03  0.41396351222E+03  0.79459662568E+02 0.  0.
        254    2    1    2    0    0 -0.83232539505E+02  0.34011404731E+03 -0.67982095957E+03  0.11809444240E+04  0.89992664958E+03 0.  0.
         23    2    4    4    0    0 -0.35378993057E+03  0.34901842036E+03 -0.73331842035E+03  0.89064362232E+03  0.92244152243E+02 0.  0.
         23    2    4    4    0    0  0.27055739106E+03 -0.89043730518E+01  0.53497460780E+02  0.29030080165E+03  0.90177532742E+02 0.  0.
          2    1    3    3  502    0  0.19199757896E+01 -0.64487324000E+02  0.80891124758E+01  0.65021035092E+02  0.00000000000E+00 0. -1.
         -1    1    3    3    0  502  0.81312563715E+02 -0.27562672331E+03  0.19793693117E+03  0.34894247713E+03  0.00000000000E+00 0.  1.
         11    1    5    5    0    0 -0.35224849084E+03  0.34903857623E+03 -0.73604743753E+03  0.88750929983E+03  0.00000000000E+00 0.  1.
        -11    1    5    5    0    0 -0.15414397243E+01 -0.20155868332E-01  0.27290171763E+01  0.31343224836E+01  0.00000000000E+00 0. -1.
          1    1    6    6  503    0  0.17501715516E+03  0.22776856104E+02  0.38932482226E+00  0.17649345978E+03  0.00000000000E+00 0. -1.
         -1    1    6    6    0  503  0.95540235907E+02 -0.31681229156E+02  0.53108135958E+02  0.11380734187E+03  0.00000000000E+00 0.  1.
<mgrwt>
<rscale>  0 0.15229083E+04</rscale>
<asrwt>0</asrwt>
<pdfrwt beam="1">  1        2 0.15913099E+00 0.15229083E+04</pdfrwt>
<pdfrwt beam="2">  1       -1 0.86239464E-01 0.15229083E+04</pdfrwt>
<totfact> 0.34964727E+01</totfact>
</mgrwt>
</event>
<event>
12    6  0.9491186E-008  0.1186683E+04  0.7818608E-02  0.9124593E-01
          4   -1    0    0  501    0  0.00000000000E+00  0.00000000000E+00  0.29949060232E+03  0.29949060232E+03  0.00000000000E+00 0. -1.
         -3   -1    0    0    0  501 -0.00000000000E+00 -0.00000000000E+00 -0.11755102658E+04  0.11755102658E+04  0.00000000000E+00 0.  1.
         24    2    1    2    0    0 -0.16684925634E+03  0.15146391629E+03 -0.95216915447E+02  0.25718344615E+03  0.79354090699E+02 0.  0.
        254    2    1    2    0    0  0.16684925634E+03 -0.15146391629E+03 -0.78080274807E+03  0.12178174220E+04  0.90699853896E+03 0.  0.
         23    2    4    4    0    0  0.21539457671E+03 -0.29440194125E+03 -0.91965633761E+03  0.99349059631E+03  0.90490104277E+02 0.  0.
         23    2    4    4    0    0 -0.48545320371E+02  0.14293802496E+03  0.13885358954E+03  0.22432682569E+03  0.90853058775E+02 0.  0.
          2    1    3    3  502    0 -0.12067370988E+03  0.66179888294E+02 -0.31639822914E+02  0.14121968795E+03  0.00000000000E+00 0. -1.
         -1    1    3    3    0  502 -0.46175546455E+02  0.85284027996E+02 -0.63577092533E+02  0.11596375820E+03  0.00000000000E+00 0.  1.
         11    1    5    5    0    0  0.81326423359E+02 -0.51484972109E+02 -0.19313071948E+03  0.21578731264E+03  0.00000000000E+00 0. -1.
        -11    1    5    5    0    0  0.13406815335E+03 -0.24291696914E+03 -0.72652561813E+03  0.77770328368E+03  0.00000000000E+00 0.  1.
          2    1    6    6  503    0  0.16092635799E+02  0.70435590405E+00  0.29549290217E+02  0.33654562789E+02  0.00000000000E+00 0. -1.
         -2    1    6    6    0  503 -0.64637956170E+02  0.14223366906E+03  0.10930429932E+03  0.19067226291E+03  0.00000000000E+00 0.  1.
<mgrwt>
<rscale>  0 0.11866832E+04</rscale>
<asrwt>0</asrwt>
<pdfrwt beam="1">  1        4 0.46075477E-01 0.11866832E+04</pdfrwt>
<pdfrwt beam="2">  1       -3 0.18084774E+00 0.11866832E+04</pdfrwt>
<totfact> 0.20163804E+00</totfact>
</mgrwt>
</event>
<event>
12    6  0.9491186E-008  0.2943203E+04  0.7818608E-02  0.8260138E-01
          2   -1    0    0  501    0  0.00000000000E+00  0.00000000000E+00  0.46843281978E+04  0.46843281978E+04  0.00000000000E+00 0. -1.
         -3   -1    0    0    0  501 -0.00000000000E+00 -0.00000000000E+00 -0.46230981471E+03  0.46230981471E+03  0.00000000000E+00 0.  1.
         24    2    1    2    0    0  0.71325303952E+03  0.10946570589E+04  0.14610343621E+04  0.19616454597E+04  0.80171859707E+02 0.  0.
        254    2    1    2    0    0 -0.71325303952E+03 -0.10946570589E+04  0.27609840210E+04  0.31849925529E+04  0.90229752439E+03 0.  0.
         23    2    4    4    0    0 -0.22023378761E+03 -0.25432596239E+03  0.11956271893E+03  0.36813905744E+03  0.89702316032E+02 0.  0.
         23    2    4    4    0    0 -0.49301925191E+03 -0.84033109654E+03  0.26414213021E+04  0.28168534954E+04  0.91284090076E+02 0.  0.
          2    1    3    3  502    0  0.16971702202E+03  0.29011400801E+03  0.33015919636E+03  0.47114233534E+03  0.00000000000E+00 0. -1.
         -1    1    3    3    0  502  0.54353601750E+03  0.80454305092E+03  0.11308751657E+04  0.14905031243E+04  0.00000000000E+00 0.  1.
         11    1    5    5    0    0 -0.36753015393E+02 -0.52553067938E+02 -0.12159724175E+02  0.65272260434E+02  0.00000000000E+00 0.  1.
        -11    1    5    5    0    0 -0.18348077222E+03 -0.20177289445E+03  0.13172244311E+03  0.30286679700E+03  0.00000000000E+00 0. -1.
          3    1    6    6  503    0 -0.12642730158E+03 -0.29655518771E+03  0.90688894414E+03  0.96248449283E+03  0.00000000000E+00 0. -1.
         -3    1    6    6    0  503 -0.36659195033E+03 -0.54377590883E+03  0.17345323579E+04  0.18543690026E+04  0.00000000000E+00 0.  1.
<mgrwt>
<rscale>  0 0.29432029E+04</rscale>
<asrwt>0</asrwt>
<pdfrwt beam="1">  1        2 0.72066584E+00 0.29432029E+04</pdfrwt>
<pdfrwt beam="2">  1       -3 0.71124590E-01 0.29432029E+04</pdfrwt>
<totfact> 0.83430698E-02</totfact>
</mgrwt>
</event>
<event>
12    6  0.9491186E-008  0.1573080E+04  0.7818608E-02  0.8837259E-01
          2   -1    0    0  501    0  0.00000000000E+00  0.00000000000E+00  0.16838281909E+04  0.16838281909E+04  0.00000000000E+00 0. -1.
         -1   -1    0    0    0  501 -0.00000000000E+00 -0.00000000000E+00 -0.36740404122E+03  0.36740404122E+03  0.00000000000E+00 0.  1.
         24    2    1    2    0    0 -0.15661398608E+03  0.45332678231E+03  0.70014421901E+03  0.85243438745E+03  0.80058386762E+02 0.  0.
        254    2    1    2    0    0  0.15661398608E+03 -0.45332678231E+03  0.61627993064E+03  0.11987978446E+04  0.90955055232E+03 0.  0.
         23    2    4    4    0    0 -0.96601829823E+02 -0.38275623859E+03  0.77784686729E+03  0.87692890494E+03  0.90134919227E+02 0.  0.
         23    2    4    4    0    0  0.25321581591E+03 -0.70570543716E+02 -0.16156693665E+03  0.32186893971E+03  0.91636718970E+02 0.  0.
          2    1    3    3  502    0 -0.13899611391E+03  0.35005632686E+03  0.59363526552E+03  0.70303782268E+03  0.00000000000E+00 0. -1.
         -1    1    3    3    0  502 -0.17617872175E+02  0.10327045545E+03  0.10650895349E+03  0.14939656476E+03  0.00000000000E+00 0.  1.
         11    1    5    5    0    0 -0.53215814806E+02 -0.11749736580E+03  0.18004117749E+03  0.22147771785E+03  0.00000000000E+00 0. -1.
        -11    1    5    5    0    0 -0.43386015017E+02 -0.26525887280E+03  0.59780568980E+03  0.65545118709E+03  0.00000000000E+00 0.  1.
          4    1    6    6  503    0  0.13556446009E+03  0.54043202048E+01 -0.57340221059E+02  0.14729165105E+03  0.00000000000E+00 0. -1.
         -4    1    6    6    0  503  0.11765135581E+03 -0.75974863920E+02 -0.10422671559E+03  0.17457728866E+03  0.00000000000E+00 0.  1.
<mgrwt>
<rscale>  0 0.15730801E+04</rscale>
<asrwt>0</asrwt>
<pdfrwt beam="1">  1        2 0.25905049E+00 0.15730801E+04</pdfrwt>
<pdfrwt beam="2">  1       -1 0.56523699E-01 0.15730801E+04</pdfrwt>
<totfact> 0.34718987E+01</totfact>
</mgrwt>
</event>
<event>
12    6  0.9491186E-008  0.2309522E+04  0.7818608E-02  0.8474176E-01
          2   -1    0    0  501    0  0.00000000000E+00  0.00000000000E+00  0.13887269159E+04  0.13887269159E+04  0.00000000000E+00 0. -1.
         -1   -1    0    0    0  501 -0.00000000000E+00 -0.00000000000E+00 -0.96021210772E+03  0.96021210772E+03  0.00000000000E+00 0.  1.
         24    2    1    2    0    0  0.12543793914E+03 -0.39848201418E+03  0.10787396855E+04  0.11593660719E+04  0.76992125199E+02 0.  0.
        254    2    1    2    0    0 -0.12543793914E+03  0.39848201418E+03 -0.65022487734E+03  0.11895729517E+04  0.90430571388E+03 0.  0.
         23    2    4    4    0    0  0.30978494091E+03 -0.86611162143E+02 -0.17090184099E+03  0.37566507662E+03  0.91916307133E+02 0.  0.
         23    2    4    4    0    0 -0.43522288005E+03  0.48509317632E+03 -0.47932303635E+03  0.81390787511E+03  0.89225057864E+02 0.  0.
          4    1    3    3  502    0  0.61162789391E+02 -0.24866961055E+03  0.74825309628E+03  0.79086039104E+03  0.00000000000E+00 0. -1.
         -3    1    3    3    0  502  0.64275149751E+02 -0.14981240363E+03  0.33048658922E+03  0.36850568084E+03  0.00000000000E+00 0.  1.
         11    1    5    5    0    0 -0.34523200671E+01  0.62973506806E+01 -0.74026507012E+01  0.10313795463E+02  0.00000000000E+00 0. -1.
        -11    1    5    5    0    0  0.31323726097E+03 -0.92908512824E+02 -0.16349919029E+03  0.36535128116E+03  0.00000000000E+00 0.  1.
          1    1    6    6  503    0 -0.39368840926E+02  0.46775216714E+02 -0.81189690843E+02  0.10163460254E+03  0.00000000000E+00 0. -1.
         -1    1    6    6    0  503 -0.39585403912E+03  0.43831795961E+03 -0.39813334550E+03  0.71227327256E+03  0.00000000000E+00 0.  1.
<mgrwt>
<rscale>  0 0.23095215E+04</rscale>
<asrwt>0</asrwt>
<pdfrwt beam="1">  1        2 0.21365029E+00 0.23095215E+04</pdfrwt>
<pdfrwt beam="2">  1       -1 0.14772494E+00 0.23095215E+04</pdfrwt>
<totfact> 0.55119529E+00</totfact>
</mgrwt>
</event>
<event>
12    6  0.9491186E-008  0.1801672E+04  0.7818608E-02  0.8705411E-01
          2   -1    0    0  501    0  0.00000000000E+00  0.00000000000E+00  0.24031829458E+04  0.24031829458E+04  0.00000000000E+00 0. -1.
         -1   -1    0    0    0  501 -0.00000000000E+00 -0.00000000000E+00 -0.33767929686E+03  0.33767929686E+03  0.00000000000E+00 0.  1.
         24    2    1    2    0    0 -0.34089016292E+03 -0.41008469577E+03  0.14187886600E+04  0.15178786849E+04  0.81356495838E+02 0.  0.
        254    2    1    2    0    0  0.34089016292E+03  0.41008469577E+03  0.64671498894E+03  0.12229835578E+04  0.89054643045E+03 0.  0.
         23    2    4    4    0    0 -0.23414320591E+03  0.29070228016E+03  0.63000544594E+02  0.38986549478E+03  0.93247942769E+02 0.  0.
         23    2    4    4    0    0  0.57503336883E+03  0.11938241561E+03  0.58371444434E+03  0.83311806300E+03  0.91910923918E+02 0.  0.
          4    1    3    3  502    0 -0.33173093321E+03 -0.41308724503E+03  0.13939315128E+04  0.14912181418E+04  0.00000000000E+00 0. -1.
         -3    1    3    3    0  502 -0.91592297045E+01  0.30025492597E+01  0.24857147183E+02  0.26660543072E+02  0.00000000000E+00 0.  1.
         11    1    5    5    0    0 -0.16928711932E+03  0.24274858915E+03  0.15707572346E+02  0.29636419172E+03  0.00000000000E+00 0.  1.
        -11    1    5    5    0    0 -0.64856086594E+02  0.47953691011E+02  0.47292972247E+02  0.93501303059E+02  0.00000000000E+00 0. -1.
          4    1    6    6  503    0  0.16828872423E+02  0.21648955007E+02  0.21417931610E+02  0.34793907432E+02  0.00000000000E+00 0. -1.
         -4    1    6    6    0  503  0.55820449640E+03  0.97733460598E+02  0.56229651273E+03  0.79832415556E+03  0.00000000000E+00 0.  1.
<mgrwt>
<rscale>  0 0.18016716E+04</rscale>
<asrwt>0</asrwt>
<pdfrwt beam="1">  1        2 0.36972044E+00 0.18016716E+04</pdfrwt>
<pdfrwt beam="2">  1       -1 0.51950663E-01 0.18016716E+04</pdfrwt>
<totfact> 0.15885736E+01</totfact>
</mgrwt>
</event>
<event>
12    6  0.9491186E-008  0.1412443E+04  0.7818608E-02  0.8944861E-01
          2   -1    0    0  501    0  0.00000000000E+00  0.00000000000E+00  0.18878369228E+04  0.18878369228E+04  0.00000000000E+00 0. -1.
         -1   -1    0    0    0  501 -0.00000000000E+00 -0.00000000000E+00 -0.26419048672E+03  0.26419048672E+03  0.00000000000E+00 0.  1.
         24    2    1    2    0    0  0.11624441095E+03  0.91027877792E+00  0.11055861353E+04  0.11146355162E+04  0.81105114533E+02 0.  0.
        254    2    1    2    0    0 -0.11624441095E+03 -0.91027877792E+00  0.51806030077E+03  0.10373918934E+04  0.89122492867E+03 0.  0.
         23    2    4    4    0    0 -0.34248168673E+03  0.18930291314E+03 -0.33912263787E+02  0.40401606988E+03  0.94602560317E+02 0.  0.
         23    2    4    4    0    0  0.22623727578E+03 -0.19021319192E+03  0.55197256455E+03  0.63337582347E+03  0.95534592712E+02 0.  0.
          4    1    3    3  502    0  0.98883461875E+02  0.18604175319E+02  0.10338994961E+04  0.10387840115E+04  0.00000000000E+00 0. -1.
         -3    1    3    3    0  502  0.17360949076E+02 -0.17693896541E+02  0.71686639201E+02  0.75851504716E+02  0.00000000000E+00 0.  1.
         11    1    5    5    0    0 -0.22679340829E+03  0.72310455080E+02 -0.18311571973E+02  0.23874539917E+03  0.00000000000E+00 0. -1.
        -11    1    5    5    0    0 -0.11568827844E+03  0.11699245806E+03 -0.15600691814E+02  0.16527067071E+03  0.00000000000E+00 0.  1.
          4    1    6    6  503    0  0.23300035437E+02 -0.43403292941E+02  0.40146544138E+02  0.63549055821E+02  0.00000000000E+00 0.  1.
         -4    1    6    6    0  503  0.20293724034E+03 -0.14680989898E+03  0.51182602041E+03  0.56982676765E+03  0.00000000000E+00 0. -1.
<mgrwt>
<rscale>  0 0.14124426E+04</rscale>
<asrwt>0</asrwt>
<pdfrwt beam="1">  1        2 0.29043644E+00 0.14124426E+04</pdfrwt>
<pdfrwt beam="2">  1       -1 0.40644692E-01 0.14124426E+04</pdfrwt>
<totfact> 0.50545660E+01</totfact>
</mgrwt>
</event>
<event>
12    6  0.9491186E-008  0.1603401E+04  0.7818608E-02  0.8818461E-01
          2   -1    0    0  501    0  0.00000000000E+00  0.00000000000E+00  0.23509325183E+04  0.23509325183E+04  0.00000000000E+00 0. -1.
         -1   -1    0    0    0  501 -0.00000000000E+00 -0.00000000000E+00 -0.27339106712E+03  0.27339106712E+03  0.00000000000E+00 0.  1.
         24    2    1    2    0    0  0.31859383695E+03  0.40049275946E+03  0.10333993941E+04  0.11558979296E+04  0.79304682772E+02 0.  0.
        254    2    1    2    0    0 -0.31859383695E+03 -0.40049275946E+03  0.10441420571E+04  0.14684256558E+04  0.89674120452E+03 0.  0.
         23    2    4    4    0    0 -0.19403210799E+03 -0.64658950599E+03  0.93650838699E+03  0.11583979212E+04  0.95453322073E+02 0.  0.
         23    2    4    4    0    0 -0.12456172896E+03  0.24609674652E+03  0.10763367015E+03  0.31002773466E+03  0.91939960489E+02 0.  0.
          4    1    3    3  502    0  0.91661687446E+02  0.17598893276E+03  0.37986504642E+03  0.42856904099E+03  0.00000000000E+00 0. -1.
         -3    1    3    3    0  502  0.22693214951E+03  0.22450382670E+03  0.65353434766E+03  0.72732888864E+03  0.00000000000E+00 0.  1.
         11    1    5    5    0    0 -0.20395853470E+03 -0.62487063908E+03  0.89396287249E+03  0.11096089477E+04  0.00000000000E+00 0.  1.
        -11    1    5    5    0    0  0.99264267137E+01 -0.21718866911E+02  0.42545514497E+02  0.48788973457E+02  0.00000000000E+00 0. -1.
          3    1    6    6  503    0 -0.43804571580E+02  0.27734470601E+02  0.45703033464E+02  0.69114460271E+02  0.00000000000E+00 0. -1.
         -3    1    6    6    0  503 -0.80757157384E+02  0.21836227592E+03  0.61930636688E+02  0.24091327439E+03  0.00000000000E+00 0.  1.
<mgrwt>
<rscale>  0 0.16034013E+04</rscale>
<asrwt>0</asrwt>
<pdfrwt beam="1">  1        2 0.36168191E+00 0.16034013E+04</pdfrwt>
<pdfrwt beam="2">  1       -1 0.42060166E-01 0.16034013E+04</pdfrwt>
<totfact> 0.25746444E+01</totfact>
</mgrwt>
</event>
<event>
12    6  0.9491186E-008  0.2088860E+04  0.7818608E-02  0.8566166E-01
         -1   -1    0    0    0  501 -0.00000000000E+00  0.00000000000E+00  0.45092051582E+03  0.45092051582E+03  0.00000000000E+00 0.  1.
          2   -1    0    0  501    0  0.00000000000E+00 -0.00000000000E+00 -0.24191274194E+04  0.24191274194E+04  0.00000000000E+00 0. -1.
         24    2    1    2    0    0 -0.66173531205E+03 -0.91926741652E+02 -0.15073809869E+04  0.16507081889E+04  0.79346935306E+02 0.  0.
        254    2    1    2    0    0  0.66173531205E+03  0.91926741652E+02 -0.46082591672E+03  0.12193397464E+04  0.90999161674E+03 0.  0.
         23    2    4    4    0    0 -0.19110829348E+03  0.25268897855E+01  0.47458705164E+02  0.21794105699E+03  0.93366003562E+02 0.  0.
         23    2    4    4    0    0  0.85284360552E+03  0.89399851866E+02 -0.50828462189E+03  0.10013986894E+04  0.95454330770E+02 0.  0.
          2    1    3    3  502    0 -0.56658585863E+03 -0.68889087514E+02 -0.12152235170E+04  0.13425846110E+04  0.00000000000E+00 0. -1.
         -1    1    3    3    0  502 -0.95149453416E+02 -0.23037654137E+02 -0.29215746993E+03  0.30812357786E+03  0.00000000000E+00 0.  1.
         11    1    5    5    0    0  0.78515875283E+01  0.10778137041E+02  0.47887520754E+00  0.13343349889E+02  0.00000000000E+00 0. -1.
        -11    1    5    5    0    0 -0.19895988100E+03 -0.82512472556E+01  0.46979829956E+02  0.20459770711E+03  0.00000000000E+00 0.  1.
          3    1    6    6  503    0  0.66789324937E+03  0.10368376918E+03 -0.37473727347E+03  0.77282581523E+03  0.00000000000E+00 0. -1.
         -3    1    6    6    0  503  0.18495035615E+03 -0.14283917312E+02 -0.13354734841E+03  0.22857287416E+03  0.00000000000E+00 0.  1.
<mgrwt>
<rscale>  0 0.20888602E+04</rscale>
<asrwt>0</asrwt>
<pdfrwt beam="1">  1        2 0.37217345E+00 0.20888602E+04</pdfrwt>
<pdfrwt beam="2">  1       -1 0.69372387E-01 0.20888602E+04</pdfrwt>
<totfact> 0.85548789E+00</totfact>
</mgrwt>
</event>
<event>
12    6  0.9491186E-008  0.1745536E+04  0.7818608E-02  0.8735811E-01
          2   -1    0    0  501    0  0.00000000000E+00  0.00000000000E+00  0.12534514545E+04  0.12534514545E+04  0.00000000000E+00 0. -1.
         -1   -1    0    0    0  501 -0.00000000000E+00 -0.00000000000E+00 -0.60770102469E+03  0.60770102469E+03  0.00000000000E+00 0.  1.
         24    2    1    2    0    0  0.21597236155E+03  0.59666517695E+03  0.18183639252E+03  0.66471812636E+03  0.78309127988E+02 0.  0.
        254    2    1    2    0    0 -0.21597236155E+03 -0.59666517695E+03  0.46391403728E+03  0.11964343528E+04  0.90198976286E+03 0.  0.
         23    2    4    4    0    0 -0.51440042040E+03 -0.31060218773E+03  0.47719567308E+03  0.77283592913E+03  0.92076877742E+02 0.  0.
         23    2    4    4    0    0  0.29842805885E+03 -0.28606298922E+03 -0.13281635804E+02  0.42359842370E+03  0.91476131327E+02 0.  0.
          2    1    3    3  502    0  0.11691173888E+03  0.40771580990E+03  0.96797207100E+02  0.43505199187E+03  0.00000000000E+00 0. -1.
         -1    1    3    3    0  502  0.99060622670E+02  0.18894936705E+03  0.85039185424E+02  0.22966613449E+03  0.00000000000E+00 0.  1.
         11    1    5    5    0    0 -0.21024303596E+03 -0.87888232543E+02  0.14282303755E+03  0.26893288316E+03  0.00000000000E+00 0. -1.
        -11    1    5    5    0    0 -0.30415738443E+03 -0.22271395519E+03  0.33437263553E+03  0.50390304597E+03  0.00000000000E+00 0.  1.
          1    1    6    6  503    0  0.26190350103E+03 -0.22129476750E+03  0.17031278197E+02  0.34329998895E+03  0.00000000000E+00 0. -1.
         -1    1    6    6    0  503  0.36524557819E+02 -0.64768221717E+02 -0.30312914002E+02  0.80298434752E+02  0.00000000000E+00 0.  1.
<mgrwt>
<rscale>  0 0.17455357E+04</rscale>
<asrwt>0</asrwt>
<pdfrwt beam="1">  1        2 0.19283868E+00 0.17455357E+04</pdfrwt>
<pdfrwt beam="2">  1       -1 0.93492466E-01 0.17455357E+04</pdfrwt>
<totfact> 0.21124088E+01</totfact>
</mgrwt>
</event>
<event>
12    6  0.9491186E-008  0.1605977E+04  0.7818608E-02  0.8816884E-01
         -1   -1    0    0    0  501 -0.00000000000E+00  0.00000000000E+00  0.24145122867E+03  0.24145122867E+03  0.00000000000E+00 0.  1.
          2   -1    0    0  501    0  0.00000000000E+00 -0.00000000000E+00 -0.26704805228E+04  0.26704805228E+04  0.00000000000E+00 0. -1.
         24    2    1    2    0    0 -0.67922027143E+02  0.36046473347E+01 -0.18085879255E+04  0.18116049839E+04  0.79346948610E+02 0.  0.
        254    2    1    2    0    0  0.67922027143E+02 -0.36046473347E+01 -0.62044136861E+03  0.11003267675E+04  0.90617057346E+03 0.  0.
         23    2    4    4    0    0  0.42547253432E+03 -0.65061136550E+02 -0.83627275251E+02  0.44609998611E+03  0.82169626333E+02 0.  0.
         23    2    4    4    0    0 -0.35755050718E+03  0.61456489216E+02 -0.53681409336E+03  0.65422678142E+03  0.90686522974E+02 0.  0.
          2    1    3    3  502    0 -0.75066678903E+02 -0.21181943890E+02 -0.14446023676E+04  0.14467064946E+04  0.00000000000E+00 0. -1.
         -1    1    3    3    0  502  0.71446517594E+01  0.24786591225E+02 -0.36398555784E+03  0.36489848927E+03  0.00000000000E+00 0.  1.
         11    1    5    5    0    0  0.42908693922E+03 -0.65925013058E+02 -0.84532038099E+02  0.44227522452E+03  0.00000000000E+00 0.  1.
        -11    1    5    5    0    0 -0.36144049024E+01  0.86387650804E+00  0.90476284767E+00  0.38247615913E+01  0.00000000000E+00 0. -1.
          4    1    6    6  503    0 -0.52720872865E+02  0.26842623088E+02 -0.14492943808E+03  0.15653932053E+03  0.00000000000E+00 0. -1.
         -4    1    6    6    0  503 -0.30482963431E+03  0.34613866128E+02 -0.39188465527E+03  0.49768746088E+03  0.00000000000E+00 0.  1.
<mgrwt>
<rscale>  0 0.16059773E+04</rscale>
<asrwt>0</asrwt>
<pdfrwt beam="1">  1        2 0.41084315E+00 0.16059773E+04</pdfrwt>
<pdfrwt beam="2">  1       -1 0.37146344E-01 0.16059773E+04</pdfrwt>
<totfact> 0.21103351E+01</totfact>
</mgrwt>
</event>
<event>
12    6  0.9491186E-008  0.1907364E+04  0.7818608E-02  0.8651200E-01
         -1   -1    0    0    0  501 -0.00000000000E+00  0.00000000000E+00  0.96029429541E+03  0.96029429541E+03  0.00000000000E+00 0.  1.
          2   -1    0    0  501    0  0.00000000000E+00 -0.00000000000E+00 -0.94711474438E+03  0.94711474438E+03  0.00000000000E+00 0. -1.
         24    2    1    2    0    0 -0.14276278036E+03  0.41919930178E+03 -0.56146718327E+03  0.72026053884E+03  0.86142787527E+02 0.  0.
        254    2    1    2    0    0  0.14276278036E+03 -0.41919930178E+03  0.57464673431E+03  0.11871485010E+04  0.93967729992E+03 0.  0.
         23    2    4    4    0    0  0.19968039352E+03 -0.60055850119E+03  0.73035932726E+02  0.64321528358E+03  0.88593908691E+02 0.  0.
         23    2    4    4    0    0 -0.56917613160E+02  0.18135919941E+03  0.50161080158E+03  0.54393321737E+03  0.90106463696E+02 0.  0.
          2    1    3    3  502    0 -0.75937641600E+02  0.25365342227E+03 -0.26785188664E+03  0.37663140763E+03  0.00000000000E+00 0. -1.
         -1    1    3    3    0  502 -0.66825138758E+02  0.16554587951E+03 -0.29361529663E+03  0.34362913120E+03  0.00000000000E+00 0.  1.
         11    1    5    5    0    0  0.86768393733E+02 -0.39588399726E+03  0.43845619119E+02  0.40764608640E+03  0.00000000000E+00 0.  1.
        -11    1    5    5    0    0  0.11291199978E+03 -0.20467450393E+03  0.29190313607E+02  0.23556919718E+03  0.00000000000E+00 0. -1.
          3    1    6    6  503    0 -0.46889222691E+02  0.24530592294E+02  0.11431469261E+03  0.12596903631E+03  0.00000000000E+00 0. -1.
         -3    1    6    6    0  503 -0.10028390469E+02  0.15682860711E+03  0.38729610897E+03  0.41796418106E+03  0.00000000000E+00 0.  1.
<mgrwt>
<rscale>  0 0.19073635E+04</rscale>
<asrwt>0</asrwt>
<pdfrwt beam="1">  1        2 0.14570996E+00 0.19073635E+04</pdfrwt>
<pdfrwt beam="2">  1       -1 0.14773758E+00 0.19073635E+04</pdfrwt>
<totfact> 0.10585357E+01</totfact>
</mgrwt>
</event>
<event>
12    6  0.9491186E-008  0.1505412E+04  0.7818608E-02  0.8880862E-01
         -1   -1    0    0    0  501 -0.00000000000E+00  0.00000000000E+00  0.26020796980E+03  0.26020796980E+03  0.00000000000E+00 0.  1.
          2   -1    0    0  501    0  0.00000000000E+00 -0.00000000000E+00 -0.21773586116E+04  0.21773586116E+04  0.00000000000E+00 0. -1.
         24    2    1    2    0    0  0.11671393062E+03  0.46357077467E+03 -0.66460680398E+03  0.82261189453E+03  0.80424625638E+02 0.  0.
        254    2    1    2    0    0 -0.11671393062E+03 -0.46357077467E+03 -0.12525438378E+04  0.16149546868E+04  0.90038467899E+03 0.  0.
         23    2    4    4    0    0 -0.33441268115E+03 -0.79472485803E+02 -0.10707775566E+04  0.11281515958E+04  0.89519439621E+02 0.  0.
         23    2    4    4    0    0  0.21769875053E+03 -0.38409828887E+03 -0.18176628119E+03  0.48680309102E+03  0.94942229563E+02 0.  0.
          4    1    3    3  502    0  0.94354906426E+02  0.24160917574E+03 -0.31723653704E+03  0.40977660085E+03  0.00000000000E+00 0. -1.
         -3    1    3    3    0  502  0.22359024194E+02  0.22196159893E+03 -0.34737026694E+03  0.41283529369E+03  0.00000000000E+00 0.  1.
         11    1    5    5    0    0 -0.26951047246E+03 -0.54335045458E+02 -0.72369357138E+03  0.77415797947E+03  0.00000000000E+00 0. -1.
        -11    1    5    5    0    0 -0.64902208690E+02 -0.25137440345E+02 -0.34708398522E+03  0.35399361633E+03  0.00000000000E+00 0.  1.
          2    1    6    6  503    0  0.12113715052E+03 -0.19191801198E+03 -0.14304581123E+03  0.26827008158E+03  0.00000000000E+00 0. -1.
         -2    1    6    6    0  503  0.96561600013E+02 -0.19218027689E+03 -0.38720469951E+02  0.21853300944E+03  0.00000000000E+00 0.  1.
<mgrwt>
<rscale>  0 0.15054117E+04</rscale>
<asrwt>0</asrwt>
<pdfrwt beam="1">  1        2 0.33497826E+00 0.15054117E+04</pdfrwt>
<pdfrwt beam="2">  1       -1 0.40031994E-01 0.15054117E+04</pdfrwt>
<totfact> 0.35610621E+01</totfact>
</mgrwt>
</event>
<event>
12    6  0.9491186E-008  0.1586272E+04  0.7818608E-02  0.8829026E-01
          2   -1    0    0  501    0  0.00000000000E+00  0.00000000000E+00  0.18511655840E+04  0.18511655840E+04  0.00000000000E+00 0. -1.
         -1   -1    0    0    0  501 -0.00000000000E+00 -0.00000000000E+00 -0.33982097789E+03  0.33982097789E+03  0.00000000000E+00 0.  1.
         24    2    1    2    0    0  0.20744991094E+03  0.35058982492E+03  0.12089245857E+04  0.12781718620E+04  0.79220981167E+02 0.  0.
        254    2    1    2    0    0 -0.20744991094E+03 -0.35058982492E+03  0.30242002037E+03  0.91281469992E+03  0.75883075635E+03 0.  0.
         23    2    4    4    0    0 -0.19924216197E+02  0.86847895648E+02  0.39898587175E+03  0.41889567536E+03  0.91347302163E+02 0.  0.
         23    2    4    4    0    0 -0.18752569474E+03 -0.43743772056E+03 -0.96565851382E+02  0.49391902456E+03  0.90074378181E+02 0.  0.
          4    1    3    3  502    0  0.13250647544E+03  0.28686726261E+03  0.89084061245E+03  0.94522367151E+03  0.00000000000E+00 0. -1.
         -3    1    3    3    0  502  0.74943435500E+02  0.63722562307E+02  0.31808397328E+03  0.33294819046E+03  0.00000000000E+00 0.  1.
         11    1    5    5    0    0  0.27092063459E+02  0.61705501280E+02  0.28783363066E+03  0.29561757006E+03  0.00000000000E+00 0. -1.
        -11    1    5    5    0    0 -0.47016279656E+02  0.25142394368E+02  0.11115224109E+03  0.12327810530E+03  0.00000000000E+00 0.  1.
          1    1    6    6  503    0 -0.10232686176E+03 -0.15408425260E+03 -0.83163418663E+01  0.18515373363E+03  0.00000000000E+00 0. -1.
         -1    1    6    6    0  503 -0.85198832986E+02 -0.28335346796E+03 -0.88249509516E+02  0.30876529092E+03  0.00000000000E+00 0.  1.
<mgrwt>
<rscale>  0 0.15862722E+04</rscale>
<asrwt>0</asrwt>
<pdfrwt beam="1">  1        2 0.28479470E+00 0.15862722E+04</pdfrwt>
<pdfrwt beam="2">  1       -1 0.52280151E-01 0.15862722E+04</pdfrwt>
<totfact> 0.32572162E+01</totfact>
</mgrwt>
</event>
<event>
12    6  0.9491186E-008  0.1642162E+04  0.7818608E-02  0.8795057E-01
          2   -1    0    0  501    0  0.00000000000E+00  0.00000000000E+00  0.86928766794E+03  0.86928766794E+03  0.00000000000E+00 0. -1.
         -1   -1    0    0    0  501 -0.00000000000E+00 -0.00000000000E+00 -0.77554723269E+03  0.77554723269E+03  0.00000000000E+00 0.  1.
         24    2    1    2    0    0  0.53273142640E+02  0.55003896948E+03  0.11523973230E+03  0.57157760520E+03  0.89665306481E+02 0.  0.
        254    2    1    2    0    0 -0.53273142640E+02 -0.55003896948E+03 -0.21499297047E+02  0.10732572954E+04  0.91980329786E+03 0.  0.
         23    2    4    4    0    0 -0.34052272808E+03 -0.24154289959E+03 -0.33285271355E+03  0.54167551792E+03  0.91229036596E+02 0.  0.
         23    2    4    4    0    0  0.28724958544E+03 -0.30849606989E+03  0.31135341650E+03  0.53158177752E+03  0.89196898762E+02 0.  0.
          2    1    3    3  502    0  0.18631620229E+02  0.24059447666E+02  0.18625027554E+02  0.35677527181E+02  0.00000000000E+00 0. -1.
         -1    1    3    3    0  502  0.34641522411E+02  0.52597952181E+03  0.96614704749E+02  0.53590007802E+03  0.00000000000E+00 0.  1.
         11    1    5    5    0    0 -0.21900700178E+03 -0.12689134498E+03 -0.24774946450E+03  0.35418254815E+03  0.00000000000E+00 0. -1.
        -11    1    5    5    0    0 -0.12151572630E+03 -0.11465155461E+03 -0.85103249048E+02  0.18749296977E+03  0.00000000000E+00 0.  1.
          2    1    6    6  503    0  0.14945065801E+03 -0.17364362491E+03  0.22222317142E+03  0.31917196864E+03  0.00000000000E+00 0. -1.
         -2    1    6    6    0  503  0.13779892743E+03 -0.13485244499E+03  0.89130245080E+02  0.21240980888E+03  0.00000000000E+00 0.  1.
<mgrwt>
<rscale>  0 0.16421616E+04</rscale>
<asrwt>0</asrwt>
<pdfrwt beam="1">  1        2 0.13373656E+00 0.16421616E+04</pdfrwt>
<pdfrwt beam="2">  1       -1 0.11931496E+00 0.16421616E+04</pdfrwt>
<totfact> 0.21083573E+01</totfact>
</mgrwt>
</event>
<event>
12    6  0.9491186E-008  0.2416671E+04  0.7818608E-02  0.8433289E-01
         -1   -1    0    0    0  501 -0.00000000000E+00  0.00000000000E+00  0.31743328383E+03  0.31743328383E+03  0.00000000000E+00 0.  1.
          2   -1    0    0  501    0  0.00000000000E+00 -0.00000000000E+00 -0.45996260836E+04  0.45996260836E+04  0.00000000000E+00 0. -1.
         24    2    1    2    0    0 -0.19280538658E+03  0.16852927260E+03  0.20283629645E+03  0.33585672414E+03  0.77981684894E+02 0.  0.
        254    2    1    2    0    0  0.19280538658E+03 -0.16852927260E+03 -0.44850290962E+04  0.45812026433E+04  0.89797306877E+03 0.  0.
         23    2    4    4    0    0  0.93826173550E+02 -0.50509660868E+03 -0.33336991783E+04  0.33743590591E+04  0.93930367355E+02 0.  0.
         23    2    4    4    0    0  0.98979213028E+02  0.33656733609E+03 -0.11513299180E+04  0.12068435842E+04  0.88523444986E+02 0.  0.
          4    1    3    3  502    0 -0.42957444361E+02  0.25690613023E+01  0.22287357512E+02  0.48463062293E+02  0.00000000000E+00 0. -1.
         -3    1    3    3    0  502 -0.14984794222E+03  0.16596021130E+03  0.18054893893E+03  0.28739366185E+03  0.00000000000E+00 0.  1.
         11    1    5    5    0    0  0.61014493329E+02 -0.15130876167E+03 -0.12469161862E+04  0.12575440689E+04  0.00000000000E+00 0. -1.
        -11    1    5    5    0    0  0.32811680221E+02 -0.35378784702E+03 -0.20867829920E+04  0.21168149902E+04  0.00000000000E+00 0.  1.
          1    1    6    6  503    0  0.46352944924E+02  0.90728704635E+02 -0.22479975649E+03  0.24681009677E+03  0.00000000000E+00 0. -1.
         -1    1    6    6    0  503  0.52626268104E+02  0.24583863145E+03 -0.92653016147E+03  0.96003348739E+03  0.00000000000E+00 0.  1.
<mgrwt>
<rscale>  0 0.24166708E+04</rscale>
<asrwt>0</asrwt>
<pdfrwt beam="1">  1        2 0.70763480E+00 0.24166708E+04</pdfrwt>
<pdfrwt beam="2">  1       -1 0.48835889E-01 0.24166708E+04</pdfrwt>
<totfact> 0.42285235E-01</totfact>
</mgrwt>
</event>
<event>
12    6  0.9491186E-008  0.2492622E+04  0.7818608E-02  0.8405619E-01
         -1   -1    0    0    0  501 -0.00000000000E+00  0.00000000000E+00  0.15935214328E+04  0.15935214328E+04  0.00000000000E+00 0.  1.
          2   -1    0    0  501    0  0.00000000000E+00 -0.00000000000E+00 -0.97475356094E+03  0.97475356094E+03  0.00000000000E+00 0. -1.
         24    2    1    2    0    0 -0.36403459272E+03 -0.75760646414E+03 -0.43017569164E+03  0.94769449427E+03  0.81147948854E+02 0.  0.
        254    2    1    2    0    0  0.36403459272E+03  0.75760646414E+03  0.10489435635E+04  0.16205804994E+04  0.90526781483E+03 0.  0.
         23    2    4    4    0    0 -0.68252996957E+02  0.22544387543E+03 -0.10752045048E+03  0.27332153449E+03  0.87524861505E+02 0.  0.
         23    2    4    4    0    0  0.43228758967E+03  0.53216258871E+03  0.11564640139E+04  0.13472589649E+04  0.87339120828E+02 0.  0.
          4    1    3    3  502    0 -0.28341147122E+03 -0.51143084530E+03 -0.28033621931E+03  0.64843809835E+03  0.00000000000E+00 0. -1.
         -3    1    3    3    0  502 -0.80623121499E+02 -0.24617561884E+03 -0.14983947233E+03  0.29925639592E+03  0.00000000000E+00 0.  1.
         11    1    5    5    0    0 -0.67504996040E+02  0.10893446262E+03 -0.25061264147E+02  0.13058219097E+03  0.00000000000E+00 0.  1.
        -11    1    5    5    0    0 -0.74800091722E+00  0.11650941281E+03 -0.82459186336E+02  0.14273934352E+03  0.00000000000E+00 0. -1.
          1    1    6    6  503    0  0.40419652605E+03  0.51113813378E+03  0.11251482151E+04  0.13002290296E+04  0.00000000000E+00 0. -1.
         -1    1    6    6    0  503  0.28091063624E+02  0.21024454921E+02  0.31315798888E+02  0.47029935363E+02  0.00000000000E+00 0.  1.
<mgrwt>
<rscale>  0 0.24926217E+04</rscale>
<asrwt>0</asrwt>
<pdfrwt beam="1">  1        2 0.14996209E+00 0.24926217E+04</pdfrwt>
<pdfrwt beam="2">  1       -1 0.24515714E+00 0.24926217E+04</pdfrwt>
<totfact> 0.19957568E+00</totfact>
</mgrwt>
</event>
<event>
12    6  0.9491186E-008  0.1473362E+04  0.7818608E-02  0.8902362E-01
         -1   -1    0    0    0  501 -0.00000000000E+00  0.00000000000E+00  0.87741969738E+03  0.87741969738E+03  0.00000000000E+00 0.  1.
          2   -1    0    0  501    0  0.00000000000E+00 -0.00000000000E+00 -0.61851716593E+03  0.61851716593E+03  0.00000000000E+00 0. -1.
         24    2    1    2    0    0  0.17201406932E+03  0.30685912818E+03 -0.21857813355E+03  0.42177169891E+03  0.79772181550E+02 0.  0.
        254    2    1    2    0    0 -0.17201406932E+03 -0.30685912818E+03  0.47748066500E+03  0.10741651644E+04  0.89559569581E+03 0.  0.
         23    2    4    4    0    0  0.21238037133E+03 -0.37943697809E+03 -0.71897165139E+01  0.44446960691E+03  0.91780700412E+02 0.  0.
         23    2    4    4    0    0 -0.38439444065E+03  0.72577849914E+02  0.48467038151E+03  0.62969555748E+03  0.92652501862E+02 0.  0.
          2    1    3    3  502    0  0.57699810374E+02  0.13398288391E+03 -0.48700529085E+02  0.15379344209E+03  0.00000000000E+00 0. -1.
         -1    1    3    3    0  502  0.11431425894E+03  0.17287624427E+03 -0.16987760446E+03  0.26797825682E+03  0.00000000000E+00 0.  1.
         11    1    5    5    0    0  0.17693047515E+03 -0.34300454507E+03 -0.33189258904E+02  0.38737325396E+03  0.00000000000E+00 0. -1.
        -11    1    5    5    0    0  0.35449896185E+02 -0.36432433019E+02  0.25999542390E+02  0.57096352946E+02  0.00000000000E+00 0.  1.
          3    1    6    6  503    0 -0.29746315941E+03  0.53560610856E+02  0.30606606333E+03  0.43015056127E+03  0.00000000000E+00 0. -1.
         -3    1    6    6    0  503 -0.86931281236E+02  0.19017239058E+02  0.17860431818E+03  0.19954499621E+03  0.00000000000E+00 0.  1.
<mgrwt>
<rscale>  0 0.14733623E+04</rscale>
<asrwt>0</asrwt>
<pdfrwt beam="1">  1        2 0.95156487E-01 0.14733623E+04</pdfrwt>
<pdfrwt beam="2">  1       -1 0.13498765E+00 0.14733623E+04</pdfrwt>
<totfact> 0.24364483E+01</totfact>
</mgrwt>
</event>
<event>
12    6  0.9491186E-008  0.2094588E+04  0.7818608E-02  0.8563631E-01
         -1   -1    0    0    0  501 -0.00000000000E+00  0.00000000000E+00  0.28558190928E+03  0.28558190928E+03  0.00000000000E+00 0.  1.
          2   -1    0    0  501    0  0.00000000000E+00 -0.00000000000E+00 -0.38406653987E+04  0.38406653987E+04  0.00000000000E+00 0. -1.
         24    2    1    2    0    0 -0.66765795778E+03  0.48539428821E+03 -0.18644978375E+04  0.20405392623E+04  0.77932863931E+02 0.  0.
        254    2    1    2    0    0  0.66765795778E+03 -0.48539428821E+03 -0.16905856519E+04  0.20857080456E+04  0.90040182238E+03 0.  0.
         23    2    4    4    0    0  0.30977269196E+03 -0.69393376187E+03 -0.85227689874E+03  0.11461469096E+04  0.98861719736E+02 0.  0.
         23    2    4    4    0    0  0.35788526582E+03  0.20853947367E+03 -0.83830875313E+03  0.93956113608E+03  0.91885729490E+02 0.  0.
          2    1    3    3  502    0 -0.32671260083E+03  0.25788260784E+03 -0.85244187504E+03  0.94863149499E+03  0.00000000000E+00 0. -1.
         -1    1    3    3    0  502 -0.34094535695E+03  0.22751168036E+03 -0.10120559625E+04  0.10919077673E+04  0.00000000000E+00 0.  1.
         11    1    5    5    0    0  0.29183249277E+03 -0.56265812606E+03 -0.70666844810E+03  0.94927902442E+03  0.00000000000E+00 0. -1.
        -11    1    5    5    0    0  0.17940199190E+02 -0.13127563582E+03 -0.14560845063E+03  0.19686788515E+03  0.00000000000E+00 0.  1.
          1    1    6    6  503    0  0.28630476046E+03  0.14133117874E+03 -0.56255966536E+03  0.64685260688E+03  0.00000000000E+00 0. -1.
         -1    1    6    6    0  503  0.71580505361E+02  0.67208294925E+02 -0.27574908778E+03  0.29270852920E+03  0.00000000000E+00 0.  1.
<mgrwt>
<rscale>  0 0.20945878E+04</rscale>
<asrwt>0</asrwt>
<pdfrwt beam="1">  1        2 0.59087159E+00 0.20945878E+04</pdfrwt>
<pdfrwt beam="2">  1       -1 0.43935679E-01 0.20945878E+04</pdfrwt>
<totfact> 0.24744768E+00</totfact>
</mgrwt>
</event>
<event>
12    6  0.9491186E-008  0.2026690E+04  0.7818608E-02  0.8594243E-01
         -1   -1    0    0    0  501 -0.00000000000E+00  0.00000000000E+00  0.10379438519E+04  0.10379438519E+04  0.00000000000E+00 0.  1.
          2   -1    0    0  501    0  0.00000000000E+00 -0.00000000000E+00 -0.98932910286E+03  0.98932910286E+03  0.00000000000E+00 0. -1.
         24    2    1    2    0    0 -0.34052820704E+02  0.67048137281E+03  0.47312110029E+03  0.82511785732E+03  0.79189879688E+02 0.  0.
        254    2    1    2    0    0  0.34052820704E+02 -0.67048137281E+03 -0.42450635129E+03  0.12021550974E+04  0.90236709274E+03 0.  0.
         23    2    4    4    0    0  0.44439001635E+02  0.21156066039E+03 -0.88299758879E+02  0.25380382559E+03  0.99432371869E+02 0.  0.
         23    2    4    4    0    0 -0.10386180930E+02 -0.88204203320E+03 -0.33620659241E+03  0.94835127182E+03  0.90715163526E+02 0.  0.
          2    1    3    3  502    0  0.22462411885E+02  0.28310752103E+03  0.21507371244E+03  0.35624588446E+03  0.00000000000E+00 0. -1.
         -1    1    3    3    0  502 -0.56515232589E+02  0.38737385178E+03  0.25804738784E+03  0.46887197285E+03  0.00000000000E+00 0.  1.
         11    1    5    5    0    0  0.50213602930E+02  0.21584413420E+03 -0.97516192416E+02  0.24211465046E+03  0.00000000000E+00 0. -1.
        -11    1    5    5    0    0 -0.57746012958E+01 -0.42834738069E+01  0.92164335370E+01  0.11689175126E+02  0.00000000000E+00 0.  1.
          3    1    6    6  503    0  0.49556347510E+01 -0.77417214122E+03 -0.26542791709E+03  0.81842473186E+03  0.00000000000E+00 0. -1.
         -3    1    6    6    0  503 -0.15341815681E+02 -0.10786989198E+03 -0.70778675322E+02  0.12992653995E+03  0.00000000000E+00 0.  1.
<mgrwt>
<rscale>  0 0.20266900E+04</rscale>
<asrwt>0</asrwt>
<pdfrwt beam="1">  1        2 0.15220448E+00 0.20266900E+04</pdfrwt>
<pdfrwt beam="2">  1       -1 0.15968367E+00 0.20266900E+04</pdfrwt>
<totfact> 0.79527883E+00</totfact>
</mgrwt>
</event>
<event>
12    6  0.9491186E-008  0.2812107E+04  0.7818608E-02  0.8299520E-01
          2   -1    0    0  501    0  0.00000000000E+00  0.00000000000E+00  0.11652352215E+04  0.11652352215E+04  0.00000000000E+00 0. -1.
         -1   -1    0    0    0  501 -0.00000000000E+00 -0.00000000000E+00 -0.16966410130E+04  0.16966410130E+04  0.00000000000E+00 0.  1.
         24    2    1    2    0    0  0.10654243959E+04  0.25488143139E+03 -0.85587186076E+03  0.13925490557E+04  0.81132872973E+02 0.  0.
        254    2    1    2    0    0 -0.10654243959E+04 -0.25488143139E+03  0.32446606923E+03  0.14693271788E+04  0.92387793607E+03 0.  0.
         23    2    4    4    0    0 -0.20937411812E+03 -0.17912013614E+03  0.50887530608E+03  0.58578720929E+03  0.90945219315E+02 0.  0.
         23    2    4    4    0    0 -0.85605027777E+03 -0.75761295245E+02 -0.18440923686E+03  0.88353996947E+03  0.89856881186E+02 0.  0.
          4    1    3    3  502    0  0.96772419659E+03  0.22035989888E+03 -0.80033736930E+03  0.12749856903E+04  0.00000000000E+00 0. -1.
         -3    1    3    3    0  502  0.97700199295E+02  0.34521532507E+02 -0.55534491458E+02  0.11756336543E+03  0.00000000000E+00 0.  1.
         11    1    5    5    0    0 -0.92058255533E+02 -0.95561185896E+02  0.15691869366E+03  0.20549973013E+03  0.00000000000E+00 0. -1.
        -11    1    5    5    0    0 -0.11731586258E+03 -0.83558950244E+02  0.35195661242E+03  0.38028747916E+03  0.00000000000E+00 0.  1.
          3    1    6    6  503    0 -0.11602177892E+02 -0.12809223439E+02 -0.31851085674E+01  0.17573606731E+02  0.00000000000E+00 0. -1.
         -3    1    6    6    0  503 -0.84444809987E+03 -0.62952071807E+02 -0.18122412829E+03  0.86596636274E+03  0.00000000000E+00 0.  1.
<mgrwt>
<rscale>  0 0.28121066E+04</rscale>
<asrwt>0</asrwt>
<pdfrwt beam="1">  1        2 0.17926696E+00 0.28121066E+04</pdfrwt>
<pdfrwt beam="2">  1       -1 0.26102169E+00 0.28121066E+04</pdfrwt>
<totfact> 0.11632797E+00</totfact>
</mgrwt>
</event>
<event>
12    6  0.9491186E-008  0.2321456E+04  0.7818608E-02  0.8469509E-01
          2   -1    0    0  501    0  0.00000000000E+00  0.00000000000E+00  0.11702156871E+04  0.11702156871E+04  0.00000000000E+00 0. -1.
         -1   -1    0    0    0  501 -0.00000000000E+00 -0.00000000000E+00 -0.11513172267E+04  0.11513172267E+04  0.00000000000E+00 0.  1.
         24    2    1    2    0    0 -0.73450194892E+03 -0.23170525476E+03  0.62335847681E+03  0.99405180496E+03  0.79892191696E+02 0.  0.
        254    2    1    2    0    0  0.73450194892E+03  0.23170525476E+03 -0.60446001642E+03  0.13274811089E+04  0.89646736968E+03 0.  0.
         23    2    4    4    0    0  0.58976505654E+03  0.23099855068E+03  0.58052032892E+02  0.64326424657E+03  0.96102549738E+02 0.  0.
         23    2    4    4    0    0  0.14473689238E+03  0.70670408318E+00 -0.66251204931E+03  0.68421686229E+03  0.91001273192E+02 0.  0.
          4    1    3    3  502    0 -0.58590791979E+03 -0.15163060213E+03  0.49885279414E+03  0.78430481332E+03  0.00000000000E+00 0. -1.
         -3    1    3    3    0  502 -0.14859402913E+03 -0.80074652636E+02  0.12450568266E+03  0.20974699164E+03  0.00000000000E+00 0.  1.
         11    1    5    5    0    0 -0.13236034878E+01 -0.16679640411E+01 -0.44817062449E+01  0.49618263876E+01  0.00000000000E+00 0.  1.
        -11    1    5    5    0    0  0.59108866003E+03  0.23266651472E+03  0.62533739136E+02  0.63830242019E+03  0.00000000000E+00 0. -1.
          1    1    6    6  503    0  0.98204911014E+02  0.25000180197E+02 -0.55948446049E+03  0.56858779013E+03  0.00000000000E+00 0. -1.
         -1    1    6    6    0  503  0.46531981364E+02 -0.24293476114E+02 -0.10302758882E+03  0.11562907216E+03  0.00000000000E+00 0.  1.
<mgrwt>
<rscale>  0 0.23214560E+04</rscale>
<asrwt>0</asrwt>
<pdfrwt beam="1">  1        2 0.18003318E+00 0.23214560E+04</pdfrwt>
<pdfrwt beam="2">  1       -1 0.17712573E+00 0.23214560E+04</pdfrwt>
<totfact> 0.44452095E+00</totfact>
</mgrwt>
</event>
<event>
12    6  0.9491186E-008  0.1464708E+04  0.7818608E-02  0.8908267E-01
         -1   -1    0    0    0  501 -0.00000000000E+00  0.00000000000E+00  0.33889392107E+03  0.33889392107E+03  0.00000000000E+00 0.  1.
          2   -1    0    0  501    0  0.00000000000E+00 -0.00000000000E+00 -0.15826266572E+04  0.15826266572E+04  0.00000000000E+00 0. -1.
         24    2    1    2    0    0  0.34737812045E+03  0.91317717060E+02 -0.60963561609E+03  0.71232321197E+03  0.82087087222E+02 0.  0.
        254    2    1    2    0    0 -0.34737812045E+03 -0.91317717060E+02 -0.63409712004E+03  0.12091973663E+04  0.96491897537E+03 0.  0.
         23    2    4    4    0    0 -0.83011338751E+02 -0.50223075443E+03 -0.22074732644E+03  0.56238998287E+03  0.91795956579E+02 0.  0.
         23    2    4    4    0    0 -0.26436678170E+03  0.41091303737E+03 -0.41334979361E+03  0.64680738344E+03  0.93607798025E+02 0.  0.
          4    1    3    3  502    0  0.19240509741E+03  0.10694212986E+02 -0.34649366995E+03  0.39647440147E+03  0.00000000000E+00 0. -1.
         -3    1    3    3    0  502  0.15497302304E+03  0.80623504073E+02 -0.26314194613E+03  0.31584881050E+03  0.00000000000E+00 0.  1.
         11    1    5    5    0    0 -0.88424708977E+00 -0.18043169426E+03 -0.42114234267E+02  0.18528353115E+03  0.00000000000E+00 0.  1.
        -11    1    5    5    0    0 -0.82127091661E+02 -0.32179906017E+03 -0.17863309217E+03  0.37710645172E+03  0.00000000000E+00 0. -1.
          4    1    6    6  503    0 -0.22345398201E+03  0.30609329617E+03 -0.27376322069E+03  0.46751587036E+03  0.00000000000E+00 0. -1.
         -4    1    6    6    0  503 -0.40912799690E+02  0.10481974120E+03 -0.13958657292E+03  0.17929151308E+03  0.00000000000E+00 0.  1.
<mgrwt>
<rscale>  0 0.14647082E+04</rscale>
<asrwt>0</asrwt>
<pdfrwt beam="1">  1        2 0.24348103E+00 0.14647082E+04</pdfrwt>
<pdfrwt beam="2">  1       -1 0.52137526E-01 0.14647082E+04</pdfrwt>
<totfact> 0.46630861E+01</totfact>
</mgrwt>
</event>
<event>
12    6  0.9491186E-008  0.1383425E+04  0.7818608E-02  0.8965904E-01
         -3   -1    0    0    0  501 -0.00000000000E+00  0.00000000000E+00  0.21449795032E+03  0.21449795032E+03  0.00000000000E+00 0.  1.
          2   -1    0    0  501    0  0.00000000000E+00 -0.00000000000E+00 -0.22306335774E+04  0.22306335774E+04  0.00000000000E+00 0. -1.
         24    2    1    2    0    0  0.16879162797E+03  0.23420839423E+03 -0.13985029737E+03  0.33065887881E+03  0.80206002642E+02 0.  0.
        254    2    1    2    0    0 -0.16879162797E+03 -0.23420839423E+03 -0.18762853297E+04  0.21144726489E+04  0.93123775637E+03 0.  0.
         23    2    4    4    0    0  0.19921836455E+03 -0.15548593349E+03 -0.16346330589E+04  0.16567743988E+04  0.94933340848E+02 0.  0.
         23    2    4    4    0    0 -0.36800999252E+03 -0.78722460742E+02 -0.24165227079E+03  0.45769825003E+03  0.97279430911E+02 0.  0.
          2    1    3    3  502    0  0.88257627408E+01  0.89597183557E+01 -0.31468323660E+02  0.33888435120E+02  0.00000000000E+00 0. -1.
         -1    1    3    3    0  502  0.15996586523E+03  0.22524867587E+03 -0.10838197371E+03  0.29677044369E+03  0.00000000000E+00 0.  1.
         11    1    5    5    0    0  0.15976952873E+03 -0.74160943226E+02 -0.11983874289E+04  0.12112632156E+04  0.00000000000E+00 0.  1.
        -11    1    5    5    0    0  0.39448835825E+02 -0.81324990260E+02 -0.43624563001E+03  0.44551118324E+03  0.00000000000E+00 0. -1.
          2    1    6    6  503    0 -0.35736364102E+03 -0.55013509793E+02 -0.23368085659E+03  0.43051364777E+03  0.00000000000E+00 0.  1.
         -2    1    6    6    0  503 -0.10646351504E+02 -0.23708950949E+02 -0.79714142051E+01  0.27184602257E+02  0.00000000000E+00 0. -1.
<mgrwt>
<rscale>  0 0.13834252E+04</rscale>
<asrwt>0</asrwt>
<pdfrwt beam="1">  1        2 0.34317441E+00 0.13834252E+04</pdfrwt>
<pdfrwt beam="2">  1       -3 0.32999684E-01 0.13834252E+04</pdfrwt>
<totfact> 0.28328964E+01</totfact>
</mgrwt>
</event>
<event>
12    6  0.9491186E-008  0.1406490E+04  0.7818608E-02  0.8949134E-01
          2   -1    0    0  501    0  0.00000000000E+00  0.00000000000E+00  0.97197071380E+03  0.97197071380E+03  0.00000000000E+00 0. -1.
         -1   -1    0    0    0  501 -0.00000000000E+00 -0.00000000000E+00 -0.50881558875E+03  0.50881558875E+03  0.00000000000E+00 0.  1.
         24    2    1    2    0    0 -0.40282442110E+03  0.10208357907E+03  0.19158536918E+03  0.46529221073E+03  0.84281174240E+02 0.  0.
        254    2    1    2    0    0  0.40282442110E+03 -0.10208357907E+03  0.27156975587E+03  0.10154940918E+04  0.88588348380E+03 0.  0.
         23    2    4    4    0    0 -0.18641460795E+03 -0.56869103999E+02  0.35088487288E+03  0.41145802482E+03  0.90515253528E+02 0.  0.
         23    2    4    4    0    0  0.58923902905E+03 -0.45214475066E+02 -0.79315117014E+02  0.60403606700E+03  0.96548953076E+02 0.  0.
          4    1    3    3  502    0 -0.56498930906E+02 -0.65128756461E+01  0.49914555510E+02  0.75670401046E+02  0.00000000000E+00 0. -1.
         -3    1    3    3    0  502 -0.34632549020E+03  0.10859645471E+03  0.14167081367E+03  0.38962180968E+03  0.00000000000E+00 0.  1.
         11    1    5    5    0    0 -0.53122824270E+02 -0.33429115241E+02  0.19585189229E+03  0.20566356974E+03  0.00000000000E+00 0.  1.
        -11    1    5    5    0    0 -0.13329178368E+03 -0.23439988759E+02  0.15503298060E+03  0.20579445508E+03  0.00000000000E+00 0. -1.
          1    1    6    6  503    0  0.31784824087E+03 -0.85957347311E+01  0.33468526627E+01  0.31798206287E+03  0.00000000000E+00 0. -1.
         -1    1    6    6    0  503  0.27139078818E+03 -0.36618740335E+02 -0.82661969677E+02  0.28605400414E+03  0.00000000000E+00 0.  1.
<mgrwt>
<rscale>  0 0.14064905E+04</rscale>
<asrwt>0</asrwt>
<pdfrwt beam="1">  1        2 0.14953396E+00 0.14064905E+04</pdfrwt>
<pdfrwt beam="2">  1       -1 0.78279321E-01 0.14064905E+04</pdfrwt>
<totfact> 0.47640880E+01</totfact>
</mgrwt>
</event>
<event>
12    6  0.9491186E-008  0.2622047E+04  0.7818608E-02  0.8360751E-01
         -1   -1    0    0    0  501 -0.00000000000E+00  0.00000000000E+00  0.11856347877E+04  0.11856347877E+04  0.00000000000E+00 0.  1.
          2   -1    0    0  501    0  0.00000000000E+00 -0.00000000000E+00 -0.14496723935E+04  0.14496723935E+04  0.00000000000E+00 0. -1.
         24    2    1    2    0    0 -0.11046178765E+04  0.32740025873E+03 -0.16607110377E+03  0.11667622673E+04  0.79893645222E+02 0.  0.
        254    2    1    2    0    0  0.11046178765E+04 -0.32740025873E+03 -0.97966502016E+02  0.14685449139E+04  0.90534808005E+03 0.  0.
         23    2    4    4    0    0 -0.10711361378E+03 -0.15551672996E+03  0.87566491739E+02  0.22734018665E+03  0.91416029427E+02 0.  0.
         23    2    4    4    0    0  0.12117314903E+04 -0.17188352877E+03 -0.18553299376E+03  0.12412047272E+04  0.91266264889E+02 0.  0.
          4    1    3    3  502    0 -0.13527155836E+03  0.56623820002E+02  0.32323293579E+00  0.14664499982E+03  0.00000000000E+00 0. -1.
         -3    1    3    3    0  502 -0.96934631811E+03  0.27077643873E+03 -0.16639433671E+03  0.10201172675E+04  0.00000000000E+00 0.  1.
         11    1    5    5    0    0 -0.61990707783E+02 -0.12840193663E+03  0.23642608359E+02  0.14452985197E+03  0.00000000000E+00 0. -1.
        -11    1    5    5    0    0 -0.45122906001E+02 -0.27114793333E+02  0.63923883380E+02  0.82810334680E+02  0.00000000000E+00 0.  1.
          3    1    6    6  503    0  0.10111111031E+04 -0.12683221341E+03 -0.12383867425E+03  0.10265320698E+04  0.00000000000E+00 0. -1.
         -3    1    6    6    0  503  0.20062038718E+03 -0.45051315361E+02 -0.61694319507E+02  0.21467265739E+03  0.00000000000E+00 0.  1.
<mgrwt>
<rscale>  0 0.26220465E+04</rscale>
<asrwt>0</asrwt>
<pdfrwt beam="1">  1        2 0.22302652E+00 0.26220465E+04</pdfrwt>
<pdfrwt beam="2">  1       -1 0.18240535E+00 0.26220465E+04</pdfrwt>
<totfact> 0.27268646E+00</totfact>
</mgrwt>
</event>
<event>
12    6  0.9491186E-008  0.2261384E+04  0.7818608E-02  0.8493304E-01
          2   -1    0    0  501    0  0.00000000000E+00  0.00000000000E+00  0.23855904143E+04  0.23855904143E+04  0.00000000000E+00 0. -1.
         -1   -1    0    0    0  501 -0.00000000000E+00 -0.00000000000E+00 -0.53591097793E+03  0.53591097793E+03  0.00000000000E+00 0.  1.
         24    2    1    2    0    0  0.61169523201E+03  0.10212946545E+03  0.17073389798E+04  0.18182196513E+04  0.79465865913E+02 0.  0.
        254    2    1    2    0    0 -0.61169523201E+03 -0.10212946545E+03  0.14234045659E+03  0.11032817409E+04  0.90131476729E+03 0.  0.
         23    2    4    4    0    0  0.61748284035E+02 -0.34678019888E+03  0.10581937581E+03  0.37862183166E+03  0.89929940507E+02 0.  0.
         23    2    4    4    0    0 -0.67344351605E+03  0.24465073342E+03  0.36521080777E+02  0.72465990928E+03  0.10206882045E+03 0.  0.
          2    1    3    3  502    0  0.51277021128E+03  0.57026794476E+02  0.13794414603E+04  0.14727674926E+04  0.00000000000E+00 0. -1.
         -1    1    3    3    0  502  0.98925020730E+02  0.45102670979E+02  0.32789751941E+03  0.34545215862E+03  0.00000000000E+00 0.  1.
         11    1    5    5    0    0  0.26698014059E+02 -0.31513391943E+03  0.89994258325E+02  0.32881778793E+03  0.00000000000E+00 0. -1.
        -11    1    5    5    0    0  0.35050269976E+02 -0.31646279446E+02  0.15825117486E+02  0.49804043728E+02  0.00000000000E+00 0.  1.
          4    1    6    6  503    0 -0.69628227057E+02  0.83464091423E+01  0.29856559831E+02  0.76217889721E+02  0.00000000000E+00 0. -1.
         -4    1    6    6    0  503 -0.60381528899E+03  0.23630432428E+03  0.66645209465E+01  0.64844201956E+03  0.00000000000E+00 0.  1.
<mgrwt>
<rscale>  0 0.22613837E+04</rscale>
<asrwt>0</asrwt>
<pdfrwt beam="1">  1        2 0.36701390E+00 0.22613837E+04</pdfrwt>
<pdfrwt beam="2">  1       -1 0.82447844E-01 0.22613837E+04</pdfrwt>
<totfact> 0.61314187E+00</totfact>
</mgrwt>
</event>
<event>
12    6  0.9491186E-008  0.1381774E+04  0.7818608E-02  0.8967118E-01
         -1   -1    0    0    0  501 -0.00000000000E+00  0.00000000000E+00  0.20299512952E+03  0.20299512952E+03  0.00000000000E+00 0.  1.
          2   -1    0    0  501    0  0.00000000000E+00 -0.00000000000E+00 -0.23514097219E+04  0.23514097219E+04  0.00000000000E+00 0. -1.
         24    2    1    2    0    0 -0.14471662142E+03 -0.16712977632E+03 -0.11904376421E+04  0.12133974554E+04  0.79475420808E+02 0.  0.
        254    2    1    2    0    0  0.14471662142E+03  0.16712977632E+03 -0.95797695033E+03  0.13410073960E+04  0.91197902177E+03 0.  0.
         23    2    4    4    0    0  0.30012597427E+03  0.32575987835E+03 -0.99919966424E+03  0.10966252736E+04  0.89397555403E+02 0.  0.
         23    2    4    4    0    0 -0.15540935285E+03 -0.15863010203E+03  0.41222713910E+02  0.24438212241E+03  0.93315236648E+02 0.  0.
          4    1    3    3  502    0 -0.83749257745E+02 -0.12267140292E+03 -0.59784460979E+03  0.61601979572E+03  0.00000000000E+00 0. -1.
         -3    1    3    3    0  502 -0.60967363678E+02 -0.44458373407E+02 -0.59259303226E+03  0.59737765968E+03  0.00000000000E+00 0.  1.
         11    1    5    5    0    0  0.20668286736E+02  0.65713383512E+02 -0.12526092945E+03  0.14295358441E+03  0.00000000000E+00 0.  1.
        -11    1    5    5    0    0  0.27945768754E+03  0.26004649484E+03 -0.87393873479E+03  0.95367168919E+03  0.00000000000E+00 0. -1.
          3    1    6    6  503    0 -0.59816192040E+02 -0.54223172755E+02  0.61349681073E+02  0.10139976658E+03  0.00000000000E+00 0. -1.
         -3    1    6    6    0  503 -0.95593160809E+02 -0.10440692927E+03 -0.20126967164E+02  0.14298235584E+03  0.00000000000E+00 0.  1.
<mgrwt>
<rscale>  0 0.13817738E+04</rscale>
<asrwt>0</asrwt>
<pdfrwt beam="1">  1        2 0.36175535E+00 0.13817738E+04</pdfrwt>
<pdfrwt beam="2">  1       -1 0.31230019E-01 0.13817738E+04</pdfrwt>
<totfact> 0.44840095E+01</totfact>
</mgrwt>
</event>
<event>
12    6  0.9491186E-008  0.1338802E+04  0.7818608E-02  0.8999348E-01
         -1   -1    0    0    0  501 -0.00000000000E+00  0.00000000000E+00  0.17322338446E+03  0.17322338446E+03  0.00000000000E+00 0.  1.
          2   -1    0    0  501    0  0.00000000000E+00 -0.00000000000E+00 -0.25868197887E+04  0.25868197887E+04  0.00000000000E+00 0. -1.
         24    2    1    2    0    0  0.31037732791E+03 -0.67292603766E+02 -0.10479969995E+04  0.10979097153E+04  0.79029436067E+02 0.  0.
        254    2    1    2    0    0 -0.31037732791E+03  0.67292603766E+02 -0.13655994047E+04  0.16621334578E+04  0.89272813178E+03 0.  0.
         23    2    4    4    0    0 -0.54410136041E+02 -0.18295351148E+03  0.34631881929E+02  0.21399727959E+03  0.90349422590E+02 0.  0.
         23    2    4    4    0    0 -0.25596719187E+03  0.25024611524E+03 -0.14002312866E+04  0.14481361782E+04  0.91150497095E+02 0.  0.
          2    1    3    3  502    0  0.25754301732E+03 -0.81514346234E+02 -0.81615337835E+03  0.85969723240E+03  0.00000000000E+00 0. -1.
         -1    1    3    3    0  502  0.52834310591E+02  0.14221742468E+02 -0.23184362116E+03  0.23821248289E+03  0.00000000000E+00 0.  1.
         11    1    5    5    0    0  0.13140696812E+02 -0.85099061856E+02  0.40054442922E+02  0.94967818967E+02  0.00000000000E+00 0. -1.
        -11    1    5    5    0    0 -0.67550832853E+02 -0.97854449620E+02 -0.54225609924E+01  0.11902946063E+03  0.00000000000E+00 0.  1.
          2    1    6    6  503    0 -0.22050012938E+03  0.17690986762E+03 -0.11779607776E+04  0.12114078594E+04  0.00000000000E+00 0. -1.
         -2    1    6    6    0  503 -0.35467062494E+02  0.73336247627E+02 -0.22227050907E+03  0.23672831884E+03  0.00000000000E+00 0.  1.
<mgrwt>
<rscale>  0 0.13388020E+04</rscale>
<asrwt>0</asrwt>
<pdfrwt beam="1">  1        2 0.39797226E+00 0.13388020E+04</pdfrwt>
<pdfrwt beam="2">  1       -1 0.26649752E-01 0.13388020E+04</pdfrwt>
<totfact> 0.43496392E+01</totfact>
</mgrwt>
</event>
<event>
12    6  0.9491186E-008  0.2112241E+04  0.7818608E-02  0.8555870E-01
         -1   -1    0    0    0  501 -0.00000000000E+00  0.00000000000E+00  0.39677731246E+03  0.39677731246E+03  0.00000000000E+00 0.  1.
          2   -1    0    0  501    0  0.00000000000E+00 -0.00000000000E+00 -0.28111234818E+04  0.28111234818E+04  0.00000000000E+00 0. -1.
         24    2    1    2    0    0 -0.19106392869E+03 -0.69621935586E+03 -0.28474525046E+03  0.78022135038E+03  0.80241395833E+02 0.  0.
        254    2    1    2    0    0  0.19106392869E+03  0.69621935586E+03 -0.21296009189E+04  0.24276794439E+04  0.91498666233E+03 0.  0.
         23    2    4    4    0    0  0.31755404787E+03  0.31179326116E+03 -0.28352549712E+03  0.53559975880E+03  0.91786617160E+02 0.  0.
         23    2    4    4    0    0 -0.12649011918E+03  0.38442609470E+03 -0.18460754217E+04  0.18920796851E+04  0.90487011991E+02 0.  0.
          2    1    3    3  502    0 -0.30411934889E+01 -0.31576924601E+02 -0.31020663523E+02  0.44369275298E+02  0.00000000000E+00 0. -1.
         -1    1    3    3    0  502 -0.18802273521E+03 -0.66464243126E+03 -0.25372458694E+03  0.73585207508E+03  0.00000000000E+00 0.  1.
         11    1    5    5    0    0  0.25542928071E+03  0.28959143419E+03 -0.26017689880E+03  0.46561715483E+03  0.00000000000E+00 0.  1.
        -11    1    5    5    0    0  0.62124767164E+02  0.22201826969E+02 -0.23348598317E+02  0.69982603977E+02  0.00000000000E+00 0. -1.
          3    1    6    6  503    0 -0.48203176352E+02  0.23782194973E+03 -0.93535086503E+03  0.96631468306E+03  0.00000000000E+00 0. -1.
         -3    1    6    6    0  503 -0.78286942828E+02  0.14660414497E+03 -0.91072455671E+03  0.92576500201E+03  0.00000000000E+00 0.  1.
<mgrwt>
<rscale>  0 0.21122405E+04</rscale>
<asrwt>0</asrwt>
<pdfrwt beam="1">  1        2 0.43248052E+00 0.21122405E+04</pdfrwt>
<pdfrwt beam="2">  1       -1 0.61042666E-01 0.21122405E+04</pdfrwt>
<totfact> 0.64994064E+00</totfact>
</mgrwt>
</event>
<event>
12    6  0.9491186E-008  0.1416773E+04  0.7818608E-02  0.8941766E-01
         -1   -1    0    0    0  501 -0.00000000000E+00  0.00000000000E+00  0.23609421774E+03  0.23609421774E+03  0.00000000000E+00 0.  1.
          2   -1    0    0  501    0  0.00000000000E+00 -0.00000000000E+00 -0.21254715331E+04  0.21254715331E+04  0.00000000000E+00 0. -1.
         24    2    1    2    0    0  0.41432423337E+03  0.17476971628E+02 -0.62587052569E+03  0.75472343017E+03  0.76964447779E+02 0.  0.
        254    2    1    2    0    0 -0.41432423337E+03 -0.17476971628E+02 -0.12635067896E+04  0.16068423206E+04  0.90195499944E+03 0.  0.
         23    2    4    4    0    0 -0.30691108319E+03 -0.21166242048E+02 -0.13838171766E+04  0.14204778412E+04  0.90359814613E+02 0.  0.
         23    2    4    4    0    0 -0.10741315018E+03  0.36892704194E+01  0.12031038701E+03  0.18636447945E+03  0.93305597002E+02 0.  0.
          2    1    3    3  502    0  0.30804498574E+03  0.17412762195E+02 -0.52042650334E+03  0.60501129155E+03  0.00000000000E+00 0. -1.
         -1    1    3    3    0  502  0.10627924763E+03  0.64209432937E-01 -0.10544402235E+03  0.14971213862E+03  0.00000000000E+00 0.  1.
         11    1    5    5    0    0 -0.18409352315E+03  0.59325670728E+00 -0.62760054815E+03  0.65404374873E+03  0.00000000000E+00 0.  1.
        -11    1    5    5    0    0 -0.12281756004E+03 -0.21759498755E+02 -0.75621662850E+03  0.76643409244E+03  0.00000000000E+00 0. -1.
          1    1    6    6  503    0 -0.52479237764E+02  0.37433006100E+01 -0.16126461860E+01  0.52637280738E+02  0.00000000000E+00 0. -1.
         -1    1    6    6    0  503 -0.54933912413E+02 -0.54030190623E-01  0.12192303320E+03  0.13372719872E+03  0.00000000000E+00 0.  1.
<mgrwt>
<rscale>  0 0.14167731E+04</rscale>
<asrwt>0</asrwt>
<pdfrwt beam="1">  1        2 0.32699562E+00 0.14167731E+04</pdfrwt>
<pdfrwt beam="2">  1       -1 0.36322187E-01 0.14167731E+04</pdfrwt>
<totfact> 0.45752425E+01</totfact>
</mgrwt>
</event>
<event>
12    6  0.9491186E-008  0.1179094E+04  0.7818608E-02  0.9131355E-01
          2   -1    0    0  501    0  0.00000000000E+00  0.00000000000E+00  0.12292854195E+04  0.12292854195E+04  0.00000000000E+00 0. -1.
         -1   -1    0    0    0  501 -0.00000000000E+00 -0.00000000000E+00 -0.28273779441E+03  0.28273779441E+03  0.00000000000E+00 0.  1.
         24    2    1    2    0    0 -0.12768112527E+03 -0.15074177552E+03  0.39333767895E+02  0.21779526400E+03  0.82837667074E+02 0.  0.
        254    2    1    2    0    0  0.12768112527E+03  0.15074177552E+03  0.90721385722E+03  0.12942279499E+04  0.90164485860E+03 0.  0.
         23    2    4    4    0    0 -0.68732213051E+02 -0.23491856015E+03  0.79658537579E+03  0.83838122699E+03  0.91782208711E+02 0.  0.
         23    2    4    4    0    0  0.19641333832E+03  0.38566033567E+03  0.11062848143E+03  0.45584672295E+03  0.90804625109E+02 0.  0.
          4    1    3    3  502    0  0.89985761100E+01  0.18345614282E+01 -0.13165606262E+00  0.91846241599E+01  0.00000000000E+00 0. -1.
         -3    1    3    3    0  502 -0.13667970138E+03 -0.15257633695E+03  0.39465423958E+02  0.20861063984E+03  0.00000000000E+00 0.  1.
         11    1    5    5    0    0 -0.90843658362E+02 -0.17270226797E+03  0.57910733204E+03  0.61110060191E+03  0.00000000000E+00 0.  1.
        -11    1    5    5    0    0  0.22111445311E+02 -0.62216292179E+02  0.21747804375E+03  0.22728062508E+03  0.00000000000E+00 0. -1.
          2    1    6    6  503    0  0.42614418350E+02  0.33495289492E+02  0.34039182076E+02  0.64004601287E+02  0.00000000000E+00 0. -1.
         -2    1    6    6    0  503  0.15379891997E+03  0.35216504618E+03  0.76589299353E+02  0.39184212166E+03  0.00000000000E+00 0.  1.
<mgrwt>
<rscale>  0 0.11790936E+04</rscale>
<asrwt>0</asrwt>
<pdfrwt beam="1">  1        2 0.18912083E+00 0.11790936E+04</pdfrwt>
<pdfrwt beam="2">  1       -1 0.43498123E-01 0.11790936E+04</pdfrwt>
<totfact> 0.10686067E+02</totfact>
</mgrwt>
</event>
<event>
12    6  0.9491186E-008  0.2142179E+04  0.7818608E-02  0.8542888E-01
         -1   -1    0    0    0  501 -0.00000000000E+00  0.00000000000E+00  0.64438831265E+03  0.64438831265E+03  0.00000000000E+00 0.  1.
          2   -1    0    0  501    0  0.00000000000E+00 -0.00000000000E+00 -0.17803429733E+04  0.17803429733E+04  0.00000000000E+00 0. -1.
         24    2    1    2    0    0 -0.59476459901E+02 -0.66557635067E+03 -0.10729654883E+04  0.12669794577E+04  0.86328902438E+02 0.  0.
        254    2    1    2    0    0  0.59476459901E+02  0.66557635067E+03 -0.62989172315E+02  0.11577518282E+04  0.94334104752E+03 0.  0.
         23    2    4    4    0    0  0.31318165168E+03  0.19377799748E+03 -0.37392357767E+03  0.53164569238E+03  0.84827124424E+02 0.  0.
         23    2    4    4    0    0 -0.25370519178E+03  0.47179835320E+03  0.31093440535E+03  0.62610613579E+03  0.91480481096E+02 0.  0.
          4    1    3    3  502    0 -0.45416011113E+02 -0.65106348220E+03 -0.10278807025E+04  0.12175734107E+04  0.00000000000E+00 0. -1.
         -3    1    3    3    0  502 -0.14060448788E+02 -0.14512868474E+02 -0.45084785825E+02  0.49406047043E+02  0.00000000000E+00 0.  1.
         11    1    5    5    0    0  0.49293062426E+02  0.72069399705E+02 -0.84866952903E+02  0.12176290105E+03  0.00000000000E+00 0. -1.
        -11    1    5    5    0    0  0.26388858925E+03  0.12170859777E+03 -0.28905662477E+03  0.40988279133E+03  0.00000000000E+00 0.  1.
          3    1    6    6  503    0 -0.41483175125E+02  0.15614471028E+03  0.11445192498E+03  0.19799309962E+03  0.00000000000E+00 0. -1.
         -3    1    6    6    0  503 -0.21222201665E+03  0.31565364292E+03  0.19648248038E+03  0.42811303617E+03  0.00000000000E+00 0.  1.
<mgrwt>
<rscale>  0 0.21421785E+04</rscale>
<asrwt>0</asrwt>
<pdfrwt beam="1">  1        2 0.27389892E+00 0.21421785E+04</pdfrwt>
<pdfrwt beam="2">  1       -1 0.99136664E-01 0.21421785E+04</pdfrwt>
<totfact> 0.89954908E+00</totfact>
</mgrwt>
</event>
<event>
12    6  0.9491186E-008  0.1993379E+04  0.7818608E-02  0.8609722E-01
          2   -1    0    0  501    0  0.00000000000E+00  0.00000000000E+00  0.37321469141E+03  0.37321469141E+03  0.00000000000E+00 0. -1.
         -1   -1    0    0    0  501 -0.00000000000E+00 -0.00000000000E+00 -0.26617126154E+04  0.26617126154E+04  0.00000000000E+00 0.  1.
         24    2    1    2    0    0  0.66467469178E+03 -0.97323915738E+02 -0.15528862629E+04  0.16937058424E+04  0.76937279120E+02 0.  0.
        254    2    1    2    0    0 -0.66467469178E+03  0.97323915738E+02 -0.73561166117E+03  0.13412214644E+04  0.89804571711E+03 0.  0.
         23    2    4    4    0    0 -0.69244824090E+03 -0.22807047496E+03 -0.67414699889E+03  0.99692063332E+03  0.88746071195E+02 0.  0.
         23    2    4    4    0    0  0.27773549119E+02  0.32539439069E+03 -0.61464662285E+02  0.34430083107E+03  0.90068185517E+02 0.  0.
          2    1    3    3  502    0  0.51340097228E+01  0.30103148564E+01 -0.37680588466E+01  0.70440271749E+01  0.00000000000E+00 0. -1.
         -1    1    3    3    0  502  0.65954068206E+03 -0.10033423059E+03 -0.15491182040E+04  0.16866618153E+04  0.00000000000E+00 0.  1.
         11    1    5    5    0    0 -0.59316273230E+03 -0.16798442794E+03 -0.59225922227E+03  0.85488699919E+03  0.00000000000E+00 0.  1.
        -11    1    5    5    0    0 -0.99285508603E+02 -0.60086047018E+02 -0.81887776618E+02  0.14203363413E+03  0.00000000000E+00 0. -1.
          1    1    6    6  503    0 -0.44968630905E+01  0.29303590962E+03 -0.53090685025E+02  0.29784037157E+03  0.00000000000E+00 0. -1.
         -1    1    6    6    0  503  0.32270412210E+02  0.32358481077E+02 -0.83739772594E+01  0.46460459500E+02  0.00000000000E+00 0.  1.
<mgrwt>
<rscale>  0 0.19933793E+04</rscale>
<asrwt>0</asrwt>
<pdfrwt beam="1">  1        2 0.57417646E-01 0.19933793E+04</pdfrwt>
<pdfrwt beam="2">  1       -1 0.40949424E+00 0.19933793E+04</pdfrwt>
<totfact> 0.56364628E-01</totfact>
</mgrwt>
</event>
<event>
12    6  0.9491186E-008  0.2178134E+04  0.7818608E-02  0.8527585E-01
          2   -1    0    0  501    0  0.00000000000E+00  0.00000000000E+00  0.62346701253E+03  0.62346701253E+03  0.00000000000E+00 0. -1.
         -1   -1    0    0    0  501 -0.00000000000E+00 -0.00000000000E+00 -0.19023732991E+04  0.19023732991E+04  0.00000000000E+00 0.  1.
         24    2    1    2    0    0  0.80863156330E+03 -0.21439544194E+03 -0.14526785803E+03  0.85268050903E+03  0.78172176777E+02 0.  0.
        254    2    1    2    0    0 -0.80863156330E+03  0.21439544194E+03 -0.11336384286E+04  0.16731598026E+04  0.90248392102E+03 0.  0.
         23    2    4    4    0    0 -0.91201174943E+03 -0.24372908558E+02 -0.67594369483E+03  0.11389318387E+04  0.88917854358E+02 0.  0.
         23    2    4    4    0    0  0.10338018613E+03  0.23876835050E+03 -0.45769473374E+03  0.53422796394E+03  0.90649104132E+02 0.  0.
          2    1    3    3  502    0  0.77134115060E+03 -0.21220899955E+03 -0.15308951447E+03  0.81451594800E+03  0.00000000000E+00 0. -1.
         -1    1    3    3    0  502  0.37290412698E+02 -0.21864423936E+01  0.78216564485E+01  0.38164561036E+02  0.00000000000E+00 0.  1.
         11    1    5    5    0    0 -0.79709558034E+02  0.41058952131E+01 -0.31062642068E+02  0.85646714763E+02  0.00000000000E+00 0. -1.
        -11    1    5    5    0    0 -0.83230219139E+03 -0.28478803771E+02 -0.64488105276E+03  0.10532851239E+04  0.00000000000E+00 0.  1.
          1    1    6    6  503    0  0.34125416260E+02  0.16713491072E+03 -0.33705091095E+03  0.37775910180E+03  0.00000000000E+00 0. -1.
         -1    1    6    6    0  503  0.69254769867E+02  0.71633439784E+02 -0.12064382278E+03  0.15646886214E+03  0.00000000000E+00 0.  1.
<mgrwt>
<rscale>  0 0.21781341E+04</rscale>
<asrwt>0</asrwt>
<pdfrwt beam="1">  1        2 0.95918004E-01 0.21781341E+04</pdfrwt>
<pdfrwt beam="2">  1       -1 0.29267281E+00 0.21781341E+04</pdfrwt>
<totfact> 0.18232878E+00</totfact>
</mgrwt>
</event>
<event>
12    6  0.9491186E-008  0.1526806E+04  0.7818608E-02  0.8866821E-01
         -1   -1    0    0    0  501 -0.00000000000E+00  0.00000000000E+00  0.56775242145E+03  0.56775242145E+03  0.00000000000E+00 0.  1.
          2   -1    0    0  501    0  0.00000000000E+00 -0.00000000000E+00 -0.10264754857E+04  0.10264754857E+04  0.00000000000E+00 0. -1.
         24    2    1    2    0    0  0.23359065960E+03  0.22483725118E+03  0.23547521164E+03  0.40823068402E+03  0.78021345192E+02 0.  0.
        254    2    1    2    0    0 -0.23359065960E+03 -0.22483725118E+03 -0.69419827594E+03  0.11859972232E+04  0.90529651567E+03 0.  0.
         23    2    4    4    0    0 -0.32629781558E+03 -0.39058888278E+03 -0.61790578760E+02  0.52093702871E+03  0.92343773272E+02 0.  0.
         23    2    4    4    0    0  0.92707155971E+02  0.16575163160E+03 -0.63240769718E+03  0.66506019446E+03  0.79355823068E+02 0.  0.
          2    1    3    3  502    0  0.71584251022E+02  0.10651125213E+03  0.59851525045E+02  0.14160210760E+03  0.00000000000E+00 0. -1.
         -1    1    3    3    0  502  0.16200640858E+03  0.11832599904E+03  0.17562368660E+03  0.26662857642E+03  0.00000000000E+00 0.  1.
         11    1    5    5    0    0 -0.92698085115E+00 -0.35876869473E+02 -0.57643567256E+01  0.36348822060E+02  0.00000000000E+00 0.  1.
        -11    1    5    5    0    0 -0.32537083472E+03 -0.35471201330E+03 -0.56026222034E+02  0.48458820665E+03  0.00000000000E+00 0. -1.
          3    1    6    6  503    0  0.10434729620E+03  0.12317634307E+03 -0.48250496479E+03  0.50879446810E+03  0.00000000000E+00 0. -1.
         -3    1    6    6    0  503 -0.11640140232E+02  0.42575288533E+02 -0.14990273239E+03  0.15626572636E+03  0.00000000000E+00 0.  1.
<mgrwt>
<rscale>  0 0.15268057E+04</rscale>
<asrwt>0</asrwt>
<pdfrwt beam="1">  1        2 0.15791930E+00 0.15268057E+04</pdfrwt>
<pdfrwt beam="2">  1       -1 0.87346527E-01 0.15268057E+04</pdfrwt>
<totfact> 0.34388249E+01</totfact>
</mgrwt>
</event>
<event>
12    6  0.9491186E-008  0.1649869E+04  0.7818608E-02  0.8790484E-01
          2   -1    0    0  501    0  0.00000000000E+00  0.00000000000E+00  0.24379749779E+04  0.24379749779E+04  0.00000000000E+00 0. -1.
         -1   -1    0    0    0  501 -0.00000000000E+00 -0.00000000000E+00 -0.27913211437E+03  0.27913211437E+03  0.00000000000E+00 0.  1.
         24    2    1    2    0    0 -0.56174093213E+02 -0.20152553403E+03 -0.11984189538E+03  0.25386959674E+03  0.79496054258E+02 0.  0.
        254    2    1    2    0    0  0.56174093213E+02  0.20152553403E+03  0.22786847589E+04  0.24632374956E+04  0.91179310112E+03 0.  0.
         23    2    4    4    0    0  0.44801545925E+02  0.34112131054E+03  0.22693803260E+04  0.22970093749E+04  0.88284072170E+02 0.  0.
         23    2    4    4    0    0  0.11372547288E+02 -0.13959577651E+03  0.93044329246E+01  0.16622812062E+03  0.89044370752E+02 0.  0.
          2    1    3    3  502    0  0.82484461309E+01 -0.98812450824E+02 -0.76037847364E+02  0.12495475795E+03  0.00000000000E+00 0. -1.
         -1    1    3    3    0  502 -0.64422539344E+02 -0.10271308321E+03 -0.43804048021E+02  0.12891483879E+03  0.00000000000E+00 0.  1.
         11    1    5    5    0    0  0.57480180168E+02  0.19836737274E+03  0.11380927887E+04  0.11566800687E+04  0.00000000000E+00 0. -1.
        -11    1    5    5    0    0 -0.12678634243E+02  0.14275393779E+03  0.11312875373E+04  0.11403293062E+04  0.00000000000E+00 0.  1.
          4    1    6    6  503    0  0.82499056725E+01 -0.91207114464E+01 -0.27921970426E+02  0.30510404019E+02  0.00000000000E+00 0.  1.
         -4    1    6    6    0  503  0.31226416155E+01 -0.13047506506E+03  0.37226403351E+02  0.13571771660E+03  0.00000000000E+00 0. -1.
<mgrwt>
<rscale>  0 0.16498692E+04</rscale>
<asrwt>0</asrwt>
<pdfrwt beam="1">  1        2 0.37507306E+00 0.16498692E+04</pdfrwt>
<pdfrwt beam="2">  1       -1 0.42943404E-01 0.16498692E+04</pdfrwt>
<totfact> 0.22010273E+01</totfact>
</mgrwt>
</event>
<event>
12    6  0.9491186E-008  0.2260026E+04  0.7818608E-02  0.8493851E-01
          2   -1    0    0  501    0  0.00000000000E+00  0.00000000000E+00  0.31531055572E+04  0.31531055572E+04  0.00000000000E+00 0. -1.
         -1   -1    0    0    0  501 -0.00000000000E+00 -0.00000000000E+00 -0.40497513017E+03  0.40497513017E+03  0.00000000000E+00 0.  1.
         24    2    1    2    0    0 -0.76594723703E+03  0.46196635603E+03  0.66270281446E+03  0.11161418606E+04  0.80681774274E+02 0.  0.
        254    2    1    2    0    0  0.76594723703E+03 -0.46196635603E+03  0.20854276125E+04  0.24419388267E+04  0.90220220699E+03 0.  0.
         23    2    4    4    0    0  0.46464401136E+03  0.10821095684E+03  0.38146792242E+03  0.61774606928E+03  0.92134476680E+02 0.  0.
         23    2    4    4    0    0  0.30130322566E+03 -0.57017731288E+03  0.17039596901E+04  0.18241927575E+04  0.91185463996E+02 0.  0.
          2    1    3    3  502    0 -0.27872489960E+03  0.16150205922E+03  0.19174342597E+03  0.37488134949E+03  0.00000000000E+00 0. -1.
         -1    1    3    3    0  502 -0.48722233743E+03  0.30046429681E+03  0.47095938849E+03  0.74126051112E+03  0.00000000000E+00 0.  1.
         11    1    5    5    0    0  0.99957408923E+02  0.73246722724E+01  0.39494466897E+02  0.10772626113E+03  0.00000000000E+00 0. -1.
        -11    1    5    5    0    0  0.36468660244E+03  0.10088628457E+03  0.34197345552E+03  0.51001980814E+03  0.00000000000E+00 0.  1.
          4    1    6    6  503    0  0.96872688700E+02 -0.10349760165E+03  0.36124807196E+03  0.38806731486E+03  0.00000000000E+00 0. -1.
         -4    1    6    6    0  503  0.20443053697E+03 -0.46667971122E+03  0.13427116182E+04  0.14361254426E+04  0.00000000000E+00 0.  1.
<mgrwt>
<rscale>  0 0.22600260E+04</rscale>
<asrwt>0</asrwt>
<pdfrwt beam="1">  1        2 0.48509315E+00 0.22600260E+04</pdfrwt>
<pdfrwt beam="2">  1       -1 0.62303868E-01 0.22600260E+04</pdfrwt>
<totfact> 0.37669016E+00</totfact>
</mgrwt>
</event>
<event>
12    6  0.9491186E-008  0.2260205E+04  0.7818608E-02  0.8493779E-01
          2   -1    0    0  501    0  0.00000000000E+00  0.00000000000E+00  0.27744752457E+04  0.27744752457E+04  0.00000000000E+00 0. -1.
         -1   -1    0    0    0  501 -0.00000000000E+00 -0.00000000000E+00 -0.46031469364E+03  0.46031469364E+03  0.00000000000E+00 0.  1.
         24    2    1    2    0    0 -0.59913690717E+03  0.70268185687E+03  0.12916296166E+04  0.15897137868E+04  0.78460384804E+02 0.  0.
        254    2    1    2    0    0  0.59913690717E+03 -0.70268185687E+03  0.10225309354E+04  0.16450761525E+04  0.89887663673E+03 0.  0.
         23    2    4    4    0    0 -0.17069567359E+03 -0.19322955637E+03  0.12285572508E+02  0.27345505216E+03  0.90288735854E+02 0.  0.
         23    2    4    4    0    0  0.76983258076E+03 -0.50945230050E+03  0.10102453629E+04  0.13716211003E+04  0.92546748563E+02 0.  0.
          2    1    3    3  502    0 -0.30027879249E+03  0.37916103487E+03  0.61571631746E+03  0.78296681103E+03  0.00000000000E+00 0. -1.
         -1    1    3    3    0  502 -0.29885811469E+03  0.32352082200E+03  0.67591329916E+03  0.80674697580E+03  0.00000000000E+00 0.  1.
         11    1    5    5    0    0 -0.17381879625E+03 -0.18461876676E+03 -0.53032536996E+01  0.25362410664E+03  0.00000000000E+00 0.  1.
        -11    1    5    5    0    0  0.31231226578E+01 -0.86107896122E+01  0.17588826208E+02  0.19830945521E+02  0.00000000000E+00 0. -1.
          3    1    6    6  503    0  0.11199530755E+03 -0.50821776224E+02  0.17320310926E+03  0.21242673775E+03  0.00000000000E+00 0. -1.
         -3    1    6    6    0  503  0.65783727321E+03 -0.45863052428E+03  0.83704225363E+03  0.11591943626E+04  0.00000000000E+00 0.  1.
<mgrwt>
<rscale>  0 0.22602051E+04</rscale>
<asrwt>0</asrwt>
<pdfrwt beam="1">  1        2 0.42684233E+00 0.22602051E+04</pdfrwt>
<pdfrwt beam="2">  1       -1 0.70817647E-01 0.22602051E+04</pdfrwt>
<totfact> 0.49970973E+00</totfact>
</mgrwt>
</event>
<event>
12    6  0.1038117E-007  0.1496529E+04  0.7818608E-02  0.8886764E-01
          2   -1    0    0  501    0  0.00000000000E+00  0.00000000000E+00  0.19676353479E+04  0.19676353479E+04  0.00000000000E+00 0. -1.
         -1   -1    0    0    0  501 -0.00000000000E+00 -0.00000000000E+00 -0.28455471005E+03  0.28455471005E+03  0.00000000000E+00 0.  1.
         24    2    1    2    0    0  0.45610469803E+03  0.42913116045E+02  0.32830362135E+03  0.56919077713E+03  0.79510011278E+02 0.  0.
        254    2    1    2    0    0 -0.45610469803E+03 -0.42913116045E+02  0.13547770165E+04  0.16829992809E+04  0.88723885383E+03 0.  0.
         23    2    4    4    0    0 -0.45070296298E+03 -0.40305069410E+03  0.70102708168E+03  0.93015433394E+03  0.90360903281E+02 0.  0.
         23    2    4    4    0    0 -0.54017350465E+01  0.36013757806E+03  0.65374993486E+03  0.75284494692E+03  0.98276563364E+02 0.  0.
          4    1    3    3  502    0 -0.75472935727E+00 -0.51882576964E+01  0.62738541228E+01  0.81761164302E+01  0.00000000000E+00 0. -1.
         -3    1    3    3    0  502  0.45685942738E+03  0.48101373741E+02  0.32202976723E+03  0.56101466070E+03  0.00000000000E+00 0.  1.
         11    1    5    5    0    0 -0.20441398932E+03 -0.14633631113E+03  0.23746163704E+03  0.34581414669E+03  0.00000000000E+00 0. -1.
        -11    1    5    5    0    0 -0.24628897366E+03 -0.25671438298E+03  0.46356544464E+03  0.58434018725E+03  0.00000000000E+00 0.  1.
          4    1    6    6  503    0  0.24812153372E+02  0.29953331189E+02  0.10161898925E+03  0.10880838194E+03  0.00000000000E+00 0. -1.
         -4    1    6    6    0  503 -0.30213888418E+02  0.33018424687E+03  0.55213094561E+03  0.64403656498E+03  0.00000000000E+00 0.  1.
<mgrwt>
<rscale>  0 0.14965292E+04</rscale>
<asrwt>0</asrwt>
<pdfrwt beam="1">  1        2 0.30271312E+00 0.14965292E+04</pdfrwt>
<pdfrwt beam="2">  1       -1 0.43777649E-01 0.14965292E+04</pdfrwt>
<totfact> 0.39538169E+01</totfact>
</mgrwt>
</event>
<event>
12    6  0.9491186E-008  0.1573045E+04  0.7818608E-02  0.8837281E-01
         -1   -1    0    0    0  501 -0.00000000000E+00  0.00000000000E+00  0.40935865515E+03  0.40935865515E+03  0.00000000000E+00 0.  1.
          2   -1    0    0  501    0  0.00000000000E+00 -0.00000000000E+00 -0.15111878368E+04  0.15111878368E+04  0.00000000000E+00 0. -1.
         24    2    1    2    0    0  0.47501875735E+03  0.18477161877E+03 -0.18830835284E+03  0.54919364713E+03  0.79813879525E+02 0.  0.
        254    2    1    2    0    0 -0.47501875735E+03 -0.18477161877E+03 -0.91352082880E+03  0.13713528448E+04  0.88673837708E+03 0.  0.
         23    2    4    4    0    0 -0.19031967691E+03 -0.36364126833E+03 -0.93189351304E+03  0.10223378274E+04  0.91063506084E+02 0.  0.
         23    2    4    4    0    0 -0.28469908044E+03  0.17886964957E+03  0.18372684240E+02  0.34901501745E+03  0.91793294663E+02 0.  0.
          2    1    3    3  502    0  0.17839919799E+03  0.88996731910E+02 -0.37232935791E+02  0.20281268116E+03  0.00000000000E+00 0. -1.
         -1    1    3    3    0  502  0.29661955936E+03  0.95774886857E+02 -0.15107541704E+03  0.34638096597E+03  0.00000000000E+00 0.  1.
         11    1    5    5    0    0 -0.15143178375E+03 -0.20439831233E+03 -0.51573964659E+03  0.57506316025E+03  0.00000000000E+00 0.  1.
        -11    1    5    5    0    0 -0.38887893159E+02 -0.15924295600E+03 -0.41615386645E+03  0.44727466710E+03  0.00000000000E+00 0. -1.
          1    1    6    6  503    0 -0.21667168484E+03  0.98396721927E+02  0.40376088407E+02  0.24136851993E+03  0.00000000000E+00 0. -1.
         -1    1    6    6    0  503 -0.68027395594E+02  0.80472927641E+02 -0.22003404167E+02  0.10764649752E+03  0.00000000000E+00 0.  1.
<mgrwt>
<rscale>  0 0.15730452E+04</rscale>
<asrwt>0</asrwt>
<pdfrwt beam="1">  1        2 0.23249043E+00 0.15730452E+04</pdfrwt>
<pdfrwt beam="2">  1       -1 0.62978257E-01 0.15730452E+04</pdfrwt>
<totfact> 0.35027869E+01</totfact>
</mgrwt>
</event>
<event>
12    6  0.9491186E-008  0.2477501E+04  0.7818608E-02  0.8411045E-01
         -1   -1    0    0    0  501 -0.00000000000E+00  0.00000000000E+00  0.14677756342E+04  0.14677756342E+04  0.00000000000E+00 0.  1.
          2   -1    0    0  501    0  0.00000000000E+00 -0.00000000000E+00 -0.10454617964E+04  0.10454617964E+04  0.00000000000E+00 0. -1.
         24    2    1    2    0    0 -0.83757251015E+03  0.62903547939E+03  0.41544188541E+03  0.11298407304E+04  0.82065655403E+02 0.  0.
        254    2    1    2    0    0  0.83757251015E+03 -0.62903547939E+03  0.68719524479E+01  0.13833967002E+04  0.90361820603E+03 0.  0.
         23    2    4    4    0    0  0.49676024791E+03  0.14154850919E+03 -0.84595859796E+02  0.53103258684E+03  0.89623793943E+02 0.  0.
         23    2    4    4    0    0  0.34081226225E+03 -0.77058398858E+03  0.91467812244E+02  0.85236411335E+03  0.90584432966E+02 0.  0.
          4    1    3    3  502    0 -0.10165996684E+03  0.11206667216E+03  0.63136864628E+02  0.16395106447E+03  0.00000000000E+00 0. -1.
         -3    1    3    3    0  502 -0.73591254331E+03  0.51696880723E+03  0.35230502078E+03  0.96588966592E+03  0.00000000000E+00 0.  1.
         11    1    5    5    0    0  0.30718774437E+03  0.12329042654E+03 -0.27196949828E+02  0.33212123336E+03  0.00000000000E+00 0. -1.
        -11    1    5    5    0    0  0.18957250354E+03  0.18258082644E+02 -0.57398909968E+02  0.19891135349E+03  0.00000000000E+00 0.  1.
          4    1    6    6  503    0  0.63018467580E+01  0.10282103634E+01 -0.15426080382E+00  0.63870404343E+01  0.00000000000E+00 0.  1.
         -4    1    6    6    0  503  0.33451041549E+03 -0.77161219894E+03  0.91622073048E+02  0.84597707291E+03  0.00000000000E+00 0. -1.
<mgrwt>
<rscale>  0 0.24775014E+04</rscale>
<asrwt>0</asrwt>
<pdfrwt beam="1">  1        2 0.16084028E+00 0.24775014E+04</pdfrwt>
<pdfrwt beam="2">  1       -1 0.22581164E+00 0.24775014E+04</pdfrwt>
<totfact> 0.24155290E+00</totfact>
</mgrwt>
</event>
<event>
12    6  0.9491186E-008  0.2717805E+04  0.7818608E-02  0.8329251E-01
         -1   -1    0    0    0  501 -0.00000000000E+00  0.00000000000E+00  0.12688569664E+04  0.12688569664E+04  0.00000000000E+00 0.  1.
          2   -1    0    0  501    0  0.00000000000E+00 -0.00000000000E+00 -0.14553384640E+04  0.14553384640E+04  0.00000000000E+00 0. -1.
         24    2    1    2    0    0  0.51083381017E+00 -0.11667282118E+04  0.23783695425E+03  0.11933888823E+04  0.79722182604E+02 0.  0.
        254    2    1    2    0    0 -0.51083381017E+00  0.11667282118E+04 -0.42431845183E+03  0.15308065482E+04  0.89558224545E+03 0.  0.
         23    2    4    4    0    0  0.31631085095E+02  0.90975880246E+03  0.11902639740E+03  0.92208897777E+03  0.86134751770E+02 0.  0.
         23    2    4    4    0    0 -0.32141918905E+02  0.25696940931E+03 -0.54334484923E+03  0.60871757042E+03  0.90813408075E+02 0.  0.
          2    1    3    3  502    0  0.26446292130E+02 -0.39661762347E+03  0.53333466600E+02  0.40106034992E+03  0.00000000000E+00 0. -1.
         -1    1    3    3    0  502 -0.25935458319E+02 -0.77011058829E+03  0.18450348765E+03  0.79232853233E+03  0.00000000000E+00 0.  1.
         11    1    5    5    0    0  0.10725037451E+02  0.21532485178E+03 -0.83809821451E+01  0.21575462702E+03  0.00000000000E+00 0.  1.
        -11    1    5    5    0    0  0.20906047644E+02  0.69443395068E+03  0.12740737955E+03  0.70633435075E+03  0.00000000000E+00 0. -1.
          2    1    6    6  503    0 -0.41528615277E+02  0.18696881897E+03 -0.30517795822E+03  0.36029925249E+03  0.00000000000E+00 0. -1.
         -2    1    6    6    0  503  0.93866963718E+01  0.70000590333E+02 -0.23816689100E+03  0.24841831794E+03  0.00000000000E+00 0.  1.
<mgrwt>
<rscale>  0 0.27178053E+04</rscale>
<asrwt>0</asrwt>
<pdfrwt beam="1">  1        2 0.22389822E+00 0.27178053E+04</pdfrwt>
<pdfrwt beam="2">  1       -1 0.19520877E+00 0.27178053E+04</pdfrwt>
<totfact> 0.21812951E+00</totfact>
</mgrwt>
</event>
<event>
12    6  0.9491186E-008  0.1951755E+04  0.7818608E-02  0.8629515E-01
          2   -1    0    0  501    0  0.00000000000E+00  0.00000000000E+00  0.12753450155E+04  0.12753450155E+04  0.00000000000E+00 0. -1.
         -1   -1    0    0    0  501 -0.00000000000E+00 -0.00000000000E+00 -0.74672860404E+03  0.74672860404E+03  0.00000000000E+00 0.  1.
         24    2    1    2    0    0  0.75964209475E+03 -0.69236737781E+02  0.13366087331E+03  0.77851952698E+03  0.79859794987E+02 0.  0.
        254    2    1    2    0    0 -0.75964209475E+03  0.69236737781E+02  0.39495553818E+03  0.12435540926E+04  0.89921469411E+03 0.  0.
         23    2    4    4    0    0 -0.76694675151E+03  0.19683764510E+03  0.59147840282E+03  0.99248166162E+03  0.90668458981E+02 0.  0.
         23    2    4    4    0    0  0.73046567633E+01 -0.12760090732E+03 -0.19652286464E+03  0.25107243098E+03  0.89893157220E+02 0.  0.
          2    1    3    3  502    0  0.57356462825E+03 -0.46743108230E+02  0.13497271839E+03  0.59108285007E+03  0.00000000000E+00 0. -1.
         -1    1    3    3    0  502  0.18607746650E+03 -0.22493629551E+02 -0.13118450794E+01  0.18743667690E+03  0.00000000000E+00 0.  1.
         11    1    5    5    0    0 -0.13187235282E+02 -0.84973898250E+01  0.99601550353E+01  0.18582612748E+02  0.00000000000E+00 0.  1.
        -11    1    5    5    0    0 -0.75375951623E+03  0.20533503492E+03  0.58151824778E+03  0.97389904887E+03  0.00000000000E+00 0. -1.
          2    1    6    6  503    0  0.41476272409E+02 -0.10761486650E+03 -0.15982559753E+03  0.19709252216E+03  0.00000000000E+00 0. -1.
         -2    1    6    6    0  503 -0.34171615646E+02 -0.19986040815E+02 -0.36697267110E+02  0.53979908824E+02  0.00000000000E+00 0.  1.
<mgrwt>
<rscale>  0 0.19517547E+04</rscale>
<asrwt>0</asrwt>
<pdfrwt beam="1">  1        2 0.19620693E+00 0.19517547E+04</pdfrwt>
<pdfrwt beam="2">  1       -1 0.11488132E+00 0.19517547E+04</pdfrwt>
<totfact> 0.12504552E+01</totfact>
</mgrwt>
</event>
<event>
12    6  0.9491186E-008  0.1839713E+04  0.7818608E-02  0.8685461E-01
          2   -1    0    0  501    0  0.00000000000E+00  0.00000000000E+00  0.57804724270E+03  0.57804724270E+03  0.00000000000E+00 0. -1.
         -1   -1    0    0    0  501 -0.00000000000E+00 -0.00000000000E+00 -0.14637834001E+04  0.14637834001E+04  0.00000000000E+00 0.  1.
         24    2    1    2    0    0  0.87264512851E+00 -0.50192795636E+03  0.19222365274E+03  0.54157068566E+03  0.66456301427E+02 0.  0.
        254    2    1    2    0    0 -0.87264512851E+00  0.50192795636E+03 -0.10779598102E+04  0.15002599572E+04  0.91479514202E+03 0.  0.
         23    2    4    4    0    0  0.28018850749E+03 -0.14355906479E+03 -0.41410186359E+03  0.52829302434E+03  0.92186557203E+02 0.  0.
         23    2    4    4    0    0 -0.28106115262E+03  0.64548702115E+03 -0.66385794659E+03  0.97196693283E+03  0.91452060027E+02 0.  0.
          4    1    3    3  502    0 -0.24949461684E+01 -0.42062574509E+03  0.13381267365E+03  0.44140465994E+03  0.00000000000E+00 0. -1.
         -3    1    3    3    0  502  0.33675912969E+01 -0.81302211279E+02  0.58410979090E+02  0.10016602572E+03  0.00000000000E+00 0.  1.
         11    1    5    5    0    0  0.20268507429E+03 -0.12518687408E+03 -0.24692393588E+03  0.34310992829E+03  0.00000000000E+00 0. -1.
        -11    1    5    5    0    0  0.77503433198E+02 -0.18372190703E+02 -0.16717792771E+03  0.18518309605E+03  0.00000000000E+00 0.  1.
          4    1    6    6  503    0 -0.27957088537E+03  0.58613020689E+03 -0.59180981116E+03  0.87860534483E+03  0.00000000000E+00 0. -1.
         -4    1    6    6    0  503 -0.14902672485E+01  0.59356814257E+02 -0.72048135430E+02  0.93361588001E+02  0.00000000000E+00 0.  1.
<mgrwt>
<rscale>  0 0.18397130E+04</rscale>
<asrwt>0</asrwt>
<pdfrwt beam="1">  1        2 0.88930345E-01 0.18397130E+04</pdfrwt>
<pdfrwt beam="2">  1       -1 0.22519745E+00 0.18397130E+04</pdfrwt>
<totfact> 0.56648044E+00</totfact>
</mgrwt>
</event>
<event>
12    6  0.9491186E-008  0.2161095E+04  0.7818608E-02  0.8534798E-01
          2   -1    0    0  501    0  0.00000000000E+00  0.00000000000E+00  0.11283640664E+04  0.11283640664E+04  0.00000000000E+00 0. -1.
         -1   -1    0    0    0  501 -0.00000000000E+00 -0.00000000000E+00 -0.10347576656E+04  0.10347576656E+04  0.00000000000E+00 0.  1.
         24    2    1    2    0    0  0.45270612646E+03  0.13051752726E+03  0.80150337367E+03  0.93297351777E+03  0.77809157555E+02 0.  0.
        254    2    1    2    0    0 -0.45270612646E+03 -0.13051752726E+03 -0.70789697285E+03  0.12301482143E+04  0.88891441832E+03 0.  0.
         23    2    4    4    0    0  0.22829591617E+03  0.54198752884E+01 -0.17119512649E+02  0.24644929678E+03  0.91081160424E+02 0.  0.
         23    2    4    4    0    0 -0.68100204262E+03 -0.13593740255E+03 -0.69077746020E+03  0.98369891751E+03  0.90814653641E+02 0.  0.
          2    1    3    3  502    0  0.44186331970E+03  0.12535185551E+03  0.79751409706E+03  0.92031788855E+03  0.00000000000E+00 0. -1.
         -1    1    3    3    0  502  0.10842806755E+02  0.51656717502E+01  0.39892766057E+01  0.12655629214E+02  0.00000000000E+00 0.  1.
         11    1    5    5    0    0  0.14455864619E+02  0.16697327408E+02  0.19187042708E+02  0.29256031384E+02  0.00000000000E+00 0.  1.
        -11    1    5    5    0    0  0.21384005155E+03 -0.11277452119E+02 -0.36306555357E+02  0.21719326540E+03  0.00000000000E+00 0. -1.
          3    1    6    6  503    0 -0.29692963447E+03 -0.51448624192E+02 -0.23813577664E+03  0.38408699128E+03  0.00000000000E+00 0. -1.
         -3    1    6    6    0  503 -0.38407240815E+03 -0.84488778360E+02 -0.45264168356E+03  0.59961192623E+03  0.00000000000E+00 0.  1.
<mgrwt>
<rscale>  0 0.21610954E+04</rscale>
<asrwt>0</asrwt>
<pdfrwt beam="1">  1        2 0.17359447E+00 0.21610954E+04</pdfrwt>
<pdfrwt beam="2">  1       -1 0.15919349E+00 0.21610954E+04</pdfrwt>
<totfact> 0.64857130E+00</totfact>
</mgrwt>
</event>
<event>
12    6  0.9491186E-008  0.1904813E+04  0.7818608E-02  0.8652464E-01
         -3   -1    0    0    0  501 -0.00000000000E+00  0.00000000000E+00  0.38776963328E+03  0.38776963328E+03  0.00000000000E+00 0.  1.
          2   -1    0    0  501    0  0.00000000000E+00 -0.00000000000E+00 -0.23392184140E+04  0.23392184140E+04  0.00000000000E+00 0. -1.
         24    2    1    2    0    0  0.31001299254E+03 -0.50461923951E+03 -0.13941510818E+04  0.15169116414E+04  0.81332998023E+02 0.  0.
        254    2    1    2    0    0 -0.31001299254E+03  0.50461923951E+03 -0.55729769893E+03  0.12100764059E+04  0.89607787071E+03 0.  0.
         23    2    4    4    0    0  0.30382942667E+03  0.10333353596E+03 -0.19684606813E+03  0.38745419416E+03  0.91554562231E+02 0.  0.
         23    2    4    4    0    0 -0.61384241921E+03  0.40128570355E+03 -0.36045163080E+03  0.82262221171E+03  0.94600177359E+02 0.  0.
          2    1    3    3  502    0  0.29221679596E+03 -0.48783187016E+03 -0.12874832293E+04  0.14074742112E+04  0.00000000000E+00 0. -1.
         -1    1    3    3    0  502  0.17796196582E+02 -0.16787369352E+02 -0.10666785252E+03  0.10943743027E+03  0.00000000000E+00 0.  1.
         11    1    5    5    0    0  0.26917890861E+03  0.88475840152E+02 -0.13231747042E+03  0.31271899864E+03  0.00000000000E+00 0.  1.
        -11    1    5    5    0    0  0.34650518060E+02  0.14857695809E+02 -0.64528597708E+02  0.74735195515E+02  0.00000000000E+00 0. -1.
          4    1    6    6  503    0 -0.14949565966E+03  0.13804535767E+03 -0.71655447676E+02  0.21573125924E+03  0.00000000000E+00 0. -1.
         -4    1    6    6    0  503 -0.46434675955E+03  0.26324034588E+03 -0.28879618313E+03  0.60689095247E+03  0.00000000000E+00 0.  1.
<mgrwt>
<rscale>  0 0.19048127E+04</rscale>
<asrwt>0</asrwt>
<pdfrwt beam="1">  1        2 0.35987976E+00 0.19048127E+04</pdfrwt>
<pdfrwt beam="2">  1       -3 0.59656866E-01 0.19048127E+04</pdfrwt>
<totfact> 0.71207869E+00</totfact>
</mgrwt>
</event>
<event>
12    6  0.9491186E-008  0.2939225E+04  0.7818608E-02  0.8261302E-01
         -1   -1    0    0    0  501 -0.00000000000E+00  0.00000000000E+00  0.12657372030E+04  0.12657372030E+04  0.00000000000E+00 0.  1.
          2   -1    0    0  501    0  0.00000000000E+00 -0.00000000000E+00 -0.17063260454E+04  0.17063260454E+04  0.00000000000E+00 0. -1.
         24    2    1    2    0    0  0.51645483045E+03  0.58856589893E+03 -0.12819469962E+04  0.15042324851E+04  0.78688365402E+02 0.  0.
        254    2    1    2    0    0 -0.51645483045E+03 -0.58856589893E+03  0.84135815386E+03  0.14678307633E+04  0.91296670114E+03 0.  0.
         23    2    4    4    0    0 -0.90824270923E+02 -0.49377920361E+03  0.88369217767E+03  0.10208560318E+04  0.95750835935E+02 0.  0.
         23    2    4    4    0    0 -0.42563055953E+03 -0.94786695322E+02 -0.42334023814E+02  0.44697473156E+03  0.88590915288E+02 0.  0.
          2    1    3    3  502    0  0.28137028511E+03  0.33557442334E+03 -0.78829176783E+03  0.90176678924E+03  0.00000000000E+00 0. -1.
         -1    1    3    3    0  502  0.23508454534E+03  0.25299147559E+03 -0.49365522835E+03  0.60246569584E+03  0.00000000000E+00 0.  1.
         11    1    5    5    0    0  0.15629067433E+02 -0.44909167057E+02  0.57694123793E+02  0.74764382930E+02  0.00000000000E+00 0. -1.
        -11    1    5    5    0    0 -0.10645333836E+03 -0.44887003655E+03  0.82599805388E+03  0.94609164883E+03  0.00000000000E+00 0.  1.
          4    1    6    6  503    0 -0.38800097235E+02 -0.35558860409E+02  0.46079415868E+01  0.52830987353E+02  0.00000000000E+00 0. -1.
         -4    1    6    6    0  503 -0.38683046229E+03 -0.59227834913E+02 -0.46941965401E+02  0.39414374421E+03  0.00000000000E+00 0.  1.
<mgrwt>
<rscale>  0 0.29392246E+04</rscale>
<asrwt>0</asrwt>
<pdfrwt beam="1">  1        2 0.26251170E+00 0.29392246E+04</pdfrwt>
<pdfrwt beam="2">  1       -1 0.19472880E+00 0.29392246E+04</pdfrwt>
<totfact> 0.15596512E+00</totfact>
</mgrwt>
</event>
<event>
12    6  0.9491186E-008  0.1390586E+04  0.7818608E-02  0.8960661E-01
         -1   -1    0    0    0  501 -0.00000000000E+00  0.00000000000E+00  0.55623465688E+03  0.55623465688E+03  0.00000000000E+00 0.  1.
          2   -1    0    0  501    0  0.00000000000E+00 -0.00000000000E+00 -0.86911532883E+03  0.86911532883E+03  0.00000000000E+00 0. -1.
         24    2    1    2    0    0 -0.60701106484E+02 -0.55021269019E+02 -0.49297928952E+03  0.50580682198E+03  0.78102476900E+02 0.  0.
        254    2    1    2    0    0  0.60701106484E+02  0.55021269019E+02  0.18009861757E+03  0.91954316373E+03  0.89800453982E+03 0.  0.
         23    2    4    4    0    0  0.45777656682E+03  0.13088370730E+03  0.62647294674E+02  0.48880939707E+03  0.91214106235E+02 0.  0.
         23    2    4    4    0    0 -0.39707546033E+03 -0.75862438280E+02  0.11745132289E+03  0.43073376665E+03  0.91174194524E+02 0.  0.
          4    1    3    3  502    0 -0.70911695772E+02 -0.39314432198E+02 -0.46575349381E+03  0.47275829996E+03  0.00000000000E+00 0. -1.
         -3    1    3    3    0  502  0.10210589288E+02 -0.15706836821E+02 -0.27225795704E+02  0.33048522028E+02  0.00000000000E+00 0.  1.
         11    1    5    5    0    0  0.61355324404E+02  0.26540013923E+02 -0.21728654185E+02  0.70292123203E+02  0.00000000000E+00 0. -1.
        -11    1    5    5    0    0  0.39642124241E+03  0.10434369338E+03  0.84375948859E+02  0.41851727387E+03  0.00000000000E+00 0.  1.
          2    1    6    6  503    0 -0.30767241334E+02  0.81556370393E+01 -0.10832060688E+02  0.33622478992E+02  0.00000000000E+00 0. -1.
         -2    1    6    6    0  503 -0.36630821900E+03 -0.84018075319E+02  0.12828338358E+03  0.39711128766E+03  0.00000000000E+00 0.  1.
<mgrwt>
<rscale>  0 0.13905856E+04</rscale>
<asrwt>0</asrwt>
<pdfrwt beam="1">  1        2 0.13371005E+00 0.13905856E+04</pdfrwt>
<pdfrwt beam="2">  1       -1 0.85574563E-01 0.13905856E+04</pdfrwt>
<totfact> 0.46187696E+01</totfact>
</mgrwt>
</event>
<event>
12    6  0.9491186E-008  0.1563225E+04  0.7818608E-02  0.8843465E-01
          2   -1    0    0  501    0  0.00000000000E+00  0.00000000000E+00  0.14513657237E+04  0.14513657237E+04  0.00000000000E+00 0. -1.
         -1   -1    0    0    0  501 -0.00000000000E+00 -0.00000000000E+00 -0.42092617391E+03  0.42092617391E+03  0.00000000000E+00 0.  1.
         24    2    1    2    0    0 -0.46451090090E+03  0.12062383742E+02  0.63923623182E+03  0.79413864866E+03  0.78213522288E+02 0.  0.
        254    2    1    2    0    0  0.46451090090E+03 -0.12062383742E+02  0.39120331793E+03  0.10781532489E+04  0.89076288316E+03 0.  0.
         23    2    4    4    0    0  0.55692384726E+03  0.31769188446E+03  0.23766709977E+03  0.69160685454E+03  0.10364403424E+03 0.  0.
         23    2    4    4    0    0 -0.92412946360E+02 -0.32975426820E+03  0.15353621816E+03  0.38654639437E+03  0.92556548442E+02 0.  0.
          4    1    3    3  502    0 -0.45199422821E+03  0.25013840558E+02  0.62124922164E+03  0.76868398574E+03  0.00000000000E+00 0. -1.
         -3    1    3    3    0  502 -0.12516672689E+02 -0.12951456816E+02  0.17987010186E+02  0.25454662918E+02  0.00000000000E+00 0.  1.
         11    1    5    5    0    0  0.80043967359E+02  0.77080370384E+01  0.22604307802E+02  0.83530864216E+02  0.00000000000E+00 0. -1.
        -11    1    5    5    0    0  0.47687987990E+03  0.30998384742E+03  0.21506279197E+03  0.60807599032E+03  0.00000000000E+00 0.  1.
          4    1    6    6  503    0  0.15899387515E+02 -0.82295589158E+02  0.47608608406E+02  0.96394678860E+02  0.00000000000E+00 0. -1.
         -4    1    6    6    0  503 -0.10831233388E+03 -0.24745867904E+03  0.10592760975E+03  0.29015171551E+03  0.00000000000E+00 0.  1.
<mgrwt>
<rscale>  0 0.15632246E+04</rscale>
<asrwt>0</asrwt>
<pdfrwt beam="1">  1        2 0.22328703E+00 0.15632246E+04</pdfrwt>
<pdfrwt beam="2">  1       -1 0.64757874E-01 0.15632246E+04</pdfrwt>
<totfact> 0.35837562E+01</totfact>
</mgrwt>
</event>
<event>
12    6  0.9491186E-008  0.1289621E+04  0.7818608E-02  0.9037836E-01
          2   -1    0    0  501    0  0.00000000000E+00  0.00000000000E+00  0.20068916847E+04  0.20068916847E+04  0.00000000000E+00 0. -1.
         -1   -1    0    0    0  501 -0.00000000000E+00 -0.00000000000E+00 -0.20717654411E+03  0.20717654411E+03  0.00000000000E+00 0.  1.
         24    2    1    2    0    0  0.95980663764E+02 -0.10023048044E+02 -0.60726057013E+02  0.14300706639E+03  0.86316960838E+02 0.  0.
        254    2    1    2    0    0 -0.95980663764E+02  0.10023048044E+02  0.18604411976E+04  0.20710611624E+04  0.90484260478E+03 0.  0.
         23    2    4    4    0    0 -0.38513240592E+03 -0.28370344453E+03  0.96224217681E+03  0.10786382787E+04  0.93466116035E+02 0.  0.
         23    2    4    4    0    0  0.28915174215E+03  0.29372649257E+03  0.89819902075E+03  0.99242288371E+03  0.90871980359E+02 0.  0.
          4    1    3    3  502    0  0.76635908288E+02 -0.11109861561E+02  0.18918411397E+01  0.77460122165E+02  0.00000000000E+00 0. -1.
         -3    1    3    3    0  502  0.19344755476E+02  0.10868135168E+01 -0.62617898153E+02  0.65546944224E+02  0.00000000000E+00 0.  1.
         11    1    5    5    0    0 -0.34630828427E+03 -0.28453260498E+03  0.89607208728E+03  0.10019148750E+04  0.00000000000E+00 0.  1.
        -11    1    5    5    0    0 -0.38824121651E+02  0.82916045082E+00  0.66170089523E+02  0.76723403708E+02  0.00000000000E+00 0. -1.
          1    1    6    6  503    0  0.27625256355E-01  0.23936381552E+02  0.29794920572E+02  0.38218953634E+02  0.00000000000E+00 0. -1.
         -1    1    6    6    0  503  0.28912411690E+03  0.26979011102E+03  0.86840410018E+03  0.95420393008E+03  0.00000000000E+00 0.  1.
<mgrwt>
<rscale>  0 0.12896215E+04</rscale>
<asrwt>0</asrwt>
<pdfrwt beam="1">  1        2 0.30875255E+00 0.12896215E+04</pdfrwt>
<pdfrwt beam="2">  1       -1 0.31873316E-01 0.12896215E+04</pdfrwt>
<totfact> 0.67913732E+01</totfact>
</mgrwt>
</event>
<event>
12    6  0.9491186E-008  0.1439934E+04  0.7818608E-02  0.8925409E-01
         -1   -1    0    0    0  501 -0.00000000000E+00  0.00000000000E+00  0.71427040234E+03  0.71427040234E+03  0.00000000000E+00 0.  1.
          2   -1    0    0  501    0  0.00000000000E+00 -0.00000000000E+00 -0.72570857319E+03  0.72570857319E+03  0.00000000000E+00 0. -1.
         24    2    1    2    0    0  0.36532097241E+03 -0.13264576067E+03  0.20750351336E+03  0.44769658497E+03  0.79499769994E+02 0.  0.
        254    2    1    2    0    0 -0.36532097241E+03  0.13264576067E+03 -0.21894168421E+03  0.99228239055E+03  0.88636029401E+03 0.  0.
         23    2    4    4    0    0  0.17073762455E+03 -0.10135329716E+03 -0.32338927199E+03  0.39112228264E+03  0.94721652542E+02 0.  0.
         23    2    4    4    0    0 -0.53605859696E+03  0.23399905784E+03  0.10444758777E+03  0.60116010791E+03  0.91486601775E+02 0.  0.
          2    1    3    3  502    0  0.11920913979E+03 -0.41706319257E+02  0.26778637169E+02  0.12910201968E+03  0.00000000000E+00 0. -1.
         -1    1    3    3    0  502  0.24611183262E+03 -0.90939441416E+02  0.18072487619E+03  0.31859456530E+03  0.00000000000E+00 0.  1.
         11    1    5    5    0    0 -0.29279156508E+01  0.47626941403E+01  0.31012899968E+01  0.63932734320E+01  0.00000000000E+00 0.  1.
        -11    1    5    5    0    0  0.17366554020E+03 -0.10611599130E+03 -0.32649056198E+03  0.38472900921E+03  0.00000000000E+00 0. -1.
          4    1    6    6  503    0 -0.37293664193E+03  0.11581967888E+03  0.73495766256E+02  0.39736326525E+03  0.00000000000E+00 0. -1.
         -4    1    6    6    0  503 -0.16312195503E+03  0.11817937895E+03  0.30951821517E+02  0.20379684266E+03  0.00000000000E+00 0.  1.
<mgrwt>
<rscale>  0 0.14399335E+04</rscale>
<asrwt>0</asrwt>
<pdfrwt beam="1">  1        2 0.11164747E+00 0.14399335E+04</pdfrwt>
<pdfrwt beam="2">  1       -1 0.10988775E+00 0.14399335E+04</pdfrwt>
<totfact> 0.33192193E+01</totfact>
</mgrwt>
</event>
<event>
12    6  0.9491186E-008  0.1849512E+04  0.7818608E-02  0.8680404E-01
         -1   -1    0    0    0  501 -0.00000000000E+00  0.00000000000E+00  0.55446543697E+03  0.55446543697E+03  0.00000000000E+00 0.  1.
          2   -1    0    0  501    0  0.00000000000E+00 -0.00000000000E+00 -0.15423391020E+04  0.15423391020E+04  0.00000000000E+00 0. -1.
         24    2    1    2    0    0 -0.51966595923E+03 -0.16899478630E+03  0.12066224820E+03  0.56549214323E+03  0.81302145967E+02 0.  0.
        254    2    1    2    0    0  0.51966595923E+03  0.16899478630E+03 -0.11085359132E+04  0.15313123957E+04  0.90413153658E+03 0.  0.
         23    2    4    4    0    0  0.65520710115E+03 -0.12021300021E+03 -0.95044282041E+03  0.11641658430E+04  0.90515437327E+02 0.  0.
         23    2    4    4    0    0 -0.13554114192E+03  0.28920778651E+03 -0.15809309279E+03  0.36714655269E+03  0.88264490193E+02 0.  0.
          2    1    3    3  502    0 -0.24244664577E+03 -0.53746120156E+02  0.88158472943E+02  0.26351648492E+03  0.00000000000E+00 0. -1.
         -1    1    3    3    0  502 -0.27721931346E+03 -0.11524866614E+03  0.32503775254E+02  0.30197565831E+03  0.00000000000E+00 0.  1.
         11    1    5    5    0    0  0.27808143542E+03 -0.69436162074E+02 -0.48032317397E+03  0.55933980440E+03  0.00000000000E+00 0.  1.
        -11    1    5    5    0    0  0.37712566572E+03 -0.50776838139E+02 -0.47011964644E+03  0.60482603863E+03  0.00000000000E+00 0. -1.
          3    1    6    6  503    0 -0.12057851487E+03  0.20185201913E+03 -0.78096417274E+02  0.24775485115E+03  0.00000000000E+00 0. -1.
         -3    1    6    6    0  503 -0.14962627054E+02  0.87355767376E+02 -0.79996675519E+02  0.11939170154E+03  0.00000000000E+00 0.  1.
<mgrwt>
<rscale>  0 0.18495121E+04</rscale>
<asrwt>0</asrwt>
<pdfrwt beam="1">  1        2 0.23728293E+00 0.18495121E+04</pdfrwt>
<pdfrwt beam="2">  1       -1 0.85302376E-01 0.18495121E+04</pdfrwt>
<totfact> 0.17487790E+01</totfact>
</mgrwt>
</event>
<event>
12    6  0.9491186E-008  0.1612862E+04  0.7818608E-02  0.8812685E-01
          2   -1    0    0  501    0  0.00000000000E+00  0.00000000000E+00  0.32312481806E+03  0.32312481806E+03  0.00000000000E+00 0. -1.
         -1   -1    0    0    0  501 -0.00000000000E+00 -0.00000000000E+00 -0.20126308368E+04  0.20126308368E+04  0.00000000000E+00 0.  1.
         24    2    1    2    0    0  0.11525913557E+03  0.42801068295E+03 -0.10818893483E+03  0.46326879338E+03  0.80220422877E+02 0.  0.
        254    2    1    2    0    0 -0.11525913557E+03 -0.42801068295E+03 -0.15813170839E+04  0.18724868615E+04  0.89953627692E+03 0.  0.
         23    2    4    4    0    0 -0.38748046203E+03 -0.55770971003E+03 -0.11317011686E+04  0.13229218273E+04  0.90517385019E+02 0.  0.
         23    2    4    4    0    0  0.27222132646E+03  0.12969902708E+03 -0.44961591537E+03  0.54956503424E+03  0.94556688323E+02 0.  0.
          4    1    3    3  502    0  0.12070861475E+03  0.42528320326E+03 -0.11204195556E+03  0.45605895722E+03  0.00000000000E+00 0. -1.
         -3    1    3    3    0  502 -0.54494791721E+01  0.27274796850E+01  0.38530207337E+01  0.72098361600E+01  0.00000000000E+00 0.  1.
         11    1    5    5    0    0 -0.37176962664E+03 -0.50853788264E+03 -0.10049735023E+04  0.11860839657E+04  0.00000000000E+00 0. -1.
        -11    1    5    5    0    0 -0.15710835388E+02 -0.49171827385E+02 -0.12672766630E+03  0.13683786158E+03  0.00000000000E+00 0.  1.
          3    1    6    6  503    0  0.24377950119E+03  0.10636629058E+03 -0.43522638574E+03  0.51006297632E+03  0.00000000000E+00 0. -1.
         -3    1    6    6    0  503  0.28441825270E+02  0.23332736495E+02 -0.14389529631E+02  0.39502057922E+02  0.00000000000E+00 0.  1.
<mgrwt>
<rscale>  0 0.16128620E+04</rscale>
<asrwt>0</asrwt>
<pdfrwt beam="1">  1        2 0.49711511E-01 0.16128620E+04</pdfrwt>
<pdfrwt beam="2">  1       -1 0.30963551E+00 0.16128620E+04</pdfrwt>
<totfact> 0.31752374E+00</totfact>
</mgrwt>
</event>
<event>
12    6  0.9491186E-008  0.1494159E+04  0.7818608E-02  0.8888346E-01
          2   -1    0    0  501    0  0.00000000000E+00  0.00000000000E+00  0.36425152139E+03  0.36425152139E+03  0.00000000000E+00 0. -1.
         -1   -1    0    0    0  501 -0.00000000000E+00 -0.00000000000E+00 -0.15322600789E+04  0.15322600789E+04  0.00000000000E+00 0.  1.
         24    2    1    2    0    0  0.46016304916E+03  0.54195194371E+02 -0.43285069297E+03  0.63905985354E+03  0.79690796791E+02 0.  0.
        254    2    1    2    0    0 -0.46016304916E+03 -0.54195194371E+02 -0.73515786451E+03  0.12574517467E+04  0.90886778944E+03 0.  0.
         23    2    4    4    0    0 -0.52122795724E+03 -0.10656306726E+03 -0.28211049329E+02  0.54078786305E+03  0.92851380202E+02 0.  0.
         23    2    4    4    0    0  0.61064908077E+02  0.52367872885E+02 -0.70694681518E+03  0.71666388367E+03  0.85802130254E+02 0.  0.
          2    1    3    3  502    0  0.30592338469E+03  0.60121155296E+02 -0.24899329656E+03  0.39900041647E+03  0.00000000000E+00 0. -1.
         -1    1    3    3    0  502  0.15423966448E+03 -0.59259609243E+01 -0.18385739642E+03  0.24005943707E+03  0.00000000000E+00 0.  1.
         11    1    5    5    0    0 -0.44098124322E+03 -0.94139905467E+02 -0.57274976579E+02  0.45454064902E+03  0.00000000000E+00 0. -1.
        -11    1    5    5    0    0 -0.80246714019E+02 -0.12423161789E+02  0.29063927250E+02  0.86247214024E+02  0.00000000000E+00 0.  1.
          3    1    6    6  503    0  0.82494532169E+02  0.42250602112E+02 -0.51672419253E+03  0.52497081096E+03  0.00000000000E+00 0. -1.
         -3    1    6    6    0  503 -0.21429624092E+02  0.10117270772E+02 -0.19022262266E+03  0.19169307272E+03  0.00000000000E+00 0.  1.
<mgrwt>
<rscale>  0 0.14941594E+04</rscale>
<asrwt>0</asrwt>
<pdfrwt beam="1">  1        2 0.56038697E-01 0.14941594E+04</pdfrwt>
<pdfrwt beam="2">  1       -1 0.23573231E+00 0.14941594E+04</pdfrwt>
<totfact> 0.84569931E+00</totfact>
</mgrwt>
</event>
<event>
12    6  0.9491186E-008  0.3214051E+04  0.7818608E-02  0.8185116E-01
          2   -1    0    0  501    0  0.00000000000E+00  0.00000000000E+00  0.14374961416E+04  0.14374961416E+04  0.00000000000E+00 0. -1.
         -1   -1    0    0    0  501 -0.00000000000E+00 -0.00000000000E+00 -0.17965482191E+04  0.17965482191E+04  0.00000000000E+00 0.  1.
         24    2    1    2    0    0  0.34018958592E+02 -0.12068326362E+04  0.67867564385E+03  0.13879314392E+04  0.90281499117E+02 0.  0.
        254    2    1    2    0    0 -0.34018958592E+02  0.12068326362E+04 -0.10377277214E+04  0.18461129215E+04  0.93469342236E+03 0.  0.
         23    2    4    4    0    0 -0.43844495057E+03  0.78896797200E+03 -0.44325798917E+03  0.10096239786E+04  0.90324402162E+02 0.  0.
         23    2    4    4    0    0  0.40442599198E+03  0.41786466422E+03 -0.59446973223E+03  0.83648894293E+03  0.90267538559E+02 0.  0.
          4    1    3    3  502    0  0.42503587249E+02 -0.11282641005E+04  0.65561562558E+03  0.13056103109E+04  0.00000000000E+00 0. -1.
         -3    1    3    3    0  502 -0.84846286573E+01 -0.78568535765E+02  0.23060018266E+02  0.82321128382E+02  0.00000000000E+00 0.  1.
         11    1    5    5    0    0 -0.28913518210E+03  0.59398476161E+03 -0.30277787267E+03  0.72669903725E+03  0.00000000000E+00 0. -1.
        -11    1    5    5    0    0 -0.14930976847E+03  0.19498321039E+03 -0.14048011650E+03  0.28292494133E+03  0.00000000000E+00 0.  1.
          4    1    6    6  503    0  0.36322816907E+03  0.37287426345E+03 -0.48660508994E+03  0.71256889682E+03  0.00000000000E+00 0. -1.
         -4    1    6    6    0  503  0.41197822911E+02  0.44990400765E+02 -0.10786464228E+03  0.12392004611E+03  0.00000000000E+00 0.  1.
<mgrwt>
<rscale>  0 0.32140511E+04</rscale>
<asrwt>0</asrwt>
<pdfrwt beam="1">  1        2 0.22115326E+00 0.32140511E+04</pdfrwt>
<pdfrwt beam="2">  1       -1 0.27639203E+00 0.32140511E+04</pdfrwt>
<totfact> 0.61953585E-01</totfact>
</mgrwt>
</event>
<event>
12    6  0.9491186E-008  0.1586143E+04  0.7818608E-02  0.8829107E-01
          2   -1    0    0  501    0  0.00000000000E+00  0.00000000000E+00  0.10746240936E+04  0.10746240936E+04  0.00000000000E+00 0. -1.
         -1   -1    0    0    0  501 -0.00000000000E+00 -0.00000000000E+00 -0.58528578574E+03  0.58528578574E+03  0.00000000000E+00 0.  1.
         24    2    1    2    0    0  0.70070841866E+01  0.23485156923E+03  0.65638521101E+03  0.70180089155E+03  0.80489672313E+02 0.  0.
        254    2    1    2    0    0 -0.70070841866E+01 -0.23485156923E+03 -0.16704690319E+03  0.95810898774E+03  0.91370881890E+03 0.  0.
         23    2    4    4    0    0  0.22956081072E+03 -0.43499464841E+03 -0.32700816537E+03  0.59775385007E+03  0.91960943269E+02 0.  0.
         23    2    4    4    0    0 -0.23656789491E+03  0.20014307918E+03  0.15996126218E+03  0.36035513768E+03  0.90810785744E+02 0.  0.
          2    1    3    3  502    0  0.72342007379E+01  0.23829110053E+03  0.65640162320E+03  0.69835383094E+03  0.00000000000E+00 0. -1.
         -1    1    3    3    0  502 -0.22711655128E+00 -0.34395312957E+01 -0.16412193302E-01  0.34470606061E+01  0.00000000000E+00 0.  1.
         11    1    5    5    0    0  0.23199819227E+03 -0.40360520650E+03 -0.32158386014E+03  0.56580606486E+03  0.00000000000E+00 0. -1.
        -11    1    5    5    0    0 -0.24373815534E+01 -0.31389441912E+02 -0.54243052315E+01  0.31947785207E+02  0.00000000000E+00 0.  1.
          1    1    6    6  503    0 -0.18058884122E+03  0.19631943491E+03  0.12974219756E+03  0.29662550114E+03  0.00000000000E+00 0. -1.
         -1    1    6    6    0  503 -0.55979053685E+02  0.38236442705E+01  0.30219064619E+02  0.63729636539E+02  0.00000000000E+00 0.  1.
<mgrwt>
<rscale>  0 0.15861428E+04</rscale>
<asrwt>0</asrwt>
<pdfrwt beam="1">  1        2 0.16532678E+00 0.15861428E+04</pdfrwt>
<pdfrwt beam="2">  1       -1 0.90043967E-01 0.15861428E+04</pdfrwt>
<totfact> 0.29854041E+01</totfact>
</mgrwt>
</event>
<event>
12    6  0.9491186E-008  0.2212083E+04  0.7818608E-02  0.8513416E-01
          2   -1    0    0  501    0  0.00000000000E+00  0.00000000000E+00  0.51731530137E+03  0.51731530137E+03  0.00000000000E+00 0. -1.
         -1   -1    0    0    0  501 -0.00000000000E+00 -0.00000000000E+00 -0.23647633154E+04  0.23647633154E+04  0.00000000000E+00 0.  1.
         24    2    1    2    0    0  0.59351262497E+03 -0.66779771858E+03 -0.47416503421E+03  0.10142429544E+04  0.75134957998E+02 0.  0.
        254    2    1    2    0    0 -0.59351262497E+03  0.66779771858E+03 -0.13732829799E+04  0.18678356624E+04  0.89704676028E+03 0.  0.
         23    2    4    4    0    0  0.72799729947E+01  0.13787432133E+02  0.10546943744E+03  0.14046479382E+03  0.91451980715E+02 0.  0.
         23    2    4    4    0    0 -0.60079259796E+03  0.65401028645E+03 -0.14787524173E+04  0.17273708686E+04  0.91761677752E+02 0.  0.
          2    1    3    3  502    0  0.57640636068E+03 -0.65786886310E+03 -0.47315029998E+03  0.99443800211E+03  0.00000000000E+00 0. -1.
         -1    1    3    3    0  502  0.17106264287E+02 -0.99288554813E+01 -0.10147342293E+01  0.19804952275E+02  0.00000000000E+00 0.  1.
         11    1    5    5    0    0  0.13561673932E+02  0.42439795164E+02  0.10152102202E+03  0.11086736727E+03  0.00000000000E+00 0.  1.
        -11    1    5    5    0    0 -0.62817009371E+01 -0.28652363031E+02  0.39484154209E+01  0.29597426548E+02  0.00000000000E+00 0. -1.
          2    1    6    6  503    0 -0.13172460042E+03  0.17288395363E+03 -0.29849683086E+03  0.36924326644E+03  0.00000000000E+00 0. -1.
         -2    1    6    6    0  503 -0.46906799754E+03  0.48112633282E+03 -0.11802555864E+04  0.13581276022E+04  0.00000000000E+00 0.  1.
<mgrwt>
<rscale>  0 0.22120834E+04</rscale>
<asrwt>0</asrwt>
<pdfrwt beam="1">  1        2 0.79586969E-01 0.22120834E+04</pdfrwt>
<pdfrwt beam="2">  1       -1 0.36380974E+00 0.22120834E+04</pdfrwt>
<totfact> 0.77643730E-01</totfact>
</mgrwt>
</event>
<event>
12    6  0.9491186E-008  0.1493106E+04  0.7818608E-02  0.8889050E-01
         -1   -1    0    0    0  501 -0.00000000000E+00  0.00000000000E+00  0.66621323224E+03  0.66621323224E+03  0.00000000000E+00 0.  1.
          2   -1    0    0  501    0  0.00000000000E+00 -0.00000000000E+00 -0.83658147740E+03  0.83658147740E+03  0.00000000000E+00 0. -1.
         24    2    1    2    0    0 -0.22921012310E+03 -0.33108262667E+03  0.18557811992E+03  0.44691255115E+03  0.56023241281E+02 0.  0.
        254    2    1    2    0    0  0.22921012310E+03  0.33108262667E+03 -0.35594636508E+03  0.10558821585E+04  0.90886540896E+03 0.  0.
         23    2    4    4    0    0 -0.12754869044E+03  0.35901573953E+03  0.15825500155E+03  0.42271954308E+03  0.92120556486E+02 0.  0.
         23    2    4    4    0    0  0.35675881355E+03 -0.27933112855E+02 -0.51420136663E+03  0.63316261541E+03  0.91840852956E+02 0.  0.
          4    1    3    3  502    0 -0.20382134399E+03 -0.26916120150E+03  0.13770312584E+03  0.36462726657E+03  0.00000000000E+00 0. -1.
         -3    1    3    3    0  502 -0.25388779111E+02 -0.61921425176E+02  0.47874994079E+02  0.82285284581E+02  0.00000000000E+00 0.  1.
         11    1    5    5    0    0 -0.69564630572E+02  0.13467956145E+03  0.19998514754E+02  0.15289788321E+03  0.00000000000E+00 0. -1.
        -11    1    5    5    0    0 -0.57984059870E+02  0.22433617808E+03  0.13825648680E+03  0.26982165987E+03  0.00000000000E+00 0.  1.
          4    1    6    6  503    0  0.31145818500E+03 -0.30075242140E+02 -0.38433187521E+03  0.49560237237E+03  0.00000000000E+00 0. -1.
         -4    1    6    6    0  503  0.45300628549E+02  0.21421292859E+01 -0.12986949142E+03  0.13756024304E+03  0.00000000000E+00 0.  1.
<mgrwt>
<rscale>  0 0.14931064E+04</rscale>
<asrwt>0</asrwt>
<pdfrwt beam="1">  1        2 0.12870484E+00 0.14931064E+04</pdfrwt>
<pdfrwt beam="2">  1       -1 0.10249434E+00 0.14931064E+04</pdfrwt>
<totfact> 0.32242729E+01</totfact>
</mgrwt>
</event>
<event>
12    6  0.9491186E-008  0.1564329E+04  0.7818608E-02  0.8842767E-01
          2   -1    0    0  501    0  0.00000000000E+00  0.00000000000E+00  0.51081705341E+03  0.51081705341E+03  0.00000000000E+00 0. -1.
         -1   -1    0    0    0  501 -0.00000000000E+00 -0.00000000000E+00 -0.11976527601E+04  0.11976527601E+04  0.00000000000E+00 0.  1.
         24    2    1    2    0    0  0.29896022131E+03 -0.43119975435E+02 -0.59170602696E+03  0.66906507883E+03  0.79344257281E+02 0.  0.
        254    2    1    2    0    0 -0.29896022131E+03  0.43119975435E+02 -0.95129679690E+02  0.10394047346E+04  0.98998787883E+03 0.  0.
         23    2    4    4    0    0 -0.27835135007E+03  0.49240521261E+03 -0.12102662850E+02  0.57292353181E+03  0.90291369230E+02 0.  0.
         23    2    4    4    0    0 -0.20608871232E+02 -0.44928523718E+03 -0.83027016840E+02  0.46648120283E+03  0.91811094916E+02 0.  0.
          2    1    3    3  502    0  0.33734358310E+02 -0.23281596436E+01 -0.13673010886E+03  0.14084938738E+03  0.00000000000E+00 0. -1.
         -1    1    3    3    0  502  0.26522586300E+03 -0.40791815792E+02 -0.45497591810E+03  0.52821569145E+03  0.00000000000E+00 0.  1.
         11    1    5    5    0    0 -0.27158004288E+03  0.46050001839E+03  0.78751191825E+01  0.53467560645E+03  0.00000000000E+00 0. -1.
        -11    1    5    5    0    0 -0.67713071903E+01  0.31905194228E+02 -0.19977782033E+02  0.38247925365E+02  0.00000000000E+00 0.  1.
          1    1    6    6  503    0  0.10240944439E+02 -0.39072735260E+03 -0.55435019324E+02  0.39477307707E+03  0.00000000000E+00 0. -1.
         -1    1    6    6    0  503 -0.30849815671E+02 -0.58557884584E+02 -0.27591997516E+02  0.71708125766E+02  0.00000000000E+00 0.  1.
<mgrwt>
<rscale>  0 0.15643292E+04</rscale>
<asrwt>0</asrwt>
<pdfrwt beam="1">  1        2 0.78587239E-01 0.15643292E+04</pdfrwt>
<pdfrwt beam="2">  1       -1 0.18425427E+00 0.15643292E+04</pdfrwt>
<totfact> 0.12806619E+01</totfact>
</mgrwt>
</event>
<event>
12    6  0.9491186E-008  0.1834142E+04  0.7818608E-02  0.8688351E-01
          2   -1    0    0  501    0  0.00000000000E+00  0.00000000000E+00  0.22334613870E+04  0.22334613870E+04  0.00000000000E+00 0. -1.
         -1   -1    0    0    0  501 -0.00000000000E+00 -0.00000000000E+00 -0.37655401964E+03  0.37655401964E+03  0.00000000000E+00 0.  1.
         24    2    1    2    0    0 -0.39130909839E+03  0.22930313735E+03 -0.40427193215E+02  0.46217249741E+03  0.79160091772E+02 0.  0.
        254    2    1    2    0    0  0.39130909839E+03 -0.22930313735E+03  0.18973345605E+04  0.21478429092E+04  0.89869237713E+03 0.  0.
         23    2    4    4    0    0 -0.92076624407E+02  0.27027310893E+03  0.46919660549E+03  0.55688707654E+03  0.91935320982E+02 0.  0.
         23    2    4    4    0    0  0.48338572279E+03 -0.49957624628E+03  0.14281379550E+04  0.15909558326E+04  0.91237382525E+02 0.  0.
          2    1    3    3  502    0 -0.25148872988E+02  0.22275601710E+02 -0.23869390735E+02  0.41211843664E+02  0.00000000000E+00 0. -1.
         -1    1    3    3    0  502 -0.36616022540E+03  0.20702753564E+03 -0.16557802480E+02  0.42096065374E+03  0.00000000000E+00 0.  1.
         11    1    5    5    0    0 -0.34579302141E+02  0.18529050713E+02  0.89296115279E+02  0.97533840592E+02  0.00000000000E+00 0. -1.
        -11    1    5    5    0    0 -0.57497322266E+02  0.25174405821E+03  0.37990049021E+03  0.45935323595E+03  0.00000000000E+00 0.  1.
          2    1    6    6  503    0  0.19743777412E+03 -0.16743609695E+03  0.61407432812E+03  0.66641113561E+03  0.00000000000E+00 0. -1.
         -2    1    6    6    0  503  0.28594794868E+03 -0.33214014933E+03  0.81406362692E+03  0.92454469704E+03  0.00000000000E+00 0.  1.
<mgrwt>
<rscale>  0 0.18341416E+04</rscale>
<asrwt>0</asrwt>
<pdfrwt beam="1">  1        2 0.34360944E+00 0.18341416E+04</pdfrwt>
<pdfrwt beam="2">  1       -1 0.57931389E-01 0.18341416E+04</pdfrwt>
<totfact> 0.16005010E+01</totfact>
</mgrwt>
</event>
<event>
12    6  0.9491186E-008  0.2365857E+04  0.7818608E-02  0.8452398E-01
          2   -1    0    0  501    0  0.00000000000E+00  0.00000000000E+00  0.15834453091E+04  0.15834453091E+04  0.00000000000E+00 0. -1.
         -1   -1    0    0    0  501 -0.00000000000E+00 -0.00000000000E+00 -0.88371860022E+03  0.88371860022E+03  0.00000000000E+00 0.  1.
         24    2    1    2    0    0 -0.22304298130E+01  0.64418515956E+03 -0.50698457999E+03  0.82344924104E+03  0.77818979692E+02 0.  0.
        254    2    1    2    0    0  0.22304298130E+01 -0.64418515956E+03  0.12067112889E+04  0.16437146683E+04  0.91140895402E+03 0.  0.
         23    2    4    4    0    0  0.77773266601E+01 -0.80039805944E+03  0.58339302128E+03  0.99466469563E+03  0.91175101263E+02 0.  0.
         23    2    4    4    0    0 -0.55468968471E+01  0.15621289988E+03  0.62331826764E+03  0.64904997269E+03  0.91142559384E+02 0.  0.
          2    1    3    3  502    0 -0.26445276849E+02  0.10352915091E+03 -0.99405185614E+02  0.14594186748E+03  0.00000000000E+00 0. -1.
         -1    1    3    3    0  502  0.24214847036E+02  0.54065600865E+03 -0.40757939438E+03  0.67750737356E+03  0.00000000000E+00 0.  1.
         11    1    5    5    0    0  0.33642330479E+02 -0.17986992515E+03  0.10745652391E+03  0.21220721219E+03  0.00000000000E+00 0.  1.
        -11    1    5    5    0    0 -0.25865003818E+02 -0.62052813429E+03  0.47593649736E+03  0.78245748344E+03  0.00000000000E+00 0. -1.
          4    1    6    6  503    0 -0.27115685432E+02  0.15032177697E+03  0.47231608471E+03  0.49640143120E+03  0.00000000000E+00 0. -1.
         -4    1    6    6    0  503  0.21568788585E+02  0.58911229156E+01  0.15100218293E+03  0.15264854149E+03  0.00000000000E+00 0.  1.
<mgrwt>
<rscale>  0 0.23658572E+04</rscale>
<asrwt>0</asrwt>
<pdfrwt beam="1">  1        2 0.24360697E+00 0.23658572E+04</pdfrwt>
<pdfrwt beam="2">  1       -1 0.13595671E+00 0.23658572E+04</pdfrwt>
<totfact> 0.52927895E+00</totfact>
</mgrwt>
</event>
<event>
12    6  0.9491186E-008  0.1484566E+04  0.7818608E-02  0.8894782E-01
         -1   -1    0    0    0  501 -0.00000000000E+00  0.00000000000E+00  0.86225966598E+03  0.86225966598E+03  0.00000000000E+00 0.  1.
          2   -1    0    0  501    0  0.00000000000E+00 -0.00000000000E+00 -0.63900032647E+03  0.63900032647E+03  0.00000000000E+00 0. -1.
         24    2    1    2    0    0 -0.41399922641E+03 -0.18836548881E+02  0.28682879531E+03  0.51025024135E+03  0.79588792785E+02 0.  0.
        254    2    1    2    0    0  0.41399922641E+03  0.18836548881E+02 -0.63569455804E+02  0.99100975109E+03  0.89794714544E+03 0.  0.
         23    2    4    4    0    0  0.26444306469E+03  0.11528274085E+03  0.39096583935E+03  0.49425755291E+03  0.90642133000E+02 0.  0.
         23    2    4    4    0    0  0.14955616173E+03 -0.96446191971E+02 -0.45453529515E+03  0.49675219818E+03  0.92149326674E+02 0.  0.
          2    1    3    3  502    0 -0.21866155635E+02  0.67408777058E+01 -0.13812537774E+01  0.22923264525E+02  0.00000000000E+00 0. -1.
         -3    1    3    3    0  502 -0.39213307078E+03 -0.25577426587E+02  0.28821004909E+03  0.48732697683E+03  0.00000000000E+00 0.  1.
         11    1    5    5    0    0  0.20525949923E+03  0.99924806896E+02  0.23928692181E+03  0.33071839986E+03  0.00000000000E+00 0.  1.
        -11    1    5    5    0    0  0.59183565458E+02  0.15357933956E+02  0.15167891754E+03  0.16353915305E+03  0.00000000000E+00 0. -1.
          4    1    6    6  503    0  0.12933519244E+03 -0.32578300923E+02 -0.30678733058E+03  0.33452564012E+03  0.00000000000E+00 0. -1.
         -4    1    6    6    0  503  0.20220969287E+02 -0.63867891048E+02 -0.14774796457E+03  0.16222655806E+03  0.00000000000E+00 0.  1.
<mgrwt>
<rscale>  0 0.14845662E+04</rscale>
<asrwt>0</asrwt>
<pdfrwt beam="1">  1        2 0.98307742E-01 0.14845662E+04</pdfrwt>
<pdfrwt beam="2">  1       -1 0.13265533E+00 0.14845662E+04</pdfrwt>
<totfact> 0.24454283E+01</totfact>
</mgrwt>
</event>
<event>
12    6  0.9491186E-008  0.1698885E+04  0.7818608E-02  0.8762001E-01
          2   -1    0    0  501    0  0.00000000000E+00  0.00000000000E+00  0.35092711851E+04  0.35092711851E+04  0.00000000000E+00 0. -1.
         -1   -1    0    0    0  501 -0.00000000000E+00 -0.00000000000E+00 -0.20561313399E+03  0.20561313399E+03  0.00000000000E+00 0.  1.
         24    2    1    2    0    0 -0.43664109693E+03  0.12649174982E+03  0.20805123602E+04  0.21308727772E+04  0.73698719695E+02 0.  0.
        254    2    1    2    0    0  0.43664109693E+03 -0.12649174982E+03  0.12231456909E+04  0.15840115419E+04  0.89797080876E+03 0.  0.
         23    2    4    4    0    0  0.55695265085E+03 -0.26738408081E+03  0.41536760407E+03  0.75021029760E+03  0.92707832274E+02 0.  0.
         23    2    4    4    0    0 -0.12031155392E+03  0.14089233100E+03  0.80777808680E+03  0.83380124427E+03  0.91616365787E+02 0.  0.
          4    1    3    3  502    0 -0.32319599204E+03  0.95420221397E+02  0.13796914226E+04  0.14202496575E+04  0.00000000000E+00 0. -1.
         -3    1    3    3    0  502 -0.11344510489E+03  0.31071528421E+02  0.70082093758E+03  0.71062311970E+03  0.00000000000E+00 0.  1.
         11    1    5    5    0    0  0.14827164186E+03 -0.48107666282E+02  0.14759088340E+03  0.21466694249E+03  0.00000000000E+00 0.  1.
        -11    1    5    5    0    0  0.40868100899E+03 -0.21927641453E+03  0.26777672067E+03  0.53554335512E+03  0.00000000000E+00 0. -1.
          3    1    6    6  503    0 -0.23688510714E+02  0.81490352196E+02  0.46686752634E+03  0.47451776594E+03  0.00000000000E+00 0. -1.
         -3    1    6    6    0  503 -0.96623043204E+02  0.59401978800E+02  0.34091056047E+03  0.35928347833E+03  0.00000000000E+00 0.  1.
<mgrwt>
<rscale>  0 0.16988846E+04</rscale>
<asrwt>0</asrwt>
<pdfrwt beam="1">  1        2 0.53988783E+00 0.16988846E+04</pdfrwt>
<pdfrwt beam="2">  1       -1 0.31632792E-01 0.16988846E+04</pdfrwt>
<totfact> 0.81458584E+00</totfact>
</mgrwt>
</event>
<event>
12    6  0.9491186E-008  0.2378811E+04  0.7818608E-02  0.8447479E-01
          2   -1    0    0  501    0  0.00000000000E+00  0.00000000000E+00  0.21416454142E+04  0.21416454142E+04  0.00000000000E+00 0. -1.
         -1   -1    0    0    0  501 -0.00000000000E+00 -0.00000000000E+00 -0.66055980415E+03  0.66055980415E+03  0.00000000000E+00 0.  1.
         24    2    1    2    0    0 -0.96061293970E+03 -0.10613049767E+03  0.10435098738E+04  0.14245775591E+04  0.80420537003E+02 0.  0.
        254    2    1    2    0    0  0.96061293970E+03  0.10613049767E+03  0.43757573621E+03  0.13776276592E+04  0.87883134901E+03 0.  0.
         23    2    4    4    0    0  0.26979361513E+03 -0.15785339109E+03 -0.21255338377E+03  0.38855976435E+03  0.89963668664E+02 0.  0.
         23    2    4    4    0    0  0.69081932457E+03  0.26398388876E+03  0.65012911998E+03  0.98906789484E+03  0.93105291098E+02 0.  0.
          4    1    3    3  502    0 -0.66432211204E+03 -0.79281258591E+02  0.66709046615E+03  0.94478520127E+03  0.00000000000E+00 0. -1.
         -3    1    3    3    0  502 -0.29629082766E+03 -0.26849239080E+02  0.37641940766E+03  0.47979235786E+03  0.00000000000E+00 0.  1.
         11    1    5    5    0    0  0.27396149960E+03 -0.15582126754E+03 -0.21658201752E+03  0.38241723418E+03  0.00000000000E+00 0. -1.
        -11    1    5    5    0    0 -0.41678844702E+01 -0.20321235403E+01  0.40286337517E+01  0.61425301746E+01  0.00000000000E+00 0.  1.
          2    1    6    6  503    0  0.61665469869E+03  0.23971123646E+03  0.61569570460E+03  0.90377303288E+03  0.00000000000E+00 0. -1.
         -2    1    6    6    0  503  0.74164625879E+02  0.24272652299E+02  0.34433415382E+02  0.85294861957E+02  0.00000000000E+00 0.  1.
<mgrwt>
<rscale>  0 0.23788105E+04</rscale>
<asrwt>0</asrwt>
<pdfrwt beam="1">  1        2 0.32948391E+00 0.23788105E+04</pdfrwt>
<pdfrwt beam="2">  1       -1 0.10162459E+00 0.23788105E+04</pdfrwt>
<totfact> 0.52414765E+00</totfact>
</mgrwt>
</event>
<event>
12    6  0.9491186E-008  0.2211045E+04  0.7818608E-02  0.8513845E-01
         -1   -1    0    0    0  501 -0.00000000000E+00  0.00000000000E+00  0.86168523773E+03  0.86168523773E+03  0.00000000000E+00 0.  1.
          2   -1    0    0  501    0  0.00000000000E+00 -0.00000000000E+00 -0.14183599374E+04  0.14183599374E+04  0.00000000000E+00 0. -1.
         24    2    1    2    0    0 -0.59867158216E+03 -0.14989176840E+03  0.47417681073E+03  0.78239743175E+03  0.80167873021E+02 0.  0.
        254    2    1    2    0    0  0.59867158216E+03  0.14989176840E+03 -0.10308515104E+04  0.14976477434E+04  0.89410218725E+03 0.  0.
         23    2    4    4    0    0  0.35967499188E+03 -0.42352645246E+02  0.44179350090E+02  0.37611295377E+03  0.91374464024E+02 0.  0.
         23    2    4    4    0    0  0.23899659028E+03  0.19224441364E+03 -0.10750308605E+04  0.11215347896E+04  0.89842353977E+02 0.  0.
          4    1    3    3  502    0 -0.23773721922E+03 -0.19422365108E+02  0.17908503542E+03  0.29827447692E+03  0.00000000000E+00 0. -1.
         -3    1    3    3    0  502 -0.36093436293E+03 -0.13046940329E+03  0.29509177531E+03  0.48412295484E+03  0.00000000000E+00 0.  1.
         11    1    5    5    0    0  0.22651249238E+03 -0.67603829887E+02  0.44708215276E+02  0.24057641516E+03  0.00000000000E+00 0. -1.
        -11    1    5    5    0    0  0.13316249951E+03  0.25251184641E+02 -0.52886518675E+00  0.13553653861E+03  0.00000000000E+00 0.  1.
          1    1    6    6  503    0  0.23450191452E+03  0.19050053386E+03 -0.10750662869E+04  0.11167135365E+04  0.00000000000E+00 0. -1.
         -1    1    6    6    0  503  0.44946757579E+01  0.17438797881E+01  0.35426403722E-01  0.48212531477E+01  0.00000000000E+00 0.  1.
<mgrwt>
<rscale>  0 0.22110448E+04</rscale>
<asrwt>0</asrwt>
<pdfrwt beam="1">  1        2 0.21820922E+00 0.22110448E+04</pdfrwt>
<pdfrwt beam="2">  1       -1 0.13256696E+00 0.22110448E+04</pdfrwt>
<totfact> 0.70929469E+00</totfact>
</mgrwt>
</event>
<event>
12    6  0.9491186E-008  0.2289895E+04  0.7818608E-02  0.8481916E-01
          2   -1    0    0  501    0  0.00000000000E+00  0.00000000000E+00  0.74857863854E+03  0.74857863854E+03  0.00000000000E+00 0. -1.
         -1   -1    0    0    0  501 -0.00000000000E+00 -0.00000000000E+00 -0.17511924974E+04  0.17511924974E+04  0.00000000000E+00 0.  1.
         24    2    1    2    0    0 -0.64619439094E+03 -0.72027462957E+03 -0.48036149488E+03  0.10834467996E+04  0.82140543414E+02 0.  0.
        254    2    1    2    0    0  0.64619439094E+03  0.72027462957E+03 -0.52225236396E+03  0.14163243364E+04  0.89267259463E+03 0.  0.
         23    2    4    4    0    0 -0.11015008047E+03  0.10065641962E+03  0.14614914881E+03  0.22839621817E+03  0.92414845887E+02 0.  0.
         23    2    4    4    0    0  0.75634447140E+03  0.61961820995E+03 -0.66840151277E+03  0.11879281182E+04  0.91809292406E+02 0.  0.
          2    1    3    3  502    0 -0.47820456518E+03 -0.49413669466E+03 -0.37025540668E+03  0.78098639255E+03  0.00000000000E+00 0. -1.
         -1    1    3    3    0  502 -0.16798982575E+03 -0.22613793490E+03 -0.11010608821E+03  0.30246040703E+03  0.00000000000E+00 0.  1.
         11    1    5    5    0    0 -0.41846756868E+02  0.87088784141E+02  0.47557020368E+02  0.10769065684E+03  0.00000000000E+00 0. -1.
        -11    1    5    5    0    0 -0.68303323598E+02  0.13567635481E+02  0.98592128440E+02  0.12070556134E+03  0.00000000000E+00 0.  1.
          4    1    6    6  503    0  0.49961145547E+03  0.35197688698E+03 -0.42049388357E+03  0.74183181485E+03  0.00000000000E+00 0. -1.
         -4    1    6    6    0  503  0.25673301593E+03  0.26764132297E+03 -0.24790762920E+03  0.44609630333E+03  0.00000000000E+00 0.  1.
<mgrwt>
<rscale>  0 0.22898955E+04</rscale>
<asrwt>0</asrwt>
<pdfrwt beam="1">  1        2 0.11516595E+00 0.22898955E+04</pdfrwt>
<pdfrwt beam="2">  1       -1 0.26941423E+00 0.22898955E+04</pdfrwt>
<totfact> 0.20286355E+00</totfact>
</mgrwt>
</event>
<event>
12    6  0.9491186E-008  0.2526643E+04  0.7818608E-02  0.8393555E-01
         -1   -1    0    0    0  501 -0.00000000000E+00  0.00000000000E+00  0.15645131101E+04  0.15645131101E+04  0.00000000000E+00 0.  1.
          2   -1    0    0  501    0  0.00000000000E+00 -0.00000000000E+00 -0.10201139757E+04  0.10201139757E+04  0.00000000000E+00 0. -1.
         24    2    1    2    0    0  0.58727080650E+03 -0.42303980039E+03 -0.61307856702E+03  0.95170775477E+03  0.77670124671E+02 0.  0.
        254    2    1    2    0    0 -0.58727080650E+03  0.42303980039E+03  0.11574777014E+04  0.16329193311E+04  0.89600292389E+03 0.  0.
         23    2    4    4    0    0 -0.12827889723E+03  0.54295374301E+03  0.28092862580E+03  0.63182796571E+03  0.95033904142E+02 0.  0.
         23    2    4    4    0    0 -0.45899190927E+03 -0.11991394262E+03  0.87654907564E+03  0.10010913654E+04  0.93769469520E+02 0.  0.
          2    1    3    3  502    0  0.37760229750E+03 -0.31650681107E+03 -0.41977067621E+03  0.64727697096E+03  0.00000000000E+00 0. -1.
         -1    1    3    3    0  502  0.20966850900E+03 -0.10653298932E+03 -0.19330789081E+03  0.30443078381E+03  0.00000000000E+00 0.  1.
         11    1    5    5    0    0 -0.13493952299E+03  0.38775615737E+03  0.20683145298E+03  0.45972030887E+03  0.00000000000E+00 0.  1.
        -11    1    5    5    0    0  0.66606257610E+01  0.15519758564E+03  0.74097172817E+02  0.17210765685E+03  0.00000000000E+00 0. -1.
          4    1    6    6  503    0 -0.47941590480E+02 -0.44999010053E+02  0.12034839512E+03  0.13713877355E+03  0.00000000000E+00 0.  1.
         -4    1    6    6    0  503 -0.41105031879E+03 -0.74914932567E+02  0.75620068052E+03  0.86395259182E+03  0.00000000000E+00 0. -1.
<mgrwt>
<rscale>  0 0.25266434E+04</rscale>
<asrwt>0</asrwt>
<pdfrwt beam="1">  1        2 0.15694061E+00 0.25266434E+04</pdfrwt>
<pdfrwt beam="2">  1       -1 0.24069432E+00 0.25266434E+04</pdfrwt>
<totfact> 0.19901413E+00</totfact>
</mgrwt>
</event>
<event>
12    6  0.9491186E-008  0.1564671E+04  0.7818608E-02  0.8842551E-01
          2   -1    0    0  501    0  0.00000000000E+00  0.00000000000E+00  0.16507584515E+04  0.16507584515E+04  0.00000000000E+00 0. -1.
         -1   -1    0    0    0  501 -0.00000000000E+00 -0.00000000000E+00 -0.37076814066E+03  0.37076814066E+03  0.00000000000E+00 0.  1.
         24    2    1    2    0    0 -0.51268892965E+03  0.45383469845E+02  0.51490881284E+03  0.73567177952E+03  0.10569902421E+03 0.  0.
        254    2    1    2    0    0  0.51268892965E+03 -0.45383469845E+02  0.76508149801E+03  0.12858548126E+04  0.89619378635E+03 0.  0.
         23    2    4    4    0    0  0.55189142145E+03  0.16600366635E+03  0.11468104569E+03  0.59469501546E+03  0.91482571361E+02 0.  0.
         23    2    4    4    0    0 -0.39202491797E+02 -0.21138713619E+03  0.65040045231E+03  0.69115979719E+03  0.91976954561E+02 0.  0.
          2    1    3    3  502    0 -0.39666954903E+03  0.30327400860E+02  0.45445512510E+03  0.60398339638E+03  0.00000000000E+00 0. -1.
         -1    1    3    3    0  502 -0.11601938062E+03  0.15056068985E+02  0.60453687737E+02  0.13168838314E+03  0.00000000000E+00 0.  1.
         11    1    5    5    0    0  0.79217203954E+02 -0.17829877346E+01 -0.37712773489E+01  0.79326962505E+02  0.00000000000E+00 0. -1.
        -11    1    5    5    0    0  0.47267421750E+03  0.16778665408E+03  0.11845232304E+03  0.51536805296E+03  0.00000000000E+00 0.  1.
          1    1    6    6  503    0 -0.31891570536E+02 -0.30327776547E+02  0.21673363970E+03  0.22115676991E+03  0.00000000000E+00 0. -1.
         -1    1    6    6    0  503 -0.73109212610E+01 -0.18105935965E+03  0.43366681262E+03  0.47000302728E+03  0.00000000000E+00 0.  1.
<mgrwt>
<rscale>  0 0.15646708E+04</rscale>
<asrwt>0</asrwt>
<pdfrwt beam="1">  1        2 0.25396283E+00 0.15646708E+04</pdfrwt>
<pdfrwt beam="2">  1       -1 0.57041253E-01 0.15646708E+04</pdfrwt>
<totfact> 0.35608066E+01</totfact>
</mgrwt>
</event>
<event>
12    6  0.9491186E-008  0.1331802E+04  0.7818608E-02  0.9004719E-01
         -1   -1    0    0    0  501 -0.00000000000E+00  0.00000000000E+00  0.19079490856E+03  0.19079490856E+03  0.00000000000E+00 0.  1.
          2   -1    0    0  501    0  0.00000000000E+00 -0.00000000000E+00 -0.23240869254E+04  0.23240869254E+04  0.00000000000E+00 0. -1.
         24    2    1    2    0    0  0.32822350667E+03 -0.24976842005E+02 -0.81404391510E+03  0.88173237295E+03  0.80187086490E+02 0.  0.
        254    2    1    2    0    0 -0.32822350667E+03  0.24976842005E+02 -0.13192481017E+04  0.16331494610E+04  0.90465855166E+03 0.  0.
         23    2    4    4    0    0 -0.48196974060E+03 -0.27050495272E+03 -0.10691119760E+04  0.12071535376E+04  0.93549375848E+02 0.  0.
         23    2    4    4    0    0  0.15374623393E+03  0.29548179473E+03 -0.25013612570E+03  0.42599592342E+03  0.89202297749E+02 0.  0.
          4    1    3    3  502    0  0.24382372277E+03  0.17187340617E+02 -0.59201618875E+03  0.64049089003E+03  0.00000000000E+00 0. -1.
         -3    1    3    3    0  502  0.84399783900E+02 -0.42164182622E+02 -0.22202772634E+03  0.24124148293E+03  0.00000000000E+00 0.  1.
         11    1    5    5    0    0 -0.11056819598E+03 -0.81847642259E+02 -0.35051927669E+03  0.37654764086E+03  0.00000000000E+00 0. -1.
        -11    1    5    5    0    0 -0.37140154462E+03 -0.18865731046E+03 -0.71859269936E+03  0.83060589675E+03  0.00000000000E+00 0.  1.
          2    1    6    6  503    0  0.46859353423E+02  0.62731217493E+02 -0.18028792276E+02  0.80349499079E+02  0.00000000000E+00 0. -1.
         -2    1    6    6    0  503  0.10688688051E+03  0.23275057723E+03 -0.23210733343E+03  0.34564642434E+03  0.00000000000E+00 0.  1.
<mgrwt>
<rscale>  0 0.13318017E+04</rscale>
<asrwt>0</asrwt>
<pdfrwt beam="1">  1        2 0.35755182E+00 0.13318017E+04</pdfrwt>
<pdfrwt beam="2">  1       -1 0.29353064E-01 0.13318017E+04</pdfrwt>
<totfact> 0.52027666E+01</totfact>
</mgrwt>
</event>
<event>
12    6  0.9491186E-008  0.2019234E+04  0.7818608E-02  0.8597680E-01
         -1   -1    0    0    0  501 -0.00000000000E+00  0.00000000000E+00  0.24470997347E+04  0.24470997347E+04  0.00000000000E+00 0.  1.
          2   -1    0    0  501    0  0.00000000000E+00 -0.00000000000E+00 -0.41654488270E+03  0.41654488270E+03  0.00000000000E+00 0. -1.
         24    2    1    2    0    0 -0.40985662679E+03 -0.59232610288E+03  0.13039317626E+04  0.14928546780E+04  0.97695349601E+02 0.  0.
        254    2    1    2    0    0  0.40985662679E+03  0.59232610288E+03  0.72662308942E+03  0.13707899395E+04  0.91227807019E+03 0.  0.
         23    2    4    4    0    0  0.58307335798E+03  0.84231819286E+02  0.51321524904E+03  0.78657175690E+03  0.90750739674E+02 0.  0.
         23    2    4    4    0    0 -0.17321673119E+03  0.50809428360E+03  0.21340784038E+03  0.58421818255E+03  0.87201728757E+02 0.  0.
          4    1    3    3  502    0 -0.20025644612E+03 -0.25031875370E+03  0.49160990918E+03  0.58689217533E+03  0.00000000000E+00 0. -1.
         -3    1    3    3    0  502 -0.20960018068E+03 -0.34200734918E+03  0.81232185343E+03  0.90596250264E+03  0.00000000000E+00 0.  1.
         11    1    5    5    0    0  0.16487530666E+03  0.57081277106E+02  0.11881137331E+03  0.21108832599E+03  0.00000000000E+00 0.  1.
        -11    1    5    5    0    0  0.41819805132E+03  0.27150542179E+02  0.39440387572E+03  0.57548343091E+03  0.00000000000E+00 0. -1.
          4    1    6    6  503    0 -0.10291861962E+03  0.41251035052E+03  0.16394602088E+03  0.45567019796E+03  0.00000000000E+00 0. -1.
         -4    1    6    6    0  503 -0.70298111569E+02  0.95583933078E+02  0.49461819500E+02  0.12854798459E+03  0.00000000000E+00 0.  1.
<mgrwt>
<rscale>  0 0.20192344E+04</rscale>
<asrwt>0</asrwt>
<pdfrwt beam="1">  1        2 0.64083829E-01 0.20192344E+04</pdfrwt>
<pdfrwt beam="2">  1       -1 0.37647687E+00 0.20192344E+04</pdfrwt>
<totfact> 0.83356585E-01</totfact>
</mgrwt>
</event>
<event>
12    6  0.9491186E-008  0.1272441E+04  0.7818608E-02  0.9051710E-01
         -1   -1    0    0    0  501 -0.00000000000E+00  0.00000000000E+00  0.66177921847E+03  0.66177921847E+03  0.00000000000E+00 0.  1.
          2   -1    0    0  501    0  0.00000000000E+00 -0.00000000000E+00 -0.61164904657E+03  0.61164904657E+03  0.00000000000E+00 0. -1.
         24    2    1    2    0    0 -0.28516391990E+03  0.62618135290E+02  0.12521967519E+03  0.32809039880E+03  0.81999089311E+02 0.  0.
        254    2    1    2    0    0  0.28516391990E+03 -0.62618135290E+02 -0.75089503301E+02  0.94533786624E+03  0.89598312247E+03 0.  0.
         23    2    4    4    0    0 -0.11958490444E+03  0.33142827805E+03  0.22981344804E+02  0.36486034839E+03  0.91922134184E+02 0.  0.
         23    2    4    4    0    0  0.40474882434E+03 -0.39404641334E+03 -0.98070848105E+02  0.58047751785E+03  0.90785851372E+02 0.  0.
          4    1    3    3  502    0 -0.15647070410E+01  0.10901093988E+02 -0.45959801009E+01  0.11933364628E+02  0.00000000000E+00 0. -1.
         -3    1    3    3    0  502 -0.28359921286E+03  0.51717041302E+02  0.12981565530E+03  0.31615703417E+03  0.00000000000E+00 0.  1.
         11    1    5    5    0    0 -0.75706985825E+02  0.28673570497E+03 -0.41840861204E+01  0.29659133295E+03  0.00000000000E+00 0. -1.
        -11    1    5    5    0    0 -0.43877918615E+02  0.44692573083E+02  0.27165430924E+02  0.68269015432E+02  0.00000000000E+00 0.  1.
          4    1    6    6  503    0  0.33987387839E+03 -0.36841186735E+03 -0.97953515208E+02  0.51072149785E+03  0.00000000000E+00 0. -1.
         -4    1    6    6    0  503  0.64874945950E+02 -0.25634545988E+02 -0.11733289661E+00  0.69756020005E+02  0.00000000000E+00 0.  1.
<mgrwt>
<rscale>  0 0.12724412E+04</rscale>
<asrwt>0</asrwt>
<pdfrwt beam="1">  1        2 0.94099853E-01 0.12724412E+04</pdfrwt>
<pdfrwt beam="2">  1       -1 0.10181219E+00 0.12724412E+04</pdfrwt>
<totfact> 0.49749757E+01</totfact>
</mgrwt>
</event>
<event>
12    6  0.9491186E-008  0.2311746E+04  0.7818608E-02  0.8473304E-01
          2   -1    0    0  501    0  0.00000000000E+00  0.00000000000E+00  0.22296896397E+04  0.22296896397E+04  0.00000000000E+00 0. -1.
         -1   -1    0    0    0  501 -0.00000000000E+00 -0.00000000000E+00 -0.59920546423E+03  0.59920546423E+03  0.00000000000E+00 0.  1.
         24    2    1    2    0    0 -0.60637344840E+03 -0.66809794962E+03  0.23022522669E+03  0.93527452637E+03  0.87699232978E+02 0.  0.
        254    2    1    2    0    0  0.60637344840E+03  0.66809794962E+03  0.14002589487E+04  0.18936205775E+04  0.90057211753E+03 0.  0.
         23    2    4    4    0    0  0.72306941643E+03  0.32872037386E+03  0.56253987380E+03  0.97722596526E+03  0.87367112787E+02 0.  0.
         23    2    4    4    0    0 -0.11669596803E+03  0.33937757576E+03  0.83771907495E+03  0.91639461226E+03  0.95972646999E+02 0.  0.
          2    1    3    3  502    0 -0.80518213987E+02 -0.13431655180E+03  0.52736183731E+02  0.16524292404E+03  0.00000000000E+00 0. -1.
         -1    1    3    3    0  502 -0.52585523441E+03 -0.53378139783E+03  0.17748904296E+03  0.77003160233E+03  0.00000000000E+00 0.  1.
         11    1    5    5    0    0  0.65051933243E+03  0.26639583623E+03  0.48393824285E+03  0.85342742300E+03  0.00000000000E+00 0.  1.
        -11    1    5    5    0    0  0.72550084003E+02  0.62324537631E+02  0.78601630952E+02  0.12379854227E+03  0.00000000000E+00 0. -1.
          1    1    6    6  503    0 -0.22099413919E+01 -0.42539282586E+01  0.40142176214E+02  0.40427392419E+02  0.00000000000E+00 0. -1.
         -1    1    6    6    0  503 -0.11448602664E+03  0.34363150402E+03  0.79757689873E+03  0.87596721985E+03  0.00000000000E+00 0.  1.
<mgrwt>
<rscale>  0 0.23117458E+04</rscale>
<asrwt>0</asrwt>
<pdfrwt beam="1">  1        2 0.34302917E+00 0.23117458E+04</pdfrwt>
<pdfrwt beam="2">  1       -1 0.92185457E-01 0.23117458E+04</pdfrwt>
<totfact> 0.58642219E+00</totfact>
</mgrwt>
</event>
<event>
12    6  0.9491186E-008  0.2609781E+04  0.7818608E-02  0.8364886E-01
          2   -1    0    0  501    0  0.00000000000E+00  0.00000000000E+00  0.15428332208E+04  0.15428332208E+04  0.00000000000E+00 0. -1.
         -1   -1    0    0    0  501 -0.00000000000E+00 -0.00000000000E+00 -0.11036445955E+04  0.11036445955E+04  0.00000000000E+00 0.  1.
         24    2    1    2    0    0 -0.89730537230E+03 -0.56309914324E+03 -0.22051861892E+03  0.10850880449E+04  0.80932241218E+02 0.  0.
        254    2    1    2    0    0  0.89730537230E+03  0.56309914324E+03  0.65970724419E+03  0.15613897714E+04  0.93834257814E+03 0.  0.
         23    2    4    4    0    0  0.35999863868E+03 -0.18373530609E+03  0.45276740604E+03  0.61400671460E+03  0.92995908716E+02 0.  0.
         23    2    4    4    0    0  0.53730673361E+03  0.74683444932E+03  0.20693983814E+03  0.94738305681E+03  0.90831376936E+02 0.  0.
          4    1    3    3  502    0 -0.59110741837E+02 -0.23886687967E+02  0.24318629490E+01  0.63801000149E+02  0.00000000000E+00 0. -1.
         -3    1    3    3    0  502 -0.83819463046E+03 -0.53921245527E+03 -0.22295048187E+03  0.10212870448E+04  0.00000000000E+00 0.  1.
         11    1    5    5    0    0 -0.26746899790E+01 -0.80681477484E+01  0.24607161772E+02  0.26033850753E+02  0.00000000000E+00 0. -1.
        -11    1    5    5    0    0  0.36267332866E+03 -0.17566715834E+03  0.42816024427E+03  0.58797286384E+03  0.00000000000E+00 0.  1.
          3    1    6    6  503    0  0.25416636147E+03  0.36098235061E+03  0.53063752750E+02  0.44466229727E+03  0.00000000000E+00 0. -1.
         -3    1    6    6    0  503  0.28314037214E+03  0.38585209872E+03  0.15387608539E+03  0.50272075954E+03  0.00000000000E+00 0.  1.
<mgrwt>
<rscale>  0 0.26097813E+04</rscale>
<asrwt>0</asrwt>
<pdfrwt beam="1">  1        2 0.23735896E+00 0.26097813E+04</pdfrwt>
<pdfrwt beam="2">  1       -1 0.16979148E+00 0.26097813E+04</pdfrwt>
<totfact> 0.29844552E+00</totfact>
</mgrwt>
</event>
<event>
12    6  0.9491186E-008  0.2566475E+04  0.7818608E-02  0.8379679E-01
          2   -1    0    0  501    0  0.00000000000E+00  0.00000000000E+00  0.22150583040E+04  0.22150583040E+04  0.00000000000E+00 0. -1.
         -1   -1    0    0    0  501 -0.00000000000E+00 -0.00000000000E+00 -0.74341061124E+03  0.74341061124E+03  0.00000000000E+00 0.  1.
         24    2    1    2    0    0 -0.70073047710E+03 -0.86895276856E+03  0.49507579658E+03  0.12237551470E+04  0.79840465664E+02 0.  0.
        254    2    1    2    0    0  0.70073047710E+03  0.86895276856E+03  0.97657189620E+03  0.17347137683E+04  0.89968720886E+03 0.  0.
         23    2    4    4    0    0  0.32665051281E+03  0.95266852680E+03  0.84987157431E+03  0.13206604141E+04  0.87088213687E+02 0.  0.
         23    2    4    4    0    0  0.37407996429E+03 -0.83715758233E+02  0.12670032190E+03  0.41405335420E+03  0.91886128980E+02 0.  0.
          4    1    3    3  502    0 -0.80871150246E+02 -0.14540235826E+03  0.72699768504E+02  0.18156884388E+03  0.00000000000E+00 0. -1.
         -3    1    3    3    0  502 -0.61985932685E+03 -0.72355041031E+03  0.42237602808E+03  0.10421863031E+04  0.00000000000E+00 0.  1.
         11    1    5    5    0    0  0.21220120627E+03  0.52185987250E+03  0.51304310958E+03  0.76195820801E+03  0.00000000000E+00 0. -1.
        -11    1    5    5    0    0  0.11444930654E+03  0.43080865430E+03  0.33682846472E+03  0.55870220604E+03  0.00000000000E+00 0.  1.
          3    1    6    6  503    0  0.34965632814E+02 -0.17194891589E+02 -0.13332064804E+02  0.41182565811E+02  0.00000000000E+00 0. -1.
         -3    1    6    6    0  503  0.33911433147E+03 -0.66520866644E+02  0.14003238670E+03  0.37287078839E+03  0.00000000000E+00 0.  1.
<mgrwt>
<rscale>  0 0.25664745E+04</rscale>
<asrwt>0</asrwt>
<pdfrwt beam="1">  1        2 0.34077820E+00 0.25664745E+04</pdfrwt>
<pdfrwt beam="2">  1       -1 0.11437086E+00 0.25664745E+04</pdfrwt>
<totfact> 0.35530735E+00</totfact>
</mgrwt>
</event>
<event>
12    6  0.9491186E-008  0.1736088E+04  0.7818608E-02  0.8741046E-01
          2   -1    0    0  501    0  0.00000000000E+00  0.00000000000E+00  0.57796473086E+03  0.57796473086E+03  0.00000000000E+00 0. -1.
         -1   -1    0    0    0  501 -0.00000000000E+00 -0.00000000000E+00 -0.13037130162E+04  0.13037130162E+04  0.00000000000E+00 0.  1.
         24    2    1    2    0    0 -0.51408592107E+03 -0.51995693370E+02 -0.69362288583E+03  0.86816332017E+03  0.74879612542E+02 0.  0.
        254    2    1    2    0    0  0.51408592107E+03  0.51995693370E+02 -0.32125399547E+02  0.10135144269E+04  0.87131599659E+03 0.  0.
         23    2    4    4    0    0  0.31537798019E+03 -0.25303405660E+03 -0.33368608237E+03  0.53206638616E+03  0.90877574361E+02 0.  0.
         23    2    4    4    0    0  0.19870794088E+03  0.30502974997E+03  0.30156068282E+03  0.48144804077E+03  0.91243500575E+02 0.  0.
          2    1    3    3  502    0 -0.46264164138E+02 -0.12089359849E+02 -0.34742441194E+02  0.59106367889E+02  0.00000000000E+00 0. -1.
         -1    1    3    3    0  502 -0.46782175694E+03 -0.39906333521E+02 -0.65888044463E+03  0.80905695228E+03  0.00000000000E+00 0.  1.
         11    1    5    5    0    0  0.21074587534E+02 -0.18674805700E+02  0.14927156839E+01  0.28197780192E+02  0.00000000000E+00 0.  1.
        -11    1    5    5    0    0  0.29430339266E+03 -0.23435925090E+03 -0.33517879806E+03  0.50386860597E+03  0.00000000000E+00 0. -1.
          4    1    6    6  503    0  0.11532948220E+03  0.20745253101E+03  0.24522274888E+03  0.34127941434E+03  0.00000000000E+00 0. -1.
         -4    1    6    6    0  503  0.83378458684E+02  0.97577218965E+02  0.56337933946E+02  0.14016862643E+03  0.00000000000E+00 0.  1.
<mgrwt>
<rscale>  0 0.17360877E+04</rscale>
<asrwt>0</asrwt>
<pdfrwt beam="1">  1        2 0.88917653E-01 0.17360877E+04</pdfrwt>
<pdfrwt beam="2">  1       -1 0.20057123E+00 0.17360877E+04</pdfrwt>
<totfact> 0.83874614E+00</totfact>
</mgrwt>
</event>
<event>
12    6  0.9491186E-008  0.2192830E+04  0.7818608E-02  0.8521418E-01
         -3   -1    0    0    0  501 -0.00000000000E+00  0.00000000000E+00  0.92103701734E+03  0.92103701734E+03  0.00000000000E+00 0.  1.
          4   -1    0    0  501    0  0.00000000000E+00 -0.00000000000E+00 -0.13051877457E+04  0.13051877457E+04  0.00000000000E+00 0. -1.
         24    2    1    2    0    0 -0.69507332982E+02  0.15573207302E+03  0.75037267195E+03  0.77325358105E+03  0.76014511117E+02 0.  0.
        254    2    1    2    0    0  0.69507332982E+02 -0.15573207302E+03 -0.11345234003E+04  0.14529711820E+04  0.89157061525E+03 0.  0.
         23    2    4    4    0    0  0.27781669020E+03 -0.21348476031E+03 -0.11621161854E+04  0.12174517171E+04  0.94428802224E+02 0.  0.
         23    2    4    4    0    0 -0.20830935722E+03  0.57752687293E+02  0.27592785086E+02  0.23551946497E+03  0.89330260266E+02 0.  0.
          4    1    3    3  502    0 -0.33200087560E+02  0.11649839549E+02  0.20521990651E+03  0.20821425168E+03  0.00000000000E+00 0. -1.
         -3    1    3    3    0  502 -0.36307245422E+02  0.14408223347E+03  0.54515276544E+03  0.56503932937E+03  0.00000000000E+00 0.  1.
         11    1    5    5    0    0  0.26936760919E+03 -0.22170889037E+03 -0.10927437945E+04  0.11470844526E+04  0.00000000000E+00 0.  1.
        -11    1    5    5    0    0  0.84490810068E+01  0.82241300655E+01 -0.69372390969E+02  0.70367264505E+02  0.00000000000E+00 0. -1.
          1    1    6    6  503    0 -0.12318047688E+03  0.57263673359E+02  0.54310724795E+02  0.14629495206E+03  0.00000000000E+00 0.  1.
         -1    1    6    6    0  503 -0.85128880342E+02  0.48901393361E+00 -0.26717939709E+02  0.89224512916E+02  0.00000000000E+00 0. -1.
<mgrwt>
<rscale>  0 0.21928303E+04</rscale>
<asrwt>0</asrwt>
<pdfrwt beam="1">  1        4 0.20079811E+00 0.21928303E+04</pdfrwt>
<pdfrwt beam="2">  1       -3 0.14169800E+00 0.21928303E+04</pdfrwt>
<totfact> 0.10128212E-01</totfact>
</mgrwt>
</event>
<event>
12    6  0.9491186E-008  0.1774245E+04  0.7818608E-02  0.8720117E-01
         -1   -1    0    0    0  501 -0.00000000000E+00  0.00000000000E+00  0.48292022076E+03  0.48292022076E+03  0.00000000000E+00 0.  1.
          2   -1    0    0  501    0  0.00000000000E+00 -0.00000000000E+00 -0.16296412037E+04  0.16296412037E+04  0.00000000000E+00 0. -1.
         24    2    1    2    0    0 -0.44165713785E+02  0.41295996689E+02  0.35196171162E+03  0.36622731548E+03  0.81175307485E+02 0.  0.
        254    2    1    2    0    0  0.44165713785E+02 -0.41295996689E+02 -0.14986826945E+04  0.17463341089E+04  0.89441435116E+03 0.  0.
         23    2    4    4    0    0 -0.32446814475E+02  0.38827248844E+02  0.97962499929E+02  0.14285930407E+03  0.90839299567E+02 0.  0.
         23    2    4    4    0    0  0.76612528260E+02 -0.80123245533E+02 -0.15966451944E+04  0.16034748049E+04  0.97807765108E+02 0.  0.
          2    1    3    3  502    0 -0.36946672850E+02 -0.87670077022E+01  0.68799598513E+02  0.78583088602E+02  0.00000000000E+00 0. -1.
         -1    1    3    3    0  502 -0.72190409348E+01  0.50063004391E+02  0.28316211310E+03  0.28764422688E+03  0.00000000000E+00 0.  1.
         11    1    5    5    0    0  0.20995552836E+02 -0.74461030343E+01  0.56903781247E+02  0.61108902866E+02  0.00000000000E+00 0. -1.
        -11    1    5    5    0    0 -0.53442367311E+02  0.46273351878E+02  0.41058718682E+02  0.81750401208E+02  0.00000000000E+00 0.  1.
          2    1    6    6  503    0  0.10920680689E+02  0.14656738749E+02 -0.58374774855E+03  0.58403383052E+03  0.00000000000E+00 0. -1.
         -2    1    6    6    0  503  0.65691847571E+02 -0.94779984282E+02 -0.10128974459E+04  0.10194409743E+04  0.00000000000E+00 0.  1.
<mgrwt>
<rscale>  0 0.17742454E+04</rscale>
<asrwt>0</asrwt>
<pdfrwt beam="1">  1        2 0.25071404E+00 0.17742454E+04</pdfrwt>
<pdfrwt beam="2">  1       -1 0.74295417E-01 0.17742454E+04</pdfrwt>
<totfact> 0.21094940E+01</totfact>
</mgrwt>
</event>
<event>
12    6  0.9491186E-008  0.1312919E+04  0.7818608E-02  0.9019382E-01
         -1   -1    0    0    0  501 -0.00000000000E+00  0.00000000000E+00  0.11311010126E+04  0.11311010126E+04  0.00000000000E+00 0.  1.
          2   -1    0    0  501    0  0.00000000000E+00 -0.00000000000E+00 -0.38099087299E+03  0.38099087299E+03  0.00000000000E+00 0. -1.
         24    2    1    2    0    0  0.15759897359E+03 -0.21596593008E+02  0.55279313137E+03  0.58052730188E+03  0.78280603134E+02 0.  0.
        254    2    1    2    0    0 -0.15759897359E+03  0.21596593008E+02  0.19731700827E+03  0.93156458373E+03  0.89642329432E+03 0.  0.
         23    2    4    4    0    0 -0.49948775873E+03  0.15505881137E+03  0.11505829349E+03  0.54477753233E+03  0.10006444288E+03 0.  0.
         23    2    4    4    0    0  0.34188878514E+03 -0.13346221836E+03  0.82258714781E+02  0.38678705140E+03  0.90208768099E+02 0.  0.
          2    1    3    3  502    0 -0.73848143943E+01 -0.37008258266E+01  0.10210343476E+02  0.13133267275E+02  0.00000000000E+00 0. -1.
         -1    1    3    3    0  502  0.16498378799E+03 -0.17895767181E+02  0.54258278790E+03  0.56739403460E+03  0.00000000000E+00 0.  1.
         11    1    5    5    0    0 -0.35597105738E+03  0.15223740417E+03  0.63940375838E+02  0.39240284477E+03  0.00000000000E+00 0.  1.
        -11    1    5    5    0    0 -0.14351670134E+03  0.28214072009E+01  0.51117917650E+02  0.15237468756E+03  0.00000000000E+00 0. -1.
          3    1    6    6  503    0  0.36218703328E+02 -0.27993315498E+02 -0.16545890129E+02  0.48674291607E+02  0.00000000000E+00 0. -1.
         -3    1    6    6    0  503  0.30567008181E+03 -0.10546890287E+03  0.98804604909E+02  0.33811275979E+03  0.00000000000E+00 0.  1.
<mgrwt>
<rscale>  0 0.13129191E+04</rscale>
<asrwt>0</asrwt>
<pdfrwt beam="1">  1        2 0.58613981E-01 0.13129191E+04</pdfrwt>
<pdfrwt beam="2">  1       -1 0.17401554E+00 0.13129191E+04</pdfrwt>
<totfact> 0.21652018E+01</totfact>
</mgrwt>
</event>
<event>
12    6  0.9491186E-008  0.2669228E+04  0.7818608E-02  0.8345059E-01
          2   -1    0    0  501    0  0.00000000000E+00  0.00000000000E+00  0.35095652251E+04  0.35095652251E+04  0.00000000000E+00 0. -1.
         -1   -1    0    0    0  501 -0.00000000000E+00 -0.00000000000E+00 -0.50752585083E+03  0.50752585083E+03  0.00000000000E+00 0.  1.
         24    2    1    2    0    0 -0.33468658085E+03 -0.11261661964E+04  0.14881087603E+04  0.18976337024E+04  0.79250089739E+02 0.  0.
        254    2    1    2    0    0  0.33468658085E+03  0.11261661964E+04  0.15139306140E+04  0.21194573735E+04  0.90545471718E+03 0.  0.
         23    2    4    4    0    0  0.45395507622E+02  0.20539220842E+03 -0.88650292214E+02  0.24640167158E+03  0.92780375381E+02 0.  0.
         23    2    4    4    0    0  0.28929107323E+03  0.92077398801E+03  0.16025809062E+04  0.18730557019E+04  0.92509673367E+02 0.  0.
          4    1    3    3  502    0 -0.67769715613E+02 -0.18651272340E+03  0.20919684871E+03  0.28834536905E+03  0.00000000000E+00 0. -1.
         -3    1    3    3    0  502 -0.26691686524E+03 -0.93965347302E+03  0.12789119116E+04  0.16092883334E+04  0.00000000000E+00 0.  1.
         11    1    5    5    0    0 -0.26822821839E+02  0.39406197896E+02 -0.29064738235E+02  0.55830737167E+02  0.00000000000E+00 0. -1.
        -11    1    5    5    0    0  0.72218329460E+02  0.16598601052E+03 -0.59585553979E+02  0.19057093441E+03  0.00000000000E+00 0.  1.
          1    1    6    6  503    0  0.23756025033E+03  0.82726617666E+03  0.14609007115E+04  0.16955928428E+04  0.00000000000E+00 0. -1.
         -1    1    6    6    0  503  0.51730822896E+02  0.93507811345E+02  0.14168019470E+03  0.17746285918E+03  0.00000000000E+00 0.  1.
<mgrwt>
<rscale>  0 0.26692284E+04</rscale>
<asrwt>0</asrwt>
<pdfrwt beam="1">  1        2 0.53993310E+00 0.26692284E+04</pdfrwt>
<pdfrwt beam="2">  1       -1 0.78080902E-01 0.26692284E+04</pdfrwt>
<totfact> 0.13151551E+00</totfact>
</mgrwt>
</event>
<event>
12    6  0.9491186E-008  0.1549152E+04  0.7818608E-02  0.8852410E-01
          2   -1    0    0  501    0  0.00000000000E+00  0.00000000000E+00  0.52498554107E+03  0.52498554107E+03  0.00000000000E+00 0. -1.
         -1   -1    0    0    0  501 -0.00000000000E+00 -0.00000000000E+00 -0.11428275538E+04  0.11428275538E+04  0.00000000000E+00 0.  1.
         24    2    1    2    0    0 -0.88681711916E+02 -0.24870087261E+03  0.26195247957E+03  0.38038936003E+03  0.79752075856E+02 0.  0.
        254    2    1    2    0    0  0.88681711916E+02  0.24870087261E+03 -0.87979449227E+03  0.12874237348E+04  0.90205595961E+03 0.  0.
         23    2    4    4    0    0 -0.52661644447E+02 -0.13495076982E+03  0.11602031940E+03  0.20706629259E+03  0.91819256917E+02 0.  0.
         23    2    4    4    0    0  0.14134335636E+03  0.38365164243E+03 -0.99581481167E+03  0.10803574422E+04  0.91425033219E+02 0.  0.
          2    1    3    3  502    0 -0.67909621393E+00 -0.82017772706E+01 -0.56560611777E+01  0.99860577863E+01  0.00000000000E+00 0. -1.
         -1    1    3    3    0  502 -0.88002615702E+02 -0.24049909534E+03  0.26760854075E+03  0.37040330224E+03  0.00000000000E+00 0.  1.
         11    1    5    5    0    0 -0.68747575237E+02 -0.12599441805E+03  0.74645551775E+02  0.16178003858E+03  0.00000000000E+00 0.  1.
        -11    1    5    5    0    0  0.16085930790E+02 -0.89563517685E+01  0.41374767626E+02  0.45286254013E+02  0.00000000000E+00 0. -1.
          1    1    6    6  503    0  0.50368432700E+00 -0.65246817264E+00 -0.47223148375E+02  0.47230341466E+02  0.00000000000E+00 0. -1.
         -1    1    6    6    0  503  0.14083967204E+03  0.38430411060E+03 -0.94859166330E+03  0.10331271008E+04  0.00000000000E+00 0.  1.
<mgrwt>
<rscale>  0 0.15491520E+04</rscale>
<asrwt>0</asrwt>
<pdfrwt beam="1">  1        2 0.80767007E-01 0.15491520E+04</pdfrwt>
<pdfrwt beam="2">  1       -1 0.17581962E+00 0.15491520E+04</pdfrwt>
<totfact> 0.14276929E+01</totfact>
</mgrwt>
</event>
<event>
12    6  0.9491186E-008  0.2586313E+04  0.7818608E-02  0.8372865E-01
          2   -1    0    0  501    0  0.00000000000E+00  0.00000000000E+00  0.12729816649E+04  0.12729816649E+04  0.00000000000E+00 0. -1.
         -1   -1    0    0    0  501 -0.00000000000E+00 -0.00000000000E+00 -0.13136514496E+04  0.13136514496E+04  0.00000000000E+00 0.  1.
         24    2    1    2    0    0  0.85671334690E+03  0.27136096576E+03 -0.70824652638E+03  0.11464662711E+04  0.71953013250E+02 0.  0.
        254    2    1    2    0    0 -0.85671334690E+03 -0.27136096576E+03  0.66757674171E+03  0.14401668434E+04  0.90599519763E+03 0.  0.
         23    2    4    4    0    0  0.57677745154E+02 -0.17431017467E+03  0.44501466342E+03  0.48960188317E+03  0.89225523614E+02 0.  0.
         23    2    4    4    0    0 -0.91439109206E+03 -0.97050791090E+02  0.22256207829E+03  0.95056496019E+03  0.92249333693E+02 0.  0.
          4    1    3    3  502    0  0.65515154493E+02  0.35330473734E+02 -0.77486548465E+02  0.10744600056E+03  0.00000000000E+00 0. -1.
         -3    1    3    3    0  502  0.79119819241E+03  0.23603049202E+03 -0.63075997791E+03  0.10390202705E+04  0.00000000000E+00 0.  1.
         11    1    5    5    0    0  0.62656895152E+02 -0.15724396927E+03  0.43953054188E+03  0.47099750491E+03  0.00000000000E+00 0.  1.
        -11    1    5    5    0    0 -0.49791499977E+01 -0.17066205397E+02  0.54841215357E+01  0.18604378258E+02  0.00000000000E+00 0. -1.
          3    1    6    6  503    0 -0.10685077263E+03  0.10207084387E+02  0.47278991818E+02  0.11728842760E+03  0.00000000000E+00 0. -1.
         -3    1    6    6    0  503 -0.80754031943E+03 -0.10725787548E+03  0.17528308648E+03  0.83327653259E+03  0.00000000000E+00 0.  1.
<mgrwt>
<rscale>  0 0.25863134E+04</rscale>
<asrwt>0</asrwt>
<pdfrwt beam="1">  1        2 0.19584333E+00 0.25863134E+04</pdfrwt>
<pdfrwt beam="2">  1       -1 0.20210022E+00 0.25863134E+04</pdfrwt>
<totfact> 0.25184115E+00</totfact>
</mgrwt>
</event>
<event>
12    6  0.9804633E-008  0.3110898E+04  0.7818608E-02  0.8212753E-01
          2   -1    0    0  501    0  0.00000000000E+00  0.00000000000E+00  0.16575378912E+04  0.16575378912E+04  0.00000000000E+00 0. -1.
         -1   -1    0    0    0  501 -0.00000000000E+00 -0.00000000000E+00 -0.14596478486E+04  0.14596478486E+04  0.00000000000E+00 0.  1.
         24    2    1    2    0    0  0.70750708512E+03 -0.11468931030E+04  0.55337760545E+03  0.14589258040E+04  0.79420791190E+02 0.  0.
        254    2    1    2    0    0 -0.70750708512E+03  0.11468931030E+04 -0.35548756277E+03  0.16582599359E+04  0.89862369344E+03 0.  0.
         23    2    4    4    0    0 -0.59133387591E+03  0.78554844689E+03 -0.63937655202E+03  0.11765204602E+04  0.92929557713E+02 0.  0.
         23    2    4    4    0    0 -0.11617320921E+03  0.36134465610E+03  0.28388898925E+03  0.48173947570E+03  0.86103363424E+02 0.  0.
          2    1    3    3  502    0  0.56364619949E+03 -0.95436096732E+03  0.43107874624E+03  0.11892563978E+04  0.00000000000E+00 0. -1.
         -1    1    3    3    0  502  0.14386088562E+03 -0.19253213567E+03  0.12229885921E+03  0.26966940620E+03  0.00000000000E+00 0.  1.
         11    1    5    5    0    0 -0.73420746721E+02  0.53313099612E+02 -0.59454408843E+02  0.10847911951E+03  0.00000000000E+00 0. -1.
        -11    1    5    5    0    0 -0.51791312919E+03  0.73223534727E+03 -0.57992214318E+03  0.10680413406E+04  0.00000000000E+00 0.  1.
          4    1    6    6  503    0 -0.44325760647E+02  0.76774712320E+02  0.29776452057E+02  0.93518803488E+02  0.00000000000E+00 0. -1.
         -4    1    6    6    0  503 -0.71847448561E+02  0.28456994379E+03  0.25411253720E+03  0.38822067221E+03  0.00000000000E+00 0.  1.
<mgrwt>
<rscale>  0 0.31108980E+04</rscale>
<asrwt>0</asrwt>
<pdfrwt beam="1">  1        2 0.25500583E+00 0.31108980E+04</pdfrwt>
<pdfrwt beam="2">  1       -1 0.22456121E+00 0.31108980E+04</pdfrwt>
<totfact> 0.10258124E+00</totfact>
</mgrwt>
</event>
<event>
12    6  0.9491186E-008  0.1707812E+04  0.7818608E-02  0.8756921E-01
          2   -1    0    0  501    0  0.00000000000E+00  0.00000000000E+00  0.59932478675E+03  0.59932478675E+03  0.00000000000E+00 0. -1.
         -1   -1    0    0    0  501 -0.00000000000E+00 -0.00000000000E+00 -0.12166288955E+04  0.12166288955E+04  0.00000000000E+00 0.  1.
         24    2    1    2    0    0 -0.15725780384E+03 -0.12763267313E+03 -0.83568684305E+03  0.86411051142E+03  0.85407026510E+02 0.  0.
        254    2    1    2    0    0  0.15725780384E+03  0.12763267313E+03  0.21838273426E+03  0.95184317086E+03  0.90404329939E+03 0.  0.
         23    2    4    4    0    0 -0.89701047442E+02 -0.34441017327E+03  0.18005530429E+03  0.40979858854E+03  0.94076166985E+02 0.  0.
         23    2    4    4    0    0  0.24695885129E+03  0.47204284640E+03  0.38327429970E+02  0.54204458232E+03  0.92359159094E+02 0.  0.
          2    1    3    3  502    0 -0.27758797589E+02 -0.34063361507E+02 -0.75850910112E+02  0.87659705712E+02  0.00000000000E+00 0. -1.
         -1    1    3    3    0  502 -0.12949900625E+03 -0.93569311625E+02 -0.75983593294E+03  0.77645080571E+03  0.00000000000E+00 0.  1.
         11    1    5    5    0    0 -0.10452345620E+03 -0.32906253149E+03  0.16007407755E+03  0.38056669958E+03  0.00000000000E+00 0. -1.
        -11    1    5    5    0    0  0.14822408757E+02 -0.15347641788E+02  0.19981226749E+02  0.29231888961E+02  0.00000000000E+00 0.  1.
          1    1    6    6  503    0  0.23051277548E+03  0.45419957129E+03  0.55435417542E+02  0.51235385793E+03  0.00000000000E+00 0. -1.
         -1    1    6    6    0  503  0.16446075804E+02  0.17843275117E+02 -0.17107987572E+02  0.29690724393E+02  0.00000000000E+00 0.  1.
<mgrwt>
<rscale>  0 0.17078125E+04</rscale>
<asrwt>0</asrwt>
<pdfrwt beam="1">  1        2 0.92203815E-01 0.17078125E+04</pdfrwt>
<pdfrwt beam="2">  1       -1 0.18717367E+00 0.17078125E+04</pdfrwt>
<totfact> 0.99797138E+00</totfact>
</mgrwt>
</event>
<event>
12    6  0.9491186E-008  0.2839854E+04  0.7818608E-02  0.8291001E-01
         -1   -1    0    0    0  501 -0.00000000000E+00  0.00000000000E+00  0.16277920365E+04  0.16277920365E+04  0.00000000000E+00 0.  1.
          2   -1    0    0  501    0  0.00000000000E+00 -0.00000000000E+00 -0.12386054122E+04  0.12386054122E+04  0.00000000000E+00 0. -1.
         24    2    1    2    0    0  0.72196809667E+03  0.76214819031E+02  0.11898489108E+04  0.13961383349E+04  0.80094871689E+02 0.  0.
        254    2    1    2    0    0 -0.72196809667E+03 -0.76214819031E+02 -0.80066228647E+03  0.14702591137E+04  0.99677235780E+03 0.  0.
         23    2    4    4    0    0 -0.95128342376E+03 -0.16579221058E+03 -0.64483340842E+03  0.11648160866E+04  0.92515845420E+02 0.  0.
         23    2    4    4    0    0  0.22931532709E+03  0.89577391549E+02 -0.15582887804E+03  0.30544302709E+03  0.91668834683E+02 0.  0.
          4    1    3    3  502    0  0.29380810779E+03  0.42694885107E+01  0.53629350058E+03  0.61151627247E+03  0.00000000000E+00 0. -1.
         -3    1    3    3    0  502  0.42815998888E+03  0.71945330521E+02  0.65355541025E+03  0.78462206248E+03  0.00000000000E+00 0.  1.
         11    1    5    5    0    0 -0.81984777603E+03 -0.12096880992E+03 -0.58021963186E+03  0.10116514469E+04  0.00000000000E+00 0. -1.
        -11    1    5    5    0    0 -0.13143564772E+03 -0.44823400660E+02 -0.64613776564E+02  0.15316463972E+03  0.00000000000E+00 0.  1.
          2    1    6    6  503    0  0.19467581313E+03  0.88807679661E+02 -0.92204231602E+02  0.23299591522E+03  0.00000000000E+00 0. -1.
         -2    1    6    6    0  503  0.34639513962E+02  0.76971188766E+00 -0.63624646441E+02  0.72447111873E+02  0.00000000000E+00 0.  1.
<mgrwt>
<rscale>  0 0.28398535E+04</rscale>
<asrwt>0</asrwt>
<pdfrwt beam="1">  1        2 0.19055468E+00 0.28398535E+04</pdfrwt>
<pdfrwt beam="2">  1       -1 0.25042954E+00 0.28398535E+04</pdfrwt>
<totfact> 0.12295930E+00</totfact>
</mgrwt>
</event>
<event>
12    6  0.9491186E-008  0.9911771E+03  0.7818608E-02  0.9318275E-01
         -1   -1    0    0    0  501 -0.00000000000E+00  0.00000000000E+00  0.12691555102E+03  0.12691555102E+03  0.00000000000E+00 0.  1.
          2   -1    0    0  501    0  0.00000000000E+00 -0.00000000000E+00 -0.19352079854E+04  0.19352079854E+04  0.00000000000E+00 0. -1.
         24    2    1    2    0    0 -0.18921932195E+01  0.16248057592E+02 -0.26798665902E+03  0.28056248129E+03  0.81430195409E+02 0.  0.
        254    2    1    2    0    0  0.18921932195E+01 -0.16248057592E+02 -0.15403057754E+04  0.17815610551E+04  0.89507001501E+03 0.  0.
         23    2    4    4    0    0 -0.30139433482E+02 -0.44028204455E+03 -0.91715211758E+03  0.10216337896E+04  0.88379460567E+02 0.  0.
         23    2    4    4    0    0  0.32031626701E+02  0.42403398696E+03 -0.62315365778E+03  0.75992726553E+03  0.91313309503E+02 0.  0.
          4    1    3    3  502    0  0.16068640652E+02 -0.17117293954E+02 -0.20990076604E+03  0.21120969331E+03  0.00000000000E+00 0. -1.
         -3    1    3    3    0  502 -0.17960833872E+02  0.33365351546E+02 -0.58085892984E+02  0.69352787982E+02  0.00000000000E+00 0.  1.
         11    1    5    5    0    0 -0.65228934631E+01 -0.57569484859E+02 -0.64318351994E+02  0.86565836964E+02  0.00000000000E+00 0. -1.
        -11    1    5    5    0    0 -0.23616540019E+02 -0.38271255969E+03 -0.85283376558E+03  0.93506795263E+03  0.00000000000E+00 0.  1.
          3    1    6    6  503    0 -0.20279216144E+02  0.44462070340E+02 -0.10175964043E+03  0.11288554702E+03  0.00000000000E+00 0. -1.
         -3    1    6    6    0  503  0.52310842845E+02  0.37957191662E+03 -0.52139401734E+03  0.64704171851E+03  0.00000000000E+00 0.  1.
<mgrwt>
<rscale>  0 0.99117705E+03</rscale>
<asrwt>0</asrwt>
<pdfrwt beam="1">  1        2 0.29772429E+00 0.99117705E+03</pdfrwt>
<pdfrwt beam="2">  1       -1 0.19525470E-01 0.99117705E+03</pdfrwt>
<totfact> 0.17642215E+02</totfact>
</mgrwt>
</event>
<event>
12    6  0.9491186E-008  0.2443937E+04  0.7818608E-02  0.8423235E-01
          2   -1    0    0  501    0  0.00000000000E+00  0.00000000000E+00  0.13912303178E+04  0.13912303178E+04  0.00000000000E+00 0. -1.
         -1   -1    0    0    0  501 -0.00000000000E+00 -0.00000000000E+00 -0.10732998008E+04  0.10732998008E+04  0.00000000000E+00 0.  1.
         24    2    1    2    0    0  0.52148974375E+03  0.51336602275E+03 -0.63091858560E+03  0.96947031730E+03  0.79487158262E+02 0.  0.
        254    2    1    2    0    0 -0.52148974375E+03 -0.51336602275E+03  0.94884910256E+03  0.14950598013E+04  0.89408778308E+03 0.  0.
         23    2    4    4    0    0 -0.41927451566E+03 -0.24871922923E+03  0.10648954702E+04  0.11743538882E+04  0.86326808447E+02 0.  0.
         23    2    4    4    0    0 -0.10221522809E+03 -0.26464679352E+03 -0.11604636760E+03  0.32070591311E+03  0.94337930308E+02 0.  0.
          4    1    3    3  502    0  0.29460019027E+02  0.60792161422E+02 -0.56591598121E+02  0.88125981352E+02  0.00000000000E+00 0. -1.
         -1    1    3    3    0  502  0.49202972472E+03  0.45257386133E+03 -0.57432698748E+03  0.88134433595E+03  0.00000000000E+00 0.  1.
         11    1    5    5    0    0 -0.30551347787E+03 -0.15959247306E+03  0.82767783109E+03  0.89658175015E+03  0.00000000000E+00 0. -1.
        -11    1    5    5    0    0 -0.11376103779E+03 -0.89126756171E+02  0.23721763907E+03  0.27777213804E+03  0.00000000000E+00 0.  1.
          1    1    6    6  503    0 -0.68696369111E+02 -0.61719002085E+02 -0.24296370185E+02  0.95492093660E+02  0.00000000000E+00 0. -1.
         -1    1    6    6    0  503 -0.33518858974E+02 -0.20292779143E+03 -0.91749997414E+02  0.22521381944E+03  0.00000000000E+00 0.  1.
<mgrwt>
<rscale>  0 0.24439372E+04</rscale>
<asrwt>0</asrwt>
<pdfrwt beam="1">  1        2 0.21403543E+00 0.24439372E+04</pdfrwt>
<pdfrwt beam="2">  1       -1 0.16512305E+00 0.24439372E+04</pdfrwt>
<totfact> 0.39964643E+00</totfact>
</mgrwt>
</event>
<event>
12    6  0.9491186E-008  0.3039899E+04  0.7818608E-02  0.8232428E-01
         -1   -1    0    0    0  501 -0.00000000000E+00  0.00000000000E+00  0.96685303990E+03  0.96685303990E+03  0.00000000000E+00 0.  1.
          2   -1    0    0  501    0  0.00000000000E+00 -0.00000000000E+00 -0.23894494025E+04  0.23894494025E+04  0.00000000000E+00 0. -1.
         24    2    1    2    0    0  0.11930407094E+04  0.50145989129E+03 -0.10827129216E+03  0.13011269690E+04  0.80003499408E+02 0.  0.
        254    2    1    2    0    0 -0.11930407094E+04 -0.50145989129E+03 -0.13143250704E+04  0.20551754734E+04  0.90635957469E+03 0.  0.
         23    2    4    4    0    0 -0.55060785187E+03  0.19154066160E+03 -0.28496095971E+03  0.65481586465E+03  0.87887635386E+02 0.  0.
         23    2    4    4    0    0 -0.64243285755E+03 -0.69300055289E+03 -0.10293641107E+04  0.14003596087E+04  0.91906574845E+02 0.  0.
          4    1    3    3  502    0  0.34234751315E+03  0.16444420724E+03 -0.59338814484E+00  0.37979477243E+03  0.00000000000E+00 0. -1.
         -3    1    3    3    0  502  0.85069319627E+03  0.33701568406E+03 -0.10767790401E+03  0.92133219660E+03  0.00000000000E+00 0.  1.
         11    1    5    5    0    0 -0.42527212169E+03  0.11692942485E+03 -0.24030748865E+03  0.50227139773E+03  0.00000000000E+00 0. -1.
        -11    1    5    5    0    0 -0.12533573018E+03  0.74611236748E+02 -0.44653471063E+02  0.15254446692E+03  0.00000000000E+00 0.  1.
          4    1    6    6  503    0 -0.58484431556E+03 -0.59698786905E+03 -0.93377143174E+03  0.12531426399E+04  0.00000000000E+00 0. -1.
         -4    1    6    6    0  503 -0.57588541983E+02 -0.96012683839E+02 -0.95592678980E+02  0.14721696879E+03  0.00000000000E+00 0.  1.
<mgrwt>
<rscale>  0 0.30398990E+04</rscale>
<asrwt>0</asrwt>
<pdfrwt beam="1">  1        2 0.36760760E+00 0.30398990E+04</pdfrwt>
<pdfrwt beam="2">  1       -1 0.14874662E+00 0.30398990E+04</pdfrwt>
<totfact> 0.13951397E+00</totfact>
</mgrwt>
</event>
<event>
12    6  0.9491186E-008  0.1160705E+04  0.7818608E-02  0.9147964E-01
         -1   -1    0    0    0  501 -0.00000000000E+00  0.00000000000E+00  0.22537335779E+03  0.22537335779E+03  0.00000000000E+00 0.  1.
          2   -1    0    0  501    0  0.00000000000E+00 -0.00000000000E+00 -0.14944485946E+04  0.14944485946E+04  0.00000000000E+00 0. -1.
         24    2    1    2    0    0  0.30904166064E+02 -0.85816270649E+02 -0.55677941966E+03  0.56946790730E+03  0.77271440359E+02 0.  0.
        254    2    1    2    0    0 -0.30904166064E+02  0.85816270649E+02 -0.71229581716E+03  0.11503540451E+04  0.89868214523E+03 0.  0.
         23    2    4    4    0    0  0.40074882397E+03 -0.10069347023E+03 -0.36130019249E+03  0.55653099042E+03  0.91924530662E+02 0.  0.
         23    2    4    4    0    0 -0.43165299003E+03  0.18650974088E+03 -0.35099562467E+03  0.59382305469E+03  0.91201450048E+02 0.  0.
          4    1    3    3  502    0 -0.20500134938E+02 -0.12975145916E+02 -0.21059954518E+03  0.21199240169E+03  0.00000000000E+00 0. -1.
         -3    1    3    3    0  502  0.51404301001E+02 -0.72841124734E+02 -0.34617987448E+03  0.35747550561E+03  0.00000000000E+00 0.  1.
         11    1    5    5    0    0  0.33332766168E+03 -0.11563024177E+03 -0.28433397325E+03  0.45312635235E+03  0.00000000000E+00 0. -1.
        -11    1    5    5    0    0  0.67421162295E+02  0.14936771537E+02 -0.76966219245E+02  0.10340463807E+03  0.00000000000E+00 0.  1.
          4    1    6    6  503    0 -0.32424216151E+03  0.17204255761E+03 -0.29993074170E+03  0.47401484233E+03  0.00000000000E+00 0. -1.
         -4    1    6    6    0  503 -0.10741082853E+03  0.14467183273E+02 -0.51064882968E+02  0.11980821236E+03  0.00000000000E+00 0.  1.
<mgrwt>
<rscale>  0 0.11607048E+04</rscale>
<asrwt>0</asrwt>
<pdfrwt beam="1">  1        2 0.22991517E+00 0.11607048E+04</pdfrwt>
<pdfrwt beam="2">  1       -1 0.34672824E-01 0.11607048E+04</pdfrwt>
<totfact> 0.11366224E+02</totfact>
</mgrwt>
</event>
<event>
12    6  0.9491186E-008  0.2509463E+04  0.7818608E-02  0.8399622E-01
          2   -1    0    0  501    0  0.00000000000E+00  0.00000000000E+00  0.34900469348E+04  0.34900469348E+04  0.00000000000E+00 0. -1.
         -1   -1    0    0    0  501 -0.00000000000E+00 -0.00000000000E+00 -0.45109726576E+03  0.45109726576E+03  0.00000000000E+00 0.  1.
         24    2    1    2    0    0 -0.37205746863E+03 -0.36646908904E+03 -0.18036886316E+03  0.55824119017E+03  0.79836999103E+02 0.  0.
        254    2    1    2    0    0  0.37205746863E+03  0.36646908904E+03  0.32193185322E+04  0.33829030104E+04  0.89849574999E+03 0.  0.
         23    2    4    4    0    0 -0.16841861806E+02  0.38585257409E+03  0.52025181894E+03  0.65440604510E+03  0.91757612887E+02 0.  0.
         23    2    4    4    0    0  0.38889933043E+03 -0.19383485048E+02  0.26990667133E+04  0.27284969653E+04  0.90089723149E+02 0.  0.
          2    1    3    3  502    0 -0.87172980788E+02 -0.88282757198E+02 -0.79940216460E+02  0.14759204588E+03  0.00000000000E+00 0. -1.
         -1    1    3    3    0  502 -0.28488448784E+03 -0.27818633184E+03 -0.10042864670E+03  0.41064914430E+03  0.00000000000E+00 0.  1.
         11    1    5    5    0    0  0.16101533493E+02  0.81662103478E+02  0.17034196760E+03  0.18958993763E+03  0.00000000000E+00 0. -1.
        -11    1    5    5    0    0 -0.32943395299E+02  0.30419047061E+03  0.34990985134E+03  0.46481610747E+03  0.00000000000E+00 0.  1.
          3    1    6    6  503    0  0.22683088662E+02 -0.12640529084E+02  0.84537298323E+02  0.88435627970E+02  0.00000000000E+00 0. -1.
         -3    1    6    6    0  503  0.36621624177E+03 -0.67429559632E+01  0.26145294149E+04  0.26400613373E+04  0.00000000000E+00 0.  1.
<mgrwt>
<rscale>  0 0.25094626E+04</rscale>
<asrwt>0</asrwt>
<pdfrwt beam="1">  1        2 0.53693028E+00 0.25094626E+04</pdfrwt>
<pdfrwt beam="2">  1       -1 0.69399582E-01 0.25094626E+04</pdfrwt>
<totfact> 0.17604196E+00</totfact>
</mgrwt>
</event>
<event>
12    6  0.9491186E-008  0.1780562E+04  0.7818608E-02  0.8716705E-01
          2   -1    0    0  501    0  0.00000000000E+00  0.00000000000E+00  0.20728102353E+04  0.20728102353E+04  0.00000000000E+00 0. -1.
         -1   -1    0    0    0  501 -0.00000000000E+00 -0.00000000000E+00 -0.38237958394E+03  0.38237958394E+03  0.00000000000E+00 0.  1.
         24    2    1    2    0    0  0.45223884385E+03 -0.53499441468E+02  0.12902372030E+04  0.13705474170E+04  0.79410453665E+02 0.  0.
        254    2    1    2    0    0 -0.45223884385E+03  0.53499441468E+02  0.40019344839E+03  0.10846424023E+04  0.89939545392E+03 0.  0.
         23    2    4    4    0    0  0.11814517549E+03  0.31108960607E+03  0.27127872177E+03  0.43913800101E+03  0.92276831082E+02 0.  0.
         23    2    4    4    0    0 -0.57038401933E+03 -0.25759016460E+03  0.12891472662E+03  0.64550440125E+03  0.91467496334E+02 0.  0.
          2    1    3    3  502    0  0.36544771125E+03 -0.12614424624E+02  0.10507267295E+04  0.11125366572E+04  0.00000000000E+00 0. -1.
         -1    1    3    3    0  502  0.86791132595E+02 -0.40885016844E+02  0.23951047348E+03  0.25801075986E+03  0.00000000000E+00 0.  1.
         11    1    5    5    0    0  0.76141979465E+02  0.18580499041E+03  0.21875803548E+03  0.29694473154E+03  0.00000000000E+00 0.  1.
        -11    1    5    5    0    0  0.42003196020E+02  0.12528461566E+03  0.52520686283E+02  0.14219326947E+03  0.00000000000E+00 0. -1.
          1    1    6    6  503    0 -0.11618593035E+03 -0.43514009260E+02  0.62783563980E+02  0.13904824817E+03  0.00000000000E+00 0. -1.
         -1    1    6    6    0  503 -0.45419808899E+03 -0.21407615534E+03  0.66131162644E+02  0.50645615309E+03  0.00000000000E+00 0.  1.
<mgrwt>
<rscale>  0 0.17805621E+04</rscale>
<asrwt>0</asrwt>
<pdfrwt beam="1">  1        2 0.31889388E+00 0.17805621E+04</pdfrwt>
<pdfrwt beam="2">  1       -1 0.58827629E-01 0.17805621E+04</pdfrwt>
<totfact> 0.19191653E+01</totfact>
</mgrwt>
</event>
<event>
12    6  0.9491186E-008  0.1076416E+04  0.7818608E-02  0.9228488E-01
          2   -1    0    0  501    0  0.00000000000E+00  0.00000000000E+00  0.75566205953E+03  0.75566205953E+03  0.00000000000E+00 0. -1.
         -1   -1    0    0    0  501 -0.00000000000E+00 -0.00000000000E+00 -0.38332993863E+03  0.38332993863E+03  0.00000000000E+00 0.  1.
         24    2    1    2    0    0 -0.20207493907E+02 -0.14080461953E+03  0.10079907283E+03  0.18886192678E+03  0.72622934474E+02 0.  0.
        254    2    1    2    0    0  0.20207493907E+02  0.14080461953E+03  0.27153304807E+03  0.95013007139E+03  0.89932345275E+03 0.  0.
         23    2    4    4    0    0  0.12406216851E+03  0.24089757043E+03 -0.26241623376E+03  0.38823362404E+03  0.91869505275E+02 0.  0.
         23    2    4    4    0    0 -0.10385467461E+03 -0.10009295090E+03  0.53394928183E+03  0.56189644735E+03  0.99102924844E+02 0.  0.
          4    1    3    3  502    0 -0.14272962892E+02 -0.13258877152E+03  0.11171619641E+03  0.17396553781E+03  0.00000000000E+00 0. -1.
         -3    1    3    3    0  502 -0.59345310145E+01 -0.82158480102E+01 -0.10917123588E+02  0.14896388969E+02  0.00000000000E+00 0.  1.
         11    1    5    5    0    0  0.16755779050E+02  0.72189033164E+02 -0.25842368541E+02  0.78484652337E+02  0.00000000000E+00 0. -1.
        -11    1    5    5    0    0  0.10730638946E+03  0.16870853726E+03 -0.23657386522E+03  0.30974897170E+03  0.00000000000E+00 0.  1.
          1    1    6    6  503    0 -0.20432744649E+02 -0.28332256312E+02  0.29916097155E+02  0.45991158613E+02  0.00000000000E+00 0. -1.
         -1    1    6    6    0  503 -0.83421929957E+02 -0.71760694584E+02  0.50403318468E+03  0.51590528873E+03  0.00000000000E+00 0.  1.
<mgrwt>
<rscale>  0 0.10764161E+04</rscale>
<asrwt>0</asrwt>
<pdfrwt beam="1">  1        2 0.11625570E+00 0.10764161E+04</pdfrwt>
<pdfrwt beam="2">  1       -1 0.58973837E-01 0.10764161E+04</pdfrwt>
<totfact> 0.12285259E+02</totfact>
</mgrwt>
</event>
<event>
12    6  0.9491186E-008  0.2009822E+04  0.7818608E-02  0.8602042E-01
          2   -1    0    0  501    0  0.00000000000E+00  0.00000000000E+00  0.16415815640E+04  0.16415815640E+04  0.00000000000E+00 0. -1.
         -1   -1    0    0    0  501 -0.00000000000E+00 -0.00000000000E+00 -0.61516650330E+03  0.61516650330E+03  0.00000000000E+00 0.  1.
         24    2    1    2    0    0 -0.79621736600E+03  0.98226397557E+02  0.45528547464E+03  0.92590300459E+03  0.80006195994E+02 0.  0.
        254    2    1    2    0    0  0.79621736600E+03 -0.98226397557E+02  0.57112958610E+03  0.13308450627E+04  0.89518101959E+03 0.  0.
         23    2    4    4    0    0 -0.14087353192E+03 -0.13733565292E+03 -0.20459435271E+02  0.21859584272E+03  0.93054394870E+02 0.  0.
         23    2    4    4    0    0  0.93709089792E+03  0.39109255359E+02  0.59158902137E+03  0.11122492200E+04  0.86324228557E+02 0.  0.
          4    1    3    3  502    0 -0.48637756648E+03  0.35841095799E+02  0.31139859560E+03  0.57863356856E+03  0.00000000000E+00 0. -1.
         -3    1    3    3    0  502 -0.30983979951E+03  0.62385301757E+02  0.14388687904E+03  0.34726943602E+03  0.00000000000E+00 0.  1.
         11    1    5    5    0    0 -0.21039637645E+02  0.12689804700E+02  0.44726329019E+01  0.24974025318E+02  0.00000000000E+00 0. -1.
        -11    1    5    5    0    0 -0.11983389427E+03 -0.15002545761E+03 -0.24932068173E+02  0.19362181740E+03  0.00000000000E+00 0.  1.
          4    1    6    6  503    0  0.46326906263E+02 -0.16370265251E+01  0.53456625863E+02  0.70756433972E+02  0.00000000000E+00 0. -1.
         -4    1    6    6    0  503  0.89076399165E+03  0.40746281884E+02  0.53813239551E+03  0.10414927861E+04  0.00000000000E+00 0.  1.
<mgrwt>
<rscale>  0 0.20098219E+04</rscale>
<asrwt>0</asrwt>
<pdfrwt beam="1">  1        2 0.25255101E+00 0.20098219E+04</pdfrwt>
<pdfrwt beam="2">  1       -1 0.94641001E-01 0.20098219E+04</pdfrwt>
<totfact> 0.12070452E+01</totfact>
</mgrwt>
</event>
<event>
12    6  0.1269858E-007  0.1707457E+04  0.7818608E-02  0.8757122E-01
         -1   -1    0    0    0  501 -0.00000000000E+00  0.00000000000E+00  0.39846872583E+03  0.39846872583E+03  0.00000000000E+00 0.  1.
          2   -1    0    0  501    0  0.00000000000E+00 -0.00000000000E+00 -0.18291341451E+04  0.18291341451E+04  0.00000000000E+00 0. -1.
         24    2    1    2    0    0 -0.68083032885E+02 -0.46937409232E+02 -0.13114874173E+04  0.13166650952E+04  0.82275801479E+02 0.  0.
        254    2    1    2    0    0  0.68083032885E+02  0.46937409232E+02 -0.11917800197E+03  0.91093777571E+03  0.89931408045E+03 0.  0.
         23    2    4    4    0    0  0.13864599444E+03  0.38085776119E+03  0.17578114351E+03  0.45135063924E+03  0.92428583744E+02 0.  0.
         23    2    4    4    0    0 -0.70562961559E+02 -0.33392035196E+03 -0.29495914548E+03  0.45958713647E+03  0.87963091721E+02 0.  0.
          4    1    3    3  502    0 -0.34350534704E+02 -0.66795583724E+02 -0.98009558478E+03  0.98296946268E+03  0.00000000000E+00 0. -1.
         -3    1    3    3    0  502 -0.33732498180E+02  0.19858174493E+02 -0.33139183250E+03  0.33369563254E+03  0.00000000000E+00 0.  1.
         11    1    5    5    0    0  0.87329261404E+02  0.11314575111E+03  0.53832856297E+02  0.15272962158E+03  0.00000000000E+00 0. -1.
        -11    1    5    5    0    0  0.51316733039E+02  0.26771201009E+03  0.12194828721E+03  0.29862101766E+03  0.00000000000E+00 0.  1.
          1    1    6    6  503    0 -0.31602052297E+02 -0.40735430123E+02 -0.18615752914E+02  0.54814334194E+02  0.00000000000E+00 0. -1.
         -1    1    6    6    0  503 -0.38960909262E+02 -0.29318492184E+03 -0.27634339256E+03  0.40477280227E+03  0.00000000000E+00 0.  1.
<mgrwt>
<rscale>  0 0.17074575E+04</rscale>
<asrwt>0</asrwt>
<pdfrwt beam="1">  1        2 0.28140526E+00 0.17074575E+04</pdfrwt>
<pdfrwt beam="2">  1       -1 0.61302879E-01 0.17074575E+04</pdfrwt>
<totfact> 0.24302782E+01</totfact>
</mgrwt>
</event>
<event>
12    6  0.9491186E-008  0.1615685E+04  0.7818608E-02  0.8810970E-01
          2   -1    0    0  501    0  0.00000000000E+00  0.00000000000E+00  0.94161173097E+03  0.94161173097E+03  0.00000000000E+00 0. -1.
         -1   -1    0    0    0  501 -0.00000000000E+00 -0.00000000000E+00 -0.69307714493E+03  0.69307714493E+03  0.00000000000E+00 0.  1.
         24    2    1    2    0    0  0.11245099289E+03 -0.24956002858E+02  0.62855643495E+03  0.64392810164E+03  0.79323264479E+02 0.  0.
        254    2    1    2    0    0 -0.11245099289E+03  0.24956002858E+02 -0.38002184891E+03  0.99076077426E+03  0.90770164607E+03 0.  0.
         23    2    4    4    0    0 -0.64578759784E+02 -0.42550352835E+03 -0.26899246400E+03  0.51558132048E+03  0.90793631362E+02 0.  0.
         23    2    4    4    0    0 -0.47872233106E+02  0.45045953120E+03 -0.11102938491E+03  0.47517945377E+03  0.90898014390E+02 0.  0.
          4    1    3    3  502    0  0.10338371652E+03 -0.92993663502E+01  0.60688009461E+03  0.61569320306E+03  0.00000000000E+00 0. -1.
         -3    1    3    3    0  502  0.90672763721E+01 -0.15656636508E+02  0.21676340331E+02  0.28234898578E+02  0.00000000000E+00 0.  1.
         11    1    5    5    0    0 -0.45106313883E+02 -0.14557224833E+03 -0.13922541492E+03  0.20642086909E+03  0.00000000000E+00 0.  1.
        -11    1    5    5    0    0 -0.19472445901E+02 -0.27993128002E+03 -0.12976704908E+03  0.30916045140E+03  0.00000000000E+00 0. -1.
          1    1    6    6  503    0 -0.56462076502E+02  0.32172788095E+03 -0.11445333692E+03  0.34611611028E+03  0.00000000000E+00 0. -1.
         -1    1    6    6    0  503  0.85898433955E+01  0.12873165026E+03  0.34239520052E+01  0.12906334350E+03  0.00000000000E+00 0.  1.
<mgrwt>
<rscale>  0 0.16156851E+04</rscale>
<asrwt>0</asrwt>
<pdfrwt beam="1">  1        2 0.14486334E+00 0.16156851E+04</pdfrwt>
<pdfrwt beam="2">  1       -1 0.10662725E+00 0.16156851E+04</pdfrwt>
<totfact> 0.24689471E+01</totfact>
</mgrwt>
</event>
<event>
12    6  0.9491186E-008  0.2182888E+04  0.7818608E-02  0.8525585E-01
          2   -1    0    0  501    0  0.00000000000E+00  0.00000000000E+00  0.21158723021E+04  0.21158723021E+04  0.00000000000E+00 0. -1.
         -1   -1    0    0    0  501 -0.00000000000E+00 -0.00000000000E+00 -0.56300643149E+03  0.56300643149E+03  0.00000000000E+00 0.  1.
         24    2    1    2    0    0 -0.46678306799E+03 -0.72508945512E+03  0.31425325078E+03  0.92137080430E+03  0.80795438631E+02 0.  0.
        254    2    1    2    0    0  0.46678306799E+03  0.72508945512E+03  0.12386126198E+04  0.17575079293E+04  0.90057301148E+03 0.  0.
         23    2    4    4    0    0  0.72929926751E+03  0.53352148355E+03  0.86754853117E+03  0.12559765215E+04  0.91180993627E+02 0.  0.
         23    2    4    4    0    0 -0.26251619952E+03  0.19156797157E+03  0.37106408865E+03  0.50153140779E+03  0.90731209456E+02 0.  0.
          4    1    3    3  502    0 -0.21497879548E+03 -0.28258845819E+03  0.15946698775E+03  0.38923237197E+03  0.00000000000E+00 0. -1.
         -3    1    3    3    0  502 -0.25180427251E+03 -0.44250099694E+03  0.15478626303E+03  0.53213843233E+03  0.00000000000E+00 0.  1.
         11    1    5    5    0    0  0.27227715559E+03  0.20098199802E+03  0.26498907243E+03  0.42982301182E+03  0.00000000000E+00 0. -1.
        -11    1    5    5    0    0  0.45702211192E+03  0.33253948553E+03  0.60255945874E+03  0.82615350967E+03  0.00000000000E+00 0.  1.
          2    1    6    6  503    0 -0.84748631157E+02  0.43712699418E+02  0.17091816580E+03  0.19571956972E+03  0.00000000000E+00 0. -1.
         -2    1    6    6    0  503 -0.17776756836E+03  0.14785527215E+03  0.20014592285E+03  0.30581183806E+03  0.00000000000E+00 0.  1.
<mgrwt>
<rscale>  0 0.21828877E+04</rscale>
<asrwt>0</asrwt>
<pdfrwt beam="1">  1        2 0.32551881E+00 0.21828877E+04</pdfrwt>
<pdfrwt beam="2">  1       -1 0.86616375E-01 0.21828877E+04</pdfrwt>
<totfact> 0.78804252E+00</totfact>
</mgrwt>
</event>
<event>
12    6  0.9491186E-008  0.1948767E+04  0.7818608E-02  0.8630956E-01
          2   -1    0    0  501    0  0.00000000000E+00  0.00000000000E+00  0.21109851795E+04  0.21109851795E+04  0.00000000000E+00 0. -1.
         -1   -1    0    0    0  501 -0.00000000000E+00 -0.00000000000E+00 -0.44975340068E+03  0.44975340068E+03  0.00000000000E+00 0.  1.
         24    2    1    2    0    0  0.48272406879E+03  0.54615899562E+03  0.38270160385E+03  0.82704128654E+03  0.78896115057E+02 0.  0.
        254    2    1    2    0    0 -0.48272406879E+03 -0.54615899562E+03  0.12785301750E+04  0.17336972937E+04  0.91638131945E+03 0.  0.
         23    2    4    4    0    0 -0.43191712648E+03 -0.50738368726E+03  0.27943175539E+03  0.72835193212E+03  0.91781375335E+02 0.  0.
         23    2    4    4    0    0 -0.50806942308E+02 -0.38775308361E+02  0.99909841963E+03  0.10053453616E+04  0.91851913444E+02 0.  0.
          2    1    3    3  502    0  0.33621850147E+03  0.40955036030E+03  0.24378306599E+03  0.58327057325E+03  0.00000000000E+00 0. -1.
         -1    1    3    3    0  502  0.14650556731E+03  0.13660863532E+03  0.13891853785E+03  0.24377071329E+03  0.00000000000E+00 0.  1.
         11    1    5    5    0    0 -0.39414041915E+03 -0.46805354620E+03  0.22684694706E+03  0.65259507315E+03  0.00000000000E+00 0. -1.
        -11    1    5    5    0    0 -0.37776707333E+02 -0.39330141055E+02  0.52584808335E+02  0.75756858963E+02  0.00000000000E+00 0.  1.
          2    1    6    6  503    0 -0.35070870330E+02  0.14016854545E+02  0.71252535291E+03  0.71352562442E+03  0.00000000000E+00 0. -1.
         -2    1    6    6    0  503 -0.15736071978E+02 -0.52792162905E+02  0.28657306671E+03  0.29181973715E+03  0.00000000000E+00 0.  1.
<mgrwt>
<rscale>  0 0.19487665E+04</rscale>
<asrwt>0</asrwt>
<pdfrwt beam="1">  1        2 0.32476694E+00 0.19487665E+04</pdfrwt>
<pdfrwt beam="2">  1       -1 0.69192832E-01 0.19487665E+04</pdfrwt>
<totfact> 0.13002435E+01</totfact>
</mgrwt>
</event>
<event>
12    6  0.9491186E-008  0.1763752E+04  0.7818608E-02  0.8725817E-01
         -1   -1    0    0    0  501 -0.00000000000E+00  0.00000000000E+00  0.10381498474E+04  0.10381498474E+04  0.00000000000E+00 0.  1.
          2   -1    0    0  501    0  0.00000000000E+00 -0.00000000000E+00 -0.74912638827E+03  0.74912638827E+03  0.00000000000E+00 0. -1.
         24    2    1    2    0    0  0.76719972501E+02 -0.38859205853E+03  0.62273797691E+03  0.74229250532E+03  0.79409278004E+02 0.  0.
        254    2    1    2    0    0 -0.76719972501E+02  0.38859205853E+03 -0.33371451780E+03  0.10449837303E+04  0.90759896163E+03 0.  0.
         23    2    4    4    0    0  0.14637925207E+03 -0.14756177577E+03  0.16019202245E+03  0.27749727652E+03  0.90232429407E+02 0.  0.
         23    2    4    4    0    0 -0.22309922457E+03  0.53615383430E+03 -0.49390654025E+03  0.76748645382E+03  0.88643038409E+02 0.  0.
          4    1    3    3  502    0  0.46890938020E+00 -0.36684549859E+02  0.24718502156E+02  0.44237771454E+02  0.00000000000E+00 0. -1.
         -3    1    3    3    0  502  0.76251063120E+02 -0.35190750867E+03  0.59801947476E+03  0.69805473387E+03  0.00000000000E+00 0.  1.
         11    1    5    5    0    0  0.65370725196E+02 -0.11120698319E+02  0.62720923773E+02  0.91273851254E+02  0.00000000000E+00 0. -1.
        -11    1    5    5    0    0  0.81008526872E+02 -0.13644107745E+03  0.97471098677E+02  0.18622342527E+03  0.00000000000E+00 0.  1.
          1    1    6    6  503    0 -0.22009303756E+02  0.39212364385E+02 -0.11763028666E+02  0.46479972202E+02  0.00000000000E+00 0. -1.
         -1    1    6    6    0  503 -0.20108992081E+03  0.49694146991E+03 -0.48214351158E+03  0.72100648161E+03  0.00000000000E+00 0.  1.
<mgrwt>
<rscale>  0 0.17637522E+04</rscale>
<asrwt>0</asrwt>
<pdfrwt beam="1">  1        2 0.11525021E+00 0.17637522E+04</pdfrwt>
<pdfrwt beam="2">  1       -1 0.15971536E+00 0.17637522E+04</pdfrwt>
<totfact> 0.11923494E+01</totfact>
</mgrwt>
</event>
<event>
12    6  0.9491186E-008  0.1256969E+04  0.7818608E-02  0.9064403E-01
         -3   -1    0    0    0  501 -0.00000000000E+00  0.00000000000E+00  0.14375941880E+03  0.14375941880E+03  0.00000000000E+00 0.  1.
          4   -1    0    0  501    0  0.00000000000E+00 -0.00000000000E+00 -0.27475947896E+04  0.27475947896E+04  0.00000000000E+00 0. -1.
         24    2    1    2    0    0  0.22347344086E+02 -0.23922888778E+03 -0.27281538014E+03  0.37232440144E+03  0.80419921242E+02 0.  0.
        254    2    1    2    0    0 -0.22347344086E+02  0.23922888778E+03 -0.23310199906E+04  0.25190298069E+04  0.92418997341E+03 0.  0.
         23    2    4    4    0    0 -0.43757605510E+03  0.26662231021E+03 -0.14521147474E+04  0.15423931609E+04  0.88199563745E+02 0.  0.
         23    2    4    4    0    0  0.41522871101E+03 -0.27393422428E+02 -0.87890524323E+03  0.97663664597E+03  0.90440199245E+02 0.  0.
          2    1    3    3  502    0  0.24825816553E+02 -0.14745705220E+02 -0.31113690070E+02  0.42447835041E+02  0.00000000000E+00 0. -1.
         -3    1    3    3    0  502 -0.24784724661E+01 -0.22448318256E+03 -0.24170169007E+03  0.32987656640E+03  0.00000000000E+00 0.  1.
         11    1    5    5    0    0 -0.32236308742E+03  0.19092091517E+03 -0.93638522111E+03  0.10085564130E+04  0.00000000000E+00 0.  1.
        -11    1    5    5    0    0 -0.11521296768E+03  0.75701395042E+02 -0.51572952628E+03  0.53383674790E+03  0.00000000000E+00 0. -1.
          2    1    6    6  503    0  0.13868347131E+03  0.66379735213E+01 -0.20701840009E+03  0.24926649571E+03  0.00000000000E+00 0. -1.
         -2    1    6    6    0  503  0.27654523971E+03 -0.34031395949E+02 -0.67188684314E+03  0.72737015027E+03  0.00000000000E+00 0.  1.
<mgrwt>
<rscale>  0 0.12569688E+04</rscale>
<asrwt>0</asrwt>
<pdfrwt beam="1">  1        4 0.42270690E+00 0.12569688E+04</pdfrwt>
<pdfrwt beam="2">  1       -3 0.22116833E-01 0.12569688E+04</pdfrwt>
<totfact> 0.20783369E-01</totfact>
</mgrwt>
</event>
<event>
12    6  0.9491186E-008  0.3976185E+04  0.7818608E-02  0.8009368E-01
          2   -1    0    0  501    0  0.00000000000E+00  0.00000000000E+00  0.10323157657E+04  0.10323157657E+04  0.00000000000E+00 0. -1.
         -1   -1    0    0    0  501 -0.00000000000E+00 -0.00000000000E+00 -0.38287824455E+04  0.38287824455E+04  0.00000000000E+00 0.  1.
         24    2    1    2    0    0 -0.17211263212E+04 -0.10471106438E+03 -0.39269741100E+03  0.17703037567E+04  0.80770748981E+02 0.  0.
        254    2    1    2    0    0  0.17211263212E+04  0.10471106438E+03 -0.24037692687E+04  0.30907944546E+04  0.89535660086E+03 0.  0.
         23    2    4    4    0    0  0.15849260620E+04  0.30021934679E+03 -0.23113754643E+04  0.28201066326E+04  0.91774746739E+02 0.  0.
         23    2    4    4    0    0  0.13620025911E+03 -0.19550828240E+03 -0.92393804463E+02  0.27068782196E+03  0.89226020766E+02 0.  0.
          2    1    3    3  502    0 -0.18932577325E+03 -0.25229639938E+02 -0.65621730350E+02  0.20195790314E+03  0.00000000000E+00 0. -1.
         -1    1    3    3    0  502 -0.15318005479E+04 -0.79481424444E+02 -0.32707568065E+03  0.15683458535E+04  0.00000000000E+00 0.  1.
         11    1    5    5    0    0  0.19864414921E+03  0.26467006974E+02 -0.24018948699E+03  0.31281142903E+03  0.00000000000E+00 0. -1.
        -11    1    5    5    0    0  0.13862819128E+04  0.27375233981E+03 -0.20711859773E+04  0.25072952036E+04  0.00000000000E+00 0.  1.
          2    1    6    6  503    0  0.14467074399E+03 -0.19781249720E+03 -0.92396916129E+02  0.26190952317E+03  0.00000000000E+00 0.  1.
         -2    1    6    6    0  503 -0.84704848826E+01  0.23042147935E+01  0.31116651259E-02  0.87782987898E+01  0.00000000000E+00 0. -1.
<mgrwt>
<rscale>  0 0.39761853E+04</rscale>
<asrwt>0</asrwt>
<pdfrwt beam="1">  1        2 0.15881781E+00 0.39761853E+04</pdfrwt>
<pdfrwt beam="2">  1       -1 0.58904345E+00 0.39761853E+04</pdfrwt>
<totfact> 0.10579439E-02</totfact>
</mgrwt>
</event>
<event>
12    6  0.9491186E-008  0.2105784E+04  0.7818608E-02  0.8558700E-01
          2   -1    0    0  501    0  0.00000000000E+00  0.00000000000E+00  0.26761442248E+04  0.26761442248E+04  0.00000000000E+00 0. -1.
         -1   -1    0    0    0  501 -0.00000000000E+00 -0.00000000000E+00 -0.41424589260E+03  0.41424589260E+03  0.00000000000E+00 0.  1.
         24    2    1    2    0    0 -0.53768159814E+03  0.14800982419E+03  0.18659546217E+04  0.19492625964E+04  0.82641457312E+02 0.  0.
        254    2    1    2    0    0  0.53768159814E+03 -0.14800982419E+03  0.39594371054E+03  0.11411275210E+04  0.91345070382E+03 0.  0.
         23    2    4    4    0    0  0.27272235985E+03 -0.38314066537E+03  0.56223407412E+03  0.73918652454E+03  0.95474127023E+02 0.  0.
         23    2    4    4    0    0  0.26495923829E+03  0.23513084118E+03 -0.16629036358E+03  0.40194099650E+03  0.91728780762E+02 0.  0.
          2    1    3    3  502    0 -0.19252889217E+03  0.52069820966E+02  0.53598162365E+03  0.57188717547E+03  0.00000000000E+00 0. -1.
         -1    1    3    3    0  502 -0.34515270597E+03  0.95940003227E+02  0.13299729980E+04  0.13773754209E+04  0.00000000000E+00 0.  1.
         11    1    5    5    0    0  0.22908184609E+03 -0.35006174280E+03  0.53147668490E+03  0.67637946641E+03  0.00000000000E+00 0.  1.
        -11    1    5    5    0    0  0.43640513758E+02 -0.33078922568E+02  0.30757389221E+02  0.62807058131E+02  0.00000000000E+00 0. -1.
          1    1    6    6  503    0 -0.12575310231E+01  0.17520413981E+02 -0.24190476108E+02  0.29895240837E+02  0.00000000000E+00 0. -1.
         -1    1    6    6    0  503  0.26621676931E+03  0.21761042719E+03 -0.14209988748E+03  0.37204575566E+03  0.00000000000E+00 0.  1.
<mgrwt>
<rscale>  0 0.21057842E+04</rscale>
<asrwt>0</asrwt>
<pdfrwt beam="1">  1        2 0.41171449E+00 0.21057842E+04</pdfrwt>
<pdfrwt beam="2">  1       -1 0.63730139E-01 0.21057842E+04</pdfrwt>
<totfact> 0.71871095E+00</totfact>
</mgrwt>
</event>
<event>
12    6  0.9491186E-008  0.1464879E+04  0.7818608E-02  0.8908150E-01
         -1   -1    0    0    0  501 -0.00000000000E+00  0.00000000000E+00  0.14841350247E+03  0.14841350247E+03  0.00000000000E+00 0.  1.
          2   -1    0    0  501    0  0.00000000000E+00 -0.00000000000E+00 -0.36146820583E+04  0.36146820583E+04  0.00000000000E+00 0. -1.
         24    2    1    2    0    0  0.15924083087E+03 -0.24892775618E+03 -0.19384055669E+03  0.36177826731E+03  0.77373660040E+02 0.  0.
        254    2    1    2    0    0 -0.15924083087E+03  0.24892775618E+03 -0.32724279991E+04  0.34013172934E+04  0.87911981621E+03 0.  0.
         23    2    4    4    0    0  0.33429631815E+03  0.60164229871E+02 -0.18016541416E+04  0.18357920657E+04  0.93814175298E+02 0.  0.
         23    2    4    4    0    0 -0.49353714902E+03  0.18876352631E+03 -0.14707738575E+04  0.15655252278E+04  0.92102728313E+02 0.  0.
          2    1    3    3  502    0  0.25904030794E+01 -0.14543904895E+02 -0.35477145195E+02  0.38429977737E+02  0.00000000000E+00 0. -1.
         -1    1    3    3    0  502  0.15665042779E+03 -0.23438385128E+03 -0.15836341150E+03  0.32334828957E+03  0.00000000000E+00 0.  1.
         11    1    5    5    0    0  0.31249422948E+03  0.34937446203E+02 -0.15208829469E+04  0.15530480375E+04  0.00000000000E+00 0.  1.
        -11    1    5    5    0    0  0.21802088672E+02  0.25226783668E+02 -0.28077119466E+03  0.28274402812E+03  0.00000000000E+00 0. -1.
          2    1    6    6  503    0 -0.26817248534E+03  0.57334207934E+02 -0.70026688176E+03  0.75204880093E+03  0.00000000000E+00 0. -1.
         -2    1    6    6    0  503 -0.22536466368E+03  0.13142931837E+03 -0.77050697575E+03  0.81347642686E+03  0.00000000000E+00 0.  1.
<mgrwt>
<rscale>  0 0.14648790E+04</rscale>
<asrwt>0</asrwt>
<pdfrwt beam="1">  1        2 0.55610493E+00 0.14648790E+04</pdfrwt>
<pdfrwt beam="2">  1       -1 0.22832847E-01 0.14648790E+04</pdfrwt>
<totfact> 0.12367932E+01</totfact>
</mgrwt>
</event>
<event>
12    6  0.9491186E-008  0.1027090E+04  0.7818608E-02  0.9279322E-01
          2   -1    0    0  501    0  0.00000000000E+00  0.00000000000E+00  0.66337762188E+03  0.66337762188E+03  0.00000000000E+00 0. -1.
         -1   -1    0    0    0  501 -0.00000000000E+00 -0.00000000000E+00 -0.39755380403E+03  0.39755380403E+03  0.00000000000E+00 0.  1.
         24    2    1    2    0    0  0.31266875264E+02 -0.74136996597E+02  0.65237718653E+02  0.13106472064E+03  0.80299995692E+02 0.  0.
        254    2    1    2    0    0 -0.31266875264E+02  0.74136996597E+02  0.20058609920E+03  0.92986670527E+03  0.90440223055E+03 0.  0.
         23    2    4    4    0    0  0.34900869307E+03  0.40303040179E+02 -0.16055110669E+03  0.39692344687E+03  0.91324487036E+02 0.  0.
         23    2    4    4    0    0 -0.38027556833E+03  0.33833956419E+02  0.36113720589E+03  0.53294325840E+03  0.88623872171E+02 0.  0.
          4    1    3    3  502    0 -0.14017046968E+02 -0.63116113847E+02  0.50954598779E+02  0.82319454381E+02  0.00000000000E+00 0. -1.
         -3    1    3    3    0  502  0.45283922232E+02 -0.11020882751E+02  0.14283119873E+02  0.48745266259E+02  0.00000000000E+00 0.  1.
         11    1    5    5    0    0  0.24362255597E+03  0.51639009656E+01 -0.69799167446E+02  0.25347690117E+03  0.00000000000E+00 0. -1.
        -11    1    5    5    0    0  0.10538613710E+03  0.35139139213E+02 -0.90751939248E+02  0.14344654570E+03  0.00000000000E+00 0.  1.
          2    1    6    6  503    0 -0.38401380620E+03  0.28042974134E+02  0.35478241689E+03  0.52356811886E+03  0.00000000000E+00 0. -1.
         -2    1    6    6    0  503  0.37382378683E+01  0.57909822848E+01  0.63547890014E+01  0.93751395422E+01  0.00000000000E+00 0.  1.
<mgrwt>
<rscale>  0 0.10270897E+04</rscale>
<asrwt>0</asrwt>
<pdfrwt beam="1">  1        2 0.10205810E+00 0.10270897E+04</pdfrwt>
<pdfrwt beam="2">  1       -1 0.61162124E-01 0.10270897E+04</pdfrwt>
<totfact> 0.13536678E+02</totfact>
</mgrwt>
</event>
<event>
12    6  0.9491186E-008  0.1216311E+04  0.7818608E-02  0.9098698E-01
         -1   -1    0    0    0  501 -0.00000000000E+00  0.00000000000E+00  0.30165827256E+03  0.30165827256E+03  0.00000000000E+00 0.  1.
          2   -1    0    0  501    0  0.00000000000E+00 -0.00000000000E+00 -0.12260674523E+04  0.12260674523E+04  0.00000000000E+00 0. -1.
         24    2    1    2    0    0  0.92233111025E+01 -0.20122056267E+03  0.54083709228E+01  0.21681292738E+03  0.80023813287E+02 0.  0.
        254    2    1    2    0    0 -0.92233111025E+01  0.20122056267E+03 -0.92981755069E+03  0.13109127975E+04  0.90186301664E+03 0.  0.
         23    2    4    4    0    0 -0.42481347453E+03 -0.37919516616E+02 -0.45096974329E+03  0.62741853223E+03  0.91520092594E+02 0.  0.
         23    2    4    4    0    0  0.41559016342E+03  0.23914007929E+03 -0.47884780740E+03  0.68349426527E+03  0.89252599684E+02 0.  0.
          2    1    3    3  502    0  0.28351426616E+02 -0.28078369228E+02 -0.12209887545E+02  0.41728642004E+02  0.00000000000E+00 0. -1.
         -1    1    3    3    0  502 -0.19128115514E+02 -0.17314219345E+03  0.17618258468E+02  0.17508428538E+03  0.00000000000E+00 0.  1.
         11    1    5    5    0    0 -0.33051584554E+03 -0.65060637394E+02 -0.36822188301E+03  0.49906008237E+03  0.00000000000E+00 0. -1.
        -11    1    5    5    0    0 -0.94297628989E+02  0.27141120778E+02 -0.82747860272E+02  0.12835844986E+03  0.00000000000E+00 0.  1.
          4    1    6    6  503    0  0.15295496549E+03  0.12402956891E+03 -0.23884613909E+03  0.30955780331E+03  0.00000000000E+00 0. -1.
         -4    1    6    6    0  503  0.26263519793E+03  0.11511051039E+03 -0.24000166831E+03  0.37393646196E+03  0.00000000000E+00 0.  1.
<mgrwt>
<rscale>  0 0.12163115E+04</rscale>
<asrwt>0</asrwt>
<pdfrwt beam="1">  1        2 0.18862576E+00 0.12163115E+04</pdfrwt>
<pdfrwt beam="2">  1       -1 0.46408965E-01 0.12163115E+04</pdfrwt>
<totfact> 0.94877644E+01</totfact>
</mgrwt>
</event>
<event>
12    6  0.9491186E-008  0.1820935E+04  0.7818608E-02  0.8695245E-01
          2   -1    0    0  501    0  0.00000000000E+00  0.00000000000E+00  0.38837656652E+03  0.38837656652E+03  0.00000000000E+00 0. -1.
         -1   -1    0    0    0  501 -0.00000000000E+00 -0.00000000000E+00 -0.21344000409E+04  0.21344000409E+04  0.00000000000E+00 0.  1.
         24    2    1    2    0    0 -0.67128946273E+03  0.13208284326E+03 -0.61843703923E+03  0.92574151016E+03  0.80358894292E+02 0.  0.
        254    2    1    2    0    0  0.67128946273E+03 -0.13208284326E+03 -0.11275864351E+04  0.15970350972E+04  0.90055233766E+03 0.  0.
         23    2    4    4    0    0 -0.10213052649E+02  0.29987647277E+03 -0.24872480635E+03  0.40057035609E+03  0.92533105003E+02 0.  0.
         23    2    4    4    0    0  0.68150251538E+03 -0.43195931603E+03 -0.87886162877E+03  0.11964647411E+04  0.89975469417E+02 0.  0.
          2    1    3    3  502    0 -0.47521281765E+02  0.56886644227E+01 -0.74381322486E+02  0.88448935880E+02  0.00000000000E+00 0. -1.
         -3    1    3    3    0  502 -0.62376818096E+03  0.12639417884E+03 -0.54405571675E+03  0.83729257428E+03  0.00000000000E+00 0.  1.
         11    1    5    5    0    0 -0.30261770140E+02  0.27799741082E+03 -0.20104127116E+03  0.34440663156E+03  0.00000000000E+00 0. -1.
        -11    1    5    5    0    0  0.20048717490E+02  0.21879061946E+02 -0.47683535189E+02  0.56163724527E+02  0.00000000000E+00 0.  1.
          3    1    6    6  503    0  0.23558610425E+03 -0.19115259598E+03 -0.36707022647E+03  0.47621495003E+03  0.00000000000E+00 0. -1.
         -3    1    6    6    0  503  0.44591641113E+03 -0.24080672005E+03 -0.51179140229E+03  0.72024979111E+03  0.00000000000E+00 0.  1.
<mgrwt>
<rscale>  0 0.18209349E+04</rscale>
<asrwt>0</asrwt>
<pdfrwt beam="1">  1        2 0.59750241E-01 0.18209349E+04</pdfrwt>
<pdfrwt beam="2">  1       -1 0.32836924E+00 0.18209349E+04</pdfrwt>
<totfact> 0.19150416E+00</totfact>
</mgrwt>
</event>
<event>
12    6  0.9491186E-008  0.2435609E+04  0.7818608E-02  0.8426291E-01
         -1   -1    0    0    0  501 -0.00000000000E+00  0.00000000000E+00  0.70936719200E+03  0.70936719200E+03  0.00000000000E+00 0.  1.
          2   -1    0    0  501    0  0.00000000000E+00 -0.00000000000E+00 -0.20906630788E+04  0.20906630788E+04  0.00000000000E+00 0. -1.
         24    2    1    2    0    0 -0.10445838751E+03 -0.78302068383E+03 -0.13850179309E+04  0.15962861872E+04  0.76301877845E+02 0.  0.
        254    2    1    2    0    0  0.10445838751E+03  0.78302068383E+03  0.37220440836E+01  0.12037440836E+04  0.90826924378E+03 0.  0.
         23    2    4    4    0    0  0.31723755888E+03  0.50422759138E+03  0.35439648116E+03  0.69960089133E+03  0.94654152683E+02 0.  0.
         23    2    4    4    0    0 -0.21277917137E+03  0.27879309244E+03 -0.35067443708E+03  0.50414319227E+03  0.90483331812E+02 0.  0.
          2    1    3    3  502    0 -0.93666377894E+02 -0.74931327497E+03 -0.12884239655E+04  0.14934122302E+04  0.00000000000E+00 0. -1.
         -1    1    3    3    0  502 -0.10792009619E+02 -0.33707408856E+02 -0.96593965404E+02  0.10287395703E+03  0.00000000000E+00 0.  1.
         11    1    5    5    0    0  0.21509085450E+03  0.27336493447E+03  0.17123024380E+03  0.38770125030E+03  0.00000000000E+00 0.  1.
        -11    1    5    5    0    0  0.10214670438E+03  0.23086265691E+03  0.18316623736E+03  0.31189964104E+03  0.00000000000E+00 0. -1.
          2    1    6    6  503    0 -0.63597926578E+02  0.32020461901E+02 -0.95264481191E+02  0.11893413144E+03  0.00000000000E+00 0. -1.
         -2    1    6    6    0  503 -0.14918124479E+03  0.24677263054E+03 -0.25540995588E+03  0.38520906083E+03  0.00000000000E+00 0.  1.
<mgrwt>
<rscale>  0 0.24356090E+04</rscale>
<asrwt>0</asrwt>
<pdfrwt beam="1">  1        2 0.32164047E+00 0.24356090E+04</pdfrwt>
<pdfrwt beam="2">  1       -1 0.10913342E+00 0.24356090E+04</pdfrwt>
<totfact> 0.47171247E+00</totfact>
</mgrwt>
</event>
<event>
12    6  0.9491186E-008  0.3301133E+04  0.7818608E-02  0.8162607E-01
         -1   -1    0    0    0  501 -0.00000000000E+00  0.00000000000E+00  0.65060042679E+03  0.65060042679E+03  0.00000000000E+00 0.  1.
          2   -1    0    0  501    0  0.00000000000E+00 -0.00000000000E+00 -0.41874706396E+04  0.41874706396E+04  0.00000000000E+00 0. -1.
         24    2    1    2    0    0 -0.19724207177E+03  0.58802342787E+03 -0.36810563825E+04  0.37340289897E+04  0.90113361520E+02 0.  0.
        254    2    1    2    0    0  0.19724207177E+03 -0.58802342787E+03  0.14418616972E+03  0.11040420767E+04  0.90191089858E+03 0.  0.
         23    2    4    4    0    0 -0.18412336789E+03  0.26013889827E+02  0.29461175289E+03  0.36004241171E+03  0.90864273624E+02 0.  0.
         23    2    4    4    0    0  0.38136543966E+03 -0.61403731770E+03 -0.15042558318E+03  0.74399966498E+03  0.91794440630E+02 0.  0.
          4    1    3    3  502    0 -0.15781908499E+03  0.49252206821E+03 -0.28467186865E+04  0.28933185326E+04  0.00000000000E+00 0. -1.
         -3    1    3    3    0  502 -0.39422986778E+02  0.95501359665E+02 -0.83433769604E+03  0.84071045707E+03  0.00000000000E+00 0.  1.
         11    1    5    5    0    0 -0.17012367119E+03  0.12293772782E+02  0.29462952987E+03  0.34044053845E+03  0.00000000000E+00 0. -1.
        -11    1    5    5    0    0 -0.13999696697E+02  0.13720117045E+02 -0.17776975735E-01  0.19601873262E+02  0.00000000000E+00 0.  1.
          1    1    6    6  503    0  0.35703272919E+03 -0.55754002765E+03 -0.11199029873E+03  0.67146487559E+03  0.00000000000E+00 0. -1.
         -1    1    6    6    0  503  0.24332710471E+02 -0.56497290045E+02 -0.38435284449E+02  0.72534789391E+02  0.00000000000E+00 0.  1.
<mgrwt>
<rscale>  0 0.33011333E+04</rscale>
<asrwt>0</asrwt>
<pdfrwt beam="1">  1        2 0.64422625E+00 0.33011333E+04</pdfrwt>
<pdfrwt beam="2">  1       -1 0.10009237E+00 0.33011333E+04</pdfrwt>
<totfact> 0.21446835E-01</totfact>
</mgrwt>
</event>
<event>
12    6  0.9491186E-008  0.2314883E+04  0.7818608E-02  0.8472076E-01
         -1   -1    0    0    0  501 -0.00000000000E+00  0.00000000000E+00  0.55113590878E+03  0.55113590878E+03  0.00000000000E+00 0.  1.
          2   -1    0    0  501    0  0.00000000000E+00 -0.00000000000E+00 -0.24307448746E+04  0.24307448746E+04  0.00000000000E+00 0. -1.
         24    2    1    2    0    0  0.15728220414E+03  0.30734201682E+03 -0.19816459449E+04  0.20131004908E+04  0.80350033026E+02 0.  0.
        254    2    1    2    0    0 -0.15728220414E+03 -0.30734201682E+03  0.10203697907E+03  0.96878029266E+03  0.89940363759E+03 0.  0.
         23    2    4    4    0    0 -0.92017832866E+02  0.50140492913E+02 -0.35305459775E+03  0.37941370019E+03  0.91246130359E+02 0.  0.
         23    2    4    4    0    0 -0.65264371273E+02 -0.35748250973E+03  0.45509157682E+03  0.58936659247E+03  0.90506652284E+02 0.  0.
          2    1    3    3  502    0  0.10145944317E+03  0.12199012275E+03 -0.10060876347E+04  0.10185224285E+04  0.00000000000E+00 0. -1.
         -1    1    3    3    0  502  0.55822760968E+02  0.18535189407E+03 -0.97555831019E+03  0.99457806223E+03  0.00000000000E+00 0.  1.
         11    1    5    5    0    0 -0.70398036699E+02  0.74983625082E+02 -0.29812506594E+03  0.31536801129E+03  0.00000000000E+00 0. -1.
        -11    1    5    5    0    0 -0.21619796168E+02 -0.24843132170E+02 -0.54929531809E+02  0.64045688903E+02  0.00000000000E+00 0.  1.
          2    1    6    6  503    0 -0.42745868972E+02 -0.25875188688E+03  0.38642081964E+03  0.46701263166E+03  0.00000000000E+00 0. -1.
         -2    1    6    6    0  503 -0.22518502301E+02 -0.98730622857E+02  0.68670757180E+02  0.12235396082E+03  0.00000000000E+00 0.  1.
<mgrwt>
<rscale>  0 0.23148830E+04</rscale>
<asrwt>0</asrwt>
<pdfrwt beam="1">  1        2 0.37396074E+00 0.23148830E+04</pdfrwt>
<pdfrwt beam="2">  1       -1 0.84790141E-01 0.23148830E+04</pdfrwt>
<totfact> 0.54125882E+00</totfact>
</mgrwt>
</event>
<event>
12    6  0.9491186E-008  0.1645232E+04  0.7818608E-02  0.8793232E-01
          2   -1    0    0  501    0  0.00000000000E+00  0.00000000000E+00  0.12180568536E+04  0.12180568536E+04  0.00000000000E+00 0. -1.
         -1   -1    0    0    0  501 -0.00000000000E+00 -0.00000000000E+00 -0.55555489046E+03  0.55555489046E+03  0.00000000000E+00 0.  1.
         24    2    1    2    0    0  0.11302444629E+03 -0.28565913948E+03 -0.28685312138E+03  0.42807547584E+03  0.81167914526E+02 0.  0.
        254    2    1    2    0    0 -0.11302444629E+03  0.28565913948E+03  0.94935508452E+03  0.13455362682E+04  0.90267220139E+03 0.  0.
         23    2    4    4    0    0  0.44339852040E+02  0.24704260250E+03 -0.95678892967E+02  0.28416719783E+03  0.92738750436E+02 0.  0.
         23    2    4    4    0    0 -0.15736429833E+03  0.38616536975E+02  0.10450339775E+04  0.10613690704E+04  0.90296900072E+02 0.  0.
          4    1    3    3  502    0 -0.18578886742E+01  0.38835870243E+01  0.42792334160E+00  0.43263283379E+01  0.00000000000E+00 0. -1.
         -3    1    3    3    0  502  0.11488233496E+03 -0.28954272650E+03 -0.28728104472E+03  0.42374914750E+03  0.00000000000E+00 0.  1.
         11    1    5    5    0    0  0.29508471812E+02  0.29014893504E+02 -0.42371060076E+02  0.59227702012E+02  0.00000000000E+00 0. -1.
        -11    1    5    5    0    0  0.14831380228E+02  0.21802770900E+03 -0.53307832891E+02  0.22493949582E+03  0.00000000000E+00 0.  1.
          3    1    6    6  503    0 -0.90691963489E+02 -0.81555698244E+01  0.35283792279E+03  0.36439833331E+03  0.00000000000E+00 0. -1.
         -3    1    6    6    0  503 -0.66672334838E+02  0.46772106799E+02  0.69219605470E+03  0.69697073709E+03  0.00000000000E+00 0.  1.
<mgrwt>
<rscale>  0 0.16452324E+04</rscale>
<asrwt>0</asrwt>
<pdfrwt beam="1">  1        2 0.18739336E+00 0.16452324E+04</pdfrwt>
<pdfrwt beam="2">  1       -1 0.85469983E-01 0.16452324E+04</pdfrwt>
<totfact> 0.27237224E+01</totfact>
</mgrwt>
</event>
<event>
12    6  0.9491186E-008  0.1032034E+04  0.7818608E-02  0.9274092E-01
         -1   -1    0    0    0  501 -0.00000000000E+00  0.00000000000E+00  0.24370660182E+03  0.24370660182E+03  0.00000000000E+00 0.  1.
          2   -1    0    0  501    0  0.00000000000E+00 -0.00000000000E+00 -0.10925985611E+04  0.10925985611E+04  0.00000000000E+00 0. -1.
         24    2    1    2    0    0  0.60132295999E+01 -0.51979720676E+02  0.72027911399E+01  0.95515050698E+02  0.79581369792E+02 0.  0.
        254    2    1    2    0    0 -0.60132295999E+01  0.51979720676E+02 -0.85609475038E+03  0.12407901122E+04  0.89661799591E+03 0.  0.
         23    2    4    4    0    0  0.23466619010E+03 -0.33935086879E+03 -0.32948202470E+03  0.53612440390E+03  0.92971710362E+02 0.  0.
         23    2    4    4    0    0 -0.24067941970E+03  0.39133058947E+03 -0.52661272568E+03  0.70466570829E+03  0.90369155551E+02 0.  0.
          2    1    3    3  502    0  0.32001166692E+02 -0.45156385256E+02 -0.18476379884E+02  0.58348525369E+02  0.00000000000E+00 0. -1.
         -1    1    3    3    0  502 -0.25987937093E+02 -0.68233354196E+01  0.25679171024E+02  0.37166525329E+02  0.00000000000E+00 0.  1.
         11    1    5    5    0    0  0.16976352584E+02 -0.42193439925E+02 -0.59753291464E+01  0.45871423328E+02  0.00000000000E+00 0.  1.
        -11    1    5    5    0    0  0.21768983751E+03 -0.29715742887E+03 -0.32350669555E+03  0.49025298057E+03  0.00000000000E+00 0. -1.
          1    1    6    6  503    0 -0.18738459100E+03  0.25646371165E+03 -0.40963629836E+03  0.51835173124E+03  0.00000000000E+00 0. -1.
         -1    1    6    6    0  503 -0.53294828693E+02  0.13486687782E+03 -0.11697642731E+03  0.18631397705E+03  0.00000000000E+00 0.  1.
<mgrwt>
<rscale>  0 0.10320339E+04</rscale>
<asrwt>0</asrwt>
<pdfrwt beam="1">  1        2 0.16809209E+00 0.10320339E+04</pdfrwt>
<pdfrwt beam="2">  1       -1 0.37493324E-01 0.10320339E+04</pdfrwt>
<totfact> 0.17127231E+02</totfact>
</mgrwt>
</event>
<event>
12    6  0.9491186E-008  0.2531528E+04  0.7818608E-02  0.8391839E-01
          2   -1    0    0  501    0  0.00000000000E+00  0.00000000000E+00  0.48675758776E+04  0.48675758776E+04  0.00000000000E+00 0. -1.
         -1   -1    0    0    0  501 -0.00000000000E+00 -0.00000000000E+00 -0.32914917020E+03  0.32914917020E+03  0.00000000000E+00 0.  1.
         24    2    1    2    0    0 -0.55351485075E+03  0.61517585075E+03  0.34885271634E+04  0.35862436948E+04  0.80635297595E+02 0.  0.
        254    2    1    2    0    0  0.55351485075E+03 -0.61517585075E+03  0.10498995440E+04  0.16104813530E+04  0.89807634339E+03 0.  0.
         23    2    4    4    0    0  0.48844142172E+03 -0.57114210709E+03  0.24432639885E+03  0.79547106125E+03  0.91107031361E+02 0.  0.
         23    2    4    4    0    0  0.65073429027E+02 -0.44033743664E+02  0.80557314511E+03  0.81501029173E+03  0.95499538037E+02 0.  0.
          4    1    3    3  502    0 -0.42004214543E+03  0.49564623993E+03  0.28449499930E+04  0.29181914025E+04  0.00000000000E+00 0. -1.
         -3    1    3    3    0  502 -0.13347270532E+03  0.11952961083E+03  0.64357717045E+03  0.66805229231E+03  0.00000000000E+00 0.  1.
         11    1    5    5    0    0  0.43424305862E+03 -0.45569051461E+03  0.20524486684E+03  0.66207728735E+03  0.00000000000E+00 0. -1.
        -11    1    5    5    0    0  0.54198363096E+02 -0.11545159248E+03  0.39081532008E+02  0.13339377389E+03  0.00000000000E+00 0.  1.
          1    1    6    6  503    0  0.86286424108E+02 -0.24072151102E+02  0.49213796402E+03  0.50022454065E+03  0.00000000000E+00 0. -1.
         -1    1    6    6    0  503 -0.21212995081E+02 -0.19961592562E+02  0.31343518109E+03  0.31478575108E+03  0.00000000000E+00 0.  1.
<mgrwt>
<rscale>  0 0.25315280E+04</rscale>
<asrwt>0</asrwt>
<pdfrwt beam="1">  1        2 0.74885777E+00 0.25315280E+04</pdfrwt>
<pdfrwt beam="2">  1       -1 0.50638338E-01 0.25315280E+04</pdfrwt>
<totfact> 0.19879127E-01</totfact>
</mgrwt>
</event>
<event>
12    6  0.9491186E-008  0.2514490E+04  0.7818608E-02  0.8397841E-01
          2   -1    0    0  501    0  0.00000000000E+00  0.00000000000E+00  0.88807218526E+03  0.88807218526E+03  0.00000000000E+00 0. -1.
         -1   -1    0    0    0  501 -0.00000000000E+00 -0.00000000000E+00 -0.17798839006E+04  0.17798839006E+04  0.00000000000E+00 0.  1.
         24    2    1    2    0    0  0.27819790390E+03  0.72212680331E+02  0.73183547122E+03  0.79028690594E+03  0.79758960779E+02 0.  0.
        254    2    1    2    0    0 -0.27819790390E+03 -0.72212680331E+02 -0.16236471866E+04  0.18776691800E+04  0.89822192020E+03 0.  0.
         23    2    4    4    0    0 -0.34629875815E+03 -0.22666620979E+03 -0.16309097779E+04  0.16850791785E+04  0.91239979366E+02 0.  0.
         23    2    4    4    0    0  0.68100854243E+02  0.15445352945E+03  0.72625912663E+01  0.19259000144E+03  0.92436704360E+02 0.  0.
          4    1    3    3  502    0  0.10355391259E+03  0.64911200614E+02  0.26589403245E+03  0.29263717000E+03  0.00000000000E+00 0. -1.
         -3    1    3    3    0  502  0.17464399132E+03  0.73014797164E+01  0.46594143877E+03  0.49764973593E+03  0.00000000000E+00 0.  1.
         11    1    5    5    0    0 -0.22164001636E+03 -0.19401331495E+03 -0.11675596043E+04  0.12041432194E+04  0.00000000000E+00 0. -1.
        -11    1    5    5    0    0 -0.12465874179E+03 -0.32652894835E+02 -0.46335017352E+03  0.48093595909E+03  0.00000000000E+00 0.  1.
          3    1    6    6  503    0  0.84374361926E+02  0.13060690628E+03 -0.14887992809E+02  0.15620131001E+03  0.00000000000E+00 0. -1.
         -3    1    6    6    0  503 -0.16273507683E+02  0.23846623171E+02  0.22150584075E+02  0.36388691428E+02  0.00000000000E+00 0.  1.
<mgrwt>
<rscale>  0 0.25144903E+04</rscale>
<asrwt>0</asrwt>
<pdfrwt beam="1">  1        2 0.13662649E+00 0.25144903E+04</pdfrwt>
<pdfrwt beam="2">  1       -1 0.27382829E+00 0.25144903E+04</pdfrwt>
<totfact> 0.14808886E+00</totfact>
</mgrwt>
</event>
<event>
12    6  0.9491186E-008  0.2411123E+04  0.7818608E-02  0.8435351E-01
          2   -1    0    0  501    0  0.00000000000E+00  0.00000000000E+00  0.71302562288E+03  0.71302562288E+03  0.00000000000E+00 0. -1.
         -1   -1    0    0    0  501 -0.00000000000E+00 -0.00000000000E+00 -0.20383262907E+04  0.20383262907E+04  0.00000000000E+00 0.  1.
         24    2    1    2    0    0  0.21931420538E+03 -0.72210946498E+03 -0.13795883135E+04  0.15745683868E+04  0.80379659486E+02 0.  0.
        254    2    1    2    0    0 -0.21931420538E+03  0.72210946498E+03  0.54287645721E+02  0.11767835268E+04  0.90129435836E+03 0.  0.
         23    2    4    4    0    0  0.31625722108E+03  0.45644515668E+03 -0.41840138970E+02  0.56444624993E+03  0.92131215559E+02 0.  0.
         23    2    4    4    0    0 -0.53557142646E+03  0.26566430830E+03  0.96127784691E+02  0.61233727689E+03  0.91115926877E+02 0.  0.
          4    1    3    3  502    0  0.16593752550E+03 -0.54228102175E+03 -0.11049589678E+04  0.12419896494E+04  0.00000000000E+00 0. -1.
         -3    1    3    3    0  502  0.53376679878E+02 -0.17982844323E+03 -0.27462934577E+03  0.33257873731E+03  0.00000000000E+00 0.  1.
         11    1    5    5    0    0  0.33632735596E+02  0.47748035161E+02  0.24117021825E+02  0.63187550254E+02  0.00000000000E+00 0.  1.
        -11    1    5    5    0    0  0.28262448549E+03  0.40869712152E+03 -0.65957160795E+02  0.50125869967E+03  0.00000000000E+00 0. -1.
          4    1    6    6  503    0 -0.47888807945E+03  0.26221730185E+03  0.72265737614E+02  0.55073954176E+03  0.00000000000E+00 0. -1.
         -4    1    6    6    0  503 -0.56683347017E+02  0.34470064516E+01  0.23862047076E+02  0.61597735130E+02  0.00000000000E+00 0.  1.
<mgrwt>
<rscale>  0 0.24111233E+04</rscale>
<asrwt>0</asrwt>
<pdfrwt beam="1">  1        2 0.10969625E+00 0.24111233E+04</pdfrwt>
<pdfrwt beam="2">  1       -1 0.31358865E+00 0.24111233E+04</pdfrwt>
<totfact> 0.11057538E+00</totfact>
</mgrwt>
</event>
<event>
12    6  0.9491186E-008  0.1595151E+04  0.7818608E-02  0.8823532E-01
          2   -1    0    0  501    0  0.00000000000E+00  0.00000000000E+00  0.71007891007E+03  0.71007891007E+03  0.00000000000E+00 0. -1.
         -1   -1    0    0    0  501 -0.00000000000E+00 -0.00000000000E+00 -0.89585370625E+03  0.89585370625E+03  0.00000000000E+00 0.  1.
         24    2    1    2    0    0 -0.74895280072E+02  0.44796127928E+03 -0.36204707792E+03  0.58619023468E+03  0.79134656707E+02 0.  0.
        254    2    1    2    0    0  0.74895280072E+02 -0.44796127928E+03  0.17627228173E+03  0.10197423816E+04  0.89583703702E+03 0.  0.
         23    2    4    4    0    0 -0.49314259168E+02 -0.46664680411E+02  0.47989938552E+03  0.49343302495E+03  0.92537783305E+02 0.  0.
         23    2    4    4    0    0  0.12420953924E+03 -0.40129659887E+03 -0.30362710379E+03  0.52630935669E+03  0.91351797321E+02 0.  0.
          2    1    3    3  502    0 -0.59498753562E+02  0.13828387549E+03 -0.10669667129E+03  0.18451751017E+03  0.00000000000E+00 0. -1.
         -1    1    3    3    0  502 -0.15396526510E+02  0.30967740379E+03 -0.25535040663E+03  0.40167272451E+03  0.00000000000E+00 0.  1.
         11    1    5    5    0    0 -0.20014170592E+02 -0.50006894033E+02  0.44268883788E+03  0.44595365641E+03  0.00000000000E+00 0.  1.
        -11    1    5    5    0    0 -0.29300088575E+02  0.33422136224E+01  0.37210547636E+02  0.47479368549E+02  0.00000000000E+00 0. -1.
          4    1    6    6  503    0 -0.10726004745E+02 -0.44991415497E+02 -0.16039223520E+02  0.48954380165E+02  0.00000000000E+00 0. -1.
         -4    1    6    6    0  503  0.13493554398E+03 -0.35630518337E+03 -0.28758788027E+03  0.47735497652E+03  0.00000000000E+00 0.  1.
<mgrwt>
<rscale>  0 0.15951512E+04</rscale>
<asrwt>0</asrwt>
<pdfrwt beam="1">  1        2 0.10924291E+00 0.15951512E+04</pdfrwt>
<pdfrwt beam="2">  1       -1 0.13782365E+00 0.15951512E+04</pdfrwt>
<totfact> 0.19250563E+01</totfact>
</mgrwt>
</event>
<event>
12    6  0.9491186E-008  0.2885439E+04  0.7818608E-02  0.8277223E-01
         -1   -1    0    0    0  501 -0.00000000000E+00  0.00000000000E+00  0.93671217411E+03  0.93671217411E+03  0.00000000000E+00 0.  1.
          2   -1    0    0  501    0  0.00000000000E+00 -0.00000000000E+00 -0.22220696071E+04  0.22220696071E+04  0.00000000000E+00 0. -1.
         24    2    1    2    0    0 -0.64415659974E+03  0.11133448808E+04 -0.74276947657E+03  0.14876136422E+04  0.82542744108E+02 0.  0.
        254    2    1    2    0    0  0.64415659974E+03 -0.11133448808E+04 -0.54258795644E+03  0.16711681390E+04  0.91865483723E+03 0.  0.
         23    2    4    4    0    0  0.13428054876E+03  0.13833422321E+03 -0.14468307484E+03  0.25918883541E+03  0.95278734072E+02 0.  0.
         23    2    4    4    0    0  0.50987605098E+03 -0.12516791040E+04 -0.39790488159E+03  0.14119793036E+04  0.93183112251E+02 0.  0.
          2    1    3    3  502    0 -0.96995779166E+02  0.22514852180E+03 -0.15860936981E+03  0.29198796249E+03  0.00000000000E+00 0. -1.
         -1    1    3    3    0  502 -0.54716082057E+03  0.88819635896E+03 -0.58416010676E+03  0.11956256797E+04  0.00000000000E+00 0.  1.
         11    1    5    5    0    0  0.46172746200E+02  0.64930083269E+02 -0.69674715298E+01  0.79977395959E+02  0.00000000000E+00 0.  1.
        -11    1    5    5    0    0  0.88107802559E+02  0.73404139944E+02 -0.13771560331E+03  0.17921143945E+03  0.00000000000E+00 0. -1.
          2    1    6    6  503    0  0.47901215011E+02 -0.20629715399E+03 -0.57480210511E+02  0.21944707048E+03  0.00000000000E+00 0.  1.
         -2    1    6    6    0  503  0.46197483597E+03 -0.10453819500E+04 -0.34042467108E+03  0.11925322332E+04  0.00000000000E+00 0. -1.
<mgrwt>
<rscale>  0 0.28854391E+04</rscale>
<asrwt>0</asrwt>
<pdfrwt beam="1">  1        2 0.34185686E+00 0.28854391E+04</pdfrwt>
<pdfrwt beam="2">  1       -1 0.14410957E+00 0.28854391E+04</pdfrwt>
<totfact> 0.19148380E+00</totfact>
</mgrwt>
</event>
<event>
12    6  0.9491186E-008  0.2479857E+04  0.7818608E-02  0.8410197E-01
          2   -1    0    0  501    0  0.00000000000E+00  0.00000000000E+00  0.26496671218E+04  0.26496671218E+04  0.00000000000E+00 0. -1.
         -1   -1    0    0    0  501 -0.00000000000E+00 -0.00000000000E+00 -0.58023218446E+03  0.58023218446E+03  0.00000000000E+00 0.  1.
         24    2    1    2    0    0 -0.10313128539E+04 -0.32162850072E+03  0.89846003905E+03  0.14073295520E+04  0.79340601779E+02 0.  0.
        254    2    1    2    0    0  0.10313128539E+04  0.32162850072E+03  0.11709748983E+04  0.18225697543E+04  0.88517071897E+03 0.  0.
         23    2    4    4    0    0  0.78460752024E+02  0.23262758498E+03  0.71016248448E+03  0.75649566985E+03  0.87654214017E+02 0.  0.
         23    2    4    4    0    0  0.95285210185E+03  0.89000915741E+02  0.46081241379E+03  0.10660740844E+04  0.91200777113E+02 0.  0.
          4    1    3    3  502    0 -0.67030988192E+03 -0.22134002963E+03  0.63290693237E+03  0.94809173162E+03  0.00000000000E+00 0. -1.
         -3    1    3    3    0  502 -0.36100297195E+03 -0.10028847109E+03  0.26555310667E+03  0.45923782037E+03  0.00000000000E+00 0.  1.
         11    1    5    5    0    0  0.32007009017E+02  0.80522461891E+02  0.38359320142E+03  0.39325826078E+03  0.00000000000E+00 0. -1.
        -11    1    5    5    0    0  0.46453743007E+02  0.15210512309E+03  0.32656928306E+03  0.36323740907E+03  0.00000000000E+00 0.  1.
          1    1    6    6  503    0  0.19618453494E+02  0.12708479800E+02  0.22904091208E+01  0.23486914447E+02  0.00000000000E+00 0. -1.
         -1    1    6    6    0  503  0.93323364835E+03  0.76292435941E+02  0.45852200467E+03  0.10425871700E+04  0.00000000000E+00 0.  1.
<mgrwt>
<rscale>  0 0.24798566E+04</rscale>
<asrwt>0</asrwt>
<pdfrwt beam="1">  1        2 0.40764109E+00 0.24798566E+04</pdfrwt>
<pdfrwt beam="2">  1       -1 0.89266491E-01 0.24798566E+04</pdfrwt>
<totfact> 0.35547175E+00</totfact>
</mgrwt>
</event>
<event>
12    6  0.9491186E-008  0.1133164E+04  0.7818608E-02  0.9173458E-01
         -1   -1    0    0    0  501 -0.00000000000E+00  0.00000000000E+00  0.22701155170E+03  0.22701155170E+03  0.00000000000E+00 0.  1.
          2   -1    0    0  501    0  0.00000000000E+00 -0.00000000000E+00 -0.14140907365E+04  0.14140907365E+04  0.00000000000E+00 0. -1.
         24    2    1    2    0    0 -0.27958083655E+02  0.11363610786E+03 -0.33042789258E+03  0.35991096276E+03  0.81599567844E+02 0.  0.
        254    2    1    2    0    0  0.27958083655E+02 -0.11363610786E+03 -0.85665129225E+03  0.12811913255E+04  0.94546547080E+03 0.  0.
         23    2    4    4    0    0  0.45852271233E+03 -0.45370369487E+02 -0.61741330464E+03  0.77586335951E+03  0.91995737505E+02 0.  0.
         23    2    4    4    0    0 -0.43056462868E+03 -0.68265738374E+02 -0.23923798760E+03  0.50532796596E+03  0.89863384986E+02 0.  0.
          2    1    3    3  502    0 -0.19306715534E+02  0.12245659686E+03 -0.32176807282E+03  0.34482323017E+03  0.00000000000E+00 0. -1.
         -1    1    3    3    0  502 -0.86513681212E+01 -0.88204889977E+01 -0.86598197556E+01  0.15087732591E+02  0.00000000000E+00 0.  1.
         11    1    5    5    0    0  0.75920406037E+02 -0.42741939469E+02 -0.10780726670E+03  0.13861164524E+03  0.00000000000E+00 0.  1.
        -11    1    5    5    0    0  0.38260230630E+03 -0.26284300187E+01 -0.50960603794E+03  0.63725171427E+03  0.00000000000E+00 0. -1.
          3    1    6    6  503    0 -0.40498696777E+03 -0.77264208775E+02 -0.20160141001E+03  0.45894153281E+03  0.00000000000E+00 0. -1.
         -3    1    6    6    0  503 -0.25577660907E+02  0.89984704010E+01 -0.37636577591E+02  0.46386433144E+02  0.00000000000E+00 0.  1.
<mgrwt>
<rscale>  0 0.11331636E+04</rscale>
<asrwt>0</asrwt>
<pdfrwt beam="1">  1        2 0.21755242E+00 0.11331636E+04</pdfrwt>
<pdfrwt beam="2">  1       -1 0.34924855E-01 0.11331636E+04</pdfrwt>
<totfact> 0.12484322E+02</totfact>
</mgrwt>
</event>
<event>
12    6  0.9491186E-008  0.1433723E+04  0.7818608E-02  0.8929764E-01
          2   -1    0    0  501    0  0.00000000000E+00  0.00000000000E+00  0.13122043657E+04  0.13122043657E+04  0.00000000000E+00 0. -1.
         -1   -1    0    0    0  501 -0.00000000000E+00 -0.00000000000E+00 -0.39162359252E+03  0.39162359252E+03  0.00000000000E+00 0.  1.
         24    2    1    2    0    0  0.13127916252E+02 -0.20246099808E+03  0.74557470299E+03  0.77692433584E+03  0.81036954187E+02 0.  0.
        254    2    1    2    0    0 -0.13127916252E+02  0.20246099808E+03  0.17500607013E+03  0.92690362234E+03  0.88733330975E+03 0.  0.
         23    2    4    4    0    0 -0.30240296300E+03 -0.16355892869E+03  0.26477163356E+03  0.44345743539E+03  0.91386015778E+02 0.  0.
         23    2    4    4    0    0  0.28927504675E+03  0.36601992677E+03 -0.89765563431E+02  0.48344618694E+03  0.89508210944E+02 0.  0.
          2    1    3    3  502    0 -0.15678271855E+02 -0.16782194006E+03  0.51156706235E+03  0.53861941207E+03  0.00000000000E+00 0. -1.
         -1    1    3    3    0  502  0.28806188106E+02 -0.34639058019E+02  0.23400764064E+03  0.23830492377E+03  0.00000000000E+00 0.  1.
         11    1    5    5    0    0 -0.24864631431E+03 -0.89577709002E+02  0.19667869782E+03  0.32944144510E+03  0.00000000000E+00 0.  1.
        -11    1    5    5    0    0 -0.53756648685E+02 -0.73981219691E+02  0.68092935741E+02  0.11401599029E+03  0.00000000000E+00 0. -1.
          2    1    6    6  503    0  0.27996279551E+03  0.30788080457E+03 -0.77087037724E+02  0.42321645535E+03  0.00000000000E+00 0.  1.
         -2    1    6    6    0  503  0.93122512348E+01  0.58139122207E+02 -0.12678525707E+02  0.60229731597E+02  0.00000000000E+00 0. -1.
<mgrwt>
<rscale>  0 0.14337227E+04</rscale>
<asrwt>0</asrwt>
<pdfrwt beam="1">  1        2 0.20187759E+00 0.14337227E+04</pdfrwt>
<pdfrwt beam="2">  1       -1 0.60249784E-01 0.14337227E+04</pdfrwt>
<totfact> 0.50277003E+01</totfact>
</mgrwt>
</event>
<event>
12    6  0.9491186E-008  0.1382363E+04  0.7818608E-02  0.8966685E-01
          2   -1    0    0  501    0  0.00000000000E+00  0.00000000000E+00  0.21712980380E+04  0.21712980380E+04  0.00000000000E+00 0. -1.
         -1   -1    0    0    0  501 -0.00000000000E+00 -0.00000000000E+00 -0.22002122495E+03  0.22002122495E+03  0.00000000000E+00 0.  1.
         24    2    1    2    0    0  0.34293909370E+03 -0.90408806366E+01  0.26863714188E+03  0.44362432639E+03  0.83352681171E+02 0.  0.
        254    2    1    2    0    0 -0.34293909370E+03  0.90408806366E+01  0.16826396712E+04  0.19476949366E+04  0.91899420204E+03 0.  0.
         23    2    4    4    0    0  0.19802689145E+03  0.15378651240E+03  0.11087286242E+04  0.11406333643E+04  0.94341765383E+02 0.  0.
         23    2    4    4    0    0 -0.54096598515E+03 -0.14474563176E+03  0.57391104703E+03  0.80706157222E+03  0.91536858480E+02 0.  0.
          2    1    3    3  502    0  0.38192051886E+02 -0.15674068491E+02  0.69083120060E+01  0.41857305517E+02  0.00000000000E+00 0. -1.
         -1    1    3    3    0  502  0.30474704181E+03  0.66331878543E+01  0.26172882987E+03  0.40176702087E+03  0.00000000000E+00 0.  1.
         11    1    5    5    0    0  0.57926572649E+02  0.58504525860E+02  0.56929040123E+03  0.57521285477E+03  0.00000000000E+00 0.  1.
        -11    1    5    5    0    0  0.14010031880E+03  0.95281986540E+02  0.53943822293E+03  0.56542050958E+03  0.00000000000E+00 0. -1.
          4    1    6    6  503    0 -0.54345114689E+03 -0.14647784838E+03  0.57415755542E+03  0.80402226808E+03  0.00000000000E+00 0. -1.
         -4    1    6    6    0  503  0.24851617439E+01  0.17322166146E+01 -0.24650839270E+00  0.30393041442E+01  0.00000000000E+00 0.  1.
<mgrwt>
<rscale>  0 0.13823627E+04</rscale>
<asrwt>0</asrwt>
<pdfrwt beam="1">  1        2 0.33404584E+00 0.13823627E+04</pdfrwt>
<pdfrwt beam="2">  1       -1 0.33849421E-01 0.13823627E+04</pdfrwt>
<totfact> 0.49083600E+01</totfact>
</mgrwt>
</event>
<event>
12    6  0.9491186E-008  0.2589349E+04  0.7818608E-02  0.8371828E-01
          2   -1    0    0  501    0  0.00000000000E+00  0.00000000000E+00  0.10522893118E+04  0.10522893118E+04  0.00000000000E+00 0. -1.
         -1   -1    0    0    0  501 -0.00000000000E+00 -0.00000000000E+00 -0.15928903629E+04  0.15928903629E+04  0.00000000000E+00 0.  1.
         24    2    1    2    0    0  0.99692962058E+03 -0.17002626114E+03  0.29668439473E+03  0.10568463247E+04  0.78261907001E+02 0.  0.
        254    2    1    2    0    0 -0.99692962058E+03  0.17002626114E+03 -0.83728544587E+03  0.15883333500E+04  0.89385586926E+03 0.  0.
         23    2    4    4    0    0 -0.53117224608E+03  0.31462545670E+02 -0.93945613045E+03  0.10834748429E+04  0.90587346138E+02 0.  0.
         23    2    4    4    0    0 -0.46575737450E+03  0.13856371547E+03  0.10217068459E+03  0.50485850714E+03  0.91178003351E+02 0.  0.
          2    1    3    3  502    0  0.44349486730E+03 -0.88781159711E+02  0.94495778062E+02  0.46205978370E+03  0.00000000000E+00 0. -1.
         -1    1    3    3    0  502  0.55343475328E+03 -0.81245101430E+02  0.20218861667E+03  0.59478654100E+03  0.00000000000E+00 0.  1.
         11    1    5    5    0    0 -0.50271706329E+03  0.95833833742E+01 -0.85827016521E+03  0.99470797898E+03  0.00000000000E+00 0. -1.
        -11    1    5    5    0    0 -0.28455182787E+02  0.21879162296E+02 -0.81185965246E+02  0.88766863880E+02  0.00000000000E+00 0.  1.
          3    1    6    6  503    0 -0.33961544327E+03  0.14064263161E+03  0.64553175805E+02  0.37321054599E+03  0.00000000000E+00 0. -1.
         -3    1    6    6    0  503 -0.12614193124E+03 -0.20789161398E+01  0.37617508785E+02  0.13164796115E+03  0.00000000000E+00 0.  1.
<mgrwt>
<rscale>  0 0.25893486E+04</rscale>
<asrwt>0</asrwt>
<pdfrwt beam="1">  1        2 0.16189067E+00 0.25893486E+04</pdfrwt>
<pdfrwt beam="2">  1       -1 0.24506005E+00 0.25893486E+04</pdfrwt>
<totfact> 0.17683403E+00</totfact>
</mgrwt>
</event>
<event>
12    6  0.9491186E-008  0.1503911E+04  0.7818608E-02  0.8881856E-01
         -1   -1    0    0    0  501 -0.00000000000E+00  0.00000000000E+00  0.28032734525E+03  0.28032734525E+03  0.00000000000E+00 0.  1.
          2   -1    0    0  501    0  0.00000000000E+00 -0.00000000000E+00 -0.20170607097E+04  0.20170607097E+04  0.00000000000E+00 0. -1.
         24    2    1    2    0    0 -0.11778210401E+03 -0.23534461601E+03 -0.11719033260E+04  0.12028952166E+04  0.65877039772E+02 0.  0.
        254    2    1    2    0    0  0.11778210401E+03  0.23534461601E+03 -0.56483003849E+03  0.10944928384E+04  0.89978991355E+03 0.  0.
         23    2    4    4    0    0  0.20901519745E+03 -0.30317718753E+03 -0.27769231113E+03  0.47012429615E+03  0.91104743922E+02 0.  0.
         23    2    4    4    0    0 -0.91233093435E+02  0.53852180354E+03 -0.28713772736E+03  0.62436854221E+03  0.95177685428E+02 0.  0.
          4    1    3    3  502    0 -0.76087641016E+02 -0.15875431111E+03 -0.63480645790E+03  0.65876513220E+03  0.00000000000E+00 0. -1.
         -3    1    3    3    0  502 -0.41694462998E+02 -0.76590304901E+02 -0.53709686807E+03  0.54413008440E+03  0.00000000000E+00 0.  1.
         11    1    5    5    0    0  0.17774066809E+03 -0.19275369940E+03 -0.21671876677E+03  0.34016577958E+03  0.00000000000E+00 0.  1.
        -11    1    5    5    0    0  0.31274529357E+02 -0.11042348813E+03 -0.60973544359E+02  0.12995851657E+03  0.00000000000E+00 0. -1.
          3    1    6    6  503    0 -0.35329117325E+01  0.29238609633E+03 -0.16755286670E+03  0.33701049528E+03  0.00000000000E+00 0. -1.
         -3    1    6    6    0  503 -0.87700181703E+02  0.24613570721E+03 -0.11958486066E+03  0.28735804692E+03  0.00000000000E+00 0.  1.
<mgrwt>
<rscale>  0 0.15039113E+04</rscale>
<asrwt>0</asrwt>
<pdfrwt beam="1">  1        2 0.31031702E+00 0.15039113E+04</pdfrwt>
<pdfrwt beam="2">  1       -1 0.43127286E-01 0.15039113E+04</pdfrwt>
<totfact> 0.38141189E+01</totfact>
</mgrwt>
</event>
<event>
12    6  0.9491186E-008  0.2155446E+04  0.7818608E-02  0.8537205E-01
          2   -1    0    0  501    0  0.00000000000E+00  0.00000000000E+00  0.12029658389E+04  0.12029658389E+04  0.00000000000E+00 0. -1.
         -1   -1    0    0    0  501 -0.00000000000E+00 -0.00000000000E+00 -0.96551944589E+03  0.96551944589E+03  0.00000000000E+00 0.  1.
         24    2    1    2    0    0  0.27974017796E+03  0.24775977090E+03 -0.71155751650E+03  0.80827196041E+03  0.85732091223E+02 0.  0.
        254    2    1    2    0    0 -0.27974017796E+03 -0.24775977090E+03  0.94900390951E+03  0.13602133244E+04  0.89996244162E+03 0.  0.
         23    2    4    4    0    0  0.15668847864E+02 -0.44721904093E+03  0.87197726430E+03  0.98426280166E+03  0.90435225025E+02 0.  0.
         23    2    4    4    0    0 -0.29540902583E+03  0.19945927003E+03  0.77026645213E+02  0.37595052272E+03  0.91406775013E+02 0.  0.
          2    1    3    3  502    0  0.18126482352E+02  0.40186951596E+02 -0.13456018285E+03  0.14159803406E+03  0.00000000000E+00 0. -1.
         -1    1    3    3    0  502  0.26161369561E+03  0.20757281931E+03 -0.57699733365E+03  0.66667392635E+03  0.00000000000E+00 0.  1.
         11    1    5    5    0    0  0.24376555319E+02 -0.47830581359E+02  0.14718021202E+03  0.15666523473E+03  0.00000000000E+00 0. -1.
        -11    1    5    5    0    0 -0.87077074551E+01 -0.39938845957E+03  0.72479705227E+03  0.82759756693E+03  0.00000000000E+00 0.  1.
          4    1    6    6  503    0 -0.20060310980E+03  0.18317761558E+03  0.52517629469E+02  0.27668347966E+03  0.00000000000E+00 0.  1.
         -4    1    6    6    0  503 -0.94805916028E+02  0.16281654454E+02  0.24509015744E+02  0.99267043063E+02  0.00000000000E+00 0. -1.
<mgrwt>
<rscale>  0 0.21554460E+04</rscale>
<asrwt>0</asrwt>
<pdfrwt beam="1">  1        2 0.18507167E+00 0.21554460E+04</pdfrwt>
<pdfrwt beam="2">  1       -1 0.14854145E+00 0.21554460E+04</pdfrwt>
<totfact> 0.70672627E+00</totfact>
</mgrwt>
</event>
<event>
12    6  0.9491186E-008  0.1712109E+04  0.7818608E-02  0.8754488E-01
          2   -1    0    0  501    0  0.00000000000E+00  0.00000000000E+00  0.10218866040E+04  0.10218866040E+04  0.00000000000E+00 0. -1.
         -1   -1    0    0    0  501 -0.00000000000E+00 -0.00000000000E+00 -0.71713396754E+03  0.71713396754E+03  0.00000000000E+00 0.  1.
         24    2    1    2    0    0 -0.42244549296E+03 -0.47180612620E+02 -0.34233899501E+03  0.55105071183E+03  0.75991412477E+02 0.  0.
        254    2    1    2    0    0  0.42244549296E+03  0.47180612620E+02  0.64709163150E+03  0.11879698597E+04  0.90103196579E+03 0.  0.
         23    2    4    4    0    0  0.82324644624E+01 -0.12135017475E+03  0.71230869192E+03  0.72703434472E+03  0.80010170832E+02 0.  0.
         23    2    4    4    0    0  0.41421302849E+03  0.16853078737E+03 -0.65217060420E+02  0.46093551502E+03  0.90737119047E+02 0.  0.
          4    1    3    3  502    0 -0.57848583686E+02 -0.33245946860E+02 -0.46591820896E+02  0.81379047620E+02  0.00000000000E+00 0. -1.
         -1    1    3    3    0  502 -0.36459690927E+03 -0.13934665760E+02 -0.29574717412E+03  0.46967166421E+03  0.00000000000E+00 0.  1.
         11    1    5    5    0    0 -0.17502822419E+02 -0.13908701280E+02  0.41035262617E+02  0.46730006869E+02  0.00000000000E+00 0.  1.
        -11    1    5    5    0    0  0.25735286882E+02 -0.10744147347E+03  0.67127342931E+03  0.68030433785E+03  0.00000000000E+00 0. -1.
          1    1    6    6  503    0  0.38800487449E+03  0.15462177544E+03 -0.35891106759E+02  0.41921813846E+03  0.00000000000E+00 0. -1.
         -1    1    6    6    0  503  0.26208154003E+02  0.13909011932E+02 -0.29325953661E+02  0.41717376563E+02  0.00000000000E+00 0.  1.
<mgrwt>
<rscale>  0 0.17121093E+04</rscale>
<asrwt>0</asrwt>
<pdfrwt beam="1">  1        2 0.15721332E+00 0.17121093E+04</pdfrwt>
<pdfrwt beam="2">  1       -1 0.11032830E+00 0.17121093E+04</pdfrwt>
<totfact> 0.20047583E+01</totfact>
</mgrwt>
</event>
<event>
12    6  0.9491186E-008  0.2853712E+04  0.7818608E-02  0.8286784E-01
         -1   -1    0    0    0  501 -0.00000000000E+00  0.00000000000E+00  0.22889704494E+04  0.22889704494E+04  0.00000000000E+00 0.  1.
          2   -1    0    0  501    0  0.00000000000E+00 -0.00000000000E+00 -0.88944682863E+03  0.88944682863E+03  0.00000000000E+00 0. -1.
         24    2    1    2    0    0  0.73099015168E+03 -0.31719854035E+03  0.17456638699E+04  0.19204307787E+04  0.75832137987E+02 0.  0.
        254    2    1    2    0    0 -0.73099015168E+03  0.31719854035E+03 -0.34614024913E+03  0.12579864994E+04  0.90981066418E+03 0.  0.
         23    2    4    4    0    0 -0.77508721496E+02 -0.16999698620E+03  0.18659511331E+03  0.28004258326E+03  0.93271297316E+02 0.  0.
         23    2    4    4    0    0 -0.65348143018E+03  0.48719552655E+03 -0.53273536244E+03  0.97794391610E+03  0.90387366121E+02 0.  0.
          2    1    3    3  502    0  0.67683087992E+02 -0.80411417936E+01  0.16797498274E+03  0.18127673648E+03  0.00000000000E+00 0. -1.
         -1    1    3    3    0  502  0.66330706369E+03 -0.30915739855E+03  0.15776888872E+04  0.17391540422E+04  0.00000000000E+00 0.  1.
         11    1    5    5    0    0  0.14937748610E+02 -0.73776151840E+02  0.62903995256E+02  0.98096735588E+02  0.00000000000E+00 0. -1.
        -11    1    5    5    0    0 -0.92446470106E+02 -0.96220834364E+02  0.12369111805E+03  0.18194584767E+03  0.00000000000E+00 0.  1.
          1    1    6    6  503    0 -0.66575928081E+02  0.44220677769E+02 -0.22791163339E+02  0.83109925211E+02  0.00000000000E+00 0. -1.
         -1    1    6    6    0  503 -0.58690550210E+03  0.44297484878E+03 -0.50994419910E+03  0.89483399089E+03  0.00000000000E+00 0.  1.
<mgrwt>
<rscale>  0 0.28537116E+04</rscale>
<asrwt>0</asrwt>
<pdfrwt beam="1">  1        2 0.13683797E+00 0.28537116E+04</pdfrwt>
<pdfrwt beam="2">  1       -1 0.35214930E+00 0.28537116E+04</pdfrwt>
<totfact> 0.44257790E-01</totfact>
</mgrwt>
</event>
<event>
12    6  0.9491186E-008  0.1327722E+04  0.7818608E-02  0.9007866E-01
         -1   -1    0    0    0  501 -0.00000000000E+00  0.00000000000E+00  0.92902854931E+03  0.92902854931E+03  0.00000000000E+00 0.  1.
          2   -1    0    0  501    0  0.00000000000E+00 -0.00000000000E+00 -0.47437864202E+03  0.47437864202E+03  0.00000000000E+00 0. -1.
         24    2    1    2    0    0  0.62893588291E+02 -0.99649521743E+02  0.48059386889E+03  0.50138063721E+03  0.80786421668E+02 0.  0.
        254    2    1    2    0    0 -0.62893588291E+02  0.99649521743E+02 -0.25943961595E+02  0.90202655411E+03  0.89392012202E+03 0.  0.
         23    2    4    4    0    0  0.10159698112E+03  0.46055193718E+03 -0.89179418024E+02  0.48992139412E+03  0.98183350926E+02 0.  0.
         23    2    4    4    0    0 -0.16449056941E+03 -0.36090241544E+03  0.63235456429E+02  0.41210516000E+03  0.92326805699E+02 0.  0.
          2    1    3    3  502    0 -0.59888743605E+01 -0.87083194196E+00  0.13988384432E+03  0.14001469518E+03  0.00000000000E+00 0. -1.
         -1    1    3    3    0  502  0.68882462651E+02 -0.98778689801E+02  0.34071002457E+03  0.36136594204E+03  0.00000000000E+00 0.  1.
         11    1    5    5    0    0  0.49899763858E+02  0.38302670008E+03 -0.90528823981E+02  0.39673027030E+03  0.00000000000E+00 0.  1.
        -11    1    5    5    0    0  0.51697217263E+02  0.77525237108E+02  0.13494059564E+01  0.93191123814E+02  0.00000000000E+00 0. -1.
          1    1    6    6  503    0 -0.52276239737E+02 -0.50189250808E+02  0.35190610983E+02  0.80561437668E+02  0.00000000000E+00 0. -1.
         -1    1    6    6    0  503 -0.11221432968E+03 -0.31071316463E+03  0.28044845446E+02  0.33154372233E+03  0.00000000000E+00 0.  1.
<mgrwt>
<rscale>  0 0.13277218E+04</rscale>
<asrwt>0</asrwt>
<pdfrwt beam="1">  1        2 0.72981329E-01 0.13277218E+04</pdfrwt>
<pdfrwt beam="2">  1       -1 0.14292747E+00 0.13277218E+04</pdfrwt>
<totfact> 0.29074753E+01</totfact>
</mgrwt>
</event>
<event>
12    6  0.9491186E-008  0.1430547E+04  0.7818608E-02  0.8931999E-01
         -1   -1    0    0    0  501 -0.00000000000E+00  0.00000000000E+00  0.11220101737E+04  0.11220101737E+04  0.00000000000E+00 0.  1.
          2   -1    0    0  501    0  0.00000000000E+00 -0.00000000000E+00 -0.45598184143E+03  0.45598184143E+03  0.00000000000E+00 0. -1.
         24    2    1    2    0    0  0.38994089572E+03  0.13272556278E+03  0.15029779964E+03  0.44539859085E+03  0.78233617996E+02 0.  0.
        254    2    1    2    0    0 -0.38994089572E+03 -0.13272556278E+03  0.51573053260E+03  0.11325934242E+04  0.92039116968E+03 0.  0.
         23    2    4    4    0    0 -0.56998369953E+03 -0.25297077505E+02  0.64803104421E+03  0.86930086056E+03  0.10108606258E+03 0.  0.
         23    2    4    4    0    0  0.18004280381E+03 -0.10742848528E+03 -0.13230051161E+03  0.26329256368E+03  0.88675013769E+02 0.  0.
          4    1    3    3  502    0  0.37565778442E+03  0.13511733575E+03  0.15757440323E+03  0.42919128366E+03  0.00000000000E+00 0. -1.
         -3    1    3    3    0  502  0.14283111306E+02 -0.23917729717E+01 -0.72766035984E+01  0.16207307193E+02  0.00000000000E+00 0.  1.
         11    1    5    5    0    0 -0.54535639458E+03 -0.42921675626E+02  0.62867444991E+03  0.83335912506E+03  0.00000000000E+00 0. -1.
        -11    1    5    5    0    0 -0.24627304951E+02  0.17624598121E+02  0.19356594307E+02  0.35941735507E+02  0.00000000000E+00 0.  1.
          3    1    6    6  503    0  0.16578996374E+03 -0.57376797891E+02 -0.10612806947E+03  0.20504042563E+03  0.00000000000E+00 0. -1.
         -3    1    6    6    0  503  0.14252840067E+02 -0.50051687385E+02 -0.26172442141E+02  0.58252138053E+02  0.00000000000E+00 0.  1.
<mgrwt>
<rscale>  0 0.14305471E+04</rscale>
<asrwt>0</asrwt>
<pdfrwt beam="1">  1        2 0.70151053E-01 0.14305471E+04</pdfrwt>
<pdfrwt beam="2">  1       -1 0.17261695E+00 0.14305471E+04</pdfrwt>
<totfact> 0.17911410E+01</totfact>
</mgrwt>
</event>
<event>
12    6  0.9491186E-008  0.1940483E+04  0.7818608E-02  0.8634964E-01
         -1   -1    0    0    0  501 -0.00000000000E+00  0.00000000000E+00  0.76720914217E+03  0.76720914217E+03  0.00000000000E+00 0.  1.
          2   -1    0    0  501    0  0.00000000000E+00 -0.00000000000E+00 -0.12270035077E+04  0.12270035077E+04  0.00000000000E+00 0. -1.
         24    2    1    2    0    0 -0.55905868353E+03 -0.43896033798E+03  0.11681353947E+03  0.72502454970E+03  0.82355356348E+02 0.  0.
        254    2    1    2    0    0  0.55905868353E+03  0.43896033798E+03 -0.57660790502E+03  0.12691881002E+04  0.87927752593E+03 0.  0.
         23    2    4    4    0    0 -0.37700683915E+02 -0.79492764454E+02 -0.44411958562E+03  0.46246348105E+03  0.94285862204E+02 0.  0.
         23    2    4    4    0    0  0.59675936745E+03  0.51845310243E+03 -0.13248831941E+03  0.80672461914E+03  0.91302214094E+02 0.  0.
          2    1    3    3  502    0 -0.35490633567E+02 -0.36779137423E+02  0.29651114230E+02  0.59088734930E+02  0.00000000000E+00 0. -1.
         -1    1    3    3    0  502 -0.52356804996E+03 -0.40218120055E+03  0.87162425235E+02  0.66593581477E+03  0.00000000000E+00 0.  1.
         11    1    5    5    0    0  0.95491254524E+01 -0.75158055412E+02 -0.33524131632E+03  0.34369559098E+03  0.00000000000E+00 0.  1.
        -11    1    5    5    0    0 -0.47249809368E+02 -0.43347090424E+01 -0.10887826929E+03  0.11876789007E+03  0.00000000000E+00 0. -1.
          2    1    6    6  503    0  0.39656540849E+02  0.23901302956E+02 -0.28974425124E+02  0.54620791155E+02  0.00000000000E+00 0. -1.
         -2    1    6    6    0  503  0.55710282660E+03  0.49455179947E+03 -0.10351389428E+03  0.75210382799E+03  0.00000000000E+00 0.  1.
<mgrwt>
<rscale>  0 0.19404827E+04</rscale>
<asrwt>0</asrwt>
<pdfrwt beam="1">  1        2 0.18876977E+00 0.19404827E+04</pdfrwt>
<pdfrwt beam="2">  1       -1 0.11803218E+00 0.19404827E+04</pdfrwt>
<totfact> 0.12523091E+01</totfact>
</mgrwt>
</event>
<event>
12    6  0.9491186E-008  0.1363884E+04  0.7818608E-02  0.8980384E-01
          2   -1    0    0  501    0  0.00000000000E+00  0.00000000000E+00  0.59266732723E+03  0.59266732723E+03  0.00000000000E+00 0. -1.
         -1   -1    0    0    0  501 -0.00000000000E+00 -0.00000000000E+00 -0.78466396735E+03  0.78466396735E+03  0.00000000000E+00 0.  1.
         24    2    1    2    0    0  0.82274371231E+02 -0.28654606463E+03 -0.29169804551E+03  0.42486787434E+03  0.80915026923E+02 0.  0.
        254    2    1    2    0    0 -0.82274371231E+02  0.28654606463E+03  0.99701405385E+02  0.95246342024E+03  0.89909314165E+03 0.  0.
         23    2    4    4    0    0 -0.42993281125E+03  0.34384491198E+03  0.16701304855E+03  0.58246223789E+03  0.91089815566E+02 0.  0.
         23    2    4    4    0    0  0.34765844002E+03 -0.57298847352E+02 -0.67311643165E+02  0.37000118235E+03  0.90666801025E+02 0.  0.
          2    1    3    3  502    0 -0.70329193486E+01  0.50613284805E+00 -0.13698112055E+02  0.15406375268E+02  0.00000000000E+00 0. -1.
         -1    1    3    3    0  502  0.89307290579E+02 -0.28705219748E+03 -0.27799993345E+03  0.40946149907E+03  0.00000000000E+00 0.  1.
         11    1    5    5    0    0 -0.14105437076E+03  0.12773581124E+03  0.10191001618E+03  0.21586668197E+03  0.00000000000E+00 0. -1.
        -11    1    5    5    0    0 -0.28887844049E+03  0.21610910074E+03  0.65103032367E+02  0.36659555593E+03  0.00000000000E+00 0.  1.
          3    1    6    6  503    0  0.27017671808E+03 -0.39883099228E+02 -0.89755851906E+02  0.28747562253E+03  0.00000000000E+00 0. -1.
         -3    1    6    6    0  503  0.77481721944E+02 -0.17415748125E+02  0.22444208741E+02  0.82525559824E+02  0.00000000000E+00 0.  1.
<mgrwt>
<rscale>  0 0.13638837E+04</rscale>
<asrwt>0</asrwt>
<pdfrwt beam="1">  1        2 0.91179589E-01 0.13638837E+04</pdfrwt>
<pdfrwt beam="2">  1       -1 0.12071753E+00 0.13638837E+04</pdfrwt>
<totfact> 0.34261943E+01</totfact>
</mgrwt>
</event>
<event>
12    6  0.9491186E-008  0.2429313E+04  0.7818608E-02  0.8428610E-01
          2   -1    0    0  501    0  0.00000000000E+00  0.00000000000E+00  0.11408573463E+04  0.11408573463E+04  0.00000000000E+00 0. -1.
         -1   -1    0    0    0  501 -0.00000000000E+00 -0.00000000000E+00 -0.12932299629E+04  0.12932299629E+04  0.00000000000E+00 0.  1.
         24    2    1    2    0    0 -0.10054328462E+03 -0.14945955154E+03  0.96809700983E+03  0.98812099820E+03  0.82001079310E+02 0.  0.
        254    2    1    2    0    0  0.10054328462E+03  0.14945955154E+03 -0.11204696265E+04  0.14459663110E+04  0.89605763148E+03 0.  0.
         23    2    4    4    0    0  0.46100621231E+03  0.10749568346E+03 -0.87111064307E+03  0.99664789889E+03  0.10193739325E+03 0.  0.
         23    2    4    4    0    0 -0.36046292768E+03  0.41963868081E+02 -0.24935898341E+03  0.44931841207E+03  0.89513375302E+02 0.  0.
          2    1    3    3  502    0 -0.81610081070E+02 -0.83118382278E+02  0.76027807595E+03  0.76914993569E+03  0.00000000000E+00 0. -1.
         -1    1    3    3    0  502 -0.18933203554E+02 -0.66341169262E+02  0.20781893388E+03  0.21897106250E+03  0.00000000000E+00 0.  1.
         11    1    5    5    0    0  0.42480161750E+03  0.11329424824E+03 -0.74238475216E+03  0.86280190145E+03  0.00000000000E+00 0. -1.
        -11    1    5    5    0    0  0.36204594808E+02 -0.57985647805E+01 -0.12872589091E+03  0.13384599744E+03  0.00000000000E+00 0.  1.
          3    1    6    6  503    0 -0.18034620410E+03  0.15348913593E+02 -0.17770962872E+03  0.25365538555E+03  0.00000000000E+00 0. -1.
         -3    1    6    6    0  503 -0.18011672358E+03  0.26614954488E+02 -0.71649354690E+02  0.19566302651E+03  0.00000000000E+00 0.  1.
<mgrwt>
<rscale>  0 0.24293134E+04</rscale>
<asrwt>0</asrwt>
<pdfrwt beam="1">  1        2 0.17551652E+00 0.24293134E+04</pdfrwt>
<pdfrwt beam="2">  1       -1 0.19895846E+00 0.24293134E+04</pdfrwt>
<totfact> 0.32177049E+00</totfact>
</mgrwt>
</event>
<event>
12    6  0.9491186E-008  0.1537984E+04  0.7818608E-02  0.8859580E-01
         -1   -1    0    0    0  501 -0.00000000000E+00  0.00000000000E+00  0.45849905932E+03  0.45849905932E+03  0.00000000000E+00 0.  1.
          2   -1    0    0  501    0  0.00000000000E+00 -0.00000000000E+00 -0.12897490013E+04  0.12897490013E+04  0.00000000000E+00 0. -1.
         24    2    1    2    0    0 -0.36911859205E+03  0.43993650232E+02 -0.65550494205E+03  0.75786541572E+03  0.80556086308E+02 0.  0.
        254    2    1    2    0    0  0.36911859205E+03 -0.43993650232E+02 -0.17574499992E+03  0.99038264489E+03  0.90099250943E+03 0.  0.
         23    2    4    4    0    0 -0.86846389477E+02 -0.13938790525E+02 -0.43783198366E+03  0.45579422875E+03  0.91186335598E+02 0.  0.
         23    2    4    4    0    0  0.45596498153E+03 -0.30054859707E+02  0.26208698374E+03  0.53458841614E+03  0.91037512357E+02 0.  0.
          2    1    3    3  502    0 -0.27675947767E+03  0.67675137146E+02 -0.48356332080E+03  0.56125681990E+03  0.00000000000E+00 0. -1.
         -1    1    3    3    0  502 -0.92359114381E+02 -0.23681486914E+02 -0.17194162125E+03  0.19660859582E+03  0.00000000000E+00 0.  1.
         11    1    5    5    0    0  0.18294718041E+02 -0.85170954904E+01 -0.49798465254E+02  0.53731971539E+02  0.00000000000E+00 0.  1.
        -11    1    5    5    0    0 -0.10514110752E+03 -0.54216950345E+01 -0.38803351841E+03  0.40206225721E+03  0.00000000000E+00 0. -1.
          1    1    6    6  503    0  0.42487447794E+03 -0.38674540784E+02  0.21563091028E+03  0.47802796108E+03  0.00000000000E+00 0. -1.
         -1    1    6    6    0  503  0.31090503589E+02  0.86196810777E+01  0.46456073459E+02  0.56560455059E+02  0.00000000000E+00 0.  1.
<mgrwt>
<rscale>  0 0.15379840E+04</rscale>
<asrwt>0</asrwt>
<pdfrwt beam="1">  1        2 0.19842292E+00 0.15379840E+04</pdfrwt>
<pdfrwt beam="2">  1       -1 0.70538317E-01 0.15379840E+04</pdfrwt>
<totfact> 0.37389342E+01</totfact>
</mgrwt>
</event>
<event>
12    6  0.9491186E-008  0.2010528E+04  0.7818608E-02  0.8601714E-01
          2   -1    0    0  501    0  0.00000000000E+00  0.00000000000E+00  0.91114982199E+03  0.91114982199E+03  0.00000000000E+00 0. -1.
         -1   -1    0    0    0  501 -0.00000000000E+00 -0.00000000000E+00 -0.11090993057E+04  0.11090993057E+04  0.00000000000E+00 0.  1.
         24    2    1    2    0    0 -0.72856403146E+03 -0.35526710743E+03 -0.87907873025E+02  0.81909480653E+03  0.78538158762E+02 0.  0.
        254    2    1    2    0    0  0.72856403146E+03  0.35526710743E+03 -0.11004161070E+03  0.12011543212E+04  0.87956937283E+03 0.  0.
         23    2    4    4    0    0  0.81333271981E+03  0.28612479577E+03  0.17363224763E+03  0.88419375922E+03  0.90955673519E+02 0.  0.
         23    2    4    4    0    0 -0.84768688351E+02  0.69142311662E+02 -0.28367385833E+03  0.31696056196E+03  0.89592132192E+02 0.  0.
          4    1    3    3  502    0 -0.98051004489E+02 -0.32600037077E+02  0.11121548243E+02  0.10392521703E+03  0.00000000000E+00 0. -1.
         -3    1    3    3    0  502 -0.63051302697E+03 -0.32266707035E+03 -0.99029421268E+02  0.71516958950E+03  0.00000000000E+00 0.  1.
         11    1    5    5    0    0  0.43910007328E+03  0.18995194013E+03  0.12702027260E+03  0.49499976117E+03  0.00000000000E+00 0. -1.
        -11    1    5    5    0    0  0.37423264654E+03  0.96172855638E+02  0.46611975033E+02  0.38919399804E+03  0.00000000000E+00 0.  1.
          4    1    6    6  503    0 -0.34265305147E+02  0.72880651772E+02 -0.22747864269E+03  0.24131355830E+03  0.00000000000E+00 0. -1.
         -4    1    6    6    0  503 -0.50503383204E+02 -0.37383401099E+01 -0.56195215644E+02  0.75647003662E+02  0.00000000000E+00 0.  1.
<mgrwt>
<rscale>  0 0.20105279E+04</rscale>
<asrwt>0</asrwt>
<pdfrwt beam="1">  1        2 0.14017690E+00 0.20105279E+04</pdfrwt>
<pdfrwt beam="2">  1       -1 0.17063066E+00 0.20105279E+04</pdfrwt>
<totfact> 0.74301064E+00</totfact>
</mgrwt>
</event>
<event>
12    6  0.9491186E-008  0.1208815E+04  0.7818608E-02  0.9105175E-01
          2   -1    0    0  501    0  0.00000000000E+00  0.00000000000E+00  0.79908305261E+03  0.79908305261E+03  0.00000000000E+00 0. -1.
         -1   -1    0    0    0  501 -0.00000000000E+00 -0.00000000000E+00 -0.45715969347E+03  0.45715969347E+03  0.00000000000E+00 0.  1.
         24    2    1    2    0    0  0.58147204467E+02 -0.19887419903E+03  0.25486173248E+03  0.33761442396E+03  0.78082982498E+02 0.  0.
        254    2    1    2    0    0 -0.58147204467E+02  0.19887419903E+03  0.87061626665E+02  0.91862832212E+03  0.89071107714E+03 0.  0.
         23    2    4    4    0    0  0.21280244026E+03  0.41704133445E+03  0.23233869804E+03  0.53044850291E+03  0.90476463299E+02 0.  0.
         23    2    4    4    0    0 -0.27094964473E+03 -0.21816713542E+03 -0.14527707137E+03  0.38817981922E+03  0.92560983270E+02 0.  0.
          4    1    3    3  502    0  0.57736942920E+02 -0.18576696905E+03  0.25894875423E+03  0.32387864808E+03  0.00000000000E+00 0. -1.
         -3    1    3    3    0  502  0.41026154732E+00 -0.13107229976E+02 -0.40870217453E+01  0.13735775877E+02  0.00000000000E+00 0.  1.
         11    1    5    5    0    0  0.24068249772E+02  0.62536654385E+02  0.10934164383E+01  0.67017231726E+02  0.00000000000E+00 0. -1.
        -11    1    5    5    0    0  0.18873419049E+03  0.35450468006E+03  0.23124528160E+03  0.46343127118E+03  0.00000000000E+00 0.  1.
          2    1    6    6  503    0 -0.38495404457E+02 -0.80472472319E+02 -0.45767173005E+02  0.10026140379E+03  0.00000000000E+00 0. -1.
         -2    1    6    6    0  503 -0.23245424027E+03 -0.13769466310E+03 -0.99509898365E+02  0.28791841542E+03  0.00000000000E+00 0.  1.
<mgrwt>
<rscale>  0 0.12088152E+04</rscale>
<asrwt>0</asrwt>
<pdfrwt beam="1">  1        2 0.12293585E+00 0.12088152E+04</pdfrwt>
<pdfrwt beam="2">  1       -1 0.70332261E-01 0.12088152E+04</pdfrwt>
<totfact> 0.79385306E+01</totfact>
</mgrwt>
</event>
<event>
12    6  0.9491186E-008  0.3308328E+04  0.7818608E-02  0.8160780E-01
         -1   -1    0    0    0  501 -0.00000000000E+00  0.00000000000E+00  0.10219436521E+04  0.10219436521E+04  0.00000000000E+00 0.  1.
          2   -1    0    0  501    0  0.00000000000E+00 -0.00000000000E+00 -0.26775036692E+04  0.26775036692E+04  0.00000000000E+00 0. -1.
         24    2    1    2    0    0  0.44221809574E+03  0.62216571260E+03  0.71790325101E+03  0.10509889704E+04  0.80905623145E+02 0.  0.
        254    2    1    2    0    0 -0.44221809574E+03 -0.62216571260E+03 -0.23734632681E+04  0.26484583509E+04  0.89350810477E+03 0.  0.
         23    2    4    4    0    0 -0.30572392386E+03  0.14547930443E+03 -0.10762774632E+04  0.11322984260E+04  0.95368769396E+02 0.  0.
         23    2    4    4    0    0 -0.13649417189E+03 -0.76764501703E+03 -0.12971858050E+04  0.15161599249E+04  0.90224022303E+02 0.  0.
          2    1    3    3  502    0  0.19504044920E+03  0.21846152614E+03  0.30514665968E+03  0.42294290293E+03  0.00000000000E+00 0. -1.
         -1    1    3    3    0  502  0.24717764654E+03  0.40370418647E+03  0.41275659134E+03  0.62804606743E+03  0.00000000000E+00 0.  1.
         11    1    5    5    0    0 -0.21132469601E+03  0.14357600074E+03 -0.83474600293E+03  0.87296797452E+03  0.00000000000E+00 0.  1.
        -11    1    5    5    0    0 -0.94399227844E+02  0.19033036927E+01 -0.24153146025E+03  0.25933045149E+03  0.00000000000E+00 0. -1.
          1    1    6    6  503    0 -0.83436946677E+02 -0.43399533580E+03 -0.64851206344E+03  0.78478122556E+03  0.00000000000E+00 0. -1.
         -1    1    6    6    0  503 -0.53057225208E+02 -0.33364968124E+03 -0.64867374152E+03  0.73137869936E+03  0.00000000000E+00 0.  1.
<mgrwt>
<rscale>  0 0.33083276E+04</rscale>
<asrwt>0</asrwt>
<pdfrwt beam="1">  1        2 0.41192364E+00 0.33083276E+04</pdfrwt>
<pdfrwt beam="2">  1       -1 0.15722210E+00 0.33083276E+04</pdfrwt>
<totfact> 0.79657439E-01</totfact>
</mgrwt>
</event>
<event>
12    6  0.9491186E-008  0.1438433E+04  0.7818608E-02  0.8926459E-01
         -1   -1    0    0    0  501 -0.00000000000E+00  0.00000000000E+00  0.54304931267E+03  0.54304931267E+03  0.00000000000E+00 0.  1.
          2   -1    0    0  501    0  0.00000000000E+00 -0.00000000000E+00 -0.95253261720E+03  0.95253261720E+03  0.00000000000E+00 0. -1.
         24    2    1    2    0    0  0.22015228319E+03  0.53321353957E+02  0.26041500607E+03  0.35427496791E+03  0.79903585145E+02 0.  0.
        254    2    1    2    0    0 -0.22015228319E+03 -0.53321353957E+02 -0.66989831060E+03  0.11413069620E+04  0.89582790776E+03 0.  0.
         23    2    4    4    0    0  0.32199654117E+03 -0.13610317800E+02 -0.41683968122E+03  0.53475601205E+03  0.91332684745E+02 0.  0.
         23    2    4    4    0    0 -0.54214882436E+03 -0.39711036157E+02 -0.25305862938E+03  0.60655094992E+03  0.91449826650E+02 0.  0.
          2    1    3    3  502    0  0.14881239989E+03  0.33433052965E+02  0.11476336765E+03  0.19087569239E+03  0.00000000000E+00 0. -1.
         -3    1    3    3    0  502  0.71339883302E+02  0.19888300992E+02  0.14565163842E+03  0.16339927552E+03  0.00000000000E+00 0.  1.
         11    1    5    5    0    0  0.29519006336E+03 -0.26763608569E+02 -0.33324460385E+03  0.44598815034E+03  0.00000000000E+00 0.  1.
        -11    1    5    5    0    0  0.26806477810E+02  0.13153290769E+02 -0.83595077377E+02  0.88767861709E+02  0.00000000000E+00 0. -1.
          2    1    6    6  503    0 -0.19679992638E+03 -0.29214857376E+02 -0.47607874906E+02  0.20457328435E+03  0.00000000000E+00 0. -1.
         -2    1    6    6    0  503 -0.34534889798E+03 -0.10496178781E+02 -0.20545075447E+03  0.40197766557E+03  0.00000000000E+00 0.  1.
<mgrwt>
<rscale>  0 0.14384327E+04</rscale>
<asrwt>0</asrwt>
<pdfrwt beam="1">  1        2 0.14654348E+00 0.14384327E+04</pdfrwt>
<pdfrwt beam="2">  1       -1 0.83546050E-01 0.14384327E+04</pdfrwt>
<totfact> 0.42583838E+01</totfact>
</mgrwt>
</event>
<event>
12    6  0.9491186E-008  0.2083081E+04  0.7818608E-02  0.8568733E-01
          2   -1    0    0  501    0  0.00000000000E+00  0.00000000000E+00  0.11469597426E+04  0.11469597426E+04  0.00000000000E+00 0. -1.
         -1   -1    0    0    0  501 -0.00000000000E+00 -0.00000000000E+00 -0.94581045525E+03  0.94581045525E+03  0.00000000000E+00 0.  1.
         24    2    1    2    0    0 -0.43154084006E+03  0.70992933856E+03  0.24052050238E+03  0.86856013201E+03  0.79494832985E+02 0.  0.
        254    2    1    2    0    0  0.43154084006E+03 -0.70992933856E+03 -0.39371215044E+02  0.12242100658E+04  0.89828337973E+03 0.  0.
         23    2    4    4    0    0  0.38423160367E+03 -0.92470141442E+02 -0.34034613674E+03  0.52948091218E+03  0.91268237892E+02 0.  0.
         23    2    4    4    0    0  0.47309236392E+02 -0.61745919712E+03  0.30097492170E+03  0.69472915365E+03  0.92567107995E+02 0.  0.
          4    1    3    3  502    0 -0.77275528993E+02  0.11576763798E+03  0.10603984145E+02  0.13959261393E+03  0.00000000000E+00 0. -1.
         -3    1    3    3    0  502 -0.35426531107E+03  0.59416170058E+03  0.22991651824E+03  0.72896751808E+03  0.00000000000E+00 0.  1.
         11    1    5    5    0    0  0.40531871798E+02 -0.20975304709E+02 -0.81159335378E+02  0.93110868099E+02  0.00000000000E+00 0. -1.
        -11    1    5    5    0    0  0.34369973187E+03 -0.71494836732E+02 -0.25918680137E+03  0.43637004408E+03  0.00000000000E+00 0.  1.
          1    1    6    6  503    0  0.44387893285E+02 -0.11292672770E+03  0.50348615178E+02  0.13136861859E+03  0.00000000000E+00 0. -1.
         -1    1    6    6    0  503  0.29213431072E+01 -0.50453246942E+03  0.25062630652E+03  0.56336053506E+03  0.00000000000E+00 0.  1.
<mgrwt>
<rscale>  0 0.20830809E+04</rscale>
<asrwt>0</asrwt>
<pdfrwt beam="1">  1        2 0.17645535E+00 0.20830809E+04</pdfrwt>
<pdfrwt beam="2">  1       -1 0.14550930E+00 0.20830809E+04</pdfrwt>
<totfact> 0.81215356E+00</totfact>
</mgrwt>
</event>
<event>
12    6  0.9491186E-008  0.1629602E+04  0.7818608E-02  0.8802566E-01
         -1   -1    0    0    0  501 -0.00000000000E+00  0.00000000000E+00  0.45665873335E+03  0.45665873335E+03  0.00000000000E+00 0.  1.
          2   -1    0    0  501    0  0.00000000000E+00 -0.00000000000E+00 -0.14538231855E+04  0.14538231855E+04  0.00000000000E+00 0. -1.
         24    2    1    2    0    0  0.45696721644E+03  0.64527053692E+01 -0.71332022716E+03  0.85095597573E+03  0.80247441383E+02 0.  0.
        254    2    1    2    0    0 -0.45696721644E+03 -0.64527053692E+01 -0.28384422503E+03  0.10595259432E+04  0.91277982332E+03 0.  0.
         23    2    4    4    0    0 -0.61539362992E+03  0.26983587765E+03 -0.26467706387E+03  0.72770723626E+03  0.89348491615E+02 0.  0.
         23    2    4    4    0    0  0.15842641348E+03 -0.27628858302E+03 -0.19167161162E+02  0.33181870691E+03  0.91115117275E+02 0.  0.
          4    1    3    3  502    0  0.40528492739E+03  0.15848366052E+02 -0.58079273874E+03  0.70839766266E+03  0.00000000000E+00 0. -1.
         -3    1    3    3    0  502  0.51682289045E+02 -0.93956606824E+01 -0.13252748841E+03  0.14255831307E+03  0.00000000000E+00 0.  1.
         11    1    5    5    0    0 -0.54506178035E+03  0.20866338261E+03 -0.24169180548E+03  0.63170220870E+03  0.00000000000E+00 0.  1.
        -11    1    5    5    0    0 -0.70331849564E+02  0.61172495039E+02 -0.22985258386E+02  0.96005027554E+02  0.00000000000E+00 0. -1.
          1    1    6    6  503    0  0.18863924458E+02  0.14954125550E+01 -0.85501288251E+01  0.20765081449E+02  0.00000000000E+00 0. -1.
         -1    1    6    6    0  503  0.13956248902E+03 -0.27778399557E+03 -0.10617032337E+02  0.31105362546E+03  0.00000000000E+00 0.  1.
<mgrwt>
<rscale>  0 0.16296025E+04</rscale>
<asrwt>0</asrwt>
<pdfrwt beam="1">  1        2 0.22366510E+00 0.16296025E+04</pdfrwt>
<pdfrwt beam="2">  1       -1 0.70255191E-01 0.16296025E+04</pdfrwt>
<totfact> 0.30103645E+01</totfact>
</mgrwt>
</event>
<event>
12    6  0.9491186E-008  0.1443328E+04  0.7818608E-02  0.8923039E-01
         -1   -1    0    0    0  501 -0.00000000000E+00  0.00000000000E+00  0.64071275187E+03  0.64071275187E+03  0.00000000000E+00 0.  1.
          2   -1    0    0  501    0  0.00000000000E+00 -0.00000000000E+00 -0.81284347299E+03  0.81284347299E+03  0.00000000000E+00 0. -1.
         24    2    1    2    0    0 -0.29224565565E+02 -0.80837432931E+02 -0.48629213891E+03  0.50035763998E+03  0.80554067087E+02 0.  0.
        254    2    1    2    0    0  0.29224565565E+02  0.80837432931E+02  0.31416141779E+03  0.95319858489E+03  0.89582441361E+03 0.  0.
         23    2    4    4    0    0  0.32625530269E+03 -0.15437212008E+03  0.40817607596E+03  0.55251671100E+03  0.91617318015E+02 0.  0.
         23    2    4    4    0    0 -0.29703073713E+03  0.23520955301E+03 -0.94014658172E+02  0.40068187388E+03  0.90312875514E+02 0.  0.
          4    1    3    3  502    0 -0.41380658178E+02 -0.65456911613E+01 -0.19936621159E+03  0.20372062063E+03  0.00000000000E+00 0. -1.
         -3    1    3    3    0  502  0.12156092613E+02 -0.74291741770E+02 -0.28692592731E+03  0.29663701935E+03  0.00000000000E+00 0.  1.
         11    1    5    5    0    0  0.23713505371E+02 -0.35891831732E+01  0.19817460113E+01  0.24065325472E+02  0.00000000000E+00 0. -1.
        -11    1    5    5    0    0  0.30254179732E+03 -0.15078293690E+03  0.40619432995E+03  0.52845138553E+03  0.00000000000E+00 0.  1.
          2    1    6    6  503    0 -0.34139765745E+02 -0.21276446845E+01  0.13292886090E+00  0.34206258888E+02  0.00000000000E+00 0. -1.
         -2    1    6    6    0  503 -0.26289097138E+03  0.23733719769E+03 -0.94147587033E+02  0.36647561500E+03  0.00000000000E+00 0.  1.
<mgrwt>
<rscale>  0 0.14433283E+04</rscale>
<asrwt>0</asrwt>
<pdfrwt beam="1">  1        2 0.12505284E+00 0.14433283E+04</pdfrwt>
<pdfrwt beam="2">  1       -1 0.98571193E-01 0.14433283E+04</pdfrwt>
<totfact> 0.36804321E+01</totfact>
</mgrwt>
</event>
<event>
12    6  0.9491186E-008  0.2001258E+04  0.7818608E-02  0.8606033E-01
         -1   -1    0    0    0  501 -0.00000000000E+00  0.00000000000E+00  0.10246234943E+04  0.10246234943E+04  0.00000000000E+00 0.  1.
          2   -1    0    0  501    0  0.00000000000E+00 -0.00000000000E+00 -0.97719612198E+03  0.97719612198E+03  0.00000000000E+00 0. -1.
         24    2    1    2    0    0 -0.10418604242E+03 -0.80060491056E+03 -0.45394804043E+02  0.81265441321E+03  0.80768513913E+02 0.  0.
        254    2    1    2    0    0  0.10418604242E+03  0.80060491056E+03  0.92822176331E+02  0.11891652030E+04  0.86814455563E+03 0.  0.
         23    2    4    4    0    0  0.23701439336E+03  0.20961590341E+03  0.38825578037E+03  0.50853672574E+03  0.88047718997E+02 0.  0.
         23    2    4    4    0    0 -0.13282835094E+03  0.59098900715E+03 -0.29543360404E+03  0.68062847730E+03  0.95198384097E+02 0.  0.
          4    1    3    3  502    0 -0.48661878048E+02 -0.56390086855E+03 -0.39014288837E+01  0.56601006093E+03  0.00000000000E+00 0. -1.
         -3    1    3    3    0  502 -0.55524164374E+02 -0.23670404201E+03 -0.41493375160E+02  0.24664435229E+03  0.00000000000E+00 0.  1.
         11    1    5    5    0    0  0.22958737482E+03  0.21825146835E+03  0.37069093615E+03  0.48760212905E+03  0.00000000000E+00 0. -1.
        -11    1    5    5    0    0  0.74270185378E+01 -0.86355649407E+01  0.17564844218E+02  0.20934596691E+02  0.00000000000E+00 0.  1.
          1    1    6    6  503    0 -0.92400768377E+02  0.36084357954E+03 -0.23076277203E+03  0.43817513377E+03  0.00000000000E+00 0. -1.
         -1    1    6    6    0  503 -0.40427582559E+02  0.23014542760E+03 -0.64670832006E+02  0.24245334353E+03  0.00000000000E+00 0.  1.
<mgrwt>
<rscale>  0 0.20012577E+04</rscale>
<asrwt>0</asrwt>
<pdfrwt beam="1">  1        2 0.15033786E+00 0.20012577E+04</pdfrwt>
<pdfrwt beam="2">  1       -1 0.15763438E+00 0.20012577E+04</pdfrwt>
<totfact> 0.84123335E+00</totfact>
</mgrwt>
</event>
<event>
12    6  0.9491186E-008  0.2734456E+04  0.7818608E-02  0.8323911E-01
          2   -1    0    0  501    0  0.00000000000E+00  0.00000000000E+00  0.22226873027E+04  0.22226873027E+04  0.00000000000E+00 0. -1.
         -1   -1    0    0    0  501 -0.00000000000E+00 -0.00000000000E+00 -0.84101473134E+03  0.84101473134E+03  0.00000000000E+00 0.  1.
         24    2    1    2    0    0  0.11334579630E+04 -0.35437498283E+03  0.89125355869E+03  0.14870808285E+04  0.82267260891E+02 0.  0.
        254    2    1    2    0    0 -0.11334579630E+04  0.35437498283E+03  0.49041901263E+03  0.15766212055E+04  0.91373685232E+03 0.  0.
         23    2    4    4    0    0 -0.11453199003E+04  0.54451884059E+03  0.49595246925E+03  0.13648102479E+04  0.92085391012E+02 0.  0.
         23    2    4    4    0    0  0.11861937285E+02 -0.19014385777E+03 -0.55334566200E+01  0.21181095759E+03  0.92400597463E+02 0.  0.
          4    1    3    3  502    0  0.26188460260E+02 -0.57888228553E+01  0.67373561098E+01  0.27653894630E+02  0.00000000000E+00 0. -1.
         -3    1    3    3    0  502  0.11072695028E+04 -0.34858615997E+03  0.88451620258E+03  0.14594269339E+04  0.00000000000E+00 0.  1.
         11    1    5    5    0    0 -0.82249357274E+03  0.40692749115E+03  0.31677850580E+03  0.97079054486E+03  0.00000000000E+00 0.  1.
        -11    1    5    5    0    0 -0.32282632757E+03  0.13759134944E+03  0.17917396344E+03  0.39401970305E+03  0.00000000000E+00 0. -1.
          4    1    6    6  503    0 -0.55038928207E+01  0.56601088274E+01 -0.12873360763E+02  0.15101426603E+02  0.00000000000E+00 0. -1.
         -4    1    6    6    0  503  0.17365830106E+02 -0.19580396659E+03  0.73399041430E+01  0.19670953099E+03  0.00000000000E+00 0.  1.
<mgrwt>
<rscale>  0 0.27344563E+04</rscale>
<asrwt>0</asrwt>
<pdfrwt beam="1">  1        2 0.34195189E+00 0.27344563E+04</pdfrwt>
<pdfrwt beam="2">  1       -1 0.12938688E+00 0.27344563E+04</pdfrwt>
<totfact> 0.25600303E+00</totfact>
</mgrwt>
</event>
<event>
12    6  0.9491186E-008  0.6371862E+04  0.7818608E-02  0.7645931E-01
         -1   -1    0    0    0  501 -0.00000000000E+00  0.00000000000E+00  0.28076834021E+04  0.28076834021E+04  0.00000000000E+00 0.  1.
          2   -1    0    0  501    0  0.00000000000E+00 -0.00000000000E+00 -0.36151358733E+04  0.36151358733E+04  0.00000000000E+00 0. -1.
         24    2    1    2    0    0 -0.24604949784E+04 -0.78901262908E+03 -0.21615072717E+04  0.33697322764E+04  0.80034127764E+02 0.  0.
        254    2    1    2    0    0  0.24604949784E+04  0.78901262908E+03  0.13540548005E+04  0.30530869989E+04  0.90072157343E+03 0.  0.
         23    2    4    4    0    0  0.40670454173E+03  0.40217315399E+03  0.58882646283E+03  0.82563138156E+03  0.88310502421E+02 0.  0.
         23    2    4    4    0    0  0.20537904366E+04  0.38683947508E+03  0.76522833768E+03  0.22274556174E+04  0.91017478829E+02 0.  0.
          2    1    3    3  502    0 -0.22394787742E+04 -0.73965025653E+03 -0.19595023151E+04  0.30662676017E+04  0.00000000000E+00 0. -1.
         -1    1    3    3    0  502 -0.22101620412E+03 -0.49362372541E+02 -0.20200495664E+03  0.30346467474E+03  0.00000000000E+00 0.  1.
         11    1    5    5    0    0  0.32396653128E+03  0.30863586563E+03  0.50760098752E+03  0.67666030878E+03  0.00000000000E+00 0. -1.
        -11    1    5    5    0    0  0.82738010453E+02  0.93537288366E+02  0.81225475306E+02  0.14897107279E+03  0.00000000000E+00 0.  1.
          1    1    6    6  503    0  0.19714312157E+04  0.35775951328E+03  0.71976271340E+03  0.21289883211E+04  0.00000000000E+00 0. -1.
         -1    1    6    6    0  503  0.82359220894E+02  0.29079961806E+02  0.45465624272E+02  0.98467296274E+02  0.00000000000E+00 0.  1.
<mgrwt>
<rscale>  0 0.63718622E+04</rscale>
<asrwt>0</asrwt>
<pdfrwt beam="1">  1        2 0.55617475E+00 0.63718622E+04</pdfrwt>
<pdfrwt beam="2">  1       -1 0.43195129E+00 0.63718622E+04</pdfrwt>
<totfact> 0.21608471E-03</totfact>
</mgrwt>
</event>
<event>
12    6  0.9491186E-008  0.1268537E+04  0.7818608E-02  0.9054895E-01
          2   -1    0    0  501    0  0.00000000000E+00  0.00000000000E+00  0.14999931468E+04  0.14999931468E+04  0.00000000000E+00 0. -1.
         -1   -1    0    0    0  501 -0.00000000000E+00 -0.00000000000E+00 -0.26819889376E+03  0.26819889376E+03  0.00000000000E+00 0.  1.
         24    2    1    2    0    0 -0.29546450465E+02  0.24001096664E+03  0.44880868218E+02  0.25882334361E+03  0.80603808968E+02 0.  0.
        254    2    1    2    0    0  0.29546450465E+02 -0.24001096664E+03  0.11869133848E+04  0.15093686969E+04  0.90052885760E+03 0.  0.
         23    2    4    4    0    0 -0.22046378325E+03 -0.48677172704E+03  0.88355323853E+03  0.10365746040E+04  0.90937288681E+02 0.  0.
         23    2    4    4    0    0  0.25001023372E+03  0.24676076040E+03  0.30336014627E+03  0.47279409286E+03  0.90060457843E+02 0.  0.
          4    1    3    3  502    0 -0.16106470265E+02  0.86647229602E+02  0.56086400624E+02  0.10446456393E+03  0.00000000000E+00 0. -1.
         -3    1    3    3    0  502 -0.13439980200E+02  0.15336373704E+03 -0.11205532406E+02  0.15435877968E+03  0.00000000000E+00 0.  1.
         11    1    5    5    0    0 -0.77283637567E+01 -0.41183587091E+02  0.12164571601E+03  0.12866038892E+03  0.00000000000E+00 0.  1.
        -11    1    5    5    0    0 -0.21273541950E+03 -0.44558813995E+03  0.76190752251E+03  0.90791421513E+03  0.00000000000E+00 0. -1.
          1    1    6    6  503    0  0.16189096411E+03  0.16777628495E+03  0.25341372995E+03  0.34434878333E+03  0.00000000000E+00 0. -1.
         -1    1    6    6    0  503  0.88119269611E+02  0.78984475453E+02  0.49946416313E+02  0.12844530954E+03  0.00000000000E+00 0.  1.
<mgrwt>
<rscale>  0 0.12685370E+04</rscale>
<asrwt>0</asrwt>
<pdfrwt beam="1">  1        2 0.23076817E+00 0.12685370E+04</pdfrwt>
<pdfrwt beam="2">  1       -1 0.41261369E-01 0.12685370E+04</pdfrwt>
<totfact> 0.81708832E+01</totfact>
</mgrwt>
</event>
<event>
12    6  0.9491186E-008  0.3828710E+04  0.7818608E-02  0.8040022E-01
          2   -1    0    0  501    0  0.00000000000E+00  0.00000000000E+00  0.26069498473E+04  0.26069498473E+04  0.00000000000E+00 0. -1.
         -1   -1    0    0    0  501 -0.00000000000E+00 -0.00000000000E+00 -0.14057634867E+04  0.14057634867E+04  0.00000000000E+00 0.  1.
         24    2    1    2    0    0 -0.42953512905E+03  0.62929280654E+03 -0.11469249481E+04  0.13796339120E+04  0.86273002557E+02 0.  0.
        254    2    1    2    0    0  0.42953512905E+03 -0.62929280654E+03  0.23481113087E+04  0.26330794220E+04  0.91595341657E+03 0.  0.
         23    2    4    4    0    0  0.11900805693E+03 -0.13593164507E+03 -0.81824504750E+01  0.20391786202E+03  0.94208344697E+02 0.  0.
         23    2    4    4    0    0  0.31052707213E+03 -0.49336116147E+03  0.23562937591E+04  0.24291615600E+04  0.94198232679E+02 0.  0.
          4    1    3    3  502    0 -0.56400521212E+02  0.54978390710E+02 -0.16016442354E+03  0.17848328999E+03  0.00000000000E+00 0. -1.
         -3    1    3    3    0  502 -0.37313460784E+03  0.57431441583E+03 -0.98676052459E+03  0.12011506220E+04  0.00000000000E+00 0.  1.
         11    1    5    5    0    0  0.74660453461E+02 -0.80098650358E+02 -0.50950869406E+02  0.12077238175E+03  0.00000000000E+00 0. -1.
        -11    1    5    5    0    0  0.44347603465E+02 -0.55832994710E+02  0.42768418932E+02  0.83145480270E+02  0.00000000000E+00 0.  1.
          3    1    6    6  503    0  0.14869228488E+03 -0.15315989551E+03  0.81443936466E+03  0.84194942121E+03  0.00000000000E+00 0. -1.
         -3    1    6    6    0  503  0.16183478724E+03 -0.34020126597E+03  0.15418543945E+04  0.15872121388E+04  0.00000000000E+00 0.  1.
<mgrwt>
<rscale>  0 0.38287099E+04</rscale>
<asrwt>0</asrwt>
<pdfrwt beam="1">  1        2 0.40106921E+00 0.38287099E+04</pdfrwt>
<pdfrwt beam="2">  1       -1 0.21627130E+00 0.38287099E+04</pdfrwt>
<totfact> 0.31944658E-01</totfact>
</mgrwt>
</event>
<event>
12    6  0.9491186E-008  0.1426371E+04  0.7818608E-02  0.8934948E-01
         -1   -1    0    0    0  501 -0.00000000000E+00  0.00000000000E+00  0.20354759313E+03  0.20354759313E+03  0.00000000000E+00 0.  1.
          2   -1    0    0  501    0  0.00000000000E+00 -0.00000000000E+00 -0.24988431787E+04  0.24988431787E+04  0.00000000000E+00 0. -1.
         24    2    1    2    0    0  0.19808377823E+03  0.34838780474E+03 -0.44115531124E+03  0.60280987732E+03  0.90280085663E+02 0.  0.
        254    2    1    2    0    0 -0.19808377823E+03 -0.34838780474E+03 -0.18541402743E+04  0.20995808945E+04  0.89988473151E+03 0.  0.
         23    2    4    4    0    0 -0.29248151557E+03  0.22375822666E+03 -0.93424397195E+03  0.10082031496E+04  0.89714049837E+02 0.  0.
         23    2    4    4    0    0  0.94397737337E+02 -0.57214603141E+03 -0.91989630239E+03  0.10913777449E+04  0.92920185840E+02 0.  0.
          4    1    3    3  502    0  0.26505685036E+02  0.11060586661E+02 -0.13477669264E+02  0.31725943410E+02  0.00000000000E+00 0. -1.
         -3    1    3    3    0  502  0.17157809320E+03  0.33732721808E+03 -0.42767764198E+03  0.57108393391E+03  0.00000000000E+00 0.  1.
         11    1    5    5    0    0 -0.17484212352E+03  0.77359875245E+02 -0.47747459165E+03  0.51433092862E+03  0.00000000000E+00 0. -1.
        -11    1    5    5    0    0 -0.11763939205E+03  0.14639835142E+03 -0.45676938030E+03  0.49387222096E+03  0.00000000000E+00 0.  1.
          4    1    6    6  503    0  0.10049534537E+03 -0.38666215133E+03 -0.58305787704E+03  0.70679800628E+03  0.00000000000E+00 0. -1.
         -4    1    6    6    0  503 -0.60976080359E+01 -0.18548388007E+03 -0.33683842535E+03  0.38457973866E+03  0.00000000000E+00 0.  1.
<mgrwt>
<rscale>  0 0.14263709E+04</rscale>
<asrwt>0</asrwt>
<pdfrwt beam="1">  1        2 0.38443743E+00 0.14263709E+04</pdfrwt>
<pdfrwt beam="2">  1       -1 0.31315013E-01 0.14263709E+04</pdfrwt>
<totfact> 0.36618449E+01</totfact>
</mgrwt>
</event>
<event>
12    6  0.9491186E-008  0.1181372E+04  0.7818608E-02  0.9129320E-01
         -1   -1    0    0    0  501 -0.00000000000E+00  0.00000000000E+00  0.28994098873E+03  0.28994098873E+03  0.00000000000E+00 0.  1.
          2   -1    0    0  501    0  0.00000000000E+00 -0.00000000000E+00 -0.12033820042E+04  0.12033820042E+04  0.00000000000E+00 0. -1.
         24    2    1    2    0    0  0.27790421403E+02  0.40158939436E+02 -0.49234048912E+03  0.50124335280E+03  0.80378439618E+02 0.  0.
        254    2    1    2    0    0 -0.27790421403E+02 -0.40158939436E+02 -0.42110052634E+03  0.99207964013E+03  0.89694554525E+03 0.  0.
         23    2    4    4    0    0  0.34989942682E+03 -0.25342958433E+03 -0.12377721915E+03  0.45833616461E+03  0.89972644199E+02 0.  0.
         23    2    4    4    0    0 -0.37768984823E+03  0.21327064489E+03 -0.29732330719E+03  0.53374347552E+03  0.91361694580E+02 0.  0.
          2    1    3    3  502    0  0.52477933629E+02  0.97795051694E+01 -0.32725384759E+03  0.33157902979E+03  0.00000000000E+00 0. -1.
         -1    1    3    3    0  502 -0.24687512226E+02  0.30379434266E+02 -0.16508664154E+03  0.16966432300E+03  0.00000000000E+00 0.  1.
         11    1    5    5    0    0  0.12544836897E+03 -0.52093132723E+02 -0.67220685893E+02  0.15155727751E+03  0.00000000000E+00 0.  1.
        -11    1    5    5    0    0  0.22445105786E+03 -0.20133645161E+03 -0.56556533259E+02  0.30677888710E+03  0.00000000000E+00 0. -1.
          1    1    6    6  503    0 -0.23515503872E+03  0.83232582903E+02 -0.15099501276E+03  0.29159055020E+03  0.00000000000E+00 0. -1.
         -1    1    6    6    0  503 -0.14253480951E+03  0.13003806199E+03 -0.14632829443E+03  0.24215292531E+03  0.00000000000E+00 0.  1.
<mgrwt>
<rscale>  0 0.11813717E+04</rscale>
<asrwt>0</asrwt>
<pdfrwt beam="1">  1        2 0.18513570E+00 0.11813717E+04</pdfrwt>
<pdfrwt beam="2">  1       -1 0.44606305E-01 0.11813717E+04</pdfrwt>
<totfact> 0.10565130E+02</totfact>
</mgrwt>
</event>
<event>
12    6  0.9491186E-008  0.1535349E+04  0.7818608E-02  0.8861280E-01
         -3   -1    0    0    0  501 -0.00000000000E+00  0.00000000000E+00  0.10927335801E+04  0.10927335801E+04  0.00000000000E+00 0.  1.
          4   -1    0    0  501    0  0.00000000000E+00 -0.00000000000E+00 -0.53931209489E+03  0.53931209489E+03  0.00000000000E+00 0. -1.
         24    2    1    2    0    0 -0.19522623543E+03 -0.30479984098E+02 -0.30411425821E+03  0.37135874887E+03  0.79871934260E+02 0.  0.
        254    2    1    2    0    0  0.19522623543E+03  0.30479984098E+02  0.85753574343E+03  0.12606869261E+04  0.90273011584E+03 0.  0.
         23    2    4    4    0    0 -0.41064538745E+02 -0.15289608360E+02 -0.17162730748E+03  0.19987615650E+03  0.92598470813E+02 0.  0.
         23    2    4    4    0    0  0.23629077418E+03  0.45769592457E+02  0.10291630509E+04  0.10608107696E+04  0.90635081918E+02 0.  0.
          2    1    3    3  502    0 -0.75773483215E+02  0.20082809100E+02 -0.15518952978E+03  0.17386411399E+03  0.00000000000E+00 0. -1.
         -1    1    3    3    0  502 -0.11945275222E+03 -0.50562793197E+02 -0.14892472844E+03  0.19749463488E+03  0.00000000000E+00 0.  1.
         11    1    5    5    0    0 -0.19150278291E+02 -0.50977670024E+02 -0.61986425399E+02  0.82509229383E+02  0.00000000000E+00 0. -1.
        -11    1    5    5    0    0 -0.21914260455E+02  0.35688061664E+02 -0.10964088208E+03  0.11736692711E+03  0.00000000000E+00 0.  1.
          4    1    6    6  503    0  0.55405778077E+01  0.16913460463E+02  0.29476812574E+02  0.34433205294E+02  0.00000000000E+00 0. -1.
         -4    1    6    6    0  503  0.23075019637E+03  0.28856131994E+02  0.99968623834E+03  0.10263775643E+04  0.00000000000E+00 0.  1.
<mgrwt>
<rscale>  0 0.15353494E+04</rscale>
<asrwt>0</asrwt>
<pdfrwt beam="1">  1        4 0.82971092E-01 0.15353494E+04</pdfrwt>
<pdfrwt beam="2">  1       -3 0.16811286E+00 0.15353494E+04</pdfrwt>
<totfact> 0.67148380E-01</totfact>
</mgrwt>
</event>
<event>
12    6  0.9491186E-008  0.2375348E+04  0.7818608E-02  0.8448791E-01
         -1   -1    0    0    0  501 -0.00000000000E+00  0.00000000000E+00  0.92948936627E+03  0.92948936627E+03  0.00000000000E+00 0.  1.
          2   -1    0    0  501    0  0.00000000000E+00 -0.00000000000E+00 -0.15175750846E+04  0.15175750846E+04  0.00000000000E+00 0. -1.
         24    2    1    2    0    0  0.46002757982E+03  0.10833978723E+03  0.67441310082E+03  0.82739067034E+03  0.79871190813E+02 0.  0.
        254    2    1    2    0    0 -0.46002757982E+03 -0.10833978723E+03 -0.12624988192E+04  0.16196737806E+04  0.89781791211E+03 0.  0.
         23    2    4    4    0    0 -0.43999663198E+03  0.12789724764E+03 -0.12819608526E+04  0.13645244881E+04  0.92459227889E+02 0.  0.
         23    2    4    4    0    0 -0.20030947835E+02 -0.23623703486E+03  0.19462033419E+02  0.25514929249E+03  0.92267086220E+02 0.  0.
          2    1    3    3  502    0  0.27916795796E+03  0.10510662864E+03  0.42902165188E+03  0.52253395097E+03  0.00000000000E+00 0. -1.
         -1    1    3    3    0  502  0.18085962186E+03  0.32331585894E+01  0.24539144895E+03  0.30485671938E+03  0.00000000000E+00 0.  1.
         11    1    5    5    0    0 -0.38518009593E+03  0.12955504573E+03 -0.11897202358E+04  0.12572121761E+04  0.00000000000E+00 0.  1.
        -11    1    5    5    0    0 -0.54816536053E+02 -0.16577980915E+01 -0.92240616811E+02  0.10731231201E+03  0.00000000000E+00 0. -1.
          3    1    6    6  503    0  0.86107566083E+01 -0.39823336106E+02  0.38103803463E+02  0.55784792429E+02  0.00000000000E+00 0. -1.
         -3    1    6    6    0  503 -0.28641704443E+02 -0.19641369876E+03 -0.18641770044E+02  0.19936450006E+03  0.00000000000E+00 0.  1.
<mgrwt>
<rscale>  0 0.23753483E+04</rscale>
<asrwt>0</asrwt>
<pdfrwt beam="1">  1        2 0.23347309E+00 0.23753483E+04</pdfrwt>
<pdfrwt beam="2">  1       -1 0.14299837E+00 0.23753483E+04</pdfrwt>
<totfact> 0.50482083E+00</totfact>
</mgrwt>
</event>
<event>
12    6  0.9491186E-008  0.3085868E+04  0.7818608E-02  0.8219627E-01
          2   -1    0    0  501    0  0.00000000000E+00  0.00000000000E+00  0.17789453535E+04  0.17789453535E+04  0.00000000000E+00 0. -1.
         -1   -1    0    0    0  501 -0.00000000000E+00 -0.00000000000E+00 -0.13382337483E+04  0.13382337483E+04  0.00000000000E+00 0.  1.
         24    2    1    2    0    0 -0.10154829456E+04 -0.67538213506E+03  0.92398452343E+03  0.15325893565E+04  0.87955072850E+02 0.  0.
        254    2    1    2    0    0  0.10154829456E+04  0.67538213506E+03 -0.48327291815E+03  0.15845897453E+04  0.88883367751E+03 0.  0.
         23    2    4    4    0    0  0.91076278823E+03  0.35162311668E+03 -0.66813865108E+03  0.11868514471E+04  0.95286031021E+02 0.  0.
         23    2    4    4    0    0  0.10472015740E+03  0.32375901838E+03  0.18486573293E+03  0.39773829825E+03  0.90742500139E+02 0.  0.
          4    1    3    3  502    0 -0.90217182837E+03 -0.61896879514E+03  0.79970380665E+03  0.13551983455E+04  0.00000000000E+00 0. -1.
         -3    1    3    3    0  502 -0.11331111727E+03 -0.56413339918E+02  0.12428071678E+03  0.17739101099E+03  0.00000000000E+00 0.  1.
         11    1    5    5    0    0  0.28978109368E+03  0.15521930387E+03 -0.20049032687E+03  0.38504867967E+03  0.00000000000E+00 0. -1.
        -11    1    5    5    0    0  0.62098169456E+03  0.19640381281E+03 -0.46764832420E+03  0.80180276739E+03  0.00000000000E+00 0.  1.
          1    1    6    6  503    0  0.34724499144E+02  0.32255770622E+02  0.50369236011E+02  0.69161300707E+02  0.00000000000E+00 0. -1.
         -1    1    6    6    0  503  0.69995658261E+02  0.29150324776E+03  0.13449649692E+03  0.32857699754E+03  0.00000000000E+00 0.  1.
<mgrwt>
<rscale>  0 0.30858676E+04</rscale>
<asrwt>0</asrwt>
<pdfrwt beam="1">  1        2 0.27368390E+00 0.30858676E+04</pdfrwt>
<pdfrwt beam="2">  1       -1 0.20588212E+00 0.30858676E+04</pdfrwt>
<totfact> 0.11758846E+00</totfact>
</mgrwt>
</event>
<event>
12    6  0.9491186E-008  0.4515241E+04  0.7818608E-02  0.7907974E-01
         -1   -1    0    0    0  501 -0.00000000000E+00  0.00000000000E+00  0.31791802951E+04  0.31791802951E+04  0.00000000000E+00 0.  1.
          2   -1    0    0  501    0  0.00000000000E+00 -0.00000000000E+00 -0.16031963832E+04  0.16031963832E+04  0.00000000000E+00 0. -1.
         24    2    1    2    0    0  0.88833725597E+03  0.19511939782E+04  0.10990474197E+04  0.24105984083E+04  0.82331250120E+02 0.  0.
        254    2    1    2    0    0 -0.88833725597E+03 -0.19511939782E+04  0.47693649208E+03  0.23717782699E+04  0.89530035382E+03 0.  0.
         23    2    4    4    0    0 -0.53034217401E+03 -0.10770514162E+04 -0.18040478137E+03  0.12173419970E+04  0.89850308173E+02 0.  0.
         23    2    4    4    0    0 -0.35799508197E+03 -0.87414256200E+03  0.65734127345E+03  0.11544362730E+04  0.91322840277E+02 0.  0.
          2    1    3    3  502    0  0.28708733718E+03  0.65479990449E+03  0.40888733108E+03  0.82363274801E+03  0.00000000000E+00 0. -1.
         -1    1    3    3    0  502  0.60124991879E+03  0.12963940737E+04  0.69016008865E+03  0.15869656603E+04  0.00000000000E+00 0.  1.
         11    1    5    5    0    0 -0.50370362093E+03 -0.10061647716E+04 -0.18957371969E+03  0.11410622598E+04  0.00000000000E+00 0. -1.
        -11    1    5    5    0    0 -0.26638553075E+02 -0.70886644521E+02  0.91689383233E+01  0.76279737226E+02  0.00000000000E+00 0.  1.
          4    1    6    6  503    0 -0.34992478747E+03 -0.82476535241E+03  0.64166010911E+03  0.11020040558E+04  0.00000000000E+00 0. -1.
         -4    1    6    6    0  503 -0.80702944991E+01 -0.49377209590E+02  0.15681164338E+02  0.52432217149E+02  0.00000000000E+00 0.  1.
<mgrwt>
<rscale>  0 0.45152410E+04</rscale>
<asrwt>0</asrwt>
<pdfrwt beam="1">  1        2 0.24664560E+00 0.45152410E+04</pdfrwt>
<pdfrwt beam="2">  1       -1 0.48910466E+00 0.45152410E+04</pdfrwt>
<totfact> 0.16865126E-02</totfact>
</mgrwt>
</event>
<event>
12    6  0.9491186E-008  0.2081460E+04  0.7818608E-02  0.8569454E-01
          2   -1    0    0  501    0  0.00000000000E+00  0.00000000000E+00  0.42360801433E+04  0.42360801433E+04  0.00000000000E+00 0. -1.
         -1   -1    0    0    0  501 -0.00000000000E+00 -0.00000000000E+00 -0.25568907787E+03  0.25568907787E+03  0.00000000000E+00 0.  1.
         24    2    1    2    0    0  0.44873241594E+03  0.20221300482E+03  0.13880340087E+03  0.51753168192E+03  0.79509604847E+02 0.  0.
        254    2    1    2    0    0 -0.44873241594E+03 -0.20221300482E+03  0.38415876645E+04  0.39742375392E+04  0.89135702921E+03 0.  0.
         23    2    4    4    0    0 -0.53456067094E+03 -0.42789697751E+03  0.33306612003E+04  0.34015669032E+04  0.92208628202E+02 0.  0.
         23    2    4    4    0    0  0.85828254997E+02  0.22568397269E+03  0.51092646420E+03  0.57267063606E+03  0.92768856287E+02 0.  0.
          2    1    3    3  502    0  0.16416941090E+03  0.96708569828E+02  0.19877323478E+02  0.19157048557E+03  0.00000000000E+00 0. -1.
         -1    1    3    3    0  502  0.28456300504E+03  0.10550443499E+03  0.11892607739E+03  0.32596119635E+03  0.00000000000E+00 0.  1.
         11    1    5    5    0    0 -0.47499821718E+03 -0.41276259200E+03  0.30121547551E+04  0.30771858138E+04  0.00000000000E+00 0.  1.
        -11    1    5    5    0    0 -0.59562453757E+02 -0.15134385501E+02  0.31850644517E+03  0.32438108936E+03  0.00000000000E+00 0. -1.
          3    1    6    6  503    0  0.17592133102E+02  0.52148519456E+02  0.22258548059E+03  0.22928856796E+03  0.00000000000E+00 0. -1.
         -3    1    6    6    0  503  0.68236121895E+02  0.17353545323E+03  0.28834098361E+03  0.34338206810E+03  0.00000000000E+00 0.  1.
<mgrwt>
<rscale>  0 0.20814605E+04</rscale>
<asrwt>0</asrwt>
<pdfrwt beam="1">  1        2 0.65170459E+00 0.20814605E+04</pdfrwt>
<pdfrwt beam="2">  1       -1 0.39336784E-01 0.20814605E+04</pdfrwt>
<totfact> 0.14430337E+00</totfact>
</mgrwt>
</event>
<event>
12    6  0.9491186E-008  0.2335137E+04  0.7818608E-02  0.8464194E-01
         -3   -1    0    0    0  501 -0.00000000000E+00  0.00000000000E+00  0.31846617749E+04  0.31846617749E+04  0.00000000000E+00 0.  1.
          2   -1    0    0  501    0  0.00000000000E+00 -0.00000000000E+00 -0.42805687561E+03  0.42805687561E+03  0.00000000000E+00 0. -1.
         24    2    1    2    0    0 -0.25200890311E+03 -0.17926987394E+03 -0.28380341906E+03  0.42720884650E+03  0.79478568838E+02 0.  0.
        254    2    1    2    0    0  0.25200890311E+03  0.17926987394E+03  0.30404083184E+04  0.31855098040E+04  0.89874567827E+03 0.  0.
         23    2    4    4    0    0 -0.18943871766E+03 -0.55543652092E+02  0.21435047008E+04  0.21544625028E+04  0.90134060894E+02 0.  0.
         23    2    4    4    0    0  0.44144762077E+03  0.23481352603E+03  0.89690361761E+03  0.10310473012E+04  0.92784934761E+02 0.  0.
          4    1    3    3  502    0 -0.23345938746E+03 -0.17626271955E+03 -0.23603837318E+03  0.37588022761E+03  0.00000000000E+00 0. -1.
         -3    1    3    3    0  502 -0.18549515649E+02 -0.30071543876E+01 -0.47765045882E+02  0.51328618883E+02  0.00000000000E+00 0.  1.
         11    1    5    5    0    0 -0.78334571072E+01  0.85028787725E+01  0.43266200454E+03  0.43281644166E+03  0.00000000000E+00 0. -1.
        -11    1    5    5    0    0 -0.18160526055E+03 -0.64046530865E+02  0.17108426962E+04  0.17216460612E+04  0.00000000000E+00 0.  1.
          1    1    6    6  503    0  0.11685558438E+02 -0.70919486722E+00  0.60705671129E+02  0.61824216457E+02  0.00000000000E+00 0. -1.
         -1    1    6    6    0  503  0.42976206233E+03  0.23552272090E+03  0.83619794648E+03  0.96922308473E+03  0.00000000000E+00 0.  1.
<mgrwt>
<rscale>  0 0.23351371E+04</rscale>
<asrwt>0</asrwt>
<pdfrwt beam="1">  1        2 0.65854906E-01 0.23351371E+04</pdfrwt>
<pdfrwt beam="2">  1       -3 0.48994795E+00 0.23351371E+04</pdfrwt>
<totfact> 0.14159104E-01</totfact>
</mgrwt>
</event>
<event>
12    6  0.9491186E-008  0.1624803E+04  0.7818608E-02  0.8805454E-01
          2   -1    0    0  501    0  0.00000000000E+00  0.00000000000E+00  0.21838696338E+04  0.21838696338E+04  0.00000000000E+00 0. -1.
         -1   -1    0    0    0  501 -0.00000000000E+00 -0.00000000000E+00 -0.30221410905E+03  0.30221410905E+03  0.00000000000E+00 0.  1.
         24    2    1    2    0    0 -0.55114937369E+03  0.41436914095E+02  0.55379225443E+03  0.78589366118E+03  0.73894084039E+02 0.  0.
        254    2    1    2    0    0  0.55114937369E+03 -0.41436914095E+02  0.13278632703E+04  0.17001900817E+04  0.90661061054E+03 0.  0.
         23    2    4    4    0    0  0.65056584521E+03 -0.33434905392E+03  0.86981702231E+03  0.11399592248E+04  0.88882917386E+02 0.  0.
         23    2    4    4    0    0 -0.99416471522E+02  0.29291213982E+03  0.45804624800E+03  0.56023085690E+03  0.91493667801E+02 0.  0.
          4    1    3    3  502    0 -0.32795510529E+03  0.61682027039E+01  0.28313570864E+03  0.43331100530E+03  0.00000000000E+00 0. -1.
         -1    1    3    3    0  502 -0.22319426840E+03  0.35268711391E+02  0.27065654579E+03  0.35258265588E+03  0.00000000000E+00 0.  1.
         11    1    5    5    0    0  0.26857165342E+03 -0.18321882797E+03  0.41260694844E+03  0.52530406989E+03  0.00000000000E+00 0.  1.
        -11    1    5    5    0    0  0.38199419179E+03 -0.15113022594E+03  0.45721007387E+03  0.61465515487E+03  0.00000000000E+00 0. -1.
          4    1    6    6  503    0 -0.90347199927E+02  0.13994660359E+03  0.27495384709E+03  0.32147672765E+03  0.00000000000E+00 0. -1.
         -4    1    6    6    0  503 -0.90692715949E+01  0.15296553623E+03  0.18309240091E+03  0.23875412925E+03  0.00000000000E+00 0.  1.
<mgrwt>
<rscale>  0 0.16248030E+04</rscale>
<asrwt>0</asrwt>
<pdfrwt beam="1">  1        2 0.33597993E+00 0.16248030E+04</pdfrwt>
<pdfrwt beam="2">  1       -1 0.46494480E-01 0.16248030E+04</pdfrwt>
<totfact> 0.26493159E+01</totfact>
</mgrwt>
</event>
<event>
12    6  0.9491186E-008  0.2019890E+04  0.7818608E-02  0.8597378E-01
         -1   -1    0    0    0  501 -0.00000000000E+00  0.00000000000E+00  0.63047391311E+03  0.63047391311E+03  0.00000000000E+00 0.  1.
          2   -1    0    0  501    0  0.00000000000E+00 -0.00000000000E+00 -0.16178130039E+04  0.16178130039E+04  0.00000000000E+00 0. -1.
         24    2    1    2    0    0 -0.46274144061E+03  0.65646178842E+03 -0.29043144535E+03  0.85774468385E+03  0.79396459042E+02 0.  0.
        254    2    1    2    0    0  0.46274144061E+03 -0.65646178842E+03 -0.69690764544E+03  0.13905422332E+04  0.89602216234E+03 0.  0.
         23    2    4    4    0    0 -0.14075632752E+02 -0.11966660991E+02 -0.56415880141E+03  0.57176178820E+03  0.91077246463E+02 0.  0.
         23    2    4    4    0    0  0.47681707336E+03 -0.64449512743E+03 -0.13274884402E+03  0.81878044495E+03  0.10025303348E+03 0.  0.
          2    1    3    3  502    0 -0.39047587226E+03  0.59702182839E+03 -0.25176572472E+03  0.75650013254E+03  0.00000000000E+00 0. -1.
         -1    1    3    3    0  502 -0.72265568351E+02  0.59439960029E+02 -0.38665720635E+02  0.10124455131E+03  0.00000000000E+00 0.  1.
         11    1    5    5    0    0  0.36344046015E+01  0.38758031937E+02 -0.21553083380E+03  0.21901811398E+03  0.00000000000E+00 0.  1.
        -11    1    5    5    0    0 -0.17710037353E+02 -0.50724692928E+02 -0.34862796762E+03  0.35274367422E+03  0.00000000000E+00 0. -1.
          2    1    6    6  503    0  0.25886498323E+03 -0.26732584190E+03 -0.51810002371E+02  0.37571060889E+03  0.00000000000E+00 0. -1.
         -2    1    6    6    0  503  0.21795209013E+03 -0.37716928553E+03 -0.80938841652E+02  0.44306983606E+03  0.00000000000E+00 0.  1.
<mgrwt>
<rscale>  0 0.20198900E+04</rscale>
<asrwt>0</asrwt>
<pdfrwt beam="1">  1        2 0.24889431E+00 0.20198900E+04</pdfrwt>
<pdfrwt beam="2">  1       -1 0.96995987E-01 0.20198900E+04</pdfrwt>
<totfact> 0.11764988E+01</totfact>
</mgrwt>
</event>
<event>
12    6  0.9491186E-008  0.2493260E+04  0.7818608E-02  0.8405391E-01
          2   -1    0    0  501    0  0.00000000000E+00  0.00000000000E+00  0.90230349604E+03  0.90230349604E+03  0.00000000000E+00 0. -1.
         -1   -1    0    0    0  501 -0.00000000000E+00 -0.00000000000E+00 -0.17223537467E+04  0.17223537467E+04  0.00000000000E+00 0.  1.
         24    2    1    2    0    0  0.70122782248E+02 -0.10801660276E+04 -0.32494794310E+03  0.11329893212E+04  0.79986150802E+02 0.  0.
        254    2    1    2    0    0 -0.70122782248E+02  0.10801660276E+04 -0.49510230753E+03  0.14916679215E+04  0.89903895433E+03 0.  0.
         23    2    4    4    0    0 -0.39525831573E+03  0.33149070370E+03 -0.41127419668E+03  0.66614009848E+03  0.92092036303E+02 0.  0.
         23    2    4    4    0    0  0.32513553348E+03  0.74867532393E+03 -0.83828110850E+02  0.82552782307E+03  0.90780937928E+02 0.  0.
          2    1    3    3  502    0  0.43488417677E+02 -0.74582970677E+03 -0.26222153002E+03  0.79177858318E+03  0.00000000000E+00 0. -1.
         -1    1    3    3    0  502  0.26634364572E+02 -0.33433632086E+03 -0.62726413080E+02  0.34121073799E+03  0.00000000000E+00 0.  1.
         11    1    5    5    0    0 -0.12164336666E+03  0.84434486657E+02 -0.17052190550E+03  0.22584067712E+03  0.00000000000E+00 0. -1.
        -11    1    5    5    0    0 -0.27361494907E+03  0.24705621704E+03 -0.24075229119E+03  0.44029942135E+03  0.00000000000E+00 0.  1.
          1    1    6    6  503    0  0.10911190620E+03  0.25969787074E+03  0.14190661941E+02  0.28204568252E+03  0.00000000000E+00 0. -1.
         -1    1    6    6    0  503  0.21602362728E+03  0.48897745319E+03 -0.98018772792E+02  0.54348214055E+03  0.00000000000E+00 0.  1.
<mgrwt>
<rscale>  0 0.24932596E+04</rscale>
<asrwt>0</asrwt>
<pdfrwt beam="1">  1        2 0.13881592E+00 0.24932596E+04</pdfrwt>
<pdfrwt beam="2">  1       -1 0.26497750E+00 0.24932596E+04</pdfrwt>
<totfact> 0.16558708E+00</totfact>
</mgrwt>
</event>
<event>
12    6  0.9491186E-008  0.2581278E+04  0.7818608E-02  0.8374588E-01
         -1   -1    0    0    0  501 -0.00000000000E+00  0.00000000000E+00  0.15020295779E+04  0.15020295779E+04  0.00000000000E+00 0.  1.
          2   -1    0    0  501    0  0.00000000000E+00 -0.00000000000E+00 -0.11089991904E+04  0.11089991904E+04  0.00000000000E+00 0. -1.
         24    2    1    2    0    0  0.83263707865E+03  0.75336901179E+03  0.35780540395E+03  0.11812175129E+04  0.80004581694E+02 0.  0.
        254    2    1    2    0    0 -0.83263707865E+03 -0.75336901179E+03  0.35224983564E+02  0.14298112554E+04  0.88446031787E+03 0.  0.
         23    2    4    4    0    0 -0.36582455305E+03 -0.69110604014E+03  0.34325537267E+03  0.85977416319E+03  0.99660415889E+02 0.  0.
         23    2    4    4    0    0 -0.46681252560E+03 -0.62262971651E+02 -0.30803038911E+03  0.57003709219E+03  0.90933789987E+02 0.  0.
          4    1    3    3  502    0  0.69580459984E+03  0.66633238298E+03  0.29939826750E+03  0.10088519259E+04  0.00000000000E+00 0. -1.
         -3    1    3    3    0  502  0.13683247881E+03  0.87036628808E+02  0.58407136448E+02  0.17236558705E+03  0.00000000000E+00 0.  1.
         11    1    5    5    0    0 -0.48749769323E+02 -0.15455670253E+03  0.41293691387E+02  0.16724079423E+03  0.00000000000E+00 0.  1.
        -11    1    5    5    0    0 -0.31707478372E+03 -0.53654933761E+03  0.30196168129E+03  0.69253336896E+03  0.00000000000E+00 0. -1.
          4    1    6    6  503    0 -0.46461787799E+03 -0.62183675581E+02 -0.31364235818E+03  0.56401073651E+03  0.00000000000E+00 0. -1.
         -4    1    6    6    0  503 -0.21946476121E+01 -0.79296069471E-01  0.56119690657E+01  0.60263556817E+01  0.00000000000E+00 0.  1.
<mgrwt>
<rscale>  0 0.25812784E+04</rscale>
<asrwt>0</asrwt>
<pdfrwt beam="1">  1        2 0.17061526E+00 0.25812784E+04</pdfrwt>
<pdfrwt beam="2">  1       -1 0.23108147E+00 0.25812784E+04</pdfrwt>
<totfact> 0.20165180E+00</totfact>
</mgrwt>
</event>
<event>
12    6  0.9491186E-008  0.1391460E+04  0.7818608E-02  0.8960023E-01
         -1   -1    0    0    0  501 -0.00000000000E+00  0.00000000000E+00  0.12974915927E+04  0.12974915927E+04  0.00000000000E+00 0.  1.
          2   -1    0    0  501    0  0.00000000000E+00 -0.00000000000E+00 -0.37305854272E+03  0.37305854272E+03  0.00000000000E+00 0. -1.
         24    2    1    2    0    0 -0.54500417624E+02  0.13344917307E+03  0.73800702885E+03  0.75627353795E+03  0.80723678401E+02 0.  0.
        254    2    1    2    0    0  0.54500417624E+02 -0.13344917307E+03  0.18642602110E+03  0.91427659745E+03  0.88338443386E+03 0.  0.
         23    2    4    4    0    0  0.37105866744E+03  0.12147901367E+03 -0.93951116803E+02  0.41216858062E+03  0.92814013254E+02 0.  0.
         23    2    4    4    0    0 -0.31655824981E+03 -0.25492818674E+03  0.28037713790E+03  0.50210801683E+03  0.91124174533E+02 0.  0.
          2    1    3    3  502    0 -0.58489468498E+02  0.78183137042E+02  0.31871065159E+03  0.33333181708E+03  0.00000000000E+00 0. -1.
         -1    1    3    3    0  502  0.39890508742E+01  0.55266036027E+02  0.41929637726E+03  0.42294172086E+03  0.00000000000E+00 0.  1.
         11    1    5    5    0    0  0.55462749446E+02  0.48192553145E+02 -0.40178217725E+02  0.83743226200E+02  0.00000000000E+00 0.  1.
        -11    1    5    5    0    0  0.31559591799E+03  0.73286460530E+02 -0.53772899077E+02  0.32842535442E+03  0.00000000000E+00 0. -1.
          3    1    6    6  503    0 -0.29730903127E+03 -0.20825784440E+03  0.26466804788E+03  0.44923620224E+03  0.00000000000E+00 0. -1.
         -3    1    6    6    0  503 -0.19249218543E+02 -0.46670342345E+02  0.15709090017E+02  0.52871814593E+02  0.00000000000E+00 0.  1.
<mgrwt>
<rscale>  0 0.13914601E+04</rscale>
<asrwt>0</asrwt>
<pdfrwt beam="1">  1        2 0.57393623E-01 0.13914601E+04</pdfrwt>
<pdfrwt beam="2">  1       -1 0.19961409E+00 0.13914601E+04</pdfrwt>
<totfact> 0.14518646E+01</totfact>
</mgrwt>
</event>
<event>
12    6  0.9491186E-008  0.2151729E+04  0.7818608E-02  0.8538793E-01
          2   -1    0    0  501    0  0.00000000000E+00  0.00000000000E+00  0.12213983107E+04  0.12213983107E+04  0.00000000000E+00 0. -1.
         -1   -1    0    0    0  501 -0.00000000000E+00 -0.00000000000E+00 -0.94767135681E+03  0.94767135681E+03  0.00000000000E+00 0.  1.
         24    2    1    2    0    0  0.11688132609E+03 -0.88196640068E+03  0.10984012472E+03  0.90005315394E+03  0.80652654115E+02 0.  0.
        254    2    1    2    0    0 -0.11688132609E+03  0.88196640068E+03  0.16388682917E+03  0.12690165136E+04  0.88995395534E+03 0.  0.
         23    2    4    4    0    0 -0.44395551943E+03  0.78001439534E+03  0.91380185145E+02  0.90658933094E+03  0.89637696148E+02 0.  0.
         23    2    4    4    0    0  0.32707419335E+03  0.10195200534E+03  0.72506644029E+02  0.36242718263E+03  0.93405085164E+02 0.  0.
          2    1    3    3  502    0  0.18133867206E+02 -0.10882588347E+03  0.40611383985E+02  0.11756357668E+03  0.00000000000E+00 0. -1.
         -1    1    3    3    0  502  0.98747458881E+02 -0.77314051720E+03  0.69228740739E+02  0.78248957726E+03  0.00000000000E+00 0.  1.
         11    1    5    5    0    0 -0.23261318186E+03  0.32871667943E+03  0.20229338022E+02  0.40320314214E+03  0.00000000000E+00 0.  1.
        -11    1    5    5    0    0 -0.21134233757E+03  0.45129771591E+03  0.71150847123E+02  0.50338618880E+03  0.00000000000E+00 0. -1.
          4    1    6    6  503    0  0.15339452475E+03  0.43114715766E+02 -0.13450822846E+02  0.15990523310E+03  0.00000000000E+00 0. -1.
         -4    1    6    6    0  503  0.17367966860E+03  0.58837289573E+02  0.85957466875E+02  0.20252194953E+03  0.00000000000E+00 0.  1.
<mgrwt>
<rscale>  0 0.21517288E+04</rscale>
<asrwt>0</asrwt>
<pdfrwt beam="1">  1        2 0.18790743E+00 0.21517288E+04</pdfrwt>
<pdfrwt beam="2">  1       -1 0.14579559E+00 0.21517288E+04</pdfrwt>
<totfact> 0.72454334E+00</totfact>
</mgrwt>
</event>
<event>
12    6  0.9491186E-008  0.2037140E+04  0.7818608E-02  0.8589451E-01
          2   -1    0    0  501    0  0.00000000000E+00  0.00000000000E+00  0.30276517957E+03  0.30276517957E+03  0.00000000000E+00 0. -1.
         -1   -1    0    0    0  501 -0.00000000000E+00 -0.00000000000E+00 -0.34266970832E+04  0.34266970832E+04  0.00000000000E+00 0.  1.
         24    2    1    2    0    0  0.63777212159E+02 -0.91179651251E+02 -0.27436964958E+04  0.27469917565E+04  0.75577692938E+02 0.  0.
        254    2    1    2    0    0 -0.63777212159E+02  0.91179651251E+02 -0.38023540784E+03  0.98247050627E+03  0.89904842401E+03 0.  0.
         23    2    4    4    0    0 -0.15911675897E+03 -0.71412769071E+02 -0.62704595645E+03  0.65728604218E+03  0.91762645888E+02 0.  0.
         23    2    4    4    0    0  0.95339546808E+02  0.16259242032E+03  0.24681054860E+03  0.32518446409E+03  0.96454986653E+02 0.  0.
          2    1    3    3  502    0 -0.17246510888E+02 -0.21827005128E+02 -0.59552199182E+03  0.59617137052E+03  0.00000000000E+00 0. -1.
         -3    1    3    3    0  502  0.81023723047E+02 -0.69352646122E+02 -0.21481745040E+04  0.21508203860E+04  0.00000000000E+00 0.  1.
         11    1    5    5    0    0 -0.16309887504E+03 -0.84198852710E+02 -0.57796980589E+03  0.60641552285E+03  0.00000000000E+00 0. -1.
        -11    1    5    5    0    0  0.39821160751E+01  0.12786083638E+02 -0.49076150557E+02  0.50870519328E+02  0.00000000000E+00 0.  1.
          3    1    6    6  503    0  0.11312266444E+03  0.11692806707E+03  0.19205126687E+03  0.25169942229E+03  0.00000000000E+00 0. -1.
         -3    1    6    6    0  503 -0.17783117633E+02  0.45664353256E+02  0.54759281739E+02  0.73485041795E+02  0.00000000000E+00 0.  1.
<mgrwt>
<rscale>  0 0.20371397E+04</rscale>
<asrwt>0</asrwt>
<pdfrwt beam="1">  1        2 0.46579257E-01 0.20371397E+04</pdfrwt>
<pdfrwt beam="2">  1       -1 0.52718418E+00 0.20371397E+04</pdfrwt>
<totfact> 0.11521965E-01</totfact>
</mgrwt>
</event>
<event>
12    6  0.9491186E-008  0.2019325E+04  0.7818608E-02  0.8597639E-01
         -1   -1    0    0    0  501 -0.00000000000E+00  0.00000000000E+00  0.42965497412E+03  0.42965497412E+03  0.00000000000E+00 0.  1.
          2   -1    0    0  501    0  0.00000000000E+00 -0.00000000000E+00 -0.23726439521E+04  0.23726439521E+04  0.00000000000E+00 0. -1.
         24    2    1    2    0    0  0.73639922239E+03 -0.32660284618E+03 -0.87428430591E+03  0.11915486106E+04  0.80385384377E+02 0.  0.
        254    2    1    2    0    0 -0.73639922239E+03  0.32660284618E+03 -0.10687046721E+04  0.16107503156E+04  0.89634461527E+03 0.  0.
         23    2    4    4    0    0 -0.24043325325E+03  0.22864892326E+03 -0.10407869525E+04  0.10961987718E+04  0.91245752700E+02 0.  0.
         23    2    4    4    0    0 -0.49596596914E+03  0.97953922914E+02 -0.27917719596E+02  0.51455154386E+03  0.91687941748E+02 0.  0.
          4    1    3    3  502    0  0.65783759689E+03 -0.26471792635E+03 -0.77916327544E+03  0.10535280225E+04  0.00000000000E+00 0. -1.
         -3    1    3    3    0  502  0.78561625502E+02 -0.61884919825E+02 -0.95121030479E+02  0.13802058811E+03  0.00000000000E+00 0.  1.
         11    1    5    5    0    0 -0.52793850599E+02  0.55584958765E+02 -0.38345072423E+03  0.39103879118E+03  0.00000000000E+00 0. -1.
        -11    1    5    5    0    0 -0.18763940265E+03  0.17306396450E+03 -0.65733622828E+03  0.70515998060E+03  0.00000000000E+00 0.  1.
          1    1    6    6  503    0 -0.93045300522E+02  0.55597893427E+02 -0.12607745831E+02  0.10912153297E+03  0.00000000000E+00 0. -1.
         -1    1    6    6    0  503 -0.40292066862E+03  0.42356029487E+02 -0.15309973765E+02  0.40543001089E+03  0.00000000000E+00 0.  1.
<mgrwt>
<rscale>  0 0.20193249E+04</rscale>
<asrwt>0</asrwt>
<pdfrwt beam="1">  1        2 0.36502214E+00 0.20193249E+04</pdfrwt>
<pdfrwt beam="2">  1       -1 0.66100766E-01 0.20193249E+04</pdfrwt>
<totfact> 0.10096996E+01</totfact>
</mgrwt>
</event>
<event>
12    6  0.9491186E-008  0.2152132E+04  0.7818608E-02  0.8538620E-01
          2   -1    0    0  501    0  0.00000000000E+00  0.00000000000E+00  0.17529703642E+04  0.17529703642E+04  0.00000000000E+00 0. -1.
         -3   -1    0    0    0  501 -0.00000000000E+00 -0.00000000000E+00 -0.66054634387E+03  0.66054634387E+03  0.00000000000E+00 0.  1.
         24    2    1    2    0    0 -0.31384757871E+02  0.36065329967E+03  0.13544412396E+04  0.14041697556E+04  0.78267652633E+02 0.  0.
        254    2    1    2    0    0  0.31384757871E+02 -0.36065329967E+03 -0.26201721924E+03  0.10093469525E+04  0.90502621052E+03 0.  0.
         23    2    4    4    0    0 -0.28814115516E+03 -0.43437039674E+03 -0.37693286278E+03  0.64983885374E+03  0.92245248784E+02 0.  0.
         23    2    4    4    0    0  0.31952591303E+03  0.73717097073E+02  0.11491564355E+03  0.35950809875E+03  0.92246671663E+02 0.  0.
          4    1    3    3  502    0 -0.52404755568E+02  0.26603219233E+03  0.10628409418E+04  0.10968820599E+04  0.00000000000E+00 0. -1.
         -3    1    3    3    0  502  0.21019997697E+02  0.94621107333E+02  0.29160029774E+03  0.30728769565E+03  0.00000000000E+00 0.  1.
         11    1    5    5    0    0 -0.18037449344E+03 -0.33625017237E+03 -0.29757397755E+03  0.48388987220E+03  0.00000000000E+00 0.  1.
        -11    1    5    5    0    0 -0.10776666172E+03 -0.98120224367E+02 -0.79358885232E+02  0.16594898154E+03  0.00000000000E+00 0. -1.
          1    1    6    6  503    0  0.13635255497E+03  0.24320193299E+01  0.10089716786E+02  0.13674697931E+03  0.00000000000E+00 0. -1.
         -1    1    6    6    0  503  0.18317335806E+03  0.71285077743E+02  0.10482592676E+03  0.22276111944E+03  0.00000000000E+00 0.  1.
<mgrwt>
<rscale>  0 0.21521321E+04</rscale>
<asrwt>0</asrwt>
<pdfrwt beam="1">  1        2 0.26968775E+00 0.21521321E+04</pdfrwt>
<pdfrwt beam="2">  1       -3 0.10162251E+00 0.21521321E+04</pdfrwt>
<totfact> 0.45072460E+00</totfact>
</mgrwt>
</event>
<event>
12    6  0.9491186E-008  0.2324242E+04  0.7818608E-02  0.8468424E-01
         -1   -1    0    0    0  501 -0.00000000000E+00  0.00000000000E+00  0.96806029713E+03  0.96806029713E+03  0.00000000000E+00 0.  1.
          2   -1    0    0  501    0  0.00000000000E+00 -0.00000000000E+00 -0.13950842441E+04  0.13950842441E+04  0.00000000000E+00 0. -1.
         24    2    1    2    0    0  0.93829198210E+03 -0.25282394218E+03 -0.34901268499E+03  0.10356213728E+04  0.79937376263E+02 0.  0.
        254    2    1    2    0    0 -0.93829198210E+03  0.25282394218E+03 -0.78011261944E+02  0.13275231684E+04  0.90106615529E+03 0.  0.
         23    2    4    4    0    0 -0.50697772835E+03 -0.30167514145E+03 -0.15219953771E+03  0.61587312149E+03  0.90003858173E+02 0.  0.
         23    2    4    4    0    0 -0.43131425375E+03  0.55449908363E+03  0.74188275769E+02  0.71165004689E+03  0.86259316926E+02 0.  0.
          4    1    3    3  502    0  0.66318598343E+03 -0.14795772065E+03 -0.22040820535E+03  0.71434369368E+03  0.00000000000E+00 0. -1.
         -3    1    3    3    0  502  0.27510599867E+03 -0.10486622153E+03 -0.12860447963E+03  0.32127767913E+03  0.00000000000E+00 0.  1.
         11    1    5    5    0    0 -0.38530183774E+03 -0.25951653615E+03 -0.91343491446E+02  0.47344479312E+03  0.00000000000E+00 0.  1.
        -11    1    5    5    0    0 -0.12167589061E+03 -0.42158605300E+02 -0.60856046267E+02  0.14242832838E+03  0.00000000000E+00 0. -1.
          2    1    6    6  503    0 -0.24237024515E+03  0.36147061699E+03  0.74514546085E+02  0.44153908123E+03  0.00000000000E+00 0. -1.
         -2    1    6    6    0  503 -0.18894400860E+03  0.19302846664E+03 -0.32627031538E+00  0.27011096566E+03  0.00000000000E+00 0.  1.
<mgrwt>
<rscale>  0 0.23242424E+04</rscale>
<asrwt>0</asrwt>
<pdfrwt beam="1">  1        2 0.21462835E+00 0.23242424E+04</pdfrwt>
<pdfrwt beam="2">  1       -1 0.14893235E+00 0.23242424E+04</pdfrwt>
<totfact> 0.53410626E+00</totfact>
</mgrwt>
</event>
<event>
12    6  0.9491186E-008  0.1691858E+04  0.7818608E-02  0.8766022E-01
         -1   -1    0    0    0  501 -0.00000000000E+00  0.00000000000E+00  0.36397285899E+03  0.36397285899E+03  0.00000000000E+00 0.  1.
          2   -1    0    0  501    0  0.00000000000E+00 -0.00000000000E+00 -0.19660694955E+04  0.19660694955E+04  0.00000000000E+00 0. -1.
         24    2    1    2    0    0  0.24676837873E+02  0.12703300498E+02  0.25034988735E+03  0.26457636917E+03  0.80964614847E+02 0.  0.
        254    2    1    2    0    0 -0.24676837873E+02 -0.12703300498E+02 -0.18524465239E+04  0.20654659853E+04  0.91313815637E+03 0.  0.
         23    2    4    4    0    0  0.17185738908E+03 -0.18013803192E+02 -0.18407949324E+04  0.18511509274E+04  0.91511276779E+02 0.  0.
         23    2    4    4    0    0 -0.19653422696E+03  0.53105026940E+01 -0.11651591505E+02  0.21431505792E+03  0.84506098368E+02 0.  0.
          4    1    3    3  502    0 -0.97955749510E+01  0.28632800635E+02  0.36652272572E+02  0.47530828370E+02  0.00000000000E+00 0. -1.
         -3    1    3    3    0  502  0.34472412824E+02 -0.15929500137E+02  0.21369761478E+03  0.21704554080E+03  0.00000000000E+00 0.  1.
         11    1    5    5    0    0  0.85959892206E+01  0.16964366467E+02 -0.44482667171E+03  0.44523302733E+03  0.00000000000E+00 0.  1.
        -11    1    5    5    0    0  0.16326139986E+03 -0.34978169659E+02 -0.13959682607E+04  0.14059179001E+04  0.00000000000E+00 0. -1.
          2    1    6    6  503    0 -0.98219306523E+02  0.33107851208E+02 -0.35207499157E+02  0.10946565663E+03  0.00000000000E+00 0.  1.
         -2    1    6    6    0  503 -0.98314920432E+02 -0.27797348514E+02  0.23555907652E+02  0.10484940128E+03  0.00000000000E+00 0. -1.
<mgrwt>
<rscale>  0 0.16918581E+04</rscale>
<asrwt>0</asrwt>
<pdfrwt beam="1">  1        2 0.30247223E+00 0.16918581E+04</pdfrwt>
<pdfrwt beam="2">  1       -1 0.55995825E-01 0.16918581E+04</pdfrwt>
<totfact> 0.24417437E+01</totfact>
</mgrwt>
</event>
<event>
12    6  0.9491186E-008  0.1609417E+04  0.7818608E-02  0.8814783E-01
         -1   -1    0    0    0  501 -0.00000000000E+00  0.00000000000E+00  0.82225882149E+03  0.82225882149E+03  0.00000000000E+00 0.  1.
          2   -1    0    0  501    0  0.00000000000E+00 -0.00000000000E+00 -0.78753297494E+03  0.78753297494E+03  0.00000000000E+00 0. -1.
         24    2    1    2    0    0 -0.18708499253E+01  0.23899323282E+03  0.50891242975E+03  0.56775947753E+03  0.78979096976E+02 0.  0.
        254    2    1    2    0    0  0.18708499253E+01 -0.23899323282E+03 -0.47418658320E+03  0.10420323189E+04  0.89658082321E+03 0.  0.
         23    2    4    4    0    0  0.26981561779E+03  0.16871263012E+03 -0.43007090985E+03  0.54353339924E+03  0.95933046632E+02 0.  0.
         23    2    4    4    0    0 -0.26794476786E+03 -0.40770586294E+03 -0.44115673354E+02  0.49849891966E+03  0.92393240915E+02 0.  0.
          4    1    3    3  502    0  0.32456750395E+02  0.52192295377E+02  0.13709862915E+03  0.15024483505E+03  0.00000000000E+00 0. -1.
         -3    1    3    3    0  502 -0.34327600321E+02  0.18680093745E+03  0.37181380060E+03  0.41751464248E+03  0.00000000000E+00 0.  1.
         11    1    5    5    0    0  0.51142419874E+02  0.78534125752E+02 -0.15083012181E+03  0.17757500292E+03  0.00000000000E+00 0. -1.
        -11    1    5    5    0    0  0.21867319791E+03  0.90178504367E+02 -0.27924078804E+03  0.36595839632E+03  0.00000000000E+00 0.  1.
          4    1    6    6  503    0 -0.24988853594E+03 -0.31498623169E+03 -0.34406944114E+02  0.40353989190E+03  0.00000000000E+00 0.  1.
         -4    1    6    6    0  503 -0.18056231920E+02 -0.92719631248E+02 -0.97087292403E+01  0.94959027762E+02  0.00000000000E+00 0. -1.
<mgrwt>
<rscale>  0 0.16094172E+04</rscale>
<asrwt>0</asrwt>
<pdfrwt beam="1">  1        2 0.12115892E+00 0.16094172E+04</pdfrwt>
<pdfrwt beam="2">  1       -1 0.12650136E+00 0.16094172E+04</pdfrwt>
<totfact> 0.20906430E+01</totfact>
</mgrwt>
</event>
<event>
12    6  0.9491186E-008  0.2285175E+04  0.7818608E-02  0.8483789E-01
          2   -1    0    0  501    0  0.00000000000E+00  0.00000000000E+00  0.29803388926E+04  0.29803388926E+04  0.00000000000E+00 0. -1.
         -1   -1    0    0    0  501 -0.00000000000E+00 -0.00000000000E+00 -0.43803953065E+03  0.43803953065E+03  0.00000000000E+00 0.  1.
         24    2    1    2    0    0 -0.50209465241E+03 -0.25361928853E+02 -0.15399459347E+03  0.53184877731E+03  0.80040737717E+02 0.  0.
        254    2    1    2    0    0  0.50209465241E+03  0.25361928853E+02  0.26962939554E+04  0.28865296459E+04  0.89961660468E+03 0.  0.
         23    2    4    4    0    0 -0.49734600767E+02  0.12387575917E+03  0.35206121581E+02  0.16537879468E+03  0.91060092837E+02 0.  0.
         23    2    4    4    0    0  0.55182925318E+03 -0.98513830322E+02  0.26610878338E+04  0.27211508512E+04  0.95147235748E+02 0.  0.
          2    1    3    3  502    0 -0.14565087227E+03 -0.33730446912E+02 -0.72287002358E+02  0.16606423562E+03  0.00000000000E+00 0. -1.
         -3    1    3    3    0  502 -0.35644378014E+03  0.83685180589E+01 -0.81707591112E+02  0.36578454169E+03  0.00000000000E+00 0.  1.
         11    1    5    5    0    0 -0.74198891950E+02  0.71457216812E+02  0.30033786480E+02  0.10730162036E+03  0.00000000000E+00 0. -1.
        -11    1    5    5    0    0  0.24464291183E+02  0.52418542363E+02  0.51723351013E+01  0.58077174320E+02  0.00000000000E+00 0.  1.
          3    1    6    6  503    0  0.23191005404E+03 -0.42287250280E+00  0.97774992757E+03  0.10048767949E+04  0.00000000000E+00 0. -1.
         -3    1    6    6    0  503  0.31991919914E+03 -0.98090957819E+02  0.16833379062E+04  0.17162740564E+04  0.00000000000E+00 0.  1.
<mgrwt>
<rscale>  0 0.22851750E+04</rscale>
<asrwt>0</asrwt>
<pdfrwt beam="1">  1        2 0.45851366E+00 0.22851750E+04</pdfrwt>
<pdfrwt beam="2">  1       -1 0.67390699E-01 0.22851750E+04</pdfrwt>
<totfact> 0.41286336E+00</totfact>
</mgrwt>
</event>
<event>
12    6  0.9491186E-008  0.2920851E+04  0.7818608E-02  0.8266701E-01
         -3   -1    0    0    0  501 -0.00000000000E+00  0.00000000000E+00  0.88574831629E+03  0.88574831629E+03  0.00000000000E+00 0.  1.
          2   -1    0    0  501    0  0.00000000000E+00 -0.00000000000E+00 -0.24079555640E+04  0.24079555640E+04  0.00000000000E+00 0. -1.
         24    2    1    2    0    0  0.48785650062E+03 -0.22532139015E+03  0.66849295963E+03  0.86346301294E+03  0.99558242169E+02 0.  0.
        254    2    1    2    0    0 -0.48785650062E+03  0.22532139015E+03 -0.21907002073E+04  0.24302408673E+04  0.90450515796E+03 0.  0.
         23    2    4    4    0    0 -0.52610423590E+03  0.45116749404E+03 -0.10351229267E+04  0.12488130885E+04  0.87845784893E+02 0.  0.
         23    2    4    4    0    0  0.38247735277E+02 -0.22584610388E+03 -0.11555772806E+04  0.11814277788E+04  0.89125715668E+02 0.  0.
          4    1    3    3  502    0 -0.29493770324E+01 -0.25852000141E+01 -0.92705307613E+00  0.40300758551E+01  0.00000000000E+00 0. -1.
         -3    1    3    3    0  502  0.49080587765E+03 -0.22273619014E+03  0.66942001270E+03  0.85943293709E+03  0.00000000000E+00 0.  1.
         11    1    5    5    0    0 -0.46501810757E+03  0.41561497777E+03 -0.88273741169E+03  0.10808343944E+04  0.00000000000E+00 0.  1.
        -11    1    5    5    0    0 -0.61086128325E+02  0.35552516264E+02 -0.15238551502E+03  0.16797869411E+03  0.00000000000E+00 0. -1.
          4    1    6    6  503    0  0.23051114015E+02 -0.75126407122E+02 -0.21885245600E+03  0.23253328450E+03  0.00000000000E+00 0. -1.
         -4    1    6    6    0  503  0.15196621262E+02 -0.15071969676E+03 -0.93672482459E+03  0.94889449429E+03  0.00000000000E+00 0.  1.
<mgrwt>
<rscale>  0 0.29208510E+04</rscale>
<asrwt>0</asrwt>
<pdfrwt beam="1">  1        2 0.37045470E+00 0.29208510E+04</pdfrwt>
<pdfrwt beam="2">  1       -3 0.13626897E+00 0.29208510E+04</pdfrwt>
<totfact> 0.88984413E-01</totfact>
</mgrwt>
</event>
<event>
12    6  0.9491186E-008  0.1327240E+04  0.7818608E-02  0.9008238E-01
          2   -1    0    0  501    0  0.00000000000E+00  0.00000000000E+00  0.15059901617E+04  0.15059901617E+04  0.00000000000E+00 0. -1.
         -1   -1    0    0    0  501 -0.00000000000E+00 -0.00000000000E+00 -0.29242657136E+03  0.29242657136E+03  0.00000000000E+00 0.  1.
         24    2    1    2    0    0 -0.90685666249E+02  0.10314479878E+03 -0.10882196473E+03  0.19266096342E+03  0.80083002199E+02 0.  0.
        254    2    1    2    0    0  0.90685666249E+02 -0.10314479878E+03  0.13223855550E+04  0.16057557696E+04  0.90049169673E+03 0.  0.
         23    2    4    4    0    0  0.20012025208E+03 -0.13759510427E+03 -0.13857462377E+02  0.26126872341E+03  0.95335138090E+02 0.  0.
         23    2    4    4    0    0 -0.10943458583E+03  0.34450305487E+02  0.13362430174E+04  0.13444870462E+04  0.94537102167E+02 0.  0.
          4    1    3    3  502    0 -0.90380376012E+01  0.42344986613E+02 -0.72750260855E+02  0.84660406740E+02  0.00000000000E+00 0. -1.
         -3    1    3    3    0  502 -0.81647628648E+02  0.60799812171E+02 -0.36071703872E+02  0.10800055668E+03  0.00000000000E+00 0.  1.
         11    1    5    5    0    0  0.16300181399E+03 -0.12310769604E+03 -0.46810472860E+02  0.20956220212E+03  0.00000000000E+00 0. -1.
        -11    1    5    5    0    0  0.37118438096E+02 -0.14487408229E+02  0.32953010483E+02  0.51706521288E+02  0.00000000000E+00 0.  1.
          1    1    6    6  503    0 -0.81335168778E+02 -0.20981308518E+02  0.88648177264E+03  0.89045244579E+03  0.00000000000E+00 0. -1.
         -1    1    6    6    0  503 -0.28099417055E+02  0.55431614005E+02  0.44976124477E+03  0.45403460040E+03  0.00000000000E+00 0.  1.
<mgrwt>
<rscale>  0 0.13272401E+04</rscale>
<asrwt>0</asrwt>
<pdfrwt beam="1">  1        2 0.23169079E+00 0.13272401E+04</pdfrwt>
<pdfrwt beam="2">  1       -1 0.44988704E-01 0.13272401E+04</pdfrwt>
<totfact> 0.68780394E+01</totfact>
</mgrwt>
</event>
<event>
12    6  0.9491186E-008  0.3106508E+04  0.7818608E-02  0.8213954E-01
         -1   -1    0    0    0  501 -0.00000000000E+00  0.00000000000E+00  0.11499355463E+04  0.11499355463E+04  0.00000000000E+00 0.  1.
          2   -1    0    0  501    0  0.00000000000E+00 -0.00000000000E+00 -0.20980282207E+04  0.20980282207E+04  0.00000000000E+00 0. -1.
         24    2    1    2    0    0  0.33190452407E+03  0.48862758448E+03  0.91719821441E+03  0.10937702955E+04  0.78507103679E+02 0.  0.
        254    2    1    2    0    0 -0.33190452407E+03 -0.48862758448E+03 -0.18652908888E+04  0.21541934716E+04  0.90128901233E+03 0.  0.
         23    2    4    4    0    0 -0.26243868531E+03 -0.73434500664E+03 -0.15594296137E+04  0.17459395758E+04  0.91365364823E+02 0.  0.
         23    2    4    4    0    0 -0.69465838763E+02  0.24571742217E+03 -0.30586127504E+03  0.40825389574E+03  0.88980725472E+02 0.  0.
          4    1    3    3  502    0  0.19354482083E+02  0.63747406356E+02  0.13200816335E+03  0.14786643630E+03  0.00000000000E+00 0. -1.
         -3    1    3    3    0  502  0.31255004199E+03  0.42488017812E+03  0.78519005107E+03  0.94590385917E+03  0.00000000000E+00 0.  1.
         11    1    5    5    0    0 -0.15851132007E+03 -0.52989646119E+03 -0.10339468438E+04  0.11725878108E+04  0.00000000000E+00 0.  1.
        -11    1    5    5    0    0 -0.10392736524E+03 -0.20444854546E+03 -0.52548276990E+03  0.57335176502E+03  0.00000000000E+00 0. -1.
          4    1    6    6  503    0 -0.76933070882E+00  0.16126502998E+03 -0.17348729213E+03  0.23686460752E+03  0.00000000000E+00 0. -1.
         -4    1    6    6    0  503 -0.68696508054E+02  0.84452392181E+02 -0.13237398291E+03  0.17138928822E+03  0.00000000000E+00 0.  1.
<mgrwt>
<rscale>  0 0.31065075E+04</rscale>
<asrwt>0</asrwt>
<pdfrwt beam="1">  1        2 0.32277357E+00 0.31065075E+04</pdfrwt>
<pdfrwt beam="2">  1       -1 0.17691316E+00 0.31065075E+04</pdfrwt>
<totfact> 0.12453477E+00</totfact>
</mgrwt>
</event>
<event>
12    6  0.9491186E-008  0.2399989E+04  0.7818608E-02  0.8439508E-01
         -1   -1    0    0    0  501 -0.00000000000E+00  0.00000000000E+00  0.56336658460E+03  0.56336658460E+03  0.00000000000E+00 0.  1.
          2   -1    0    0  501    0  0.00000000000E+00 -0.00000000000E+00 -0.25560391135E+04  0.25560391135E+04  0.00000000000E+00 0. -1.
         24    2    1    2    0    0  0.11689641071E+03  0.23095195671E+03 -0.21488961733E+04  0.21659160860E+04  0.80213160540E+02 0.  0.
        254    2    1    2    0    0 -0.11689641071E+03 -0.23095195671E+03  0.15622364436E+03  0.95348961208E+03  0.90428592610E+03 0.  0.
         23    2    4    4    0    0 -0.16778963866E+03 -0.15103590752E+03 -0.35196112116E+03  0.42871412166E+03  0.94625361839E+02 0.  0.
         23    2    4    4    0    0  0.50893227951E+02 -0.79916049185E+02  0.50818476552E+03  0.52477549041E+03  0.90337499771E+02 0.  0.
          4    1    3    3  502    0  0.65943187163E+02  0.20133006943E+03 -0.17147615537E+04  0.17277990296E+04  0.00000000000E+00 0. -1.
         -3    1    3    3    0  502  0.50953223545E+02  0.29621887285E+02 -0.43413461960E+03  0.43811705643E+03  0.00000000000E+00 0.  1.
         11    1    5    5    0    0 -0.79329980130E+02 -0.11397666771E+03 -0.26532783578E+03  0.29947084494E+03  0.00000000000E+00 0. -1.
        -11    1    5    5    0    0 -0.88459658530E+02 -0.37059239816E+02 -0.86633285382E+02  0.12924327673E+03  0.00000000000E+00 0.  1.
          3    1    6    6  503    0  0.49899404192E+02 -0.44251078239E+01  0.27940884093E+03  0.28386410923E+03  0.00000000000E+00 0. -1.
         -3    1    6    6    0  503  0.99382375872E+00 -0.75490941361E+02  0.22877592459E+03  0.24091138118E+03  0.00000000000E+00 0.  1.
<mgrwt>
<rscale>  0 0.23999892E+04</rscale>
<asrwt>0</asrwt>
<pdfrwt beam="1">  1        2 0.39323679E+00 0.23999892E+04</pdfrwt>
<pdfrwt beam="2">  1       -1 0.86671782E-01 0.23999892E+04</pdfrwt>
<totfact> 0.43341731E+00</totfact>
</mgrwt>
</event>
<event>
12    6  0.9491186E-008  0.1280869E+04  0.7818608E-02  0.9044875E-01
          2   -1    0    0  501    0  0.00000000000E+00  0.00000000000E+00  0.12764402416E+04  0.12764402416E+04  0.00000000000E+00 0. -1.
         -1   -1    0    0    0  501 -0.00000000000E+00 -0.00000000000E+00 -0.32132852400E+03  0.32132852400E+03  0.00000000000E+00 0.  1.
         24    2    1    2    0    0  0.12274594278E+03 -0.24011461503E+03  0.48204454393E+03  0.55803957260E+03  0.79496084397E+02 0.  0.
        254    2    1    2    0    0 -0.12274594278E+03  0.24011461503E+03  0.47306717366E+03  0.10397291930E+04  0.88573283170E+03 0.  0.
         23    2    4    4    0    0 -0.12570271290E+03 -0.48967508112E+02 -0.22553365372E+03  0.27850959778E+03  0.92212679247E+02 0.  0.
         23    2    4    4    0    0  0.29567701165E+01  0.28908212314E+03  0.69860082737E+03  0.76121959522E+03  0.88515194892E+02 0.  0.
          4    1    3    3  502    0  0.11625758514E+03 -0.19377172362E+03  0.33796126973E+03  0.40654781615E+03  0.00000000000E+00 0. -1.
         -3    1    3    3    0  502  0.64883576475E+01 -0.46342891406E+02  0.14408327419E+03  0.15149175644E+03  0.00000000000E+00 0.  1.
         11    1    5    5    0    0 -0.96948068721E+02 -0.76576990838E+02 -0.17011002390E+03  0.21023887315E+03  0.00000000000E+00 0. -1.
        -11    1    5    5    0    0 -0.28754644178E+02  0.27609482726E+02 -0.55423629821E+02  0.68270724624E+02  0.00000000000E+00 0.  1.
          1    1    6    6  503    0 -0.38752484703E+02  0.20323956440E+03  0.47618754492E+03  0.51919423489E+03  0.00000000000E+00 0. -1.
         -1    1    6    6    0  503  0.41709254820E+02  0.85842558739E+02  0.22241328245E+03  0.24202536032E+03  0.00000000000E+00 0.  1.
<mgrwt>
<rscale>  0 0.12808695E+04</rscale>
<asrwt>0</asrwt>
<pdfrwt beam="1">  1        2 0.19637542E+00 0.12808695E+04</pdfrwt>
<pdfrwt beam="2">  1       -1 0.49435158E-01 0.12808695E+04</pdfrwt>
<totfact> 0.78285879E+01</totfact>
</mgrwt>
</event>
<event>
12    6  0.9491186E-008  0.2927559E+04  0.7818608E-02  0.8264725E-01
         -1   -1    0    0    0  501 -0.00000000000E+00  0.00000000000E+00  0.13232883272E+04  0.13232883272E+04  0.00000000000E+00 0.  1.
          2   -1    0    0  501    0  0.00000000000E+00 -0.00000000000E+00 -0.16191863223E+04  0.16191863223E+04  0.00000000000E+00 0. -1.
         24    2    1    2    0    0  0.76558830321E+03 -0.96728030209E+03  0.35111355977E+03  0.12850778943E+04  0.79923899301E+02 0.  0.
        254    2    1    2    0    0 -0.76558830321E+03  0.96728030209E+03 -0.64701155480E+03  0.16573967552E+04  0.89809989386E+03 0.  0.
         23    2    4    4    0    0  0.90425227990E+02  0.30938557460E+03 -0.44199461828E+03  0.55487490102E+03  0.92901870635E+02 0.  0.
         23    2    4    4    0    0 -0.85601353120E+03  0.65789472749E+03 -0.20501693652E+03  0.11025218542E+04  0.89094650079E+02 0.  0.
          2    1    3    3  502    0  0.40013987584E+03 -0.48726426386E+03  0.21923418322E+03  0.66753427640E+03  0.00000000000E+00 0. -1.
         -1    1    3    3    0  502  0.36544842737E+03 -0.48001603823E+03  0.13187937656E+03  0.61754361788E+03  0.00000000000E+00 0.  1.
         11    1    5    5    0    0 -0.17342174513E+02  0.77921341675E+02 -0.95484406906E+02  0.12445785820E+03  0.00000000000E+00 0.  1.
        -11    1    5    5    0    0  0.10776740250E+03  0.23146423292E+03 -0.34651021137E+03  0.43041704282E+03  0.00000000000E+00 0. -1.
          2    1    6    6  503    0 -0.39190637261E+03  0.30797000081E+03 -0.13957300107E+03  0.51760675123E+03  0.00000000000E+00 0. -1.
         -2    1    6    6    0  503 -0.46410715859E+03  0.34992472668E+03 -0.65443935456E+02  0.58491510297E+03  0.00000000000E+00 0.  1.
<mgrwt>
<rscale>  0 0.29275590E+04</rscale>
<asrwt>0</asrwt>
<pdfrwt beam="1">  1        2 0.24910559E+00 0.29275590E+04</pdfrwt>
<pdfrwt beam="2">  1       -1 0.20358282E+00 0.29275590E+04</pdfrwt>
<totfact> 0.15166501E+00</totfact>
</mgrwt>
</event>
<event>
12    6  0.9491186E-008  0.1462393E+04  0.7818608E-02  0.8909853E-01
         -1   -1    0    0    0  501 -0.00000000000E+00  0.00000000000E+00  0.44372421312E+03  0.44372421312E+03  0.00000000000E+00 0.  1.
          2   -1    0    0  501    0  0.00000000000E+00 -0.00000000000E+00 -0.12049117807E+04  0.12049117807E+04  0.00000000000E+00 0. -1.
         24    2    1    2    0    0 -0.42948307980E+03 -0.10316630719E+03 -0.33225405748E+03  0.55958512553E+03  0.87428549318E+02 0.  0.
        254    2    1    2    0    0  0.42948307980E+03  0.10316630719E+03 -0.42893351008E+03  0.10890508683E+04  0.89830330893E+03 0.  0.
         23    2    4    4    0    0  0.14510892709E+03 -0.10245723743E+03 -0.63869331661E+03  0.66927088824E+03  0.91871012563E+02 0.  0.
         23    2    4    4    0    0  0.28437415271E+03  0.20562354462E+03  0.20975980653E+03  0.41977998002E+03  0.95217405785E+02 0.  0.
          4    1    3    3  502    0 -0.72634806024E+02 -0.23656855323E+02 -0.10232395791E+03  0.12769359503E+03  0.00000000000E+00 0. -1.
         -3    1    3    3    0  502 -0.35684827377E+03 -0.79509451863E+02 -0.22993009957E+03  0.43189153050E+03  0.00000000000E+00 0.  1.
         11    1    5    5    0    0  0.14295021909E+03 -0.69954447443E+02 -0.43941449881E+03  0.46734729230E+03  0.00000000000E+00 0.  1.
        -11    1    5    5    0    0  0.21587080043E+01 -0.32502789990E+02 -0.19927881779E+03  0.20192359594E+03  0.00000000000E+00 0. -1.
          2    1    6    6  503    0  0.22608731327E+03  0.17247501020E+03  0.20867838403E+03  0.35271769211E+03  0.00000000000E+00 0.  1.
         -2    1    6    6    0  503  0.58286839434E+02  0.33148534422E+02  0.10814224963E+01  0.67062287914E+02  0.00000000000E+00 0. -1.
<mgrwt>
<rscale>  0 0.14623933E+04</rscale>
<asrwt>0</asrwt>
<pdfrwt beam="1">  1        2 0.18537104E+00 0.14623933E+04</pdfrwt>
<pdfrwt beam="2">  1       -1 0.68265264E-01 0.14623933E+04</pdfrwt>
<totfact> 0.45149437E+01</totfact>
</mgrwt>
</event>
<event>
12    6  0.9491186E-008  0.1222467E+04  0.7818608E-02  0.9093415E-01
         -1   -1    0    0    0  501 -0.00000000000E+00  0.00000000000E+00  0.17780789814E+03  0.17780789814E+03  0.00000000000E+00 0.  1.
          2   -1    0    0  501    0  0.00000000000E+00 -0.00000000000E+00 -0.21011796400E+04  0.21011796400E+04  0.00000000000E+00 0. -1.
         24    2    1    2    0    0  0.28544434932E+01 -0.15278374813E+03 -0.85380989679E+03  0.87078287273E+03  0.76944460801E+02 0.  0.
        254    2    1    2    0    0 -0.28544434932E+01  0.15278374813E+03 -0.10695618451E+04  0.14082046654E+04  0.90317596167E+03 0.  0.
         23    2    4    4    0    0 -0.44344171667E+00 -0.32265295596E+03 -0.76758657688E+03  0.83763976116E+03  0.91356936434E+02 0.  0.
         23    2    4    4    0    0 -0.24110017765E+01  0.47543670409E+03 -0.30197526821E+03  0.57056490428E+03  0.91155772472E+02 0.  0.
          2    1    3    3  502    0  0.95743207342E+01 -0.72946812741E+02 -0.22107937861E+03  0.23299999303E+03  0.00000000000E+00 0. -1.
         -1    1    3    3    0  502 -0.67198772410E+01 -0.79836935394E+02 -0.63273051818E+03  0.63778287970E+03  0.00000000000E+00 0.  1.
         11    1    5    5    0    0 -0.89615820121E+01 -0.32311992420E+03 -0.71913283754E+03  0.78844076087E+03  0.00000000000E+00 0.  1.
        -11    1    5    5    0    0  0.85181402954E+01  0.46696824276E+00 -0.48453739345E+02  0.49199000294E+02  0.00000000000E+00 0. -1.
          1    1    6    6  503    0  0.32767377527E+02  0.73187167935E+02 -0.45170582316E+02  0.92035015549E+02  0.00000000000E+00 0. -1.
         -1    1    6    6    0  503 -0.35178379304E+02  0.40224953616E+03 -0.25680468590E+03  0.47852988873E+03  0.00000000000E+00 0.  1.
<mgrwt>
<rscale>  0 0.12224669E+04</rscale>
<asrwt>0</asrwt>
<pdfrwt beam="1">  1        2 0.32325842E+00 0.12224669E+04</pdfrwt>
<pdfrwt beam="2">  1       -1 0.27355060E-01 0.12224669E+04</pdfrwt>
<totfact> 0.79104584E+01</totfact>
</mgrwt>
</event>
<event>
12    6  0.9491186E-008  0.3876268E+04  0.7818608E-02  0.8029983E-01
          2   -1    0    0  501    0  0.00000000000E+00  0.00000000000E+00  0.27720004514E+04  0.27720004514E+04  0.00000000000E+00 0. -1.
         -1   -1    0    0    0  501 -0.00000000000E+00 -0.00000000000E+00 -0.13551092080E+04  0.13551092080E+04  0.00000000000E+00 0.  1.
         24    2    1    2    0    0  0.14558076963E+04  0.19558190679E+03  0.18379047373E+04  0.23542186223E+04  0.82602464579E+02 0.  0.
        254    2    1    2    0    0 -0.14558076963E+04 -0.19558190679E+03 -0.42101349392E+03  0.17728910371E+04  0.89903389067E+03 0.  0.
         23    2    4    4    0    0 -0.13954145315E+04 -0.16758421850E+03 -0.62193809344E+03  0.15395187576E+04  0.89692963917E+02 0.  0.
         23    2    4    4    0    0 -0.60393164774E+02 -0.27997688288E+02  0.20092459952E+03  0.23337227954E+03  0.98288968169E+02 0.  0.
          4    1    3    3  502    0  0.13229693972E+04  0.20144868801E+03  0.16753685300E+04  0.21442223092E+04  0.00000000000E+00 0. -1.
         -3    1    3    3    0  502  0.13283829909E+03 -0.58667812190E+01  0.16253620731E+03  0.20999631309E+03  0.00000000000E+00 0.  1.
         11    1    5    5    0    0 -0.47207715125E+03 -0.77682615149E+02 -0.25240935156E+03  0.54092689542E+03  0.00000000000E+00 0.  1.
        -11    1    5    5    0    0 -0.92333738029E+03 -0.89901603352E+02 -0.36952874188E+03  0.99859186217E+03  0.00000000000E+00 0. -1.
          4    1    6    6  503    0 -0.11424573907E+02 -0.50173752028E+01  0.17119312648E+03  0.17164725892E+03  0.00000000000E+00 0. -1.
         -4    1    6    6    0  503 -0.48968590866E+02 -0.22980313085E+02  0.29731473049E+02  0.61725020620E+02  0.00000000000E+00 0.  1.
<mgrwt>
<rscale>  0 0.38762680E+04</rscale>
<asrwt>0</asrwt>
<pdfrwt beam="1">  1        2 0.42646161E+00 0.38762680E+04</pdfrwt>
<pdfrwt beam="2">  1       -1 0.20847834E+00 0.38762680E+04</pdfrwt>
<totfact> 0.28645058E-01</totfact>
</mgrwt>
</event>
<event>
12    6  0.9491186E-008  0.1972845E+04  0.7818608E-02  0.8619423E-01
         -1   -1    0    0    0  501 -0.00000000000E+00  0.00000000000E+00  0.78675843260E+03  0.78675843260E+03  0.00000000000E+00 0.  1.
          2   -1    0    0  501    0  0.00000000000E+00 -0.00000000000E+00 -0.12367568236E+04  0.12367568236E+04  0.00000000000E+00 0. -1.
         24    2    1    2    0    0 -0.54300462896E+03 -0.49805514103E+03 -0.42604375636E+03  0.85489337095E+03  0.80102701477E+02 0.  0.
        254    2    1    2    0    0  0.54300462896E+03  0.49805514103E+03 -0.23954634659E+02  0.11686218853E+04  0.90674711780E+03 0.  0.
         23    2    4    4    0    0 -0.20740340471E+03 -0.44640752714E+02 -0.53436610271E+02  0.23811929438E+03  0.94001903974E+02 0.  0.
         23    2    4    4    0    0  0.75040803367E+03  0.54269589374E+03  0.29481975611E+02  0.93050259089E+03  0.85643649416E+02 0.  0.
          2    1    3    3  502    0 -0.53337347404E+03 -0.47185508881E+03 -0.40035077325E+03  0.81695485144E+03  0.00000000000E+00 0. -1.
         -1    1    3    3    0  502 -0.96311549116E+01 -0.26200052222E+02 -0.25692983116E+02  0.37938519512E+02  0.00000000000E+00 0.  1.
         11    1    5    5    0    0 -0.11716475911E+03 -0.30297699221E+01  0.13984978674E+02  0.11803533332E+03  0.00000000000E+00 0. -1.
        -11    1    5    5    0    0 -0.90238645605E+02 -0.41610982792E+02 -0.67421588945E+02  0.12008396107E+03  0.00000000000E+00 0.  1.
          1    1    6    6  503    0  0.15113848505E+03  0.80084654862E+02 -0.17819582843E+02  0.17197072757E+03  0.00000000000E+00 0. -1.
         -1    1    6    6    0  503  0.59926954861E+03  0.46261123888E+03  0.47301558454E+02  0.75853186332E+03  0.00000000000E+00 0.  1.
<mgrwt>
<rscale>  0 0.19728445E+04</rscale>
<asrwt>0</asrwt>
<pdfrwt beam="1">  1        2 0.19027028E+00 0.19728445E+04</pdfrwt>
<pdfrwt beam="2">  1       -1 0.12103976E+00 0.19728445E+04</pdfrwt>
<totfact> 0.11588092E+01</totfact>
</mgrwt>
</event>
<event>
12    6  0.9491186E-008  0.3442974E+04  0.7818608E-02  0.8127439E-01
          2   -1    0    0  501    0  0.00000000000E+00  0.00000000000E+00  0.39778305222E+04  0.39778305222E+04  0.00000000000E+00 0. -1.
         -1   -1    0    0    0  501 -0.00000000000E+00 -0.00000000000E+00 -0.74500846030E+03  0.74500846030E+03  0.00000000000E+00 0.  1.
         24    2    1    2    0    0 -0.54197668588E+03 -0.14334891588E+03 -0.55387332707E+03  0.79215050653E+03  0.80244145188E+02 0.  0.
        254    2    1    2    0    0  0.54197668588E+03  0.14334891588E+03  0.37866953889E+04  0.39306884759E+04  0.89272744242E+03 0.  0.
         23    2    4    4    0    0  0.31478540246E+03 -0.36056712598E+03  0.15270269628E+04  0.16026212719E+04  0.86516438550E+02 0.  0.
         23    2    4    4    0    0  0.22719128342E+03  0.50391604186E+03  0.22596684261E+04  0.23280672040E+04  0.90819897590E+02 0.  0.
          4    1    3    3  502    0 -0.43209767309E+02 -0.39984930792E+01 -0.18135026525E+02  0.47031384467E+02  0.00000000000E+00 0. -1.
         -3    1    3    3    0  502 -0.49876691857E+03 -0.13935042280E+03 -0.53573830055E+03  0.74511912207E+03  0.00000000000E+00 0.  1.
         11    1    5    5    0    0  0.45911423190E+02 -0.10694755349E+03  0.33870884146E+03  0.35814706094E+03  0.00000000000E+00 0. -1.
        -11    1    5    5    0    0  0.26887397927E+03 -0.25361957249E+03  0.11883181213E+04  0.12444742110E+04  0.00000000000E+00 0.  1.
          4    1    6    6  503    0  0.18698385134E+03  0.33923832686E+03  0.14503453671E+04  0.15011819633E+04  0.00000000000E+00 0. -1.
         -4    1    6    6    0  503  0.40207432080E+02  0.16467771500E+03  0.80932305903E+03  0.82688524070E+03  0.00000000000E+00 0.  1.
<mgrwt>
<rscale>  0 0.34429739E+04</rscale>
<asrwt>0</asrwt>
<pdfrwt beam="1">  1        2 0.61197391E+00 0.34429739E+04</pdfrwt>
<pdfrwt beam="2">  1       -1 0.11461669E+00 0.34429739E+04</pdfrwt>
<totfact> 0.23057886E-01</totfact>
</mgrwt>
</event>
<event>
12    6  0.9491186E-008  0.1474228E+04  0.7818608E-02  0.8901774E-01
          2   -1    0    0  501    0  0.00000000000E+00  0.00000000000E+00  0.15148969312E+04  0.15148969312E+04  0.00000000000E+00 0. -1.
         -1   -1    0    0    0  501 -0.00000000000E+00 -0.00000000000E+00 -0.35866257150E+03  0.35866257150E+03  0.00000000000E+00 0.  1.
         24    2    1    2    0    0  0.21324516301E+03 -0.38542052439E+03  0.16879161143E+03  0.48016795841E+03  0.89711649361E+02 0.  0.
        254    2    1    2    0    0 -0.21324516301E+03  0.38542052439E+03  0.98744274827E+03  0.13933915443E+04  0.87890519081E+03 0.  0.
         23    2    4    4    0    0 -0.42441350536E+03 -0.69935173721E+02  0.63488001894E+03  0.77254736590E+03  0.93482843649E+02 0.  0.
         23    2    4    4    0    0  0.21116834235E+03  0.45535569811E+03  0.35256272933E+03  0.62084417839E+03  0.95948606664E+02 0.  0.
          4    1    3    3  502    0  0.13112278851E+03 -0.17878388350E+03  0.12155458104E+03  0.25284852944E+03  0.00000000000E+00 0. -1.
         -3    1    3    3    0  502  0.82122374501E+02 -0.20663664089E+03  0.47237030392E+02  0.22731942898E+03  0.00000000000E+00 0.  1.
         11    1    5    5    0    0 -0.20197448286E+03 -0.52410268840E+02  0.38220793972E+03  0.43545773295E+03  0.00000000000E+00 0. -1.
        -11    1    5    5    0    0 -0.22243902250E+03 -0.17524904882E+02  0.25267207922E+03  0.33708963295E+03  0.00000000000E+00 0.  1.
          3    1    6    6  503    0  0.12603059412E+03  0.36821127205E+03  0.27035427935E+03  0.47387201635E+03  0.00000000000E+00 0. -1.
         -3    1    6    6    0  503  0.85137748232E+02  0.87144426061E+02  0.82208449978E+02  0.14697216204E+03  0.00000000000E+00 0.  1.
<mgrwt>
<rscale>  0 0.14742277E+04</rscale>
<asrwt>0</asrwt>
<pdfrwt beam="1">  1        2 0.23306106E+00 0.14742277E+04</pdfrwt>
<pdfrwt beam="2">  1       -1 0.55178858E-01 0.14742277E+04</pdfrwt>
<totfact> 0.45592427E+01</totfact>
</mgrwt>
</event>
<event>
12    6  0.9491186E-008  0.3197542E+04  0.7818608E-02  0.8189467E-01
         -1   -1    0    0    0  501 -0.00000000000E+00  0.00000000000E+00  0.13114903027E+04  0.13114903027E+04  0.00000000000E+00 0.  1.
          2   -1    0    0  501    0  0.00000000000E+00 -0.00000000000E+00 -0.19489798720E+04  0.19489798720E+04  0.00000000000E+00 0. -1.
         24    2    1    2    0    0 -0.15719325066E+03  0.10323080624E+04 -0.13465223029E+04  0.17057809566E+04  0.78719158612E+02 0.  0.
        254    2    1    2    0    0  0.15719325066E+03 -0.10323080624E+04  0.70903273365E+03  0.15546892180E+04  0.90772324726E+03 0.  0.
         23    2    4    4    0    0 -0.23704332204E+02 -0.11340592556E+04  0.68194080668E+03  0.13266840557E+04  0.91624391552E+02 0.  0.
         23    2    4    4    0    0  0.18089758287E+03  0.10175119327E+03  0.27091926966E+02  0.22800516236E+03  0.90416484874E+02 0.  0.
          4    1    3    3  502    0 -0.15621023258E+03  0.97918314520E+03 -0.13011726928E+04  0.16359253177E+04  0.00000000000E+00 0. -1.
         -3    1    3    3    0  502 -0.98301808299E+00  0.53124917155E+02 -0.45349610184E+02  0.69855638936E+02  0.00000000000E+00 0.  1.
         11    1    5    5    0    0  0.30941686921E+02 -0.20552060235E+03  0.12755235991E+03  0.24385592159E+03  0.00000000000E+00 0. -1.
        -11    1    5    5    0    0 -0.54646019125E+02 -0.92853865328E+03  0.55438844677E+03  0.10828281341E+04  0.00000000000E+00 0.  1.
          3    1    6    6  503    0 -0.30333358996E+01  0.23211960606E+02  0.14661715938E+02  0.27621769604E+02  0.00000000000E+00 0. -1.
         -3    1    6    6    0  503  0.18393091877E+03  0.78539232661E+02  0.12430211028E+02  0.20038339275E+03  0.00000000000E+00 0.  1.
<mgrwt>
<rscale>  0 0.31975417E+04</rscale>
<asrwt>0</asrwt>
<pdfrwt beam="1">  1        2 0.29984306E+00 0.31975417E+04</pdfrwt>
<pdfrwt beam="2">  1       -1 0.20176774E+00 0.31975417E+04</pdfrwt>
<totfact> 0.10000363E+00</totfact>
</mgrwt>
</event>
<event>
12    6  0.9491186E-008  0.2749355E+04  0.7818608E-02  0.8319166E-01
          2   -1    0    0  501    0  0.00000000000E+00  0.00000000000E+00  0.15914520178E+04  0.15914520178E+04  0.00000000000E+00 0. -1.
         -1   -1    0    0    0  501 -0.00000000000E+00 -0.00000000000E+00 -0.11874303637E+04  0.11874303637E+04  0.00000000000E+00 0.  1.
         24    2    1    2    0    0  0.64996138795E+02 -0.59503726183E+03  0.12684726165E+04  0.14049172712E+04  0.80473094463E+02 0.  0.
        254    2    1    2    0    0 -0.64996138795E+02  0.59503726183E+03 -0.86445096244E+03  0.13739651104E+04  0.88442682966E+03 0.  0.
         23    2    4    4    0    0  0.79950943660E+02 -0.12575330234E+03 -0.53568785562E+03  0.56377175481E+03  0.93118561092E+02 0.  0.
         23    2    4    4    0    0 -0.14494708245E+03  0.72079056417E+03 -0.32876310682E+03  0.81019335556E+03  0.88200900695E+02 0.  0.
          4    1    3    3  502    0  0.34094872428E+02 -0.94515518181E+02  0.17172075890E+03  0.19895643378E+03  0.00000000000E+00 0. -1.
         -3    1    3    3    0  502  0.30901266367E+02 -0.50052174365E+03  0.10967518576E+04  0.12059608374E+04  0.00000000000E+00 0.  1.
         11    1    5    5    0    0  0.28826560200E+02 -0.11765341013E+03 -0.41812641935E+03  0.43531942071E+03  0.00000000000E+00 0.  1.
        -11    1    5    5    0    0  0.51124383459E+02 -0.80998922141E+01 -0.11756143627E+03  0.12845233410E+03  0.00000000000E+00 0. -1.
          1    1    6    6  503    0  0.65396463232E+01  0.54139063019E+01 -0.81010454048E+01  0.11734747212E+02  0.00000000000E+00 0. -1.
         -1    1    6    6    0  503 -0.15148672878E+03  0.71537665787E+03 -0.32066206142E+03  0.79845860835E+03  0.00000000000E+00 0.  1.
<mgrwt>
<rscale>  0 0.27493552E+04</rscale>
<asrwt>0</asrwt>
<pdfrwt beam="1">  1        2 0.24483877E+00 0.27493552E+04</pdfrwt>
<pdfrwt beam="2">  1       -1 0.18268160E+00 0.27493552E+04</pdfrwt>
<totfact> 0.22335522E+00</totfact>
</mgrwt>
</event>
<event>
12    6  0.9491186E-008  0.1622378E+04  0.7818608E-02  0.8806917E-01
         -3   -1    0    0    0  501 -0.00000000000E+00  0.00000000000E+00  0.12572699787E+04  0.12572699787E+04  0.00000000000E+00 0.  1.
          4   -1    0    0  501    0  0.00000000000E+00 -0.00000000000E+00 -0.52337807249E+03  0.52337807249E+03  0.00000000000E+00 0. -1.
         24    2    1    2    0    0 -0.24281370547E+02 -0.39249619931E+03 -0.19886664630E+03  0.44786076387E+03  0.79927901118E+02 0.  0.
        254    2    1    2    0    0  0.24281370547E+02  0.39249619931E+03  0.93275855249E+03  0.13327872873E+04  0.86697207827E+03 0.  0.
         23    2    4    4    0    0 -0.25629004486E+02 -0.20631700601E+03  0.84428210480E+01  0.22659859366E+03  0.89733430671E+02 0.  0.
         23    2    4    4    0    0  0.49910375033E+02  0.59881320532E+03  0.92431573144E+03  0.11061886936E+04  0.90694840762E+02 0.  0.
          4    1    3    3  502    0 -0.52131570132E+02 -0.20317158095E+03 -0.97442795790E+02  0.23128227421E+03  0.00000000000E+00 0. -1.
         -3    1    3    3    0  502  0.27850199585E+02 -0.18932461836E+03 -0.10142385051E+03  0.21657848967E+03  0.00000000000E+00 0.  1.
         11    1    5    5    0    0 -0.54534195935E+02 -0.96316733727E+02  0.19274046844E+02  0.11234936851E+03  0.00000000000E+00 0. -1.
        -11    1    5    5    0    0  0.28905191449E+02 -0.11000027228E+03 -0.10831225796E+02  0.11424922515E+03  0.00000000000E+00 0.  1.
          2    1    6    6  503    0  0.62202636067E+02  0.24022285046E+03  0.40510143685E+03  0.47506142756E+03  0.00000000000E+00 0. -1.
         -2    1    6    6    0  503 -0.12292261034E+02  0.35859035486E+03  0.51921429459E+03  0.63112726608E+03  0.00000000000E+00 0.  1.
<mgrwt>
<rscale>  0 0.16223779E+04</rscale>
<asrwt>0</asrwt>
<pdfrwt beam="1">  1        4 0.80519704E-01 0.16223779E+04</pdfrwt>
<pdfrwt beam="2">  1       -3 0.19342615E+00 0.16223779E+04</pdfrwt>
<totfact> 0.48349272E-01</totfact>
</mgrwt>
</event>
<event>
12    6  0.9491186E-008  0.2082472E+04  0.7818608E-02  0.8569004E-01
          2   -1    0    0  501    0  0.00000000000E+00  0.00000000000E+00  0.16665078143E+04  0.16665078143E+04  0.00000000000E+00 0. -1.
         -1   -1    0    0    0  501 -0.00000000000E+00 -0.00000000000E+00 -0.65056531133E+03  0.65056531133E+03  0.00000000000E+00 0.  1.
         24    2    1    2    0    0 -0.95071358506E+02 -0.48110528563E+03  0.11769538674E+04  0.12775573013E+04  0.80195965475E+02 0.  0.
        254    2    1    2    0    0  0.95071358506E+02  0.48110528563E+03 -0.16101136452E+03  0.10395158243E+04  0.90231237962E+03 0.  0.
         23    2    4    4    0    0  0.29085727476E+03 -0.43837374282E+02  0.19952719089E+03  0.36689682413E+03  0.91008296227E+02 0.  0.
         23    2    4    4    0    0 -0.19578591626E+03  0.52494265991E+03 -0.36053855542E+03  0.67261900018E+03  0.92365297927E+02 0.  0.
          4    1    3    3  502    0 -0.88962040650E+02 -0.28950720228E+03  0.65890192435E+03  0.72517612396E+03  0.00000000000E+00 0. -1.
         -3    1    3    3    0  502 -0.61093178559E+01 -0.19159808335E+03  0.51805194310E+03  0.55238117732E+03  0.00000000000E+00 0.  1.
         11    1    5    5    0    0  0.25342839721E+03 -0.86461657558E+01  0.18375450609E+03  0.31315559583E+03  0.00000000000E+00 0. -1.
        -11    1    5    5    0    0  0.37428877557E+02 -0.35191208526E+02  0.15772684804E+02  0.53741228295E+02  0.00000000000E+00 0.  1.
          1    1    6    6  503    0 -0.13465402572E+03  0.33952094069E+03 -0.28497321474E+03  0.46326656357E+03  0.00000000000E+00 0. -1.
         -1    1    6    6    0  503 -0.61131890539E+02  0.18542171923E+03 -0.75565340680E+02  0.20935243661E+03  0.00000000000E+00 0.  1.
<mgrwt>
<rscale>  0 0.20824718E+04</rscale>
<asrwt>0</asrwt>
<pdfrwt beam="1">  1        2 0.25638582E+00 0.20824718E+04</pdfrwt>
<pdfrwt beam="2">  1       -1 0.10008697E+00 0.20824718E+04</pdfrwt>
<totfact> 0.10235520E+01</totfact>
</mgrwt>
</event>
<event>
12    6  0.9491186E-008  0.1741383E+04  0.7818608E-02  0.8738108E-01
          2   -1    0    0  501    0  0.00000000000E+00  0.00000000000E+00  0.72373708366E+03  0.72373708366E+03  0.00000000000E+00 0. -1.
         -1   -1    0    0    0  501 -0.00000000000E+00 -0.00000000000E+00 -0.10474853773E+04  0.10474853773E+04  0.00000000000E+00 0.  1.
         24    2    1    2    0    0 -0.17252539030E+03  0.89125736293E+00  0.50587974884E+03  0.54059171064E+03  0.80989336917E+02 0.  0.
        254    2    1    2    0    0  0.17252539030E+03 -0.89125736293E+00 -0.82962804249E+03  0.12306307503E+04  0.89241444976E+03 0.  0.
         23    2    4    4    0    0  0.15270111234E+03  0.41850016758E+03 -0.57166376010E+03  0.72933922011E+03  0.81708159987E+02 0.  0.
         23    2    4    4    0    0  0.19824277961E+02 -0.41939142494E+03 -0.25796428239E+03  0.50129153022E+03  0.92007923441E+02 0.  0.
          2    1    3    3  502    0 -0.17321005743E+03  0.12871557138E+02  0.49425328678E+03  0.52388330044E+03  0.00000000000E+00 0. -1.
         -1    1    3    3    0  502  0.68466713074E+00 -0.11980299775E+02  0.11626462052E+02  0.16708410206E+02  0.00000000000E+00 0.  1.
         11    1    5    5    0    0  0.43623148107E+02  0.14332059537E+03 -0.13415131152E+03  0.20109785302E+03  0.00000000000E+00 0.  1.
        -11    1    5    5    0    0  0.10907796424E+03  0.27517957221E+03 -0.43751244858E+03  0.52824136709E+03  0.00000000000E+00 0. -1.
          4    1    6    6  503    0 -0.13842388543E+02 -0.26470701517E+03 -0.20243693906E+03  0.33352980361E+03  0.00000000000E+00 0.  1.
         -4    1    6    6    0  503  0.33666666504E+02 -0.15468440976E+03 -0.55527343329E+02  0.16776172661E+03  0.00000000000E+00 0. -1.
<mgrwt>
<rscale>  0 0.17413834E+04</rscale>
<asrwt>0</asrwt>
<pdfrwt beam="1">  1        2 0.11134417E+00 0.17413834E+04</pdfrwt>
<pdfrwt beam="2">  1       -1 0.16115160E+00 0.17413834E+04</pdfrwt>
<totfact> 0.12180538E+01</totfact>
</mgrwt>
</event>
<event>
12    6  0.9491186E-008  0.2351105E+04  0.7818608E-02  0.8458039E-01
          2   -1    0    0  501    0  0.00000000000E+00  0.00000000000E+00  0.32845555756E+04  0.32845555756E+04  0.00000000000E+00 0. -1.
         -1   -1    0    0    0  501 -0.00000000000E+00 -0.00000000000E+00 -0.42073388764E+03  0.42073388764E+03  0.00000000000E+00 0.  1.
         24    2    1    2    0    0 -0.35991860053E+03 -0.49218656931E+03  0.24828449035E+04  0.25578280772E+04  0.78591598936E+02 0.  0.
        254    2    1    2    0    0  0.35991860053E+03  0.49218656931E+03  0.38097678445E+03  0.11474613861E+04  0.89427920932E+03 0.  0.
         23    2    4    4    0    0  0.31446277147E+02  0.62154827516E+03  0.12441692978E+02  0.62882463137E+03  0.89187973326E+02 0.  0.
         23    2    4    4    0    0  0.32847232339E+03 -0.12936170585E+03  0.36853509148E+03  0.51863675471E+03  0.92398330676E+02 0.  0.
          4    1    3    3  502    0 -0.23535114798E+03 -0.38077508712E+03  0.18190075859E+04  0.18732774561E+04  0.00000000000E+00 0. -1.
         -3    1    3    3    0  502 -0.12456745256E+03 -0.11141148218E+03  0.66383731762E+03  0.68455062111E+03  0.00000000000E+00 0.  1.
         11    1    5    5    0    0  0.58570976857E+02  0.41804073527E+03 -0.10389777564E+02  0.42225177697E+03  0.00000000000E+00 0.  1.
        -11    1    5    5    0    0 -0.27124699709E+02  0.20350753989E+03  0.22831470541E+02  0.20657285440E+03  0.00000000000E+00 0. -1.
          1    1    6    6  503    0  0.25186004034E+03 -0.59523344463E+02  0.23490000335E+03  0.34950610872E+03  0.00000000000E+00 0. -1.
         -1    1    6    6    0  503  0.76612283050E+02 -0.69838361390E+02  0.13363508812E+03  0.16913064599E+03  0.00000000000E+00 0.  1.
<mgrwt>
<rscale>  0 0.23511051E+04</rscale>
<asrwt>0</asrwt>
<pdfrwt beam="1">  1        2 0.50531623E+00 0.23511051E+04</pdfrwt>
<pdfrwt beam="2">  1       -1 0.64728292E-01 0.23511051E+04</pdfrwt>
<totfact> 0.28389700E+00</totfact>
</mgrwt>
</event>
<event>
12    6  0.9491186E-008  0.1119777E+04  0.7818608E-02  0.9186127E-01
         -1   -1    0    0    0  501 -0.00000000000E+00  0.00000000000E+00  0.10505411496E+03  0.10505411496E+03  0.00000000000E+00 0.  1.
          2   -1    0    0  501    0  0.00000000000E+00 -0.00000000000E+00 -0.29839419206E+04  0.29839419206E+04  0.00000000000E+00 0. -1.
         24    2    1    2    0    0  0.10452988579E+03 -0.59769339383E+02 -0.88876584901E+03  0.90105753417E+03  0.86608744140E+02 0.  0.
        254    2    1    2    0    0 -0.10452988579E+03  0.59769339383E+02 -0.19901219566E+04  0.21879385014E+04  0.90110521730E+03 0.  0.
         23    2    4    4    0    0  0.13834268965E+03  0.30140249089E+03 -0.28644786288E+03  0.44778224096E+03  0.92056481999E+02 0.  0.
         23    2    4    4    0    0 -0.24287257545E+03 -0.24163315151E+03 -0.17036740938E+04  0.17401562604E+04  0.90910533901E+02 0.  0.
          2    1    3    3  502    0  0.84752143936E+02 -0.47285766431E+02 -0.39535434260E+03  0.40709203605E+03  0.00000000000E+00 0. -1.
         -1    1    3    3    0  502  0.19777741859E+02 -0.12483572952E+02 -0.49341150641E+03  0.49396549812E+03  0.00000000000E+00 0.  1.
         11    1    5    5    0    0 -0.25068358652E+01  0.19026101951E+02  0.31901275087E+01  0.19453886373E+02  0.00000000000E+00 0.  1.
        -11    1    5    5    0    0  0.14084952552E+03  0.28237638894E+03 -0.28963799039E+03  0.42832835459E+03  0.00000000000E+00 0. -1.
          4    1    6    6  503    0 -0.20594798065E+03 -0.15088682624E+03 -0.12921938480E+04  0.13171736202E+04  0.00000000000E+00 0. -1.
         -4    1    6    6    0  503 -0.36924594797E+02 -0.90746325266E+02 -0.41148024577E+03  0.42298264019E+03  0.00000000000E+00 0.  1.
<mgrwt>
<rscale>  0 0.11197774E+04</rscale>
<asrwt>0</asrwt>
<pdfrwt beam="1">  1        2 0.45906803E+00 0.11197774E+04</pdfrwt>
<pdfrwt beam="2">  1       -1 0.16162170E-01 0.11197774E+04</pdfrwt>
<totfact> 0.59652800E+01</totfact>
</mgrwt>
</event>
<event>
12    6  0.9491186E-008  0.1847054E+04  0.7818608E-02  0.8681669E-01
         -1   -1    0    0    0  501 -0.00000000000E+00  0.00000000000E+00  0.35122201266E+03  0.35122201266E+03  0.00000000000E+00 0.  1.
          2   -1    0    0  501    0  0.00000000000E+00 -0.00000000000E+00 -0.24283852587E+04  0.24283852587E+04  0.00000000000E+00 0. -1.
         24    2    1    2    0    0 -0.47319814686E+03 -0.39960797814E+01 -0.30677609325E+02  0.48111847515E+03  0.81249101949E+02 0.  0.
        254    2    1    2    0    0  0.47319814686E+03  0.39960797814E+01 -0.20464856367E+04  0.22984887962E+04  0.93328175283E+03 0.  0.
         23    2    4    4    0    0 -0.26162123347E+03  0.67348622262E+00 -0.33751855025E+03  0.43596229948E+03  0.87739565882E+02 0.  0.
         23    2    4    4    0    0  0.73481938034E+03  0.33225935587E+01 -0.17089670864E+04  0.18625264967E+04  0.92010255087E+02 0.  0.
          4    1    3    3  502    0 -0.43473413308E+02 -0.22064366503E+02 -0.13865685965E+02  0.50685611184E+02  0.00000000000E+00 0. -1.
         -3    1    3    3    0  502 -0.42972473356E+03  0.18068286722E+02 -0.16811923360E+02  0.43043286397E+03  0.00000000000E+00 0.  1.
         11    1    5    5    0    0 -0.21993769057E+03  0.31530113591E+02 -0.29227237464E+03  0.36713740857E+03  0.00000000000E+00 0. -1.
        -11    1    5    5    0    0 -0.41683542907E+02 -0.30856627368E+02 -0.45246175606E+02  0.68824890911E+02  0.00000000000E+00 0.  1.
          1    1    6    6  503    0  0.41417750096E+03 -0.40348167461E+02 -0.10047263302E+04  0.10874952761E+04  0.00000000000E+00 0. -1.
         -1    1    6    6    0  503  0.32064187938E+03  0.43670761020E+02 -0.70424075626E+03  0.77503122063E+03  0.00000000000E+00 0.  1.
<mgrwt>
<rscale>  0 0.18470543E+04</rscale>
<asrwt>0</asrwt>
<pdfrwt beam="1">  1        2 0.37359775E+00 0.18470543E+04</pdfrwt>
<pdfrwt beam="2">  1       -1 0.54034153E-01 0.18470543E+04</pdfrwt>
<totfact> 0.14189232E+01</totfact>
</mgrwt>
</event>
<event>
12    6  0.9491186E-008  0.2162686E+04  0.7818608E-02  0.8534121E-01
         -1   -1    0    0    0  501 -0.00000000000E+00  0.00000000000E+00  0.10384343205E+04  0.10384343205E+04  0.00000000000E+00 0.  1.
          2   -1    0    0  501    0  0.00000000000E+00 -0.00000000000E+00 -0.11260251762E+04  0.11260251762E+04  0.00000000000E+00 0. -1.
         24    2    1    2    0    0  0.41211556383E+03  0.14440296459E+03  0.74150954778E+03  0.86414879964E+03  0.78900471038E+02 0.  0.
        254    2    1    2    0    0 -0.41211556383E+03 -0.14440296459E+03 -0.82910040353E+03  0.13003106971E+04  0.90150373030E+03 0.  0.
         23    2    4    4    0    0  0.17432316248E+03  0.22641152184E+03 -0.29886098486E+03  0.42315396112E+03  0.89948009089E+02 0.  0.
         23    2    4    4    0    0 -0.58643872632E+03 -0.37081448644E+03 -0.53023941867E+03  0.87715673598E+03  0.82682134083E+02 0.  0.
          2    1    3    3  502    0  0.17135146888E+03  0.99641131249E+02  0.30862077208E+03  0.36679212353E+03  0.00000000000E+00 0. -1.
         -1    1    3    3    0  502  0.24076409495E+03  0.44761833345E+02  0.43288877570E+03  0.49735667610E+03  0.00000000000E+00 0.  1.
         11    1    5    5    0    0  0.11746399496E+03  0.12284592482E+03 -0.23136310910E+03  0.28708500415E+03  0.00000000000E+00 0.  1.
        -11    1    5    5    0    0  0.56859167521E+02  0.10356559703E+03 -0.67497875763E+02  0.13606895697E+03  0.00000000000E+00 0. -1.
          4    1    6    6  503    0 -0.13278033522E+03 -0.11714152084E+03 -0.10716015096E+03  0.20696872054E+03  0.00000000000E+00 0. -1.
         -4    1    6    6    0  503 -0.45365839110E+03 -0.25367296559E+03 -0.42307926770E+03  0.67018801545E+03  0.00000000000E+00 0.  1.
<mgrwt>
<rscale>  0 0.21626865E+04</rscale>
<asrwt>0</asrwt>
<pdfrwt beam="1">  1        2 0.17323464E+00 0.21626865E+04</pdfrwt>
<pdfrwt beam="2">  1       -1 0.15975913E+00 0.21626865E+04</pdfrwt>
<totfact> 0.64422412E+00</totfact>
</mgrwt>
</event>
<event>
12    6  0.9491186E-008  0.1555469E+04  0.7818608E-02  0.8848382E-01
          2   -1    0    0  501    0  0.00000000000E+00  0.00000000000E+00  0.14186984049E+04  0.14186984049E+04  0.00000000000E+00 0. -1.
         -1   -1    0    0    0  501 -0.00000000000E+00 -0.00000000000E+00 -0.42635617853E+03  0.42635617853E+03  0.00000000000E+00 0.  1.
         24    2    1    2    0    0 -0.71808727445E+01 -0.51782145081E+03  0.35103023562E+03  0.63074877337E+03  0.80194569241E+02 0.  0.
        254    2    1    2    0    0  0.71808727445E+01  0.51782145081E+03  0.64131199071E+03  0.12143058100E+04  0.89166524603E+03 0.  0.
         23    2    4    4    0    0  0.29053314092E+03  0.64084366136E+03  0.44954413498E+03  0.83984835918E+03  0.90361677950E+02 0.  0.
         23    2    4    4    0    0 -0.28335226817E+03 -0.12302221055E+03  0.19176785574E+03  0.37445745085E+03  0.89557243346E+02 0.  0.
          2    1    3    3  502    0 -0.22834180440E+02 -0.45719577862E+02  0.25774837525E+02  0.57236542923E+02  0.00000000000E+00 0. -1.
         -1    1    3    3    0  502  0.15653307696E+02 -0.47210187295E+03  0.32525539810E+03  0.57351223045E+03  0.00000000000E+00 0.  1.
         11    1    5    5    0    0  0.16609704182E+03  0.45639048933E+03  0.33094072909E+03  0.58770934332E+03  0.00000000000E+00 0. -1.
        -11    1    5    5    0    0  0.12443609910E+03  0.18445317203E+03  0.11860340589E+03  0.25213901586E+03  0.00000000000E+00 0.  1.
          1    1    6    6  503    0 -0.18530346429E+03 -0.12412454963E+03  0.14304604044E+03  0.26496499276E+03  0.00000000000E+00 0. -1.
         -1    1    6    6    0  503 -0.98048803883E+02  0.11023390804E+01  0.48721815292E+02  0.10949245810E+03  0.00000000000E+00 0.  1.
<mgrwt>
<rscale>  0 0.15554688E+04</rscale>
<asrwt>0</asrwt>
<pdfrwt beam="1">  1        2 0.21826129E+00 0.15554688E+04</pdfrwt>
<pdfrwt beam="2">  1       -1 0.65593259E-01 0.15554688E+04</pdfrwt>
<totfact> 0.36474871E+01</totfact>
</mgrwt>
</event>
<event>
12    6  0.9491186E-008  0.1489597E+04  0.7818608E-02  0.8891401E-01
         -1   -1    0    0    0  501 -0.00000000000E+00  0.00000000000E+00  0.29108298639E+03  0.29108298639E+03  0.00000000000E+00 0.  1.
          2   -1    0    0  501    0  0.00000000000E+00 -0.00000000000E+00 -0.19057265950E+04  0.19057265950E+04  0.00000000000E+00 0. -1.
         24    2    1    2    0    0  0.38449868255E+03  0.16041830432E+03 -0.83868971722E+03  0.93951360509E+03  0.75578456776E+02 0.  0.
        254    2    1    2    0    0 -0.38449868255E+03 -0.16041830432E+03 -0.77595389138E+03  0.12572959763E+04  0.89728226396E+03 0.  0.
         23    2    4    4    0    0 -0.53768066596E+03 -0.35163907559E+03 -0.30035974535E+03  0.71431122637E+03  0.85287827205E+02 0.  0.
         23    2    4    4    0    0  0.15318198341E+03  0.19122077127E+03 -0.47559414603E+03  0.54298474993E+03  0.92803790378E+02 0.  0.
          2    1    3    3  502    0  0.23019967066E+03  0.99674248659E+02 -0.58401549772E+03  0.63561068729E+03  0.00000000000E+00 0. -1.
         -1    1    3    3    0  502  0.15429901189E+03  0.60744055657E+02 -0.25467421950E+03  0.30390291780E+03  0.00000000000E+00 0.  1.
         11    1    5    5    0    0 -0.91561627455E+02 -0.10114203275E+03 -0.60576850530E+02  0.14927423499E+03  0.00000000000E+00 0.  1.
        -11    1    5    5    0    0 -0.44611903850E+03 -0.25049704284E+03 -0.23978289482E+03  0.56503699139E+03  0.00000000000E+00 0. -1.
          1    1    6    6  503    0  0.92336836493E+02  0.69466504377E+02 -0.14459625041E+03  0.18509392815E+03  0.00000000000E+00 0. -1.
         -1    1    6    6    0  503  0.60845146914E+02  0.12175426689E+03 -0.33099789562E+03  0.35789082178E+03  0.00000000000E+00 0.  1.
<mgrwt>
<rscale>  0 0.14895967E+04</rscale>
<asrwt>0</asrwt>
<pdfrwt beam="1">  1        2 0.29318871E+00 0.14895967E+04</pdfrwt>
<pdfrwt beam="2">  1       -1 0.44781997E-01 0.14895967E+04</pdfrwt>
<totfact> 0.41041897E+01</totfact>
</mgrwt>
</event>
<event>
12    6  0.9491186E-008  0.1601806E+04  0.7818608E-02  0.8819439E-01
         -1   -1    0    0    0  501 -0.00000000000E+00  0.00000000000E+00  0.16380774270E+03  0.16380774270E+03  0.00000000000E+00 0.  1.
          2   -1    0    0  501    0  0.00000000000E+00 -0.00000000000E+00 -0.39158459611E+04  0.39158459611E+04  0.00000000000E+00 0. -1.
         24    2    1    2    0    0  0.79849583230E+02 -0.47001778084E+03 -0.60997962927E+03  0.77828805586E+03  0.79777688101E+02 0.  0.
        254    2    1    2    0    0 -0.79849583230E+02  0.47001778084E+03 -0.31420585891E+04  0.33013656479E+04  0.89397443683E+03 0.  0.
         23    2    4    4    0    0 -0.45077410015E+03  0.25349561522E+03 -0.22011416469E+04  0.22629257390E+04  0.91383993152E+02 0.  0.
         23    2    4    4    0    0  0.37092451692E+03  0.21652216561E+03 -0.94091694217E+03  0.10384399089E+04  0.92552184528E+02 0.  0.
          4    1    3    3  502    0  0.12964474689E+02 -0.20565900005E+02 -0.11618492125E+02  0.26944817799E+02  0.00000000000E+00 0. -1.
         -3    1    3    3    0  502  0.66885108541E+02 -0.44945188083E+03 -0.59836113715E+03  0.75134323806E+03  0.00000000000E+00 0.  1.
         11    1    5    5    0    0 -0.16631278474E+03  0.46567806636E+02 -0.78082353765E+03  0.79969612975E+03  0.00000000000E+00 0.  1.
        -11    1    5    5    0    0 -0.28446131542E+03  0.20692780859E+03 -0.14203181093E+04  0.14632296093E+04  0.00000000000E+00 0. -1.
          3    1    6    6  503    0  0.14644027097E+03  0.46252980508E+02 -0.26734370730E+03  0.30831274544E+03  0.00000000000E+00 0. -1.
         -3    1    6    6    0  503  0.22448424595E+03  0.17026918511E+03 -0.67357323487E+03  0.73012716345E+03  0.00000000000E+00 0.  1.
<mgrwt>
<rscale>  0 0.16018063E+04</rscale>
<asrwt>0</asrwt>
<pdfrwt beam="1">  1        2 0.60243777E+00 0.16018063E+04</pdfrwt>
<pdfrwt beam="2">  1       -1 0.25201194E-01 0.16018063E+04</pdfrwt>
<totfact> 0.61376756E+00</totfact>
</mgrwt>
</event>
<event>
12    6  0.9491186E-008  0.2593172E+04  0.7818608E-02  0.8370524E-01
         -1   -1    0    0    0  501 -0.00000000000E+00  0.00000000000E+00  0.10493161724E+04  0.10493161724E+04  0.00000000000E+00 0.  1.
          2   -1    0    0  501    0  0.00000000000E+00 -0.00000000000E+00 -0.16021245644E+04  0.16021245644E+04  0.00000000000E+00 0. -1.
         24    2    1    2    0    0 -0.10425733628E+03  0.15216737298E+03  0.90612525612E+03  0.92802016757E+03  0.78319538263E+02 0.  0.
        254    2    1    2    0    0  0.10425733628E+03 -0.15216737298E+03 -0.14589336481E+04  0.17234205692E+04  0.89870271334E+03 0.  0.
         23    2    4    4    0    0 -0.21326281756E+03  0.19736627755E+03 -0.17644453819E+03  0.35314233026E+03  0.95615655075E+02 0.  0.
         23    2    4    4    0    0  0.31752015384E+03 -0.34953365052E+03 -0.12824891099E+04  0.13702782389E+04  0.99455084984E+02 0.  0.
          4    1    3    3  502    0 -0.22335043270E+02 -0.31937448828E+01  0.15499579847E+03  0.15662934498E+03  0.00000000000E+00 0. -1.
         -3    1    3    3    0  502 -0.81922293009E+02  0.15536111786E+03  0.75112945765E+03  0.77139082259E+03  0.00000000000E+00 0.  1.
         11    1    5    5    0    0 -0.19055703692E+02  0.50007286393E+02 -0.67451417221E+02  0.86101929250E+02  0.00000000000E+00 0.  1.
        -11    1    5    5    0    0 -0.19420711387E+03  0.14735899115E+03 -0.10899312097E+03  0.26704040101E+03  0.00000000000E+00 0. -1.
          3    1    6    6  503    0  0.31239329985E+03 -0.31177303376E+03 -0.11308674922E+04  0.12139412190E+04  0.00000000000E+00 0. -1.
         -3    1    6    6    0  503  0.51268539900E+01 -0.37760616767E+02 -0.15162161777E+03  0.15633701988E+03  0.00000000000E+00 0.  1.
<mgrwt>
<rscale>  0 0.25931720E+04</rscale>
<asrwt>0</asrwt>
<pdfrwt beam="1">  1        2 0.24648070E+00 0.25931720E+04</pdfrwt>
<pdfrwt beam="2">  1       -1 0.16143326E+00 0.25931720E+04</pdfrwt>
<totfact> 0.31948059E+00</totfact>
</mgrwt>
</event>
<event>
12    6  0.9491186E-008  0.1438783E+04  0.7818608E-02  0.8926214E-01
          2   -1    0    0  501    0  0.00000000000E+00  0.00000000000E+00  0.11086880717E+04  0.11086880717E+04  0.00000000000E+00 0. -1.
         -1   -1    0    0    0  501 -0.00000000000E+00 -0.00000000000E+00 -0.46678990188E+03  0.46678990188E+03  0.00000000000E+00 0.  1.
         24    2    1    2    0    0  0.17560879255E+03 -0.23389766943E+03  0.54637714575E+03  0.62506063850E+03  0.81401772845E+02 0.  0.
        254    2    1    2    0    0 -0.17560879255E+03  0.23389766943E+03  0.95521024051E+02  0.95041733505E+03  0.89923427256E+03 0.  0.
         23    2    4    4    0    0 -0.18932726592E+03 -0.83776382730E+01 -0.36475843109E+03  0.42216715653E+03  0.96236149932E+02 0.  0.
         23    2    4    4    0    0  0.13718473373E+02  0.24227530770E+03  0.46027945514E+03  0.52825017852E+03  0.91134806991E+02 0.  0.
          2    1    3    3  502    0  0.16361425402E+03 -0.23090198031E+03  0.54288023240E+03  0.61221262267E+03  0.00000000000E+00 0. -1.
         -1    1    3    3    0  502  0.11994538531E+02 -0.29956891195E+01  0.34969133552E+01  0.12848015835E+02  0.00000000000E+00 0.  1.
         11    1    5    5    0    0 -0.15164098020E+03 -0.22308870625E+02 -0.19666605033E+03  0.24933954347E+03  0.00000000000E+00 0.  1.
        -11    1    5    5    0    0 -0.37686285727E+02  0.13931232352E+02 -0.16809238076E+03  0.17282761306E+03  0.00000000000E+00 0. -1.
          3    1    6    6  503    0 -0.26807572275E+02  0.67553562067E+02  0.19428550831E+03  0.20743429904E+03  0.00000000000E+00 0. -1.
         -3    1    6    6    0  503  0.40526045649E+02  0.17472174564E+03  0.26599394683E+03  0.32081587948E+03  0.00000000000E+00 0.  1.
<mgrwt>
<rscale>  0 0.14387834E+04</rscale>
<asrwt>0</asrwt>
<pdfrwt beam="1">  1        2 0.17056740E+00 0.14387834E+04</pdfrwt>
<pdfrwt beam="2">  1       -1 0.71813831E-01 0.14387834E+04</pdfrwt>
<totfact> 0.46625411E+01</totfact>
</mgrwt>
</event>
<event>
12    6  0.9491186E-008  0.1328477E+04  0.7818608E-02  0.9007283E-01
         -1   -1    0    0    0  501 -0.00000000000E+00  0.00000000000E+00  0.40363596812E+03  0.40363596812E+03  0.00000000000E+00 0.  1.
          2   -1    0    0  501    0  0.00000000000E+00 -0.00000000000E+00 -0.10930952413E+04  0.10930952413E+04  0.00000000000E+00 0. -1.
         24    2    1    2    0    0  0.18314403279E+03 -0.86221675522E+02  0.14186351059E+03  0.25940003825E+03  0.78658821043E+02 0.  0.
        254    2    1    2    0    0 -0.18314403279E+03  0.86221675522E+02 -0.83132278381E+03  0.12373311712E+04  0.89382041951E+03 0.  0.
         23    2    4    4    0    0 -0.34941883653E+03  0.73002879179E+02 -0.94588092224E+03  0.10149502354E+04  0.89500377799E+02 0.  0.
         23    2    4    4    0    0  0.16627480374E+03  0.13218796343E+02  0.11455813843E+03  0.22238093581E+03  0.92237013159E+02 0.  0.
          4    1    3    3  502    0  0.36662361000E+02  0.15955876989E+01 -0.10396196544E+01  0.36711788614E+02  0.00000000000E+00 0. -1.
         -3    1    3    3    0  502  0.14648167179E+03 -0.87817263221E+02  0.14290313024E+03  0.22268824963E+03  0.00000000000E+00 0.  1.
         11    1    5    5    0    0 -0.28899749743E+03  0.36199324211E+02 -0.82481378653E+03  0.87472723008E+03  0.00000000000E+00 0.  1.
        -11    1    5    5    0    0 -0.60421339096E+02  0.36803554968E+02 -0.12106713571E+03  0.14022300534E+03  0.00000000000E+00 0. -1.
          1    1    6    6  503    0  0.86563936230E+02 -0.10708482047E+02  0.86008296671E+01  0.87646796372E+02  0.00000000000E+00 0. -1.
         -1    1    6    6    0  503  0.79710867508E+02  0.23927278390E+02  0.10595730876E+03  0.13473413944E+03  0.00000000000E+00 0.  1.
<mgrwt>
<rscale>  0 0.13284767E+04</rscale>
<asrwt>0</asrwt>
<pdfrwt beam="1">  1        2 0.16816850E+00 0.13284767E+04</pdfrwt>
<pdfrwt beam="2">  1       -1 0.62097842E-01 0.13284767E+04</pdfrwt>
<totfact> 0.64567627E+01</totfact>
</mgrwt>
</event>
<event>
12    6  0.9491186E-008  0.3867463E+04  0.7818608E-02  0.8031831E-01
         -1   -1    0    0    0  501 -0.00000000000E+00  0.00000000000E+00  0.10818581572E+04  0.10818581572E+04  0.00000000000E+00 0.  1.
          2   -1    0    0  501    0  0.00000000000E+00 -0.00000000000E+00 -0.34563837673E+04  0.34563837673E+04  0.00000000000E+00 0. -1.
         24    2    1    2    0    0 -0.13685097208E+04  0.54458692913E+03  0.14710621039E+03  0.14823900103E+04  0.80287771322E+02 0.  0.
        254    2    1    2    0    0  0.13685097208E+04 -0.54458692913E+03 -0.25216318205E+04  0.30558519142E+04  0.90011671672E+03 0.  0.
         23    2    4    4    0    0  0.47431829161E+03 -0.28794693281E+03 -0.17670423368E+04  0.18543543488E+04  0.91105176162E+02 0.  0.
         23    2    4    4    0    0  0.89419142923E+03 -0.25663999633E+03 -0.75458948375E+03  0.12014975654E+04  0.93534543308E+02 0.  0.
          4    1    3    3  502    0 -0.44742894632E+02  0.54014310980E+01 -0.29940715877E+01  0.45167095795E+02  0.00000000000E+00 0. -1.
         -1    1    3    3    0  502 -0.13237668262E+04  0.53918549803E+03  0.15010028197E+03  0.14372229145E+04  0.00000000000E+00 0.  1.
         11    1    5    5    0    0  0.22135280849E+03 -0.18369698461E+03 -0.96231694704E+03  0.10043881493E+04  0.00000000000E+00 0.  1.
        -11    1    5    5    0    0  0.25296548312E+03 -0.10424994819E+03 -0.80472538973E+03  0.84996619946E+03  0.00000000000E+00 0. -1.
          1    1    6    6  503    0  0.27454660261E+03 -0.53692418754E+02 -0.18201912813E+03  0.33375091886E+03  0.00000000000E+00 0. -1.
         -1    1    6    6    0  503  0.61964482662E+03 -0.20294757757E+03 -0.57257035562E+03  0.86774664651E+03  0.00000000000E+00 0.  1.
<mgrwt>
<rscale>  0 0.38674627E+04</rscale>
<asrwt>0</asrwt>
<pdfrwt beam="1">  1        2 0.53175135E+00 0.38674627E+04</pdfrwt>
<pdfrwt beam="2">  1       -1 0.16643971E+00 0.38674627E+04</pdfrwt>
<totfact> 0.20595667E-01</totfact>
</mgrwt>
</event>
<event>
12    6  0.9491186E-008  0.1504329E+04  0.7818608E-02  0.8881579E-01
         -1   -1    0    0    0  501 -0.00000000000E+00  0.00000000000E+00  0.11519362567E+04  0.11519362567E+04  0.00000000000E+00 0.  1.
          2   -1    0    0  501    0  0.00000000000E+00 -0.00000000000E+00 -0.49113114373E+03  0.49113114373E+03  0.00000000000E+00 0. -1.
         24    2    1    2    0    0  0.39962981802E+03 -0.10473396337E+02  0.49114020279E+03  0.63828571365E+03  0.79851549603E+02 0.  0.
        254    2    1    2    0    0 -0.39962981802E+03  0.10473396337E+02  0.16966491016E+03  0.10047816868E+04  0.90608298340E+03 0.  0.
         23    2    4    4    0    0 -0.59647557972E+03  0.24417712144E+03  0.18266432511E+02  0.65133933867E+03  0.92215441776E+02 0.  0.
         23    2    4    4    0    0  0.19684576170E+03 -0.23370372510E+03  0.15139847764E+03  0.35344234809E+03  0.92920984530E+02 0.  0.
          2    1    3    3  502    0  0.23461148371E+02  0.16367674718E+02  0.52725116084E+02  0.59985532628E+02  0.00000000000E+00 0. -1.
         -1    1    3    3    0  502  0.37616866965E+03 -0.26841071055E+02  0.43841508670E+03  0.57830018103E+03  0.00000000000E+00 0.  1.
         11    1    5    5    0    0 -0.29600182787E+03  0.16021277240E+03 -0.19126576460E+02  0.33712169979E+03  0.00000000000E+00 0. -1.
        -11    1    5    5    0    0 -0.30047375185E+03  0.83964349031E+02  0.37393008971E+02  0.31421763888E+03  0.00000000000E+00 0.  1.
          2    1    6    6  503    0  0.15792499373E+03 -0.22910715311E+03  0.14485347305E+03  0.31370833573E+03  0.00000000000E+00 0. -1.
         -2    1    6    6    0  503  0.38920767963E+02 -0.45965719879E+01  0.65450045934E+01  0.39734012357E+02  0.00000000000E+00 0.  1.
<mgrwt>
<rscale>  0 0.15043294E+04</rscale>
<asrwt>0</asrwt>
<pdfrwt beam="1">  1        2 0.75558638E-01 0.15043294E+04</pdfrwt>
<pdfrwt beam="2">  1       -1 0.17722096E+00 0.15043294E+04</pdfrwt>
<totfact> 0.15130885E+01</totfact>
</mgrwt>
</event>
<event>
12    6  0.9491186E-008  0.2396831E+04  0.7818608E-02  0.8440691E-01
          2   -1    0    0  501    0  0.00000000000E+00  0.00000000000E+00  0.17468186832E+04  0.17468186832E+04  0.00000000000E+00 0. -1.
         -1   -1    0    0    0  501 -0.00000000000E+00 -0.00000000000E+00 -0.82218007698E+03  0.82218007698E+03  0.00000000000E+00 0.  1.
         24    2    1    2    0    0  0.50159636223E+03 -0.88673670411E+03  0.24276315091E+03  0.10506614867E+04  0.83992376222E+02 0.  0.
        254    2    1    2    0    0 -0.50159636223E+03  0.88673670411E+03  0.68187545533E+03  0.15183372735E+04  0.89581976222E+03 0.  0.
         23    2    4    4    0    0 -0.24431131099E+03  0.33946020503E+03 -0.17749831212E+03  0.46355402986E+03  0.91953468234E+02 0.  0.
         23    2    4    4    0    0 -0.25728505124E+03  0.54727649908E+03  0.85937376745E+03  0.10547832436E+04  0.91308568911E+02 0.  0.
          4    1    3    3  502    0  0.21072695890E+03 -0.29769043032E+03  0.70096067167E+02  0.37140126836E+03  0.00000000000E+00 0. -1.
         -3    1    3    3    0  502  0.29086940333E+03 -0.58904627379E+03  0.17266708374E+03  0.67926021837E+03  0.00000000000E+00 0.  1.
         11    1    5    5    0    0 -0.22445823435E+03  0.33613642857E+03 -0.18143409406E+03  0.44304348327E+03  0.00000000000E+00 0.  1.
        -11    1    5    5    0    0 -0.19853076639E+02  0.33237764531E+01  0.39357819384E+01  0.20510546589E+02  0.00000000000E+00 0. -1.
          1    1    6    6  503    0 -0.10338520855E+03  0.22039236881E+03  0.42506765711E+03  0.48984059723E+03  0.00000000000E+00 0. -1.
         -1    1    6    6    0  503 -0.15389984269E+03  0.32688413028E+03  0.43430611034E+03  0.56494264637E+03  0.00000000000E+00 0.  1.
<mgrwt>
<rscale>  0 0.23968308E+04</rscale>
<asrwt>0</asrwt>
<pdfrwt beam="1">  1        2 0.26874134E+00 0.23968308E+04</pdfrwt>
<pdfrwt beam="2">  1       -1 0.12648924E+00 0.23968308E+04</pdfrwt>
<totfact> 0.51387146E+00</totfact>
</mgrwt>
</event>
<event>
12    6  0.9491186E-008  0.4452875E+04  0.7818608E-02  0.7918939E-01
          2   -1    0    0  501    0  0.00000000000E+00  0.00000000000E+00  0.27015750923E+04  0.27015750923E+04  0.00000000000E+00 0. -1.
         -1   -1    0    0    0  501 -0.00000000000E+00 -0.00000000000E+00 -0.18348646752E+04  0.18348646752E+04  0.00000000000E+00 0.  1.
         24    2    1    2    0    0 -0.18763892924E+04 -0.69573091371E+03 -0.34308325729E+03  0.20319524571E+04  0.79034080680E+02 0.  0.
        254    2    1    2    0    0  0.18763892924E+04  0.69573091371E+03  0.12097936743E+04  0.25044873103E+04  0.89664802038E+03 0.  0.
         23    2    4    4    0    0  0.12154710422E+04  0.86253148023E+03  0.70228637821E+03  0.16501701488E+04  0.92330679403E+02 0.  0.
         23    2    4    4    0    0  0.66091825019E+03 -0.16680056652E+03  0.50750729612E+03  0.85431716151E+03  0.87514538231E+02 0.  0.
          2    1    3    3  502    0 -0.10321148642E+04 -0.37635574945E+03 -0.22775338968E+03  0.11219520265E+04  0.00000000000E+00 0. -1.
         -1    1    3    3    0  502 -0.84427442811E+03 -0.31937516425E+03 -0.11532986761E+03  0.91000043070E+03  0.00000000000E+00 0.  1.
         11    1    5    5    0    0  0.70848601474E+03  0.53974388298E+03  0.45651189021E+03  0.10008391470E+04  0.00000000000E+00 0.  1.
        -11    1    5    5    0    0  0.50698502743E+03  0.32278759724E+03  0.24577448800E+03  0.64933100182E+03  0.00000000000E+00 0. -1.
          3    1    6    6  503    0  0.39478283549E+03 -0.13341865306E+03  0.34247680440E+03  0.53939260816E+03  0.00000000000E+00 0. -1.
         -3    1    6    6    0  503  0.26613541470E+03 -0.33381913459E+02  0.16503049171E+03  0.31492455335E+03  0.00000000000E+00 0.  1.
<mgrwt>
<rscale>  0 0.44528753E+04</rscale>
<asrwt>0</asrwt>
<pdfrwt beam="1">  1        2 0.41562694E+00 0.44528753E+04</pdfrwt>
<pdfrwt beam="2">  1       -1 0.28228687E+00 0.44528753E+04</pdfrwt>
<totfact> 0.98525436E-02</totfact>
</mgrwt>
</event>
<event>
12    6  0.9491186E-008  0.2505166E+04  0.7818608E-02  0.8401147E-01
         -1   -1    0    0    0  501 -0.00000000000E+00  0.00000000000E+00  0.98231836929E+03  0.98231836929E+03  0.00000000000E+00 0.  1.
          2   -1    0    0  501    0  0.00000000000E+00 -0.00000000000E+00 -0.15972052944E+04  0.15972052944E+04  0.00000000000E+00 0. -1.
         24    2    1    2    0    0  0.31407498538E+03 -0.67587245471E+03 -0.10936397466E+04  0.13258561917E+04  0.80000464107E+02 0.  0.
        254    2    1    2    0    0 -0.31407498538E+03  0.67587245471E+03  0.47875282152E+03  0.12536674720E+04  0.88714778626E+03 0.  0.
         23    2    4    4    0    0  0.13005473084E+03  0.14189275040E+03  0.50918942557E+03  0.55260207193E+03  0.95117785712E+02 0.  0.
         23    2    4    4    0    0 -0.44412971622E+03  0.53397970431E+03 -0.30436604045E+02  0.70106540004E+03  0.90447657898E+02 0.  0.
          4    1    3    3  502    0  0.31279448118E+03 -0.65347575472E+03 -0.10376436255E+04  0.12655335804E+04  0.00000000000E+00 0. -1.
         -3    1    3    3    0  502  0.12805042016E+01 -0.22396699994E+02 -0.55996121131E+02  0.60322611377E+02  0.00000000000E+00 0.  1.
         11    1    5    5    0    0  0.26149906383E+02  0.27305267297E+02  0.27679299808E+02  0.46856577594E+02  0.00000000000E+00 0.  1.
        -11    1    5    5    0    0  0.10390482446E+03  0.11458748310E+03  0.48151012576E+03  0.50574549433E+03  0.00000000000E+00 0. -1.
          3    1    6    6  503    0 -0.11812142870E+03  0.14353981338E+03 -0.48426175878E+02  0.19209748685E+03  0.00000000000E+00 0. -1.
         -3    1    6    6    0  503 -0.32600828751E+03  0.39043989094E+03  0.17989571834E+02  0.50896791319E+03  0.00000000000E+00 0.  1.
<mgrwt>
<rscale>  0 0.25051659E+04</rscale>
<asrwt>0</asrwt>
<pdfrwt beam="1">  1        2 0.24572389E+00 0.25051659E+04</pdfrwt>
<pdfrwt beam="2">  1       -1 0.15112590E+00 0.25051659E+04</pdfrwt>
<totfact> 0.38850827E+00</totfact>
</mgrwt>
</event>
<event>
12    6  0.9491186E-008  0.1980900E+04  0.7818608E-02  0.8615603E-01
          2   -1    0    0  501    0  0.00000000000E+00  0.00000000000E+00  0.69507837443E+03  0.69507837443E+03  0.00000000000E+00 0. -1.
         -1   -1    0    0    0  501 -0.00000000000E+00 -0.00000000000E+00 -0.14113388393E+04  0.14113388393E+04  0.00000000000E+00 0.  1.
         24    2    1    2    0    0 -0.13389758150E+03 -0.29585894759E+03  0.46025141788E+03  0.56916316435E+03  0.81573652587E+02 0.  0.
        254    2    1    2    0    0  0.13389758150E+03  0.29585894759E+03 -0.11765118828E+04  0.15372540494E+04  0.93461688562E+03 0.  0.
         23    2    4    4    0    0 -0.25235376857E+03  0.47307202806E+03 -0.76896790417E+03  0.94133518909E+03  0.85561278239E+02 0.  0.
         23    2    4    4    0    0  0.38625135007E+03 -0.17721308047E+03 -0.40754397860E+03  0.59591886030E+03  0.91829255960E+02 0.  0.
          4    1    3    3  502    0 -0.83726365444E+02 -0.25951087202E+03  0.36724449752E+03  0.45741066661E+03  0.00000000000E+00 0. -1.
         -1    1    3    3    0  502 -0.50171216054E+02 -0.36348075573E+02  0.93006920355E+02  0.11175249774E+03  0.00000000000E+00 0.  1.
         11    1    5    5    0    0 -0.22410071127E+02  0.10431341356E+03 -0.18255129875E+03  0.21144378972E+03  0.00000000000E+00 0. -1.
        -11    1    5    5    0    0 -0.22994369745E+03  0.36875861450E+03 -0.58641660542E+03  0.72989139937E+03  0.00000000000E+00 0.  1.
          4    1    6    6  503    0  0.37661880913E+03 -0.18177439320E+03 -0.40925233506E+03  0.58512488510E+03  0.00000000000E+00 0.  1.
         -4    1    6    6    0  503  0.96325409443E+01  0.45613127368E+01  0.17083564552E+01  0.10793975204E+02  0.00000000000E+00 0. -1.
<mgrwt>
<rscale>  0 0.19808999E+04</rscale>
<asrwt>0</asrwt>
<pdfrwt beam="1">  1        2 0.10693513E+00 0.19808999E+04</pdfrwt>
<pdfrwt beam="2">  1       -1 0.21712905E+00 0.19808999E+04</pdfrwt>
<totfact> 0.50516945E+00</totfact>
</mgrwt>
</event>
<event>
12    6  0.9491186E-008  0.2601873E+04  0.7818608E-02  0.8367565E-01
          2   -1    0    0  501    0  0.00000000000E+00  0.00000000000E+00  0.12755290365E+04  0.12755290365E+04  0.00000000000E+00 0. -1.
         -1   -1    0    0    0  501 -0.00000000000E+00 -0.00000000000E+00 -0.13268497793E+04  0.13268497793E+04  0.00000000000E+00 0.  1.
         24    2    1    2    0    0  0.10672687993E+04  0.40269265571E+03 -0.55985566831E+02  0.11448373674E+04  0.79335673761E+02 0.  0.
        254    2    1    2    0    0 -0.10672687993E+04 -0.40269265571E+03  0.46648239584E+01  0.14575414484E+04  0.90729336402E+03 0.  0.
         23    2    4    4    0    0  0.95027251452E+02 -0.56303738950E+02  0.17709490873E+03  0.22859341013E+03  0.93231169228E+02 0.  0.
         23    2    4    4    0    0 -0.11622960508E+04 -0.34638891676E+03 -0.17243008478E+03  0.12289480383E+04  0.98304402086E+02 0.  0.
          2    1    3    3  502    0  0.43233795434E+03  0.13282731117E+03 -0.48705552105E+02  0.45489716657E+03  0.00000000000E+00 0. -1.
         -1    1    3    3    0  502  0.63493084497E+03  0.26986534454E+03 -0.72800147255E+01  0.68994020080E+03  0.00000000000E+00 0.  1.
         11    1    5    5    0    0  0.48617473939E+02 -0.12052902441E+01  0.13866181015E+03  0.14694287697E+03  0.00000000000E+00 0. -1.
        -11    1    5    5    0    0  0.46409777512E+02 -0.55098448706E+02  0.38433098582E+02  0.81650533159E+02  0.00000000000E+00 0.  1.
          2    1    6    6  503    0 -0.11184755324E+04 -0.31900188137E+03 -0.17930553001E+03  0.11768178236E+04  0.00000000000E+00 0. -1.
         -2    1    6    6    0  503 -0.43820518340E+02 -0.27387035384E+02  0.68754452319E+01  0.52130214673E+02  0.00000000000E+00 0.  1.
<mgrwt>
<rscale>  0 0.26018727E+04</rscale>
<asrwt>0</asrwt>
<pdfrwt beam="1">  1        2 0.19623524E+00 0.26018727E+04</pdfrwt>
<pdfrwt beam="2">  1       -1 0.20413073E+00 0.26018727E+04</pdfrwt>
<totfact> 0.24273014E+00</totfact>
</mgrwt>
</event>
<event>
12    6  0.9491186E-008  0.2148342E+04  0.7818608E-02  0.8540242E-01
         -1   -1    0    0    0  501 -0.00000000000E+00  0.00000000000E+00  0.70402919232E+03  0.70402919232E+03  0.00000000000E+00 0.  1.
          2   -1    0    0  501    0  0.00000000000E+00 -0.00000000000E+00 -0.16389142632E+04  0.16389142632E+04  0.00000000000E+00 0. -1.
         24    2    1    2    0    0 -0.10770583261E+03  0.86696220058E+03 -0.50772239837E+03  0.10142482331E+04  0.87712262123E+02 0.  0.
        254    2    1    2    0    0  0.10770583261E+03 -0.86696220058E+03 -0.42716267252E+03  0.13286952224E+04  0.90539441222E+03 0.  0.
         23    2    4    4    0    0  0.63788665479E+02 -0.48244730478E+03  0.24104940226E+03  0.55112554767E+03  0.93862448496E+02 0.  0.
         23    2    4    4    0    0  0.43917167136E+02 -0.38451489580E+03 -0.66821207478E+03  0.77756967475E+03  0.91251298901E+02 0.  0.
          4    1    3    3  502    0 -0.10369557979E+03  0.86750263415E+03 -0.50340255447E+03  0.10083291751E+04  0.00000000000E+00 0. -1.
         -3    1    3    3    0  502 -0.40102528293E+01 -0.54043357111E+00 -0.43198439006E+01  0.59190579931E+01  0.00000000000E+00 0.  1.
         11    1    5    5    0    0  0.66369508486E+02 -0.18617162252E+03  0.74400669297E+02  0.21118769917E+03  0.00000000000E+00 0. -1.
        -11    1    5    5    0    0 -0.25808430073E+01 -0.29627568225E+03  0.16664873296E+03  0.33993784850E+03  0.00000000000E+00 0.  1.
          3    1    6    6  503    0  0.71426756551E+02 -0.24276133439E+03 -0.41418170455E+03  0.48536721295E+03  0.00000000000E+00 0. -1.
         -3    1    6    6    0  503 -0.27509589415E+02 -0.14175356142E+03 -0.25403037022E+03  0.29220246180E+03  0.00000000000E+00 0.  1.
<mgrwt>
<rscale>  0 0.21483421E+04</rscale>
<asrwt>0</asrwt>
<pdfrwt beam="1">  1        2 0.25214065E+00 0.21483421E+04</pdfrwt>
<pdfrwt beam="2">  1       -1 0.10831218E+00 0.21483421E+04</pdfrwt>
<totfact> 0.87777025E+00</totfact>
</mgrwt>
</event>
<event>
12    6  0.9491186E-008  0.1724391E+04  0.7818608E-02  0.8747574E-01
          2   -1    0    0  501    0  0.00000000000E+00  0.00000000000E+00  0.91114813794E+03  0.91114813794E+03  0.00000000000E+00 0. -1.
         -1   -1    0    0    0  501 -0.00000000000E+00 -0.00000000000E+00 -0.81587296309E+03  0.81587296309E+03  0.00000000000E+00 0.  1.
         24    2    1    2    0    0  0.41583633477E+03 -0.44659041713E+03 -0.10381151415E+03  0.62344040417E+03  0.74419413377E+02 0.  0.
        254    2    1    2    0    0 -0.41583633477E+03  0.44659041713E+03  0.19908668900E+03  0.11035806968E+04  0.89771486939E+03 0.  0.
         23    2    4    4    0    0 -0.43921136772E+03  0.11764871189E+03  0.47507423079E+03  0.66398080872E+03  0.91799480649E+02 0.  0.
         23    2    4    4    0    0  0.23375032941E+02  0.32894170524E+03 -0.27598754179E+03  0.43959988813E+03  0.91268290242E+02 0.  0.
          4    1    3    3  502    0  0.10637425567E+03 -0.70149687151E+02 -0.21112724610E+02  0.12915962224E+03  0.00000000000E+00 0. -1.
         -3    1    3    3    0  502  0.30946207910E+03 -0.37644072998E+03 -0.82698789542E+02  0.49428078193E+03  0.00000000000E+00 0.  1.
         11    1    5    5    0    0 -0.34735740562E+03  0.77601548490E+02  0.31589242451E+03  0.47588569156E+03  0.00000000000E+00 0. -1.
        -11    1    5    5    0    0 -0.91853962095E+02  0.40047163403E+02  0.15918180629E+03  0.18809511717E+03  0.00000000000E+00 0.  1.
          4    1    6    6  503    0  0.50257147053E+02  0.27130618776E+03 -0.20155036114E+03  0.34169485864E+03  0.00000000000E+00 0. -1.
         -4    1    6    6    0  503 -0.26882114113E+02  0.57635517478E+02 -0.74437180656E+02  0.97905029483E+02  0.00000000000E+00 0.  1.
<mgrwt>
<rscale>  0 0.17243911E+04</rscale>
<asrwt>0</asrwt>
<pdfrwt beam="1">  1        2 0.14017664E+00 0.17243911E+04</pdfrwt>
<pdfrwt beam="2">  1       -1 0.12551892E+00 0.17243911E+04</pdfrwt>
<totfact> 0.17302123E+01</totfact>
</mgrwt>
</event>
<event>
12    6  0.9491186E-008  0.1773096E+04  0.7818608E-02  0.8720739E-01
         -1   -1    0    0    0  501 -0.00000000000E+00  0.00000000000E+00  0.93269105614E+03  0.93269105614E+03  0.00000000000E+00 0.  1.
          2   -1    0    0  501    0  0.00000000000E+00 -0.00000000000E+00 -0.84268737469E+03  0.84268737469E+03  0.00000000000E+00 0. -1.
         24    2    1    2    0    0 -0.22710624253E+03  0.27342429867E+03 -0.51242495872E+03  0.62873643930E+03  0.79950480203E+02 0.  0.
        254    2    1    2    0    0  0.22710624253E+03 -0.27342429867E+03  0.60242864018E+03  0.11466419915E+04  0.90858653839E+03 0.  0.
         23    2    4    4    0    0 -0.92720772841E+02 -0.41228627634E+03 -0.14309285485E+02  0.43244308612E+03  0.90692622124E+02 0.  0.
         23    2    4    4    0    0  0.31982701537E+03  0.13886197767E+03  0.61673792566E+03  0.71419890542E+03  0.90235463914E+02 0.  0.
          4    1    3    3  502    0 -0.21453038081E+03  0.27663918757E+03 -0.50238671301E+03  0.61232747268E+03  0.00000000000E+00 0. -1.
         -3    1    3    3    0  502 -0.12575861719E+02 -0.32148888995E+01 -0.10038245715E+02  0.16408966624E+02  0.00000000000E+00 0.  1.
         11    1    5    5    0    0 -0.13949659673E+02 -0.21763527641E+03 -0.37133899515E+02  0.22122077895E+03  0.00000000000E+00 0.  1.
        -11    1    5    5    0    0 -0.78771113168E+02 -0.19465099992E+03  0.22824614030E+02  0.21122230717E+03  0.00000000000E+00 0. -1.
          1    1    6    6  503    0  0.14536789015E+03  0.86812068966E+02  0.21938899140E+03  0.27712756693E+03  0.00000000000E+00 0. -1.
         -1    1    6    6    0  503  0.17445912522E+03  0.52049908700E+02  0.39734893426E+03  0.43707133848E+03  0.00000000000E+00 0.  1.
<mgrwt>
<rscale>  0 0.17730956E+04</rscale>
<asrwt>0</asrwt>
<pdfrwt beam="1">  1        2 0.12964421E+00 0.17730956E+04</pdfrwt>
<pdfrwt beam="2">  1       -1 0.14349093E+00 0.17730956E+04</pdfrwt>
<totfact> 0.13624739E+01</totfact>
</mgrwt>
</event>
<event>
12    6  0.9491186E-008  0.2822036E+04  0.7818608E-02  0.8296460E-01
          2   -1    0    0  501    0  0.00000000000E+00  0.00000000000E+00  0.22553432144E+04  0.22553432144E+04  0.00000000000E+00 0. -1.
         -1   -1    0    0    0  501 -0.00000000000E+00 -0.00000000000E+00 -0.88277988326E+03  0.88277988326E+03  0.00000000000E+00 0.  1.
         24    2    1    2    0    0  0.50283677334E+02  0.12571886009E+04  0.42420348999E+03  0.13301835231E+04  0.79924826648E+02 0.  0.
        254    2    1    2    0    0 -0.50283677334E+02 -0.12571886009E+04  0.94835984119E+03  0.18079395746E+04  0.88668342179E+03 0.  0.
         23    2    4    4    0    0 -0.40641211823E+03 -0.99553143273E+03  0.74969096002E+03  0.13147986212E+04  0.10200605597E+03 0.  0.
         23    2    4    4    0    0  0.35612844090E+03 -0.26165716815E+03  0.19866888117E+03  0.49314095333E+03  0.91797251801E+02 0.  0.
          2    1    3    3  502    0  0.14594572805E+02  0.73162406732E+03  0.20790797872E+03  0.76073155913E+03  0.00000000000E+00 0. -1.
         -1    1    3    3    0  502  0.35689104529E+02  0.52556453356E+03  0.21629551127E+03  0.56945196401E+03  0.00000000000E+00 0.  1.
         11    1    5    5    0    0 -0.40021022735E+02 -0.45918202178E+02  0.58488080754E+02  0.84445361876E+02  0.00000000000E+00 0. -1.
        -11    1    5    5    0    0 -0.36639109550E+03 -0.94961323055E+03  0.69120287927E+03  0.12303532594E+04  0.00000000000E+00 0.  1.
          4    1    6    6  503    0  0.34399742741E+03 -0.24961373988E+03  0.20851621899E+03  0.47341341635E+03  0.00000000000E+00 0.  1.
         -4    1    6    6    0  503  0.12131013495E+02 -0.12043428272E+02 -0.98473378208E+01  0.19727536976E+02  0.00000000000E+00 0. -1.
<mgrwt>
<rscale>  0 0.28220359E+04</rscale>
<asrwt>0</asrwt>
<pdfrwt beam="1">  1        2 0.34697588E+00 0.28220359E+04</pdfrwt>
<pdfrwt beam="2">  1       -1 0.13581229E+00 0.28220359E+04</pdfrwt>
<totfact> 0.21527385E+00</totfact>
</mgrwt>
</event>
<event>
12    6  0.9491186E-008  0.1322453E+04  0.7818608E-02  0.9011947E-01
         -1   -1    0    0    0  501 -0.00000000000E+00  0.00000000000E+00  0.39729035559E+03  0.39729035559E+03  0.00000000000E+00 0.  1.
          2   -1    0    0  501    0  0.00000000000E+00 -0.00000000000E+00 -0.11005059762E+04  0.11005059762E+04  0.00000000000E+00 0. -1.
         24    2    1    2    0    0  0.25237979673E+03 -0.25455539739E+03 -0.20712406318E+03  0.42155597438E+03  0.79467287935E+02 0.  0.
        254    2    1    2    0    0 -0.25237979673E+03  0.25455539739E+03 -0.49609155747E+03  0.10762403575E+04  0.88526406314E+03 0.  0.
         23    2    4    4    0    0  0.18554115433E+03  0.25894863179E+03 -0.53230641902E+03  0.62713299675E+03  0.92009554010E+02 0.  0.
         23    2    4    4    0    0 -0.43792095106E+03 -0.43932344015E+01  0.36214861546E+02  0.44910736071E+03  0.92692207661E+02 0.  0.
          4    1    3    3  502    0  0.23812544270E+03 -0.25127147224E+03 -0.21223616699E+03  0.40606067256E+03  0.00000000000E+00 0. -1.
         -3    1    3    3    0  502  0.14254354037E+02 -0.32839251518E+01  0.51121038062E+01  0.15495301828E+02  0.00000000000E+00 0.  1.
         11    1    5    5    0    0  0.18895475392E+03  0.26205945871E+03 -0.50544950086E+03  0.59988186908E+03  0.00000000000E+00 0.  1.
        -11    1    5    5    0    0 -0.34135995920E+01 -0.31108269251E+01 -0.26856918159E+02  0.27251127670E+02  0.00000000000E+00 0. -1.
          1    1    6    6  503    0 -0.32806360757E+02  0.26975560791E+01  0.28995298223E+02  0.43866404388E+02  0.00000000000E+00 0. -1.
         -1    1    6    6    0  503 -0.40511459030E+03 -0.70907904806E+01  0.72195633232E+01  0.40524095632E+03  0.00000000000E+00 0.  1.
<mgrwt>
<rscale>  0 0.13224529E+04</rscale>
<asrwt>0</asrwt>
<pdfrwt beam="1">  1        2 0.16930861E+00 0.13224529E+04</pdfrwt>
<pdfrwt beam="2">  1       -1 0.61121593E-01 0.13224529E+04</pdfrwt>
<totfact> 0.65965637E+01</totfact>
</mgrwt>
</event>
<event>
12    6  0.9491186E-008  0.1982682E+04  0.7818608E-02  0.8614760E-01
          2   -1    0    0  501    0  0.00000000000E+00  0.00000000000E+00  0.26455665865E+04  0.26455665865E+04  0.00000000000E+00 0. -1.
         -1   -1    0    0    0  501 -0.00000000000E+00 -0.00000000000E+00 -0.37147325209E+03  0.37147325209E+03  0.00000000000E+00 0.  1.
         24    2    1    2    0    0  0.53930545694E+03  0.54260784887E+03  0.70806067313E+03  0.10456798990E+04  0.82600731049E+02 0.  0.
        254    2    1    2    0    0 -0.53930545694E+03 -0.54260784887E+03  0.15660326613E+04  0.19713599396E+04  0.92115582922E+03 0.  0.
         23    2    4    4    0    0  0.20523685899E+03  0.62476904503E+02  0.31690795148E+03  0.39426975975E+03  0.94828592022E+02 0.  0.
         23    2    4    4    0    0 -0.74454231593E+03 -0.60508475337E+03  0.12491247098E+04  0.15770901798E+04  0.80187753038E+02 0.  0.
          4    1    3    3  502    0  0.12049549205E+03  0.85091738355E+02  0.10955086708E+03  0.18374210192E+03  0.00000000000E+00 0. -1.
         -3    1    3    3    0  502  0.41880996490E+03  0.45751611051E+03  0.59850980605E+03  0.86193779707E+03  0.00000000000E+00 0.  1.
         11    1    5    5    0    0  0.20676327713E+03  0.38437138073E+02  0.27966299102E+03  0.34991406788E+03  0.00000000000E+00 0. -1.
        -11    1    5    5    0    0 -0.15264181452E+01  0.24039766430E+02  0.37244960451E+02  0.44355691871E+02  0.00000000000E+00 0.  1.
          2    1    6    6  503    0 -0.64304804629E+03 -0.54952952153E+03  0.11231376494E+04  0.14060340197E+04  0.00000000000E+00 0. -1.
         -2    1    6    6    0  503 -0.10149426964E+03 -0.55555231841E+02  0.12598706038E+03  0.17105616019E+03  0.00000000000E+00 0.  1.
<mgrwt>
<rscale>  0 0.19826822E+04</rscale>
<asrwt>0</asrwt>
<pdfrwt beam="1">  1        2 0.40701023E+00 0.19826822E+04</pdfrwt>
<pdfrwt beam="2">  1       -1 0.57149733E-01 0.19826822E+04</pdfrwt>
<totfact> 0.94019726E+00</totfact>
</mgrwt>
</event>
<event>
12    6  0.9491186E-008  0.3048155E+04  0.7818608E-02  0.8230112E-01
         -3   -1    0    0    0  501 -0.00000000000E+00  0.00000000000E+00  0.12860284174E+04  0.12860284174E+04  0.00000000000E+00 0.  1.
          4   -1    0    0  501    0  0.00000000000E+00 -0.00000000000E+00 -0.18061908772E+04  0.18061908772E+04  0.00000000000E+00 0. -1.
         24    2    1    2    0    0  0.47286311683E+03  0.25890290754E+03 -0.15367320464E+04  0.16306247710E+04  0.82228453522E+02 0.  0.
        254    2    1    2    0    0 -0.47286311683E+03 -0.25890290754E+03  0.10165695867E+04  0.14615945236E+04  0.90122948457E+03 0.  0.
         23    2    4    4    0    0  0.14149365522E+03 -0.22798043436E+03  0.16086313687E+02  0.28345425696E+03  0.89955618965E+02 0.  0.
         23    2    4    4    0    0 -0.61435677205E+03 -0.30922473178E+02  0.10004832730E+04  0.11781402666E+04  0.93044427249E+02 0.  0.
          4    1    3    3  502    0  0.46677634246E+03  0.24833661898E+03 -0.14570447660E+04  0.15500098969E+04  0.00000000000E+00 0. -1.
         -3    1    3    3    0  502  0.60867743695E+01  0.10566288553E+02 -0.79687280407E+02  0.80614874153E+02  0.00000000000E+00 0.  1.
         11    1    5    5    0    0  0.10220567525E+02 -0.43582338517E+02  0.34264770992E+02  0.56373351526E+02  0.00000000000E+00 0. -1.
        -11    1    5    5    0    0  0.13127308770E+03 -0.18439809584E+03 -0.18178457305E+02  0.22708090544E+03  0.00000000000E+00 0.  1.
          2    1    6    6  503    0 -0.24617362394E+03  0.49535688781E+01  0.32187077315E+03  0.40524904142E+03  0.00000000000E+00 0. -1.
         -2    1    6    6    0  503 -0.36818314811E+03 -0.35876042056E+02  0.67861249988E+03  0.77289122517E+03  0.00000000000E+00 0.  1.
<mgrwt>
<rscale>  0 0.30481554E+04</rscale>
<asrwt>0</asrwt>
<pdfrwt beam="1">  1        4 0.27787552E+00 0.30481554E+04</pdfrwt>
<pdfrwt beam="2">  1       -3 0.19785053E+00 0.30481554E+04</pdfrwt>
<totfact> 0.12366546E-02</totfact>
</mgrwt>
</event>
<event>
12    6  0.9491186E-008  0.1557804E+04  0.7818608E-02  0.8846898E-01
          2   -1    0    0  501    0  0.00000000000E+00  0.00000000000E+00  0.20779471855E+04  0.20779471855E+04  0.00000000000E+00 0. -1.
         -1   -1    0    0    0  501 -0.00000000000E+00 -0.00000000000E+00 -0.29196523752E+03  0.29196523752E+03  0.00000000000E+00 0.  1.
         24    2    1    2    0    0  0.45699822618E+03 -0.12089821796E+03  0.90023840023E+03  0.10198744086E+04  0.79062470588E+02 0.  0.
        254    2    1    2    0    0 -0.45699822618E+03  0.12089821796E+03  0.88574354775E+03  0.13500380144E+04  0.90255041417E+03 0.  0.
         23    2    4    4    0    0 -0.23418177394E+03 -0.31400156521E+03  0.72122838705E+03  0.82577849614E+03  0.91113402946E+02 0.  0.
         23    2    4    4    0    0 -0.22281645224E+03  0.43489978317E+03  0.16451516070E+03  0.52425951826E+03  0.94856795231E+02 0.  0.
          4    1    3    3  502    0  0.44090795888E+03 -0.12415093717E+03  0.83270062975E+03  0.95037025532E+03  0.00000000000E+00 0. -1.
         -1    1    3    3    0  502  0.16090267301E+02  0.32527192101E+01  0.67537770474E+02  0.69504153291E+02  0.00000000000E+00 0.  1.
         11    1    5    5    0    0 -0.23083264428E+03 -0.27887541355E+03  0.61269455361E+03  0.71165288025E+03  0.00000000000E+00 0.  1.
        -11    1    5    5    0    0 -0.33491296577E+01 -0.35126151664E+02  0.10853383344E+03  0.11412561589E+03  0.00000000000E+00 0. -1.
          1    1    6    6  503    0 -0.10734686810E+03  0.19472217260E+03  0.25849771586E+02  0.22384880005E+03  0.00000000000E+00 0. -1.
         -1    1    6    6    0  503 -0.11546958414E+03  0.24017761056E+03  0.13866538911E+03  0.30041071821E+03  0.00000000000E+00 0.  1.
<mgrwt>
<rscale>  0 0.15578040E+04</rscale>
<asrwt>0</asrwt>
<pdfrwt beam="1">  1        2 0.31968417E+00 0.15578040E+04</pdfrwt>
<pdfrwt beam="2">  1       -1 0.44917730E-01 0.15578040E+04</pdfrwt>
<totfact> 0.32566150E+01</totfact>
</mgrwt>
</event>
<event>
12    6  0.9491186E-008  0.2587949E+04  0.7818608E-02  0.8372306E-01
         -1   -1    0    0    0  501 -0.00000000000E+00  0.00000000000E+00  0.19105503873E+04  0.19105503873E+04  0.00000000000E+00 0.  1.
          2   -1    0    0  501    0  0.00000000000E+00 -0.00000000000E+00 -0.87638130906E+03  0.87638130906E+03  0.00000000000E+00 0. -1.
         24    2    1    2    0    0  0.40008332533E+03  0.27006119701E+03 -0.65068520883E+03  0.81404237971E+03  0.79208822918E+02 0.  0.
        254    2    1    2    0    0 -0.40008332533E+03 -0.27006119701E+03  0.16848542870E+04  0.19728893166E+04  0.90584687983E+03 0.  0.
         23    2    4    4    0    0 -0.74284887974E+02 -0.48196138067E+03  0.13923630708E+04  0.14780911296E+04  0.90958503239E+02 0.  0.
         23    2    4    4    0    0 -0.32579843736E+03  0.21190018367E+03  0.29249121621E+03  0.49479818703E+03  0.90707357480E+02 0.  0.
          2    1    3    3  502    0  0.23035269602E+03  0.14962955224E+03 -0.30424955282E+03  0.40990140017E+03  0.00000000000E+00 0. -1.
         -1    1    3    3    0  502  0.16973062932E+03  0.12043164477E+03 -0.34643565601E+03  0.40414097954E+03  0.00000000000E+00 0.  1.
         11    1    5    5    0    0 -0.68580108084E+02 -0.25123138457E+03  0.63455898133E+03  0.68591948551E+03  0.00000000000E+00 0.  1.
        -11    1    5    5    0    0 -0.57047798900E+01 -0.23072999611E+03  0.75780408948E+03  0.79217164406E+03  0.00000000000E+00 0. -1.
          2    1    6    6  503    0 -0.17057037880E+03  0.74144677297E+02  0.97349748874E+02  0.20992536984E+03  0.00000000000E+00 0. -1.
         -2    1    6    6    0  503 -0.15522805856E+03  0.13775550637E+03  0.19514146734E+03  0.28487281719E+03  0.00000000000E+00 0.  1.
<mgrwt>
<rscale>  0 0.25879495E+04</rscale>
<asrwt>0</asrwt>
<pdfrwt beam="1">  1        2 0.13482789E+00 0.25879495E+04</pdfrwt>
<pdfrwt beam="2">  1       -1 0.29393083E+00 0.25879495E+04</pdfrwt>
<totfact> 0.11108851E+00</totfact>
</mgrwt>
</event>
<event>
12    6  0.9491186E-008  0.1729972E+04  0.7818608E-02  0.8744453E-01
         -1   -1    0    0    0  501 -0.00000000000E+00  0.00000000000E+00  0.36867699571E+03  0.36867699571E+03  0.00000000000E+00 0.  1.
          2   -1    0    0  501    0  0.00000000000E+00 -0.00000000000E+00 -0.20294201914E+04  0.20294201914E+04  0.00000000000E+00 0. -1.
         24    2    1    2    0    0  0.55573693256E+03  0.25707076593E+03 -0.76088048289E+03  0.97993473044E+03  0.80025307033E+02 0.  0.
        254    2    1    2    0    0 -0.55573693256E+03 -0.25707076593E+03 -0.89986271274E+03  0.14181624566E+04  0.90912206810E+03 0.  0.
         23    2    4    4    0    0 -0.18906703160E+03  0.24283949247E+03  0.36065367490E+00  0.32122000812E+03  0.92004358609E+02 0.  0.
         23    2    4    4    0    0 -0.36666990096E+03 -0.49991025840E+03 -0.90022336642E+03  0.10969424485E+04  0.92323037102E+02 0.  0.
          4    1    3    3  502    0  0.41302527225E+03  0.15392751244E+03 -0.52283258456E+03  0.68384023432E+03  0.00000000000E+00 0. -1.
         -3    1    3    3    0  502  0.14271166031E+03  0.10314325349E+03 -0.23804789833E+03  0.29609449612E+03  0.00000000000E+00 0.  1.
         11    1    5    5    0    0 -0.46102914998E+02  0.30323845074E+02 -0.30813031314E+02  0.63201718728E+02  0.00000000000E+00 0. -1.
        -11    1    5    5    0    0 -0.14296411660E+03  0.21251564740E+03  0.31173684989E+02  0.25801828939E+03  0.00000000000E+00 0.  1.
          1    1    6    6  503    0 -0.23544941583E+03 -0.38156831238E+03 -0.60790118794E+03  0.75536392469E+03  0.00000000000E+00 0. -1.
         -1    1    6    6    0  503 -0.13122048513E+03 -0.11834194602E+03 -0.29232217847E+03  0.34157852382E+03  0.00000000000E+00 0.  1.
<mgrwt>
<rscale>  0 0.17299717E+04</rscale>
<asrwt>0</asrwt>
<pdfrwt beam="1">  1        2 0.31221849E+00 0.17299717E+04</pdfrwt>
<pdfrwt beam="2">  1       -1 0.56719538E-01 0.17299717E+04</pdfrwt>
<totfact> 0.21889533E+01</totfact>
</mgrwt>
</event>
<event>
12    6  0.9491186E-008  0.1742110E+04  0.7818608E-02  0.8737705E-01
          2   -1    0    0  501    0  0.00000000000E+00  0.00000000000E+00  0.28791102983E+04  0.28791102983E+04  0.00000000000E+00 0. -1.
         -1   -1    0    0    0  501 -0.00000000000E+00 -0.00000000000E+00 -0.26353163512E+03  0.26353163512E+03  0.00000000000E+00 0.  1.
         24    2    1    2    0    0 -0.60180876119E+03  0.54838380681E+02  0.13014275225E+04  0.14371167981E+04  0.80062863052E+02 0.  0.
        254    2    1    2    0    0  0.60180876119E+03 -0.54838380681E+02  0.13141511407E+04  0.17055251353E+04  0.90368231896E+03 0.  0.
         23    2    4    4    0    0  0.74154208485E+03 -0.18436200128E+03  0.64603598357E+03  0.10046784887E+04  0.90235039932E+02 0.  0.
         23    2    4    4    0    0 -0.13973332367E+03  0.12952362060E+03  0.66811515712E+03  0.70084664664E+03  0.92230086724E+02 0.  0.
          2    1    3    3  502    0 -0.43940554700E+03  0.73095104810E+02  0.98220618041E+03  0.10784939082E+04  0.00000000000E+00 0. -1.
         -1    1    3    3    0  502 -0.16240321419E+03 -0.18256724129E+02  0.31922134209E+03  0.35862288996E+03  0.00000000000E+00 0.  1.
         11    1    5    5    0    0  0.55671226187E+03 -0.17770537451E+03  0.49724497681E+03  0.76730718073E+03  0.00000000000E+00 0.  1.
        -11    1    5    5    0    0  0.18482982299E+03 -0.66566267698E+01  0.14879100675E+03  0.23737130795E+03  0.00000000000E+00 0. -1.
          2    1    6    6  503    0 -0.77851055613E+02  0.12403109378E+02  0.22919667912E+03  0.24237520851E+03  0.00000000000E+00 0. -1.
         -2    1    6    6    0  503 -0.61882268052E+02  0.11712051122E+03  0.43891847801E+03  0.45847143813E+03  0.00000000000E+00 0.  1.
<mgrwt>
<rscale>  0 0.17421098E+04</rscale>
<asrwt>0</asrwt>
<pdfrwt beam="1">  1        2 0.44294002E+00 0.17421098E+04</pdfrwt>
<pdfrwt beam="2">  1       -1 0.40543331E-01 0.17421098E+04</pdfrwt>
<totfact> 0.13324804E+01</totfact>
</mgrwt>
</event>
<event>
12    6  0.9491186E-008  0.2617149E+04  0.7818608E-02  0.8362399E-01
         -1   -1    0    0    0  501 -0.00000000000E+00  0.00000000000E+00  0.11453724861E+04  0.11453724861E+04  0.00000000000E+00 0.  1.
          2   -1    0    0  501    0  0.00000000000E+00 -0.00000000000E+00 -0.14950308971E+04  0.14950308971E+04  0.00000000000E+00 0. -1.
         24    2    1    2    0    0  0.37916285164E+03  0.80504202801E+03  0.56648943283E+03  0.10578125933E+04  0.78740523596E+02 0.  0.
        254    2    1    2    0    0 -0.37916285164E+03 -0.80504202801E+03 -0.91614784382E+03  0.15825907900E+04  0.93456385650E+03 0.  0.
         23    2    4    4    0    0 -0.44498879925E+03 -0.53905232640E+03 -0.10490975889E+04  0.12639099507E+04  0.90940476513E+02 0.  0.
         23    2    4    4    0    0  0.65825947611E+02 -0.26598970161E+03  0.13294974510E+03  0.31868083931E+03  0.93799071866E+02 0.  0.
          4    1    3    3  502    0  0.93816510533E+02  0.12867401307E+03  0.10028711828E+03  0.18819151251E+03  0.00000000000E+00 0. -1.
         -3    1    3    3    0  502  0.28534634111E+03  0.67636801494E+03  0.46620231455E+03  0.86962108077E+03  0.00000000000E+00 0.  1.
         11    1    5    5    0    0 -0.31426112965E+03 -0.32898269305E+03 -0.62763242456E+03  0.77518522322E+03  0.00000000000E+00 0.  1.
        -11    1    5    5    0    0 -0.13072766960E+03 -0.21006963335E+03 -0.42146516436E+03  0.48872472745E+03  0.00000000000E+00 0. -1.
          3    1    6    6  503    0 -0.22520956158E+02 -0.83793931148E+02  0.47332924750E+02  0.98838363650E+02  0.00000000000E+00 0. -1.
         -3    1    6    6    0  503  0.88346903769E+02 -0.18219577046E+03  0.85616820348E+02  0.21984247566E+03  0.00000000000E+00 0.  1.
<mgrwt>
<rscale>  0 0.26171490E+04</rscale>
<asrwt>0</asrwt>
<pdfrwt beam="1">  1        2 0.23000475E+00 0.26171490E+04</pdfrwt>
<pdfrwt beam="2">  1       -1 0.17621115E+00 0.26171490E+04</pdfrwt>
<totfact> 0.28489852E+00</totfact>
</mgrwt>
</event>
<event>
12    6  0.9491186E-008  0.1763762E+04  0.7818608E-02  0.8725811E-01
          4   -1    0    0  501    0  0.00000000000E+00  0.00000000000E+00  0.75860735914E+03  0.75860735914E+03  0.00000000000E+00 0. -1.
         -1   -1    0    0    0  501 -0.00000000000E+00 -0.00000000000E+00 -0.10251865056E+04  0.10251865056E+04  0.00000000000E+00 0.  1.
         24    2    1    2    0    0  0.33393993740E+03 -0.37654449463E+03  0.31146488189E+03  0.59710304102E+03  0.78867171416E+02 0.  0.
        254    2    1    2    0    0 -0.33393993740E+03  0.37654449463E+03 -0.57804402833E+03  0.11866908237E+04  0.90597934532E+03 0.  0.
         23    2    4    4    0    0 -0.28020981344E+03  0.14905547895E+03  0.18834757942E+03  0.38065855653E+03  0.93225804542E+02 0.  0.
         23    2    4    4    0    0 -0.53730123960E+02  0.22748901568E+03 -0.76639160775E+03  0.80603226718E+03  0.87713971658E+02 0.  0.
          4    1    3    3  502    0  0.32268823397E+02 -0.70710938809E+02  0.68324283126E+02  0.10348681798E+03  0.00000000000E+00 0. -1.
         -3    1    3    3    0  502  0.30167111400E+03 -0.30583355582E+03  0.24314059876E+03  0.49361622305E+03  0.00000000000E+00 0.  1.
         11    1    5    5    0    0 -0.94672322896E+01  0.30442349563E+02  0.35912038686E+01  0.32082111516E+02  0.00000000000E+00 0.  1.
        -11    1    5    5    0    0 -0.27074258115E+03  0.11861312939E+03  0.18475637555E+03  0.34857644501E+03  0.00000000000E+00 0. -1.
          4    1    6    6  503    0 -0.42487298292E+02  0.17426884459E+03 -0.68530501267E+03  0.70839096627E+03  0.00000000000E+00 0. -1.
         -4    1    6    6    0  503 -0.11242825669E+02  0.53220171092E+02 -0.81086595085E+02  0.97641300906E+02  0.00000000000E+00 0.  1.
<mgrwt>
<rscale>  0 0.17637619E+04</rscale>
<asrwt>0</asrwt>
<pdfrwt beam="1">  1        4 0.11670883E+00 0.17637619E+04</pdfrwt>
<pdfrwt beam="2">  1       -1 0.15772100E+00 0.17637619E+04</pdfrwt>
<totfact> 0.67777323E-01</totfact>
</mgrwt>
</event>
<event>
12    6  0.9491186E-008  0.2403318E+04  0.7818608E-02  0.8438263E-01
          2   -1    0    0  501    0  0.00000000000E+00  0.00000000000E+00  0.17670306394E+04  0.17670306394E+04  0.00000000000E+00 0. -1.
         -1   -1    0    0    0  501 -0.00000000000E+00 -0.00000000000E+00 -0.81718103875E+03  0.81718103875E+03  0.00000000000E+00 0.  1.
         24    2    1    2    0    0 -0.52672802571E+03  0.44167501500E+03 -0.41738122689E+03  0.80844118079E+03  0.82769694303E+02 0.  0.
        254    2    1    2    0    0  0.52672802571E+03 -0.44167501500E+03  0.13672308276E+04  0.17757704974E+04  0.90084487654E+03 0.  0.
         23    2    4    4    0    0  0.57063884903E+02  0.18187525699E+03  0.15470412045E+02  0.21213678347E+03  0.91802969379E+02 0.  0.
         23    2    4    4    0    0  0.46966414081E+03 -0.62355027199E+03  0.13517604155E+04  0.15636337139E+04  0.91075921435E+02 0.  0.
          2    1    3    3  502    0 -0.21491762098E+03  0.18868891150E+03 -0.22114724480E+03  0.36152343356E+03  0.00000000000E+00 0. -1.
         -3    1    3    3    0  502 -0.31181040473E+03  0.25298610350E+03 -0.19623398209E+03  0.44691774723E+03  0.00000000000E+00 0.  1.
         11    1    5    5    0    0  0.70283395316E+02  0.15190759643E+03 -0.14150007749E+02  0.16797587990E+03  0.00000000000E+00 0. -1.
        -11    1    5    5    0    0 -0.13219510412E+02  0.29967660558E+02  0.29620419794E+02  0.44160903564E+02  0.00000000000E+00 0.  1.
          3    1    6    6  503    0  0.44760297906E+03 -0.57112486664E+03  0.12868113177E+04  0.14773000397E+04  0.00000000000E+00 0. -1.
         -3    1    6    6    0  503  0.22061161755E+02 -0.52425405346E+02  0.64949097851E+02  0.86333674168E+02  0.00000000000E+00 0.  1.
<mgrwt>
<rscale>  0 0.24033177E+04</rscale>
<asrwt>0</asrwt>
<pdfrwt beam="1">  1        2 0.27185087E+00 0.24033177E+04</pdfrwt>
<pdfrwt beam="2">  1       -1 0.12572016E+00 0.24033177E+04</pdfrwt>
<totfact> 0.50815444E+00</totfact>
</mgrwt>
</event>
<event>
12    6  0.9491186E-008  0.2111866E+04  0.7818608E-02  0.8556034E-01
         -1   -1    0    0    0  501 -0.00000000000E+00  0.00000000000E+00  0.41273191948E+03  0.41273191948E+03  0.00000000000E+00 0.  1.
          2   -1    0    0  501    0  0.00000000000E+00 -0.00000000000E+00 -0.27014988832E+04  0.27014988832E+04  0.00000000000E+00 0. -1.
         24    2    1    2    0    0  0.37905182015E+03 -0.46146227666E+03 -0.18422970160E+04  0.19383560981E+04  0.80860081425E+02 0.  0.
        254    2    1    2    0    0 -0.37905182015E+03  0.46146227666E+03 -0.44646994771E+03  0.11758747046E+04  0.90924044756E+03 0.  0.
         23    2    4    4    0    0 -0.65026886327E+03  0.21487627730E+03 -0.39020982926E+03  0.79351682573E+03  0.91563272022E+02 0.  0.
         23    2    4    4    0    0  0.27121704312E+03  0.24658599936E+03 -0.56260118442E+02  0.38235787883E+03  0.93107502469E+02 0.  0.
          2    1    3    3  502    0  0.26962311306E+03 -0.31882441097E+03 -0.13993174919E+04  0.14602859553E+04  0.00000000000E+00 0. -1.
         -1    1    3    3    0  502  0.10942870709E+03 -0.14263786569E+03 -0.44297952402E+03  0.47807014273E+03  0.00000000000E+00 0.  1.
         11    1    5    5    0    0 -0.28161436261E+03  0.80795026264E+02 -0.21757857640E+03  0.36493139410E+03  0.00000000000E+00 0. -1.
        -11    1    5    5    0    0 -0.36865450066E+03  0.13408125104E+03 -0.17263125286E+03  0.42858543163E+03  0.00000000000E+00 0.  1.
          3    1    6    6  503    0  0.59680208034E+02  0.67212890848E+02  0.25096079153E+02  0.93322629174E+02  0.00000000000E+00 0. -1.
         -3    1    6    6    0  503  0.21153683509E+03  0.17937310851E+03 -0.81356197596E+02  0.28903524965E+03  0.00000000000E+00 0.  1.
<mgrwt>
<rscale>  0 0.21118663E+04</rscale>
<asrwt>0</asrwt>
<pdfrwt beam="1">  1        2 0.41561523E+00 0.21118663E+04</pdfrwt>
<pdfrwt beam="2">  1       -1 0.63497216E-01 0.21118663E+04</pdfrwt>
<totfact> 0.69896707E+00</totfact>
</mgrwt>
</event>
<event>
12    6  0.9491186E-008  0.1404189E+04  0.7818608E-02  0.8950792E-01
         -1   -1    0    0    0  501 -0.00000000000E+00  0.00000000000E+00  0.38842223680E+03  0.38842223680E+03  0.00000000000E+00 0.  1.
          2   -1    0    0  501    0  0.00000000000E+00 -0.00000000000E+00 -0.12690748963E+04  0.12690748963E+04  0.00000000000E+00 0. -1.
         24    2    1    2    0    0 -0.13840379532E+03 -0.36091518190E+03 -0.66335078351E+02  0.40034968878E+03  0.80399947773E+02 0.  0.
        254    2    1    2    0    0  0.13840379532E+03  0.36091518190E+03 -0.81431758114E+03  0.12571474443E+04  0.87629401156E+03 0.  0.
         23    2    4    4    0    0  0.20698315047E+03  0.14589186121E+03 -0.94358102222E+03  0.98118252329E+03  0.90815960919E+02 0.  0.
         23    2    4    4    0    0 -0.68579355147E+02  0.21502332068E+03  0.12926344108E+03  0.27596492102E+03  0.92246647861E+02 0.  0.
          2    1    3    3  502    0 -0.86454998919E+02 -0.13536900502E+03 -0.40856637107E+01  0.16067335500E+03  0.00000000000E+00 0. -1.
         -1    1    3    3    0  502 -0.51948796402E+02 -0.22554617688E+03 -0.62249414641E+02  0.23967633378E+03  0.00000000000E+00 0.  1.
         11    1    5    5    0    0  0.13394170629E+03  0.11227250645E+03 -0.48328378645E+03  0.51391508504E+03  0.00000000000E+00 0. -1.
        -11    1    5    5    0    0  0.73041444173E+02  0.33619354760E+02 -0.46029723577E+03  0.46726743824E+03  0.00000000000E+00 0.  1.
          4    1    6    6  503    0 -0.65814189754E+02  0.73115293081E+02  0.76204899169E+02  0.12443689289E+03  0.00000000000E+00 0. -1.
         -4    1    6    6    0  503 -0.27651653926E+01  0.14190802760E+03  0.53058541916E+02  0.15152802813E+03  0.00000000000E+00 0.  1.
<mgrwt>
<rscale>  0 0.14041893E+04</rscale>
<asrwt>0</asrwt>
<pdfrwt beam="1">  1        2 0.19524230E+00 0.14041893E+04</pdfrwt>
<pdfrwt beam="2">  1       -1 0.59757266E-01 0.14041893E+04</pdfrwt>
<totfact> 0.54280174E+01</totfact>
</mgrwt>
</event>
<event>
12    6  0.9491186E-008  0.1471311E+04  0.7818608E-02  0.8903758E-01
         -1   -1    0    0    0  501 -0.00000000000E+00  0.00000000000E+00  0.27013627981E+03  0.27013627981E+03  0.00000000000E+00 0.  1.
          2   -1    0    0  501    0  0.00000000000E+00 -0.00000000000E+00 -0.20033924868E+04  0.20033924868E+04  0.00000000000E+00 0. -1.
         24    2    1    2    0    0 -0.31406827095E+03 -0.32125347369E+03 -0.50516400077E+03  0.68066186506E+03  0.79165861998E+02 0.  0.
        254    2    1    2    0    0  0.31406827095E+03  0.32125347369E+03 -0.12280922062E+04  0.15928669016E+04  0.90948987124E+03 0.  0.
         23    2    4    4    0    0 -0.54194500686E+02  0.55604238092E+03 -0.67116301989E+03  0.87813220309E+03  0.92391523162E+02 0.  0.
         23    2    4    4    0    0  0.36826277163E+03 -0.23478890723E+03 -0.55692918634E+03  0.71473469847E+03  0.99660777968E+02 0.  0.
          2    1    3    3  502    0 -0.23520046092E+03 -0.22019217329E+03 -0.40763232227E+03  0.51958441101E+03  0.00000000000E+00 0. -1.
         -1    1    3    3    0  502 -0.78867810024E+02 -0.10106130040E+03 -0.97531678497E+02  0.16107745406E+03  0.00000000000E+00 0.  1.
         11    1    5    5    0    0  0.12955374400E+02  0.10867494646E+03 -0.90268400538E+02  0.14186779003E+03  0.00000000000E+00 0.  1.
        -11    1    5    5    0    0 -0.67149875086E+02  0.44736743446E+03 -0.58089461935E+03  0.73626441305E+03  0.00000000000E+00 0. -1.
          2    1    6    6  503    0  0.28376582924E+03 -0.15896741669E+03 -0.34395096205E+03  0.47338773718E+03  0.00000000000E+00 0. -1.
         -2    1    6    6    0  503  0.84496942388E+02 -0.75821490541E+02 -0.21297822429E+03  0.24134696129E+03  0.00000000000E+00 0.  1.
<mgrwt>
<rscale>  0 0.14713110E+04</rscale>
<asrwt>0</asrwt>
<pdfrwt beam="1">  1        2 0.30821422E+00 0.14713110E+04</pdfrwt>
<pdfrwt beam="2">  1       -1 0.41559429E-01 0.14713110E+04</pdfrwt>
<totfact> 0.41672331E+01</totfact>
</mgrwt>
</event>
<event>
12    6  0.9491186E-008  0.1820845E+04  0.7818608E-02  0.8695292E-01
         -1   -1    0    0    0  501 -0.00000000000E+00  0.00000000000E+00  0.21464547934E+03  0.21464547934E+03  0.00000000000E+00 0.  1.
          2   -1    0    0  501    0  0.00000000000E+00 -0.00000000000E+00 -0.38615727061E+04  0.38615727061E+04  0.00000000000E+00 0. -1.
         24    2    1    2    0    0 -0.66031290959E+03 -0.16372574945E+03 -0.15999729617E+04  0.17403690487E+04  0.78432696796E+02 0.  0.
        254    2    1    2    0    0  0.66031290959E+03  0.16372574945E+03 -0.20469542651E+04  0.23358491368E+04  0.89629803456E+03 0.  0.
         23    2    4    4    0    0  0.50502153536E+03  0.25475815533E+03 -0.20567858286E+04  0.21350355986E+04  0.89780807012E+02 0.  0.
         23    2    4    4    0    0  0.15529137423E+03 -0.91032405882E+02  0.98315635665E+01  0.20081353820E+03  0.88470942407E+02 0.  0.
          4    1    3    3  502    0 -0.54417754916E+03 -0.12849800777E+03 -0.12332121460E+04  0.13540506416E+04  0.00000000000E+00 0. -1.
         -3    1    3    3    0  502 -0.11613536042E+03 -0.35227741685E+02 -0.36676081574E+03  0.38631840713E+03  0.00000000000E+00 0.  1.
         11    1    5    5    0    0  0.40806236684E+02  0.18414121553E+02 -0.91213644732E+02  0.10160786294E+03  0.00000000000E+00 0.  1.
        -11    1    5    5    0    0  0.46421529867E+03  0.23634403378E+03 -0.19655721839E+04  0.20334277356E+04  0.00000000000E+00 0. -1.
          4    1    6    6  503    0  0.14259434784E+03 -0.42853623848E+02 -0.45227889117E+01  0.14896320597E+03  0.00000000000E+00 0. -1.
         -4    1    6    6    0  503  0.12697026393E+02 -0.48178782034E+02  0.14354352478E+02  0.51850332232E+02  0.00000000000E+00 0.  1.
<mgrwt>
<rscale>  0 0.18208450E+04</rscale>
<asrwt>0</asrwt>
<pdfrwt beam="1">  1        2 0.59408809E+00 0.18208450E+04</pdfrwt>
<pdfrwt beam="2">  1       -1 0.33022383E-01 0.18208450E+04</pdfrwt>
<totfact> 0.41189385E+00</totfact>
</mgrwt>
</event>
<event>
12    6  0.9491186E-008  0.1541298E+04  0.7818608E-02  0.8857446E-01
          2   -1    0    0  501    0  0.00000000000E+00  0.00000000000E+00  0.23799227378E+04  0.23799227378E+04  0.00000000000E+00 0. -1.
         -1   -1    0    0    0  501 -0.00000000000E+00 -0.00000000000E+00 -0.24954576642E+03  0.24954576642E+03  0.00000000000E+00 0.  1.
         24    2    1    2    0    0  0.63108484718E+02  0.30681157308E+03  0.30418425111E+02  0.32466045275E+03  0.79769084074E+02 0.  0.
        254    2    1    2    0    0 -0.63108484718E+02 -0.30681157308E+03  0.20999585462E+04  0.23048080515E+04  0.89677100526E+03 0.  0.
         23    2    4    4    0    0  0.36385424166E+03 -0.74442618827E+02  0.13752208068E+04  0.14276870130E+04  0.95531811772E+02 0.  0.
         23    2    4    4    0    0 -0.42696272638E+03 -0.23236895425E+03  0.72473773947E+03  0.87712103844E+03  0.88340389658E+02 0.  0.
          2    1    3    3  502    0  0.68368506905E+02  0.13901469940E+03  0.61801241495E+01  0.15504042479E+03  0.00000000000E+00 0. -1.
         -1    1    3    3    0  502 -0.52600221871E+01  0.16779687368E+03  0.24238300962E+02  0.16962002795E+03  0.00000000000E+00 0.  1.
         11    1    5    5    0    0  0.41518173629E+02 -0.35455016383E+02  0.13383735934E+03  0.14454499536E+03  0.00000000000E+00 0.  1.
        -11    1    5    5    0    0  0.32233606803E+03 -0.38987602444E+02  0.12413834474E+04  0.12831420176E+04  0.00000000000E+00 0. -1.
          3    1    6    6  503    0 -0.40643512330E+03 -0.23839141487E+03  0.70531108192E+03  0.84822384924E+03  0.00000000000E+00 0. -1.
         -3    1    6    6    0  503 -0.20527603077E+02  0.60224606248E+01  0.19426657547E+02  0.28897189197E+02  0.00000000000E+00 0.  1.
<mgrwt>
<rscale>  0 0.15412977E+04</rscale>
<asrwt>0</asrwt>
<pdfrwt beam="1">  1        2 0.36614194E+00 0.15412977E+04</pdfrwt>
<pdfrwt beam="2">  1       -1 0.38391658E-01 0.15412977E+04</pdfrwt>
<totfact> 0.29451123E+01</totfact>
</mgrwt>
</event>
<event>
12    6  0.9491186E-008  0.1403742E+04  0.7818608E-02  0.8951115E-01
          2   -1    0    0  501    0  0.00000000000E+00  0.00000000000E+00  0.53450834648E+03  0.53450834648E+03  0.00000000000E+00 0. -1.
         -1   -1    0    0    0  501 -0.00000000000E+00 -0.00000000000E+00 -0.92163690569E+03  0.92163690569E+03  0.00000000000E+00 0.  1.
         24    2    1    2    0    0 -0.31756275392E+03  0.21978861617E+03 -0.24964202353E+03  0.46511553102E+03  0.69700637092E+02 0.  0.
        254    2    1    2    0    0  0.31756275392E+03 -0.21978861617E+03 -0.13748653569E+03  0.99102972115E+03  0.90226615931E+03 0.  0.
         23    2    4    4    0    0  0.55344939713E+03 -0.10275252465E+03  0.14995611130E+03  0.59058776720E+03  0.97173859359E+02 0.  0.
         23    2    4    4    0    0 -0.23588664321E+03 -0.11703609152E+03 -0.28744264699E+03  0.40044195395E+03  0.91599825380E+02 0.  0.
          2    1    3    3  502    0 -0.13694755418E+03  0.59398850143E+02 -0.11609472948E+03  0.18910537329E+03  0.00000000000E+00 0. -1.
         -1    1    3    3    0  502 -0.18061519974E+03  0.16038976603E+03 -0.13354729405E+03  0.27601015773E+03  0.00000000000E+00 0.  1.
         11    1    5    5    0    0  0.31398553112E+02  0.16579154063E+02  0.13247152333E+02  0.37897553112E+02  0.00000000000E+00 0.  1.
        -11    1    5    5    0    0  0.52205084402E+03 -0.11933167871E+03  0.13670895897E+03  0.55269021409E+03  0.00000000000E+00 0. -1.
          1    1    6    6  503    0 -0.19259112520E+03 -0.12372464630E+03 -0.26816628904E+03  0.35257947783E+03  0.00000000000E+00 0. -1.
         -1    1    6    6    0  503 -0.43295518013E+02  0.66885547729E+01 -0.19276357951E+02  0.47862476125E+02  0.00000000000E+00 0.  1.
<mgrwt>
<rscale>  0 0.14037416E+04</rscale>
<asrwt>0</asrwt>
<pdfrwt beam="1">  1        2 0.82232054E-01 0.14037416E+04</pdfrwt>
<pdfrwt beam="2">  1       -1 0.14179029E+00 0.14037416E+04</pdfrwt>
<totfact> 0.25683753E+01</totfact>
</mgrwt>
</event>
<event>
12    6  0.9491186E-008  0.2571992E+04  0.7818608E-02  0.8377778E-01
          2   -1    0    0  501    0  0.00000000000E+00  0.00000000000E+00  0.31308044308E+04  0.31308044308E+04  0.00000000000E+00 0. -1.
         -1   -1    0    0    0  501 -0.00000000000E+00 -0.00000000000E+00 -0.52823028586E+03  0.52823028586E+03  0.00000000000E+00 0.  1.
         24    2    1    2    0    0 -0.18440873243E+03 -0.76601500940E+03 -0.29807198954E+01  0.79206465050E+03  0.81067568430E+02 0.  0.
        254    2    1    2    0    0  0.18440873243E+03  0.76601500940E+03  0.26055548649E+04  0.28669700662E+04  0.89989756718E+03 0.  0.
         23    2    4    4    0    0 -0.83492447618E+01 -0.48579109234E+02  0.13558156081E+04  0.13599179835E+04  0.93334447116E+02 0.  0.
         23    2    4    4    0    0  0.19275797720E+03  0.81459411864E+03  0.12497392568E+04  0.15070520827E+04  0.92943822171E+02 0.  0.
          2    1    3    3  502    0  0.76264813162E+01 -0.28529201208E+02  0.49639057006E+01  0.29945265046E+02  0.00000000000E+00 0. -1.
         -1    1    3    3    0  502 -0.19203521375E+03 -0.73748580819E+03 -0.79446255961E+01  0.76211938545E+03  0.00000000000E+00 0.  1.
         11    1    5    5    0    0  0.32689587135E+02 -0.14035567243E+02  0.93781482195E+03  0.93848934279E+03  0.00000000000E+00 0.  1.
        -11    1    5    5    0    0 -0.41038831897E+02 -0.34543541991E+02  0.41800078614E+03  0.42142864074E+03  0.00000000000E+00 0. -1.
          4    1    6    6  503    0  0.10725871429E+03  0.57701276753E+03  0.81539269249E+03  0.10046459121E+04  0.00000000000E+00 0.  1.
         -4    1    6    6    0  503  0.85499262904E+02  0.23758135111E+03  0.43434656426E+03  0.50240617058E+03  0.00000000000E+00 0. -1.
<mgrwt>
<rscale>  0 0.25719920E+04</rscale>
<asrwt>0</asrwt>
<pdfrwt beam="1">  1        2 0.48166220E+00 0.25719920E+04</pdfrwt>
<pdfrwt beam="2">  1       -1 0.81266200E-01 0.25719920E+04</pdfrwt>
<totfact> 0.21868317E+00</totfact>
</mgrwt>
</event>
<event>
12    6  0.9491186E-008  0.2151165E+04  0.7818608E-02  0.8539034E-01
         -1   -1    0    0    0  501 -0.00000000000E+00  0.00000000000E+00  0.58904278294E+03  0.58904278294E+03  0.00000000000E+00 0.  1.
          2   -1    0    0  501    0  0.00000000000E+00 -0.00000000000E+00 -0.19639954027E+04  0.19639954027E+04  0.00000000000E+00 0. -1.
         24    2    1    2    0    0  0.22449499521E+03 -0.28951176539E+03  0.38970512202E+03  0.54072785811E+03  0.79381794115E+02 0.  0.
        254    2    1    2    0    0 -0.22449499521E+03  0.28951176539E+03 -0.17646577418E+04  0.20123103276E+04  0.89507588702E+03 0.  0.
         23    2    4    4    0    0 -0.26818076774E+03  0.58707270902E+03 -0.11099302903E+04  0.12871236485E+04  0.90370057474E+02 0.  0.
         23    2    4    4    0    0  0.43685772532E+02 -0.29756094363E+03 -0.65472745148E+03  0.72518667906E+03  0.82320847107E+02 0.  0.
          2    1    3    3  502    0  0.43635814149E+02 -0.18523221109E+02  0.33800005843E+02  0.58220566741E+02  0.00000000000E+00 0. -1.
         -1    1    3    3    0  502  0.18085918106E+03 -0.27098854428E+03  0.35590511617E+03  0.48250729137E+03  0.00000000000E+00 0.  1.
         11    1    5    5    0    0 -0.70561333826E+02  0.24876427251E+03 -0.40129118933E+03  0.47738578083E+03  0.00000000000E+00 0. -1.
        -11    1    5    5    0    0 -0.19761943391E+03  0.33830843651E+03 -0.70863910099E+03  0.80973786766E+03  0.00000000000E+00 0.  1.
          3    1    6    6  503    0  0.60108000492E+02 -0.18165557624E+03 -0.35256627685E+03  0.40114174512E+03  0.00000000000E+00 0.  1.
         -3    1    6    6    0  503 -0.16422227960E+02 -0.11590536739E+03 -0.30216117463E+03  0.32404493395E+03  0.00000000000E+00 0. -1.
<mgrwt>
<rscale>  0 0.21511646E+04</rscale>
<asrwt>0</asrwt>
<pdfrwt beam="1">  1        2 0.30215314E+00 0.21511646E+04</pdfrwt>
<pdfrwt beam="2">  1       -1 0.90621967E-01 0.21511646E+04</pdfrwt>
<totfact> 0.86950108E+00</totfact>
</mgrwt>
</event>
<event>
12    6  0.9491186E-008  0.1576292E+04  0.7818608E-02  0.8835246E-01
         -1   -1    0    0    0  501 -0.00000000000E+00  0.00000000000E+00  0.34803591018E+03  0.34803591018E+03  0.00000000000E+00 0.  1.
          2   -1    0    0  501    0  0.00000000000E+00 -0.00000000000E+00 -0.17847996250E+04  0.17847996250E+04  0.00000000000E+00 0. -1.
         24    2    1    2    0    0  0.36231158514E+03 -0.14645477765E+03 -0.88309180996E+03  0.96884417605E+03  0.78033364862E+02 0.  0.
        254    2    1    2    0    0 -0.36231158514E+03  0.14645477765E+03 -0.55367190483E+03  0.11639913591E+04  0.94636389367E+03 0.  0.
         23    2    4    4    0    0 -0.59306737299E+03  0.29721028210E+02 -0.64492514445E+02  0.60407190394E+03  0.90173900243E+02 0.  0.
         23    2    4    4    0    0  0.23075578785E+03  0.11673374944E+03 -0.48917939038E+03  0.55991945516E+03  0.85663985503E+02 0.  0.
          4    1    3    3  502    0  0.34533282292E+03 -0.15490338382E+03 -0.85405840607E+03  0.93416571222E+03  0.00000000000E+00 0. -1.
         -3    1    3    3    0  502  0.16978762220E+02  0.84486061642E+01 -0.29033403891E+02  0.34678463838E+02  0.00000000000E+00 0.  1.
         11    1    5    5    0    0 -0.17180268894E+03 -0.10359320887E+02  0.17611407774E+02  0.17301341318E+03  0.00000000000E+00 0.  1.
        -11    1    5    5    0    0 -0.42126468405E+03  0.40080349097E+02 -0.82103922219E+02  0.43105849076E+03  0.00000000000E+00 0. -1.
          1    1    6    6  503    0  0.18409694467E+03  0.54338839141E+02 -0.38079474831E+03  0.42643760952E+03  0.00000000000E+00 0. -1.
         -1    1    6    6    0  503  0.46658843177E+02  0.62394910304E+02 -0.10838464207E+03  0.13348184564E+03  0.00000000000E+00 0.  1.
<mgrwt>
<rscale>  0 0.15762923E+04</rscale>
<asrwt>0</asrwt>
<pdfrwt beam="1">  1        2 0.27458456E+00 0.15762923E+04</pdfrwt>
<pdfrwt beam="2">  1       -1 0.53543987E-01 0.15762923E+04</pdfrwt>
<totfact> 0.33885445E+01</totfact>
</mgrwt>
</event>
<event>
12    6  0.9491186E-008  0.1152798E+04  0.7818608E-02  0.9155206E-01
         -3   -1    0    0    0  501 -0.00000000000E+00  0.00000000000E+00  0.37286096390E+03  0.37286096390E+03  0.00000000000E+00 0.  1.
          2   -1    0    0  501    0  0.00000000000E+00 -0.00000000000E+00 -0.89104479911E+03  0.89104479911E+03  0.00000000000E+00 0. -1.
         24    2    1    2    0    0  0.47469172519E+02 -0.20108502985E+02 -0.29051077711E+03  0.30563811919E+03  0.79752580195E+02 0.  0.
        254    2    1    2    0    0 -0.47469172519E+02  0.20108502985E+02 -0.22767305809E+03  0.95826764382E+03  0.92939990401E+03 0.  0.
         23    2    4    4    0    0  0.34431784996E+03  0.19573882293E+03 -0.31132097458E+03  0.51203567844E+03  0.91604138380E+02 0.  0.
         23    2    4    4    0    0 -0.39178702248E+03 -0.17563031995E+03  0.83647916492E+02  0.44623196538E+03  0.88220817980E+02 0.  0.
          4    1    3    3  502    0  0.58596037694E+02 -0.23676913433E+02 -0.28633932022E+03  0.29323079335E+03  0.00000000000E+00 0. -1.
         -1    1    3    3    0  502 -0.11126865175E+02  0.35684104483E+01 -0.41714568893E+01  0.12407325833E+02  0.00000000000E+00 0.  1.
         11    1    5    5    0    0  0.31346990378E+03  0.20468290671E+03 -0.28515234143E+03  0.47060634366E+03  0.00000000000E+00 0. -1.
        -11    1    5    5    0    0  0.30847946184E+02 -0.89440837766E+01 -0.26168633159E+02  0.41429334774E+02  0.00000000000E+00 0.  1.
          4    1    6    6  503    0 -0.34085739866E+03 -0.18279617565E+03  0.77050896899E+02  0.39437932092E+03  0.00000000000E+00 0. -1.
         -4    1    6    6    0  503 -0.50929623818E+02  0.71658557027E+01  0.65970195928E+01  0.51852644462E+02  0.00000000000E+00 0.  1.
<mgrwt>
<rscale>  0 0.11527980E+04</rscale>
<asrwt>0</asrwt>
<pdfrwt beam="1">  1        2 0.13708381E+00 0.11527980E+04</pdfrwt>
<pdfrwt beam="2">  1       -3 0.57363226E-01 0.11527980E+04</pdfrwt>
<totfact> 0.55860209E+01</totfact>
</mgrwt>
</event>
<event>
12    6  0.1224069E-007  0.1455753E+04  0.7818608E-02  0.8914422E-01
         -1   -1    0    0    0  501 -0.00000000000E+00  0.00000000000E+00  0.28924170207E+03  0.28924170207E+03  0.00000000000E+00 0.  1.
          2   -1    0    0  501    0  0.00000000000E+00 -0.00000000000E+00 -0.18317007502E+04  0.18317007502E+04  0.00000000000E+00 0. -1.
         24    2    1    2    0    0  0.23926032386E+03 -0.14069796954E+03  0.28023615538E+02  0.28992173784E+03  0.78916853954E+02 0.  0.
        254    2    1    2    0    0 -0.23926032386E+03  0.14069796954E+03 -0.15704826636E+04  0.18310207144E+04  0.89954412819E+03 0.  0.
         23    2    4    4    0    0  0.25411567519E+03 -0.13871502063E+03 -0.25992947193E+03  0.40006562320E+03  0.93126468635E+02 0.  0.
         23    2    4    4    0    0 -0.49337599905E+03  0.27941299017E+03 -0.13105531917E+04  0.14309550912E+04  0.92689315684E+02 0.  0.
          2    1    3    3  502    0  0.45473025081E+02  0.41942964090E+01  0.13046696862E+02  0.47493204055E+02  0.00000000000E+00 0. -1.
         -1    1    3    3    0  502  0.19378729878E+03 -0.14489226595E+03  0.14976918675E+02  0.24242853379E+03  0.00000000000E+00 0.  1.
         11    1    5    5    0    0  0.24167232588E+02  0.66706511313E+01 -0.51735305106E+02  0.57489951399E+02  0.00000000000E+00 0. -1.
        -11    1    5    5    0    0  0.22994844260E+03 -0.14538567176E+03 -0.20819416683E+03  0.34257567180E+03  0.00000000000E+00 0.  1.
          1    1    6    6  503    0  0.41428722512E+01  0.71451529666E+00 -0.11546344169E+02  0.12287879649E+02  0.00000000000E+00 0. -1.
         -1    1    6    6    0  503 -0.49751887130E+03  0.27869847487E+03 -0.12990068475E+04  0.14186672115E+04  0.00000000000E+00 0.  1.
<mgrwt>
<rscale>  0 0.14557531E+04</rscale>
<asrwt>0</asrwt>
<pdfrwt beam="1">  1        2 0.28180012E+00 0.14557531E+04</pdfrwt>
<pdfrwt beam="2">  1       -1 0.44498723E-01 0.14557531E+04</pdfrwt>
<totfact> 0.45765040E+01</totfact>
</mgrwt>
</event>
<event>
12    6  0.9491186E-008  0.1696334E+04  0.7818608E-02  0.8763458E-01
         -1   -1    0    0    0  501 -0.00000000000E+00  0.00000000000E+00  0.67960118331E+03  0.67960118331E+03  0.00000000000E+00 0.  1.
          2   -1    0    0  501    0  0.00000000000E+00 -0.00000000000E+00 -0.10585434894E+04  0.10585434894E+04  0.00000000000E+00 0. -1.
         24    2    1    2    0    0 -0.25342710854E+03  0.21534604532E+03  0.39963967318E+03  0.52508290657E+03  0.73491304382E+02 0.  0.
        254    2    1    2    0    0  0.25342710854E+03 -0.21534604532E+03 -0.77858197925E+03  0.12130617661E+04  0.86875182384E+03 0.  0.
         23    2    4    4    0    0 -0.29926303020E+03  0.36600567987E+02 -0.28162805039E+03  0.42284337180E+03  0.92650933551E+02 0.  0.
         23    2    4    4    0    0  0.55269013874E+03 -0.25194661331E+03 -0.49695392887E+03  0.79021839432E+03  0.92403559972E+02 0.  0.
          2    1    3    3  502    0 -0.24904347226E+02 -0.20683025268E+01  0.33907969800E+02  0.42121904065E+02  0.00000000000E+00 0. -1.
         -3    1    3    3    0  502 -0.22852276131E+03  0.21741434785E+03  0.36573170338E+03  0.48296100251E+03  0.00000000000E+00 0.  1.
         11    1    5    5    0    0 -0.15537762682E+03  0.65549851898E+02 -0.15019430360E+03  0.22582585953E+03  0.00000000000E+00 0. -1.
        -11    1    5    5    0    0 -0.14388540338E+03 -0.28949283911E+02 -0.13143374678E+03  0.19701751226E+03  0.00000000000E+00 0.  1.
          2    1    6    6  503    0  0.24628843068E+03 -0.14417460714E+03 -0.18657394436E+03  0.34096062111E+03  0.00000000000E+00 0. -1.
         -2    1    6    6    0  503  0.30640170806E+03 -0.10777200617E+03 -0.31037998450E+03  0.44925777322E+03  0.00000000000E+00 0.  1.
<mgrwt>
<rscale>  0 0.16963342E+04</rscale>
<asrwt>0</asrwt>
<pdfrwt beam="1">  1        2 0.16285284E+00 0.16963342E+04</pdfrwt>
<pdfrwt beam="2">  1       -1 0.10455403E+00 0.16963342E+04</pdfrwt>
<totfact> 0.21588909E+01</totfact>
</mgrwt>
</event>
<event>
12    6  0.9491186E-008  0.1808807E+04  0.7818608E-02  0.8701630E-01
         -1   -1    0    0    0  501 -0.00000000000E+00  0.00000000000E+00  0.16420025985E+04  0.16420025985E+04  0.00000000000E+00 0.  1.
          2   -1    0    0  501    0  0.00000000000E+00 -0.00000000000E+00 -0.49813892155E+03  0.49813892155E+03  0.00000000000E+00 0. -1.
         24    2    1    2    0    0 -0.33056499835E+03 -0.29086636889E+03  0.10237168465E+04  0.11170691902E+04  0.77271800395E+02 0.  0.
        254    2    1    2    0    0  0.33056499835E+03  0.29086636889E+03  0.12014683043E+03  0.10230723299E+04  0.91562288558E+03 0.  0.
         23    2    4    4    0    0  0.69031618681E+02  0.55463550922E+03  0.24824993989E+03  0.61806613837E+03  0.89396903087E+02 0.  0.
         23    2    4    4    0    0  0.26153337967E+03 -0.26376914033E+03 -0.12810310945E+03  0.40500619150E+03  0.98212730506E+02 0.  0.
          4    1    3    3  502    0 -0.10478872742E+02  0.33938280352E+01  0.14764940901E+02  0.18420866497E+02  0.00000000000E+00 0. -1.
         -3    1    3    3    0  502 -0.32008612561E+03 -0.29426019692E+03  0.10089519056E+04  0.10986483237E+04  0.00000000000E+00 0.  1.
         11    1    5    5    0    0  0.76148013565E+02  0.55186958065E+03  0.23934724580E+03  0.60633790752E+03  0.00000000000E+00 0. -1.
        -11    1    5    5    0    0 -0.71163948837E+01  0.27659285657E+01  0.89026940826E+01  0.11728230851E+02  0.00000000000E+00 0.  1.
          2    1    6    6  503    0  0.13996100559E+03 -0.16595490790E+03 -0.26266158482E+02  0.21867790383E+03  0.00000000000E+00 0. -1.
         -2    1    6    6    0  503  0.12157237408E+03 -0.97814232433E+02 -0.10183695097E+03  0.18632828767E+03  0.00000000000E+00 0.  1.
<mgrwt>
<rscale>  0 0.18088067E+04</rscale>
<asrwt>0</asrwt>
<pdfrwt beam="1">  1        2 0.76636758E-01 0.18088067E+04</pdfrwt>
<pdfrwt beam="2">  1       -1 0.25261578E+00 0.18088067E+04</pdfrwt>
<totfact> 0.44699574E+00</totfact>
</mgrwt>
</event>
<event>
12    6  0.9491186E-008  0.2765275E+04  0.7818608E-02  0.8314131E-01
         -1   -1    0    0    0  501 -0.00000000000E+00  0.00000000000E+00  0.13273824414E+04  0.13273824414E+04  0.00000000000E+00 0.  1.
          2   -1    0    0  501    0  0.00000000000E+00 -0.00000000000E+00 -0.14401931519E+04  0.14401931519E+04  0.00000000000E+00 0. -1.
         24    2    1    2    0    0  0.20964615448E+03 -0.18615723962E+02  0.11682244181E+04  0.11898510662E+04  0.81848723249E+02 0.  0.
        254    2    1    2    0    0 -0.20964615448E+03  0.18615723962E+02 -0.12810351286E+04  0.15777245270E+04  0.89658553811E+03 0.  0.
         23    2    4    4    0    0 -0.22503093634E+03  0.40659595842E+02  0.42011030860E+02  0.25115134069E+03  0.94973386671E+02 0.  0.
         23    2    4    4    0    0  0.15384781857E+02 -0.22043871880E+02 -0.13230461595E+04  0.13265731863E+04  0.92858250919E+02 0.  0.
          4    1    3    3  502    0  0.69517936021E+02  0.24978427494E+01  0.21042252278E+03  0.22162269906E+03  0.00000000000E+00 0. -1.
         -3    1    3    3    0  502  0.14012821846E+03 -0.21113566712E+02  0.95780189533E+03  0.96822836718E+03  0.00000000000E+00 0.  1.
         11    1    5    5    0    0 -0.13594636445E+03  0.11203817474E+02  0.69889354069E+02  0.15326924462E+03  0.00000000000E+00 0. -1.
        -11    1    5    5    0    0 -0.89084571888E+02  0.29455778369E+02 -0.27878323209E+02  0.97882096079E+02  0.00000000000E+00 0.  1.
          4    1    6    6  503    0 -0.14529274218E+02 -0.45320998414E+02 -0.10281720097E+04  0.10292729348E+04  0.00000000000E+00 0. -1.
         -4    1    6    6    0  503  0.29914056076E+02  0.23277126534E+02 -0.29487414981E+03  0.29730025159E+03  0.00000000000E+00 0.  1.
<mgrwt>
<rscale>  0 0.27652755E+04</rscale>
<asrwt>0</asrwt>
<pdfrwt beam="1">  1        2 0.22156818E+00 0.27652755E+04</pdfrwt>
<pdfrwt beam="2">  1       -1 0.20421268E+00 0.27652755E+04</pdfrwt>
<totfact> 0.19205969E+00</totfact>
</mgrwt>
</event>
<event>
12    6  0.9491186E-008  0.2218364E+04  0.7818608E-02  0.8510823E-01
         -1   -1    0    0    0  501 -0.00000000000E+00  0.00000000000E+00  0.82189177673E+03  0.82189177673E+03  0.00000000000E+00 0.  1.
          2   -1    0    0  501    0  0.00000000000E+00 -0.00000000000E+00 -0.14968942454E+04  0.14968942454E+04  0.00000000000E+00 0. -1.
         24    2    1    2    0    0 -0.57833090102E+03 -0.59612454518E+03 -0.70353480403E+03  0.10915157661E+04  0.81328610098E+02 0.  0.
        254    2    1    2    0    0  0.57833090102E+03  0.59612454518E+03  0.28532335372E+02  0.12272702560E+04  0.90307645445E+03 0.  0.
         23    2    4    4    0    0  0.29381774234E+03 -0.17812990361E+03  0.15480047030E+03  0.38816610445E+03  0.93008659628E+02 0.  0.
         23    2    4    4    0    0  0.28451315867E+03  0.77425444879E+03 -0.12626813493E+03  0.83910415151E+03  0.87945700637E+02 0.  0.
          4    1    3    3  502    0 -0.22905160477E+03 -0.20785654981E+03 -0.21780053694E+03  0.37829361194E+03  0.00000000000E+00 0. -1.
         -3    1    3    3    0  502 -0.34927929625E+03 -0.38826799537E+03 -0.48573426709E+03  0.71322215420E+03  0.00000000000E+00 0.  1.
         11    1    5    5    0    0  0.77205084471E+02 -0.93948369320E+01  0.58020277170E+02  0.97032162668E+02  0.00000000000E+00 0.  1.
        -11    1    5    5    0    0  0.21661265787E+03 -0.16873506668E+03  0.96780193127E+02  0.29113394178E+03  0.00000000000E+00 0. -1.
          4    1    6    6  503    0  0.11398358237E+03  0.42681311708E+03 -0.85018100891E+02  0.44987750715E+03  0.00000000000E+00 0.  1.
         -4    1    6    6    0  503  0.17052957630E+03  0.34744133172E+03 -0.41250034034E+02  0.38922664437E+03  0.00000000000E+00 0. -1.
<mgrwt>
<rscale>  0 0.22183643E+04</rscale>
<asrwt>0</asrwt>
<pdfrwt beam="1">  1        2 0.23029142E+00 0.22183643E+04</pdfrwt>
<pdfrwt beam="2">  1       -1 0.12644489E+00 0.22183643E+04</pdfrwt>
<totfact> 0.72063047E+00</totfact>
</mgrwt>
</event>
<event>
12    6  0.9491186E-008  0.2360349E+04  0.7818608E-02  0.8454499E-01
         -1   -1    0    0    0  501 -0.00000000000E+00  0.00000000000E+00  0.59273654591E+03  0.59273654591E+03  0.00000000000E+00 0.  1.
          2   -1    0    0  501    0  0.00000000000E+00 -0.00000000000E+00 -0.23497994809E+04  0.23497994809E+04  0.00000000000E+00 0. -1.
         24    2    1    2    0    0  0.69324276265E+02  0.74570421945E+03  0.90900290749E+02  0.75868418568E+03  0.80362880439E+02 0.  0.
        254    2    1    2    0    0 -0.69324276265E+02 -0.74570421945E+03 -0.18479632258E+04  0.21838518412E+04  0.89070766371E+03 0.  0.
         23    2    4    4    0    0  0.37018968533E+03 -0.47013507805E+03 -0.12360817135E+04  0.13766336118E+04  0.95680217022E+02 0.  0.
         23    2    4    4    0    0 -0.43951396159E+03 -0.27556914140E+03 -0.61188151225E+03  0.80721822936E+03  0.89952268727E+02 0.  0.
          2    1    3    3  502    0  0.72113508433E+01  0.25803405694E+03  0.66027793006E+02  0.26644558089E+03  0.00000000000E+00 0. -1.
         -1    1    3    3    0  502  0.62112925422E+02  0.48767016251E+03  0.24872497742E+02  0.49223860479E+03  0.00000000000E+00 0.  1.
         11    1    5    5    0    0  0.17018494130E+03 -0.16188458453E+03 -0.55731245278E+03  0.60478649372E+03  0.00000000000E+00 0. -1.
        -11    1    5    5    0    0  0.20000474403E+03 -0.30825049352E+03 -0.67876926073E+03  0.77184711809E+03  0.00000000000E+00 0.  1.
          3    1    6    6  503    0 -0.39804455651E+03 -0.26424951003E+03 -0.58935338207E+03  0.75868615479E+03  0.00000000000E+00 0. -1.
         -3    1    6    6    0  503 -0.41469405082E+02 -0.11319631367E+02 -0.22528130183E+02  0.48532074566E+02  0.00000000000E+00 0.  1.
<mgrwt>
<rscale>  0 0.23603492E+04</rscale>
<asrwt>0</asrwt>
<pdfrwt beam="1">  1        2 0.36150761E+00 0.23603492E+04</pdfrwt>
<pdfrwt beam="2">  1       -1 0.91190238E-01 0.23603492E+04</pdfrwt>
<totfact> 0.51141038E+00</totfact>
</mgrwt>
</event>
<event>
12    6  0.9491186E-008  0.1499051E+04  0.7818608E-02  0.8885084E-01
         -1   -1    0    0    0  501 -0.00000000000E+00  0.00000000000E+00  0.59017340274E+03  0.59017340274E+03  0.00000000000E+00 0.  1.
          2   -1    0    0  501    0  0.00000000000E+00 -0.00000000000E+00 -0.95190450336E+03  0.95190450336E+03  0.00000000000E+00 0. -1.
         24    2    1    2    0    0 -0.15582444184E+03 -0.29147028029E+03 -0.46384096300E+03  0.57507996932E+03  0.79576071738E+02 0.  0.
        254    2    1    2    0    0  0.15582444184E+03  0.29147028029E+03  0.10210986237E+03  0.96699793678E+03  0.90300742233E+03 0.  0.
         23    2    4    4    0    0  0.49674771471E+03  0.48312363025E+02  0.16407213431E+03  0.53373274498E+03  0.94120142950E+02 0.  0.
         23    2    4    4    0    0 -0.34092327287E+03  0.24315791727E+03 -0.61962271939E+02  0.43326519180E+03  0.92330669710E+02 0.  0.
          4    1    3    3  502    0 -0.12406260082E+02 -0.68811826005E+02 -0.59988219402E+02  0.92128004181E+02  0.00000000000E+00 0. -1.
         -3    1    3    3    0  502 -0.14341818176E+03 -0.22265845429E+03 -0.40385274359E+03  0.48295196514E+03  0.00000000000E+00 0.  1.
         11    1    5    5    0    0  0.40505007310E+03  0.58988411935E+02  0.16521614441E+03  0.44140861889E+03  0.00000000000E+00 0.  1.
        -11    1    5    5    0    0  0.91697641613E+02 -0.10676048910E+02 -0.11440100974E+01  0.92324126083E+02  0.00000000000E+00 0. -1.
          1    1    6    6  503    0 -0.45694693259E+02  0.69517396910E+02 -0.33137455418E+02  0.89547553941E+02  0.00000000000E+00 0. -1.
         -1    1    6    6    0  503 -0.29522857961E+03  0.17364052036E+03 -0.28824816521E+02  0.34371763786E+03  0.00000000000E+00 0.  1.
<mgrwt>
<rscale>  0 0.14990513E+04</rscale>
<asrwt>0</asrwt>
<pdfrwt beam="1">  1        2 0.14644685E+00 0.14990513E+04</pdfrwt>
<pdfrwt beam="2">  1       -1 0.90795909E-01 0.14990513E+04</pdfrwt>
<totfact> 0.35370037E+01</totfact>
</mgrwt>
</event>
<event>
12    6  0.9491186E-008  0.2528609E+04  0.7818608E-02  0.8392864E-01
         -1   -1    0    0    0  501 -0.00000000000E+00  0.00000000000E+00  0.77221942906E+03  0.77221942906E+03  0.00000000000E+00 0.  1.
          2   -1    0    0  501    0  0.00000000000E+00 -0.00000000000E+00 -0.20699635980E+04  0.20699635980E+04  0.00000000000E+00 0. -1.
         24    2    1    2    0    0 -0.83531076971E+03 -0.43845501345E+03  0.68375485031E+02  0.94956798396E+03  0.83769137493E+02 0.  0.
        254    2    1    2    0    0  0.83531076971E+03  0.43845501345E+03 -0.13661196539E+04  0.18926150431E+04  0.90869241854E+03 0.  0.
         23    2    4    4    0    0  0.96881925106E+03  0.17083477823E+03 -0.93499676967E+03  0.13601044787E+04  0.88712857499E+02 0.  0.
         23    2    4    4    0    0 -0.13350848135E+03  0.26762023522E+03 -0.43112288427E+03  0.53251056433E+03  0.90859533818E+02 0.  0.
          4    1    3    3  502    0 -0.55991930578E+03 -0.32438916909E+03  0.18643688872E+02  0.64736817125E+03  0.00000000000E+00 0. -1.
         -3    1    3    3    0  502 -0.27539146393E+03 -0.11406584436E+03  0.49731796159E+02  0.30219981272E+03  0.00000000000E+00 0.  1.
         11    1    5    5    0    0  0.62182039124E+03  0.66293283569E+02 -0.59471201171E+03  0.86298190901E+03  0.00000000000E+00 0.  1.
        -11    1    5    5    0    0  0.34699885982E+03  0.10454149466E+03 -0.34028475796E+03  0.49712256972E+03  0.00000000000E+00 0. -1.
          3    1    6    6  503    0 -0.13652610326E+03  0.19711969621E+03 -0.30477597395E+03  0.38779368974E+03  0.00000000000E+00 0. -1.
         -3    1    6    6    0  503  0.30176219068E+01  0.70500539015E+02 -0.12634691032E+03  0.14471687459E+03  0.00000000000E+00 0.  1.
<mgrwt>
<rscale>  0 0.25286092E+04</rscale>
<asrwt>0</asrwt>
<pdfrwt beam="1">  1        2 0.31845593E+00 0.25286092E+04</pdfrwt>
<pdfrwt beam="2">  1       -1 0.11880299E+00 0.25286092E+04</pdfrwt>
<totfact> 0.39225000E+00</totfact>
</mgrwt>
</event>
<event>
12    6  0.9491186E-008  0.3247336E+04  0.7818608E-02  0.8176427E-01
         -1   -1    0    0    0  501 -0.00000000000E+00  0.00000000000E+00  0.10023310792E+04  0.10023310792E+04  0.00000000000E+00 0.  1.
          2   -1    0    0  501    0  0.00000000000E+00 -0.00000000000E+00 -0.26301663023E+04  0.26301663023E+04  0.00000000000E+00 0. -1.
         24    2    1    2    0    0 -0.67486944361E+03 -0.68787569082E+03 -0.20359273467E+04  0.22538750640E+04  0.79567024123E+02 0.  0.
        254    2    1    2    0    0  0.67486944361E+03  0.68787569082E+03  0.40809212362E+03  0.13786223175E+04  0.89746230060E+03 0.  0.
         23    2    4    4    0    0  0.67180699307E+03  0.60446548573E+03  0.64334030225E+03  0.11134248855E+04  0.95525242167E+02 0.  0.
         23    2    4    4    0    0  0.30624505382E+01  0.83410205094E+02 -0.23524817863E+03  0.26519743194E+03  0.89561886109E+02 0.  0.
          4    1    3    3  502    0 -0.66686282444E+03 -0.68032753007E+03 -0.20269999109E+04  0.22397053855E+04  0.00000000000E+00 0. -1.
         -3    1    3    3    0  502 -0.80066191663E+01 -0.75481607520E+01 -0.89274357470E+01  0.14169678551E+02  0.00000000000E+00 0.  1.
         11    1    5    5    0    0  0.11585823085E+03  0.66754621994E+02  0.72202030184E+02  0.15196197675E+03  0.00000000000E+00 0. -1.
        -11    1    5    5    0    0  0.55594876221E+03  0.53771086373E+03  0.57113827207E+03  0.96146290880E+03  0.00000000000E+00 0.  1.
          2    1    6    6  503    0 -0.18827588735E+02 -0.12015984023E+02 -0.65938049709E+02  0.69618161201E+02  0.00000000000E+00 0. -1.
         -2    1    6    6    0  503  0.21890039273E+02  0.95426189117E+02 -0.16931012892E+03  0.19557927074E+03  0.00000000000E+00 0.  1.
<mgrwt>
<rscale>  0 0.32473358E+04</rscale>
<asrwt>0</asrwt>
<pdfrwt beam="1">  1        2 0.40464097E+00 0.32473358E+04</pdfrwt>
<pdfrwt beam="2">  1       -1 0.15420478E+00 0.32473358E+04</pdfrwt>
<totfact> 0.90082603E-01</totfact>
</mgrwt>
</event>
<event>
12    6  0.9491186E-008  0.1277031E+04  0.7818608E-02  0.9047981E-01
          2   -1    0    0  501    0  0.00000000000E+00  0.00000000000E+00  0.76966511801E+03  0.76966511801E+03  0.00000000000E+00 0. -1.
         -1   -1    0    0    0  501 -0.00000000000E+00 -0.00000000000E+00 -0.52971348163E+03  0.52971348163E+03  0.00000000000E+00 0.  1.
         24    2    1    2    0    0 -0.13769775588E+03  0.86021912230E+00  0.35717507419E+03  0.38964515517E+03  0.72717957724E+02 0.  0.
        254    2    1    2    0    0  0.13769775588E+03 -0.86021912230E+00 -0.11722343780E+03  0.90973344447E+03  0.89157848429E+03 0.  0.
         23    2    4    4    0    0  0.23943314078E+03 -0.84921993291E+02 -0.45926663856E+03  0.53180432228E+03  0.85732246288E+02 0.  0.
         23    2    4    4    0    0 -0.10173538489E+03  0.84061774168E+02  0.34204320076E+03  0.37792912219E+03  0.91762736434E+02 0.  0.
          2    1    3    3  502    0 -0.10254308772E+03  0.10134253094E+02  0.32551528954E+03  0.34143519392E+03  0.00000000000E+00 0. -1.
         -1    1    3    3    0  502 -0.35154668164E+02 -0.92740339719E+01  0.31659784653E+02  0.48209961254E+02  0.00000000000E+00 0.  1.
         11    1    5    5    0    0  0.18127097604E+03 -0.80490667242E+02 -0.27884486153E+03  0.34218762553E+03  0.00000000000E+00 0. -1.
        -11    1    5    5    0    0  0.58162164738E+02 -0.44313260484E+01 -0.18042177703E+03  0.18961669674E+03  0.00000000000E+00 0.  1.
          4    1    6    6  503    0 -0.11838423454E+03  0.80844605894E+02  0.31364845089E+03  0.34485653254E+03  0.00000000000E+00 0. -1.
         -4    1    6    6    0  503  0.16648849642E+02  0.32171682745E+01  0.28394749862E+02  0.33072589645E+02  0.00000000000E+00 0.  1.
<mgrwt>
<rscale>  0 0.12770309E+04</rscale>
<asrwt>0</asrwt>
<pdfrwt beam="1">  1        2 0.11841002E+00 0.12770309E+04</pdfrwt>
<pdfrwt beam="2">  1       -1 0.81494381E-01 0.12770309E+04</pdfrwt>
<totfact> 0.60958763E+01</totfact>
</mgrwt>
</event>
<event>
12    6  0.9491186E-008  0.1549711E+04  0.7818608E-02  0.8852052E-01
         -1   -1    0    0    0  501 -0.00000000000E+00  0.00000000000E+00  0.26542190802E+03  0.26542190802E+03  0.00000000000E+00 0.  1.
          2   -1    0    0  501    0  0.00000000000E+00 -0.00000000000E+00 -0.22620641090E+04  0.22620641090E+04  0.00000000000E+00 0. -1.
         24    2    1    2    0    0  0.13217376528E+03 -0.74104860052E+02  0.12623584646E+03  0.21353141994E+03  0.81845854267E+02 0.  0.
        254    2    1    2    0    0 -0.13217376528E+03  0.74104860052E+02 -0.21228780474E+04  0.23139545971E+04  0.90819229160E+03 0.  0.
         23    2    4    4    0    0  0.16278661177E+03  0.39998310614E+03 -0.13430017191E+04  0.14139370481E+04  0.95280598494E+02 0.  0.
         23    2    4    4    0    0 -0.29496037705E+03 -0.32587824609E+03 -0.77987632835E+03  0.90001754893E+03  0.92877583777E+02 0.  0.
          2    1    3    3  502    0  0.21386784664E+02  0.87769341970E+01  0.51103796343E+02  0.56089456521E+02  0.00000000000E+00 0. -1.
         -1    1    3    3    0  502  0.11078698061E+03 -0.82881794249E+02  0.75132050113E+02  0.15744196342E+03  0.00000000000E+00 0.  1.
         11    1    5    5    0    0  0.14039547059E+03  0.29185535437E+03 -0.87301229288E+03  0.93115030986E+03  0.00000000000E+00 0. -1.
        -11    1    5    5    0    0  0.22391141186E+02  0.10812775177E+03 -0.46998942621E+03  0.48278673828E+03  0.00000000000E+00 0.  1.
          4    1    6    6  503    0 -0.24298050250E+03 -0.29418852615E+03 -0.71873777160E+03  0.81373853162E+03  0.00000000000E+00 0. -1.
         -4    1    6    6    0  503 -0.51979874547E+02 -0.31689719940E+02 -0.61138556745E+02  0.86279017314E+02  0.00000000000E+00 0.  1.
<mgrwt>
<rscale>  0 0.15497114E+04</rscale>
<asrwt>0</asrwt>
<pdfrwt beam="1">  1        2 0.34800985E+00 0.15497114E+04</pdfrwt>
<pdfrwt beam="2">  1       -1 0.40834142E-01 0.15497114E+04</pdfrwt>
<totfact> 0.30662627E+01</totfact>
</mgrwt>
</event>
<event>
12    6  0.9491186E-008  0.2102595E+04  0.7818608E-02  0.8560101E-01
          2   -1    0    0  501    0  0.00000000000E+00  0.00000000000E+00  0.85636078046E+03  0.85636078046E+03  0.00000000000E+00 0. -1.
         -1   -1    0    0    0  501 -0.00000000000E+00 -0.00000000000E+00 -0.12906078313E+04  0.12906078313E+04  0.00000000000E+00 0.  1.
         24    2    1    2    0    0 -0.16080821748E+03 -0.16793849350E+03 -0.10047553634E+04  0.10347267045E+04  0.84043991084E+02 0.  0.
        254    2    1    2    0    0  0.16080821748E+03  0.16793849350E+03  0.57050831255E+03  0.11122419072E+04  0.92603439736E+03 0.  0.
         23    2    4    4    0    0  0.15481657737E+03 -0.35515064855E+03  0.12015158569E+03  0.41596101744E+03  0.92124962406E+02 0.  0.
         23    2    4    4    0    0  0.59916401096E+01  0.52308914204E+03  0.45035672686E+03  0.69628088978E+03  0.91256483439E+02 0.  0.
          2    1    3    3  502    0 -0.11003445932E+02 -0.28110126671E+02 -0.51511606187E+02  0.59705113816E+02  0.00000000000E+00 0. -1.
         -1    1    3    3    0  502 -0.14980477155E+03 -0.13982836683E+03 -0.95324375720E+03  0.97502159073E+03  0.00000000000E+00 0.  1.
         11    1    5    5    0    0  0.16406484973E+03 -0.35205781699E+03  0.11838582071E+03  0.40605071600E+03  0.00000000000E+00 0.  1.
        -11    1    5    5    0    0 -0.92482723617E+01 -0.30928315576E+01  0.17657649781E+01  0.99103014424E+01  0.00000000000E+00 0. -1.
          3    1    6    6  503    0  0.41884528597E+02  0.39501237775E+03  0.35347245770E+03  0.53172537146E+03  0.00000000000E+00 0. -1.
         -3    1    6    6    0  503 -0.35892888487E+02  0.12807676430E+03  0.96884269161E+02  0.16455551831E+03  0.00000000000E+00 0.  1.
<mgrwt>
<rscale>  0 0.21025945E+04</rscale>
<asrwt>0</asrwt>
<pdfrwt beam="1">  1        2 0.13174781E+00 0.21025945E+04</pdfrwt>
<pdfrwt beam="2">  1       -1 0.19855505E+00 0.21025945E+04</pdfrwt>
<totfact> 0.50857438E+00</totfact>
</mgrwt>
</event>
<event>
12    6  0.9491186E-008  0.2143832E+04  0.7818608E-02  0.8542177E-01
          2   -1    0    0  501    0  0.00000000000E+00  0.00000000000E+00  0.24592265802E+04  0.24592265802E+04  0.00000000000E+00 0. -1.
         -1   -1    0    0    0  501 -0.00000000000E+00 -0.00000000000E+00 -0.46722175203E+03  0.46722175203E+03  0.00000000000E+00 0.  1.
         24    2    1    2    0    0 -0.54310127970E+03 -0.48962867691E+03  0.14907757211E+04  0.16624286827E+04  0.81003908419E+02 0.  0.
        254    2    1    2    0    0  0.54310127970E+03  0.48962867691E+03  0.50122910705E+03  0.12640196495E+04  0.90101044131E+03 0.  0.
         23    2    4    4    0    0  0.62535303163E+03  0.63205173453E+03  0.21074648779E+03  0.91806593500E+03  0.88742152272E+02 0.  0.
         23    2    4    4    0    0 -0.82251751933E+02 -0.14242305762E+03  0.29048261926E+03  0.34595371452E+03  0.90852311249E+02 0.  0.
          2    1    3    3  502    0 -0.53626718289E+03 -0.48551735802E+03  0.14449896409E+04  0.16159531734E+04  0.00000000000E+00 0. -1.
         -1    1    3    3    0  502 -0.68340968122E+01 -0.41113188873E+01  0.45786080246E+02  0.46475509320E+02  0.00000000000E+00 0.  1.
         11    1    5    5    0    0  0.16815168320E+03  0.22841029026E+03  0.70647999551E+02  0.29229674836E+03  0.00000000000E+00 0. -1.
        -11    1    5    5    0    0  0.45720134843E+03  0.40364144427E+03  0.14009848824E+03  0.62576918664E+03  0.00000000000E+00 0.  1.
          1    1    6    6  503    0 -0.19776955755E+02 -0.37653665818E+02  0.15742879933E+02  0.45351568849E+02  0.00000000000E+00 0. -1.
         -1    1    6    6    0  503 -0.62474796179E+02 -0.10476939180E+03  0.27473973933E+03  0.30060214567E+03  0.00000000000E+00 0.  1.
<mgrwt>
<rscale>  0 0.21438322E+04</rscale>
<asrwt>0</asrwt>
<pdfrwt beam="1">  1        2 0.37834254E+00 0.21438322E+04</pdfrwt>
<pdfrwt beam="2">  1       -1 0.71880271E-01 0.21438322E+04</pdfrwt>
<totfact> 0.75041938E+00</totfact>
</mgrwt>
</event>
<event>
12    6  0.9491186E-008  0.2813793E+04  0.7818608E-02  0.8298999E-01
         -1   -1    0    0    0  501 -0.00000000000E+00  0.00000000000E+00  0.77256344751E+03  0.77256344751E+03  0.00000000000E+00 0.  1.
          2   -1    0    0  501    0  0.00000000000E+00 -0.00000000000E+00 -0.25620641721E+04  0.25620641721E+04  0.00000000000E+00 0. -1.
         24    2    1    2    0    0  0.28249306098E+03 -0.79271176208E+03  0.30897284507E+03  0.89977700164E+03  0.77072475320E+02 0.  0.
        254    2    1    2    0    0 -0.28249306098E+03  0.79271176208E+03 -0.20984735697E+04  0.24348506180E+04  0.90372116388E+03 0.  0.
         23    2    4    4    0    0 -0.17854219866E+03  0.87685992819E+03 -0.20864692617E+04  0.22721768070E+04  0.93127932904E+02 0.  0.
         23    2    4    4    0    0 -0.10395086232E+03 -0.84148166110E+02 -0.12004307966E+02  0.16267381098E+03  0.91825757459E+02 0.  0.
          4    1    3    3  502    0  0.46619247734E+02 -0.21979414614E+03  0.64980187927E+02  0.23389152563E+03  0.00000000000E+00 0. -1.
         -3    1    3    3    0  502  0.23587381325E+03 -0.57291761594E+03  0.24399265714E+03  0.66588547602E+03  0.00000000000E+00 0.  1.
         11    1    5    5    0    0 -0.59740607713E+01  0.52047361533E+02 -0.76587287510E+02  0.92791324232E+02  0.00000000000E+00 0.  1.
        -11    1    5    5    0    0 -0.17256813789E+03  0.82481256666E+03 -0.20098819742E+04  0.21793854828E+04  0.00000000000E+00 0. -1.
          4    1    6    6  503    0 -0.45323611007E+02 -0.66168819998E+02  0.32879041568E+02  0.86680873491E+02  0.00000000000E+00 0. -1.
         -4    1    6    6    0  503 -0.58627251310E+02 -0.17979346112E+02 -0.44883349535E+02  0.75992937489E+02  0.00000000000E+00 0.  1.
<mgrwt>
<rscale>  0 0.28137926E+04</rscale>
<asrwt>0</asrwt>
<pdfrwt beam="1">  1        2 0.39416372E+00 0.28137926E+04</pdfrwt>
<pdfrwt beam="2">  1       -1 0.11885592E+00 0.28137926E+04</pdfrwt>
<totfact> 0.20053020E+00</totfact>
</mgrwt>
</event>
<event>
12    6  0.9491186E-008  0.1262457E+04  0.7818608E-02  0.9059879E-01
          2   -1    0    0  501    0  0.00000000000E+00  0.00000000000E+00  0.41220711746E+04  0.41220711746E+04  0.00000000000E+00 0. -1.
         -1   -1    0    0    0  501 -0.00000000000E+00 -0.00000000000E+00 -0.96662410429E+02  0.96662410429E+02  0.00000000000E+00 0.  1.
         24    2    1    2    0    0  0.20817247075E+03  0.22522160122E+03  0.87161310619E+03  0.92771016286E+03  0.82922808352E+02 0.  0.
        254    2    1    2    0    0 -0.20817247075E+03 -0.22522160122E+03  0.31537956580E+04  0.32910234222E+04  0.88901494125E+03 0.  0.
         23    2    4    4    0    0 -0.10952582958E+03 -0.55555871305E+03  0.21763012076E+04  0.22506245452E+04  0.91556026403E+02 0.  0.
         23    2    4    4    0    0 -0.98646641172E+02  0.33033711183E+03  0.97749445033E+03  0.10403988770E+04  0.89892466597E+02 0.  0.
          4    1    3    3  502    0  0.45498831979E+02  0.78184817021E+01  0.12962759971E+03  0.13760300496E+03  0.00000000000E+00 0. -1.
         -3    1    3    3    0  502  0.16267363878E+03  0.21740311952E+03  0.74198550648E+03  0.79010715790E+03  0.00000000000E+00 0.  1.
         11    1    5    5    0    0 -0.12201205078E+03 -0.42509539310E+03  0.16482817804E+04  0.17065830953E+04  0.00000000000E+00 0.  1.
        -11    1    5    5    0    0  0.12486221197E+02 -0.13046331995E+03  0.52801942727E+03  0.54404144984E+03  0.00000000000E+00 0. -1.
          1    1    6    6  503    0 -0.11134222484E+03  0.23536763425E+03  0.70409421689E+03  0.75069546458E+03  0.00000000000E+00 0. -1.
         -1    1    6    6    0  503  0.12695583670E+02  0.94969477576E+02  0.27340023344E+03  0.28970341241E+03  0.00000000000E+00 0.  1.
<mgrwt>
<rscale>  0 0.12624569E+04</rscale>
<asrwt>0</asrwt>
<pdfrwt beam="1">  1        2 0.63416466E+00 0.12624569E+04</pdfrwt>
<pdfrwt beam="2">  1       -1 0.14871143E-01 0.12624569E+04</pdfrwt>
<totfact> 0.10534287E+01</totfact>
</mgrwt>
</event>
<event>
12    6  0.9491186E-008  0.3658238E+04  0.7818608E-02  0.8077280E-01
          2   -1    0    0  501    0  0.00000000000E+00  0.00000000000E+00  0.19136471676E+04  0.19136471676E+04  0.00000000000E+00 0. -1.
         -1   -1    0    0    0  501 -0.00000000000E+00 -0.00000000000E+00 -0.17483246651E+04  0.17483246651E+04  0.00000000000E+00 0.  1.
         24    2    1    2    0    0  0.86218616095E+03 -0.71078354005E+03 -0.12205179007E+04  0.16567356791E+04  0.80814278031E+02 0.  0.
        254    2    1    2    0    0 -0.86218616095E+03  0.71078354005E+03  0.13858404032E+04  0.20052361536E+04  0.92295189018E+03 0.  0.
         23    2    4    4    0    0 -0.85095410366E+03  0.13552124473E+03  0.82971004667E+03  0.11998016609E+04  0.92824402503E+02 0.  0.
         23    2    4    4    0    0 -0.11232057287E+02  0.57526229532E+03  0.55613035652E+03  0.80543449267E+03  0.91601752169E+02 0.  0.
          2    1    3    3  502    0  0.43939268842E+02 -0.16312416200E+02 -0.57857487244E+02  0.74459674313E+02  0.00000000000E+00 0. -1.
         -1    1    3    3    0  502  0.81824689210E+03 -0.69447112385E+03 -0.11626604135E+04  0.15822760048E+04  0.00000000000E+00 0.  1.
         11    1    5    5    0    0 -0.48226450584E+03  0.41917533976E+02  0.50672251596E+03  0.70078801461E+03  0.00000000000E+00 0. -1.
        -11    1    5    5    0    0 -0.36868959782E+03  0.93603710757E+02  0.32298753072E+03  0.49901364631E+03  0.00000000000E+00 0.  1.
          4    1    6    6  503    0 -0.47084369280E+02  0.43028453704E+03  0.42663317998E+03  0.60776442057E+03  0.00000000000E+00 0. -1.
         -4    1    6    6    0  503  0.35852311992E+02  0.14497775828E+03  0.12949717655E+03  0.19767007210E+03  0.00000000000E+00 0.  1.
<mgrwt>
<rscale>  0 0.36582381E+04</rscale>
<asrwt>0</asrwt>
<pdfrwt beam="1">  1        2 0.29440726E+00 0.36582381E+04</pdfrwt>
<pdfrwt beam="2">  1       -1 0.26897302E+00 0.36582381E+04</pdfrwt>
<totfact> 0.36132372E-01</totfact>
</mgrwt>
</event>
<event>
12    6  0.9491186E-008  0.1111069E+04  0.7818608E-02  0.9194470E-01
          2   -1    0    0  501    0  0.00000000000E+00  0.00000000000E+00  0.13371187200E+04  0.13371187200E+04  0.00000000000E+00 0. -1.
         -1   -1    0    0    0  501 -0.00000000000E+00 -0.00000000000E+00 -0.23080867996E+03  0.23080867996E+03  0.00000000000E+00 0.  1.
         24    2    1    2    0    0  0.82458231158E+02  0.14799841046E+03  0.12457312575E+03  0.22518903546E+03  0.80552769323E+02 0.  0.
        254    2    1    2    0    0 -0.82458231158E+02 -0.14799841046E+03  0.98173691433E+03  0.13427383645E+04  0.90024222144E+03 0.  0.
         23    2    4    4    0    0  0.87056986261E+02 -0.49948804379E+03  0.53992469861E+03  0.74630634166E+03  0.91581934258E+02 0.  0.
         23    2    4    4    0    0 -0.16951521742E+03  0.35148963333E+03  0.44181221572E+03  0.59643202288E+03  0.90844662404E+02 0.  0.
          4    1    3    3  502    0  0.25417834967E+02  0.69280715551E+02  0.10112691003E+03  0.12518999885E+03  0.00000000000E+00 0. -1.
         -3    1    3    3    0  502  0.57040396191E+02  0.78717694911E+02  0.23446215727E+02  0.99999036603E+02  0.00000000000E+00 0.  1.
         11    1    5    5    0    0  0.73916348664E+02 -0.48426885855E+03  0.53540271159E+03  0.72569691851E+03  0.00000000000E+00 0. -1.
        -11    1    5    5    0    0  0.13140637597E+02 -0.15219185237E+02  0.45219870246E+01  0.20609423145E+02  0.00000000000E+00 0.  1.
          3    1    6    6  503    0 -0.15996878213E+03  0.26324446691E+03  0.30604283460E+03  0.43422330342E+03  0.00000000000E+00 0. -1.
         -3    1    6    6    0  503 -0.95464352866E+01  0.88245166414E+02  0.13576938112E+03  0.16220871947E+03  0.00000000000E+00 0.  1.
<mgrwt>
<rscale>  0 0.11110690E+04</rscale>
<asrwt>0</asrwt>
<pdfrwt beam="1">  1        2 0.20571057E+00 0.11110690E+04</pdfrwt>
<pdfrwt beam="2">  1       -1 0.35509028E-01 0.11110690E+04</pdfrwt>
<totfact> 0.13436362E+02</totfact>
</mgrwt>
</event>
<event>
12    6  0.9491186E-008  0.1550719E+04  0.7818608E-02  0.8851409E-01
         -1   -1    0    0    0  501 -0.00000000000E+00  0.00000000000E+00  0.34931878392E+03  0.34931878392E+03  0.00000000000E+00 0.  1.
          2   -1    0    0  501    0  0.00000000000E+00 -0.00000000000E+00 -0.17210128645E+04  0.17210128645E+04  0.00000000000E+00 0. -1.
         24    2    1    2    0    0 -0.14996289785E+03  0.37477859005E+03 -0.88035070489E+03  0.97153742254E+03  0.76939830411E+02 0.  0.
        254    2    1    2    0    0  0.14996289785E+03 -0.37477859005E+03 -0.49134337565E+03  0.10987942258E+04  0.89609295033E+03 0.  0.
         23    2    4    4    0    0  0.52536366360E+02 -0.34947989303E+03  0.18485611763E+03  0.40885828729E+03  0.89983606502E+02 0.  0.
         23    2    4    4    0    0  0.97426531490E+02 -0.25298697024E+02 -0.67619949328E+03  0.68993593854E+03  0.92918735869E+02 0.  0.
          2    1    3    3  502    0 -0.98804925564E+02  0.30004967205E+03 -0.61914126631E+03  0.69507418788E+03  0.00000000000E+00 0. -1.
         -1    1    3    3    0  502 -0.51157972285E+02  0.74728918001E+02 -0.26120943858E+03  0.27646323466E+03  0.00000000000E+00 0.  1.
         11    1    5    5    0    0 -0.68159943148E+01 -0.20888250066E+02 -0.78490977711E+01  0.23332061742E+02  0.00000000000E+00 0.  1.
        -11    1    5    5    0    0  0.59352360674E+02 -0.32859164296E+03  0.19270521540E+03  0.38552622555E+03  0.00000000000E+00 0. -1.
          1    1    6    6  503    0  0.58067256275E+02 -0.29031256794E+02 -0.60519018270E+03  0.60866228515E+03  0.00000000000E+00 0. -1.
         -1    1    6    6    0  503  0.39359275214E+02  0.37325597700E+01 -0.71009310575E+02  0.81273653395E+02  0.00000000000E+00 0.  1.
<mgrwt>
<rscale>  0 0.15507187E+04</rscale>
<asrwt>0</asrwt>
<pdfrwt beam="1">  1        2 0.26477121E+00 0.15507187E+04</pdfrwt>
<pdfrwt beam="2">  1       -1 0.53741352E-01 0.15507187E+04</pdfrwt>
<totfact> 0.36578021E+01</totfact>
</mgrwt>
</event>
<event>
12    6  0.9491186E-008  0.1631218E+04  0.7818608E-02  0.8801596E-01
          2   -1    0    0  501    0  0.00000000000E+00  0.00000000000E+00  0.40465552807E+04  0.40465552807E+04  0.00000000000E+00 0. -1.
         -1   -1    0    0    0  501 -0.00000000000E+00 -0.00000000000E+00 -0.16439128557E+03  0.16439128557E+03  0.00000000000E+00 0.  1.
         24    2    1    2    0    0  0.29364776758E+02 -0.12412792383E+03 -0.63789553573E+02  0.16342048997E+03  0.79794221649E+02 0.  0.
        254    2    1    2    0    0 -0.29364776758E+02  0.12412792383E+03  0.39459535487E+04  0.40475260763E+04  0.89199097431E+03 0.  0.
         23    2    4    4    0    0 -0.53884405300E+02  0.76794221466E+02  0.39304220893E+04  0.39326694453E+04  0.94182186709E+02 0.  0.
         23    2    4    4    0    0  0.24519628542E+02  0.47333702369E+02  0.15531459391E+02  0.11485663100E+03  0.10054415890E+03 0.  0.
          4    1    3    3  502    0 -0.24888060918E+02 -0.25239346763E+02 -0.37528571318E+01  0.35644412436E+02  0.00000000000E+00 0. -1.
         -3    1    3    3    0  502  0.54252837676E+02 -0.98888577072E+02 -0.60036696441E+02  0.12777607754E+03  0.00000000000E+00 0.  1.
         11    1    5    5    0    0 -0.28556257987E+02  0.83782487588E+02  0.18835162432E+04  0.18855949733E+04  0.00000000000E+00 0. -1.
        -11    1    5    5    0    0 -0.25328147313E+02 -0.69882661218E+01  0.20469058462E+04  0.20470744720E+04  0.00000000000E+00 0.  1.
          3    1    6    6  503    0 -0.89605471727E+01  0.17272166308E+02 -0.39343766914E+02  0.43892495140E+02  0.00000000000E+00 0. -1.
         -3    1    6    6    0  503  0.33480175715E+02  0.30061536060E+02  0.54875226305E+02  0.70964135859E+02  0.00000000000E+00 0.  1.
<mgrwt>
<rscale>  0 0.16312185E+04</rscale>
<asrwt>0</asrwt>
<pdfrwt beam="1">  1        2 0.62254689E+00 0.16312185E+04</pdfrwt>
<pdfrwt beam="2">  1       -1 0.25290970E-01 0.16312185E+04</pdfrwt>
<totfact> 0.47833447E+00</totfact>
</mgrwt>
</event>
<event>
12    6  0.9491186E-008  0.3081321E+04  0.7818608E-02  0.8220883E-01
          2   -1    0    0  501    0  0.00000000000E+00  0.00000000000E+00  0.17020473954E+04  0.17020473954E+04  0.00000000000E+00 0. -1.
         -1   -1    0    0    0  501 -0.00000000000E+00 -0.00000000000E+00 -0.13945764188E+04  0.13945764188E+04  0.00000000000E+00 0.  1.
         24    2    1    2    0    0 -0.10389363275E+04  0.16761974324E+03 -0.79126415629E+03  0.13191647473E+04  0.81311712954E+02 0.  0.
        254    2    1    2    0    0  0.10389363275E+04 -0.16761974324E+03  0.10987351328E+04  0.17774590669E+04  0.91905210488E+03 0.  0.
         23    2    4    4    0    0  0.50663004621E+03  0.31056883294E+03  0.79046411603E+03  0.99311798372E+03  0.91229420406E+02 0.  0.
         23    2    4    4    0    0  0.53230628126E+03 -0.47818857618E+03  0.30827101679E+03  0.78434108316E+03  0.90253107823E+02 0.  0.
          4    1    3    3  502    0 -0.11483376103E+02  0.64874839561E+01 -0.15004442440E+01  0.13274287466E+02  0.00000000000E+00 0. -1.
         -3    1    3    3    0  502 -0.10274529514E+04  0.16113225929E+03 -0.78976371205E+03  0.13058904599E+04  0.00000000000E+00 0.  1.
         11    1    5    5    0    0  0.92739955595E+02  0.62728389989E+02  0.21321411425E+03  0.24082318989E+03  0.00000000000E+00 0.  1.
        -11    1    5    5    0    0  0.41389009061E+03  0.24784044295E+03  0.57725000178E+03  0.75229479383E+03  0.00000000000E+00 0. -1.
          3    1    6    6  503    0  0.46505213852E+03 -0.45147386281E+03  0.26664840491E+03  0.70085912435E+03  0.00000000000E+00 0. -1.
         -3    1    6    6    0  503  0.67254142748E+02 -0.26714713376E+02  0.41622611882E+02  0.83481958814E+02  0.00000000000E+00 0.  1.
<mgrwt>
<rscale>  0 0.30813212E+04</rscale>
<asrwt>0</asrwt>
<pdfrwt beam="1">  1        2 0.26185345E+00 0.30813212E+04</pdfrwt>
<pdfrwt beam="2">  1       -1 0.21455022E+00 0.30813212E+04</pdfrwt>
<totfact> 0.11336065E+00</totfact>
</mgrwt>
</event>
<event>
12    6  0.9491186E-008  0.1330020E+04  0.7818608E-02  0.9006092E-01
          2   -1    0    0  501    0  0.00000000000E+00  0.00000000000E+00  0.49395901446E+03  0.49395901446E+03  0.00000000000E+00 0. -1.
         -1   -1    0    0    0  501 -0.00000000000E+00 -0.00000000000E+00 -0.89529359884E+03  0.89529359884E+03  0.00000000000E+00 0.  1.
         24    2    1    2    0    0 -0.16291093007E+03  0.81129204994E+02  0.22918747447E+03  0.30308586571E+03  0.78817666181E+02 0.  0.
        254    2    1    2    0    0  0.16291093007E+03 -0.81129204994E+02 -0.63052205885E+03  0.10861667476E+04  0.86549304897E+03 0.  0.
         23    2    4    4    0    0  0.47614949947E+03 -0.91082508027E+02 -0.17041432740E+03  0.52188871512E+03  0.91172467732E+02 0.  0.
         23    2    4    4    0    0 -0.31323856940E+03  0.99533030336E+01 -0.46010773145E+03  0.56427803246E+03  0.92158036984E+02 0.  0.
          4    1    3    3  502    0 -0.14722343342E+03  0.96065766429E+02  0.21220127476E+03  0.27555898069E+03  0.00000000000E+00 0. -1.
         -3    1    3    3    0  502 -0.15687496655E+02 -0.14936561435E+02  0.16986199709E+02  0.27526885028E+02  0.00000000000E+00 0.  1.
         11    1    5    5    0    0  0.19186000564E+02  0.23468668697E+01 -0.28357313227E+02  0.34318327686E+02  0.00000000000E+00 0. -1.
        -11    1    5    5    0    0  0.45696349891E+03 -0.93429374897E+02 -0.14205701417E+03  0.48757038744E+03  0.00000000000E+00 0.  1.
          3    1    6    6  503    0 -0.55970075819E+02  0.12692464486E+02 -0.15435480821E+03  0.16467894480E+03  0.00000000000E+00 0. -1.
         -3    1    6    6    0  503 -0.25726849358E+03 -0.27391614524E+01 -0.30575292324E+03  0.39959908766E+03  0.00000000000E+00 0.  1.
<mgrwt>
<rscale>  0 0.13300201E+04</rscale>
<asrwt>0</asrwt>
<pdfrwt beam="1">  1        2 0.75993695E-01 0.13300201E+04</pdfrwt>
<pdfrwt beam="2">  1       -1 0.13773748E+00 0.13300201E+04</pdfrwt>
<totfact> 0.30561459E+01</totfact>
</mgrwt>
</event>
<event>
12    6  0.9491186E-008  0.4194242E+04  0.7818608E-02  0.7966468E-01
         -1   -1    0    0    0  501 -0.00000000000E+00  0.00000000000E+00  0.19350803639E+04  0.19350803639E+04  0.00000000000E+00 0.  1.
          2   -1    0    0  501    0  0.00000000000E+00 -0.00000000000E+00 -0.22727308743E+04  0.22727308743E+04  0.00000000000E+00 0. -1.
         24    2    1    2    0    0 -0.73470658843E+03  0.10992435993E+04 -0.16657506778E+04  0.21282373326E+04  0.80861374553E+02 0.  0.
        254    2    1    2    0    0  0.73470658843E+03 -0.10992435993E+04  0.13281001674E+04  0.20795739055E+04  0.90146952930E+03 0.  0.
         23    2    4    4    0    0 -0.58114473671E+02  0.61350875763E+02  0.32867837122E+03  0.35266101522E+03  0.95911928030E+02 0.  0.
         23    2    4    4    0    0  0.79282106210E+03 -0.11605944751E+04  0.99942179620E+03  0.17269128903E+04  0.88540567082E+02 0.  0.
          2    1    3    3  502    0 -0.68974921578E+03  0.99164151318E+03 -0.15259480871E+04  0.19461820151E+04  0.00000000000E+00 0. -1.
         -1    1    3    3    0  502 -0.44957372654E+02  0.10760208612E+03 -0.13980259064E+03  0.18205531753E+03  0.00000000000E+00 0.  1.
         11    1    5    5    0    0 -0.70891755760E+02  0.29302558649E+02  0.12948121674E+03  0.15049806134E+03  0.00000000000E+00 0. -1.
        -11    1    5    5    0    0  0.12777282089E+02  0.32048317114E+02  0.19919715448E+03  0.20216295388E+03  0.00000000000E+00 0.  1.
          4    1    6    6  503    0  0.66736341579E+03 -0.95808660504E+03  0.86753420130E+03  0.14546200404E+04  0.00000000000E+00 0. -1.
         -4    1    6    6    0  503  0.12545764631E+03 -0.20250787002E+03  0.13188759490E+03  0.27229284993E+03  0.00000000000E+00 0.  1.
<mgrwt>
<rscale>  0 0.41942422E+04</rscale>
<asrwt>0</asrwt>
<pdfrwt beam="1">  1        2 0.34965090E+00 0.41942422E+04</pdfrwt>
<pdfrwt beam="2">  1       -1 0.29770467E+00 0.41942422E+04</pdfrwt>
<totfact> 0.14181440E-01</totfact>
</mgrwt>
</event>
<event>
12    6  0.9491186E-008  0.1690778E+04  0.7818608E-02  0.8766641E-01
          4   -1    0    0  501    0  0.00000000000E+00  0.00000000000E+00  0.17167264993E+04  0.17167264993E+04  0.00000000000E+00 0. -1.
         -3   -1    0    0    0  501 -0.00000000000E+00 -0.00000000000E+00 -0.41630547745E+03  0.41630547745E+03  0.00000000000E+00 0.  1.
         24    2    1    2    0    0  0.13079133787E+03 -0.54866616117E+03  0.63361799105E+03  0.85208639225E+03  0.80240456085E+02 0.  0.
        254    2    1    2    0    0 -0.13079133787E+03  0.54866616117E+03  0.66680303082E+03  0.12809455845E+04  0.93704555817E+03 0.  0.
         23    2    4    4    0    0 -0.28096791654E+03  0.45100738666E+03 -0.44870444536E+02  0.54120034207E+03  0.92378680011E+02 0.  0.
         23    2    4    4    0    0  0.15017657868E+03  0.97658774518E+02  0.71167347535E+03  0.73974524244E+03  0.93024981413E+02 0.  0.
          4    1    3    3  502    0  0.10765626050E+03 -0.52698575017E+03  0.60258665488E+03  0.80772181347E+03  0.00000000000E+00 0. -1.
         -3    1    3    3    0  502  0.23135077366E+02 -0.21680411000E+02  0.31031336171E+02  0.44364578781E+02  0.00000000000E+00 0.  1.
         11    1    5    5    0    0 -0.22097765653E+03  0.27648101455E+03 -0.43880541019E+02  0.35664881603E+03  0.00000000000E+00 0.  1.
        -11    1    5    5    0    0 -0.59990260010E+02  0.17452637210E+03 -0.98990351655E+00  0.18455152604E+03  0.00000000000E+00 0. -1.
          2    1    6    6  503    0  0.54414761272E+02  0.61224235011E+02  0.17296580141E+03  0.19138061985E+03  0.00000000000E+00 0. -1.
         -2    1    6    6    0  503  0.95761817404E+02  0.36434539507E+02  0.53870767394E+03  0.54836462259E+03  0.00000000000E+00 0.  1.
<mgrwt>
<rscale>  0 0.16907781E+04</rscale>
<asrwt>0</asrwt>
<pdfrwt beam="1">  1        4 0.26411177E+00 0.16907781E+04</pdfrwt>
<pdfrwt beam="2">  1       -3 0.64046997E-01 0.16907781E+04</pdfrwt>
<totfact> 0.26580967E-01</totfact>
</mgrwt>
</event>
<event>
12    6  0.9491186E-008  0.1774420E+04  0.7818608E-02  0.8720022E-01
         -1   -1    0    0    0  501 -0.00000000000E+00  0.00000000000E+00  0.88327558099E+03  0.88327558099E+03  0.00000000000E+00 0.  1.
          2   -1    0    0  501    0  0.00000000000E+00 -0.00000000000E+00 -0.89116239908E+03  0.89116239908E+03  0.00000000000E+00 0. -1.
         24    2    1    2    0    0 -0.55874529340E+03  0.14358187027E+03 -0.31461886594E+03  0.66173420938E+03  0.78070972120E+02 0.  0.
        254    2    1    2    0    0  0.55874529340E+03 -0.14358187027E+03  0.30673204785E+03  0.11127037707E+04  0.90067367884E+03 0.  0.
         23    2    4    4    0    0  0.40909062390E+03  0.86330830990E+02  0.57604478075E+03  0.71749111725E+03  0.90320335236E+02 0.  0.
         23    2    4    4    0    0  0.14965466950E+03 -0.22991270126E+03 -0.26931273290E+03  0.39521265344E+03  0.91691455606E+02 0.  0.
          2    1    3    3  502    0 -0.38086450010E+03  0.83439442468E+02 -0.24995608206E+03  0.46313923495E+03  0.00000000000E+00 0. -1.
         -1    1    3    3    0  502 -0.17788079330E+03  0.60142427806E+02 -0.64662783886E+02  0.19859497443E+03  0.00000000000E+00 0.  1.
         11    1    5    5    0    0  0.23546163965E+03  0.22021635569E+02  0.26216079071E+03  0.35306573944E+03  0.00000000000E+00 0.  1.
        -11    1    5    5    0    0  0.17362898425E+03  0.64309195421E+02  0.31388399004E+03  0.36442537781E+03  0.00000000000E+00 0. -1.
          1    1    6    6  503    0  0.13605967648E+03 -0.13298797504E+03 -0.19392850254E+03  0.27167315135E+03  0.00000000000E+00 0. -1.
         -1    1    6    6    0  503  0.13594993022E+02 -0.96924726224E+02 -0.75384230358E+02  0.12353950209E+03  0.00000000000E+00 0.  1.
<mgrwt>
<rscale>  0 0.17744205E+04</rscale>
<asrwt>0</asrwt>
<pdfrwt beam="1">  1        2 0.13710191E+00 0.17744205E+04</pdfrwt>
<pdfrwt beam="2">  1       -1 0.13588855E+00 0.17744205E+04</pdfrwt>
<totfact> 0.14539122E+01</totfact>
</mgrwt>
</event>
<event>
12    6  0.9491186E-008  0.1519611E+04  0.7818608E-02  0.8871516E-01
         -1   -1    0    0    0  501 -0.00000000000E+00  0.00000000000E+00  0.29895897507E+03  0.29895897507E+03  0.00000000000E+00 0.  1.
          2   -1    0    0  501    0  0.00000000000E+00 -0.00000000000E+00 -0.19310483187E+04  0.19310483187E+04  0.00000000000E+00 0. -1.
         24    2    1    2    0    0  0.10862448246E+03  0.10192049272E+03 -0.12339957136E+04  0.12455228313E+04  0.79966475072E+02 0.  0.
        254    2    1    2    0    0 -0.10862448246E+03 -0.10192049272E+03 -0.39809363009E+03  0.98448446251E+03  0.88800003017E+03 0.  0.
         23    2    4    4    0    0 -0.18378201198E+03  0.52554439157E+02  0.23838869868E+03  0.31888140212E+03  0.91205153156E+02 0.  0.
         23    2    4    4    0    0  0.75157529521E+02 -0.15447493187E+03 -0.63648232877E+03  0.66560306039E+03  0.91687078383E+02 0.  0.
          4    1    3    3  502    0  0.70473783788E+02  0.10792063279E+03 -0.10145417948E+04  0.10226966660E+04  0.00000000000E+00 0. -1.
         -3    1    3    3    0  502  0.38150698669E+02 -0.60001400763E+01 -0.21945391877E+03  0.22282616532E+03  0.00000000000E+00 0.  1.
         11    1    5    5    0    0 -0.57033986340E+02  0.59392518338E+02  0.70436998303E+02  0.10835920617E+03  0.00000000000E+00 0. -1.
        -11    1    5    5    0    0 -0.12674802564E+03 -0.68380791810E+01  0.16795170037E+03  0.21052219595E+03  0.00000000000E+00 0.  1.
          1    1    6    6  503    0  0.55626069073E+02 -0.12408930550E+03 -0.32885598885E+03  0.35586328373E+03  0.00000000000E+00 0. -1.
         -1    1    6    6    0  503  0.19531460447E+02 -0.30385626378E+02 -0.30762633991E+03  0.30973977666E+03  0.00000000000E+00 0.  1.
<mgrwt>
<rscale>  0 0.15196108E+04</rscale>
<asrwt>0</asrwt>
<pdfrwt beam="1">  1        2 0.29708434E+00 0.15196108E+04</pdfrwt>
<pdfrwt beam="2">  1       -1 0.45993691E-01 0.15196108E+04</pdfrwt>
<totfact> 0.37710370E+01</totfact>
</mgrwt>
</event>
<event>
12    6  0.9491186E-008  0.1990816E+04  0.7818608E-02  0.8610927E-01
         -1   -1    0    0    0  501 -0.00000000000E+00  0.00000000000E+00  0.18166120496E+04  0.18166120496E+04  0.00000000000E+00 0.  1.
          2   -1    0    0  501    0  0.00000000000E+00 -0.00000000000E+00 -0.54543111810E+03  0.54543111810E+03  0.00000000000E+00 0. -1.
         24    2    1    2    0    0  0.32808244733E+03 -0.54985357136E+03  0.10605330312E+04  0.12413955320E+04  0.79721480720E+02 0.  0.
        254    2    1    2    0    0 -0.32808244733E+03  0.54985357136E+03  0.21064790026E+03  0.11206476356E+04  0.89526618566E+03 0.  0.
         23    2    4    4    0    0 -0.44915197168E+03  0.43523964506E+03  0.47822913456E+03  0.79247909383E+03  0.90271627461E+02 0.  0.
         23    2    4    4    0    0  0.12106952435E+03  0.11461392630E+03 -0.26758123429E+03  0.32816854180E+03  0.91108139342E+02 0.  0.
          2    1    3    3  502    0  0.97177414478E+02 -0.20459162250E+03  0.31518388090E+03  0.38812634626E+03  0.00000000000E+00 0. -1.
         -1    1    3    3    0  502  0.23090503285E+03 -0.34526194886E+03  0.74534915031E+03  0.85326918577E+03  0.00000000000E+00 0.  1.
         11    1    5    5    0    0 -0.31552609769E+03  0.32255309245E+03  0.39132250558E+03  0.59726921831E+03  0.00000000000E+00 0. -1.
        -11    1    5    5    0    0 -0.13362587399E+03  0.11268655261E+03  0.86906628975E+02  0.19520987552E+03  0.00000000000E+00 0.  1.
          4    1    6    6  503    0  0.99778070439E+02  0.11834146144E+03 -0.17742341818E+03  0.23545580085E+03  0.00000000000E+00 0. -1.
         -4    1    6    6    0  503  0.21291453912E+02 -0.37275351449E+01 -0.90157816111E+02  0.92712740946E+02  0.00000000000E+00 0.  1.
<mgrwt>
<rscale>  0 0.19908157E+04</rscale>
<asrwt>0</asrwt>
<pdfrwt beam="1">  1        2 0.83912480E-01 0.19908157E+04</pdfrwt>
<pdfrwt beam="2">  1       -1 0.27947878E+00 0.19908157E+04</pdfrwt>
<totfact> 0.26493086E+00</totfact>
</mgrwt>
</event>
<event>
12    6  0.9491186E-008  0.2480209E+04  0.7818608E-02  0.8410070E-01
         -1   -1    0    0    0  501 -0.00000000000E+00  0.00000000000E+00  0.10046548833E+04  0.10046548833E+04  0.00000000000E+00 0.  1.
          2   -1    0    0  501    0  0.00000000000E+00 -0.00000000000E+00 -0.15307337896E+04  0.15307337896E+04  0.00000000000E+00 0. -1.
         24    2    1    2    0    0 -0.65230276639E+03  0.85580698764E+03 -0.14625296360E+03  0.10887321708E+04  0.77738736535E+02 0.  0.
        254    2    1    2    0    0  0.65230276639E+03 -0.85580698764E+03 -0.37982594264E+03  0.14466565021E+04  0.88918096540E+03 0.  0.
         23    2    4    4    0    0  0.25511150495E+03 -0.33923573408E+02 -0.44883226241E+03  0.52637480885E+03  0.96888342000E+02 0.  0.
         23    2    4    4    0    0  0.39719126144E+03 -0.82188341423E+03  0.69006319768E+02  0.92028169325E+03  0.94357183171E+02 0.  0.
          2    1    3    3  502    0 -0.43195208059E+02  0.30792357869E+02 -0.15650650148E+01  0.53070186837E+02  0.00000000000E+00 0. -1.
         -1    1    3    3    0  502 -0.60910755833E+03  0.82501462977E+03 -0.14468789859E+03  0.10356619839E+04  0.00000000000E+00 0.  1.
         11    1    5    5    0    0  0.43867208081E+02  0.15725640347E+02 -0.32280295239E+02  0.56689021599E+02  0.00000000000E+00 0. -1.
        -11    1    5    5    0    0  0.21124429687E+03 -0.49649213755E+02 -0.41655196717E+03  0.46968578725E+03  0.00000000000E+00 0.  1.
          3    1    6    6  503    0  0.34971923908E+02 -0.61209183813E+02 -0.19472992974E+02  0.73135470876E+02  0.00000000000E+00 0. -1.
         -3    1    6    6    0  503  0.36221933753E+03 -0.76067423042E+03  0.88479312742E+02  0.84714622238E+03  0.00000000000E+00 0.  1.
<mgrwt>
<rscale>  0 0.24802090E+04</rscale>
<asrwt>0</asrwt>
<pdfrwt beam="1">  1        2 0.23549751E+00 0.24802090E+04</pdfrwt>
<pdfrwt beam="2">  1       -1 0.15456229E+00 0.24802090E+04</pdfrwt>
<totfact> 0.39912260E+00</totfact>
</mgrwt>
</event>
<event>
12    6  0.9491186E-008  0.1580881E+04  0.7818608E-02  0.8832380E-01
          2   -1    0    0  501    0  0.00000000000E+00  0.00000000000E+00  0.82579249087E+03  0.82579249087E+03  0.00000000000E+00 0. -1.
         -1   -1    0    0    0  501 -0.00000000000E+00 -0.00000000000E+00 -0.75660220651E+03  0.75660220651E+03  0.00000000000E+00 0.  1.
         24    2    1    2    0    0 -0.15523330219E+03  0.96543533419E+02  0.52435894987E+03  0.56124064885E+03  0.81367841679E+02 0.  0.
        254    2    1    2    0    0  0.15523330219E+03 -0.96543533419E+02 -0.45516866552E+03  0.10211540485E+04  0.89563332050E+03 0.  0.
         23    2    4    4    0    0 -0.13508797883E+03  0.14848637383E+03 -0.57197792801E+03  0.61306860103E+03  0.91637297022E+02 0.  0.
         23    2    4    4    0    0  0.29032128103E+03 -0.24502990725E+03  0.11680926249E+03  0.40808544749E+03  0.92537705761E+02 0.  0.
          4    1    3    3  502    0 -0.14812064010E+03  0.73334091078E+02  0.37342776281E+03  0.40836981643E+03  0.00000000000E+00 0. -1.
         -3    1    3    3    0  502 -0.71126620884E+01  0.23209442341E+02  0.15093118706E+03  0.15287083242E+03  0.00000000000E+00 0.  1.
         11    1    5    5    0    0 -0.12470213430E+03  0.12439249870E+03 -0.55383674179E+03  0.58117058820E+03  0.00000000000E+00 0. -1.
        -11    1    5    5    0    0 -0.10385844537E+02  0.24093875128E+02 -0.18141186222E+02  0.31898012838E+02  0.00000000000E+00 0.  1.
          1    1    6    6  503    0  0.16264765953E+03 -0.16829461833E+03  0.11094731530E+03  0.25901090031E+03  0.00000000000E+00 0. -1.
         -1    1    6    6    0  503  0.12767362149E+03 -0.76735288921E+02  0.58619471899E+01  0.14907454718E+03  0.00000000000E+00 0.  1.
<mgrwt>
<rscale>  0 0.15808813E+04</rscale>
<asrwt>0</asrwt>
<pdfrwt beam="1">  1        2 0.12704500E+00 0.15808813E+04</pdfrwt>
<pdfrwt beam="2">  1       -1 0.11640034E+00 0.15808813E+04</pdfrwt>
<totfact> 0.24132878E+01</totfact>
</mgrwt>
</event>
<event>
12    6  0.9491186E-008  0.2351120E+04  0.7818608E-02  0.8458033E-01
          2   -1    0    0  501    0  0.00000000000E+00  0.00000000000E+00  0.68865575611E+03  0.68865575611E+03  0.00000000000E+00 0. -1.
         -1   -1    0    0    0  501 -0.00000000000E+00 -0.00000000000E+00 -0.20067235884E+04  0.20067235884E+04  0.00000000000E+00 0.  1.
         24    2    1    2    0    0  0.54352473652E+03  0.45363078383E+03 -0.13348627522E+04  0.15130182963E+04  0.78522420398E+02 0.  0.
        254    2    1    2    0    0 -0.54352473652E+03 -0.45363078383E+03  0.16794919945E+02  0.11823610482E+04  0.94683449012E+03 0.  0.
         23    2    4    4    0    0 -0.49775855124E+03  0.18213812782E+03  0.11632040126E+02  0.53768984339E+03  0.89650378583E+02 0.  0.
         23    2    4    4    0    0 -0.45766185277E+02 -0.63576891165E+03  0.51628798190E+01  0.64467120479E+03  0.96320580487E+02 0.  0.
          2    1    3    3  502    0  0.79027303645E+02  0.86568727690E+02 -0.27662552709E+03  0.30043492070E+03  0.00000000000E+00 0. -1.
         -1    1    3    3    0  502  0.46449743287E+03  0.36706205614E+03 -0.10582372251E+04  0.12125833756E+04  0.00000000000E+00 0.  1.
         11    1    5    5    0    0 -0.27570184360E+03  0.14728558631E+03 -0.67491041907E+00  0.31257799987E+03  0.00000000000E+00 0. -1.
        -11    1    5    5    0    0 -0.22205670764E+03  0.34852541515E+02  0.12306950545E+02  0.22511184351E+03  0.00000000000E+00 0.  1.
          1    1    6    6  503    0 -0.45288032884E+02 -0.12952838861E+03  0.17174288908E+02  0.13828798060E+03  0.00000000000E+00 0. -1.
         -1    1    6    6    0  503 -0.47815239374E+00 -0.50624052304E+03 -0.12011409089E+02  0.50638322420E+03  0.00000000000E+00 0.  1.
<mgrwt>
<rscale>  0 0.23511204E+04</rscale>
<asrwt>0</asrwt>
<pdfrwt beam="1">  1        2 0.10594704E+00 0.23511204E+04</pdfrwt>
<pdfrwt beam="2">  1       -1 0.30872670E+00 0.23511204E+04</pdfrwt>
<totfact> 0.12493122E+00</totfact>
</mgrwt>
</event>
<event>
12    6  0.9491186E-008  0.1443051E+04  0.7818608E-02  0.8923232E-01
         -1   -1    0    0    0  501 -0.00000000000E+00  0.00000000000E+00  0.43621277493E+03  0.43621277493E+03  0.00000000000E+00 0.  1.
          2   -1    0    0  501    0  0.00000000000E+00 -0.00000000000E+00 -0.11934529114E+04  0.11934529114E+04  0.00000000000E+00 0. -1.
         24    2    1    2    0    0  0.30577565309E+03  0.31137722586E+03 -0.25085432615E+03  0.50938510719E+03  0.78043370490E+02 0.  0.
        254    2    1    2    0    0 -0.30577565309E+03 -0.31137722586E+03 -0.50638581037E+03  0.11202805792E+04  0.89897022217E+03 0.  0.
         23    2    4    4    0    0 -0.14034955466E+03 -0.29801513384E+03  0.19376702661E+03  0.39538015107E+03  0.10133501749E+03 0.  0.
         23    2    4    4    0    0 -0.16542609843E+03 -0.13362092022E+02 -0.70015283698E+03  0.72490042812E+03  0.87876595311E+02 0.  0.
          4    1    3    3  502    0  0.16982183574E+03  0.11913908119E+03 -0.10626394829E+03  0.23307853455E+03  0.00000000000E+00 0. -1.
         -3    1    3    3    0  502  0.13595381734E+03  0.19223814466E+03 -0.14459037786E+03  0.27630657264E+03  0.00000000000E+00 0.  1.
         11    1    5    5    0    0  0.30572596768E+01 -0.13862543647E+01  0.24946465736E+02  0.25171306891E+02  0.00000000000E+00 0. -1.
        -11    1    5    5    0    0 -0.14340681434E+03 -0.29662887947E+03  0.16882056087E+03  0.37020884418E+03  0.00000000000E+00 0.  1.
          1    1    6    6  503    0 -0.22145595906E+01  0.11046890206E+02 -0.92953635607E+01  0.14606226108E+02  0.00000000000E+00 0. -1.
         -1    1    6    6    0  503 -0.16321153884E+03 -0.24408982227E+02 -0.69085747342E+03  0.71029420201E+03  0.00000000000E+00 0.  1.
<mgrwt>
<rscale>  0 0.14430515E+04</rscale>
<asrwt>0</asrwt>
<pdfrwt beam="1">  1        2 0.18360814E+00 0.14430515E+04</pdfrwt>
<pdfrwt beam="2">  1       -1 0.67109657E-01 0.14430515E+04</pdfrwt>
<totfact> 0.47562473E+01</totfact>
</mgrwt>
</event>
<event>
12    6  0.9491186E-008  0.1826171E+04  0.7818608E-02  0.8692505E-01
         -1   -1    0    0    0  501 -0.00000000000E+00  0.00000000000E+00  0.55716901574E+03  0.55716901574E+03  0.00000000000E+00 0.  1.
          2   -1    0    0  501    0  0.00000000000E+00 -0.00000000000E+00 -0.14963592112E+04  0.14963592112E+04  0.00000000000E+00 0. -1.
         24    2    1    2    0    0  0.48959555507E+03  0.87689641254E+02 -0.89045083373E+03  0.10222431801E+04  0.68448163917E+02 0.  0.
        254    2    1    2    0    0 -0.48959555507E+03 -0.87689641254E+02 -0.48739361771E+02  0.10312850469E+04  0.90209757893E+03 0.  0.
         23    2    4    4    0    0 -0.30693868701E+03 -0.45898460569E+03 -0.17930262415E+03  0.58766975515E+03  0.91258337973E+02 0.  0.
         23    2    4    4    0    0 -0.18265686805E+03  0.37129496444E+03  0.13056326238E+03  0.44361529178E+03  0.92327025069E+02 0.  0.
          4    1    3    3  502    0  0.41139715696E+03  0.97793124862E+02 -0.76425904934E+03  0.87344319250E+03  0.00000000000E+00 0. -1.
         -3    1    3    3    0  502  0.78198398110E+02 -0.10103483609E+02 -0.12619178439E+03  0.14879998755E+03  0.00000000000E+00 0.  1.
         11    1    5    5    0    0 -0.21998295331E+03 -0.33871061854E+03 -0.87790707153E+02  0.41330931652E+03  0.00000000000E+00 0.  1.
        -11    1    5    5    0    0 -0.86955733699E+02 -0.12027398715E+03 -0.91511916994E+02  0.17436043863E+03  0.00000000000E+00 0. -1.
          1    1    6    6  503    0 -0.49656933683E+02  0.42525236436E+02  0.43199294914E+02  0.78360614328E+02  0.00000000000E+00 0. -1.
         -1    1    6    6    0  503 -0.13299993437E+03  0.32876972800E+03  0.87363967462E+02  0.36525467745E+03  0.00000000000E+00 0.  1.
<mgrwt>
<rscale>  0 0.18261708E+04</rscale>
<asrwt>0</asrwt>
<pdfrwt beam="1">  1        2 0.23020911E+00 0.18261708E+04</pdfrwt>
<pdfrwt beam="2">  1       -1 0.85718311E-01 0.18261708E+04</pdfrwt>
<totfact> 0.18404873E+01</totfact>
</mgrwt>
</event>
<event>
12    6  0.9491186E-008  0.1839557E+04  0.7818608E-02  0.8685542E-01
          2   -1    0    0  501    0  0.00000000000E+00  0.00000000000E+00  0.10296338206E+04  0.10296338206E+04  0.00000000000E+00 0. -1.
         -1   -1    0    0    0  501 -0.00000000000E+00 -0.00000000000E+00 -0.82164372232E+03  0.82164372232E+03  0.00000000000E+00 0.  1.
         24    2    1    2    0    0 -0.15151890885E+03 -0.14235542675E+03  0.74031148011E+03  0.77310673020E+03  0.80061735142E+02 0.  0.
        254    2    1    2    0    0  0.15151890885E+03  0.14235542675E+03 -0.53232138182E+03  0.10781708127E+04  0.91425554447E+03 0.  0.
         23    2    4    4    0    0  0.48483416935E+03 -0.50252022592E+02 -0.12780633480E+03  0.51224078481E+03  0.92014807830E+02 0.  0.
         23    2    4    4    0    0 -0.33331526051E+03  0.19260744934E+03 -0.40451504703E+03  0.56593002791E+03  0.91911265877E+02 0.  0.
          4    1    3    3  502    0 -0.14296069028E+03 -0.14695007566E+03  0.63336752144E+03  0.66572254049E+03  0.00000000000E+00 0. -1.
         -3    1    3    3    0  502 -0.85582185688E+01  0.45946489097E+01  0.10694395867E+03  0.10738418971E+03  0.00000000000E+00 0.  1.
         11    1    5    5    0    0  0.23252382856E+02 -0.22841517153E+02 -0.16969794587E+02  0.36747546076E+02  0.00000000000E+00 0. -1.
        -11    1    5    5    0    0  0.46158178650E+03 -0.27410505439E+02 -0.11083654021E+03  0.47549323873E+03  0.00000000000E+00 0.  1.
          4    1    6    6  503    0 -0.47952453032E+02  0.41227861958E+02 -0.11921664359E+03  0.13495103728E+03  0.00000000000E+00 0. -1.
         -4    1    6    6    0  503 -0.28536280748E+03  0.15137958738E+03 -0.28529840344E+03  0.43097899064E+03  0.00000000000E+00 0.  1.
<mgrwt>
<rscale>  0 0.18395566E+04</rscale>
<asrwt>0</asrwt>
<pdfrwt beam="1">  1        2 0.15840520E+00 0.18395566E+04</pdfrwt>
<pdfrwt beam="2">  1       -1 0.12640673E+00 0.18395566E+04</pdfrwt>
<totfact> 0.14089177E+01</totfact>
</mgrwt>
</event>
<event>
12    6  0.9491186E-008  0.2476362E+04  0.7818608E-02  0.8411455E-01
          2   -1    0    0  501    0  0.00000000000E+00  0.00000000000E+00  0.11976954643E+04  0.11976954643E+04  0.00000000000E+00 0. -1.
         -1   -1    0    0    0  501 -0.00000000000E+00 -0.00000000000E+00 -0.12800350764E+04  0.12800350764E+04  0.00000000000E+00 0.  1.
         24    2    1    2    0    0 -0.57562701636E+03 -0.89985721214E+03  0.10723058799E+03  0.10761762465E+04  0.74615349305E+02 0.  0.
        254    2    1    2    0    0  0.57562701636E+03  0.89985721214E+03 -0.18957020010E+03  0.14015542941E+04  0.88731511566E+03 0.  0.
         23    2    4    4    0    0  0.75813698965E+03  0.67637644472E+03  0.41950219370E+02  0.10204917576E+04  0.85946590509E+02 0.  0.
         23    2    4    4    0    0 -0.18250997329E+03  0.22348076741E+03 -0.23152041947E+03  0.38106253653E+03  0.91396982215E+02 0.  0.
          2    1    3    3  502    0 -0.54607140578E+03 -0.81703234150E+03  0.93271148971E+02  0.98713491200E+03  0.00000000000E+00 0. -1.
         -1    1    3    3    0  502 -0.29555610582E+02 -0.82824870636E+02  0.13959439021E+02  0.89041334505E+02  0.00000000000E+00 0.  1.
         11    1    5    5    0    0  0.54780685311E+03  0.49462326909E+03 -0.77219270945E+01  0.73810849798E+03  0.00000000000E+00 0. -1.
        -11    1    5    5    0    0  0.21033013654E+03  0.18175317564E+03  0.49672146465E+02  0.28238325964E+03  0.00000000000E+00 0.  1.
          4    1    6    6  503    0 -0.82896562162E+02  0.38028478584E+02 -0.84142521493E+02  0.12408855356E+03  0.00000000000E+00 0. -1.
         -4    1    6    6    0  503 -0.99613411128E+02  0.18545228883E+03 -0.14737789798E+03  0.25697398296E+03  0.00000000000E+00 0.  1.
<mgrwt>
<rscale>  0 0.24763620E+04</rscale>
<asrwt>0</asrwt>
<pdfrwt beam="1">  1        2 0.18426084E+00 0.24763620E+04</pdfrwt>
<pdfrwt beam="2">  1       -1 0.19692847E+00 0.24763620E+04</pdfrwt>
<totfact> 0.30587732E+00</totfact>
</mgrwt>
</event>
<event>
12    6  0.9491186E-008  0.4406509E+04  0.7818608E-02  0.7927212E-01
          2   -1    0    0  501    0  0.00000000000E+00  0.00000000000E+00  0.34188197519E+04  0.34188197519E+04  0.00000000000E+00 0. -1.
         -1   -1    0    0    0  501 -0.00000000000E+00 -0.00000000000E+00 -0.14198845362E+04  0.14198845362E+04  0.00000000000E+00 0.  1.
         24    2    1    2    0    0 -0.12993491276E+03  0.18651116529E+04 -0.11691369537E+03  0.18749554125E+04  0.79148135377E+02 0.  0.
        254    2    1    2    0    0  0.12993491276E+03 -0.18651116529E+04  0.21158489111E+04  0.29637488757E+04  0.90081420085E+03 0.  0.
         23    2    4    4    0    0 -0.37308312038E+02 -0.67160850123E+03  0.14076589644E+04  0.15627932586E+04  0.91482895549E+02 0.  0.
         23    2    4    4    0    0  0.16724322479E+03 -0.11935031517E+04  0.70818994670E+03  0.14009556171E+04  0.93400059645E+02 0.  0.
          4    1    3    3  502    0 -0.20565982429E+01  0.12280886925E+03 -0.26346667658E+02  0.12562004163E+03  0.00000000000E+00 0. -1.
         -3    1    3    3    0  502 -0.12787831451E+03  0.17423027836E+04 -0.90567027710E+02  0.17493353709E+04  0.00000000000E+00 0.  1.
         11    1    5    5    0    0 -0.54694886955E+02 -0.46219011055E+03  0.89610756718E+03  0.10097623487E+04  0.00000000000E+00 0. -1.
        -11    1    5    5    0    0  0.17386574917E+02 -0.20941839069E+03  0.51155139718E+03  0.55303090990E+03  0.00000000000E+00 0.  1.
          4    1    6    6  503    0  0.17150776011E+03 -0.96413524061E+03  0.56670060529E+03  0.11314244341E+04  0.00000000000E+00 0. -1.
         -4    1    6    6    0  503 -0.42645353208E+01 -0.22936791105E+03  0.14148934141E+03  0.26953118300E+03  0.00000000000E+00 0.  1.
<mgrwt>
<rscale>  0 0.44065085E+04</rscale>
<asrwt>0</asrwt>
<pdfrwt beam="1">  1        2 0.52597227E+00 0.44065085E+04</pdfrwt>
<pdfrwt beam="2">  1       -1 0.21844378E+00 0.44065085E+04</pdfrwt>
<totfact> 0.90275907E-02</totfact>
</mgrwt>
</event>
<event>
12    6  0.9491186E-008  0.2203084E+04  0.7818608E-02  0.8517146E-01
          2   -1    0    0  501    0  0.00000000000E+00  0.00000000000E+00  0.68863128691E+03  0.68863128691E+03  0.00000000000E+00 0. -1.
         -1   -1    0    0    0  501 -0.00000000000E+00 -0.00000000000E+00 -0.17620380559E+04  0.17620380559E+04  0.00000000000E+00 0.  1.
         24    2    1    2    0    0  0.45476795048E+03  0.77917478636E+03 -0.61396344648E+03  0.10939881732E+04  0.77018004966E+02 0.  0.
        254    2    1    2    0    0 -0.45476795048E+03 -0.77917478636E+03 -0.45944332252E+03  0.13566811696E+04  0.90308825305E+03 0.  0.
         23    2    4    4    0    0 -0.25080814737E+03 -0.95473466766E+03 -0.36810444212E+03  0.10579479849E+04  0.96592162969E+02 0.  0.
         23    2    4    4    0    0 -0.20395980311E+03  0.17555988130E+03 -0.91338880395E+02  0.29873318472E+03  0.92075248426E+02 0.  0.
          2    1    3    3  502    0  0.27878120577E+03  0.54068695919E+03 -0.43344634795E+03  0.74695186263E+03  0.00000000000E+00 0. -1.
         -1    1    3    3    0  502  0.17598674471E+03  0.23848782717E+03 -0.18051709853E+03  0.34703631061E+03  0.00000000000E+00 0.  1.
         11    1    5    5    0    0 -0.21450259955E+03 -0.67857523115E+03 -0.29161981922E+03  0.76910196236E+03  0.00000000000E+00 0.  1.
        -11    1    5    5    0    0 -0.36305547820E+02 -0.27615943650E+03 -0.76484622906E+02  0.28884602250E+03  0.00000000000E+00 0. -1.
          3    1    6    6  503    0 -0.60757997410E+02  0.87854008059E+02  0.15505393272E+01  0.10682820392E+03  0.00000000000E+00 0. -1.
         -3    1    6    6    0  503 -0.14320180571E+03  0.87705873237E+02 -0.92889419722E+02  0.19190498079E+03  0.00000000000E+00 0.  1.
<mgrwt>
<rscale>  0 0.22030838E+04</rscale>
<asrwt>0</asrwt>
<pdfrwt beam="1">  1        2 0.10594328E+00 0.22030838E+04</pdfrwt>
<pdfrwt beam="2">  1       -1 0.27108277E+00 0.22030838E+04</pdfrwt>
<totfact> 0.22181170E+00</totfact>
</mgrwt>
</event>
<event>
12    6  0.9491186E-008  0.2307275E+04  0.7818608E-02  0.8475058E-01
         -1   -1    0    0    0  501 -0.00000000000E+00  0.00000000000E+00  0.66585233815E+03  0.66585233815E+03  0.00000000000E+00 0.  1.
          2   -1    0    0  501    0  0.00000000000E+00 -0.00000000000E+00 -0.19987600182E+04  0.19987600182E+04  0.00000000000E+00 0. -1.
         24    2    1    2    0    0  0.86346412610E+03 -0.23972300376E+03 -0.10166418928E+04  0.13575528657E+04  0.79697109860E+02 0.  0.
        254    2    1    2    0    0 -0.86346412610E+03  0.23972300376E+03 -0.31626578725E+03  0.13070594907E+04  0.89740907529E+03 0.  0.
         23    2    4    4    0    0 -0.29881643747E+03 -0.27021381969E+03  0.11389095899E+03  0.42780441045E+03  0.87969832362E+02 0.  0.
         23    2    4    4    0    0 -0.56464768863E+03  0.50993682345E+03 -0.43015674624E+03  0.87925508024E+03  0.95875406644E+02 0.  0.
          4    1    3    3  502    0  0.46193928692E+03 -0.16515980288E+03 -0.52817194983E+03  0.72085454418E+03  0.00000000000E+00 0. -1.
         -3    1    3    3    0  502  0.40152483918E+03 -0.74563200887E+02 -0.48846994301E+03  0.63669832152E+03  0.00000000000E+00 0.  1.
         11    1    5    5    0    0 -0.52348821546E+02 -0.45411387951E+02 -0.13708026576E+02  0.70643494148E+02  0.00000000000E+00 0.  1.
        -11    1    5    5    0    0 -0.24646761593E+03 -0.22480243174E+03  0.12759898557E+03  0.35716091630E+03  0.00000000000E+00 0. -1.
          2    1    6    6  503    0 -0.51248361758E+03  0.49135326615E+03 -0.41260785877E+03  0.82116547392E+03  0.00000000000E+00 0. -1.
         -2    1    6    6    0  503 -0.52164071047E+02  0.18583557306E+02 -0.17548887469E+02  0.58089606314E+02  0.00000000000E+00 0.  1.
<mgrwt>
<rscale>  0 0.23072746E+04</rscale>
<asrwt>0</asrwt>
<pdfrwt beam="1">  1        2 0.30750153E+00 0.23072746E+04</pdfrwt>
<pdfrwt beam="2">  1       -1 0.10243882E+00 0.23072746E+04</pdfrwt>
<totfact> 0.62214961E+00</totfact>
</mgrwt>
</event>
<event>
12    6  0.9491186E-008  0.3231386E+04  0.7818608E-02  0.8180577E-01
         -1   -1    0    0    0  501 -0.00000000000E+00  0.00000000000E+00  0.13719020091E+04  0.13719020091E+04  0.00000000000E+00 0.  1.
          2   -1    0    0  501    0  0.00000000000E+00 -0.00000000000E+00 -0.19028067413E+04  0.19028067413E+04  0.00000000000E+00 0. -1.
         24    2    1    2    0    0 -0.93373624786E+03  0.60214683772E+03  0.76030917792E+03  0.13484521218E+04  0.76216034384E+02 0.  0.
        254    2    1    2    0    0  0.93373624786E+03 -0.60214683772E+03 -0.12912139101E+04  0.19262566286E+04  0.89932588253E+03 0.  0.
         23    2    4    4    0    0  0.46821183980E+03 -0.38176628701E+03 -0.92352792476E+02  0.61783675484E+03  0.90693949785E+02 0.  0.
         23    2    4    4    0    0  0.46552440806E+03 -0.22038055071E+03 -0.11988611176E+04  0.13084198738E+04  0.97025899432E+02 0.  0.
          4    1    3    3  502    0 -0.28816856312E+02  0.34699628051E+02  0.38604239781E+02  0.59369712174E+02  0.00000000000E+00 0. -1.
         -3    1    3    3    0  502 -0.90491939155E+03  0.56744720967E+03  0.72170493814E+03  0.12890824096E+04  0.00000000000E+00 0.  1.
         11    1    5    5    0    0  0.41081612470E+03 -0.30528482093E+03 -0.53481611185E+02  0.51461538351E+03  0.00000000000E+00 0.  1.
        -11    1    5    5    0    0  0.57395715095E+02 -0.76481466077E+02 -0.38871181290E+02  0.10322137133E+03  0.00000000000E+00 0. -1.
          1    1    6    6  503    0  0.90726927798E+02 -0.70430229673E+02 -0.35203910519E+03  0.37030166657E+03  0.00000000000E+00 0. -1.
         -1    1    6    6    0  503  0.37479748026E+03 -0.14995032104E+03 -0.84682201243E+03  0.93811820723E+03  0.00000000000E+00 0.  1.
<mgrwt>
<rscale>  0 0.32313863E+04</rscale>
<asrwt>0</asrwt>
<pdfrwt beam="1">  1        2 0.29273950E+00 0.32313863E+04</pdfrwt>
<pdfrwt beam="2">  1       -1 0.21106185E+00 0.32313863E+04</pdfrwt>
<totfact> 0.91416460E-01</totfact>
</mgrwt>
</event>
<event>
12    6  0.9491186E-008  0.2305711E+04  0.7818608E-02  0.8475673E-01
          2   -1    0    0  501    0  0.00000000000E+00  0.00000000000E+00  0.82871065770E+03  0.82871065770E+03  0.00000000000E+00 0. -1.
         -1   -1    0    0    0  501 -0.00000000000E+00 -0.00000000000E+00 -0.16037877369E+04  0.16037877369E+04  0.00000000000E+00 0.  1.
         24    2    1    2    0    0  0.70248226989E+03  0.36407323256E+03  0.26846748319E+03  0.84077807179E+03  0.93820670913E+02 0.  0.
        254    2    1    2    0    0 -0.70248226989E+03 -0.36407323256E+03 -0.10435445624E+04  0.15917203229E+04  0.90474177213E+03 0.  0.
         23    2    4    4    0    0 -0.44931426727E+03  0.25673561914E+03 -0.46710951730E+03  0.70295378207E+03  0.90311846802E+02 0.  0.
         23    2    4    4    0    0 -0.25316800262E+03 -0.62080885170E+03 -0.57643504512E+03  0.88876654078E+03  0.90171696543E+02 0.  0.
          4    1    3    3  502    0  0.45841240987E+03  0.18955950058E+03  0.18384871042E+03  0.52903222030E+03  0.00000000000E+00 0. -1.
         -3    1    3    3    0  502  0.24406986002E+03  0.17451373198E+03  0.84618772771E+02  0.31174585149E+03  0.00000000000E+00 0.  1.
         11    1    5    5    0    0 -0.59834379395E+01 -0.45374695058E+01  0.64915038113E+00  0.75373440487E+01  0.00000000000E+00 0.  1.
        -11    1    5    5    0    0 -0.44333082933E+03  0.26127308865E+03 -0.46775866768E+03  0.69541643802E+03  0.00000000000E+00 0. -1.
          2    1    6    6  503    0 -0.10461727125E+03 -0.28718637677E+03 -0.32006754293E+03  0.44256527256E+03  0.00000000000E+00 0. -1.
         -2    1    6    6    0  503 -0.14855073137E+03 -0.33362247494E+03 -0.25636750219E+03  0.44620126821E+03  0.00000000000E+00 0.  1.
<mgrwt>
<rscale>  0 0.23057112E+04</rscale>
<asrwt>0</asrwt>
<pdfrwt beam="1">  1        2 0.12749395E+00 0.23057112E+04</pdfrwt>
<pdfrwt beam="2">  1       -1 0.24673657E+00 0.23057112E+04</pdfrwt>
<totfact> 0.24869457E+00</totfact>
</mgrwt>
</event>
<event>
12    6  0.9491186E-008  0.2463240E+04  0.7818608E-02  0.8416200E-01
         -1   -1    0    0    0  501 -0.00000000000E+00  0.00000000000E+00  0.12922228211E+04  0.12922228211E+04  0.00000000000E+00 0.  1.
          2   -1    0    0  501    0  0.00000000000E+00 -0.00000000000E+00 -0.11738590305E+04  0.11738590305E+04  0.00000000000E+00 0. -1.
         24    2    1    2    0    0 -0.65826309872E+02  0.29481849656E+03 -0.97066864596E+03  0.10196969115E+04  0.79580915334E+02 0.  0.
        254    2    1    2    0    0  0.65826309872E+02 -0.29481849656E+03  0.10890324365E+04  0.14463849400E+04  0.90265535948E+03 0.  0.
         23    2    4    4    0    0  0.29516570268E+03  0.22098499390E+03  0.41811586919E+03  0.56478904247E+03  0.90601450638E+02 0.  0.
         23    2    4    4    0    0 -0.22933939281E+03 -0.51580349046E+03  0.67091656733E+03  0.88159589758E+03  0.91828581804E+02 0.  0.
          4    1    3    3  502    0 -0.61969023923E+01  0.19765042821E+03 -0.64639041376E+03  0.67596202584E+03  0.00000000000E+00 0. -1.
         -1    1    3    3    0  502 -0.59629407479E+02  0.97168068355E+02 -0.32427823219E+03  0.34373488566E+03  0.00000000000E+00 0.  1.
         11    1    5    5    0    0  0.27272716344E+03  0.17252553485E+03  0.38319452155E+03  0.50098224239E+03  0.00000000000E+00 0. -1.
        -11    1    5    5    0    0  0.22438539245E+02  0.48459459047E+02  0.34921347646E+02  0.63806800077E+02  0.00000000000E+00 0.  1.
          4    1    6    6  503    0 -0.14860260152E+03 -0.25291350460E+03  0.29703880403E+03  0.41746859174E+03  0.00000000000E+00 0. -1.
         -4    1    6    6    0  503 -0.80736791295E+02 -0.26288998585E+03  0.37387776330E+03  0.46412730584E+03  0.00000000000E+00 0.  1.
<mgrwt>
<rscale>  0 0.24632397E+04</rscale>
<asrwt>0</asrwt>
<pdfrwt beam="1">  1        2 0.18059370E+00 0.24632397E+04</pdfrwt>
<pdfrwt beam="2">  1       -1 0.19880351E+00 0.24632397E+04</pdfrwt>
<totfact> 0.30716044E+00</totfact>
</mgrwt>
</event>
<event>
12    6  0.9491186E-008  0.1326822E+04  0.7818608E-02  0.9008562E-01
          2   -1    0    0  501    0  0.00000000000E+00  0.00000000000E+00  0.79701403390E+03  0.79701403390E+03  0.00000000000E+00 0. -1.
         -1   -1    0    0    0  501 -0.00000000000E+00 -0.00000000000E+00 -0.55220336768E+03  0.55220336768E+03  0.00000000000E+00 0.  1.
         24    2    1    2    0    0 -0.28716669767E+03 -0.11003212420E+03  0.23951238996E+03  0.39793979256E+03  0.80113125973E+02 0.  0.
        254    2    1    2    0    0  0.28716669767E+03  0.11003212420E+03  0.52982762720E+01  0.95127760902E+03  0.90018289091E+03 0.  0.
         23    2    4    4    0    0  0.45600815044E+03  0.30507313261E+03 -0.21851261595E+03  0.59709777554E+03  0.88118901051E+02 0.  0.
         23    2    4    4    0    0 -0.16884145276E+03 -0.19504100841E+03  0.22381089223E+03  0.35417983348E+03  0.93827543015E+02 0.  0.
          2    1    3    3  502    0 -0.11766496636E+02 -0.26341962483E+02  0.12899723963E+02  0.31603042716E+02  0.00000000000E+00 0. -1.
         -1    1    3    3    0  502 -0.27540020104E+03 -0.83690161714E+02  0.22661266599E+03  0.36633674984E+03  0.00000000000E+00 0.  1.
         11    1    5    5    0    0  0.10491757723E+03  0.11772635083E+03 -0.58973229497E+02  0.16835983336E+03  0.00000000000E+00 0.  1.
        -11    1    5    5    0    0  0.35109057320E+03  0.18734678178E+03 -0.15953938646E+03  0.42873794218E+03  0.00000000000E+00 0. -1.
          3    1    6    6  503    0 -0.16462868074E+03 -0.13144281363E+03  0.16773309724E+03  0.26928462208E+03  0.00000000000E+00 0. -1.
         -3    1    6    6    0  503 -0.42127720205E+01 -0.63598194784E+02  0.56077794989E+02  0.84895211400E+02  0.00000000000E+00 0.  1.
<mgrwt>
<rscale>  0 0.13268215E+04</rscale>
<asrwt>0</asrwt>
<pdfrwt beam="1">  1        2 0.12261754E+00 0.13268215E+04</pdfrwt>
<pdfrwt beam="2">  1       -1 0.84954365E-01 0.13268215E+04</pdfrwt>
<totfact> 0.53025905E+01</totfact>
</mgrwt>
</event>
<event>
12    6  0.9491186E-008  0.1583925E+04  0.7818608E-02  0.8830485E-01
         -1   -1    0    0    0  501 -0.00000000000E+00  0.00000000000E+00  0.40851824033E+03  0.40851824033E+03  0.00000000000E+00 0.  1.
          2   -1    0    0  501    0  0.00000000000E+00 -0.00000000000E+00 -0.15353161709E+04  0.15353161709E+04  0.00000000000E+00 0. -1.
         24    2    1    2    0    0 -0.11854634894E+03 -0.41436949359E+03  0.44076293411E+01  0.43850823058E+03  0.80713858939E+02 0.  0.
        254    2    1    2    0    0  0.11854634894E+03  0.41436949359E+03 -0.11312055599E+04  0.15053261806E+04  0.89477683100E+03 0.  0.
         23    2    4    4    0    0  0.21031638345E+03  0.12365611808E+01 -0.10375961274E+04  0.10625301390E+04  0.90166859190E+02 0.  0.
         23    2    4    4    0    0 -0.91770034501E+02  0.41313293241E+03 -0.93609432507E+02  0.44279604162E+03  0.90581728556E+02 0.  0.
          4    1    3    3  502    0 -0.52743955227E+02 -0.77117533192E+02 -0.13657175783E+02  0.94422228257E+02  0.00000000000E+00 0. -1.
         -3    1    3    3    0  502 -0.65802393717E+02 -0.33725196040E+03  0.18064805124E+02  0.34408600232E+03  0.00000000000E+00 0.  1.
         11    1    5    5    0    0  0.21895970863E+03 -0.32571610158E+01 -0.99954804186E+03  0.10232547342E+04  0.00000000000E+00 0. -1.
        -11    1    5    5    0    0 -0.86433251832E+01  0.44937221966E+01 -0.38048085539E+02  0.39275404805E+02  0.00000000000E+00 0.  1.
          2    1    6    6  503    0 -0.59920995698E+02  0.37873393627E+03 -0.68163996591E+02  0.38945635267E+03  0.00000000000E+00 0. -1.
         -2    1    6    6    0  503 -0.31849038803E+02  0.34398996143E+02 -0.25445435916E+02  0.53339688950E+02  0.00000000000E+00 0.  1.
<mgrwt>
<rscale>  0 0.15839251E+04</rscale>
<asrwt>0</asrwt>
<pdfrwt beam="1">  1        2 0.23620249E+00 0.15839251E+04</pdfrwt>
<pdfrwt beam="2">  1       -1 0.62848960E-01 0.15839251E+04</pdfrwt>
<totfact> 0.34058264E+01</totfact>
</mgrwt>
</event>
<event>
12    6  0.9491186E-008  0.1863697E+04  0.7818608E-02  0.8673141E-01
          2   -1    0    0  501    0  0.00000000000E+00  0.00000000000E+00  0.12048530784E+04  0.12048530784E+04  0.00000000000E+00 0. -1.
         -1   -1    0    0    0  501 -0.00000000000E+00 -0.00000000000E+00 -0.72070335240E+03  0.72070335240E+03  0.00000000000E+00 0.  1.
         24    2    1    2    0    0 -0.63484612762E+03 -0.29565475116E+03  0.31491519715E+03  0.77246321215E+03  0.84181322695E+02 0.  0.
        254    2    1    2    0    0  0.63484612762E+03  0.29565475116E+03  0.16923452883E+03  0.11530932186E+04  0.90030123151E+03 0.  0.
         23    2    4    4    0    0  0.41529933706E+03  0.43487175357E+03  0.45235907369E+03  0.75824564255E+03  0.93384910292E+02 0.  0.
         23    2    4    4    0    0  0.21954679056E+03 -0.13921700241E+03 -0.28312454486E+03  0.39484757608E+03  0.90348953674E+02 0.  0.
          2    1    3    3  502    0 -0.46022469038E+03 -0.20634511861E+03  0.26648402445E+03  0.57043738385E+03  0.00000000000E+00 0. -1.
         -1    1    3    3    0  502 -0.17462143724E+03 -0.89309632554E+02  0.48431172702E+02  0.20202582830E+03  0.00000000000E+00 0.  1.
         11    1    5    5    0    0  0.35961830823E+02  0.81935570094E+01  0.19057790833E+02  0.41516105839E+02  0.00000000000E+00 0. -1.
        -11    1    5    5    0    0  0.37933750624E+03  0.42667819656E+03  0.43330128286E+03  0.71672953671E+03  0.00000000000E+00 0.  1.
          4    1    6    6  503    0  0.14618911510E+03 -0.57090238076E+02 -0.11791529229E+03  0.19630223843E+03  0.00000000000E+00 0. -1.
         -4    1    6    6    0  503  0.73357675464E+02 -0.82126764332E+02 -0.16520925257E+03  0.19854533765E+03  0.00000000000E+00 0.  1.
<mgrwt>
<rscale>  0 0.18636970E+04</rscale>
<asrwt>0</asrwt>
<pdfrwt beam="1">  1        2 0.18536201E+00 0.18636970E+04</pdfrwt>
<pdfrwt beam="2">  1       -1 0.11087744E+00 0.18636970E+04</pdfrwt>
<totfact> 0.15092772E+01</totfact>
</mgrwt>
</event>
<event>
12    6  0.9491186E-008  0.4396075E+04  0.7818608E-02  0.7929088E-01
          2   -1    0    0  501    0  0.00000000000E+00  0.00000000000E+00  0.25629625173E+04  0.25629625173E+04  0.00000000000E+00 0. -1.
         -1   -1    0    0    0  501 -0.00000000000E+00 -0.00000000000E+00 -0.18850717241E+04  0.18850717241E+04  0.00000000000E+00 0.  1.
         24    2    1    2    0    0 -0.12952572234E+04  0.48212086428E+03  0.19293073156E+04  0.23746412601E+04  0.81009836906E+02 0.  0.
        254    2    1    2    0    0  0.12952572234E+04 -0.48212086428E+03 -0.12514165224E+04  0.20733929812E+04  0.90707405402E+03 0.  0.
         23    2    4    4    0    0  0.34054856875E+02 -0.31669861578E+03 -0.47874726984E+03  0.58215119175E+03  0.90792704317E+02 0.  0.
         23    2    4    4    0    0  0.12612023666E+04 -0.16542224849E+03 -0.77266925252E+03  0.14912417895E+04  0.93746312714E+02 0.  0.
          4    1    3    3  502    0 -0.43570393919E+03  0.18206915956E+03  0.60209907862E+03  0.76518651449E+03  0.00000000000E+00 0. -1.
         -3    1    3    3    0  502 -0.85955328425E+03  0.30005170472E+03  0.13272082370E+04  0.16094547456E+04  0.00000000000E+00 0.  1.
         11    1    5    5    0    0 -0.19557992833E+01 -0.55906912910E+02 -0.15552491252E+03  0.16527978242E+03  0.00000000000E+00 0.  1.
        -11    1    5    5    0    0  0.36010656158E+02 -0.26079170287E+03 -0.32322235733E+03  0.41687140933E+03  0.00000000000E+00 0. -1.
          1    1    6    6  503    0  0.50880675594E+03 -0.40853803466E+02 -0.35464660996E+03  0.62155254492E+03  0.00000000000E+00 0. -1.
         -1    1    6    6    0  503  0.75239561062E+03 -0.12456844503E+03 -0.41802264257E+03  0.86968924455E+03  0.00000000000E+00 0.  1.
<mgrwt>
<rscale>  0 0.43960747E+04</rscale>
<asrwt>0</asrwt>
<pdfrwt beam="1">  1        2 0.39430193E+00 0.43960747E+04</pdfrwt>
<pdfrwt beam="2">  1       -1 0.29001103E+00 0.43960747E+04</pdfrwt>
<totfact> 0.10652908E-01</totfact>
</mgrwt>
</event>
<event>
12    6  0.9491186E-008  0.1194413E+04  0.7818608E-02  0.9117761E-01
         -1   -1    0    0    0  501 -0.00000000000E+00  0.00000000000E+00  0.60874024821E+03  0.60874024821E+03  0.00000000000E+00 0.  1.
          2   -1    0    0  501    0  0.00000000000E+00 -0.00000000000E+00 -0.58589097545E+03  0.58589097545E+03  0.00000000000E+00 0. -1.
         24    2    1    2    0    0 -0.19550890740E+03  0.15191044889E+02 -0.15136785207E+03  0.26018055163E+03  0.79543648947E+02 0.  0.
        254    2    1    2    0    0  0.19550890740E+03 -0.15191044889E+02  0.17421712483E+03  0.93445067203E+03  0.89687900586E+03 0.  0.
         23    2    4    4    0    0  0.43440465069E+03 -0.29031508217E+03  0.25847509566E+02  0.53065102363E+03  0.89062717566E+02 0.  0.
         23    2    4    4    0    0 -0.23889574329E+03  0.27512403728E+03  0.14836961527E+03  0.40379964840E+03  0.90973629495E+02 0.  0.
          4    1    3    3  502    0 -0.96049949274E+02 -0.80011162211E+01 -0.11881196931E+03  0.15298985152E+03  0.00000000000E+00 0. -1.
         -3    1    3    3    0  502 -0.99458958122E+02  0.23192161110E+02 -0.32555882766E+02  0.10719070011E+03  0.00000000000E+00 0.  1.
         11    1    5    5    0    0  0.14207960437E+03 -0.73253093400E+02  0.44941504196E+02  0.16604929530E+03  0.00000000000E+00 0. -1.
        -11    1    5    5    0    0  0.29232504631E+03 -0.21706198877E+03 -0.19093994630E+02  0.36460172833E+03  0.00000000000E+00 0.  1.
          4    1    6    6  503    0 -0.97570651858E+02  0.74759159925E+02  0.12690936400E+02  0.12357193841E+03  0.00000000000E+00 0. -1.
         -4    1    6    6    0  503 -0.14132509143E+03  0.20036487735E+03  0.13567867887E+03  0.28022770999E+03  0.00000000000E+00 0.  1.
<mgrwt>
<rscale>  0 0.11944127E+04</rscale>
<asrwt>0</asrwt>
<pdfrwt beam="1">  1        2 0.90137073E-01 0.11944127E+04</pdfrwt>
<pdfrwt beam="2">  1       -1 0.93652346E-01 0.11944127E+04</pdfrwt>
<totfact> 0.63706597E+01</totfact>
</mgrwt>
</event>
<event>
12    6  0.9491186E-008  0.1771436E+04  0.7818608E-02  0.8721639E-01
         -3   -1    0    0    0  501 -0.00000000000E+00  0.00000000000E+00  0.23266553099E+04  0.23266553099E+04  0.00000000000E+00 0.  1.
          4   -1    0    0  501    0  0.00000000000E+00 -0.00000000000E+00 -0.33717764209E+03  0.33717764209E+03  0.00000000000E+00 0. -1.
         24    2    1    2    0    0  0.38628513321E+03  0.28118281154E+03  0.14347032473E+04  0.15142782716E+04  0.79908061967E+02 0.  0.
        254    2    1    2    0    0 -0.38628513321E+03 -0.28118281154E+03  0.55477442053E+03  0.11495546804E+04  0.88623999455E+03 0.  0.
         23    2    4    4    0    0  0.18999288817E+03  0.90051238582E+02  0.36553328622E+03  0.43271469014E+03  0.97061303316E+02 0.  0.
         23    2    4    4    0    0 -0.57627802138E+03 -0.37123405012E+03  0.18924113431E+03  0.71683999028E+03  0.90201368299E+02 0.  0.
          4    1    3    3  502    0  0.12906689545E+03  0.49546382110E+02  0.41673385014E+03  0.43906743142E+03  0.00000000000E+00 0. -1.
         -3    1    3    3    0  502  0.25721823776E+03  0.23163642943E+03  0.10179693972E+04  0.10752108402E+04  0.00000000000E+00 0.  1.
         11    1    5    5    0    0  0.71128170311E+02  0.17219097257E+02  0.21701002611E+03  0.22901760927E+03  0.00000000000E+00 0. -1.
        -11    1    5    5    0    0  0.11886471786E+03  0.72832141325E+02  0.14852326011E+03  0.20369708087E+03  0.00000000000E+00 0.  1.
          4    1    6    6  503    0 -0.68054325707E+02 -0.12567882510E+02  0.14273879324E+02  0.70661775730E+02  0.00000000000E+00 0. -1.
         -4    1    6    6    0  503 -0.50822369568E+03 -0.35866616761E+03  0.17496725498E+03  0.64617821455E+03  0.00000000000E+00 0.  1.
<mgrwt>
<rscale>  0 0.17714357E+04</rscale>
<asrwt>0</asrwt>
<pdfrwt beam="1">  1        4 0.51873485E-01 0.17714357E+04</pdfrwt>
<pdfrwt beam="2">  1       -3 0.35794696E+00 0.17714357E+04</pdfrwt>
<totfact> 0.14074816E-01</totfact>
</mgrwt>
</event>
<event>
12    6  0.9491186E-008  0.1646737E+04  0.7818608E-02  0.8792339E-01
         -1   -1    0    0    0  501 -0.00000000000E+00  0.00000000000E+00  0.48861045140E+03  0.48861045140E+03  0.00000000000E+00 0.  1.
          2   -1    0    0  501    0  0.00000000000E+00 -0.00000000000E+00 -0.13874770597E+04  0.13874770597E+04  0.00000000000E+00 0. -1.
         24    2    1    2    0    0  0.29623442471E+02  0.86336895013E+01 -0.96884647916E+03  0.97248706886E+03  0.78201726230E+02 0.  0.
        254    2    1    2    0    0 -0.29623442471E+02 -0.86336895013E+01  0.69979870853E+02  0.90360044225E+03  0.90035797768E+03 0.  0.
         23    2    4    4    0    0  0.22148950838E+03 -0.11174048613E+03  0.39218488131E+03  0.47283574613E+03  0.90670409326E+02 0.  0.
         23    2    4    4    0    0 -0.25111295085E+03  0.10310679663E+03 -0.32220501045E+03  0.43076469612E+03  0.89740899632E+02 0.  0.
          4    1    3    3  502    0  0.26409960577E+02  0.20337396656E+02 -0.94625426296E+03  0.94684118304E+03  0.00000000000E+00 0. -1.
         -3    1    3    3    0  502  0.32134818941E+01 -0.11703707155E+02 -0.22592216198E+02  0.25645885826E+02  0.00000000000E+00 0.  1.
         11    1    5    5    0    0  0.19518011333E+03 -0.11492870282E+03  0.38266557521E+03  0.44467609091E+03  0.00000000000E+00 0. -1.
        -11    1    5    5    0    0  0.26309395052E+02  0.31882166892E+01  0.95193060932E+01  0.28159655221E+02  0.00000000000E+00 0.  1.
          1    1    6    6  503    0 -0.16424540043E+03  0.45992583862E+02 -0.25564626102E+03  0.30732211132E+03  0.00000000000E+00 0. -1.
         -1    1    6    6    0  503 -0.86867550418E+02  0.57114212766E+02 -0.66558749430E+02  0.12344258480E+03  0.00000000000E+00 0.  1.
<mgrwt>
<rscale>  0 0.16467371E+04</rscale>
<asrwt>0</asrwt>
<pdfrwt beam="1">  1        2 0.21345801E+00 0.16467371E+04</pdfrwt>
<pdfrwt beam="2">  1       -1 0.75170840E-01 0.16467371E+04</pdfrwt>
<totfact> 0.28510107E+01</totfact>
</mgrwt>
</event>
<event>
12    6  0.9491186E-008  0.1813027E+04  0.7818608E-02  0.8699402E-01
         -1   -1    0    0    0  501 -0.00000000000E+00  0.00000000000E+00  0.36589285858E+03  0.36589285858E+03  0.00000000000E+00 0.  1.
          2   -1    0    0  501    0  0.00000000000E+00 -0.00000000000E+00 -0.22459221180E+04  0.22459221180E+04  0.00000000000E+00 0. -1.
         24    2    1    2    0    0 -0.63560423658E+03  0.21458814590E+03 -0.51963984059E+03  0.85235860983E+03  0.80304532200E+02 0.  0.
        254    2    1    2    0    0  0.63560423658E+03 -0.21458814590E+03 -0.13603894188E+04  0.17594563667E+04  0.89162016446E+03 0.  0.
         23    2    4    4    0    0  0.25099334335E+03  0.34132917061E+03 -0.51393993944E+03  0.67242711062E+03  0.92307619633E+02 0.  0.
         23    2    4    4    0    0  0.38461089324E+03 -0.55591731651E+03 -0.84644947937E+03  0.10870292561E+04  0.90478066349E+02 0.  0.
          4    1    3    3  502    0 -0.31723094664E+03  0.10350744141E+03 -0.20801045769E+03  0.39321446367E+03  0.00000000000E+00 0. -1.
         -3    1    3    3    0  502 -0.31837328994E+03  0.11108070449E+03 -0.31162938290E+03  0.45914414615E+03  0.00000000000E+00 0.  1.
         11    1    5    5    0    0  0.25384736015E+03  0.31146436730E+03 -0.46059949297E+03  0.61122862112E+03  0.00000000000E+00 0. -1.
        -11    1    5    5    0    0 -0.28540168002E+01  0.29864803311E+02 -0.53340446463E+02  0.61198489504E+02  0.00000000000E+00 0.  1.
          1    1    6    6  503    0  0.28227122055E+03 -0.39978710653E+03 -0.54525285927E+03  0.73267144959E+03  0.00000000000E+00 0. -1.
         -1    1    6    6    0  503  0.10233967269E+03 -0.15613020998E+03 -0.30119662009E+03  0.35435780650E+03  0.00000000000E+00 0.  1.
<mgrwt>
<rscale>  0 0.18130272E+04</rscale>
<asrwt>0</asrwt>
<pdfrwt beam="1">  1        2 0.34552647E+00 0.18130272E+04</pdfrwt>
<pdfrwt beam="2">  1       -1 0.56291211E-01 0.18130272E+04</pdfrwt>
<totfact> 0.16689343E+01</totfact>
</mgrwt>
</event>
<event>
12    6  0.9491186E-008  0.1949541E+04  0.7818608E-02  0.8630582E-01
          2   -1    0    0  501    0  0.00000000000E+00  0.00000000000E+00  0.22873558242E+04  0.22873558242E+04  0.00000000000E+00 0. -1.
         -1   -1    0    0    0  501 -0.00000000000E+00 -0.00000000000E+00 -0.41540412549E+03  0.41540412549E+03  0.00000000000E+00 0.  1.
         24    2    1    2    0    0 -0.29616498478E+03 -0.36336329238E+03  0.15845838493E+04  0.16544150074E+04  0.80227554682E+02 0.  0.
        254    2    1    2    0    0  0.29616498478E+03  0.36336329238E+03  0.28736784939E+03  0.10483449424E+04  0.89258067245E+03 0.  0.
         23    2    4    4    0    0  0.10096524430E+03 -0.26299255484E+03 -0.57551950351E+02  0.30151230196E+03  0.90765504366E+02 0.  0.
         23    2    4    4    0    0  0.19519974048E+03  0.62635584722E+03  0.34491979974E+03  0.74683264039E+03  0.91458944177E+02 0.  0.
          4    1    3    3  502    0 -0.26097486515E+03 -0.27160955513E+03  0.12204691073E+04  0.12772722781E+04  0.00000000000E+00 0. -1.
         -3    1    3    3    0  502 -0.35190119630E+02 -0.91753737245E+02  0.36411474206E+03  0.37714272922E+03  0.00000000000E+00 0.  1.
         11    1    5    5    0    0  0.32118304376E+01 -0.17293630190E+02  0.19326743795E+02  0.26132518547E+02  0.00000000000E+00 0.  1.
        -11    1    5    5    0    0  0.97753413866E+02 -0.24569892465E+03 -0.76878694146E+02  0.27537978341E+03  0.00000000000E+00 0. -1.
          1    1    6    6  503    0  0.23129783590E+02  0.16952117203E+03  0.12225794833E+03  0.21028414249E+03  0.00000000000E+00 0. -1.
         -1    1    6    6    0  503  0.17206995689E+03  0.45683467520E+03  0.22266185141E+03  0.53654849790E+03  0.00000000000E+00 0.  1.
<mgrwt>
<rscale>  0 0.19495405E+04</rscale>
<asrwt>0</asrwt>
<pdfrwt beam="1">  1        2 0.35190089E+00 0.19495405E+04</pdfrwt>
<pdfrwt beam="2">  1       -1 0.63908328E-01 0.19495405E+04</pdfrwt>
<totfact> 0.12157169E+01</totfact>
</mgrwt>
</event>
<event>
12    6  0.9491186E-008  0.1268839E+04  0.7818608E-02  0.9054648E-01
         -1   -1    0    0    0  501 -0.00000000000E+00  0.00000000000E+00  0.26425885962E+03  0.26425885962E+03  0.00000000000E+00 0.  1.
          2   -1    0    0  501    0  0.00000000000E+00 -0.00000000000E+00 -0.15230819900E+04  0.15230819900E+04  0.00000000000E+00 0. -1.
         24    2    1    2    0    0 -0.20077909714E+03  0.47994498342E+02  0.23326754098E+02  0.22276330832E+03  0.80396743460E+02 0.  0.
        254    2    1    2    0    0  0.20077909714E+03 -0.47994498342E+02 -0.12821498845E+04  0.15645775413E+04  0.87257024863E+03 0.  0.
         23    2    4    4    0    0 -0.46436507613E+02  0.15030097188E+03 -0.12139893092E+04  0.12275822757E+04  0.91877470096E+02 0.  0.
         23    2    4    4    0    0  0.24721560475E+03 -0.19829547022E+03 -0.68160575308E+02  0.33699526558E+03  0.92104811247E+02 0.  0.
          2    1    3    3  502    0 -0.18524216447E+02  0.26613208336E+02 -0.14303293299E+02  0.35440000735E+02  0.00000000000E+00 0. -1.
         -1    1    3    3    0  502 -0.18225488069E+03  0.21381290007E+02  0.37630047397E+02  0.18732330759E+03  0.00000000000E+00 0.  1.
         11    1    5    5    0    0  0.23112901443E+02  0.76461076934E+02 -0.59469831361E+03  0.60003882100E+03  0.00000000000E+00 0.  1.
        -11    1    5    5    0    0 -0.69549409056E+02  0.73839894945E+02 -0.61929099558E+03  0.62754345475E+03  0.00000000000E+00 0. -1.
          4    1    6    6  503    0 -0.76853076877E+01 -0.13337210693E+01 -0.37322400268E+00  0.78091012480E+01  0.00000000000E+00 0. -1.
         -4    1    6    6    0  503  0.25490091244E+03 -0.19696174915E+03 -0.67787351305E+02  0.32918616433E+03  0.00000000000E+00 0.  1.
<mgrwt>
<rscale>  0 0.12688387E+04</rscale>
<asrwt>0</asrwt>
<pdfrwt beam="1">  1        2 0.23432031E+00 0.12688387E+04</pdfrwt>
<pdfrwt beam="2">  1       -1 0.40655209E-01 0.12688387E+04</pdfrwt>
<totfact> 0.81479908E+01</totfact>
</mgrwt>
</event>
<event>
12    6  0.9491186E-008  0.2641011E+04  0.7818608E-02  0.8354403E-01
         -1   -1    0    0    0  501 -0.00000000000E+00  0.00000000000E+00  0.97766226440E+03  0.97766226440E+03  0.00000000000E+00 0.  1.
          2   -1    0    0  501    0  0.00000000000E+00 -0.00000000000E+00 -0.17835757477E+04  0.17835757477E+04  0.00000000000E+00 0. -1.
         24    2    1    2    0    0  0.66259564869E+03  0.49145319018E+01 -0.13581916930E+04  0.15133491028E+04  0.80521337972E+02 0.  0.
        254    2    1    2    0    0 -0.66259564869E+03 -0.49145319018E+01  0.55227820970E+03  0.12478889092E+04  0.90175293879E+03 0.  0.
         23    2    4    4    0    0 -0.31769393557E+03  0.43838921845E+03  0.29776576757E+03  0.62440844502E+03  0.90038382525E+02 0.  0.
         23    2    4    4    0    0 -0.34490171312E+03 -0.44330375035E+03  0.25451244213E+03  0.62348046423E+03  0.92064647335E+02 0.  0.
          4    1    3    3  502    0  0.56694599857E+03  0.53250938597E+01 -0.10905310802E+04  0.12291111255E+04  0.00000000000E+00 0. -1.
         -3    1    3    3    0  502  0.95649650125E+02 -0.41056195792E+00 -0.26766061278E+03  0.28423797734E+03  0.00000000000E+00 0.  1.
         11    1    5    5    0    0 -0.18709894113E+03  0.18178529590E+03  0.14549934975E+03  0.29870046595E+03  0.00000000000E+00 0.  1.
        -11    1    5    5    0    0 -0.13059499444E+03  0.25660392254E+03  0.15226641782E+03  0.32570797907E+03  0.00000000000E+00 0. -1.
          1    1    6    6  503    0 -0.31791796193E+03 -0.35957741514E+03  0.19983771508E+03  0.51990658811E+03  0.00000000000E+00 0. -1.
         -1    1    6    6    0  503 -0.26983751196E+02 -0.83726335208E+02  0.54674727045E+02  0.10357387611E+03  0.00000000000E+00 0.  1.
<mgrwt>
<rscale>  0 0.26410109E+04</rscale>
<asrwt>0</asrwt>
<pdfrwt beam="1">  1        2 0.27439627E+00 0.26410109E+04</pdfrwt>
<pdfrwt beam="2">  1       -1 0.15040958E+00 0.26410109E+04</pdfrwt>
<totfact> 0.30624036E+00</totfact>
</mgrwt>
</event>
<event>
12    6  0.9491186E-008  0.2473490E+04  0.7818608E-02  0.8412491E-01
          2   -1    0    0  501    0  0.00000000000E+00  0.00000000000E+00  0.19526671001E+04  0.19526671001E+04  0.00000000000E+00 0. -1.
         -1   -1    0    0    0  501 -0.00000000000E+00 -0.00000000000E+00 -0.78330707320E+03  0.78330707320E+03  0.00000000000E+00 0.  1.
         24    2    1    2    0    0  0.10536180296E+04  0.22134217983E+02  0.72209383759E+03  0.12795455144E+04  0.72224215343E+02 0.  0.
        254    2    1    2    0    0 -0.10536180296E+04 -0.22134217983E+02  0.44726618933E+03  0.14564286589E+04  0.90029801649E+03 0.  0.
         23    2    4    4    0    0 -0.53265932539E+03  0.37366309954E+02  0.68531883243E+03  0.87345184084E+03  0.90188791685E+02 0.  0.
         23    2    4    4    0    0 -0.52095870420E+03 -0.59500527937E+02 -0.23805264310E+03  0.58297681806E+03  0.90854967957E+02 0.  0.
          4    1    3    3  502    0  0.14808458418E+03 -0.20611039310E+02  0.92300409944E+02  0.17570778210E+03  0.00000000000E+00 0. -1.
         -3    1    3    3    0  502  0.90553344541E+03  0.42745257294E+02  0.62979342765E+03  0.11038377323E+04  0.00000000000E+00 0.  1.
         11    1    5    5    0    0 -0.35725323615E+03 -0.72082334218E+01  0.40858682202E+03  0.54279372187E+03  0.00000000000E+00 0.  1.
        -11    1    5    5    0    0 -0.17540608923E+03  0.44574543375E+02  0.27673201041E+03  0.33065811898E+03  0.00000000000E+00 0. -1.
          2    1    6    6  503    0 -0.29623576686E+03 -0.63703986859E+02 -0.99431559030E+02  0.31890509942E+03  0.00000000000E+00 0. -1.
         -2    1    6    6    0  503 -0.22472293734E+03  0.42034589219E+01 -0.13862108407E+03  0.26407171864E+03  0.00000000000E+00 0.  1.
<mgrwt>
<rscale>  0 0.24734898E+04</rscale>
<asrwt>0</asrwt>
<pdfrwt beam="1">  1        2 0.30041032E+00 0.24734898E+04</pdfrwt>
<pdfrwt beam="2">  1       -1 0.12050878E+00 0.24734898E+04</pdfrwt>
<totfact> 0.44237793E+00</totfact>
</mgrwt>
</event>
<event>
12    6  0.9491186E-008  0.1509524E+04  0.7818608E-02  0.8878144E-01
          2   -1    0    0  501    0  0.00000000000E+00  0.00000000000E+00  0.19978237280E+04  0.19978237280E+04  0.00000000000E+00 0. -1.
         -1   -1    0    0    0  501 -0.00000000000E+00 -0.00000000000E+00 -0.28514306117E+03  0.28514306117E+03  0.00000000000E+00 0.  1.
         24    2    1    2    0    0  0.24817758144E+03  0.38289662438E+03  0.28355507564E+03  0.54259679124E+03  0.76196194507E+02 0.  0.
        254    2    1    2    0    0 -0.24817758144E+03 -0.38289662438E+03  0.14291255912E+04  0.17403699979E+04  0.88220509940E+03 0.  0.
         23    2    4    4    0    0 -0.27866820553E+02  0.26841743899E+03  0.56466975329E+03  0.63213275752E+03  0.88968598996E+02 0.  0.
         23    2    4    4    0    0 -0.22031076088E+03 -0.65131406337E+03  0.86445583788E+03  0.11082372404E+04  0.90327431243E+02 0.  0.
          2    1    3    3  502    0 -0.37477294546E+00 -0.49931920836E-01 -0.33641627641E+01  0.33853417938E+01  0.00000000000E+00 0. -1.
         -1    1    3    3    0  502  0.24855235438E+03  0.38294655630E+03  0.28691923840E+03  0.53921144945E+03  0.00000000000E+00 0.  1.
         11    1    5    5    0    0 -0.37852197111E+02  0.14357585594E+03  0.22003431587E+03  0.26544663380E+03  0.00000000000E+00 0.  1.
        -11    1    5    5    0    0  0.99853765571E+01  0.12484158305E+03  0.34463543742E+03  0.36668612372E+03  0.00000000000E+00 0. -1.
          3    1    6    6  503    0 -0.17793342254E+03 -0.48200225839E+03  0.58336521852E+03  0.77736828989E+03  0.00000000000E+00 0. -1.
         -3    1    6    6    0  503 -0.42377338344E+02 -0.16931180498E+03  0.28109061937E+03  0.33086895050E+03  0.00000000000E+00 0.  1.
<mgrwt>
<rscale>  0 0.15095239E+04</rscale>
<asrwt>0</asrwt>
<pdfrwt beam="1">  1        2 0.30735749E+00 0.15095239E+04</pdfrwt>
<pdfrwt beam="2">  1       -1 0.43868164E-01 0.15095239E+04</pdfrwt>
<totfact> 0.37856785E+01</totfact>
</mgrwt>
</event>
<event>
12    6  0.9491186E-008  0.1264718E+04  0.7818608E-02  0.9058022E-01
         -1   -1    0    0    0  501 -0.00000000000E+00  0.00000000000E+00  0.28467490098E+04  0.28467490098E+04  0.00000000000E+00 0.  1.
          2   -1    0    0  501    0  0.00000000000E+00 -0.00000000000E+00 -0.14046825114E+03  0.14046825114E+03  0.00000000000E+00 0. -1.
         24    2    1    2    0    0 -0.26437122466E+03  0.67437474350E+00  0.10161963220E+04  0.10533206218E+04  0.83287263826E+02 0.  0.
        254    2    1    2    0    0  0.26437122466E+03 -0.67437474350E+00  0.16900844367E+04  0.19338966391E+04  0.90204113461E+03 0.  0.
         23    2    4    4    0    0  0.32033891159E+03 -0.40212588243E+03  0.10008844255E+04  0.11289026525E+04  0.91265118503E+02 0.  0.
         23    2    4    4    0    0 -0.55967686923E+02  0.40145150769E+03  0.68920001112E+03  0.80499398665E+03  0.93396831926E+02 0.  0.
          4    1    3    3  502    0 -0.13056709185E+03 -0.79174268632E+01  0.65746744443E+03  0.67035355716E+03  0.00000000000E+00 0. -1.
         -3    1    3    3    0  502 -0.13380413281E+03  0.85918016067E+01  0.35872887753E+03  0.38296706463E+03  0.00000000000E+00 0.  1.
         11    1    5    5    0    0  0.29716440019E+03 -0.35604872891E+03  0.83450743976E+03  0.95471464068E+03  0.00000000000E+00 0.  1.
        -11    1    5    5    0    0  0.23174511393E+02 -0.46077153518E+02  0.16637698576E+03  0.17418801178E+03  0.00000000000E+00 0. -1.
          3    1    6    6  503    0 -0.30134049491E+02  0.10150979026E+03  0.11282020098E+03  0.15472781329E+03  0.00000000000E+00 0. -1.
         -3    1    6    6    0  503 -0.25833637432E+02  0.29994171743E+03  0.57637981015E+03  0.65026617336E+03  0.00000000000E+00 0.  1.
<mgrwt>
<rscale>  0 0.12647179E+04</rscale>
<asrwt>0</asrwt>
<pdfrwt beam="1">  1        2 0.21610502E-01 0.12647179E+04</pdfrwt>
<pdfrwt beam="2">  1       -1 0.43796134E+00 0.12647179E+04</pdfrwt>
<totfact> 0.11643289E+00</totfact>
</mgrwt>
</event>
<event>
12    6  0.9491186E-008  0.1575792E+04  0.7818608E-02  0.8835560E-01
          2   -1    0    0  501    0  0.00000000000E+00  0.00000000000E+00  0.20242124023E+04  0.20242124023E+04  0.00000000000E+00 0. -1.
         -1   -1    0    0    0  501 -0.00000000000E+00 -0.00000000000E+00 -0.30667732510E+03  0.30667732510E+03  0.00000000000E+00 0.  1.
         24    2    1    2    0    0 -0.15344632244E+03 -0.11866045854E+02 -0.16533845469E+03  0.23960130190E+03  0.79908712662E+02 0.  0.
        254    2    1    2    0    0  0.15344632244E+03  0.11866045854E+02  0.18828735319E+04  0.20912884255E+04  0.89698827454E+03 0.  0.
         23    2    4    4    0    0  0.19249246613E+02  0.89910953567E+02  0.19051177476E+04  0.19095414607E+04  0.91762981870E+02 0.  0.
         23    2    4    4    0    0  0.13419707582E+03 -0.78044907713E+02 -0.22244215727E+02  0.18174696479E+03  0.91854729314E+02 0.  0.
          4    1    3    3  502    0 -0.35042378633E+02 -0.30637519259E+02 -0.18619851038E+02  0.50133070315E+02  0.00000000000E+00 0. -1.
         -1    1    3    3    0  502 -0.11840394380E+03  0.18771473405E+02 -0.14671860365E+03  0.18946823158E+03  0.00000000000E+00 0.  1.
         11    1    5    5    0    0 -0.33748304379E+02  0.12347811662E+02  0.54475046447E+03  0.54593450618E+03  0.00000000000E+00 0. -1.
        -11    1    5    5    0    0  0.52997550992E+02  0.77563141905E+02  0.13603672832E+04  0.13636069546E+04  0.00000000000E+00 0.  1.
          2    1    6    6  503    0  0.57671041069E+02 -0.46479066642E+02  0.34170037213E+02  0.81571098172E+02  0.00000000000E+00 0. -1.
         -2    1    6    6    0  503  0.76526034754E+02 -0.31565841071E+02 -0.56414252940E+02  0.10017586662E+03  0.00000000000E+00 0.  1.
<mgrwt>
<rscale>  0 0.15757919E+04</rscale>
<asrwt>0</asrwt>
<pdfrwt beam="1">  1        2 0.31141728E+00 0.15757919E+04</pdfrwt>
<pdfrwt beam="2">  1       -1 0.47181128E-01 0.15757919E+04</pdfrwt>
<totfact> 0.31768086E+01</totfact>
</mgrwt>
</event>
<event>
12    6  0.9491186E-008  0.1537930E+04  0.7818608E-02  0.8859615E-01
          2   -1    0    0  501    0  0.00000000000E+00  0.00000000000E+00  0.97361902131E+03  0.97361902131E+03  0.00000000000E+00 0. -1.
         -1   -1    0    0    0  501 -0.00000000000E+00 -0.00000000000E+00 -0.60732892894E+03  0.60732892894E+03  0.00000000000E+00 0.  1.
         24    2    1    2    0    0  0.21333430302E+03 -0.43515699536E+03 -0.45014658725E+02  0.49349277854E+03  0.81459606647E+02 0.  0.
        254    2    1    2    0    0 -0.21333430302E+03  0.43515699536E+03  0.41130475109E+03  0.10874551717E+04  0.88233441322E+03 0.  0.
         23    2    4    4    0    0 -0.13833311362E+03  0.69791736253E+03  0.30681293438E+03  0.78036035780E+03  0.92754601399E+02 0.  0.
         23    2    4    4    0    0 -0.75001189399E+02 -0.26276036717E+03  0.10449181671E+03  0.30709481391E+03  0.93383595999E+02 0.  0.
          4    1    3    3  502    0  0.93887505221E+02 -0.22961172410E+03  0.14286581364E+02  0.24847638497E+03  0.00000000000E+00 0. -1.
         -3    1    3    3    0  502  0.11944679780E+03 -0.20554527126E+03 -0.59301240089E+02  0.24501639357E+03  0.00000000000E+00 0.  1.
         11    1    5    5    0    0 -0.86584616525E+02  0.60399835772E+03  0.26580250778E+03  0.66555381833E+03  0.00000000000E+00 0. -1.
        -11    1    5    5    0    0 -0.51748497096E+02  0.93919004807E+02  0.41010426598E+02  0.11480653947E+03  0.00000000000E+00 0.  1.
          4    1    6    6  503    0 -0.90119464766E+02 -0.21651809999E+03  0.10824490627E+03  0.25829937144E+03  0.00000000000E+00 0. -1.
         -4    1    6    6    0  503  0.15118275368E+02 -0.46242267185E+02 -0.37530895599E+01  0.48795442469E+02  0.00000000000E+00 0.  1.
<mgrwt>
<rscale>  0 0.15379298E+04</rscale>
<asrwt>0</asrwt>
<pdfrwt beam="1">  1        2 0.14978754E+00 0.15379298E+04</pdfrwt>
<pdfrwt beam="2">  1       -1 0.93435219E-01 0.15379298E+04</pdfrwt>
<totfact> 0.32017748E+01</totfact>
</mgrwt>
</event>
<event>
12    6  0.9491186E-008  0.1626247E+04  0.7818608E-02  0.8804584E-01
         -1   -1    0    0    0  501 -0.00000000000E+00  0.00000000000E+00  0.65685388332E+03  0.65685388332E+03  0.00000000000E+00 0.  1.
          2   -1    0    0  501    0  0.00000000000E+00 -0.00000000000E+00 -0.10065703470E+04  0.10065703470E+04  0.00000000000E+00 0. -1.
         24    2    1    2    0    0 -0.19717307342E+03 -0.42386252737E+03 -0.43776289873E+03  0.64544814268E+03  0.80189066545E+02 0.  0.
        254    2    1    2    0    0  0.19717307342E+03  0.42386252737E+03  0.88046435092E+02  0.10179760876E+04  0.89999248731E+03 0.  0.
         23    2    4    4    0    0 -0.25258830883E+03  0.39813441050E+03  0.23603204564E+03  0.53501029723E+03  0.90625763370E+02 0.  0.
         23    2    4    4    0    0  0.44976138225E+03  0.25728116868E+02 -0.14798561055E+03  0.48296579038E+03  0.91700473186E+02 0.  0.
          4    1    3    3  502    0 -0.15649873487E+03 -0.32503029442E+03 -0.28876842949E+03  0.46208630382E+03  0.00000000000E+00 0. -1.
         -3    1    3    3    0  502 -0.40674338556E+02 -0.98832232951E+02 -0.14899446924E+03  0.18336183887E+03  0.00000000000E+00 0.  1.
         11    1    5    5    0    0 -0.24924778042E+03  0.38179353432E+03  0.20528900069E+03  0.50003433151E+03  0.00000000000E+00 0.  1.
        -11    1    5    5    0    0 -0.33405284109E+01  0.16340876186E+02  0.30743044953E+02  0.34975965713E+02  0.00000000000E+00 0. -1.
          2    1    6    6  503    0  0.15681448015E+03  0.32781315033E+02 -0.91651493738E+02  0.18456812320E+03  0.00000000000E+00 0. -1.
         -2    1    6    6    0  503  0.29294690211E+03 -0.70531981645E+01 -0.56334116814E+02  0.29839766717E+03  0.00000000000E+00 0.  1.
<mgrwt>
<rscale>  0 0.16262468E+04</rscale>
<asrwt>0</asrwt>
<pdfrwt beam="1">  1        2 0.15485698E+00 0.16262468E+04</pdfrwt>
<pdfrwt beam="2">  1       -1 0.10105444E+00 0.16262468E+04</pdfrwt>
<totfact> 0.25346046E+01</totfact>
</mgrwt>
</event>
<event>
12    6  0.9491186E-008  0.1750760E+04  0.7818608E-02  0.8732932E-01
         -1   -1    0    0    0  501 -0.00000000000E+00  0.00000000000E+00  0.26337393193E+03  0.26337393193E+03  0.00000000000E+00 0.  1.
          2   -1    0    0  501    0  0.00000000000E+00 -0.00000000000E+00 -0.29095125742E+04  0.29095125742E+04  0.00000000000E+00 0. -1.
         24    2    1    2    0    0 -0.20461091393E+03 -0.56814539115E+03 -0.13460120699E+04  0.14774824886E+04  0.80939485062E+02 0.  0.
        254    2    1    2    0    0  0.20461091393E+03  0.56814539115E+03 -0.13001265723E+04  0.16954040175E+04  0.90521316098E+03 0.  0.
         23    2    4    4    0    0  0.69556945652E+02  0.31024141410E+03  0.27906750669E+02  0.33252504135E+03  0.93307088062E+02 0.  0.
         23    2    4    4    0    0  0.13505396828E+03  0.25790397706E+03 -0.13280333230E+04  0.13628789761E+04  0.94934508189E+02 0.  0.
          2    1    3    3  502    0 -0.29061028218E+02 -0.35568032080E+02 -0.70452697547E+02  0.84102383193E+02  0.00000000000E+00 0. -1.
         -1    1    3    3    0  502 -0.17554988571E+03 -0.53257735907E+03 -0.12755593724E+04  0.13933801054E+04  0.00000000000E+00 0.  1.
         11    1    5    5    0    0  0.12756752600E+00  0.13311329103E+02  0.24134715766E+02  0.27562515506E+02  0.00000000000E+00 0.  1.
        -11    1    5    5    0    0  0.69429378126E+02  0.29693008499E+03  0.37720349035E+01  0.30496252584E+03  0.00000000000E+00 0. -1.
          3    1    6    6  503    0  0.99845203218E+02  0.16646963208E+03 -0.66869196008E+03  0.69629745116E+03  0.00000000000E+00 0. -1.
         -3    1    6    6    0  503  0.35208765061E+02  0.91434344982E+02 -0.65934136292E+03  0.66658152497E+03  0.00000000000E+00 0.  1.
<mgrwt>
<rscale>  0 0.17507596E+04</rscale>
<asrwt>0</asrwt>
<pdfrwt beam="1">  1        2 0.44761732E+00 0.17507596E+04</pdfrwt>
<pdfrwt beam="2">  1       -1 0.40519067E-01 0.17507596E+04</pdfrwt>
<totfact> 0.12769856E+01</totfact>
</mgrwt>
</event>
<event>
12    6  0.9491186E-008  0.1599836E+04  0.7818608E-02  0.8820649E-01
         -1   -1    0    0    0  501 -0.00000000000E+00  0.00000000000E+00  0.34373075213E+03  0.34373075213E+03  0.00000000000E+00 0.  1.
          2   -1    0    0  501    0  0.00000000000E+00 -0.00000000000E+00 -0.18615417488E+04  0.18615417488E+04  0.00000000000E+00 0. -1.
         24    2    1    2    0    0  0.50760732975E+03 -0.11858766959E+03 -0.23062028900E+03  0.57582396439E+03  0.81604434164E+02 0.  0.
        254    2    1    2    0    0 -0.50760732975E+03  0.11858766959E+03 -0.12871907077E+04  0.16294485366E+04  0.85235812822E+03 0.  0.
         23    2    4    4    0    0  0.15514483804E+02  0.18095307171E+03 -0.10046319467E+04  0.10250186675E+04  0.91614447757E+02 0.  0.
         23    2    4    4    0    0 -0.52312181355E+03 -0.62365402118E+02 -0.28255876097E+03  0.60442986903E+03  0.89163546240E+02 0.  0.
          2    1    3    3  502    0  0.76199371333E+02 -0.27076835080E+02 -0.68441164255E+02  0.10594192822E+03  0.00000000000E+00 0. -1.
         -1    1    3    3    0  502  0.43140795841E+03 -0.91510834511E+02 -0.16217912474E+03  0.46988203617E+03  0.00000000000E+00 0.  1.
         11    1    5    5    0    0 -0.78857962693E+01  0.17981035009E+03 -0.88678264707E+03  0.90486320011E+03  0.00000000000E+00 0. -1.
        -11    1    5    5    0    0  0.23400280073E+02  0.11427216198E+01 -0.11784929968E+03  0.12015546743E+03  0.00000000000E+00 0.  1.
          1    1    6    6  503    0 -0.27066393391E+03 -0.69775809660E+02 -0.12077527605E+03  0.30449022323E+03  0.00000000000E+00 0. -1.
         -1    1    6    6    0  503 -0.25245787964E+03  0.74104075421E+01 -0.16178348492E+03  0.29993964580E+03  0.00000000000E+00 0.  1.
<mgrwt>
<rscale>  0 0.15998364E+04</rscale>
<asrwt>0</asrwt>
<pdfrwt beam="1">  1        2 0.28639103E+00 0.15998364E+04</pdfrwt>
<pdfrwt beam="2">  1       -1 0.52881655E-01 0.15998364E+04</pdfrwt>
<totfact> 0.31409937E+01</totfact>
</mgrwt>
</event>
<event>
12    6  0.9491186E-008  0.1645114E+04  0.7818608E-02  0.8793302E-01
         -3   -1    0    0    0  501 -0.00000000000E+00  0.00000000000E+00  0.72371276344E+03  0.72371276344E+03  0.00000000000E+00 0.  1.
          4   -1    0    0  501    0  0.00000000000E+00 -0.00000000000E+00 -0.93490105251E+03  0.93490105251E+03  0.00000000000E+00 0. -1.
         24    2    1    2    0    0 -0.13445938977E+02 -0.18604691144E+03  0.47153931563E+03  0.51343767721E+03  0.80465369319E+02 0.  0.
        254    2    1    2    0    0  0.13445938977E+02  0.18604691144E+03 -0.68272760470E+03  0.11451761387E+04  0.90028726526E+03 0.  0.
         23    2    4    4    0    0  0.39808554666E+03  0.40574238525E+02 -0.58253318104E+03  0.71258722106E+03  0.91199064234E+02 0.  0.
         23    2    4    4    0    0 -0.38463960768E+03  0.14547267291E+03 -0.10019442366E+03  0.43258891768E+03  0.89355037969E+02 0.  0.
          2    1    3    3  502    0 -0.48261362582E+01 -0.76571070153E+02  0.10019367649E+03  0.12619506006E+03  0.00000000000E+00 0. -1.
         -1    1    3    3    0  502 -0.86198027187E+01 -0.10947584128E+03  0.37134563914E+03  0.38724261714E+03  0.00000000000E+00 0.  1.
         11    1    5    5    0    0  0.33300727189E+03 -0.97960721745E+00 -0.48113213609E+03  0.58513497173E+03  0.00000000000E+00 0.  1.
        -11    1    5    5    0    0  0.65078274762E+02  0.41553845743E+02 -0.10140104496E+03  0.12745224933E+03  0.00000000000E+00 0. -1.
          3    1    6    6  503    0 -0.89076245767E+02  0.11092374564E+02  0.85827371931E+01  0.90173619819E+02  0.00000000000E+00 0. -1.
         -3    1    6    6    0  503 -0.29556336191E+03  0.13438029835E+03 -0.10877716085E+03  0.34241529786E+03  0.00000000000E+00 0.  1.
<mgrwt>
<rscale>  0 0.16451138E+04</rscale>
<asrwt>0</asrwt>
<pdfrwt beam="1">  1        4 0.14383093E+00 0.16451138E+04</pdfrwt>
<pdfrwt beam="2">  1       -3 0.11134042E+00 0.16451138E+04</pdfrwt>
<totfact> 0.49282513E-01</totfact>
</mgrwt>
</event>
<event>
12    6  0.9491186E-008  0.1355091E+04  0.7818608E-02  0.8986983E-01
         -1   -1    0    0    0  501 -0.00000000000E+00  0.00000000000E+00  0.11494531403E+03  0.11494531403E+03  0.00000000000E+00 0.  1.
          2   -1    0    0  501    0  0.00000000000E+00 -0.00000000000E+00 -0.39937967680E+04  0.39937967680E+04  0.00000000000E+00 0. -1.
         24    2    1    2    0    0 -0.59374393391E+02  0.10049648393E+03  0.32374928246E-02  0.14210461457E+03  0.81048501518E+02 0.  0.
        254    2    1    2    0    0  0.59374393391E+02 -0.10049648393E+03 -0.38788546915E+04  0.39666374675E+04  0.82162900322E+03 0.  0.
         23    2    4    4    0    0  0.17615186582E+03 -0.28362576166E+03 -0.72153574315E+03  0.80056198911E+03  0.93875541370E+02 0.  0.
         23    2    4    4    0    0 -0.11677747243E+03  0.18312927773E+03 -0.31573189483E+04  0.31660754784E+04  0.90541055741E+02 0.  0.
          2    1    3    3  502    0 -0.60277378851E+01  0.39871894860E+02  0.35658323477E+02  0.53829524027E+02  0.00000000000E+00 0. -1.
         -1    1    3    3    0  502 -0.53346655506E+02  0.60624589069E+02 -0.35655085984E+02  0.88275090541E+02  0.00000000000E+00 0.  1.
         11    1    5    5    0    0  0.14686280447E+03 -0.26390328564E+03 -0.57113503386E+03  0.64607186474E+03  0.00000000000E+00 0.  1.
        -11    1    5    5    0    0  0.29289061350E+02 -0.19722476025E+02 -0.15040070929E+03  0.15449012438E+03  0.00000000000E+00 0. -1.
          3    1    6    6  503    0 -0.58540989462E+02  0.15530988139E+03 -0.25321747673E+04  0.25376085709E+04  0.00000000000E+00 0. -1.
         -3    1    6    6    0  503 -0.58236482969E+02  0.27819396341E+02 -0.62514418098E+03  0.62846690747E+03  0.00000000000E+00 0.  1.
<mgrwt>
<rscale>  0 0.13550915E+04</rscale>
<asrwt>0</asrwt>
<pdfrwt beam="1">  1        2 0.61443036E+00 0.13550915E+04</pdfrwt>
<pdfrwt beam="2">  1       -1 0.17683892E-01 0.13550915E+04</pdfrwt>
<totfact> 0.99610922E+00</totfact>
</mgrwt>
</event>
<event>
12    6  0.9491186E-008  0.1158953E+04  0.7818608E-02  0.9149564E-01
         -1   -1    0    0    0  501 -0.00000000000E+00  0.00000000000E+00  0.95022493740E+02  0.95022493740E+02  0.00000000000E+00 0.  1.
          2   -1    0    0  501    0  0.00000000000E+00 -0.00000000000E+00 -0.35338237332E+04  0.35338237332E+04  0.00000000000E+00 0. -1.
         24    2    1    2    0    0 -0.20991297451E+03 -0.26538926242E+02 -0.54134064296E+03  0.58660268885E+03  0.79279577298E+02 0.  0.
        254    2    1    2    0    0  0.20991297451E+03  0.26538926242E+02 -0.28974605965E+04  0.30422435381E+04  0.90288430337E+03 0.  0.
         23    2    4    4    0    0 -0.15699631377E+03 -0.15643464886E+03 -0.19947020081E+03  0.31178229952E+03  0.91105430033E+02 0.  0.
         23    2    4    4    0    0  0.36690928828E+03  0.18297357510E+03 -0.26979903957E+04  0.27304612386E+04  0.90358425613E+02 0.  0.
          2    1    3    3  502    0 -0.20806873875E+03 -0.33664477982E+02 -0.53920786970E+03  0.57893956841E+03  0.00000000000E+00 0. -1.
         -1    1    3    3    0  502 -0.18442357589E+01  0.71255517399E+01 -0.21327732560E+01  0.76631204411E+01  0.00000000000E+00 0.  1.
         11    1    5    5    0    0  0.91969987263E+01 -0.16083984957E+02 -0.33072687063E+02  0.37908864230E+02  0.00000000000E+00 0. -1.
        -11    1    5    5    0    0 -0.16619331249E+03 -0.14035066390E+03 -0.16639751375E+03  0.27387343529E+03  0.00000000000E+00 0.  1.
          2    1    6    6  503    0  0.35363674933E+03  0.19196586609E+03 -0.26301960363E+04  0.26607970673E+04  0.00000000000E+00 0.  1.
         -2    1    6    6    0  503  0.13272538949E+02 -0.89922909875E+01 -0.67794359435E+02  0.69664171268E+02  0.00000000000E+00 0. -1.
<mgrwt>
<rscale>  0 0.11589525E+04</rscale>
<asrwt>0</asrwt>
<pdfrwt beam="1">  1        2 0.54366525E+00 0.11589525E+04</pdfrwt>
<pdfrwt beam="2">  1       -1 0.14618844E-01 0.11589525E+04</pdfrwt>
<totfact> 0.30632187E+01</totfact>
</mgrwt>
</event>
<event>
12    6  0.9491186E-008  0.3340139E+04  0.7818608E-02  0.8152757E-01
          2   -1    0    0  501    0  0.00000000000E+00  0.00000000000E+00  0.25191129366E+04  0.25191129366E+04  0.00000000000E+00 0. -1.
         -1   -1    0    0    0  501 -0.00000000000E+00 -0.00000000000E+00 -0.11071880737E+04  0.11071880737E+04  0.00000000000E+00 0.  1.
         24    2    1    2    0    0 -0.71686827089E+03  0.95783479109E+03  0.17243461162E+04  0.21002606792E+04  0.79861050047E+02 0.  0.
        254    2    1    2    0    0  0.71686827089E+03 -0.95783479109E+03 -0.31242125332E+03  0.15260403310E+04  0.89434023031E+03 0.  0.
         23    2    4    4    0    0  0.38969462601E+03 -0.65888385180E+03 -0.61104812006E+03  0.98380236802E+03  0.92181682518E+02 0.  0.
         23    2    4    4    0    0  0.32717364488E+03 -0.29895093929E+03  0.29862686674E+03  0.54223796300E+03  0.91813642631E+02 0.  0.
          4    1    3    3  502    0 -0.53587831460E+03  0.75076098848E+03  0.12808414012E+04  0.15784049939E+04  0.00000000000E+00 0. -1.
         -3    1    3    3    0  502 -0.18098995629E+03  0.20707380261E+03  0.44350471507E+03  0.52185568531E+03  0.00000000000E+00 0.  1.
         11    1    5    5    0    0  0.63648441238E+02 -0.95228284486E+02 -0.52909020983E+02  0.12617018166E+03  0.00000000000E+00 0.  1.
        -11    1    5    5    0    0  0.32604618477E+03 -0.56365556732E+03 -0.55813909907E+03  0.85763218636E+03  0.00000000000E+00 0. -1.
          4    1    6    6  503    0  0.27802601765E+03 -0.28295565913E+03  0.23815465736E+03  0.46268781305E+03  0.00000000000E+00 0. -1.
         -4    1    6    6    0  503  0.49147627238E+02 -0.15995280162E+02  0.60472209379E+02  0.79550149954E+02  0.00000000000E+00 0.  1.
<mgrwt>
<rscale>  0 0.33401388E+04</rscale>
<asrwt>0</asrwt>
<pdfrwt beam="1">  1        2 0.38755583E+00 0.33401388E+04</pdfrwt>
<pdfrwt beam="2">  1       -1 0.17033663E+00 0.33401388E+04</pdfrwt>
<totfact> 0.78525427E-01</totfact>
</mgrwt>
</event>
<event>
12    6  0.9491186E-008  0.1543732E+04  0.7818608E-02  0.8855881E-01
          2   -1    0    0  501    0  0.00000000000E+00  0.00000000000E+00  0.29953910444E+04  0.29953910444E+04  0.00000000000E+00 0. -1.
         -1   -1    0    0    0  501 -0.00000000000E+00 -0.00000000000E+00 -0.19889797407E+03  0.19889797407E+03  0.00000000000E+00 0.  1.
         24    2    1    2    0    0 -0.23384511046E+03  0.41268629602E+03  0.13613123940E+04  0.14439137852E+04  0.81988233866E+02 0.  0.
        254    2    1    2    0    0  0.23384511046E+03 -0.41268629602E+03  0.14351806763E+04  0.17503752332E+04  0.88265302855E+03 0.  0.
         23    2    4    4    0    0  0.17383407534E+03 -0.63675154563E+03  0.66456898745E+03  0.94101251663E+03  0.90453307132E+02 0.  0.
         23    2    4    4    0    0  0.60011035125E+02  0.22406524961E+03  0.77061168885E+03  0.80936271658E+03  0.86134032586E+02 0.  0.
          2    1    3    3  502    0 -0.14184333635E+03  0.17726109997E+03  0.58604756368E+03  0.62848450778E+03  0.00000000000E+00 0. -1.
         -1    1    3    3    0  502 -0.92001774114E+02  0.23542519605E+03  0.77526483033E+03  0.81542927745E+03  0.00000000000E+00 0.  1.
         11    1    5    5    0    0  0.73958393996E+02 -0.27368624699E+03  0.22305878757E+03  0.36073429079E+03  0.00000000000E+00 0. -1.
        -11    1    5    5    0    0  0.99875681343E+02 -0.36306529864E+03  0.44151019987E+03  0.58027822585E+03  0.00000000000E+00 0.  1.
          2    1    6    6  503    0  0.67850637986E+02  0.22627334428E+03  0.71144614342E+03  0.74963921349E+03  0.00000000000E+00 0.  1.
         -2    1    6    6    0  503 -0.78396028611E+01 -0.22080946755E+01  0.59165545432E+02  0.59723503090E+02  0.00000000000E+00 0. -1.
<mgrwt>
<rscale>  0 0.15437321E+04</rscale>
<asrwt>0</asrwt>
<pdfrwt beam="1">  1        2 0.46082936E+00 0.15437321E+04</pdfrwt>
<pdfrwt beam="2">  1       -1 0.30599690E-01 0.15437321E+04</pdfrwt>
<totfact> 0.19067830E+01</totfact>
</mgrwt>
</event>
<event>
12    6  0.9491186E-008  0.1510259E+04  0.7818608E-02  0.8877659E-01
         -1   -1    0    0    0  501 -0.00000000000E+00  0.00000000000E+00  0.24328697193E+03  0.24328697193E+03  0.00000000000E+00 0.  1.
          2   -1    0    0  501    0  0.00000000000E+00 -0.00000000000E+00 -0.23438186520E+04  0.23438186520E+04  0.00000000000E+00 0. -1.
         24    2    1    2    0    0 -0.40710729745E+03  0.12629699908E+03 -0.29613820578E+03  0.52884127463E+03  0.10142964664E+03 0.  0.
        254    2    1    2    0    0  0.40710729745E+03 -0.12629699908E+03 -0.18043934743E+04  0.20582643493E+04  0.89382830451E+03 0.  0.
         23    2    4    4    0    0  0.32467124340E+03 -0.25023310552E+03 -0.23948435215E+03  0.48357726953E+03  0.92011941015E+02 0.  0.
         23    2    4    4    0    0  0.82436054053E+02  0.12393610645E+03 -0.15649091222E+04  0.15746870798E+04  0.92428227039E+02 0.  0.
          2    1    3    3  502    0 -0.18268440850E+03  0.29327845905E+02 -0.18017268814E+03  0.25825551922E+03  0.00000000000E+00 0. -1.
         -1    1    3    3    0  502 -0.22442288895E+03  0.96969153171E+02 -0.11596551765E+03  0.27058575542E+03  0.00000000000E+00 0.  1.
         11    1    5    5    0    0  0.64265254149E+02 -0.10113673818E+03 -0.75401257140E+02  0.14157687763E+03  0.00000000000E+00 0.  1.
        -11    1    5    5    0    0  0.26040598925E+03 -0.14909636735E+03 -0.16408309501E+03  0.34200039190E+03  0.00000000000E+00 0. -1.
          4    1    6    6  503    0  0.23582738085E+02  0.10746115509E+03 -0.11579057856E+04  0.11631207391E+04  0.00000000000E+00 0. -1.
         -4    1    6    6    0  503  0.58853315968E+02  0.16474951355E+02 -0.40700333659E+03  0.41156634073E+03  0.00000000000E+00 0.  1.
<mgrwt>
<rscale>  0 0.15102590E+04</rscale>
<asrwt>0</asrwt>
<pdfrwt beam="1">  1        2 0.36058748E+00 0.15102590E+04</pdfrwt>
<pdfrwt beam="2">  1       -1 0.37428766E-01 0.15102590E+04</pdfrwt>
<totfact> 0.32417087E+01</totfact>
</mgrwt>
</event>
<event>
12    6  0.9491186E-008  0.1340062E+04  0.7818608E-02  0.8998385E-01
         -1   -1    0    0    0  501 -0.00000000000E+00  0.00000000000E+00  0.34882862435E+03  0.34882862435E+03  0.00000000000E+00 0.  1.
          2   -1    0    0  501    0  0.00000000000E+00 -0.00000000000E+00 -0.12869976240E+04  0.12869976240E+04  0.00000000000E+00 0. -1.
         24    2    1    2    0    0  0.29053025672E+03  0.55958733807E+02 -0.50878842282E+03  0.59526335425E+03  0.89070712159E+02 0.  0.
        254    2    1    2    0    0 -0.29053025672E+03 -0.55958733807E+02 -0.42938057681E+03  0.10405628941E+04  0.90048000912E+03 0.  0.
         23    2    4    4    0    0 -0.42112824736E+03  0.80238639568E+02  0.11814964091E+03  0.45370626651E+03  0.90015546512E+02 0.  0.
         23    2    4    4    0    0  0.13059799064E+03 -0.13619737338E+03 -0.54753021772E+03  0.58685662757E+03  0.94898905858E+02 0.  0.
          2    1    3    3  502    0  0.27880187308E+03  0.64169184046E+02 -0.43880200674E+03  0.52382761452E+03  0.00000000000E+00 0. -1.
         -1    1    3    3    0  502  0.11728383640E+02 -0.82104502391E+01 -0.69986416078E+02  0.71435739734E+02  0.00000000000E+00 0.  1.
         11    1    5    5    0    0 -0.30189474690E+03  0.88723976293E+02  0.11204419183E+03  0.33401539351E+03  0.00000000000E+00 0. -1.
        -11    1    5    5    0    0 -0.11923350046E+03 -0.84853367249E+01  0.61054490837E+01  0.11969087300E+03  0.00000000000E+00 0.  1.
          4    1    6    6  503    0  0.13690557546E+03 -0.14347270153E+03 -0.49140999275E+03  0.52991634590E+03  0.00000000000E+00 0. -1.
         -4    1    6    6    0  503 -0.63075848167E+01  0.72753281597E+01 -0.56120224969E+02  0.56940281670E+02  0.00000000000E+00 0.  1.
<mgrwt>
<rscale>  0 0.13400621E+04</rscale>
<asrwt>0</asrwt>
<pdfrwt beam="1">  1        2 0.19799964E+00 0.13400621E+04</pdfrwt>
<pdfrwt beam="2">  1       -1 0.53665942E-01 0.13400621E+04</pdfrwt>
<totfact> 0.65671971E+01</totfact>
</mgrwt>
</event>
<event>
12    6  0.9491186E-008  0.3112958E+04  0.7818608E-02  0.8212191E-01
          2   -1    0    0  501    0  0.00000000000E+00  0.00000000000E+00  0.27693459095E+04  0.27693459095E+04  0.00000000000E+00 0. -1.
         -1   -1    0    0    0  501 -0.00000000000E+00 -0.00000000000E+00 -0.87480101379E+03  0.87480101379E+03  0.00000000000E+00 0.  1.
         24    2    1    2    0    0 -0.10302804802E+04 -0.61742752870E+03 -0.29465040874E+02  0.12042350653E+04  0.81358974330E+02 0.  0.
        254    2    1    2    0    0  0.10302804802E+04  0.61742752870E+03  0.19240099366E+04  0.24399118580E+04  0.89925581332E+03 0.  0.
         23    2    4    4    0    0  0.39839653564E+03 -0.20673222035E+03  0.55911210952E+03  0.72296511219E+03  0.92812670985E+02 0.  0.
         23    2    4    4    0    0  0.63188394456E+03  0.82415974905E+03  0.13648978271E+04  0.17169467458E+04  0.80271030641E+02 0.  0.
          2    1    3    3  502    0 -0.69606233022E+03 -0.42553079381E+03 -0.57301051778E+02  0.81784022558E+03  0.00000000000E+00 0. -1.
         -1    1    3    3    0  502 -0.33421814997E+03 -0.19189673489E+03  0.27836010904E+02  0.38639483969E+03  0.00000000000E+00 0.  1.
         11    1    5    5    0    0  0.24978406849E+03 -0.17356356313E+03  0.34077721232E+03  0.45677729777E+03  0.00000000000E+00 0. -1.
        -11    1    5    5    0    0  0.14861246715E+03 -0.33168657219E+02  0.21833489720E+03  0.26618781442E+03  0.00000000000E+00 0.  1.
          4    1    6    6  503    0  0.29153662012E+03  0.39190728264E+03  0.70713128909E+03  0.85942979880E+03  0.00000000000E+00 0. -1.
         -4    1    6    6    0  503  0.34034732444E+03  0.43225246641E+03  0.65776653796E+03  0.85751694702E+03  0.00000000000E+00 0.  1.
<mgrwt>
<rscale>  0 0.31129578E+04</rscale>
<asrwt>0</asrwt>
<pdfrwt beam="1">  1        2 0.42605321E+00 0.31129578E+04</pdfrwt>
<pdfrwt beam="2">  1       -1 0.13458477E+00 0.31129578E+04</pdfrwt>
<totfact> 0.10791748E+00</totfact>
</mgrwt>
</event>
<event>
12    6  0.9491186E-008  0.2163730E+04  0.7818608E-02  0.8533678E-01
          2   -1    0    0  501    0  0.00000000000E+00  0.00000000000E+00  0.17298172518E+04  0.17298172518E+04  0.00000000000E+00 0. -1.
         -1   -1    0    0    0  501 -0.00000000000E+00 -0.00000000000E+00 -0.67662186649E+03  0.67662186649E+03  0.00000000000E+00 0.  1.
         24    2    1    2    0    0  0.52838634686E+03 -0.40372455009E+03 -0.22614557584E+03  0.70692301510E+03  0.80079235194E+02 0.  0.
        254    2    1    2    0    0 -0.52838634686E+03  0.40372455009E+03  0.12793409611E+04  0.16995161032E+04  0.89969775273E+03 0.  0.
         23    2    4    4    0    0 -0.71088349995E+03  0.41814459206E+03  0.70507834806E+03  0.10889366624E+04  0.91909343103E+02 0.  0.
         23    2    4    4    0    0  0.18249715309E+03 -0.14420041971E+02  0.57426261307E+03  0.61057944083E+03  0.97552838498E+02 0.  0.
          4    1    3    3  502    0  0.38285342075E+02 -0.11697212048E+02 -0.64211682636E+00  0.40037538654E+02  0.00000000000E+00 0. -1.
         -3    1    3    3    0  502  0.49010100478E+03 -0.39202733804E+03 -0.22550345901E+03  0.66688547644E+03  0.00000000000E+00 0.  1.
         11    1    5    5    0    0 -0.79095703787E+02  0.65982860593E+02  0.12349605900E+03  0.16081400697E+03  0.00000000000E+00 0. -1.
        -11    1    5    5    0    0 -0.63178779616E+03  0.35216173147E+03  0.58158228906E+03  0.92812265538E+03  0.00000000000E+00 0.  1.
          3    1    6    6  503    0  0.52203990751E+02  0.13326057085E+00  0.58461136937E+02  0.78377158284E+02  0.00000000000E+00 0. -1.
         -3    1    6    6    0  503  0.13029316234E+03 -0.14553302541E+02  0.51580147613E+03  0.53220228254E+03  0.00000000000E+00 0.  1.
<mgrwt>
<rscale>  0 0.21637303E+04</rscale>
<asrwt>0</asrwt>
<pdfrwt beam="1">  1        2 0.26612573E+00 0.21637303E+04</pdfrwt>
<pdfrwt beam="2">  1       -1 0.10409567E+00 0.21637303E+04</pdfrwt>
<totfact> 0.85600171E+00</totfact>
</mgrwt>
</event>
<event>
12    6  0.9491186E-008  0.1078141E+04  0.7818608E-02  0.9226763E-01
          2   -1    0    0  501    0  0.00000000000E+00  0.00000000000E+00  0.11365798874E+04  0.11365798874E+04  0.00000000000E+00 0. -1.
         -1   -1    0    0    0  501 -0.00000000000E+00 -0.00000000000E+00 -0.25567648908E+03  0.25567648908E+03  0.00000000000E+00 0.  1.
         24    2    1    2    0    0  0.76606830937E+02 -0.11299360363E+03  0.19809796165E+03  0.25374176427E+03  0.80659280406E+02 0.  0.
        254    2    1    2    0    0 -0.76606830937E+02  0.11299360363E+03  0.68280543667E+03  0.11385146122E+04  0.90075307209E+03 0.  0.
         23    2    4    4    0    0 -0.25372073826E+03  0.44339087233E+03  0.32678362824E+03  0.61257324260E+03  0.86537617102E+02 0.  0.
         23    2    4    4    0    0  0.17711390733E+03 -0.33039726870E+03  0.35602180843E+03  0.52594136962E+03  0.96597644182E+02 0.  0.
          4    1    3    3  502    0  0.61651419271E+02 -0.10983446327E+03  0.20192195728E+03  0.23798525931E+03  0.00000000000E+00 0. -1.
         -3    1    3    3    0  502  0.14955411665E+02 -0.31591403648E+01 -0.38239956246E+01  0.15756504957E+02  0.00000000000E+00 0.  1.
         11    1    5    5    0    0 -0.16183047651E+03  0.21692281223E+03  0.20498390638E+03  0.33950406694E+03  0.00000000000E+00 0.  1.
        -11    1    5    5    0    0 -0.91890261752E+02  0.22646806011E+03  0.12179972186E+03  0.27306917566E+03  0.00000000000E+00 0. -1.
          4    1    6    6  503    0 -0.34526014205E+01 -0.53286174092E+02  0.28757438229E+02  0.60649213181E+02  0.00000000000E+00 0. -1.
         -4    1    6    6    0  503  0.18056650875E+03 -0.27711109461E+03  0.32726437020E+03  0.46529215644E+03  0.00000000000E+00 0.  1.
<mgrwt>
<rscale>  0 0.10781405E+04</rscale>
<asrwt>0</asrwt>
<pdfrwt beam="1">  1        2 0.17485844E+00 0.10781405E+04</pdfrwt>
<pdfrwt beam="2">  1       -1 0.39334845E-01 0.10781405E+04</pdfrwt>
<totfact> 0.14712709E+02</totfact>
</mgrwt>
</event>
<event>
12    6  0.9491186E-008  0.1415109E+04  0.7818608E-02  0.8942954E-01
         -1   -1    0    0    0  501 -0.00000000000E+00  0.00000000000E+00  0.49721153264E+03  0.49721153264E+03  0.00000000000E+00 0.  1.
          2   -1    0    0  501    0  0.00000000000E+00 -0.00000000000E+00 -0.10068816080E+04  0.10068816080E+04  0.00000000000E+00 0. -1.
         24    2    1    2    0    0 -0.25361297180E+03 -0.12632144121E+03 -0.48978876437E+03  0.57160124782E+03  0.80983373776E+02 0.  0.
        254    2    1    2    0    0  0.25361297180E+03  0.12632144121E+03 -0.19881310974E+02  0.93249189281E+03  0.88818309917E+03 0.  0.
         23    2    4    4    0    0 -0.19841931876E+02  0.16332511840E+03 -0.40740196788E+03  0.44836347930E+03  0.89356866414E+02 0.  0.
         23    2    4    4    0    0  0.27345490368E+03 -0.37003677188E+02  0.38752065690E+03  0.48412841351E+03  0.89784212266E+02 0.  0.
          2    1    3    3  502    0 -0.23571996582E+03 -0.11452604873E+03 -0.48229531171E+03  0.54889788287E+03  0.00000000000E+00 0. -1.
         -1    1    3    3    0  502 -0.17893005988E+02 -0.11795392482E+02 -0.74934526538E+01  0.22703364943E+02  0.00000000000E+00 0.  1.
         11    1    5    5    0    0 -0.14947240694E+02  0.53720754880E+02 -0.51393906184E+02  0.75833192614E+02  0.00000000000E+00 0.  1.
        -11    1    5    5    0    0 -0.48946911813E+01  0.10960436352E+03 -0.35600806169E+03  0.37253028668E+03  0.00000000000E+00 0. -1.
          4    1    6    6  503    0  0.15559624970E+03 -0.11616094148E+02  0.28900714564E+03  0.32843607719E+03  0.00000000000E+00 0. -1.
         -4    1    6    6    0  503  0.11785865398E+03 -0.25387583040E+02  0.98513511260E+02  0.15569233633E+03  0.00000000000E+00 0.  1.
<mgrwt>
<rscale>  0 0.14151087E+04</rscale>
<asrwt>0</asrwt>
<pdfrwt beam="1">  1        2 0.15490486E+00 0.14151087E+04</pdfrwt>
<pdfrwt beam="2">  1       -1 0.76494083E-01 0.14151087E+04</pdfrwt>
<totfact> 0.47449964E+01</totfact>
</mgrwt>
</event>
<event>
12    6  0.1019687E-007  0.2881669E+04  0.7818608E-02  0.8278352E-01
          2   -1    0    0  501    0  0.00000000000E+00  0.00000000000E+00  0.13483090061E+04  0.13483090061E+04  0.00000000000E+00 0. -1.
         -1   -1    0    0    0  501 -0.00000000000E+00 -0.00000000000E+00 -0.15397097299E+04  0.15397097299E+04  0.00000000000E+00 0.  1.
         24    2    1    2    0    0 -0.72962216437E+03  0.64280806839E+03 -0.91312542549E+03  0.13362974627E+04  0.79637621064E+02 0.  0.
        254    2    1    2    0    0  0.72962216437E+03 -0.64280806839E+03  0.72172470165E+03  0.15517212732E+04  0.97025854768E+03 0.  0.
         23    2    4    4    0    0 -0.75711781793E+02 -0.38594116063E+03 -0.45656741290E+02  0.40628640576E+03  0.91111207355E+02 0.  0.
         23    2    4    4    0    0  0.80533394616E+03 -0.25686690775E+03  0.76738144294E+03  0.11454348675E+04  0.92754425963E+02 0.  0.
          2    1    3    3  502    0 -0.11640562929E+03  0.74947066152E+02 -0.15611256843E+03  0.20865873401E+03  0.00000000000E+00 0. -1.
         -1    1    3    3    0  502 -0.61321653508E+03  0.56786100224E+03 -0.75701285706E+03  0.11276387287E+04  0.00000000000E+00 0.  1.
         11    1    5    5    0    0 -0.89186455305E+02 -0.29390720369E+03 -0.12020405446E+02  0.30737624882E+03  0.00000000000E+00 0. -1.
        -11    1    5    5    0    0  0.13474673512E+02 -0.92033956947E+02 -0.33636335844E+02  0.98910156943E+02  0.00000000000E+00 0.  1.
          2    1    6    6  503    0  0.45276864337E+03 -0.13419896393E+03  0.36743539863E+03  0.59834570150E+03  0.00000000000E+00 0. -1.
         -2    1    6    6    0  503  0.35256530280E+03 -0.12266794382E+03  0.39994604431E+03  0.54708916599E+03  0.00000000000E+00 0.  1.
<mgrwt>
<rscale>  0 0.28816693E+04</rscale>
<asrwt>0</asrwt>
<pdfrwt beam="1">  1        2 0.20743216E+00 0.28816693E+04</pdfrwt>
<pdfrwt beam="2">  1       -1 0.23687842E+00 0.28816693E+04</pdfrwt>
<totfact> 0.12969013E+00</totfact>
</mgrwt>
</event>
<event>
12    6  0.9491186E-008  0.2394294E+04  0.7818608E-02  0.8441643E-01
         -3   -1    0    0    0  501 -0.00000000000E+00  0.00000000000E+00  0.11703623329E+04  0.11703623329E+04  0.00000000000E+00 0.  1.
          2   -1    0    0  501    0  0.00000000000E+00 -0.00000000000E+00 -0.12245445823E+04  0.12245445823E+04  0.00000000000E+00 0. -1.
         24    2    1    2    0    0  0.61094204551E+03  0.46688296830E+03 -0.71615880137E+03  0.10536934791E+04  0.78464195296E+02 0.  0.
        254    2    1    2    0    0 -0.61094204551E+03 -0.46688296830E+03  0.66197655204E+03  0.13412134362E+04  0.87716055362E+03 0.  0.
         23    2    4    4    0    0 -0.13899664981E+03 -0.62745889732E+03  0.46108250317E+03  0.79632803570E+03  0.92285043374E+02 0.  0.
         23    2    4    4    0    0 -0.47194539570E+03  0.16057592902E+03  0.20089404886E+03  0.54488540046E+03  0.89580105261E+02 0.  0.
          2    1    3    3  502    0  0.52733349653E+03  0.37817795672E+03 -0.62989767605E+03  0.90436180028E+03  0.00000000000E+00 0. -1.
         -1    1    3    3    0  502  0.83608548983E+02  0.88705011578E+02 -0.86261125323E+02  0.14933167877E+03  0.00000000000E+00 0.  1.
         11    1    5    5    0    0 -0.10743517347E+03 -0.30872925296E+03  0.26476059033E+03  0.42065929007E+03  0.00000000000E+00 0.  1.
        -11    1    5    5    0    0 -0.31561476339E+02 -0.31872964435E+03  0.19632191285E+03  0.37566874563E+03  0.00000000000E+00 0. -1.
          4    1    6    6  503    0 -0.28649572142E+03  0.60239882915E+02  0.14525924344E+03  0.32681629349E+03  0.00000000000E+00 0. -1.
         -4    1    6    6    0  503 -0.18544967428E+03  0.10033604610E+03  0.55634805418E+02  0.21806910697E+03  0.00000000000E+00 0.  1.
<mgrwt>
<rscale>  0 0.23942939E+04</rscale>
<asrwt>0</asrwt>
<pdfrwt beam="1">  1        2 0.18839147E+00 0.23942939E+04</pdfrwt>
<pdfrwt beam="2">  1       -3 0.18005574E+00 0.23942939E+04</pdfrwt>
<totfact> 0.20539620E+00</totfact>
</mgrwt>
</event>
<event>
12    6  0.9491186E-008  0.2809658E+04  0.7818608E-02  0.8300276E-01
         -3   -1    0    0    0  501 -0.00000000000E+00  0.00000000000E+00  0.15486328651E+04  0.15486328651E+04  0.00000000000E+00 0.  1.
          2   -1    0    0  501    0  0.00000000000E+00 -0.00000000000E+00 -0.12743785906E+04  0.12743785906E+04  0.00000000000E+00 0. -1.
         24    2    1    2    0    0  0.78276005381E+03 -0.90659556393E+03 -0.26363438220E+03  0.12292837872E+04  0.83706174899E+02 0.  0.
        254    2    1    2    0    0 -0.78276005381E+03  0.90659556393E+03  0.53788865667E+03  0.15937276684E+04  0.90333540598E+03 0.  0.
         23    2    4    4    0    0 -0.33233883045E+03  0.97604842098E+03  0.35802100122E+03  0.10953728163E+04  0.92428086152E+02 0.  0.
         23    2    4    4    0    0 -0.45042122336E+03 -0.69452857047E+02  0.17986765544E+03  0.49835485208E+03  0.91116449194E+02 0.  0.
          2    1    3    3  502    0  0.42713521745E+03 -0.54739557593E+03 -0.12912915806E+03  0.70622995546E+03  0.00000000000E+00 0. -1.
         -1    1    3    3    0  502  0.35562483636E+03 -0.35919998800E+03 -0.13450522413E+03  0.52305383177E+03  0.00000000000E+00 0.  1.
         11    1    5    5    0    0 -0.18049061879E+03  0.46390090379E+03  0.21607874357E+03  0.54265176258E+03  0.00000000000E+00 0. -1.
        -11    1    5    5    0    0 -0.15184821166E+03  0.51214751719E+03  0.14194225766E+03  0.55272105375E+03  0.00000000000E+00 0.  1.
          4    1    6    6  503    0 -0.43494845507E+03 -0.68803111483E+02  0.19026400937E+03  0.47970242857E+03  0.00000000000E+00 0. -1.
         -4    1    6    6    0  503 -0.15472768287E+02 -0.64974556366E+00 -0.10396353924E+02  0.18652423507E+02  0.00000000000E+00 0.  1.
<mgrwt>
<rscale>  0 0.28096580E+04</rscale>
<asrwt>0</asrwt>
<pdfrwt beam="1">  1        2 0.19605824E+00 0.28096580E+04</pdfrwt>
<pdfrwt beam="2">  1       -3 0.23825121E+00 0.28096580E+04</pdfrwt>
<totfact> 0.80164392E-01</totfact>
</mgrwt>
</event>
<event>
12    6  0.9491186E-008  0.1390874E+04  0.7818608E-02  0.8960451E-01
         -1   -1    0    0    0  501 -0.00000000000E+00  0.00000000000E+00  0.27848376925E+03  0.27848376925E+03  0.00000000000E+00 0.  1.
          2   -1    0    0  501    0  0.00000000000E+00 -0.00000000000E+00 -0.17366632185E+04  0.17366632185E+04  0.00000000000E+00 0. -1.
         24    2    1    2    0    0  0.86004439556E+02  0.15719408100E+03  0.83134631733E+02  0.21297732563E+03  0.79631849874E+02 0.  0.
        254    2    1    2    0    0 -0.86004439556E+02 -0.15719408100E+03 -0.15413140810E+04  0.18021696621E+04  0.91654768131E+03 0.  0.
         23    2    4    4    0    0 -0.38740358734E+03 -0.32684015748E+03 -0.12080537171E+04  0.13132623520E+04  0.91423157443E+02 0.  0.
         23    2    4    4    0    0  0.30139914778E+03  0.16964607648E+03 -0.33326036387E+03  0.48890731012E+03  0.91360003389E+02 0.  0.
          4    1    3    3  502    0  0.11893732929E+02  0.91772777023E+00 -0.10856424573E+02  0.16129633032E+02  0.00000000000E+00 0. -1.
         -1    1    3    3    0  502  0.74110706628E+02  0.15627635323E+03  0.93991056306E+02  0.19684769260E+03  0.00000000000E+00 0.  1.
         11    1    5    5    0    0 -0.28119556553E+03 -0.28477122347E+03 -0.91278184745E+03  0.99666257922E+03  0.00000000000E+00 0. -1.
        -11    1    5    5    0    0 -0.10620802181E+03 -0.42068934006E+02 -0.29527186968E+03  0.31659977279E+03  0.00000000000E+00 0.  1.
          4    1    6    6  503    0  0.30684518000E+03  0.17081096123E+03 -0.33182885790E+03  0.48315705511E+03  0.00000000000E+00 0. -1.
         -4    1    6    6    0  503 -0.54460322190E+01 -0.11648847505E+01 -0.14315059682E+01  0.57502550160E+01  0.00000000000E+00 0.  1.
<mgrwt>
<rscale>  0 0.13908739E+04</rscale>
<asrwt>0</asrwt>
<pdfrwt beam="1">  1        2 0.26717896E+00 0.13908739E+04</pdfrwt>
<pdfrwt beam="2">  1       -1 0.42843656E-01 0.13908739E+04</pdfrwt>
<totfact> 0.55714499E+01</totfact>
</mgrwt>
</event>
<event>
12    6  0.1112769E-007  0.1785248E+04  0.7818608E-02  0.8714184E-01
         -1   -1    0    0    0  501 -0.00000000000E+00  0.00000000000E+00  0.37646442947E+03  0.37646442947E+03  0.00000000000E+00 0.  1.
          2   -1    0    0  501    0  0.00000000000E+00 -0.00000000000E+00 -0.21164741454E+04  0.21164741454E+04  0.00000000000E+00 0. -1.
         24    2    1    2    0    0 -0.53998819991E+03 -0.58066028923E+02 -0.11260475308E+04  0.12526520568E+04  0.78709681069E+02 0.  0.
        254    2    1    2    0    0  0.53998819991E+03  0.58066028923E+02 -0.61396218508E+03  0.12402865181E+04  0.93080726387E+03 0.  0.
         23    2    4    4    0    0  0.23478423279E+03 -0.14692373727E+03  0.19324436475E+03  0.34902831742E+03  0.88131500136E+02 0.  0.
         23    2    4    4    0    0  0.30520396712E+03  0.20498976619E+03 -0.80720654983E+03  0.89125820066E+03  0.87111998985E+02 0.  0.
          2    1    3    3  502    0 -0.47839179897E+03 -0.76337837647E+02 -0.98711762437E+03  0.10995850959E+04  0.00000000000E+00 0. -1.
         -1    1    3    3    0  502 -0.61596400936E+02  0.18271808724E+02 -0.13892990647E+03  0.15306696088E+03  0.00000000000E+00 0.  1.
         11    1    5    5    0    0  0.39025459491E+01  0.29527849112E+01  0.27041905292E+02  0.27481147091E+02  0.00000000000E+00 0.  1.
        -11    1    5    5    0    0  0.23088168684E+03 -0.14987652218E+03  0.16620245946E+03  0.32154717033E+03  0.00000000000E+00 0. -1.
          4    1    6    6  503    0  0.25599619374E+03  0.13301576623E+03 -0.57718532366E+03  0.64526749734E+03  0.00000000000E+00 0. -1.
         -4    1    6    6    0  503  0.49207773383E+02  0.71973999961E+02 -0.23002122617E+03  0.24599070332E+03  0.00000000000E+00 0.  1.
<mgrwt>
<rscale>  0 0.17852476E+04</rscale>
<asrwt>0</asrwt>
<pdfrwt beam="1">  1        2 0.32561140E+00 0.17852476E+04</pdfrwt>
<pdfrwt beam="2">  1       -1 0.57917606E-01 0.17852476E+04</pdfrwt>
<totfact> 0.18702272E+01</totfact>
</mgrwt>
</event>
<event>
12    6  0.9491186E-008  0.2094625E+04  0.7818608E-02  0.8563615E-01
          2   -1    0    0  501    0  0.00000000000E+00  0.00000000000E+00  0.13872907310E+04  0.13872907310E+04  0.00000000000E+00 0. -1.
         -1   -1    0    0    0  501 -0.00000000000E+00 -0.00000000000E+00 -0.79065127915E+03  0.79065127915E+03  0.00000000000E+00 0.  1.
         24    2    1    2    0    0 -0.65828429391E+03  0.32128169796E+02  0.80216475638E+03  0.10413424102E+04  0.80964733590E+02 0.  0.
        254    2    1    2    0    0  0.65828429391E+03 -0.32128169796E+02 -0.20552530450E+03  0.11365996000E+04  0.90291060960E+03 0.  0.
         23    2    4    4    0    0  0.74721504053E+03 -0.43626349575E+02 -0.43615513421E+03  0.87059586814E+03  0.86442404825E+02 0.  0.
         23    2    4    4    0    0 -0.88930746628E+02  0.11498179779E+02  0.23062982971E+03  0.26600373181E+03  0.97606255696E+02 0.  0.
          4    1    3    3  502    0 -0.22425073575E+03  0.30093108416E+02  0.22398967190E+03  0.31837927190E+03  0.00000000000E+00 0. -1.
         -3    1    3    3    0  502 -0.43403355815E+03  0.20350613796E+01  0.57817508448E+03  0.72296313834E+03  0.00000000000E+00 0.  1.
         11    1    5    5    0    0  0.66311896594E+03 -0.28293919976E+02 -0.35486670983E+03  0.75263383570E+03  0.00000000000E+00 0.  1.
        -11    1    5    5    0    0  0.84096074595E+02 -0.15332429599E+02 -0.81288424380E+02  0.11796203244E+03  0.00000000000E+00 0. -1.
          4    1    6    6  503    0 -0.15838815847E+02 -0.34041233586E+02  0.31353309399E+02  0.48915270436E+02  0.00000000000E+00 0. -1.
         -4    1    6    6    0  503 -0.73091930782E+02  0.45539413365E+02  0.19927652031E+03  0.21708846137E+03  0.00000000000E+00 0.  1.
<mgrwt>
<rscale>  0 0.20946247E+04</rscale>
<asrwt>0</asrwt>
<pdfrwt beam="1">  1        2 0.21342934E+00 0.20946247E+04</pdfrwt>
<pdfrwt beam="2">  1       -1 0.12163866E+00 0.20946247E+04</pdfrwt>
<totfact> 0.92579522E+00</totfact>
</mgrwt>
</event>
<event>
12    6  0.9491186E-008  0.1625042E+04  0.7818608E-02  0.8805310E-01
         -1   -1    0    0    0  501 -0.00000000000E+00  0.00000000000E+00  0.37233239273E+03  0.37233239273E+03  0.00000000000E+00 0.  1.
          2   -1    0    0  501    0  0.00000000000E+00 -0.00000000000E+00 -0.17731205695E+04  0.17731205695E+04  0.00000000000E+00 0. -1.
         24    2    1    2    0    0 -0.44464936288E+03  0.33888925710E+03 -0.51927327885E+03  0.76717803602E+03  0.79739678594E+02 0.  0.
        254    2    1    2    0    0  0.44464936288E+03 -0.33888925710E+03 -0.88151489797E+03  0.13782749263E+04  0.90000792914E+03 0.  0.
         23    2    4    4    0    0 -0.16688515209E+03 -0.17672736415E+03 -0.64872507773E+03  0.69816254023E+03  0.86622692643E+02 0.  0.
         23    2    4    4    0    0  0.61153451498E+03 -0.16216189295E+03 -0.23278982024E+03  0.68011238602E+03  0.89948955986E+02 0.  0.
          4    1    3    3  502    0 -0.41999572512E+03  0.29628034975E+03 -0.48870076402E+03  0.70922978753E+03  0.00000000000E+00 0. -1.
         -3    1    3    3    0  502 -0.24653637759E+02  0.42608907350E+02 -0.30572514830E+02  0.57948248492E+02  0.00000000000E+00 0.  1.
         11    1    5    5    0    0 -0.10500025272E+03 -0.16023737028E+03 -0.44166069365E+03  0.48142002059E+03  0.00000000000E+00 0.  1.
        -11    1    5    5    0    0 -0.61884899371E+02 -0.16489993866E+02 -0.20706438408E+03  0.21674251965E+03  0.00000000000E+00 0. -1.
          4    1    6    6  503    0  0.14032066157E+03 -0.74401046056E+02 -0.73623996997E+02  0.17505969454E+03  0.00000000000E+00 0. -1.
         -4    1    6    6    0  503  0.47121385340E+03 -0.87760846895E+02 -0.15916582324E+03  0.50505269148E+03  0.00000000000E+00 0.  1.
<mgrwt>
<rscale>  0 0.16250418E+04</rscale>
<asrwt>0</asrwt>
<pdfrwt beam="1">  1        2 0.27278779E+00 0.16250418E+04</pdfrwt>
<pdfrwt beam="2">  1       -1 0.57281905E-01 0.16250418E+04</pdfrwt>
<totfact> 0.30048681E+01</totfact>
</mgrwt>
</event>
<event>
12    6  0.9491186E-008  0.1067328E+04  0.7818608E-02  0.9237634E-01
          2   -1    0    0  501    0  0.00000000000E+00  0.00000000000E+00  0.16808936019E+04  0.16808936019E+04  0.00000000000E+00 0. -1.
         -1   -1    0    0    0  501 -0.00000000000E+00 -0.00000000000E+00 -0.16943218922E+03  0.16943218922E+03  0.00000000000E+00 0.  1.
         24    2    1    2    0    0  0.48463868358E+02  0.27893672163E+02  0.45734015291E+03  0.46720207884E+03  0.77401314704E+02 0.  0.
        254    2    1    2    0    0 -0.48463868358E+02 -0.27893672163E+02  0.10541212598E+04  0.13831237123E+04  0.89371850697E+03 0.  0.
         23    2    4    4    0    0  0.73732655321E+02 -0.28840583534E+03  0.26225942471E+02  0.31203354739E+03  0.89792562709E+02 0.  0.
         23    2    4    4    0    0 -0.12219652368E+03  0.26051216318E+03  0.10278953173E+04  0.10710901649E+04  0.88694872753E+02 0.  0.
          2    1    3    3  502    0 -0.51592481802E+01 -0.38173246711E+01  0.26389463757E+03  0.26397266818E+03  0.00000000000E+00 0. -1.
         -1    1    3    3    0  502  0.53623116538E+02  0.31710996834E+02  0.19344551534E+03  0.20322941065E+03  0.00000000000E+00 0.  1.
         11    1    5    5    0    0 -0.12607379206E+02 -0.44380700984E+01 -0.32941131928E+01  0.13765669558E+02  0.00000000000E+00 0.  1.
        -11    1    5    5    0    0  0.86340034527E+02 -0.28396776524E+03  0.29520055664E+02  0.29826787783E+03  0.00000000000E+00 0. -1.
          3    1    6    6  503    0 -0.54187761076E+02  0.80492524505E+02  0.21755183935E+03  0.23821033302E+03  0.00000000000E+00 0. -1.
         -3    1    6    6    0  503 -0.68008762603E+02  0.18001963867E+03  0.81034347796E+03  0.83287983189E+03  0.00000000000E+00 0.  1.
<mgrwt>
<rscale>  0 0.10673284E+04</rscale>
<asrwt>0</asrwt>
<pdfrwt beam="1">  1        2 0.25859900E+00 0.10673284E+04</pdfrwt>
<pdfrwt beam="2">  1       -1 0.26066492E-01 0.10673284E+04</pdfrwt>
<totfact> 0.14845877E+02</totfact>
</mgrwt>
</event>
<event>
12    6  0.9491186E-008  0.2408766E+04  0.7818608E-02  0.8436229E-01
         -3   -1    0    0    0  501 -0.00000000000E+00  0.00000000000E+00  0.13501177202E+04  0.13501177202E+04  0.00000000000E+00 0.  1.
          4   -1    0    0  501    0  0.00000000000E+00 -0.00000000000E+00 -0.10743790223E+04  0.10743790223E+04  0.00000000000E+00 0. -1.
         24    2    1    2    0    0 -0.68957828242E+03  0.51467406471E+03  0.69480095518E+03  0.11089367476E+04  0.81146425151E+02 0.  0.
        254    2    1    2    0    0  0.68957828242E+03 -0.51467406471E+03 -0.41906225730E+03  0.13155599950E+04  0.90259477310E+03 0.  0.
         23    2    4    4    0    0  0.87772422644E+03 -0.26599143755E+03 -0.31261710086E+03  0.97324695479E+03  0.91262920922E+02 0.  0.
         23    2    4    4    0    0 -0.18814594402E+03 -0.24868262716E+03 -0.10644515644E+03  0.34231304018E+03  0.92766916765E+02 0.  0.
          2    1    3    3  502    0 -0.35958964535E+02  0.52915745784E+02  0.48831185769E+02  0.80483588301E+02  0.00000000000E+00 0. -1.
         -1    1    3    3    0  502 -0.65361931788E+03  0.46175831893E+03  0.64596976941E+03  0.10284531593E+04  0.00000000000E+00 0.  1.
         11    1    5    5    0    0  0.11105946390E+03 -0.24559181785E+02 -0.92359874286E+01  0.11411687603E+03  0.00000000000E+00 0.  1.
        -11    1    5    5    0    0  0.76666476254E+03 -0.24143225576E+03 -0.30338111344E+03  0.85913007876E+03  0.00000000000E+00 0. -1.
          3    1    6    6  503    0 -0.18927970097E+03 -0.23711168218E+03 -0.11836038356E+03  0.32566537338E+03  0.00000000000E+00 0. -1.
         -3    1    6    6    0  503  0.11337569464E+01 -0.11570944981E+02  0.11915227119E+02  0.16647666799E+02  0.00000000000E+00 0.  1.
<mgrwt>
<rscale>  0 0.24087658E+04</rscale>
<asrwt>0</asrwt>
<pdfrwt beam="1">  1        4 0.16528908E+00 0.24087658E+04</pdfrwt>
<pdfrwt beam="2">  1       -3 0.20771042E+00 0.24087658E+04</pdfrwt>
<totfact> 0.61405758E-02</totfact>
</mgrwt>
</event>
<event>
12    6  0.9491186E-008  0.1942470E+04  0.7818608E-02  0.8634000E-01
         -1   -1    0    0    0  501 -0.00000000000E+00  0.00000000000E+00  0.41075103729E+03  0.41075103729E+03  0.00000000000E+00 0.  1.
          2   -1    0    0  501    0  0.00000000000E+00 -0.00000000000E+00 -0.22965183017E+04  0.22965183017E+04  0.00000000000E+00 0. -1.
         24    2    1    2    0    0 -0.14253132043E+03 -0.62149100671E+03 -0.16181074357E+03  0.66325178096E+03  0.84581082343E+02 0.  0.
        254    2    1    2    0    0  0.14253132043E+03  0.62149100671E+03 -0.17239565208E+04  0.20440175580E+04  0.89410035399E+03 0.  0.
         23    2    4    4    0    0  0.31649816596E+03  0.53963386849E+03 -0.17187823854E+04  0.18314060489E+04  0.91975140896E+02 0.  0.
         23    2    4    4    0    0 -0.17396684553E+03  0.81857138220E+02 -0.51741354494E+01  0.21261150912E+03  0.90619135449E+02 0.  0.
          4    1    3    3  502    0 -0.40696884129E+02 -0.59618349886E+02 -0.18273547891E+02  0.74461443535E+02  0.00000000000E+00 0. -1.
         -3    1    3    3    0  502 -0.10183443630E+03 -0.56187265683E+03 -0.14353719568E+03  0.58879033743E+03  0.00000000000E+00 0.  1.
         11    1    5    5    0    0  0.16602922263E+01  0.30480659586E+02 -0.50951694827E+02  0.59396147895E+02  0.00000000000E+00 0.  1.
        -11    1    5    5    0    0  0.31483787373E+03  0.50915320891E+03 -0.16678306905E+04  0.17720099010E+04  0.00000000000E+00 0. -1.
          1    1    6    6  503    0 -0.16107311345E+03  0.55288575305E+02 -0.31337268590E+02  0.17315715070E+03  0.00000000000E+00 0. -1.
         -1    1    6    6    0  503 -0.12893732081E+02  0.26568562916E+02  0.26163133141E+02  0.39454358417E+02  0.00000000000E+00 0.  1.
<mgrwt>
<rscale>  0 0.19424698E+04</rscale>
<asrwt>0</asrwt>
<pdfrwt beam="1">  1        2 0.35331051E+00 0.19424698E+04</pdfrwt>
<pdfrwt beam="2">  1       -1 0.63192466E-01 0.19424698E+04</pdfrwt>
<totfact> 0.12294870E+01</totfact>
</mgrwt>
</event>
<event>
12    6  0.9491186E-008  0.1639693E+04  0.7818608E-02  0.8796527E-01
          2   -1    0    0  501    0  0.00000000000E+00  0.00000000000E+00  0.29317614116E+04  0.29317614116E+04  0.00000000000E+00 0. -1.
         -1   -1    0    0    0  501 -0.00000000000E+00 -0.00000000000E+00 -0.22926441790E+03  0.22926441790E+03  0.00000000000E+00 0.  1.
         24    2    1    2    0    0 -0.38987815193E+03 -0.41258581471E+03  0.82247907583E+03  0.10026011141E+04  0.80654423485E+02 0.  0.
        254    2    1    2    0    0  0.38987815193E+03  0.41258581471E+03  0.18800179179E+04  0.21584247154E+04  0.89559915840E+03 0.  0.
         23    2    4    4    0    0  0.15254743122E+03  0.26408486119E+03  0.71841162943E+02  0.32661096265E+03  0.92206483247E+02 0.  0.
         23    2    4    4    0    0  0.23733072072E+03  0.14850095353E+03  0.18081767549E+04  0.18318137527E+04  0.87521673785E+02 0.  0.
          4    1    3    3  502    0 -0.91840528087E+02 -0.69077052930E+02  0.12349913950E+03  0.16869605597E+03  0.00000000000E+00 0. -1.
         -3    1    3    3    0  502 -0.29803762385E+03 -0.34350876178E+03  0.69897993632E+03  0.83390505816E+03  0.00000000000E+00 0.  1.
         11    1    5    5    0    0  0.35317812740E+02  0.11706531487E+03 -0.75326999497E+01  0.12250868301E+03  0.00000000000E+00 0. -1.
        -11    1    5    5    0    0  0.11722961848E+03  0.14701954631E+03  0.79373862892E+02  0.20410227964E+03  0.00000000000E+00 0.  1.
          3    1    6    6  503    0  0.24226718342E+03  0.14397632883E+03  0.16809256864E+04  0.17043866154E+04  0.00000000000E+00 0. -1.
         -3    1    6    6    0  503 -0.49364627068E+01  0.45246247016E+01  0.12725106849E+03  0.12742713732E+03  0.00000000000E+00 0.  1.
<mgrwt>
<rscale>  0 0.16396934E+04</rscale>
<asrwt>0</asrwt>
<pdfrwt beam="1">  1        2 0.45104019E+00 0.16396934E+04</pdfrwt>
<pdfrwt beam="2">  1       -1 0.35271451E-01 0.16396934E+04</pdfrwt>
<totfact> 0.16076345E+01</totfact>
</mgrwt>
</event>
<event>
12    6  0.9491186E-008  0.1721775E+04  0.7818608E-02  0.8749042E-01
          2   -1    0    0  501    0  0.00000000000E+00  0.00000000000E+00  0.77027912342E+03  0.77027912342E+03  0.00000000000E+00 0. -1.
         -1   -1    0    0    0  501 -0.00000000000E+00 -0.00000000000E+00 -0.96215459195E+03  0.96215459195E+03  0.00000000000E+00 0.  1.
         24    2    1    2    0    0 -0.45971678293E+03 -0.16188838671E+03 -0.46261350628E+03  0.67765209208E+03  0.87485607133E+02 0.  0.
        254    2    1    2    0    0  0.45971678293E+03  0.16188838671E+03  0.27073803775E+03  0.10547816233E+04  0.89538696523E+03 0.  0.
         23    2    4    4    0    0  0.57770129226E+02 -0.33536526988E+03 -0.52558826423E+01  0.35233210899E+03  0.91121011046E+02 0.  0.
         23    2    4    4    0    0  0.40194665370E+03  0.49725365659E+03  0.27599392039E+03  0.70244951430E+03  0.91871457155E+02 0.  0.
          2    1    3    3  502    0 -0.95399942892E+02 -0.55233412682E+02 -0.14845296988E+03  0.18490582264E+03  0.00000000000E+00 0. -1.
         -3    1    3    3    0  502 -0.36431684004E+03 -0.10665497403E+03 -0.31416053640E+03  0.49274626944E+03  0.00000000000E+00 0.  1.
         11    1    5    5    0    0  0.78963025174E+02 -0.30155457054E+03  0.22447646267E+01  0.31172962215E+03  0.00000000000E+00 0.  1.
        -11    1    5    5    0    0 -0.21192895947E+02 -0.33810699341E+02 -0.75006472690E+01  0.40602486845E+02  0.00000000000E+00 0. -1.
          1    1    6    6  503    0  0.11891639348E+03  0.88118545055E+02  0.74542527614E+02  0.16571836061E+03  0.00000000000E+00 0. -1.
         -1    1    6    6    0  503  0.28303026022E+03  0.40913511153E+03  0.20145139277E+03  0.53673115369E+03  0.00000000000E+00 0.  1.
<mgrwt>
<rscale>  0 0.17217754E+04</rscale>
<asrwt>0</asrwt>
<pdfrwt beam="1">  1        2 0.11850448E+00 0.17217754E+04</pdfrwt>
<pdfrwt beam="2">  1       -1 0.14802378E+00 0.17217754E+04</pdfrwt>
<totfact> 0.14202763E+01</totfact>
</mgrwt>
</event>
<event>
12    6  0.9491186E-008  0.1752279E+04  0.7818608E-02  0.8732097E-01
         -1   -1    0    0    0  501 -0.00000000000E+00  0.00000000000E+00  0.37273190910E+03  0.37273190910E+03  0.00000000000E+00 0.  1.
          2   -1    0    0  501    0  0.00000000000E+00 -0.00000000000E+00 -0.20594437872E+04  0.20594437872E+04  0.00000000000E+00 0. -1.
         24    2    1    2    0    0 -0.34938431556E+03  0.23958742919E+03  0.45579639989E+02  0.43341448791E+03  0.79366734593E+02 0.  0.
        254    2    1    2    0    0  0.34938431556E+03 -0.23958742919E+03 -0.17322915181E+04  0.19987612084E+04  0.90263000636E+03 0.  0.
         23    2    4    4    0    0 -0.64818976393E+02  0.25124977456E+03 -0.21701243982E+03  0.35066243377E+03  0.92421829153E+02 0.  0.
         23    2    4    4    0    0  0.41420329196E+03 -0.49083720375E+03 -0.15152790783E+04  0.16480987747E+04  0.87597706832E+02 0.  0.
          4    1    3    3  502    0 -0.15780881927E+02 -0.23048806832E+01 -0.80546929534E+01  0.17866918814E+02  0.00000000000E+00 0. -1.
         -3    1    3    3    0  502 -0.33360343364E+03  0.24189230987E+03  0.53634332943E+02  0.41554756909E+03  0.00000000000E+00 0.  1.
         11    1    5    5    0    0 -0.73487648779E+02  0.15241969869E+03 -0.17343099119E+03  0.24230251294E+03  0.00000000000E+00 0. -1.
        -11    1    5    5    0    0  0.86686723859E+01  0.98830075869E+02 -0.43581448623E+02  0.10835992083E+03  0.00000000000E+00 0.  1.
          1    1    6    6  503    0  0.33498542858E+03 -0.38684848152E+03 -0.11104896411E+04  0.12227241014E+04  0.00000000000E+00 0. -1.
         -1    1    6    6    0  503  0.79217863376E+02 -0.10398872223E+03 -0.40478943720E+03  0.42537467331E+03  0.00000000000E+00 0.  1.
<mgrwt>
<rscale>  0 0.17522790E+04</rscale>
<asrwt>0</asrwt>
<pdfrwt beam="1">  1        2 0.31683751E+00 0.17522790E+04</pdfrwt>
<pdfrwt beam="2">  1       -1 0.57343371E-01 0.17522790E+04</pdfrwt>
<totfact> 0.20578532E+01</totfact>
</mgrwt>
</event>
<event>
12    6  0.9491186E-008  0.1056585E+04  0.7818608E-02  0.9248572E-01
          2   -1    0    0  501    0  0.00000000000E+00  0.00000000000E+00  0.32371388135E+03  0.32371388135E+03  0.00000000000E+00 0. -1.
         -1   -1    0    0    0  501 -0.00000000000E+00 -0.00000000000E+00 -0.86215957877E+03  0.86215957877E+03  0.00000000000E+00 0.  1.
         24    2    1    2    0    0 -0.88179134686E+02 -0.27624916192E+02  0.11341140362E+03  0.16413464572E+03  0.74426740260E+02 0.  0.
        254    2    1    2    0    0  0.88179134686E+02  0.27624916192E+02 -0.65185710105E+03  0.10217388144E+04  0.78134104518E+03 0.  0.
         23    2    4    4    0    0  0.65338474227E+02 -0.71807774442E+02 -0.80439508549E+03  0.81681350023E+03  0.10347641238E+03 0.  0.
         23    2    4    4    0    0  0.22840660459E+02  0.99432690634E+02  0.15253798444E+03  0.20492531417E+03  0.91203026006E+02 0.  0.
          4    1    3    3  502    0 -0.52164748990E+02  0.20798622965E+02  0.70263223382E+02  0.89948120127E+02  0.00000000000E+00 0. -1.
         -3    1    3    3    0  502 -0.36014385696E+02 -0.48423539157E+02  0.43148180239E+02  0.74186525593E+02  0.00000000000E+00 0.  1.
         11    1    5    5    0    0  0.36074646264E+02 -0.87158602904E+02 -0.72043610202E+03  0.72658528698E+03  0.00000000000E+00 0. -1.
        -11    1    5    5    0    0  0.29263827963E+02  0.15350828462E+02 -0.83958983468E+02  0.90228213251E+02  0.00000000000E+00 0.  1.
          2    1    6    6  503    0 -0.15504038934E+02  0.82960686040E+02  0.13595011747E+03  0.16001651506E+03  0.00000000000E+00 0. -1.
         -2    1    6    6    0  503  0.38344699393E+02  0.16472004594E+02  0.16587866974E+02  0.44908799112E+02  0.00000000000E+00 0.  1.
<mgrwt>
<rscale>  0 0.10565851E+04</rscale>
<asrwt>0</asrwt>
<pdfrwt beam="1">  1        2 0.49802136E-01 0.10565851E+04</pdfrwt>
<pdfrwt beam="2">  1       -1 0.13263993E+00 0.10565851E+04</pdfrwt>
<totfact> 0.55433266E+01</totfact>
</mgrwt>
</event>
<event>
12    6  0.9491186E-008  0.2907999E+04  0.7818608E-02  0.8270501E-01
         -1   -1    0    0    0  501 -0.00000000000E+00  0.00000000000E+00  0.15289815030E+04  0.15289815030E+04  0.00000000000E+00 0.  1.
          2   -1    0    0  501    0  0.00000000000E+00 -0.00000000000E+00 -0.13826950323E+04  0.13826950323E+04  0.00000000000E+00 0. -1.
         24    2    1    2    0    0 -0.27189900616E+03 -0.63704114657E+03 -0.10497032977E+04  0.12601560631E+04  0.79785951583E+02 0.  0.
        254    2    1    2    0    0  0.27189900616E+03  0.63704114657E+03  0.11959897685E+04  0.16515204722E+04  0.90408951534E+03 0.  0.
         23    2    4    4    0    0 -0.17085475751E+03  0.16902434811E+03  0.90150331617E+03  0.93738338665E+03  0.90657631157E+02 0.  0.
         23    2    4    4    0    0  0.44275376367E+03  0.46801679846E+03  0.29448645228E+03  0.71413708551E+03  0.90547708084E+02 0.  0.
          4    1    3    3  502    0 -0.15757870905E+03 -0.41804015785E+03 -0.61470219869E+03  0.75989960928E+03  0.00000000000E+00 0. -1.
         -3    1    3    3    0  502 -0.11432029711E+03 -0.21900098872E+03 -0.43500109904E+03  0.50025645379E+03  0.00000000000E+00 0.  1.
         11    1    5    5    0    0 -0.14056844519E+03  0.78583873246E+02  0.53913999718E+03  0.56267828239E+03  0.00000000000E+00 0. -1.
        -11    1    5    5    0    0 -0.30286312317E+02  0.90440474864E+02  0.36236331899E+03  0.37470510426E+03  0.00000000000E+00 0.  1.
          3    1    6    6  503    0  0.29745750441E+03  0.30506582927E+03  0.24037672938E+03  0.48921068994E+03  0.00000000000E+00 0. -1.
         -3    1    6    6    0  503  0.14529625925E+03  0.16295096918E+03  0.54109722902E+02  0.22492639557E+03  0.00000000000E+00 0.  1.
<mgrwt>
<rscale>  0 0.29079994E+04</rscale>
<asrwt>0</asrwt>
<pdfrwt beam="1">  1        2 0.21272231E+00 0.29079994E+04</pdfrwt>
<pdfrwt beam="2">  1       -1 0.23522792E+00 0.29079994E+04</pdfrwt>
<totfact> 0.12676706E+00</totfact>
</mgrwt>
</event>
<event>
12    6  0.9491186E-008  0.1206673E+04  0.7818608E-02  0.9107035E-01
          2   -1    0    0  501    0  0.00000000000E+00  0.00000000000E+00  0.18333082708E+04  0.18333082708E+04  0.00000000000E+00 0. -1.
         -1   -1    0    0    0  501 -0.00000000000E+00 -0.00000000000E+00 -0.19855645234E+03  0.19855645234E+03  0.00000000000E+00 0.  1.
         24    2    1    2    0    0  0.62063691778E+01 -0.15087294719E+03  0.61322634446E+03  0.63697505296E+03  0.83003032145E+02 0.  0.
        254    2    1    2    0    0 -0.62063691778E+01  0.15087294719E+03  0.10215254740E+04  0.13948896702E+04  0.93776422022E+03 0.  0.
         23    2    4    4    0    0  0.42327329849E+02 -0.14916805872E+03  0.10599384161E+04  0.10757492657E+04  0.98611987915E+02 0.  0.
         23    2    4    4    0    0 -0.48533699027E+02  0.30004100590E+03 -0.38412942146E+02  0.31914040442E+03  0.89414307831E+02 0.  0.
          4    1    3    3  502    0  0.32812141267E+01 -0.12689717676E+03  0.58987593415E+03  0.60337987828E+03  0.00000000000E+00 0. -1.
         -3    1    3    3    0  502  0.29251550512E+01 -0.23975770429E+02  0.23350410314E+02  0.33595174677E+02  0.00000000000E+00 0.  1.
         11    1    5    5    0    0  0.17598104397E+02 -0.67530082284E+02  0.77968193203E+03  0.78279877390E+03  0.00000000000E+00 0. -1.
        -11    1    5    5    0    0  0.24729225452E+02 -0.81637976433E+02  0.28025648411E+03  0.29295049185E+03  0.00000000000E+00 0.  1.
          3    1    6    6  503    0  0.51605253753E+01  0.48757495067E+02 -0.38248507172E+02  0.62184183264E+02  0.00000000000E+00 0. -1.
         -3    1    6    6    0  503 -0.53694224402E+02  0.25128351084E+03 -0.16443497486E+00  0.25695622116E+03  0.00000000000E+00 0.  1.
<mgrwt>
<rscale>  0 0.12066734E+04</rscale>
<asrwt>0</asrwt>
<pdfrwt beam="1">  1        2 0.28204742E+00 0.12066734E+04</pdfrwt>
<pdfrwt beam="2">  1       -1 0.30547148E-01 0.12066734E+04</pdfrwt>
<totfact> 0.91874687E+01</totfact>
</mgrwt>
</event>
<event>
12    6  0.9491186E-008  0.3368460E+04  0.7818608E-02  0.8145691E-01
         -1   -1    0    0    0  501 -0.00000000000E+00  0.00000000000E+00  0.17427788736E+04  0.17427788736E+04  0.00000000000E+00 0.  1.
          2   -1    0    0  501    0  0.00000000000E+00 -0.00000000000E+00 -0.16276478526E+04  0.16276478526E+04  0.00000000000E+00 0. -1.
         24    2    1    2    0    0 -0.15002554836E+04 -0.17031029612E+03  0.45387877495E+03  0.15786024631E+04  0.78788839085E+02 0.  0.
        254    2    1    2    0    0  0.15002554836E+04  0.17031029612E+03 -0.33874775399E+03  0.17918242631E+04  0.90338919410E+03 0.  0.
         23    2    4    4    0    0  0.35706123678E+03 -0.99730777225E+02 -0.47017372088E+03  0.60645063371E+03  0.96333216464E+02 0.  0.
         23    2    4    4    0    0  0.11431942468E+04  0.27004107335E+03  0.13142596689E+03  0.11853736294E+04  0.89568907837E+02 0.  0.
          4    1    3    3  502    0 -0.10041096372E+04 -0.10571574891E+03  0.34105339445E+03  0.10657060575E+04  0.00000000000E+00 0. -1.
         -3    1    3    3    0  502 -0.49614584630E+03 -0.64594547209E+02  0.11282538050E+03  0.51289640554E+03  0.00000000000E+00 0.  1.
         11    1    5    5    0    0  0.26162840224E+03 -0.27801371571E+02 -0.33649026945E+03  0.42713936666E+03  0.00000000000E+00 0. -1.
        -11    1    5    5    0    0  0.95432834535E+02 -0.71929405654E+02 -0.13368345143E+03  0.17931126705E+03  0.00000000000E+00 0.  1.
          1    1    6    6  503    0  0.10129495826E+04  0.26741813424E+03  0.11114590813E+03  0.10535334491E+04  0.00000000000E+00 0. -1.
         -1    1    6    6    0  503  0.13024466416E+03  0.26229391027E+01  0.20280058761E+02  0.13184018028E+03  0.00000000000E+00 0.  1.
<mgrwt>
<rscale>  0 0.33684598E+04</rscale>
<asrwt>0</asrwt>
<pdfrwt beam="1">  1        2 0.25040736E+00 0.33684598E+04</pdfrwt>
<pdfrwt beam="2">  1       -1 0.26811983E+00 0.33684598E+04</pdfrwt>
<totfact> 0.54064883E-01</totfact>
</mgrwt>
</event>
<event>
12    6  0.9491186E-008  0.2123008E+04  0.7818608E-02  0.8551176E-01
         -1   -1    0    0    0  501 -0.00000000000E+00  0.00000000000E+00  0.92990124483E+03  0.92990124483E+03  0.00000000000E+00 0.  1.
          2   -1    0    0  501    0  0.00000000000E+00 -0.00000000000E+00 -0.12117310960E+04  0.12117310960E+04  0.00000000000E+00 0. -1.
         24    2    1    2    0    0  0.43286423061E+03  0.74343145615E+03 -0.21572912613E+03  0.89063993737E+03  0.81478034094E+02 0.  0.
        254    2    1    2    0    0 -0.43286423061E+03 -0.74343145615E+03 -0.66100725002E+02  0.12509924034E+04  0.90584265490E+03 0.  0.
         23    2    4    4    0    0 -0.46877261124E+03 -0.92158582457E+03 -0.10498863392E+03  0.10434456218E+04  0.93209223259E+02 0.  0.
         23    2    4    4    0    0  0.35908380636E+02  0.17815436842E+03  0.38887908923E+02  0.20754678162E+03  0.92385097889E+02 0.  0.
          4    1    3    3  502    0  0.36446504647E+03  0.64382110270E+03 -0.15704068564E+03  0.75630824359E+03  0.00000000000E+00 0. -1.
         -3    1    3    3    0  502  0.68399184140E+02  0.99610353455E+02 -0.58688440493E+02  0.13433169378E+03  0.00000000000E+00 0.  1.
         11    1    5    5    0    0 -0.37894983638E+03 -0.69211033774E+03 -0.11167622057E+03  0.79692614234E+03  0.00000000000E+00 0.  1.
        -11    1    5    5    0    0 -0.89822774864E+02 -0.22947548683E+03  0.66875866425E+01  0.24651947947E+03  0.00000000000E+00 0. -1.
          3    1    6    6  503    0  0.30175168548E+02  0.77155955130E+02 -0.26630982262E+02  0.87021787071E+02  0.00000000000E+00 0. -1.
         -3    1    6    6    0  503  0.57332120880E+01  0.10099841329E+03  0.65518891185E+02  0.12052499455E+03  0.00000000000E+00 0.  1.
<mgrwt>
<rscale>  0 0.21230075E+04</rscale>
<asrwt>0</asrwt>
<pdfrwt beam="1">  1        2 0.18642017E+00 0.21230075E+04</pdfrwt>
<pdfrwt beam="2">  1       -1 0.14306173E+00 0.21230075E+04</pdfrwt>
<totfact> 0.77391290E+00</totfact>
</mgrwt>
</event>
<event>
12    6  0.9491186E-008  0.1550516E+04  0.7818608E-02  0.8851539E-01
          2   -1    0    0  501    0  0.00000000000E+00  0.00000000000E+00  0.15212392153E+04  0.15212392153E+04  0.00000000000E+00 0. -1.
         -3   -1    0    0    0  501 -0.00000000000E+00 -0.00000000000E+00 -0.39508882466E+03  0.39508882466E+03  0.00000000000E+00 0.  1.
         24    2    1    2    0    0 -0.44479206442E+03 -0.69757708947E+02  0.66664714968E+03  0.80842705903E+03  0.80185840879E+02 0.  0.
        254    2    1    2    0    0  0.44479206442E+03  0.69757708947E+02  0.45950324099E+03  0.11079009810E+04  0.90199514223E+03 0.  0.
         23    2    4    4    0    0  0.69086853539E+02  0.11785046182E+03 -0.24977586781E+03  0.29873846463E+03  0.90526026265E+02 0.  0.
         23    2    4    4    0    0  0.37570521088E+03 -0.48092752869E+02  0.70927910880E+03  0.80916251633E+03  0.90552776264E+02 0.  0.
          2    1    3    3  502    0 -0.41639137134E+03 -0.78372933906E+02  0.59119976083E+03  0.72735221736E+03  0.00000000000E+00 0. -1.
         -1    1    3    3    0  502 -0.28400693082E+02  0.86152249589E+01  0.75447388843E+02  0.81074841670E+02  0.00000000000E+00 0.  1.
         11    1    5    5    0    0  0.17865411933E+02  0.46358267754E+02 -0.17924451093E+03  0.18600230276E+03  0.00000000000E+00 0.  1.
        -11    1    5    5    0    0  0.51221441605E+02  0.71492194062E+02 -0.70531356879E+02  0.11273616188E+03  0.00000000000E+00 0. -1.
          1    1    6    6  503    0  0.11555435148E+03 -0.41473101109E+00  0.14063331019E+03  0.18201842787E+03  0.00000000000E+00 0.  1.
         -1    1    6    6    0  503  0.26015085940E+03 -0.47678021858E+02  0.56864579861E+03  0.62714408846E+03  0.00000000000E+00 0. -1.
<mgrwt>
<rscale>  0 0.15505155E+04</rscale>
<asrwt>0</asrwt>
<pdfrwt beam="1">  1        2 0.23403680E+00 0.15505155E+04</pdfrwt>
<pdfrwt beam="2">  1       -3 0.60782897E-01 0.15505155E+04</pdfrwt>
<totfact> 0.20072176E+01</totfact>
</mgrwt>
</event>
<event>
12    6  0.9491186E-008  0.2543924E+04  0.7818608E-02  0.8387502E-01
          2   -1    0    0  501    0  0.00000000000E+00  0.00000000000E+00  0.31227647825E+04  0.31227647825E+04  0.00000000000E+00 0. -1.
         -1   -1    0    0    0  501 -0.00000000000E+00 -0.00000000000E+00 -0.51809452286E+03  0.51809452286E+03  0.00000000000E+00 0.  1.
         24    2    1    2    0    0  0.10347128702E+04  0.39143532589E+03  0.10115887156E+04  0.15013354736E+04  0.82729296276E+02 0.  0.
        254    2    1    2    0    0 -0.10347128702E+04 -0.39143532589E+03  0.15930815441E+04  0.21395238318E+04  0.90321707403E+03 0.  0.
         23    2    4    4    0    0 -0.86982814917E+03 -0.25700426325E+03  0.16639421719E+04  0.18973547460E+04  0.92732303716E+02 0.  0.
         23    2    4    4    0    0 -0.16488472104E+03 -0.13443106265E+03 -0.70860627892E+02  0.24216908583E+03  0.91465598512E+02 0.  0.
          2    1    3    3  502    0  0.65354812412E+03  0.25376232614E+03  0.58698350579E+03  0.91436869192E+03  0.00000000000E+00 0. -1.
         -1    1    3    3    0  502  0.38116474610E+03  0.13767299975E+03  0.42460520985E+03  0.58696678165E+03  0.00000000000E+00 0.  1.
         11    1    5    5    0    0 -0.19020544841E+03 -0.19038668908E+02  0.32413541956E+03  0.37630353936E+03  0.00000000000E+00 0.  1.
        -11    1    5    5    0    0 -0.67962270076E+03 -0.23796559434E+03  0.13398067524E+04  0.15210512066E+04  0.00000000000E+00 0. -1.
          2    1    6    6  503    0 -0.55234979044E+02 -0.62631556859E+02 -0.73249546535E+02  0.11108155064E+03  0.00000000000E+00 0. -1.
         -2    1    6    6    0  503 -0.10964974200E+03 -0.71799505788E+02  0.23889186430E+01  0.13108753519E+03  0.00000000000E+00 0.  1.
<mgrwt>
<rscale>  0 0.25439240E+04</rscale>
<asrwt>0</asrwt>
<pdfrwt beam="1">  1        2 0.48042534E+00 0.25439240E+04</pdfrwt>
<pdfrwt beam="2">  1       -1 0.79706851E-01 0.25439240E+04</pdfrwt>
<totfact> 0.23122226E+00</totfact>
</mgrwt>
</event>
<event>
12    6  0.9491186E-008  0.3253236E+04  0.7818608E-02  0.8174897E-01
          2   -1    0    0  501    0  0.00000000000E+00  0.00000000000E+00  0.27630049230E+04  0.27630049230E+04  0.00000000000E+00 0. -1.
         -1   -1    0    0    0  501 -0.00000000000E+00 -0.00000000000E+00 -0.95761208163E+03  0.95761208163E+03  0.00000000000E+00 0.  1.
         24    2    1    2    0    0  0.71795625870E+03  0.31678302092E+03  0.23011363704E+04  0.24325307211E+04  0.78513962123E+02 0.  0.
        254    2    1    2    0    0 -0.71795625870E+03 -0.31678302092E+03 -0.49574352898E+03  0.12880862836E+04  0.89308003874E+03 0.  0.
         23    2    4    4    0    0 -0.11265038818E+03 -0.52332836824E+03 -0.24383210662E+03  0.59537461366E+03  0.91946415911E+02 0.  0.
         23    2    4    4    0    0 -0.60530587052E+03  0.20654534732E+03 -0.25191142236E+03  0.69271166990E+03  0.85638282963E+02 0.  0.
          2    1    3    3  502    0  0.44955461229E+03  0.23453931109E+03  0.14254605347E+04  0.15129592770E+04  0.00000000000E+00 0. -1.
         -1    1    3    3    0  502  0.26840164641E+03  0.82243709829E+02  0.87567583572E+03  0.91957144413E+03  0.00000000000E+00 0.  1.
         11    1    5    5    0    0 -0.10840665749E+03 -0.29303413161E+03 -0.15130410659E+03  0.34715117507E+03  0.00000000000E+00 0.  1.
        -11    1    5    5    0    0 -0.42437306942E+01 -0.23029423663E+03 -0.92528000028E+02  0.24822343859E+03  0.00000000000E+00 0. -1.
          3    1    6    6  503    0 -0.29200778862E+03  0.57625319389E+02 -0.99671793658E+02  0.31388483955E+03  0.00000000000E+00 0. -1.
         -3    1    6    6    0  503 -0.31329808190E+03  0.14892002793E+03 -0.15223962870E+03  0.37882683035E+03  0.00000000000E+00 0.  1.
<mgrwt>
<rscale>  0 0.32532365E+04</rscale>
<asrwt>0</asrwt>
<pdfrwt beam="1">  1        2 0.42507768E+00 0.32532365E+04</pdfrwt>
<pdfrwt beam="2">  1       -1 0.14732494E+00 0.32532365E+04</pdfrwt>
<totfact> 0.84874059E-01</totfact>
</mgrwt>
</event>
<event>
12    6  0.9491186E-008  0.1270406E+04  0.7818608E-02  0.9053369E-01
          2   -1    0    0  501    0  0.00000000000E+00  0.00000000000E+00  0.15671791186E+04  0.15671791186E+04  0.00000000000E+00 0. -1.
         -1   -1    0    0    0  501 -0.00000000000E+00 -0.00000000000E+00 -0.25745782964E+03  0.25745782964E+03  0.00000000000E+00 0.  1.
         24    2    1    2    0    0 -0.17518876117E+03 -0.24729563371E+03  0.21683327279E+03  0.38098439387E+03  0.79285608362E+02 0.  0.
        254    2    1    2    0    0  0.17518876117E+03  0.24729563371E+03  0.10928880161E+04  0.14436525543E+04  0.89324254787E+03 0.  0.
         23    2    4    4    0    0  0.30670042117E+03 -0.70796893779E+02  0.39421156568E+02  0.33122841248E+03  0.95293678351E+02 0.  0.
         23    2    4    4    0    0 -0.13151166000E+03  0.31809252748E+03  0.10534668596E+04  0.11124241419E+04  0.96004554103E+02 0.  0.
          4    1    3    3  502    0 -0.39923614644E+02 -0.90043674939E+02  0.33166840999E+02  0.10393169750E+03  0.00000000000E+00 0. -1.
         -3    1    3    3    0  502 -0.13526514653E+03 -0.15725195877E+03  0.18366643179E+03  0.27705269637E+03  0.00000000000E+00 0.  1.
         11    1    5    5    0    0  0.31071377568E+02 -0.40556119706E+02 -0.45720492633E+00  0.51092449402E+02  0.00000000000E+00 0.  1.
        -11    1    5    5    0    0  0.27562904360E+03 -0.30240774073E+02  0.39878361495E+02  0.28013596308E+03  0.00000000000E+00 0. -1.
          4    1    6    6  503    0 -0.12669195022E+03  0.29632007120E+03  0.10331915091E+04  0.10822851423E+04  0.00000000000E+00 0. -1.
         -4    1    6    6    0  503 -0.48197097810E+01  0.21772456284E+02  0.20275350461E+02  0.30138999508E+02  0.00000000000E+00 0.  1.
<mgrwt>
<rscale>  0 0.12704055E+04</rscale>
<asrwt>0</asrwt>
<pdfrwt beam="1">  1        2 0.24110447E+00 0.12704055E+04</pdfrwt>
<pdfrwt beam="2">  1       -1 0.39608898E-01 0.12704055E+04</pdfrwt>
<totfact> 0.80716997E+01</totfact>
</mgrwt>
</event>
<event>
12    6  0.9491186E-008  0.2604169E+04  0.7818608E-02  0.8366786E-01
         -1   -1    0    0    0  501 -0.00000000000E+00  0.00000000000E+00  0.11907104961E+04  0.11907104961E+04  0.00000000000E+00 0.  1.
          2   -1    0    0  501    0  0.00000000000E+00 -0.00000000000E+00 -0.14238758974E+04  0.14238758974E+04  0.00000000000E+00 0. -1.
         24    2    1    2    0    0  0.60769049534E+03 -0.72536512167E+03 -0.75599599367E+03  0.12140528606E+04  0.83379301976E+02 0.  0.
        254    2    1    2    0    0 -0.60769049534E+03  0.72536512167E+03  0.52283059234E+03  0.14005335330E+04  0.89033704340E+03 0.  0.
         23    2    4    4    0    0 -0.30653579104E+03  0.88265644910E+03  0.44622492483E+03  0.10394726886E+04  0.91324632138E+02 0.  0.
         23    2    4    4    0    0 -0.30115470430E+03 -0.15729132743E+03  0.76605667506E+02  0.36106084440E+03  0.95193421273E+02 0.  0.
          4    1    3    3  502    0  0.51714453915E+03 -0.64801345558E+03 -0.63526836482E+03  0.10444739386E+04  0.00000000000E+00 0. -1.
         -3    1    3    3    0  502  0.90545956193E+02 -0.77351666082E+02 -0.12072762885E+03  0.16957892203E+03  0.00000000000E+00 0.  1.
         11    1    5    5    0    0 -0.12619176618E+02  0.12169044268E+03  0.72207019557E+02  0.14206217347E+03  0.00000000000E+00 0. -1.
        -11    1    5    5    0    0 -0.29391661442E+03  0.76096600642E+03  0.37401790528E+03  0.89741051511E+03  0.00000000000E+00 0.  1.
          4    1    6    6  503    0 -0.83901110569E+02 -0.74544408333E+02 -0.10672027820E+02  0.11273933362E+03  0.00000000000E+00 0. -1.
         -4    1    6    6    0  503 -0.21725359374E+03 -0.82746919099E+02  0.87277695326E+02  0.24832151077E+03  0.00000000000E+00 0.  1.
<mgrwt>
<rscale>  0 0.26041689E+04</rscale>
<asrwt>0</asrwt>
<pdfrwt beam="1">  1        2 0.21905783E+00 0.26041689E+04</pdfrwt>
<pdfrwt beam="2">  1       -1 0.18318623E+00 0.26041689E+04</pdfrwt>
<totfact> 0.27890544E+00</totfact>
</mgrwt>
</event>
<event>
12    6  0.9491186E-008  0.3831350E+04  0.7818608E-02  0.8039461E-01
          2   -1    0    0  501    0  0.00000000000E+00  0.00000000000E+00  0.26568382674E+04  0.26568382674E+04  0.00000000000E+00 0. -1.
         -1   -1    0    0    0  501 -0.00000000000E+00 -0.00000000000E+00 -0.13812696769E+04  0.13812696769E+04  0.00000000000E+00 0.  1.
         24    2    1    2    0    0 -0.56154837260E+03  0.48180641676E+03 -0.11360563208E+04  0.13581353043E+04  0.80209368233E+02 0.  0.
        254    2    1    2    0    0  0.56154837260E+03 -0.48180641676E+03  0.24116249113E+04  0.26799726399E+04  0.90490034801E+03 0.  0.
         23    2    4    4    0    0  0.79271490456E+03 -0.29998308883E+03  0.19097847714E+04  0.20913640787E+04  0.90216757931E+02 0.  0.
         23    2    4    4    0    0 -0.23116653196E+03 -0.18182332793E+03  0.50184013997E+03  0.58860856120E+03  0.90104517935E+02 0.  0.
          4    1    3    3  502    0 -0.30874213989E+03  0.30233285469E+03 -0.61071031820E+03  0.74812696564E+03  0.00000000000E+00 0. -1.
         -3    1    3    3    0  502 -0.25280623272E+03  0.17947356207E+03 -0.52534600261E+03  0.61000833866E+03  0.00000000000E+00 0.  1.
         11    1    5    5    0    0  0.37155580437E+03 -0.16623855135E+03  0.10096667667E+04  0.10886303098E+04  0.00000000000E+00 0. -1.
        -11    1    5    5    0    0  0.42115910019E+03 -0.13374453749E+03  0.90011800466E+03  0.10027337689E+04  0.00000000000E+00 0.  1.
          1    1    6    6  503    0  0.19696566404E+01 -0.92897381970E+01  0.55535594574E+02  0.56341645767E+02  0.00000000000E+00 0. -1.
         -1    1    6    6    0  503 -0.23313618860E+03 -0.17253358973E+03  0.44630454540E+03  0.53226691543E+03  0.00000000000E+00 0.  1.
<mgrwt>
<rscale>  0 0.38313497E+04</rscale>
<asrwt>0</asrwt>
<pdfrwt beam="1">  1        2 0.40874435E+00 0.38313497E+04</pdfrwt>
<pdfrwt beam="2">  1       -1 0.21250303E+00 0.38313497E+04</pdfrwt>
<totfact> 0.31641755E-01</totfact>
</mgrwt>
</event>
<event>
12    6  0.9491186E-008  0.1444654E+04  0.7818608E-02  0.8922115E-01
          2   -1    0    0  501    0  0.00000000000E+00  0.00000000000E+00  0.15169534690E+04  0.15169534690E+04  0.00000000000E+00 0. -1.
         -1   -1    0    0    0  501 -0.00000000000E+00 -0.00000000000E+00 -0.34395003941E+03  0.34395003941E+03  0.00000000000E+00 0.  1.
         24    2    1    2    0    0  0.97334808607E+02  0.10547265178E+03  0.86133484894E+03  0.87708192039E+03  0.82319061137E+02 0.  0.
        254    2    1    2    0    0 -0.97334808607E+02 -0.10547265178E+03  0.31166858069E+03  0.98382158807E+03  0.92204613101E+03 0.  0.
         23    2    4    4    0    0  0.27718012998E+03 -0.27490428640E+02 -0.18710435617E+03  0.34795892473E+03  0.92102253397E+02 0.  0.
         23    2    4    4    0    0 -0.37451493859E+03 -0.77982223135E+02  0.49877293686E+03  0.63586266333E+03  0.95938614352E+02 0.  0.
          2    1    3    3  502    0  0.31803561896E+02  0.44637739242E+02  0.56229967448E+03  0.56496452830E+03  0.00000000000E+00 0. -1.
         -1    1    3    3    0  502  0.65531246712E+02  0.60834912533E+02  0.29903517446E+03  0.31211739209E+03  0.00000000000E+00 0.  1.
         11    1    5    5    0    0  0.19558454338E+03 -0.48770745874E+02 -0.94219717077E+02  0.22250675124E+03  0.00000000000E+00 0.  1.
        -11    1    5    5    0    0  0.81595586603E+02  0.21280317234E+02 -0.92884639093E+02  0.12545217349E+03  0.00000000000E+00 0. -1.
          4    1    6    6  503    0 -0.45573249953E+02 -0.43959406270E+02  0.90713900646E+02  0.11062713176E+03  0.00000000000E+00 0. -1.
         -4    1    6    6    0  503 -0.32894168863E+03 -0.34022816865E+02  0.40805903622E+03  0.52523553157E+03  0.00000000000E+00 0.  1.
<mgrwt>
<rscale>  0 0.14446539E+04</rscale>
<asrwt>0</asrwt>
<pdfrwt beam="1">  1        2 0.23337745E+00 0.14446539E+04</pdfrwt>
<pdfrwt beam="2">  1       -1 0.52915392E-01 0.14446539E+04</pdfrwt>
<totfact> 0.49419053E+01</totfact>
</mgrwt>
</event>
<event>
12    6  0.9491186E-008  0.1675751E+04  0.7818608E-02  0.8775317E-01
         -1   -1    0    0    0  501 -0.00000000000E+00  0.00000000000E+00  0.58642325452E+03  0.58642325452E+03  0.00000000000E+00 0.  1.
          2   -1    0    0  501    0  0.00000000000E+00 -0.00000000000E+00 -0.11971476406E+04  0.11971476406E+04  0.00000000000E+00 0. -1.
         24    2    1    2    0    0  0.14013446781E+03  0.46155119770E+03 -0.59956575240E+03  0.77364204633E+03  0.79848276339E+02 0.  0.
        254    2    1    2    0    0 -0.14013446781E+03 -0.46155119770E+03 -0.11158633630E+02  0.10099288487E+04  0.88722296367E+03 0.  0.
         23    2    4    4    0    0 -0.35086641072E+03 -0.61110105104E+03  0.90271246626E+02  0.71628601700E+03  0.91460523899E+02 0.  0.
         23    2    4    4    0    0  0.21073194291E+03  0.14954985334E+03 -0.10142988026E+03  0.29364283174E+03  0.95733910553E+02 0.  0.
          4    1    3    3  502    0  0.98891984674E+02  0.39955819313E+03 -0.53549573346E+03  0.67541250720E+03  0.00000000000E+00 0. -1.
         -3    1    3    3    0  502  0.41242483135E+02  0.61993004575E+02 -0.64070018943E+02  0.98229539136E+02  0.00000000000E+00 0.  1.
         11    1    5    5    0    0 -0.10928139383E+03 -0.13627584892E+03  0.51559817035E+02  0.18213166877E+03  0.00000000000E+00 0.  1.
        -11    1    5    5    0    0 -0.24158501688E+03 -0.47482520212E+03  0.38711429591E+02  0.53415434823E+03  0.00000000000E+00 0. -1.
          1    1    6    6  503    0  0.17496477653E+03  0.16104032271E+03 -0.83639893608E+02  0.25207596150E+03  0.00000000000E+00 0. -1.
         -1    1    6    6    0  503  0.35767166375E+02 -0.11490469366E+02 -0.17789986649E+02  0.41566870242E+02  0.00000000000E+00 0.  1.
<mgrwt>
<rscale>  0 0.16757508E+04</rscale>
<asrwt>0</asrwt>
<pdfrwt beam="1">  1        2 0.18417656E+00 0.16757508E+04</pdfrwt>
<pdfrwt beam="2">  1       -1 0.90218963E-01 0.16757508E+04</pdfrwt>
<totfact> 0.24839309E+01</totfact>
</mgrwt>
</event>
<event>
12    6  0.9491186E-008  0.2359544E+04  0.7818608E-02  0.8454807E-01
         -1   -1    0    0    0  501 -0.00000000000E+00  0.00000000000E+00  0.68548608505E+03  0.68548608505E+03  0.00000000000E+00 0.  1.
          2   -1    0    0  501    0  0.00000000000E+00 -0.00000000000E+00 -0.20304743255E+04  0.20304743255E+04  0.00000000000E+00 0. -1.
         24    2    1    2    0    0 -0.86285258522E+03  0.44443227850E+03 -0.88901405516E+03  0.13185532581E+04  0.78753222472E+02 0.  0.
        254    2    1    2    0    0  0.86285258522E+03 -0.44443227850E+03 -0.45597418531E+03  0.13974071525E+04  0.89599088067E+03 0.  0.
         23    2    4    4    0    0  0.27448039857E+02 -0.46085476077E+03 -0.24514142453E+03  0.53068819553E+03  0.91624982630E+02 0.  0.
         23    2    4    4    0    0  0.83540454537E+03  0.16422482270E+02 -0.21083276078E+03  0.86671895699E+03  0.92632850784E+02 0.  0.
          4    1    3    3  502    0 -0.26904278622E+03  0.11585856290E+03 -0.22823271860E+03  0.37134539347E+03  0.00000000000E+00 0. -1.
         -3    1    3    3    0  502 -0.59380979901E+03  0.32857371559E+03 -0.66078133656E+03  0.94720786458E+03  0.00000000000E+00 0.  1.
         11    1    5    5    0    0  0.22551373076E+02 -0.38188171398E+03 -0.23956205737E+03  0.45136702054E+03  0.00000000000E+00 0. -1.
        -11    1    5    5    0    0  0.48966667810E+01 -0.78973046783E+02 -0.55793671638E+01  0.79321174989E+02  0.00000000000E+00 0.  1.
          3    1    6    6  503    0  0.67038483567E+03 -0.20931105090E+02 -0.15327633540E+03  0.68800259741E+03  0.00000000000E+00 0. -1.
         -3    1    6    6    0  503  0.16501970970E+03  0.37353587360E+02 -0.57556425381E+02  0.17871635958E+03  0.00000000000E+00 0.  1.
<mgrwt>
<rscale>  0 0.23595439E+04</rscale>
<asrwt>0</asrwt>
<pdfrwt beam="1">  1        2 0.31238066E+00 0.23595439E+04</pdfrwt>
<pdfrwt beam="2">  1       -1 0.10545940E+00 0.23595439E+04</pdfrwt>
<totfact> 0.55588739E+00</totfact>
</mgrwt>
</event>
<event>
12    6  0.9491186E-008  0.1415931E+04  0.7818608E-02  0.8942367E-01
         -1   -1    0    0    0  501 -0.00000000000E+00  0.00000000000E+00  0.51814396410E+03  0.51814396410E+03  0.00000000000E+00 0.  1.
          2   -1    0    0  501    0  0.00000000000E+00 -0.00000000000E+00 -0.96732809455E+03  0.96732809455E+03  0.00000000000E+00 0. -1.
         24    2    1    2    0    0 -0.35009277495E+03 -0.21682205238E+03 -0.86201575065E+02  0.42820278670E+03  0.79687900726E+02 0.  0.
        254    2    1    2    0    0  0.35009277495E+03  0.21682205238E+03 -0.36298255539E+03  0.10572692720E+04  0.90359571957E+03 0.  0.
         23    2    4    4    0    0 -0.22706324275E+03  0.31733412096E+03 -0.13216735085E+03  0.42183797031E+03  0.90666443820E+02 0.  0.
         23    2    4    4    0    0  0.57715601770E+03 -0.10051206858E+03 -0.23081520454E+03  0.63543130164E+03  0.85355349916E+02 0.  0.
          4    1    3    3  502    0 -0.44586158510E+02 -0.52414779578E+02 -0.35978998300E+02  0.77651290830E+02  0.00000000000E+00 0. -1.
         -3    1    3    3    0  502 -0.30550661644E+03 -0.16440727280E+03 -0.50222576765E+02  0.35055149587E+03  0.00000000000E+00 0.  1.
         11    1    5    5    0    0 -0.45181013571E+02  0.28298925131E+02 -0.44040469821E+02  0.69149953962E+02  0.00000000000E+00 0. -1.
        -11    1    5    5    0    0 -0.18188222918E+03  0.28903519583E+03 -0.88126881024E+02  0.35268801635E+03  0.00000000000E+00 0.  1.
          4    1    6    6  503    0  0.33983108451E+01 -0.10697965674E+02 -0.31778029480E+01  0.11665908355E+02  0.00000000000E+00 0. -1.
         -4    1    6    6    0  503  0.57375770686E+03 -0.89814102901E+02 -0.22763740159E+03  0.62376539329E+03  0.00000000000E+00 0.  1.
<mgrwt>
<rscale>  0 0.14159311E+04</rscale>
<asrwt>0</asrwt>
<pdfrwt beam="1">  1        2 0.14881971E+00 0.14159311E+04</pdfrwt>
<pdfrwt beam="2">  1       -1 0.79714456E-01 0.14159311E+04</pdfrwt>
<totfact> 0.46127268E+01</totfact>
</mgrwt>
</event>
<event>
12    6  0.9491186E-008  0.1159976E+04  0.7818608E-02  0.9148629E-01
         -1   -1    0    0    0  501 -0.00000000000E+00  0.00000000000E+00  0.47709651252E+03  0.47709651252E+03  0.00000000000E+00 0.  1.
          2   -1    0    0  501    0  0.00000000000E+00 -0.00000000000E+00 -0.70506928515E+03  0.70506928515E+03  0.00000000000E+00 0. -1.
         24    2    1    2    0    0  0.41581826539E+02  0.48854623412E+02  0.20412823253E+03  0.22852961676E+03  0.80259752647E+02 0.  0.
        254    2    1    2    0    0 -0.41581826539E+02 -0.48854623412E+02 -0.43210100515E+03  0.95363618090E+03  0.84769974893E+03 0.  0.
         23    2    4    4    0    0  0.19012656431E+03 -0.37235276518E+03 -0.13395213547E+03  0.44837402493E+03  0.91112015897E+02 0.  0.
         23    2    4    4    0    0 -0.23170839085E+03  0.32349814177E+03 -0.29814886968E+03  0.50526215597E+03  0.89762306359E+02 0.  0.
          4    1    3    3  502    0  0.14760167106E+02 -0.86424905757E+01  0.26628900395E+01  0.17310290572E+02  0.00000000000E+00 0. -1.
         -3    1    3    3    0  502  0.26821659434E+02  0.57497113988E+02  0.20146534249E+03  0.21121932619E+03  0.00000000000E+00 0.  1.
         11    1    5    5    0    0  0.19392566939E+03 -0.31818423353E+03 -0.12678050284E+03  0.39360089890E+03  0.00000000000E+00 0. -1.
        -11    1    5    5    0    0 -0.37991050753E+01 -0.54168531650E+02 -0.71716326262E+01  0.54773126029E+02  0.00000000000E+00 0.  1.
          3    1    6    6  503    0 -0.86908334219E+02  0.70903230507E+02 -0.50399611494E+02  0.12296522879E+03  0.00000000000E+00 0. -1.
         -3    1    6    6    0  503 -0.14480005663E+03  0.25259491126E+03 -0.24774925819E+03  0.38229692718E+03  0.00000000000E+00 0.  1.
<mgrwt>
<rscale>  0 0.11599760E+04</rscale>
<asrwt>0</asrwt>
<pdfrwt beam="1">  1        2 0.10847220E+00 0.11599760E+04</pdfrwt>
<pdfrwt beam="2">  1       -1 0.73399464E-01 0.11599760E+04</pdfrwt>
<totfact> 0.85829890E+01</totfact>
</mgrwt>
</event>
<event>
12    6  0.9491186E-008  0.1942271E+04  0.7818608E-02  0.8634097E-01
          2   -1    0    0  501    0  0.00000000000E+00  0.00000000000E+00  0.22488997233E+04  0.22488997233E+04  0.00000000000E+00 0. -1.
         -1   -1    0    0    0  501 -0.00000000000E+00 -0.00000000000E+00 -0.41936249319E+03  0.41936249319E+03  0.00000000000E+00 0.  1.
         24    2    1    2    0    0 -0.24311851166E+03 -0.49049137067E+03  0.14362601877E+04  0.15391351431E+04  0.80032908974E+02 0.  0.
        254    2    1    2    0    0  0.24311851166E+03  0.49049137067E+03  0.39327704234E+03  0.11291270733E+04  0.90585469049E+03 0.  0.
         23    2    4    4    0    0  0.12850881406E+03  0.27671842653E+02  0.58553370460E+03  0.60678840470E+03  0.89789769379E+02 0.  0.
         23    2    4    4    0    0  0.11460969760E+03  0.46281952801E+03 -0.19225666227E+03  0.52233866863E+03  0.92400012248E+02 0.  0.
          4    1    3    3  502    0 -0.19597969249E+03 -0.44293298015E+03  0.12157078663E+04  0.13086417696E+04  0.00000000000E+00 0. -1.
         -3    1    3    3    0  502 -0.47138819160E+02 -0.47558390511E+02  0.22055232141E+03  0.23049337357E+03  0.00000000000E+00 0.  1.
         11    1    5    5    0    0  0.10223202814E+03 -0.10356982905E+02  0.49001595415E+03  0.50067383594E+03  0.00000000000E+00 0. -1.
        -11    1    5    5    0    0  0.26276785922E+02  0.38028825558E+02  0.95517750450E+02  0.10611456876E+03  0.00000000000E+00 0.  1.
          3    1    6    6  503    0  0.10380284597E+03  0.45882862745E+03 -0.17569174518E+03  0.50216165677E+03  0.00000000000E+00 0. -1.
         -3    1    6    6    0  503  0.10806851633E+02  0.39909005581E+01 -0.16564917088E+02  0.20177011860E+02  0.00000000000E+00 0.  1.
<mgrwt>
<rscale>  0 0.19422710E+04</rscale>
<asrwt>0</asrwt>
<pdfrwt beam="1">  1        2 0.34598457E+00 0.19422710E+04</pdfrwt>
<pdfrwt beam="2">  1       -1 0.64517308E-01 0.19422710E+04</pdfrwt>
<totfact> 0.12547305E+01</totfact>
</mgrwt>
</event>
<event>
12    6  0.9491186E-008  0.1586554E+04  0.7818608E-02  0.8828851E-01
         -1   -1    0    0    0  501 -0.00000000000E+00  0.00000000000E+00  0.41743525362E+03  0.41743525362E+03  0.00000000000E+00 0.  1.
          2   -1    0    0  501    0  0.00000000000E+00 -0.00000000000E+00 -0.15075107126E+04  0.15075107126E+04  0.00000000000E+00 0. -1.
         24    2    1    2    0    0 -0.26249661154E+03  0.41150565642E+03 -0.65610482002E+03  0.82511509255E+03  0.11000002164E+03 0.  0.
        254    2    1    2    0    0  0.26249661154E+03 -0.41150565642E+03 -0.43397063894E+03  0.10998308736E+04  0.88490454786E+03 0.  0.
         23    2    4    4    0    0  0.46874105851E+03 -0.24644290859E+03  0.51421925640E+02  0.53998633070E+03  0.92134335539E+02 0.  0.
         23    2    4    4    0    0 -0.20624444696E+03 -0.16506274783E+03 -0.48539256458E+03  0.55984454294E+03  0.89652037842E+02 0.  0.
          4    1    3    3  502    0 -0.20691214419E+02 -0.18133850240E+01 -0.37005284009E+02  0.42435901828E+02  0.00000000000E+00 0. -1.
         -3    1    3    3    0  502 -0.24180539712E+03  0.41331904145E+03 -0.61909953601E+03  0.78267919072E+03  0.00000000000E+00 0.  1.
         11    1    5    5    0    0  0.15523798000E+03 -0.10580273534E+03 -0.20359309183E+02  0.18896441652E+03  0.00000000000E+00 0. -1.
        -11    1    5    5    0    0  0.31350307850E+03 -0.14064017326E+03  0.71781234823E+02  0.35102191418E+03  0.00000000000E+00 0.  1.
          1    1    6    6  503    0 -0.14906634306E+03 -0.64701087281E+02 -0.26065139176E+03  0.30715818947E+03  0.00000000000E+00 0. -1.
         -1    1    6    6    0  503 -0.57178103905E+02 -0.10036166055E+03 -0.22474117282E+03  0.25268635348E+03  0.00000000000E+00 0.  1.
<mgrwt>
<rscale>  0 0.15865536E+04</rscale>
<asrwt>0</asrwt>
<pdfrwt beam="1">  1        2 0.23192473E+00 0.15865536E+04</pdfrwt>
<pdfrwt beam="2">  1       -1 0.64220807E-01 0.15865536E+04</pdfrwt>
<totfact> 0.33806411E+01</totfact>
</mgrwt>
</event>
<event>
12    6  0.9491186E-008  0.1967845E+04  0.7818608E-02  0.8621804E-01
         -1   -1    0    0    0  501 -0.00000000000E+00  0.00000000000E+00  0.32360720863E+03  0.32360720863E+03  0.00000000000E+00 0.  1.
          2   -1    0    0  501    0  0.00000000000E+00 -0.00000000000E+00 -0.29915994872E+04  0.29915994872E+04  0.00000000000E+00 0. -1.
         24    2    1    2    0    0  0.57553786323E+03 -0.31378923173E+03 -0.17412924896E+04  0.18623603995E+04  0.81112326322E+02 0.  0.
        254    2    1    2    0    0 -0.57553786323E+03  0.31378923173E+03 -0.92669978900E+03  0.14528462963E+04  0.90679785391E+03 0.  0.
         23    2    4    4    0    0  0.18225736397E+01  0.17763673324E+03 -0.81887729502E+03  0.84290566589E+03  0.91497576594E+02 0.  0.
         23    2    4    4    0    0 -0.57736043687E+03  0.13615249849E+03 -0.10782249399E+03  0.60994063044E+03  0.92300084168E+02 0.  0.
          2    1    3    3  502    0  0.46262094090E+03 -0.24488323145E+03 -0.14728051778E+04  0.15630550290E+04  0.00000000000E+00 0. -1.
         -1    1    3    3    0  502  0.11291692234E+03 -0.68906000281E+02 -0.26848731183E+03  0.29930537055E+03  0.00000000000E+00 0.  1.
         11    1    5    5    0    0 -0.11574523195E+02  0.16227394443E+03 -0.55797037226E+03  0.58120369833E+03  0.00000000000E+00 0.  1.
        -11    1    5    5    0    0  0.13397096835E+02  0.15362788809E+02 -0.26090692276E+03  0.26170196756E+03  0.00000000000E+00 0. -1.
          3    1    6    6  503    0 -0.27664835864E+03  0.10351245621E+03 -0.80948765590E+02  0.30627086962E+03  0.00000000000E+00 0. -1.
         -3    1    6    6    0  503 -0.30071207824E+03  0.32640042282E+02 -0.26873728396E+02  0.30366976082E+03  0.00000000000E+00 0.  1.
<mgrwt>
<rscale>  0 0.19678447E+04</rscale>
<asrwt>0</asrwt>
<pdfrwt beam="1">  1        2 0.46024606E+00 0.19678447E+04</pdfrwt>
<pdfrwt beam="2">  1       -1 0.49785726E-01 0.19678447E+04</pdfrwt>
<totfact> 0.75814065E+00</totfact>
</mgrwt>
</event>
<event>
12    6  0.9491186E-008  0.1239413E+04  0.7818608E-02  0.9079041E-01
         -1   -1    0    0    0  501 -0.00000000000E+00  0.00000000000E+00  0.20886861540E+03  0.20886861540E+03  0.00000000000E+00 0.  1.
          2   -1    0    0  501    0  0.00000000000E+00 -0.00000000000E+00 -0.18386506241E+04  0.18386506241E+04  0.00000000000E+00 0. -1.
         24    2    1    2    0    0 -0.14403191111E+03  0.68138808450E+02 -0.78047201708E+03  0.80056492873E+03  0.79872066625E+02 0.  0.
        254    2    1    2    0    0  0.14403191111E+03 -0.68138808450E+02 -0.84930999160E+03  0.12469543108E+04  0.89898804366E+03 0.  0.
         23    2    4    4    0    0  0.72479104247E+02 -0.47404096291E+03 -0.50789707165E+03  0.70419217584E+03  0.89213956584E+02 0.  0.
         23    2    4    4    0    0  0.71552806865E+02  0.40590215446E+03 -0.34141291995E+03  0.54276213492E+03  0.90286156339E+02 0.  0.
          2    1    3    3  502    0 -0.13973567619E+03  0.67279329232E+02 -0.59001717244E+03  0.61005969472E+03  0.00000000000E+00 0. -1.
         -1    1    3    3    0  502 -0.42962349232E+01  0.85947921813E+00 -0.19045484464E+03  0.19050523401E+03  0.00000000000E+00 0.  1.
         11    1    5    5    0    0  0.78025572098E+02 -0.22157120682E+03 -0.23166238880E+03  0.32992310010E+03  0.00000000000E+00 0. -1.
        -11    1    5    5    0    0 -0.55464678514E+01 -0.25246975609E+03 -0.27623468285E+03  0.37426907574E+03  0.00000000000E+00 0.  1.
          2    1    6    6  503    0  0.13880759316E+01  0.35696165375E+02 -0.69352546605E+02  0.78012298375E+02  0.00000000000E+00 0. -1.
         -2    1    6    6    0  503  0.70164730933E+02  0.37020598908E+03 -0.27206037334E+03  0.46474983654E+03  0.00000000000E+00 0.  1.
<mgrwt>
<rscale>  0 0.12394134E+04</rscale>
<asrwt>0</asrwt>
<pdfrwt beam="1">  1        2 0.28286932E+00 0.12394134E+04</pdfrwt>
<pdfrwt beam="2">  1       -1 0.32133634E-01 0.12394134E+04</pdfrwt>
<totfact> 0.83251601E+01</totfact>
</mgrwt>
</event>
<event>
12    6  0.1028137E-007  0.2482979E+04  0.7818608E-02  0.8409074E-01
         -1   -1    0    0    0  501 -0.00000000000E+00  0.00000000000E+00  0.70474647659E+03  0.70474647659E+03  0.00000000000E+00 0.  1.
          2   -1    0    0  501    0  0.00000000000E+00 -0.00000000000E+00 -0.21870225013E+04  0.21870225013E+04  0.00000000000E+00 0. -1.
         24    2    1    2    0    0 -0.76297945878E+03 -0.40022817112E+03  0.12089000256E+03  0.87358975893E+03  0.78895061330E+02 0.  0.
        254    2    1    2    0    0  0.76297945878E+03  0.40022817112E+03 -0.16031660272E+04  0.20181792189E+04  0.87211570641E+03 0.  0.
         23    2    4    4    0    0  0.52797432523E+03  0.28070584174E+03 -0.28089384839E+03  0.66684607626E+03  0.90717570882E+02 0.  0.
         23    2    4    4    0    0  0.23500513355E+03  0.11952232938E+03 -0.13222721788E+04  0.13513331427E+04  0.90468489116E+02 0.  0.
          4    1    3    3  502    0 -0.27734960601E+02 -0.33347656288E+02  0.91718657879E+01  0.44333027659E+02  0.00000000000E+00 0. -1.
         -3    1    3    3    0  502 -0.73524449818E+03 -0.36688051483E+03  0.11171813677E+03  0.82925673127E+03  0.00000000000E+00 0.  1.
         11    1    5    5    0    0  0.37583377063E+03  0.21882186262E+03 -0.16201498470E+03  0.46409361768E+03  0.00000000000E+00 0.  1.
        -11    1    5    5    0    0  0.15214055461E+03  0.61883979126E+02 -0.11887886370E+03  0.20275245859E+03  0.00000000000E+00 0. -1.
          3    1    6    6  503    0  0.21720650942E+02  0.46105180844E+02 -0.18409131095E+03  0.19101592903E+03  0.00000000000E+00 0. -1.
         -3    1    6    6    0  503  0.21328448261E+03  0.73417148535E+02 -0.11381808679E+04  0.11603172136E+04  0.00000000000E+00 0.  1.
<mgrwt>
<rscale>  0 0.24829792E+04</rscale>
<asrwt>0</asrwt>
<pdfrwt beam="1">  1        2 0.33646500E+00 0.24829792E+04</pdfrwt>
<pdfrwt beam="2">  1       -1 0.10842253E+00 0.24829792E+04</pdfrwt>
<totfact> 0.42129084E+00</totfact>
</mgrwt>
</event>
<event>
12    6  0.9491186E-008  0.2381803E+04  0.7818608E-02  0.8446348E-01
         -1   -1    0    0    0  501 -0.00000000000E+00  0.00000000000E+00  0.76029229760E+03  0.76029229760E+03  0.00000000000E+00 0.  1.
          2   -1    0    0  501    0  0.00000000000E+00 -0.00000000000E+00 -0.18653964469E+04  0.18653964469E+04  0.00000000000E+00 0. -1.
         24    2    1    2    0    0  0.89237323464E+03 -0.13044035962E+03 -0.99029600945E+03  0.13417497579E+04  0.79129950629E+02 0.  0.
        254    2    1    2    0    0 -0.89237323464E+03  0.13044035962E+03 -0.11480813981E+03  0.12839389866E+04  0.90662767165E+03 0.  0.
         23    2    4    4    0    0  0.16405921745E+03  0.96924856144E+02  0.21932896178E+02  0.21438699007E+03  0.95764685600E+02 0.  0.
         23    2    4    4    0    0 -0.10564324521E+04  0.33515503472E+02 -0.13674103599E+03  0.10695519965E+04  0.89836226272E+02 0.  0.
          2    1    3    3  502    0  0.70058516613E+03 -0.13363237667E+03 -0.76633826398E+03  0.10468770329E+04  0.00000000000E+00 0. -1.
         -1    1    3    3    0  502  0.19178806850E+03  0.31920170527E+01 -0.22395774548E+03  0.29487272501E+03  0.00000000000E+00 0.  1.
         11    1    5    5    0    0  0.10922942752E+03  0.10794604423E+02  0.23608118667E+02  0.11227169986E+03  0.00000000000E+00 0. -1.
        -11    1    5    5    0    0  0.54829789923E+02  0.86130251720E+02 -0.16752224893E+01  0.10211529021E+03  0.00000000000E+00 0.  1.
          4    1    6    6  503    0 -0.23332137354E+03  0.83933973862E+01 -0.68102284395E+02  0.24320204277E+03  0.00000000000E+00 0.  1.
         -4    1    6    6    0  503 -0.82311107855E+03  0.25122106085E+02 -0.68638751595E+02  0.82634995375E+03  0.00000000000E+00 0. -1.
<mgrwt>
<rscale>  0 0.23818031E+04</rscale>
<asrwt>0</asrwt>
<pdfrwt beam="1">  1        2 0.28698407E+00 0.23818031E+04</pdfrwt>
<pdfrwt beam="2">  1       -1 0.11696805E+00 0.23818031E+04</pdfrwt>
<totfact> 0.53606130E+00</totfact>
</mgrwt>
</event>
<event>
12    6  0.9491186E-008  0.3127576E+04  0.7818608E-02  0.8208211E-01
         -1   -1    0    0    0  501 -0.00000000000E+00  0.00000000000E+00  0.97718156969E+03  0.97718156969E+03  0.00000000000E+00 0.  1.
          2   -1    0    0  501    0  0.00000000000E+00 -0.00000000000E+00 -0.25025362762E+04  0.25025362762E+04  0.00000000000E+00 0. -1.
         24    2    1    2    0    0  0.85862120702E+03  0.61652624700E+03  0.38066321765E+03  0.11277545070E+04  0.97932386582E+02 0.  0.
        254    2    1    2    0    0 -0.85862120702E+03 -0.61652624700E+03 -0.19060179242E+04  0.23519633389E+04  0.88402049181E+03 0.  0.
         23    2    4    4    0    0 -0.17237399695E+03 -0.62112558531E+03 -0.66264646701E+03  0.92877440395E+03  0.89508466874E+02 0.  0.
         23    2    4    4    0    0 -0.68624721008E+03  0.45993383037E+01 -0.12433714571E+04  0.14231889350E+04  0.92400091289E+02 0.  0.
          2    1    3    3  502    0  0.87512216187E+01  0.19834907375E+02  0.16807010796E+02  0.27431424358E+02  0.00000000000E+00 0. -1.
         -1    1    3    3    0  502  0.84986998541E+03  0.59669133963E+03  0.36385620686E+03  0.11003230826E+04  0.00000000000E+00 0.  1.
         11    1    5    5    0    0 -0.37088892810E+02 -0.29221484642E+03 -0.31976259866E+03  0.43475650879E+03  0.00000000000E+00 0. -1.
        -11    1    5    5    0    0 -0.13528510414E+03 -0.32891073889E+03 -0.34288386834E+03  0.49401789515E+03  0.00000000000E+00 0.  1.
          1    1    6    6  503    0 -0.24972407553E+03  0.30140302370E+02 -0.52609752826E+03  0.58313734315E+03  0.00000000000E+00 0.  1.
         -1    1    6    6    0  503 -0.43652313455E+03 -0.25540964066E+02 -0.71727392888E+03  0.84005159181E+03  0.00000000000E+00 0. -1.
<mgrwt>
<rscale>  0 0.31275756E+04</rscale>
<asrwt>0</asrwt>
<pdfrwt beam="1">  1        2 0.38500558E+00 0.31275756E+04</pdfrwt>
<pdfrwt beam="2">  1       -1 0.15033563E+00 0.31275756E+04</pdfrwt>
<totfact> 0.11580781E+00</totfact>
</mgrwt>
</event>
<event>
12    6  0.9491186E-008  0.1413911E+04  0.7818608E-02  0.8943810E-01
         -1   -1    0    0    0  501 -0.00000000000E+00  0.00000000000E+00  0.42232955579E+03  0.42232955579E+03  0.00000000000E+00 0.  1.
          2   -1    0    0  501    0  0.00000000000E+00 -0.00000000000E+00 -0.11834028291E+04  0.11834028291E+04  0.00000000000E+00 0. -1.
         24    2    1    2    0    0  0.28648081993E+03 -0.63317714853E+01 -0.56846725321E+03  0.64166605849E+03  0.80429852184E+02 0.  0.
        254    2    1    2    0    0 -0.28648081993E+03  0.63317714853E+01 -0.19260602008E+03  0.96406632638E+03  0.90011968714E+03 0.  0.
         23    2    4    4    0    0  0.10205985936E+03 -0.35626550320E+03 -0.18851283303E+03  0.42566761735E+03  0.91183927212E+02 0.  0.
         23    2    4    4    0    0 -0.38854067929E+03  0.36259727469E+03 -0.40931870463E+01  0.53839870903E+03  0.86114880391E+02 0.  0.
          2    1    3    3  502    0  0.24207816529E+03 -0.21446719495E+02 -0.52120459560E+03  0.57507915138E+03  0.00000000000E+00 0. -1.
         -1    1    3    3    0  502  0.44402654644E+02  0.15114948010E+02 -0.47262657617E+02  0.66586907104E+02  0.00000000000E+00 0.  1.
         11    1    5    5    0    0  0.68554751070E+02 -0.28040222148E+03 -0.10284861310E+03  0.30643595893E+03  0.00000000000E+00 0. -1.
        -11    1    5    5    0    0  0.33505108294E+02 -0.75863281718E+02 -0.85664219932E+02  0.11923165843E+03  0.00000000000E+00 0.  1.
          1    1    6    6  503    0 -0.28893619034E+03  0.23357591952E+03 -0.32452486956E+02  0.37295441568E+03  0.00000000000E+00 0. -1.
         -1    1    6    6    0  503 -0.99604488955E+02  0.12902135516E+03  0.28359299910E+02  0.16544429334E+03  0.00000000000E+00 0.  1.
<mgrwt>
<rscale>  0 0.14139109E+04</rscale>
<asrwt>0</asrwt>
<pdfrwt beam="1">  1        2 0.18206197E+00 0.14139109E+04</pdfrwt>
<pdfrwt beam="2">  1       -1 0.64973779E-01 0.14139109E+04</pdfrwt>
<totfact> 0.51606264E+01</totfact>
</mgrwt>
</event>
<event>
12    6  0.9491186E-008  0.1451779E+04  0.7818608E-02  0.8917168E-01
          2   -1    0    0  501    0  0.00000000000E+00  0.00000000000E+00  0.14097027713E+04  0.14097027713E+04  0.00000000000E+00 0. -1.
         -1   -1    0    0    0  501 -0.00000000000E+00 -0.00000000000E+00 -0.37377771710E+03  0.37377771710E+03  0.00000000000E+00 0.  1.
         24    2    1    2    0    0  0.93806573340E+02 -0.79971187700E+02 -0.19871163614E+03  0.24736004536E+03  0.80657384268E+02 0.  0.
        254    2    1    2    0    0 -0.93806573340E+02  0.79971187700E+02  0.12346366903E+04  0.15361204430E+04  0.90561757621E+03 0.  0.
         23    2    4    4    0    0 -0.38965280658E+03 -0.19136229114E+03  0.90896989557E+03  0.10112371497E+04  0.89025084520E+02 0.  0.
         23    2    4    4    0    0  0.29584623324E+03  0.27133347884E+03  0.32566679475E+03  0.52488329336E+03  0.91086552139E+02 0.  0.
          2    1    3    3  502    0  0.31664601430E+02  0.10932344130E+02 -0.72502845222E+02  0.79867550965E+02  0.00000000000E+00 0. -1.
         -1    1    3    3    0  502  0.62141971909E+02 -0.90903531830E+02 -0.12620879092E+03  0.16749249439E+03  0.00000000000E+00 0.  1.
         11    1    5    5    0    0 -0.33124231881E+02 -0.20950487635E+02  0.36973486509E+02  0.53881131897E+02  0.00000000000E+00 0.  1.
        -11    1    5    5    0    0 -0.35652857470E+03 -0.17041180351E+03  0.87199640906E+03  0.95735601777E+03  0.00000000000E+00 0. -1.
          3    1    6    6  503    0  0.27689450828E+03  0.27416596277E+03  0.29505615803E+03  0.48876955741E+03  0.00000000000E+00 0. -1.
         -3    1    6    6    0  503  0.18951724958E+02 -0.28324839231E+01  0.30610636715E+02  0.36113735948E+02  0.00000000000E+00 0.  1.
<mgrwt>
<rscale>  0 0.14517789E+04</rscale>
<asrwt>0</asrwt>
<pdfrwt beam="1">  1        2 0.21687735E+00 0.14517789E+04</pdfrwt>
<pdfrwt beam="2">  1       -1 0.57504265E-01 0.14517789E+04</pdfrwt>
<totfact> 0.48352710E+01</totfact>
</mgrwt>
</event>
<event>
12    6  0.9491186E-008  0.2200621E+04  0.7818608E-02  0.8518170E-01
          2   -1    0    0  501    0  0.00000000000E+00  0.00000000000E+00  0.19092444611E+04  0.19092444611E+04  0.00000000000E+00 0. -1.
         -1   -1    0    0    0  501 -0.00000000000E+00 -0.00000000000E+00 -0.63411654222E+03  0.63411654222E+03  0.00000000000E+00 0.  1.
         24    2    1    2    0    0 -0.26503558067E+03 -0.47108081697E+03 -0.32179236861E+03  0.63155820907E+03  0.56164471043E+02 0.  0.
        254    2    1    2    0    0  0.26503558067E+03  0.47108081697E+03  0.15969202875E+04  0.19118027942E+04  0.90148462235E+03 0.  0.
         23    2    4    4    0    0  0.55771109811E+03  0.28331235422E+03  0.12996106207E+04  0.14452857917E+04  0.92497001686E+02 0.  0.
         23    2    4    4    0    0 -0.29267551744E+03  0.18776846274E+03  0.29730966679E+03  0.46651700251E+03  0.91264021146E+02 0.  0.
          2    1    3    3  502    0 -0.90730624126E+02 -0.12545777875E+03 -0.71033460129E+02  0.17034509931E+03  0.00000000000E+00 0. -1.
         -1    1    3    3    0  502 -0.17430495654E+03 -0.34562303822E+03 -0.25075890849E+03  0.46121310975E+03  0.00000000000E+00 0.  1.
         11    1    5    5    0    0  0.94754847919E+02  0.88772290105E+02  0.24837502252E+03  0.28026621720E+03  0.00000000000E+00 0.  1.
        -11    1    5    5    0    0  0.46295625019E+03  0.19454006412E+03  0.10512355982E+04  0.11650195745E+04  0.00000000000E+00 0. -1.
          3    1    6    6  503    0 -0.19785921642E+03  0.12701912914E+03  0.14198390367E+03  0.27466626584E+03  0.00000000000E+00 0. -1.
         -3    1    6    6    0  503 -0.94816301022E+02  0.60749333598E+02  0.15532576311E+03  0.19185073667E+03  0.00000000000E+00 0.  1.
<mgrwt>
<rscale>  0 0.22006213E+04</rscale>
<asrwt>0</asrwt>
<pdfrwt beam="1">  1        2 0.29372991E+00 0.22006213E+04</pdfrwt>
<pdfrwt beam="2">  1       -1 0.97556392E-01 0.22006213E+04</pdfrwt>
<totfact> 0.78731080E+00</totfact>
</mgrwt>
</event>
<event>
12    6  0.9491186E-008  0.1914715E+04  0.7818608E-02  0.8647567E-01
         -1   -1    0    0    0  501 -0.00000000000E+00  0.00000000000E+00  0.38705146350E+03  0.38705146350E+03  0.00000000000E+00 0.  1.
          2   -1    0    0  501    0  0.00000000000E+00 -0.00000000000E+00 -0.23679872332E+04  0.23679872332E+04  0.00000000000E+00 0. -1.
         24    2    1    2    0    0 -0.40541572854E+02  0.33035051547E+02 -0.18332898367E+04  0.18358224944E+04  0.80979455132E+02 0.  0.
        254    2    1    2    0    0  0.40541572854E+02 -0.33035051547E+02 -0.14764593306E+03  0.91921620228E+03  0.90577269291E+03 0.  0.
         23    2    4    4    0    0  0.40181094979E+03  0.20722818657E+03 -0.10701318966E+03  0.47415202226E+03  0.94724636562E+02 0.  0.
         23    2    4    4    0    0 -0.36126937693E+03 -0.24026323812E+03 -0.40632743407E+02  0.44506418002E+03  0.90493746713E+02 0.  0.
          2    1    3    3  502    0 -0.48185744329E+02  0.40125394660E+02 -0.17962244004E+04  0.17973185610E+04  0.00000000000E+00 0. -1.
         -1    1    3    3    0  502  0.76441714753E+01 -0.70903431135E+01 -0.37065436303E+02  0.38503933453E+02  0.00000000000E+00 0.  1.
         11    1    5    5    0    0  0.19081245221E+03  0.12949340757E+03 -0.93646563476E+02  0.24889277485E+03  0.00000000000E+00 0.  1.
        -11    1    5    5    0    0  0.21099849758E+03  0.77734779006E+02 -0.13366626180E+02  0.22525924741E+03  0.00000000000E+00 0. -1.
          3    1    6    6  503    0 -0.33631581261E+03 -0.21727448162E+03 -0.61707851819E+02  0.40512267914E+03  0.00000000000E+00 0. -1.
         -3    1    6    6    0  503 -0.24953564323E+02 -0.22988756497E+02  0.21075108412E+02  0.39941500877E+02  0.00000000000E+00 0.  1.
<mgrwt>
<rscale>  0 0.19147145E+04</rscale>
<asrwt>0</asrwt>
<pdfrwt beam="1">  1        2 0.36430573E+00 0.19147145E+04</pdfrwt>
<pdfrwt beam="2">  1       -1 0.59546378E-01 0.19147145E+04</pdfrwt>
<totfact> 0.12633082E+01</totfact>
</mgrwt>
</event>
<event>
12    6  0.9491186E-008  0.1596243E+04  0.7818608E-02  0.8822859E-01
         -1   -1    0    0    0  501 -0.00000000000E+00  0.00000000000E+00  0.28405042257E+03  0.28405042257E+03  0.00000000000E+00 0.  1.
          2   -1    0    0  501    0  0.00000000000E+00 -0.00000000000E+00 -0.22425532711E+04  0.22425532711E+04  0.00000000000E+00 0. -1.
         24    2    1    2    0    0 -0.10135680987E+03  0.38688769669E+03 -0.94866325138E+02  0.41923829004E+03  0.82497463232E+02 0.  0.
        254    2    1    2    0    0  0.10135680987E+03 -0.38688769669E+03 -0.18636365234E+04  0.21073654036E+04  0.89882843766E+03 0.  0.
         23    2    4    4    0    0 -0.18921910367E+03 -0.13447364362E+02 -0.31769682540E+02  0.21341273465E+03  0.92471518752E+02 0.  0.
         23    2    4    4    0    0  0.29057591354E+03 -0.37344033233E+03 -0.18318668409E+04  0.18939526690E+04  0.86189015383E+02 0.  0.
          4    1    3    3  502    0 -0.72001345749E+01  0.19305595468E+02  0.13481173909E+02  0.24622956854E+02  0.00000000000E+00 0. -1.
         -3    1    3    3    0  502 -0.94156675292E+02  0.36758210122E+03 -0.10834749905E+03  0.39461533319E+03  0.00000000000E+00 0.  1.
         11    1    5    5    0    0 -0.10755494108E+01  0.17729537994E+02 -0.12526994667E+02  0.21735200008E+02  0.00000000000E+00 0.  1.
        -11    1    5    5    0    0 -0.18814355426E+03 -0.31176902356E+02 -0.19242687873E+02  0.19167753465E+03  0.00000000000E+00 0. -1.
          3    1    6    6  503    0  0.26655061698E+03 -0.33081754609E+03 -0.15193600011E+04  0.15776388348E+04  0.00000000000E+00 0. -1.
         -3    1    6    6    0  503  0.24025296560E+02 -0.42622786237E+02 -0.31250683981E+03  0.31631383421E+03  0.00000000000E+00 0.  1.
<mgrwt>
<rscale>  0 0.15962433E+04</rscale>
<asrwt>0</asrwt>
<pdfrwt beam="1">  1        2 0.34500820E+00 0.15962433E+04</pdfrwt>
<pdfrwt beam="2">  1       -1 0.43700065E-01 0.15962433E+04</pdfrwt>
<totfact> 0.27637320E+01</totfact>
</mgrwt>
</event>
<event>
12    6  0.9491186E-008  0.1133641E+04  0.7818608E-02  0.9173009E-01
         -1   -1    0    0    0  501 -0.00000000000E+00  0.00000000000E+00  0.25107186994E+03  0.25107186994E+03  0.00000000000E+00 0.  1.
          2   -1    0    0  501    0  0.00000000000E+00 -0.00000000000E+00 -0.12796564844E+04  0.12796564844E+04  0.00000000000E+00 0. -1.
         24    2    1    2    0    0  0.10818059327E+02 -0.79918460553E+02 -0.43143805579E+03  0.44594212499E+03  0.78877069616E+02 0.  0.
        254    2    1    2    0    0 -0.10818059327E+02  0.79918460553E+02 -0.59714655863E+03  0.10847862293E+04  0.90203833625E+03 0.  0.
         23    2    4    4    0    0 -0.41329706114E+03 -0.77710895455E+02 -0.44293595897E+03  0.61776009137E+03  0.92638127795E+02 0.  0.
         23    2    4    4    0    0  0.40247900181E+03  0.15762935601E+03 -0.15421059967E+03  0.46702613794E+03  0.86580273161E+02 0.  0.
          2    1    3    3  502    0  0.20118306819E+02 -0.22316223488E+02 -0.30740875072E+03  0.30887359894E+03  0.00000000000E+00 0. -1.
         -1    1    3    3    0  502 -0.93002474922E+01 -0.57602237065E+02 -0.12402930507E+03  0.13706852605E+03  0.00000000000E+00 0.  1.
         11    1    5    5    0    0 -0.93339101396E+02 -0.56232184181E+02 -0.94744526698E+02  0.14439796303E+03  0.00000000000E+00 0.  1.
        -11    1    5    5    0    0 -0.31995795974E+03 -0.21478711274E+02 -0.34819143227E+03  0.47336212834E+03  0.00000000000E+00 0. -1.
          1    1    6    6  503    0  0.39547854248E+03  0.15532569555E+03 -0.13400495993E+03  0.44551843794E+03  0.00000000000E+00 0. -1.
         -1    1    6    6    0  503  0.70004593289E+01  0.23036604577E+01 -0.20205639733E+02  0.21507700001E+02  0.00000000000E+00 0.  1.
<mgrwt>
<rscale>  0 0.11336415E+04</rscale>
<asrwt>0</asrwt>
<pdfrwt beam="1">  1        2 0.19687022E+00 0.11336415E+04</pdfrwt>
<pdfrwt beam="2">  1       -1 0.38626442E-01 0.11336415E+04</pdfrwt>
<totfact> 0.12448573E+02</totfact>
</mgrwt>
</event>
<event>
12    6  0.9491186E-008  0.1820396E+04  0.7818608E-02  0.8695528E-01
          2   -1    0    0  501    0  0.00000000000E+00  0.00000000000E+00  0.29761573297E+04  0.29761573297E+04  0.00000000000E+00 0. -1.
         -1   -1    0    0    0  501 -0.00000000000E+00 -0.00000000000E+00 -0.27836586056E+03  0.27836586056E+03  0.00000000000E+00 0.  1.
         24    2    1    2    0    0 -0.56960869337E+03  0.48553179168E+02  0.16835793417E+04  0.17798003099E+04  0.80238821514E+02 0.  0.
        254    2    1    2    0    0  0.56960869337E+03 -0.48553179168E+02  0.10142121274E+04  0.14747228804E+04  0.90519051017E+03 0.  0.
         23    2    4    4    0    0  0.25934975394E+03  0.34463875993E+02  0.10965086798E+04  0.11309375058E+04  0.90765101001E+02 0.  0.
         23    2    4    4    0    0  0.31025893943E+03 -0.83017055161E+02 -0.82296552378E+02  0.34378537456E+03  0.90902256739E+02 0.  0.
          2    1    3    3  502    0 -0.46061841897E+03  0.49668297073E+02  0.12617417503E+04  0.13441088170E+04  0.00000000000E+00 0. -1.
         -1    1    3    3    0  502 -0.10899027440E+03 -0.11151179047E+01  0.42183759148E+03  0.43569149290E+03  0.00000000000E+00 0.  1.
         11    1    5    5    0    0  0.18557134849E+03  0.41246934297E+02  0.61343749497E+03  0.64221771636E+03  0.00000000000E+00 0. -1.
        -11    1    5    5    0    0  0.73778405444E+02 -0.67830583040E+01  0.48307118483E+03  0.48871978945E+03  0.00000000000E+00 0.  1.
          3    1    6    6  503    0  0.27772541958E+03 -0.99125316626E+02 -0.86321675101E+02  0.30725993665E+03  0.00000000000E+00 0. -1.
         -3    1    6    6    0  503  0.32533519854E+02  0.16108261465E+02  0.40251227232E+01  0.36525437910E+02  0.00000000000E+00 0.  1.
<mgrwt>
<rscale>  0 0.18203962E+04</rscale>
<asrwt>0</asrwt>
<pdfrwt beam="1">  1        2 0.45787034E+00 0.18203962E+04</pdfrwt>
<pdfrwt beam="2">  1       -1 0.42825519E-01 0.18203962E+04</pdfrwt>
<totfact> 0.10421512E+01</totfact>
</mgrwt>
</event>
<event>
12    6  0.9491186E-008  0.1404090E+04  0.7818608E-02  0.8950864E-01
         -1   -1    0    0    0  501 -0.00000000000E+00  0.00000000000E+00  0.44142673353E+03  0.44142673353E+03  0.00000000000E+00 0.  1.
          2   -1    0    0  501    0  0.00000000000E+00 -0.00000000000E+00 -0.11165317381E+04  0.11165317381E+04  0.00000000000E+00 0. -1.
         24    2    1    2    0    0  0.17541238154E+03 -0.28102831840E+03  0.71044500599E+02  0.34798666111E+03  0.79378686715E+02 0.  0.
        254    2    1    2    0    0 -0.17541238154E+03  0.28102831840E+03 -0.74614950516E+03  0.12099718105E+04  0.89305446578E+03 0.  0.
         23    2    4    4    0    0  0.16282591823E+03  0.37883766857E+03 -0.52439741571E+02  0.42527919477E+03  0.89901102531E+02 0.  0.
         23    2    4    4    0    0 -0.33823829976E+03 -0.97809350167E+02 -0.69370976359E+03  0.78469261574E+03  0.10265207593E+03 0.  0.
          4    1    3    3  502    0  0.30450991786E+02 -0.40282414418E+02  0.41604784045E+02  0.65428540160E+02  0.00000000000E+00 0. -1.
         -3    1    3    3    0  502  0.14496138975E+03 -0.24074590398E+03  0.29439716554E+02  0.28255812095E+03  0.00000000000E+00 0.  1.
         11    1    5    5    0    0  0.13380565995E+01 -0.12618063555E+01 -0.99486913016E+01  0.10117262938E+02  0.00000000000E+00 0. -1.
        -11    1    5    5    0    0  0.16148786163E+03  0.38009947493E+03 -0.42491050270E+02  0.41516193183E+03  0.00000000000E+00 0.  1.
          2    1    6    6  503    0 -0.82050027476E+02 -0.47207070142E+01 -0.87629238639E+02  0.12013898430E+03  0.00000000000E+00 0. -1.
         -2    1    6    6    0  503 -0.25618827229E+03 -0.93088643153E+02 -0.60608052495E+03  0.66455363145E+03  0.00000000000E+00 0.  1.
<mgrwt>
<rscale>  0 0.14040897E+04</rscale>
<asrwt>0</asrwt>
<pdfrwt beam="1">  1        2 0.17177411E+00 0.14040897E+04</pdfrwt>
<pdfrwt beam="2">  1       -1 0.67911806E-01 0.14040897E+04</pdfrwt>
<totfact> 0.51849937E+01</totfact>
</mgrwt>
</event>
<event>
12    6  0.9491186E-008  0.1944960E+04  0.7818608E-02  0.8632795E-01
          2   -1    0    0  501    0  0.00000000000E+00  0.00000000000E+00  0.15502921354E+04  0.15502921354E+04  0.00000000000E+00 0. -1.
         -1   -1    0    0    0  501 -0.00000000000E+00 -0.00000000000E+00 -0.61002508156E+03  0.61002508156E+03  0.00000000000E+00 0.  1.
         24    2    1    2    0    0 -0.48037105958E+03  0.26320315584E+03 -0.22338178059E+03  0.59676986034E+03  0.78756524705E+02 0.  0.
        254    2    1    2    0    0  0.48037105958E+03 -0.26320315584E+03  0.11636488345E+04  0.15635473567E+04  0.88913973617E+03 0.  0.
         23    2    4    4    0    0  0.50064654588E+03 -0.11572594690E+03  0.12599291461E+04  0.13637557459E+04  0.91481268213E+02 0.  0.
         23    2    4    4    0    0 -0.20275486297E+02 -0.14747720894E+03 -0.96280311641E+02  0.19979161081E+03  0.92120393180E+02 0.  0.
          2    1    3    3  502    0 -0.17195251730E+02 -0.23667675534E+01  0.15233358437E+01  0.17424087431E+02  0.00000000000E+00 0. -1.
         -1    1    3    3    0  502 -0.46317580785E+03  0.26556992339E+03 -0.22490511643E+03  0.57934577291E+03  0.00000000000E+00 0.  1.
         11    1    5    5    0    0  0.28564044465E+03 -0.65109295057E+02  0.59727406540E+03  0.66525633640E+03  0.00000000000E+00 0. -1.
        -11    1    5    5    0    0  0.21500610123E+03 -0.50616651843E+02  0.66265508071E+03  0.69849940945E+03  0.00000000000E+00 0.  1.
          3    1    6    6  503    0  0.35547808175E+02 -0.37770114049E+02 -0.25453214725E+02  0.57776243570E+02  0.00000000000E+00 0. -1.
         -3    1    6    6    0  503 -0.55823294472E+02 -0.10970709489E+03 -0.70827096916E+02  0.14201536724E+03  0.00000000000E+00 0.  1.
<mgrwt>
<rscale>  0 0.19449597E+04</rscale>
<asrwt>0</asrwt>
<pdfrwt beam="1">  1        2 0.23850648E+00 0.19449597E+04</pdfrwt>
<pdfrwt beam="2">  1       -1 0.93850013E-01 0.19449597E+04</pdfrwt>
<totfact> 0.13912684E+01</totfact>
</mgrwt>
</event>
<event>
12    6  0.9491186E-008  0.1503776E+04  0.7818608E-02  0.8881946E-01
         -3   -1    0    0    0  501 -0.00000000000E+00  0.00000000000E+00  0.71711176971E+03  0.71711176971E+03  0.00000000000E+00 0.  1.
          2   -1    0    0  501    0  0.00000000000E+00 -0.00000000000E+00 -0.78835105785E+03  0.78835105785E+03  0.00000000000E+00 0. -1.
         24    2    1    2    0    0 -0.32002256362E+03 -0.34757506471E+03  0.68312824233E+02  0.48384035722E+03  0.78816130865E+02 0.  0.
        254    2    1    2    0    0  0.32002256362E+03  0.34757506471E+03 -0.13955211237E+03  0.10216224703E+04  0.89499430892E+03 0.  0.
         23    2    4    4    0    0  0.91801008912E+02  0.62436479811E+03 -0.12663963395E+03  0.65004054648E+03  0.90864122913E+02 0.  0.
         23    2    4    4    0    0  0.22822155471E+03 -0.27678973339E+03 -0.12912478424E+02  0.37158192386E+03  0.95962281610E+02 0.  0.
          2    1    3    3  502    0 -0.15528536671E+03 -0.12919214851E+03  0.57722194416E+02  0.21008571603E+03  0.00000000000E+00 0. -1.
         -1    1    3    3    0  502 -0.16473719692E+03 -0.21838291620E+03  0.10590629818E+02  0.27375464120E+03  0.00000000000E+00 0.  1.
         11    1    5    5    0    0  0.32450378030E+02  0.46784850338E+02 -0.96128363397E+01  0.57743015837E+02  0.00000000000E+00 0. -1.
        -11    1    5    5    0    0  0.59350630882E+02  0.57757994777E+03 -0.11702679761E+03  0.59229753065E+03  0.00000000000E+00 0.  1.
          3    1    6    6  503    0  0.10908382384E+02 -0.37404875289E+02 -0.27902290130E+02  0.47923431598E+02  0.00000000000E+00 0. -1.
         -3    1    6    6    0  503  0.21731317233E+03 -0.23938485811E+03  0.14989811706E+02  0.32365849226E+03  0.00000000000E+00 0.  1.
<mgrwt>
<rscale>  0 0.15037763E+04</rscale>
<asrwt>0</asrwt>
<pdfrwt beam="1">  1        2 0.12128478E+00 0.15037763E+04</pdfrwt>
<pdfrwt beam="2">  1       -3 0.11032489E+00 0.15037763E+04</pdfrwt>
<totfact> 0.14844962E+01</totfact>
</mgrwt>
</event>
<event>
12    6  0.9491186E-008  0.1756920E+04  0.7818608E-02  0.8729550E-01
          2   -1    0    0  501    0  0.00000000000E+00  0.00000000000E+00  0.75753074675E+03  0.75753074675E+03  0.00000000000E+00 0. -1.
         -1   -1    0    0    0  501 -0.00000000000E+00 -0.00000000000E+00 -0.10186944585E+04  0.10186944585E+04  0.00000000000E+00 0.  1.
         24    2    1    2    0    0  0.13996702095E+03 -0.63748454489E+03  0.22389404015E+02  0.65803038113E+03  0.80779856116E+02 0.  0.
        254    2    1    2    0    0 -0.13996702095E+03  0.63748454489E+03 -0.28355311581E+03  0.11181948242E+04  0.86254274292E+03 0.  0.
         23    2    4    4    0    0 -0.35231521939E+03  0.58261204144E+03  0.72040266703E+02  0.69066267929E+03  0.90897370153E+02 0.  0.
         23    2    4    4    0    0  0.21234819843E+03  0.54872503454E+02 -0.35559338251E+03  0.42753214487E+03  0.90743221209E+02 0.  0.
          4    1    3    3  502    0 -0.72207905925E+01 -0.14423689802E+02 -0.59517428798E+01  0.17193193060E+02  0.00000000000E+00 0. -1.
         -3    1    3    3    0  502  0.14718781155E+03 -0.62306085509E+03  0.28341146894E+02  0.64083718807E+03  0.00000000000E+00 0.  1.
         11    1    5    5    0    0 -0.31813958281E+03  0.50339506495E+03  0.34275818406E+02  0.59648488438E+03  0.00000000000E+00 0. -1.
        -11    1    5    5    0    0 -0.34175636576E+02  0.79216976488E+02  0.37764448298E+02  0.94177794912E+02  0.00000000000E+00 0.  1.
          4    1    6    6  503    0  0.49782274200E+01  0.27504013420E+02 -0.36040886229E+02  0.45609198443E+02  0.00000000000E+00 0.  1.
         -4    1    6    6    0  503  0.20736997101E+03  0.27368490034E+02 -0.31955249629E+03  0.38192294643E+03  0.00000000000E+00 0. -1.
<mgrwt>
<rscale>  0 0.17569205E+04</rscale>
<asrwt>0</asrwt>
<pdfrwt beam="1">  1        2 0.11654319E+00 0.17569205E+04</pdfrwt>
<pdfrwt beam="2">  1       -1 0.15672222E+00 0.17569205E+04</pdfrwt>
<totfact> 0.12392497E+01</totfact>
</mgrwt>
</event>
<event>
12    6  0.9491186E-008  0.2070431E+04  0.7818608E-02  0.8574382E-01
         -1   -1    0    0    0  501 -0.00000000000E+00  0.00000000000E+00  0.81765765961E+03  0.81765765961E+03  0.00000000000E+00 0.  1.
          2   -1    0    0  501    0  0.00000000000E+00 -0.00000000000E+00 -0.13106593273E+04  0.13106593273E+04  0.00000000000E+00 0. -1.
         24    2    1    2    0    0  0.18709677176E+03 -0.53896126147E+03  0.42750718247E+03  0.71749679204E+03  0.80961794472E+02 0.  0.
        254    2    1    2    0    0 -0.18709677176E+03  0.53896126147E+03 -0.92050885017E+03  0.14108201949E+04  0.90420829221E+03 0.  0.
         23    2    4    4    0    0 -0.38113226782E+03  0.56276578667E+03 -0.29037683789E+03  0.74462742051E+03  0.90466298490E+02 0.  0.
         23    2    4    4    0    0  0.19403549606E+03 -0.23804525204E+02 -0.63013201229E+03  0.66619277439E+03  0.92358164675E+02 0.  0.
          4    1    3    3  502    0  0.11575236897E+03 -0.21700304478E+03  0.19769280016E+03  0.31554932356E+03  0.00000000000E+00 0. -1.
         -1    1    3    3    0  502  0.71344402789E+02 -0.32195821669E+03  0.22981438231E+03  0.40194746848E+03  0.00000000000E+00 0.  1.
         11    1    5    5    0    0 -0.10914408097E+03  0.22236991802E+03 -0.76525913531E+02  0.25926246604E+03  0.00000000000E+00 0.  1.
        -11    1    5    5    0    0 -0.27198818685E+03  0.34039586865E+03 -0.21385092436E+03  0.48536495447E+03  0.00000000000E+00 0. -1.
          3    1    6    6  503    0  0.84146951016E+02 -0.39408824526E+02 -0.17986671152E+03  0.20244949673E+03  0.00000000000E+00 0. -1.
         -3    1    6    6    0  503  0.10988854505E+03  0.15604299321E+02 -0.45026530077E+03  0.46374327765E+03  0.00000000000E+00 0.  1.
<mgrwt>
<rscale>  0 0.20704305E+04</rscale>
<asrwt>0</asrwt>
<pdfrwt beam="1">  1        2 0.20163989E+00 0.20704305E+04</pdfrwt>
<pdfrwt beam="2">  1       -1 0.12579349E+00 0.20704305E+04</pdfrwt>
<totfact> 0.94528316E+00</totfact>
</mgrwt>
</event>
<event>
12    6  0.9491186E-008  0.2433505E+04  0.7818608E-02  0.8427065E-01
          2   -1    0    0  501    0  0.00000000000E+00  0.00000000000E+00  0.99325394418E+03  0.99325394418E+03  0.00000000000E+00 0. -1.
         -1   -1    0    0    0  501 -0.00000000000E+00 -0.00000000000E+00 -0.14905416568E+04  0.14905416568E+04  0.00000000000E+00 0.  1.
         24    2    1    2    0    0  0.92511568885E+03  0.38869626579E+03  0.11355103035E+03  0.10130153672E+04  0.79890379889E+02 0.  0.
        254    2    1    2    0    0 -0.92511568885E+03 -0.38869626579E+03 -0.61083874299E+03  0.14707802339E+04  0.88495576249E+03 0.  0.
         23    2    4    4    0    0 -0.76594528118E+03 -0.34175972968E+03 -0.13801445767E+02  0.84428644338E+03  0.95693426977E+02 0.  0.
         23    2    4    4    0    0 -0.15917040767E+03 -0.46936536102E+02 -0.59703729722E+03  0.62649379047E+03  0.92209967638E+02 0.  0.
          4    1    3    3  502    0  0.85866974830E+03  0.34202042235E+03  0.91043597136E+02  0.92875219652E+03  0.00000000000E+00 0. -1.
         -3    1    3    3    0  502  0.66445940550E+02  0.46675843434E+02  0.22507433214E+02  0.84263170637E+02  0.00000000000E+00 0.  1.
         11    1    5    5    0    0 -0.33882355624E+03 -0.19674645454E+03  0.16961527127E+02  0.39217121649E+03  0.00000000000E+00 0. -1.
        -11    1    5    5    0    0 -0.42712172495E+03 -0.14501327514E+03 -0.30762972894E+02  0.45211522689E+03  0.00000000000E+00 0.  1.
          1    1    6    6  503    0 -0.13492822376E+03 -0.13131455763E+02 -0.33860180960E+03  0.36473174548E+03  0.00000000000E+00 0. -1.
         -1    1    6    6    0  503 -0.24242183909E+02 -0.33805080339E+02 -0.25843548762E+03  0.26176204500E+03  0.00000000000E+00 0.  1.
<mgrwt>
<rscale>  0 0.24335048E+04</rscale>
<asrwt>0</asrwt>
<pdfrwt beam="1">  1        2 0.15280830E+00 0.24335048E+04</pdfrwt>
<pdfrwt beam="2">  1       -1 0.22931410E+00 0.24335048E+04</pdfrwt>
<totfact> 0.24812973E+00</totfact>
</mgrwt>
</event>
<event>
12    6  0.9491186E-008  0.1959149E+04  0.7818608E-02  0.8625962E-01
          4   -1    0    0  501    0  0.00000000000E+00  0.00000000000E+00  0.82899419924E+03  0.82899419924E+03  0.00000000000E+00 0. -1.
         -3   -1    0    0    0  501 -0.00000000000E+00 -0.00000000000E+00 -0.11575067696E+04  0.11575067696E+04  0.00000000000E+00 0.  1.
         24    2    1    2    0    0 -0.16366677179E+03 -0.33949698244E+03  0.54951080390E+03  0.67068650461E+03  0.76244675775E+02 0.  0.
        254    2    1    2    0    0  0.16366677179E+03  0.33949698244E+03 -0.87802337431E+03  0.13158144643E+04  0.90465332878E+03 0.  0.
         23    2    4    4    0    0 -0.62052499512E+02 -0.24354630691E+03 -0.47651618451E+02  0.27228336583E+03  0.93285788105E+02 0.  0.
         23    2    4    4    0    0  0.22571927130E+03  0.58304328935E+03 -0.83037175586E+03  0.10435310984E+04  0.92472881321E+02 0.  0.
          2    1    3    3  502    0 -0.80553682239E+02 -0.20054229802E+03  0.25207614879E+03  0.33203688621E+03  0.00000000000E+00 0. -1.
         -1    1    3    3    0  502 -0.83113089551E+02 -0.13895468442E+03  0.29743465512E+03  0.33864961840E+03  0.00000000000E+00 0.  1.
         11    1    5    5    0    0 -0.27310591499E+02 -0.22763844407E+03 -0.34384415500E+02  0.23183489310E+03  0.00000000000E+00 0. -1.
        -11    1    5    5    0    0 -0.34741908013E+02 -0.15907862837E+02 -0.13267202950E+02  0.40448472735E+02  0.00000000000E+00 0.  1.
          1    1    6    6  503    0  0.23394221060E+03  0.54899714603E+03 -0.79043992790E+03  0.99041511694E+03  0.00000000000E+00 0. -1.
         -1    1    6    6    0  503 -0.82229393020E+01  0.34046143317E+02 -0.39931827960E+02  0.53115981491E+02  0.00000000000E+00 0.  1.
<mgrwt>
<rscale>  0 0.19591492E+04</rscale>
<asrwt>0</asrwt>
<pdfrwt beam="1">  1        4 0.12753757E+00 0.19591492E+04</pdfrwt>
<pdfrwt beam="2">  1       -3 0.17807796E+00 0.19591492E+04</pdfrwt>
<totfact> 0.19711760E-01</totfact>
</mgrwt>
</event>
<event>
12    6  0.9491186E-008  0.1803472E+04  0.7818608E-02  0.8704455E-01
          2   -1    0    0  501    0  0.00000000000E+00  0.00000000000E+00  0.27265610759E+04  0.27265610759E+04  0.00000000000E+00 0. -1.
         -1   -1    0    0    0  501 -0.00000000000E+00 -0.00000000000E+00 -0.29822473342E+03  0.29822473342E+03  0.00000000000E+00 0.  1.
         24    2    1    2    0    0  0.41024948437E+03 -0.48541649256E+03  0.12850384299E+04  0.14354221971E+04  0.71967403591E+02 0.  0.
        254    2    1    2    0    0 -0.41024948437E+03  0.48541649256E+03  0.11432979127E+04  0.15893636122E+04  0.90278057358E+03 0.  0.
         23    2    4    4    0    0 -0.43265816292E+03  0.72294733589E+03  0.91369314508E+03  0.12461616365E+04  0.90761911436E+02 0.  0.
         23    2    4    4    0    0  0.22408678558E+02 -0.23753084333E+03  0.22960476759E+03  0.34320197568E+03  0.90256281798E+02 0.  0.
          4    1    3    3  502    0  0.39419398609E+03 -0.48290616326E+03  0.12519372726E+04  0.13985471732E+04  0.00000000000E+00 0. -1.
         -3    1    3    3    0  502  0.16055498278E+02 -0.25103292978E+01  0.33101157274E+02  0.36875023946E+02  0.00000000000E+00 0.  1.
         11    1    5    5    0    0 -0.69140050511E+02  0.65159724747E+02  0.12078370579E+03  0.15367120712E+03  0.00000000000E+00 0. -1.
        -11    1    5    5    0    0 -0.36351811241E+03  0.65778761115E+03  0.79290943930E+03  0.10924904294E+04  0.00000000000E+00 0.  1.
          3    1    6    6  503    0  0.69096429639E+01 -0.75314797051E+01  0.49832782474E+02  0.50870153936E+02  0.00000000000E+00 0. -1.
         -3    1    6    6    0  503  0.15499035594E+02 -0.22999936363E+03  0.17977198511E+03  0.29233182175E+03  0.00000000000E+00 0.  1.
<mgrwt>
<rscale>  0 0.18034722E+04</rscale>
<asrwt>0</asrwt>
<pdfrwt beam="1">  1        2 0.41947092E+00 0.18034722E+04</pdfrwt>
<pdfrwt beam="2">  1       -1 0.45880730E-01 0.18034722E+04</pdfrwt>
<totfact> 0.13021279E+01</totfact>
</mgrwt>
</event>
<event>
12    6  0.9491186E-008  0.1875524E+04  0.7818608E-02  0.8667136E-01
          2   -1    0    0  501    0  0.00000000000E+00  0.00000000000E+00  0.16594459829E+04  0.16594459829E+04  0.00000000000E+00 0. -1.
         -1   -1    0    0    0  501 -0.00000000000E+00 -0.00000000000E+00 -0.52993458463E+03  0.52993458463E+03  0.00000000000E+00 0.  1.
         24    2    1    2    0    0  0.94185321515E+02  0.18626680663E+02 -0.39707303460E+03  0.41671338378E+03  0.82250965867E+02 0.  0.
        254    2    1    2    0    0 -0.94185321515E+02 -0.18626680663E+02  0.15265844329E+04  0.17726671838E+04  0.89591912896E+03 0.  0.
         23    2    4    4    0    0 -0.32392689910E+03 -0.34342850091E+03  0.96721132052E+03  0.10802275206E+04  0.92314606144E+02 0.  0.
         23    2    4    4    0    0  0.22974157759E+03  0.32480182025E+03  0.55937311236E+03  0.69243966316E+03  0.91087833336E+02 0.  0.
          4    1    3    3  502    0  0.25703605578E+02  0.23196577861E+02 -0.39125574429E+02  0.52245259485E+02  0.00000000000E+00 0. -1.
         -1    1    3    3    0  502  0.68481715936E+02 -0.45698971982E+01 -0.35794746017E+03  0.36446812429E+03  0.00000000000E+00 0.  1.
         11    1    5    5    0    0 -0.13302679809E+02 -0.54690995298E+01  0.71232178195E+01  0.16050313763E+02  0.00000000000E+00 0. -1.
        -11    1    5    5    0    0 -0.31062421929E+03 -0.33795940138E+03  0.96008810270E+03  0.10641772068E+04  0.00000000000E+00 0.  1.
          3    1    6    6  503    0  0.90886170692E+02  0.59537178021E+02  0.15485174342E+03  0.18916668319E+03  0.00000000000E+00 0. -1.
         -3    1    6    6    0  503  0.13885540689E+03  0.26526464223E+03  0.40452136894E+03  0.50327297997E+03  0.00000000000E+00 0.  1.
<mgrwt>
<rscale>  0 0.18755243E+04</rscale>
<asrwt>0</asrwt>
<pdfrwt beam="1">  1        2 0.25529938E+00 0.18755243E+04</pdfrwt>
<pdfrwt beam="2">  1       -1 0.81528398E-01 0.18755243E+04</pdfrwt>
<totfact> 0.16541876E+01</totfact>
</mgrwt>
</event>
<event>
12    6  0.9491186E-008  0.3885603E+04  0.7818608E-02  0.8028030E-01
          2   -1    0    0  501    0  0.00000000000E+00  0.00000000000E+00  0.15659769050E+04  0.15659769050E+04  0.00000000000E+00 0. -1.
         -1   -1    0    0    0  501 -0.00000000000E+00 -0.00000000000E+00 -0.24103021204E+04  0.24103021204E+04  0.00000000000E+00 0.  1.
         24    2    1    2    0    0  0.88393015309E+03 -0.76930176011E+03 -0.18414957289E+04  0.21841734675E+04  0.79683766127E+02 0.  0.
        254    2    1    2    0    0 -0.88393015309E+03  0.76930176011E+03  0.99717051349E+03  0.17921055580E+04  0.91876851509E+03 0.  0.
         23    2    4    4    0    0 -0.34632850729E+03  0.83579866254E+03  0.43923719084E+03  0.10097915558E+04  0.90812097789E+02 0.  0.
         23    2    4    4    0    0 -0.53760164580E+03 -0.66496902427E+02  0.55793332264E+03  0.78231400217E+03  0.85371177060E+02 0.  0.
          4    1    3    3  502    0  0.21863681583E+03 -0.16160936343E+03 -0.38029354713E+03  0.46748564210E+03  0.00000000000E+00 0. -1.
         -3    1    3    3    0  502  0.66529333726E+03 -0.60769239668E+03 -0.14612021818E+04  0.17166878253E+04  0.00000000000E+00 0.  1.
         11    1    5    5    0    0 -0.71595880545E+02  0.16283808974E+03  0.12764460737E+03  0.21894145192E+03  0.00000000000E+00 0.  1.
        -11    1    5    5    0    0 -0.27473262674E+03  0.67296057280E+03  0.31159258348E+03  0.79085010389E+03  0.00000000000E+00 0. -1.
          1    1    6    6  503    0 -0.51858032256E+03 -0.46406197160E+02  0.52707862816E+03  0.74087176107E+03  0.00000000000E+00 0. -1.
         -1    1    6    6    0  503 -0.19021323240E+02 -0.20090705266E+02  0.30854694481E+02  0.41442241100E+02  0.00000000000E+00 0.  1.
<mgrwt>
<rscale>  0 0.38856029E+04</rscale>
<asrwt>0</asrwt>
<pdfrwt beam="1">  1        2 0.24091952E+00 0.38856029E+04</pdfrwt>
<pdfrwt beam="2">  1       -1 0.37081571E+00 0.38856029E+04</pdfrwt>
<totfact> 0.11913249E-01</totfact>
</mgrwt>
</event>
<event>
12    6  0.9491186E-008  0.1721591E+04  0.7818608E-02  0.8749145E-01
         -1   -1    0    0    0  501 -0.00000000000E+00  0.00000000000E+00  0.71212878327E+03  0.71212878327E+03  0.00000000000E+00 0.  1.
          2   -1    0    0  501    0  0.00000000000E+00 -0.00000000000E+00 -0.10404982888E+04  0.10404982888E+04  0.00000000000E+00 0. -1.
         24    2    1    2    0    0 -0.10163215754E+03 -0.49699490432E+03  0.25209453224E+03  0.57193885183E+03  0.78926337043E+02 0.  0.
        254    2    1    2    0    0  0.10163215754E+03  0.49699490432E+03 -0.58046403780E+03  0.11806882203E+04  0.89428918360E+03 0.  0.
         23    2    4    4    0    0 -0.30066637634E+03 -0.68308259072E+02 -0.12367400992E+03  0.34417658892E+03  0.89977638945E+02 0.  0.
         23    2    4    4    0    0  0.40229853389E+03  0.56530316339E+03 -0.45679002788E+03  0.83651163134E+03  0.98401234155E+02 0.  0.
          4    1    3    3  502    0 -0.25587542083E+02 -0.11619289473E+03  0.23327087503E+02  0.12124217132E+03  0.00000000000E+00 0. -1.
         -1    1    3    3    0  502 -0.76044615461E+02 -0.38080200960E+03  0.22876744474E+03  0.45069668051E+03  0.00000000000E+00 0.  1.
         11    1    5    5    0    0 -0.26539452237E+03 -0.48978900473E+02 -0.13586795404E+03  0.30214778856E+03  0.00000000000E+00 0. -1.
        -11    1    5    5    0    0 -0.35271853973E+02 -0.19329358599E+02  0.12193944122E+02  0.42028800361E+02  0.00000000000E+00 0.  1.
          2    1    6    6  503    0  0.31519435532E+03  0.40845861122E+03 -0.29159316734E+03  0.59263183676E+03  0.00000000000E+00 0. -1.
         -2    1    6    6    0  503  0.87104178565E+02  0.15684455218E+03 -0.16519686053E+03  0.24387979457E+03  0.00000000000E+00 0.  1.
<mgrwt>
<rscale>  0 0.17215909E+04</rscale>
<asrwt>0</asrwt>
<pdfrwt beam="1">  1        2 0.16007666E+00 0.17215909E+04</pdfrwt>
<pdfrwt beam="2">  1       -1 0.10955827E+00 0.17215909E+04</pdfrwt>
<totfact> 0.19819747E+01</totfact>
</mgrwt>
</event>
<event>
12    6  0.9491186E-008  0.1993233E+04  0.7818608E-02  0.8609791E-01
         -1   -1    0    0    0  501 -0.00000000000E+00  0.00000000000E+00  0.51158377691E+03  0.51158377691E+03  0.00000000000E+00 0.  1.
          2   -1    0    0  501    0  0.00000000000E+00 -0.00000000000E+00 -0.19415089553E+04  0.19415089553E+04  0.00000000000E+00 0. -1.
         24    2    1    2    0    0  0.41650680835E+03 -0.18794916362E+03  0.22284737746E+03  0.51455777747E+03  0.79409969202E+02 0.  0.
        254    2    1    2    0    0 -0.41650680835E+03  0.18794916362E+03 -0.16527725559E+04  0.19385349547E+04  0.90413375108E+03 0.  0.
         23    2    4    4    0    0 -0.51705449171E+03 -0.10664605190E+03 -0.14744397274E+04  0.15687429221E+04  0.90901695453E+02 0.  0.
         23    2    4    4    0    0  0.10054768337E+03  0.29459521552E+03 -0.17833282846E+03  0.36979203260E+03  0.89707145928E+02 0.  0.
          4    1    3    3  502    0  0.23868276471E+03 -0.11533689369E+03  0.85902421911E+02  0.27865980569E+03  0.00000000000E+00 0. -1.
         -3    1    3    3    0  502  0.17782404363E+03 -0.72612269924E+02  0.13694495555E+03  0.23589797178E+03  0.00000000000E+00 0.  1.
         11    1    5    5    0    0 -0.26380961565E+03 -0.36300778061E+02 -0.86446421040E+03  0.90455051316E+03  0.00000000000E+00 0. -1.
        -11    1    5    5    0    0 -0.25324487606E+03 -0.70345273841E+02 -0.60997551700E+03  0.66419240898E+03  0.00000000000E+00 0.  1.
          4    1    6    6  503    0  0.51236256633E+02  0.24146343199E+03 -0.16270061904E+03  0.29563699771E+03  0.00000000000E+00 0. -1.
         -4    1    6    6    0  503  0.49311426733E+02  0.53131783533E+02 -0.15632209421E+02  0.74155034888E+02  0.00000000000E+00 0.  1.
<mgrwt>
<rscale>  0 0.19932330E+04</rscale>
<asrwt>0</asrwt>
<pdfrwt beam="1">  1        2 0.29869368E+00 0.19932330E+04</pdfrwt>
<pdfrwt beam="2">  1       -1 0.78705197E-01 0.19932330E+04</pdfrwt>
<totfact> 0.12308286E+01</totfact>
</mgrwt>
</event>
<event>
12    6  0.9491186E-008  0.4676141E+04  0.7818608E-02  0.7880505E-01
          2   -1    0    0  501    0  0.00000000000E+00  0.00000000000E+00  0.41413704090E+04  0.41413704090E+04  0.00000000000E+00 0. -1.
         -1   -1    0    0    0  501 -0.00000000000E+00 -0.00000000000E+00 -0.13199913246E+04  0.13199913246E+04  0.00000000000E+00 0.  1.
         24    2    1    2    0    0 -0.18635637202E+04 -0.97167727659E+03  0.41760185053E+03  0.21442971087E+04  0.81193076492E+02 0.  0.
        254    2    1    2    0    0  0.18635637202E+04  0.97167727659E+03  0.24037772339E+04  0.33170646249E+04  0.89874705356E+03 0.  0.
         23    2    4    4    0    0  0.76410416122E+03 -0.64111061799E+02  0.83909875548E+03  0.11403733148E+04  0.91647030265E+02 0.  0.
         23    2    4    4    0    0  0.10994595590E+04  0.10357883384E+04  0.15646784784E+04  0.21766913101E+04  0.89986192660E+02 0.  0.
          2    1    3    3  502    0 -0.76297825435E+03 -0.36946012941E+03  0.13694103836E+03  0.85871383582E+03  0.00000000000E+00 0. -1.
         -1    1    3    3    0  502 -0.11005854659E+04 -0.60221714719E+03  0.28066081217E+03  0.12855832729E+04  0.00000000000E+00 0.  1.
         11    1    5    5    0    0  0.45125853277E+03 -0.47631627977E+00  0.52875129840E+03  0.69513482565E+03  0.00000000000E+00 0. -1.
        -11    1    5    5    0    0  0.31284562845E+03 -0.63634745519E+02  0.31034745708E+03  0.44523848912E+03  0.00000000000E+00 0.  1.
          3    1    6    6  503    0  0.71506965903E+02  0.99713739418E+02  0.11743991173E+03  0.16984760484E+03  0.00000000000E+00 0. -1.
         -3    1    6    6    0  503  0.10279525931E+04  0.93607459897E+03  0.14472385666E+04  0.20068437052E+04  0.00000000000E+00 0.  1.
<mgrwt>
<rscale>  0 0.46761407E+04</rscale>
<asrwt>0</asrwt>
<pdfrwt beam="1">  1        2 0.63713390E+00 0.46761407E+04</pdfrwt>
<pdfrwt beam="2">  1       -1 0.20307559E+00 0.46761407E+04</pdfrwt>
<totfact> 0.31544089E-02</totfact>
</mgrwt>
</event>
<event>
12    6  0.2649237E-007  0.2713476E+04  0.7818608E-02  0.8330646E-01
         -1   -1    0    0    0  501 -0.00000000000E+00  0.00000000000E+00  0.10884512043E+04  0.10884512043E+04  0.00000000000E+00 0.  1.
          2   -1    0    0  501    0  0.00000000000E+00 -0.00000000000E+00 -0.16911529924E+04  0.16911529924E+04  0.00000000000E+00 0. -1.
         24    2    1    2    0    0 -0.81692616358E+03 -0.62973103675E+03  0.35252448992E+03  0.10939099112E+04  0.91846842851E+02 0.  0.
        254    2    1    2    0    0  0.81692616358E+03  0.62973103675E+03 -0.95522627809E+03  0.16856942855E+04  0.93014969026E+03 0.  0.
         23    2    4    4    0    0  0.36752258429E+03  0.39076308802E+03  0.58956008650E+02  0.54725708764E+03  0.90806762362E+02 0.  0.
         23    2    4    4    0    0  0.44940357929E+03  0.23896794873E+03 -0.10141822867E+04  0.11384371978E+04  0.91674887751E+02 0.  0.
          2    1    3    3  502    0 -0.26637008290E+02 -0.50587034381E+01  0.17633791921E+02  0.32343025657E+02  0.00000000000E+00 0. -1.
         -1    1    3    3    0  502 -0.79028915529E+03 -0.62467233331E+03  0.33489069800E+03  0.10615668856E+04  0.00000000000E+00 0.  1.
         11    1    5    5    0    0  0.43140467400E+02  0.20552988105E+02 -0.13684788471E+02  0.49707129097E+02  0.00000000000E+00 0. -1.
        -11    1    5    5    0    0  0.32438211689E+03  0.37021009992E+03  0.72640797121E+02  0.49754995854E+03  0.00000000000E+00 0.  1.
          1    1    6    6  503    0  0.79049544445E+02  0.82251347018E+02 -0.25383329413E+03  0.27829023657E+03  0.00000000000E+00 0. -1.
         -1    1    6    6    0  503  0.37035403485E+03  0.15671660171E+03 -0.76034899261E+03  0.86014696125E+03  0.00000000000E+00 0.  1.
<mgrwt>
<rscale>  0 0.27134756E+04</rscale>
<asrwt>0</asrwt>
<pdfrwt beam="1">  1        2 0.26017738E+00 0.27134756E+04</pdfrwt>
<pdfrwt beam="2">  1       -1 0.16745403E+00 0.27134756E+04</pdfrwt>
<totfact> 0.25426412E+00</totfact>
</mgrwt>
</event>
<event>
12    6  0.9491186E-008  0.1784795E+04  0.7818608E-02  0.8714427E-01
          2   -1    0    0  501    0  0.00000000000E+00  0.00000000000E+00  0.88891948584E+03  0.88891948584E+03  0.00000000000E+00 0. -1.
         -1   -1    0    0    0  501 -0.00000000000E+00 -0.00000000000E+00 -0.89588910963E+03  0.89588910963E+03  0.00000000000E+00 0.  1.
         24    2    1    2    0    0  0.47829225388E+03  0.33431452232E+03 -0.31843356717E+03  0.66948415128E+03  0.79242742027E+02 0.  0.
        254    2    1    2    0    0 -0.47829225388E+03 -0.33431452232E+03  0.31146394337E+03  0.11153244442E+04  0.89800286627E+03 0.  0.
         23    2    4    4    0    0 -0.27893230502E+03  0.12036988034E+03 -0.21638644187E+03  0.38514628147E+03  0.96033468286E+02 0.  0.
         23    2    4    4    0    0 -0.19935994885E+03 -0.45468440265E+03  0.52785038524E+03  0.73017816272E+03  0.89731961335E+02 0.  0.
          4    1    3    3  502    0  0.12750703020E+03  0.10650858399E+03 -0.12890227798E+03  0.21028057086E+03  0.00000000000E+00 0. -1.
         -3    1    3    3    0  502  0.35078522367E+03  0.22780593832E+03 -0.18953128920E+03  0.45920358042E+03  0.00000000000E+00 0.  1.
         11    1    5    5    0    0 -0.25011580300E+03  0.68994322578E+02 -0.17030614245E+03  0.31035836321E+03  0.00000000000E+00 0.  1.
        -11    1    5    5    0    0 -0.28816502024E+02  0.51375557758E+02 -0.46080299417E+02  0.74787918264E+02  0.00000000000E+00 0. -1.
          3    1    6    6  503    0 -0.19339103179E+01 -0.78395880324E+02  0.10104259368E+03  0.12790332208E+03  0.00000000000E+00 0. -1.
         -3    1    6    6    0  503 -0.19742603853E+03 -0.37628852233E+03  0.42680779156E+03  0.60227484064E+03  0.00000000000E+00 0.  1.
<mgrwt>
<rscale>  0 0.17847950E+04</rscale>
<asrwt>0</asrwt>
<pdfrwt beam="1">  1        2 0.13675684E+00 0.17847950E+04</pdfrwt>
<pdfrwt beam="2">  1       -1 0.13782909E+00 0.17847950E+04</pdfrwt>
<totfact> 0.14052857E+01</totfact>
</mgrwt>
</event>
<event>
12    6  0.9491186E-008  0.1903556E+04  0.7818608E-02  0.8653088E-01
         -1   -1    0    0    0  501 -0.00000000000E+00  0.00000000000E+00  0.55420769266E+03  0.55420769266E+03  0.00000000000E+00 0.  1.
          2   -1    0    0  501    0  0.00000000000E+00 -0.00000000000E+00 -0.16345524471E+04  0.16345524471E+04  0.00000000000E+00 0. -1.
         24    2    1    2    0    0  0.40864649800E+03  0.39827685394E+03  0.11749158615E+03  0.58797840284E+03  0.79359414583E+02 0.  0.
        254    2    1    2    0    0 -0.40864649800E+03 -0.39827685394E+03 -0.11978363406E+04  0.16007817369E+04  0.89558576233E+03 0.  0.
         23    2    4    4    0    0 -0.44232243713E+03 -0.48694622797E+03 -0.12822588549E+04  0.14441068724E+04  0.92147276614E+02 0.  0.
         23    2    4    4    0    0  0.33675939138E+02  0.88669374030E+02  0.84422514309E+02  0.15667486453E+03  0.91779766207E+02 0.  0.
          4    1    3    3  502    0  0.13274001859E+03  0.18188463193E+03  0.55323414658E+02  0.23186766069E+03  0.00000000000E+00 0. -1.
         -3    1    3    3    0  502  0.27590647941E+03  0.21639222202E+03  0.62168171488E+02  0.35611074215E+03  0.00000000000E+00 0.  1.
         11    1    5    5    0    0 -0.35933340642E+03 -0.44259332702E+03 -0.10927637565E+04  0.12325347774E+04  0.00000000000E+00 0.  1.
        -11    1    5    5    0    0 -0.82989030718E+02 -0.44352900952E+02 -0.18949509838E+03  0.21157209493E+03  0.00000000000E+00 0. -1.
          1    1    6    6  503    0 -0.79274365892E+01  0.39833335421E+02 -0.10644275022E+02  0.41986181684E+02  0.00000000000E+00 0. -1.
         -1    1    6    6    0  503  0.41603375728E+02  0.48836038610E+02  0.95066789331E+02  0.11468868285E+03  0.00000000000E+00 0.  1.
<mgrwt>
<rscale>  0 0.19035562E+04</rscale>
<asrwt>0</asrwt>
<pdfrwt beam="1">  1        2 0.25146960E+00 0.19035562E+04</pdfrwt>
<pdfrwt beam="2">  1       -1 0.85262723E-01 0.19035562E+04</pdfrwt>
<totfact> 0.15471226E+01</totfact>
</mgrwt>
</event>
<event>
12    6  0.9491186E-008  0.1496696E+04  0.7818608E-02  0.8886653E-01
          2   -1    0    0  501    0  0.00000000000E+00  0.00000000000E+00  0.32589107578E+03  0.32589107578E+03  0.00000000000E+00 0. -1.
         -1   -1    0    0    0  501 -0.00000000000E+00 -0.00000000000E+00 -0.17184416429E+04  0.17184416429E+04  0.00000000000E+00 0.  1.
         24    2    1    2    0    0  0.18489439015E+03 -0.43278595782E+03 -0.37320412532E+03  0.60610372816E+03  0.81183676523E+02 0.  0.
        254    2    1    2    0    0 -0.18489439015E+03  0.43278595782E+03 -0.10193464418E+04  0.14382289906E+04  0.89885807555E+03 0.  0.
         23    2    4    4    0    0 -0.53292773362E+02  0.28356451373E+03  0.83695775051E+02  0.31371076890E+03  0.90335544605E+02 0.  0.
         23    2    4    4    0    0 -0.13160161679E+03  0.14922144409E+03 -0.11030422169E+04  0.11245182217E+04  0.90846429067E+02 0.  0.
          2    1    3    3  502    0  0.14464274364E+03 -0.32216310513E+03 -0.32135713349E+03  0.47747355617E+03  0.00000000000E+00 0. -1.
         -1    1    3    3    0  502  0.40251646506E+02 -0.11062285269E+03 -0.51846991831E+02  0.12863017199E+03  0.00000000000E+00 0.  1.
         11    1    5    5    0    0  0.84180903703E+01  0.88296912464E+01  0.22444316025E+02  0.25545547848E+02  0.00000000000E+00 0.  1.
        -11    1    5    5    0    0 -0.61710863732E+02  0.27473482249E+03  0.61251459025E+02  0.28816522105E+03  0.00000000000E+00 0. -1.
          2    1    6    6  503    0 -0.63560881225E+02  0.76418788509E+02 -0.78401202511E+03  0.79028771493E+03  0.00000000000E+00 0. -1.
         -2    1    6    6    0  503 -0.68040735564E+02  0.72802655577E+02 -0.31903019179E+03  0.33423050673E+03  0.00000000000E+00 0.  1.
<mgrwt>
<rscale>  0 0.14966961E+04</rscale>
<asrwt>0</asrwt>
<pdfrwt beam="1">  1        2 0.50137089E-01 0.14966961E+04</pdfrwt>
<pdfrwt beam="2">  1       -1 0.26437564E+00 0.14966961E+04</pdfrwt>
<totfact> 0.62305237E+00</totfact>
</mgrwt>
</event>
<event>
12    6  0.9491186E-008  0.1505981E+04  0.7818608E-02  0.8880485E-01
          2   -1    0    0  501    0  0.00000000000E+00  0.00000000000E+00  0.11748875311E+04  0.11748875311E+04  0.00000000000E+00 0. -1.
         -1   -1    0    0    0  501 -0.00000000000E+00 -0.00000000000E+00 -0.48259506641E+03  0.48259506641E+03  0.00000000000E+00 0.  1.
         24    2    1    2    0    0 -0.43746122190E+03  0.20650457275E+03  0.22844352780E+03  0.54094220894E+03  0.80097245795E+02 0.  0.
        254    2    1    2    0    0  0.43746122190E+03 -0.20650457275E+03  0.46384893688E+03  0.11165403886E+04  0.89302303654E+03 0.  0.
         23    2    4    4    0    0  0.39736194562E+03  0.29519416680E+03  0.25171400416E+03  0.56292037304E+03  0.92104801993E+02 0.  0.
         23    2    4    4    0    0  0.40099276280E+02 -0.50169873956E+03  0.21213493272E+03  0.55362001552E+03  0.90467202174E+02 0.  0.
          2    1    3    3  502    0 -0.38370315436E+03  0.17515170748E+03  0.16747681880E+03  0.45382233983E+03  0.00000000000E+00 0. -1.
         -1    1    3    3    0  502 -0.53758067545E+02  0.31352865273E+02  0.60966708998E+02  0.87119869106E+02  0.00000000000E+00 0.  1.
         11    1    5    5    0    0  0.23494048082E+03  0.12500802721E+03  0.15933131159E+03  0.31017817984E+03  0.00000000000E+00 0.  1.
        -11    1    5    5    0    0  0.16242146480E+03  0.17018613960E+03  0.92382692577E+02  0.25274219321E+03  0.00000000000E+00 0. -1.
          1    1    6    6  503    0 -0.79214867379E+01 -0.50311078333E+02 -0.35407039268E+01  0.51053806317E+02  0.00000000000E+00 0. -1.
         -1    1    6    6    0  503  0.48020763018E+02 -0.45138766122E+03  0.21567563665E+03  0.50256620920E+03  0.00000000000E+00 0.  1.
<mgrwt>
<rscale>  0 0.15059813E+04</rscale>
<asrwt>0</asrwt>
<pdfrwt beam="1">  1        2 0.18075193E+00 0.15059813E+04</pdfrwt>
<pdfrwt beam="2">  1       -1 0.74245395E-01 0.15059813E+04</pdfrwt>
<totfact> 0.39442484E+01</totfact>
</mgrwt>
</event>
<event>
12    6  0.9727336E-008  0.1725148E+04  0.7818608E-02  0.8747150E-01
         -1   -1    0    0    0  501 -0.00000000000E+00  0.00000000000E+00  0.49444806719E+03  0.49444806719E+03  0.00000000000E+00 0.  1.
          2   -1    0    0  501    0  0.00000000000E+00 -0.00000000000E+00 -0.15047768518E+04  0.15047768518E+04  0.00000000000E+00 0. -1.
         24    2    1    2    0    0 -0.51320705373E+02  0.12810303686E+03 -0.10597583046E+04  0.10715846804E+04  0.78497516809E+02 0.  0.
        254    2    1    2    0    0  0.51320705373E+02 -0.12810303686E+03  0.49429520031E+02  0.92764023859E+03  0.91598522475E+03 0.  0.
         23    2    4    4    0    0 -0.36477833400E+03 -0.22427649183E+03 -0.12728098434E+03  0.45593591946E+03  0.91180787106E+02 0.  0.
         23    2    4    4    0    0  0.41609903938E+03  0.96173454968E+02  0.17671050437E+03  0.47170431913E+03  0.94290075400E+02 0.  0.
          4    1    3    3  502    0 -0.49055559873E+02  0.11580188671E+03 -0.10436016441E+04  0.10511521852E+04  0.00000000000E+00 0. -1.
         -3    1    3    3    0  502 -0.22651455002E+01  0.12301150151E+02 -0.16156660531E+02  0.20432495166E+02  0.00000000000E+00 0.  1.
         11    1    5    5    0    0 -0.32250676372E+02 -0.56367477304E+02 -0.25471984155E+02  0.69758301304E+02  0.00000000000E+00 0.  1.
        -11    1    5    5    0    0 -0.33252765763E+03 -0.16790901452E+03 -0.10180900019E+03  0.38617761816E+03  0.00000000000E+00 0. -1.
          1    1    6    6  503    0  0.35007661793E+03  0.50853165131E+02  0.11989541468E+03  0.37351652345E+03  0.00000000000E+00 0. -1.
         -1    1    6    6    0  503  0.66022421446E+02  0.45320289836E+02  0.56815089693E+02  0.98187795684E+02  0.00000000000E+00 0.  1.
<mgrwt>
<rscale>  0 0.17251481E+04</rscale>
<asrwt>0</asrwt>
<pdfrwt beam="1">  1        2 0.23150413E+00 0.17251481E+04</pdfrwt>
<pdfrwt beam="2">  1       -1 0.76068934E-01 0.17251481E+04</pdfrwt>
<totfact> 0.23692802E+01</totfact>
</mgrwt>
</event>
<event>
12    6  0.9491186E-008  0.1865981E+04  0.7818608E-02  0.8671977E-01
         -1   -1    0    0    0  501 -0.00000000000E+00  0.00000000000E+00  0.74186347200E+03  0.74186347200E+03  0.00000000000E+00 0.  1.
          2   -1    0    0  501    0  0.00000000000E+00 -0.00000000000E+00 -0.11733582374E+04  0.11733582374E+04  0.00000000000E+00 0. -1.
         24    2    1    2    0    0 -0.45940353771E+03 -0.51091465091E+03 -0.36862871267E+03  0.78394507815E+03  0.81224176042E+02 0.  0.
        254    2    1    2    0    0  0.45940353771E+03  0.51091465091E+03 -0.62866052712E+02  0.11312766312E+04  0.89652065497E+03 0.  0.
         23    2    4    4    0    0  0.43658978722E+03  0.21233439670E+03  0.35598116301E+03  0.60837876857E+03  0.87781543116E+02 0.  0.
         23    2    4    4    0    0  0.22813750497E+02  0.29858025421E+03 -0.41884721572E+03  0.52289786265E+03  0.91206081123E+02 0.  0.
          4    1    3    3  502    0 -0.40330136039E+03 -0.48256758585E+03 -0.33115313941E+03  0.71076428156E+03  0.00000000000E+00 0. -1.
         -3    1    3    3    0  502 -0.56102177320E+02 -0.28347065058E+02 -0.37475573261E+02  0.73180796584E+02  0.00000000000E+00 0.  1.
         11    1    5    5    0    0  0.24790258656E+02  0.79099925764E+01  0.49249085993E+02  0.55700963887E+02  0.00000000000E+00 0. -1.
        -11    1    5    5    0    0  0.41179952856E+03  0.20442440413E+03  0.30673207701E+03  0.55267780469E+03  0.00000000000E+00 0.  1.
          4    1    6    6  503    0 -0.33276586144E+02  0.11487979849E+03 -0.13749145453E+03  0.18223226760E+03  0.00000000000E+00 0. -1.
         -4    1    6    6    0  503  0.56090336640E+02  0.18370045572E+03 -0.28135576119E+03  0.34066559505E+03  0.00000000000E+00 0.  1.
<mgrwt>
<rscale>  0 0.18659814E+04</rscale>
<asrwt>0</asrwt>
<pdfrwt beam="1">  1        2 0.18051665E+00 0.18659814E+04</pdfrwt>
<pdfrwt beam="2">  1       -1 0.11413284E+00 0.18659814E+04</pdfrwt>
<totfact> 0.14711604E+01</totfact>
</mgrwt>
</event>
<event>
12    6  0.9491186E-008  0.1550049E+04  0.7818608E-02  0.8851837E-01
         -1   -1    0    0    0  501 -0.00000000000E+00  0.00000000000E+00  0.12753093530E+04  0.12753093530E+04  0.00000000000E+00 0.  1.
          2   -1    0    0  501    0  0.00000000000E+00 -0.00000000000E+00 -0.47099378182E+03  0.47099378182E+03  0.00000000000E+00 0. -1.
         24    2    1    2    0    0  0.47962310044E+03 -0.16728016392E+03  0.21812157523E+03  0.55844434057E+03  0.79133357220E+02 0.  0.
        254    2    1    2    0    0 -0.47962310044E+03  0.16728016392E+03  0.58619399592E+03  0.11878587942E+04  0.89964667645E+03 0.  0.
         23    2    4    4    0    0 -0.68224284016E+03 -0.24295118987E+01  0.59229293256E+03  0.90795246474E+03  0.90030910189E+02 0.  0.
         23    2    4    4    0    0  0.20261973972E+03  0.16970967582E+03 -0.60989366423E+01  0.27990632948E+03  0.91946850214E+02 0.  0.
          4    1    3    3  502    0  0.34024775488E+02  0.73194299838E+01  0.22380830217E+02  0.41378266802E+02  0.00000000000E+00 0. -1.
         -3    1    3    3    0  502  0.44559832495E+03 -0.17459959390E+03  0.19574074501E+03  0.51706607377E+03  0.00000000000E+00 0.  1.
         11    1    5    5    0    0 -0.54742820309E+03  0.33957737969E+02  0.47613992400E+03  0.72631948393E+03  0.00000000000E+00 0. -1.
        -11    1    5    5    0    0 -0.13481463707E+03 -0.36387249868E+02  0.11615300857E+03  0.18163298082E+03  0.00000000000E+00 0.  1.
          2    1    6    6  503    0  0.44474385467E+02  0.25222866969E+02  0.34770097947E+02  0.61831413473E+02  0.00000000000E+00 0. -1.
         -2    1    6    6    0  503  0.15814535425E+03  0.14448680885E+03 -0.40869034590E+02  0.21807491601E+03  0.00000000000E+00 0.  1.
<mgrwt>
<rscale>  0 0.15500487E+04</rscale>
<asrwt>0</asrwt>
<pdfrwt beam="1">  1        2 0.72460582E-01 0.15500487E+04</pdfrwt>
<pdfrwt beam="2">  1       -1 0.19620144E+00 0.15500487E+04</pdfrwt>
<totfact> 0.11613030E+01</totfact>
</mgrwt>
</event>
<event>
12    6  0.9491186E-008  0.1992803E+04  0.7818608E-02  0.8609993E-01
          2   -1    0    0  501    0  0.00000000000E+00  0.00000000000E+00  0.19939053156E+04  0.19939053156E+04  0.00000000000E+00 0. -1.
         -1   -1    0    0    0  501 -0.00000000000E+00 -0.00000000000E+00 -0.49792548446E+03  0.49792548446E+03  0.00000000000E+00 0.  1.
         24    2    1    2    0    0 -0.65347265603E+03 -0.41547310698E+03  0.47387426746E+03  0.91124628546E+03  0.78540159130E+02 0.  0.
        254    2    1    2    0    0  0.65347265603E+03  0.41547310698E+03  0.10221055637E+04  0.15805845146E+04  0.92406883382E+03 0.  0.
         23    2    4    4    0    0 -0.14687252506E+03 -0.31463679658E+01 -0.45373501165E+02  0.17880900145E+03  0.91282343000E+02 0.  0.
         23    2    4    4    0    0  0.80034518109E+03  0.41861947494E+03  0.10674790648E+04  0.14017755131E+04  0.98327827464E+02 0.  0.
          4    1    3    3  502    0 -0.74604469612E+02 -0.78547045582E+02  0.58439657972E+02  0.12308801274E+03  0.00000000000E+00 0. -1.
         -3    1    3    3    0  502 -0.57886818642E+03 -0.33692606140E+03  0.41543460949E+03  0.78815827272E+03  0.00000000000E+00 0.  1.
         11    1    5    5    0    0  0.12129697745E+02  0.65726674575E+00  0.31032772375E+01  0.12537619254E+02  0.00000000000E+00 0. -1.
        -11    1    5    5    0    0 -0.15900222280E+03 -0.38036347115E+01 -0.48476778403E+02  0.16627138220E+03  0.00000000000E+00 0.  1.
          1    1    6    6  503    0  0.16478629081E+03  0.60447459042E+02  0.25817879470E+03  0.31219338074E+03  0.00000000000E+00 0. -1.
         -1    1    6    6    0  503  0.63555889028E+03  0.35817201590E+03  0.80930027012E+03  0.10895821324E+04  0.00000000000E+00 0.  1.
<mgrwt>
<rscale>  0 0.19928033E+04</rscale>
<asrwt>0</asrwt>
<pdfrwt beam="1">  1        2 0.30675466E+00 0.19928033E+04</pdfrwt>
<pdfrwt beam="2">  1       -1 0.76603922E-01 0.19928033E+04</pdfrwt>
<totfact> 0.12187662E+01</totfact>
</mgrwt>
</event>
<event>
12    6  0.9491186E-008  0.1426668E+04  0.7818608E-02  0.8934738E-01
         -1   -1    0    0    0  501 -0.00000000000E+00  0.00000000000E+00  0.28629623265E+03  0.28629623265E+03  0.00000000000E+00 0.  1.
          2   -1    0    0  501    0  0.00000000000E+00 -0.00000000000E+00 -0.17773381493E+04  0.17773381493E+04  0.00000000000E+00 0. -1.
         24    2    1    2    0    0  0.29485035140E+03  0.23689395032E+03 -0.74509135462E+03  0.83918287100E+03  0.77532514608E+02 0.  0.
        254    2    1    2    0    0 -0.29485035140E+03 -0.23689395032E+03 -0.74595056208E+03  0.12244515110E+04  0.89430631683E+03 0.  0.
         23    2    4    4    0    0  0.78838080269E+02  0.23806542361E+03 -0.10566021419E+02  0.26866079389E+03  0.95793489043E+02 0.  0.
         23    2    4    4    0    0 -0.37368843167E+03 -0.47495937393E+03 -0.73538454066E+03  0.95579071712E+03  0.86694990847E+02 0.  0.
          4    1    3    3  502    0  0.25133411726E+03  0.16072404093E+03 -0.58061880350E+03  0.65277810227E+03  0.00000000000E+00 0. -1.
         -3    1    3    3    0  502  0.43516234147E+02  0.76169909381E+02 -0.16447255112E+03  0.18640476872E+03  0.00000000000E+00 0.  1.
         11    1    5    5    0    0  0.79936225655E+02  0.13540472937E+03 -0.39246698318E+02  0.16206339573E+03  0.00000000000E+00 0. -1.
        -11    1    5    5    0    0 -0.10981453865E+01  0.10266069424E+03  0.28680676900E+02  0.10659739815E+03  0.00000000000E+00 0.  1.
          1    1    6    6  503    0 -0.37384401455E+03 -0.44904073819E+03 -0.71003469958E+03  0.91953586466E+03  0.00000000000E+00 0. -1.
         -1    1    6    6    0  503  0.15558288197E+00 -0.25918635736E+02 -0.25349841075E+02  0.36254852461E+02  0.00000000000E+00 0.  1.
<mgrwt>
<rscale>  0 0.14266677E+04</rscale>
<asrwt>0</asrwt>
<pdfrwt beam="1">  1        2 0.27343664E+00 0.14266677E+04</pdfrwt>
<pdfrwt beam="2">  1       -1 0.44045574E-01 0.14266677E+04</pdfrwt>
<totfact> 0.50109255E+01</totfact>
</mgrwt>
</event>
<event>
12    6  0.9491186E-008  0.1110827E+04  0.7818608E-02  0.9194703E-01
         -1   -1    0    0    0  501 -0.00000000000E+00  0.00000000000E+00  0.79359124476E+03  0.79359124476E+03  0.00000000000E+00 0.  1.
          2   -1    0    0  501    0  0.00000000000E+00 -0.00000000000E+00 -0.38871929414E+03  0.38871929414E+03  0.00000000000E+00 0. -1.
         24    2    1    2    0    0 -0.24707984234E+02 -0.16943331346E+03  0.39395271423E+01  0.18889660832E+03  0.79676072720E+02 0.  0.
        254    2    1    2    0    0  0.24707984234E+02  0.16943331346E+03  0.40093242348E+03  0.99341393058E+03  0.89264007140E+03 0.  0.
         23    2    4    4    0    0 -0.21259252770E+03  0.46102456482E+03  0.28657541026E+03  0.59015275832E+03  0.91736471429E+02 0.  0.
         23    2    4    4    0    0  0.23730051193E+03 -0.29159125136E+03  0.11435701322E+03  0.40326117226E+03  0.90581762758E+02 0.  0.
          2    1    3    3  502    0 -0.12968664034E+02 -0.17477632546E+03  0.78088252249E+01  0.17543069269E+03  0.00000000000E+00 0. -1.
         -1    1    3    3    0  502 -0.11739320200E+02  0.53430119960E+01 -0.38692980826E+01  0.13465915624E+02  0.00000000000E+00 0.  1.
         11    1    5    5    0    0 -0.17889125229E+03  0.44072196132E+03  0.27361600992E+03  0.54872912099E+03  0.00000000000E+00 0. -1.
        -11    1    5    5    0    0 -0.33701275404E+02  0.20302603504E+02  0.12959400330E+02  0.41423637332E+02  0.00000000000E+00 0.  1.
          4    1    6    6  503    0  0.13564864676E+03 -0.22511255509E+03  0.56972624956E+02  0.26892768139E+03  0.00000000000E+00 0. -1.
         -4    1    6    6    0  503  0.10165186517E+03 -0.66478696274E+02  0.57384388266E+02  0.13433349086E+03  0.00000000000E+00 0.  1.
<mgrwt>
<rscale>  0 0.11108271E+04</rscale>
<asrwt>0</asrwt>
<pdfrwt beam="1">  1        2 0.59802969E-01 0.11108271E+04</pdfrwt>
<pdfrwt beam="2">  1       -1 0.12209096E+00 0.11108271E+04</pdfrwt>
<totfact> 0.55367610E+01</totfact>
</mgrwt>
</event>
<event>
12    6  0.9491186E-008  0.2608753E+04  0.7818608E-02  0.8365234E-01
         -1   -1    0    0    0  501 -0.00000000000E+00  0.00000000000E+00  0.79034835211E+03  0.79034835211E+03  0.00000000000E+00 0.  1.
          2   -1    0    0  501    0  0.00000000000E+00 -0.00000000000E+00 -0.21527184578E+04  0.21527184578E+04  0.00000000000E+00 0. -1.
         24    2    1    2    0    0  0.13712198207E+03  0.54268112368E+03 -0.17045115486E+04  0.17958802804E+04  0.80753467143E+02 0.  0.
        254    2    1    2    0    0 -0.13712198207E+03 -0.54268112368E+03  0.34214144293E+03  0.11471865294E+04  0.94110091189E+03 0.  0.
         23    2    4    4    0    0  0.23924026872E+03  0.15348603581E+03  0.72451569547E+02  0.30623612814E+03  0.87962872191E+02 0.  0.
         23    2    4    4    0    0 -0.37636225079E+03 -0.69616715948E+03  0.26968987339E+03  0.84095040128E+03  0.90375283418E+02 0.  0.
          4    1    3    3  502    0  0.82255413720E+02  0.38954205012E+03 -0.13094849041E+04  0.13686707698E+04  0.00000000000E+00 0. -1.
         -3    1    3    3    0  502  0.54866568350E+02  0.15313907356E+03 -0.39502664446E+03  0.42720951067E+03  0.00000000000E+00 0.  1.
         11    1    5    5    0    0  0.61648311000E+02  0.21860040806E+02  0.53262560284E+02  0.84352095180E+02  0.00000000000E+00 0.  1.
        -11    1    5    5    0    0  0.17759195772E+03  0.13162599500E+03  0.19189009263E+02  0.22188403296E+03  0.00000000000E+00 0. -1.
          1    1    6    6  503    0 -0.27478425583E+03 -0.54760143916E+03  0.17292189368E+03  0.63661268031E+03  0.00000000000E+00 0. -1.
         -1    1    6    6    0  503 -0.10157799496E+03 -0.14856572032E+03  0.96767979709E+02  0.20433772097E+03  0.00000000000E+00 0.  1.
<mgrwt>
<rscale>  0 0.26087526E+04</rscale>
<asrwt>0</asrwt>
<pdfrwt beam="1">  1        2 0.33118746E+00 0.26087526E+04</pdfrwt>
<pdfrwt beam="2">  1       -1 0.12159205E+00 0.26087526E+04</pdfrwt>
<totfact> 0.33077813E+00</totfact>
</mgrwt>
</event>
<event>
12    6  0.9491186E-008  0.1793535E+04  0.7818608E-02  0.8709745E-01
         -1   -1    0    0    0  501 -0.00000000000E+00  0.00000000000E+00  0.86624991864E+03  0.86624991864E+03  0.00000000000E+00 0.  1.
          2   -1    0    0  501    0  0.00000000000E+00 -0.00000000000E+00 -0.92835968927E+03  0.92835968927E+03  0.00000000000E+00 0. -1.
         24    2    1    2    0    0 -0.54607100578E+03  0.22560254834E+03  0.28724714687E+03  0.66191103238E+03  0.80778946757E+02 0.  0.
        254    2    1    2    0    0  0.54607100578E+03 -0.22560254834E+03 -0.34935691749E+03  0.11326985755E+04  0.90103593382E+03 0.  0.
         23    2    4    4    0    0  0.56866493861E+03 -0.11352632826E+03 -0.60134743713E+03  0.84071025140E+03  0.94376623468E+02 0.  0.
         23    2    4    4    0    0 -0.22593932826E+02 -0.11207622007E+03  0.25199051964E+03  0.29198832413E+03  0.93200829031E+02 0.  0.
          2    1    3    3  502    0 -0.44158316441E+03  0.20299381259E+03  0.26173550065E+03  0.55200330736E+03  0.00000000000E+00 0. -1.
         -1    1    3    3    0  502 -0.10448784137E+03  0.22608735745E+02  0.25511646216E+02  0.10990772502E+03  0.00000000000E+00 0.  1.
         11    1    5    5    0    0  0.37584386514E+03 -0.78882094805E+02 -0.33196882282E+03  0.50762613720E+03  0.00000000000E+00 0. -1.
        -11    1    5    5    0    0  0.19282107346E+03 -0.34644233457E+02 -0.26937861431E+03  0.33308411420E+03  0.00000000000E+00 0.  1.
          2    1    6    6  503    0 -0.36964681465E+02 -0.12349561517E+02  0.33528367514E+02  0.51410609544E+02  0.00000000000E+00 0. -1.
         -2    1    6    6    0  503  0.14370748639E+02 -0.99726658556E+02  0.21846215212E+03  0.24057771458E+03  0.00000000000E+00 0.  1.
<mgrwt>
<rscale>  0 0.17935345E+04</rscale>
<asrwt>0</asrwt>
<pdfrwt beam="1">  1        2 0.14282457E+00 0.17935345E+04</pdfrwt>
<pdfrwt beam="2">  1       -1 0.13326922E+00 0.17935345E+04</pdfrwt>
<totfact> 0.14402333E+01</totfact>
</mgrwt>
</event>
<event>
12    6  0.9491186E-008  0.1450668E+04  0.7818608E-02  0.8917938E-01
         -1   -1    0    0    0  501 -0.00000000000E+00  0.00000000000E+00  0.13293804939E+03  0.13293804939E+03  0.00000000000E+00 0.  1.
          2   -1    0    0  501    0  0.00000000000E+00 -0.00000000000E+00 -0.39575524923E+04  0.39575524923E+04  0.00000000000E+00 0. -1.
         24    2    1    2    0    0 -0.18900231570E+03  0.45437179829E+02 -0.62913394522E+02  0.21675557377E+03  0.72377281651E+02 0.  0.
        254    2    1    2    0    0  0.18900231570E+03 -0.45437179829E+02 -0.37617010484E+04  0.38737349679E+04  0.90423526344E+03 0.  0.
         23    2    4    4    0    0 -0.18409289783E+03  0.31759406837E+03 -0.12065283744E+04  0.12644471232E+04  0.91430967689E+02 0.  0.
         23    2    4    4    0    0  0.37309521353E+03 -0.36303124820E+03 -0.25551726740E+04  0.26092878447E+04  0.92108290604E+02 0.  0.
          2    1    3    3  502    0 -0.17138981942E+02 -0.14497935623E+02  0.40559905636E+01  0.22811968324E+02  0.00000000000E+00 0. -1.
         -1    1    3    3    0  502 -0.17186333376E+03  0.59935115452E+02 -0.66969385086E+02  0.19394360544E+03  0.00000000000E+00 0.  1.
         11    1    5    5    0    0 -0.51025153520E+02  0.37833899194E+02 -0.13803298222E+03  0.15194760413E+03  0.00000000000E+00 0. -1.
        -11    1    5    5    0    0 -0.13306774431E+03  0.27976016918E+03 -0.10684953922E+04  0.11124995191E+04  0.00000000000E+00 0.  1.
          1    1    6    6  503    0  0.32617405773E+02 -0.74936242197E+02 -0.45447625377E+03  0.46176617546E+03  0.00000000000E+00 0. -1.
         -1    1    6    6    0  503  0.34047780776E+03 -0.28809500600E+03 -0.21006964202E+04  0.21475216693E+04  0.00000000000E+00 0.  1.
<mgrwt>
<rscale>  0 0.14506679E+04</rscale>
<asrwt>0</asrwt>
<pdfrwt beam="1">  1        2 0.60885409E+00 0.14506679E+04</pdfrwt>
<pdfrwt beam="2">  1       -1 0.20452012E-01 0.14506679E+04</pdfrwt>
<totfact> 0.82553730E+00</totfact>
</mgrwt>
</event>
<event>
12    6  0.9491186E-008  0.1657310E+04  0.7818608E-02  0.8786093E-01
          2   -1    0    0  501    0  0.00000000000E+00  0.00000000000E+00  0.11674589115E+04  0.11674589115E+04  0.00000000000E+00 0. -1.
         -1   -1    0    0    0  501 -0.00000000000E+00 -0.00000000000E+00 -0.58817434580E+03  0.58817434580E+03  0.00000000000E+00 0.  1.
         24    2    1    2    0    0 -0.90597000351E+02 -0.28281197779E+03  0.73290383743E+03  0.79484267271E+03  0.80227228491E+02 0.  0.
        254    2    1    2    0    0  0.90597000351E+02  0.28281197779E+03 -0.15361927175E+03  0.96079058456E+03  0.90073816144E+03 0.  0.
         23    2    4    4    0    0 -0.31341427230E+03  0.38666881630E+03  0.25511752398E+01  0.50593643628E+03  0.90685663022E+02 0.  0.
         23    2    4    4    0    0  0.40401127265E+03 -0.10385683851E+03 -0.15617044699E+03  0.45485414828E+03  0.92150617789E+02 0.  0.
          4    1    3    3  502    0 -0.96332122742E+02 -0.18704835438E+03  0.46859043430E+03  0.51365743435E+03  0.00000000000E+00 0. -1.
         -3    1    3    3    0  502  0.57351223913E+01 -0.95763623410E+02  0.26431340313E+03  0.28118523836E+03  0.00000000000E+00 0.  1.
         11    1    5    5    0    0 -0.20787713304E+03  0.31665588111E+03 -0.77261286050E+01  0.37887140635E+03  0.00000000000E+00 0.  1.
        -11    1    5    5    0    0 -0.10553713926E+03  0.70012935183E+02  0.10277303845E+02  0.12706502993E+03  0.00000000000E+00 0. -1.
          1    1    6    6  503    0  0.35191332137E+03 -0.12034337078E+03 -0.14431195630E+03  0.39893790667E+03  0.00000000000E+00 0.  1.
         -1    1    6    6    0  503  0.52097951283E+02  0.16486532272E+02 -0.11858490696E+02  0.55916241611E+02  0.00000000000E+00 0. -1.
<mgrwt>
<rscale>  0 0.16573103E+04</rscale>
<asrwt>0</asrwt>
<pdfrwt beam="1">  1        2 0.17960906E+00 0.16573103E+04</pdfrwt>
<pdfrwt beam="2">  1       -1 0.90488361E-01 0.16573103E+04</pdfrwt>
<totfact> 0.25751218E+01</totfact>
</mgrwt>
</event>
<event>
12    6  0.9491186E-008  0.1798192E+04  0.7818608E-02  0.8707262E-01
          2   -1    0    0  501    0  0.00000000000E+00  0.00000000000E+00  0.14900603879E+04  0.14900603879E+04  0.00000000000E+00 0. -1.
         -1   -1    0    0    0  501 -0.00000000000E+00 -0.00000000000E+00 -0.54251039103E+03  0.54251039103E+03  0.00000000000E+00 0.  1.
         24    2    1    2    0    0 -0.13020971011E+03 -0.62718509682E+03  0.55808470108E+03  0.85279027695E+03  0.74006814555E+02 0.  0.
        254    2    1    2    0    0  0.13020971011E+03  0.62718509682E+03  0.38946529579E+03  0.11797805020E+04  0.91097919951E+03 0.  0.
         23    2    4    4    0    0  0.85054206399E+02  0.45643109416E+03  0.67950134854E+03  0.82799437725E+03  0.91044188953E+02 0.  0.
         23    2    4    4    0    0  0.45155503711E+02  0.17075400266E+03 -0.29003605275E+03  0.35178612472E+03  0.91851057229E+02 0.  0.
          2    1    3    3  502    0 -0.10866097266E+03 -0.40133139768E+03  0.32717909703E+03  0.52907490895E+03  0.00000000000E+00 0. -1.
         -1    1    3    3    0  502 -0.21548737455E+02 -0.22585369914E+03  0.23090560404E+03  0.32371536800E+03  0.00000000000E+00 0.  1.
         11    1    5    5    0    0  0.75332131079E+02  0.44713201295E+03  0.67617784175E+03  0.81413662284E+03  0.00000000000E+00 0. -1.
        -11    1    5    5    0    0  0.97220753205E+01  0.92990812132E+01  0.33235067974E+01  0.13857754413E+02  0.00000000000E+00 0.  1.
          2    1    6    6  503    0  0.13620137216E+02  0.16516683490E+03 -0.25677603194E+03  0.30561335388E+03  0.00000000000E+00 0. -1.
         -2    1    6    6    0  503  0.31535366495E+02  0.55871677599E+01 -0.33260020809E+02  0.46172770847E+02  0.00000000000E+00 0.  1.
<mgrwt>
<rscale>  0 0.17981916E+04</rscale>
<asrwt>0</asrwt>
<pdfrwt beam="1">  1        2 0.22924006E+00 0.17981916E+04</pdfrwt>
<pdfrwt beam="2">  1       -1 0.83463138E-01 0.17981916E+04</pdfrwt>
<totfact> 0.19705473E+01</totfact>
</mgrwt>
</event>
<event>
12    6  0.9491186E-008  0.1400464E+04  0.7818608E-02  0.8953483E-01
         -1   -1    0    0    0  501 -0.00000000000E+00  0.00000000000E+00  0.13584697755E+03  0.13584697755E+03  0.00000000000E+00 0.  1.
          2   -1    0    0  501    0  0.00000000000E+00 -0.00000000000E+00 -0.36093894617E+04  0.36093894617E+04  0.00000000000E+00 0. -1.
         24    2    1    2    0    0  0.13483751705E+03  0.10993463357E+03 -0.20084124117E+04  0.20175183607E+04  0.79957116083E+02 0.  0.
        254    2    1    2    0    0 -0.13483751705E+03 -0.10993463357E+03 -0.14651300725E+04  0.17277180786E+04  0.89896432091E+03 0.  0.
         23    2    4    4    0    0  0.31101860690E+03  0.88394510898E+02 -0.96975626347E+03  0.10266548050E+04  0.95114219410E+02 0.  0.
         23    2    4    4    0    0 -0.44585612395E+03 -0.19832914447E+03 -0.49537380899E+03  0.70106327359E+03  0.89288129872E+02 0.  0.
          2    1    3    3  502    0  0.11672782928E+03  0.10441891639E+03 -0.19461466140E+04  0.19524383062E+04  0.00000000000E+00 0. -1.
         -1    1    3    3    0  502  0.18109687770E+02  0.55157171816E+01 -0.62265797721E+02  0.65080054495E+02  0.00000000000E+00 0.  1.
         11    1    5    5    0    0  0.25135569146E+03  0.92950232620E+02 -0.68243780121E+03  0.73317172742E+03  0.00000000000E+00 0. -1.
        -11    1    5    5    0    0  0.59662915441E+02 -0.45557217225E+01 -0.28731846226E+03  0.29348307759E+03  0.00000000000E+00 0.  1.
          4    1    6    6  503    0 -0.20458967077E+03 -0.12991316631E+03 -0.28165723729E+03  0.37157120918E+03  0.00000000000E+00 0. -1.
         -4    1    6    6    0  503 -0.24126645317E+03 -0.68415978154E+02 -0.21371657170E+03  0.32949206442E+03  0.00000000000E+00 0.  1.
<mgrwt>
<rscale>  0 0.14004637E+04</rscale>
<asrwt>0</asrwt>
<pdfrwt beam="1">  1        2 0.55529064E+00 0.14004637E+04</pdfrwt>
<pdfrwt beam="2">  1       -1 0.20899537E-01 0.14004637E+04</pdfrwt>
<totfact> 0.14591986E+01</totfact>
</mgrwt>
</event>
<event>
12    6  0.9491186E-008  0.1781992E+04  0.7818608E-02  0.8715935E-01
          2   -1    0    0  501    0  0.00000000000E+00  0.00000000000E+00  0.11011410151E+04  0.11011410151E+04  0.00000000000E+00 0. -1.
         -1   -1    0    0    0  501 -0.00000000000E+00 -0.00000000000E+00 -0.72095554714E+03  0.72095554714E+03  0.00000000000E+00 0.  1.
         24    2    1    2    0    0 -0.44924298511E+03  0.11084920579E+03 -0.33640717849E+03  0.57743850760E+03  0.78476966175E+02 0.  0.
        254    2    1    2    0    0  0.44924298511E+03 -0.11084920579E+03  0.71659264644E+03  0.12446580546E+04  0.90640048870E+03 0.  0.
         23    2    4    4    0    0  0.63345251923E+02  0.36339882646E+03  0.39232462800E+03  0.54632520281E+03  0.92093894916E+02 0.  0.
         23    2    4    4    0    0  0.38589773319E+03 -0.47424803225E+03  0.32426801844E+03  0.69833285181E+03  0.93224286333E+02 0.  0.
          2    1    3    3  502    0 -0.16539565508E+03  0.61612219480E+01 -0.13958143156E+03  0.21651018316E+03  0.00000000000E+00 0. -1.
         -1    1    3    3    0  502 -0.28384733003E+03  0.10468798384E+03 -0.19682574693E+03  0.36092832444E+03  0.00000000000E+00 0.  1.
         11    1    5    5    0    0  0.52653474994E+02  0.28466993113E+03  0.35630826948E+03  0.45909142992E+03  0.00000000000E+00 0. -1.
        -11    1    5    5    0    0  0.10691776929E+02  0.78728895326E+02  0.36016358518E+02  0.87233772898E+02  0.00000000000E+00 0.  1.
          3    1    6    6  503    0  0.32791172227E+03 -0.43930766690E+03  0.30765607132E+03  0.62862515224E+03  0.00000000000E+00 0. -1.
         -3    1    6    6    0  503  0.57986010919E+02 -0.34940365343E+02  0.16611947115E+02  0.69707699572E+02  0.00000000000E+00 0.  1.
<mgrwt>
<rscale>  0 0.17819918E+04</rscale>
<asrwt>0</asrwt>
<pdfrwt beam="1">  1        2 0.16940631E+00 0.17819918E+04</pdfrwt>
<pdfrwt beam="2">  1       -1 0.11091624E+00 0.17819918E+04</pdfrwt>
<totfact> 0.17553462E+01</totfact>
</mgrwt>
</event>
<event>
12    6  0.9491186E-008  0.1791550E+04  0.7818608E-02  0.8710806E-01
          2   -1    0    0  501    0  0.00000000000E+00  0.00000000000E+00  0.91675411275E+03  0.91675411275E+03  0.00000000000E+00 0. -1.
         -1   -1    0    0    0  501 -0.00000000000E+00 -0.00000000000E+00 -0.87527602502E+03  0.87527602502E+03  0.00000000000E+00 0.  1.
         24    2    1    2    0    0  0.43112974227E+03  0.49952326551E+03 -0.98885285936E+02  0.67198063358E+03  0.79895711237E+02 0.  0.
        254    2    1    2    0    0 -0.43112974227E+03 -0.49952326551E+03  0.14036337366E+03  0.11200495042E+04  0.89409880200E+03 0.  0.
         23    2    4    4    0    0  0.23152036988E+03  0.30026834223E+02  0.80458452122E+02  0.26492455024E+03  0.95959170255E+02 0.  0.
         23    2    4    4    0    0 -0.66265011215E+03 -0.52955009973E+03  0.59904921543E+02  0.85512495396E+03  0.90119964503E+02 0.  0.
          2    1    3    3  502    0  0.70035272707E+01  0.24106625243E+02 -0.15342470562E+02  0.29420574057E+02  0.00000000000E+00 0. -1.
         -1    1    3    3    0  502  0.42412621500E+03  0.47541664027E+03 -0.83542815374E+02  0.64256005952E+03  0.00000000000E+00 0.  1.
         11    1    5    5    0    0  0.19915072943E+02  0.22283138937E+01  0.44082202224E+02  0.48423300858E+02  0.00000000000E+00 0. -1.
        -11    1    5    5    0    0  0.21160529694E+03  0.27798520330E+02  0.36376249898E+02  0.21650124938E+03  0.00000000000E+00 0.  1.
          3    1    6    6  503    0 -0.46035018374E+02 -0.60984946934E+02  0.23015222725E+02  0.79800295402E+02  0.00000000000E+00 0. -1.
         -3    1    6    6    0  503 -0.61661509378E+03 -0.46856515280E+03  0.36889698819E+02  0.77532465856E+03  0.00000000000E+00 0.  1.
<mgrwt>
<rscale>  0 0.17915501E+04</rscale>
<asrwt>0</asrwt>
<pdfrwt beam="1">  1        2 0.14103910E+00 0.17915501E+04</pdfrwt>
<pdfrwt beam="2">  1       -1 0.13465785E+00 0.17915501E+04</pdfrwt>
<totfact> 0.14280978E+01</totfact>
</mgrwt>
</event>
<event>
12    6  0.9491186E-008  0.2193776E+04  0.7818608E-02  0.8521023E-01
          2   -1    0    0  501    0  0.00000000000E+00  0.00000000000E+00  0.11012510881E+04  0.11012510881E+04  0.00000000000E+00 0. -1.
         -1   -1    0    0    0  501 -0.00000000000E+00 -0.00000000000E+00 -0.10925420568E+04  0.10925420568E+04  0.00000000000E+00 0.  1.
         24    2    1    2    0    0  0.11653406594E+03  0.77101695376E+03 -0.47055539155E+03  0.91402336396E+03  0.77259315464E+02 0.  0.
        254    2    1    2    0    0 -0.11653406594E+03 -0.77101695376E+03  0.47926442286E+03  0.12797697810E+04  0.89446574768E+03 0.  0.
         23    2    4    4    0    0 -0.37912281448E+03 -0.40904690411E+03  0.58281336992E+03  0.81187729251E+03  0.91759662783E+02 0.  0.
         23    2    4    4    0    0  0.26258874854E+03 -0.36197004966E+03 -0.10354894707E+03  0.46789248847E+03  0.90696353910E+02 0.  0.
          2    1    3    3  502    0  0.21269688456E+02  0.40482078683E+02 -0.16474162888E+02  0.48606546723E+02  0.00000000000E+00 0. -1.
         -1    1    3    3    0  502  0.95264377483E+02  0.73053487508E+03 -0.45408122866E+03  0.86541681723E+03  0.00000000000E+00 0.  1.
         11    1    5    5    0    0 -0.16589235531E+03 -0.24467398686E+03  0.29018122272E+03  0.41423516922E+03  0.00000000000E+00 0. -1.
        -11    1    5    5    0    0 -0.21323045917E+03 -0.16437291725E+03  0.29263214720E+03  0.39764212330E+03  0.00000000000E+00 0.  1.
          4    1    6    6  503    0  0.18128320280E+02 -0.30973559018E+01 -0.17169989266E+02  0.25160249227E+02  0.00000000000E+00 0. -1.
         -4    1    6    6    0  503  0.24446042826E+03 -0.35887269376E+03 -0.86378957802E+02  0.44273223924E+03  0.00000000000E+00 0.  1.
<mgrwt>
<rscale>  0 0.21937759E+04</rscale>
<asrwt>0</asrwt>
<pdfrwt beam="1">  1        2 0.16942325E+00 0.21937759E+04</pdfrwt>
<pdfrwt beam="2">  1       -1 0.16808339E+00 0.21937759E+04</pdfrwt>
<totfact> 0.57649294E+00</totfact>
</mgrwt>
</event>
<event>
12    6  0.9491186E-008  0.1778253E+04  0.7818608E-02  0.8717950E-01
         -1   -1    0    0    0  501 -0.00000000000E+00  0.00000000000E+00  0.11296910882E+04  0.11296910882E+04  0.00000000000E+00 0.  1.
          2   -1    0    0  501    0  0.00000000000E+00 -0.00000000000E+00 -0.69978961290E+03  0.69978961290E+03  0.00000000000E+00 0. -1.
         24    2    1    2    0    0 -0.15895143614E+02 -0.60759057089E+03 -0.99714429668E+02  0.62094502511E+03  0.78808624543E+02 0.  0.
        254    2    1    2    0    0  0.15895143614E+02  0.60759057089E+03  0.52961590494E+03  0.12085356760E+04  0.90035910384E+03 0.  0.
         23    2    4    4    0    0  0.30389739024E+03  0.63659146730E+03  0.55806203448E+03  0.90405721684E+03  0.91015916032E+02 0.  0.
         23    2    4    4    0    0 -0.28800224662E+03 -0.29000896405E+02 -0.28446129543E+02  0.30447845911E+03  0.90064442071E+02 0.  0.
          4    1    3    3  502    0 -0.33683314474E+02 -0.56328422049E+03 -0.83010146642E+02  0.57036336065E+03  0.00000000000E+00 0. -1.
         -3    1    3    3    0  502  0.17788170860E+02 -0.44306350402E+02 -0.16704283026E+02  0.50581664464E+02  0.00000000000E+00 0.  1.
         11    1    5    5    0    0  0.11851515251E+03  0.34401588918E+03  0.31026626427E+03  0.47818189858E+03  0.00000000000E+00 0.  1.
        -11    1    5    5    0    0  0.18538223773E+03  0.29257557812E+03  0.24779577021E+03  0.42587531827E+03  0.00000000000E+00 0. -1.
          3    1    6    6  503    0 -0.38244665269E+01  0.21562240979E+01  0.14716764564E+02  0.15357701840E+02  0.00000000000E+00 0. -1.
         -3    1    6    6    0  503 -0.28417778010E+03 -0.31157120503E+02 -0.43162894106E+02  0.28912075727E+03  0.00000000000E+00 0.  1.
<mgrwt>
<rscale>  0 0.17782532E+04</rscale>
<asrwt>0</asrwt>
<pdfrwt beam="1">  1        2 0.10765994E+00 0.17782532E+04</pdfrwt>
<pdfrwt beam="2">  1       -1 0.17379863E+00 0.17782532E+04</pdfrwt>
<totfact> 0.10214977E+01</totfact>
</mgrwt>
</event>
<event>
12    6  0.1053547E-007  0.2483502E+04  0.7818608E-02  0.8408887E-01
          2   -1    0    0  501    0  0.00000000000E+00  0.00000000000E+00  0.17790345681E+04  0.17790345681E+04  0.00000000000E+00 0. -1.
         -1   -1    0    0    0  501 -0.00000000000E+00 -0.00000000000E+00 -0.86673139477E+03  0.86673139477E+03  0.00000000000E+00 0.  1.
         24    2    1    2    0    0 -0.76896193313E+03 -0.38093988652E+02 -0.41004669917E+03  0.87566012377E+03  0.76738193197E+02 0.  0.
        254    2    1    2    0    0  0.76896193313E+03  0.38093988652E+02  0.13223498725E+04  0.17701058391E+04  0.88989431383E+03 0.  0.
         23    2    4    4    0    0  0.61332490122E+02 -0.91048591223E+02 -0.99898760558E+02  0.17379097716E+03  0.90399231587E+02 0.  0.
         23    2    4    4    0    0  0.70762944300E+03  0.12914257987E+03  0.14222486331E+04  0.15963148620E+04  0.89513852043E+02 0.  0.
          4    1    3    3  502    0 -0.21530080355E+03 -0.19013085042E+00 -0.15259419684E+03  0.26389289696E+03  0.00000000000E+00 0. -1.
         -3    1    3    3    0  502 -0.55366112958E+03 -0.37903857802E+02 -0.25745250233E+03  0.61176722681E+03  0.00000000000E+00 0.  1.
         11    1    5    5    0    0  0.19179545410E+02 -0.58114771532E+02 -0.83097617628E+00  0.61203530566E+02  0.00000000000E+00 0. -1.
        -11    1    5    5    0    0  0.42152944712E+02 -0.32933819691E+02 -0.99067784381E+02  0.11258744659E+03  0.00000000000E+00 0.  1.
          4    1    6    6  503    0  0.19029505262E+02 -0.16011710482E+01  0.15384815794E+02  0.24523017274E+02  0.00000000000E+00 0. -1.
         -4    1    6    6    0  503  0.68859993774E+03  0.13074375092E+03  0.14068638173E+04  0.15717918447E+04  0.00000000000E+00 0.  1.
<mgrwt>
<rscale>  0 0.24835017E+04</rscale>
<asrwt>0</asrwt>
<pdfrwt beam="1">  1        2 0.27369762E+00 0.24835017E+04</pdfrwt>
<pdfrwt beam="2">  1       -1 0.13334329E+00 0.24835017E+04</pdfrwt>
<totfact> 0.42841071E+00</totfact>
</mgrwt>
</event>
<event>
12    6  0.9491186E-008  0.2076176E+04  0.7818608E-02  0.8571811E-01
         -1   -1    0    0    0  501 -0.00000000000E+00  0.00000000000E+00  0.14773829554E+04  0.14773829554E+04  0.00000000000E+00 0.  1.
          2   -1    0    0  501    0  0.00000000000E+00 -0.00000000000E+00 -0.72941621968E+03  0.72941621968E+03  0.00000000000E+00 0. -1.
         24    2    1    2    0    0 -0.72751750371E+03 -0.25008760818E+03 -0.46497860762E+02  0.77500560766E+03  0.81523682910E+02 0.  0.
        254    2    1    2    0    0  0.72751750371E+03  0.25008760818E+03  0.79446459643E+03  0.14317935674E+04  0.90941370926E+03 0.  0.
         23    2    4    4    0    0  0.32961691626E+02  0.24569677535E+03 -0.11163192241E+03  0.28648983064E+03  0.90340237006E+02 0.  0.
         23    2    4    4    0    0  0.69455581209E+03  0.43908328295E+01  0.90609651885E+03  0.11453037367E+04  0.91009298364E+02 0.  0.
          4    1    3    3  502    0 -0.23282509208E+02  0.52939694720E+01  0.39367328557E+01  0.24199157287E+02  0.00000000000E+00 0. -1.
         -3    1    3    3    0  502 -0.70423499451E+03 -0.25538157766E+03 -0.50434593618E+02  0.75080645038E+03  0.00000000000E+00 0.  1.
         11    1    5    5    0    0  0.32430003997E+02  0.11643694332E+03 -0.99694522953E+02  0.15667885893E+03  0.00000000000E+00 0. -1.
        -11    1    5    5    0    0  0.53168762977E+00  0.12925983204E+03 -0.11937399461E+02  0.12981097171E+03  0.00000000000E+00 0.  1.
          1    1    6    6  503    0  0.27326758724E+03  0.34777913865E+02  0.40707264871E+03  0.49152092413E+03  0.00000000000E+00 0. -1.
         -1    1    6    6    0  503  0.42128822485E+03 -0.30387081035E+02  0.49902387014E+03  0.65378281260E+03  0.00000000000E+00 0.  1.
<mgrwt>
<rscale>  0 0.20761764E+04</rscale>
<asrwt>0</asrwt>
<pdfrwt beam="1">  1        2 0.11221788E+00 0.20761764E+04</pdfrwt>
<pdfrwt beam="2">  1       -1 0.22728968E+00 0.20761764E+04</pdfrwt>
<totfact> 0.40302855E+00</totfact>
</mgrwt>
</event>
<event>
12    6  0.9491186E-008  0.1659467E+04  0.7818608E-02  0.8784825E-01
         -1   -1    0    0    0  501 -0.00000000000E+00  0.00000000000E+00  0.10736154912E+04  0.10736154912E+04  0.00000000000E+00 0.  1.
          2   -1    0    0  501    0  0.00000000000E+00 -0.00000000000E+00 -0.64125170963E+03  0.64125170963E+03  0.00000000000E+00 0. -1.
         24    2    1    2    0    0 -0.48637469294E+03 -0.17810277477E+03 -0.11658825400E+03  0.53693884766E+03  0.80184567351E+02 0.  0.
        254    2    1    2    0    0  0.48637469294E+03  0.17810277477E+03  0.54895203557E+03  0.11779283532E+04  0.90437045921E+03 0.  0.
         23    2    4    4    0    0 -0.19552775045E+03  0.22793171868E+03  0.30107959721E+02  0.31491363886E+03  0.89889605239E+02 0.  0.
         23    2    4    4    0    0  0.68190244339E+03 -0.49828943906E+02  0.51884407585E+03  0.86301471429E+03  0.90118566827E+02 0.  0.
          4    1    3    3  502    0 -0.45307297709E+03 -0.15252178134E+03 -0.87869436494E+02  0.48606486627E+03  0.00000000000E+00 0. -1.
         -1    1    3    3    0  502 -0.33301715855E+02 -0.25580993430E+02 -0.28718817509E+02  0.50873981394E+02  0.00000000000E+00 0.  1.
         11    1    5    5    0    0 -0.18808069005E+03  0.20980569766E+03  0.50916075213E+02  0.28633061914E+03  0.00000000000E+00 0. -1.
        -11    1    5    5    0    0 -0.74470604013E+01  0.18126021011E+02 -0.20808115492E+02  0.28583019725E+02  0.00000000000E+00 0.  1.
          1    1    6    6  503    0  0.47120444725E+03 -0.35533009318E+02  0.30473305067E+03  0.56227969733E+03  0.00000000000E+00 0. -1.
         -1    1    6    6    0  503  0.21069799614E+03 -0.14295934588E+02  0.21411102518E+03  0.30073501696E+03  0.00000000000E+00 0.  1.
<mgrwt>
<rscale>  0 0.16594671E+04</rscale>
<asrwt>0</asrwt>
<pdfrwt beam="1">  1        2 0.98654110E-01 0.16594671E+04</pdfrwt>
<pdfrwt beam="2">  1       -1 0.16517161E+00 0.16594671E+04</pdfrwt>
<totfact> 0.13320442E+01</totfact>
</mgrwt>
</event>
<event>
12    6  0.9491186E-008  0.2418680E+04  0.7818608E-02  0.8432543E-01
          2   -1    0    0  501    0  0.00000000000E+00  0.00000000000E+00  0.10653521439E+04  0.10653521439E+04  0.00000000000E+00 0. -1.
         -1   -1    0    0    0  501 -0.00000000000E+00 -0.00000000000E+00 -0.13727887768E+04  0.13727887768E+04  0.00000000000E+00 0.  1.
         24    2    1    2    0    0 -0.44391547200E+03 -0.66473830415E+03 -0.79987004952E+03  0.11332016979E+04  0.73593699890E+02 0.  0.
        254    2    1    2    0    0  0.44391547200E+03  0.66473830415E+03  0.49243341668E+03  0.13049392228E+04  0.90633202858E+03 0.  0.
         23    2    4    4    0    0  0.20219506194E+03  0.72341306588E+03  0.12135217239E+02  0.75668693776E+03  0.90656226031E+02 0.  0.
         23    2    4    4    0    0  0.24172041006E+03 -0.58674761726E+02  0.48029819944E+03  0.54825228503E+03  0.89569656426E+02 0.  0.
          4    1    3    3  502    0 -0.10972797052E+03 -0.22261606741E+03 -0.26214474876E+03  0.36099585909E+03  0.00000000000E+00 0. -1.
         -3    1    3    3    0  502 -0.33418750147E+03 -0.44212223675E+03 -0.53772530076E+03  0.77220583878E+03  0.00000000000E+00 0.  1.
         11    1    5    5    0    0  0.54347992721E+02  0.24962086401E+03  0.44470505938E+02  0.25931044321E+03  0.00000000000E+00 0.  1.
        -11    1    5    5    0    0  0.14784706922E+03  0.47379220187E+03 -0.32335288699E+02  0.49737649455E+03  0.00000000000E+00 0. -1.
          1    1    6    6  503    0  0.77212068580E+02 -0.30176887145E+02  0.25292461864E+03  0.26616387953E+03  0.00000000000E+00 0. -1.
         -1    1    6    6    0  503  0.16450834148E+03 -0.28497874580E+02  0.22737358080E+03  0.28208840550E+03  0.00000000000E+00 0.  1.
<mgrwt>
<rscale>  0 0.24186802E+04</rscale>
<asrwt>0</asrwt>
<pdfrwt beam="1">  1        2 0.16390033E+00 0.24186802E+04</pdfrwt>
<pdfrwt beam="2">  1       -1 0.21119827E+00 0.24186802E+04</pdfrwt>
<totfact> 0.29567851E+00</totfact>
</mgrwt>
</event>
<event>
12    6  0.9491186E-008  0.1484896E+04  0.7818608E-02  0.8894560E-01
         -1   -1    0    0    0  501 -0.00000000000E+00  0.00000000000E+00  0.15376564916E+04  0.15376564916E+04  0.00000000000E+00 0.  1.
          2   -1    0    0  501    0  0.00000000000E+00 -0.00000000000E+00 -0.35848638034E+03  0.35848638034E+03  0.00000000000E+00 0. -1.
         24    2    1    2    0    0  0.15521654958E+03 -0.39444768844E+03  0.14410719078E+03  0.45489239714E+03  0.80492573327E+02 0.  0.
        254    2    1    2    0    0 -0.15521654958E+03  0.39444768844E+03  0.10350629204E+04  0.14412504748E+04  0.90893703057E+03 0.  0.
         23    2    4    4    0    0 -0.26350661000E+03  0.76712021340E+02  0.10534121844E+04  0.10923811912E+04  0.91098677632E+02 0.  0.
         23    2    4    4    0    0  0.10829006042E+03  0.31773566710E+03 -0.18349263912E+02  0.34886928353E+03  0.93222262221E+02 0.  0.
          4    1    3    3  502    0  0.15907369396E+03 -0.39022563742E+03  0.13214989208E+03  0.44163795374E+03  0.00000000000E+00 0. -1.
         -3    1    3    3    0  502 -0.38571443788E+01 -0.42220510227E+01  0.11957298699E+02  0.13254443398E+02  0.00000000000E+00 0.  1.
         11    1    5    5    0    0 -0.93898645688E+02  0.12663324752E+01  0.23262518120E+03  0.25086457340E+03  0.00000000000E+00 0.  1.
        -11    1    5    5    0    0 -0.16960796432E+03  0.75445688865E+02  0.82078700316E+03  0.84151661783E+03  0.00000000000E+00 0. -1.
          1    1    6    6  503    0 -0.30866206561E+01  0.12998967396E+03 -0.36245219561E+01  0.13007682239E+03  0.00000000000E+00 0. -1.
         -1    1    6    6    0  503  0.11137668108E+03  0.18774599314E+03 -0.14724741956E+02  0.21879246114E+03  0.00000000000E+00 0.  1.
<mgrwt>
<rscale>  0 0.14848958E+04</rscale>
<asrwt>0</asrwt>
<pdfrwt beam="1">  1        2 0.55151752E-01 0.14848958E+04</pdfrwt>
<pdfrwt beam="2">  1       -1 0.23656253E+00 0.14848958E+04</pdfrwt>
<totfact> 0.85087693E+00</totfact>
</mgrwt>
</event>
<event>
12    6  0.9491186E-008  0.1621577E+04  0.7818608E-02  0.8807401E-01
          2   -1    0    0  501    0  0.00000000000E+00  0.00000000000E+00  0.73006862529E+03  0.73006862529E+03  0.00000000000E+00 0. -1.
         -1   -1    0    0    0  501 -0.00000000000E+00 -0.00000000000E+00 -0.90043286406E+03  0.90043286406E+03  0.00000000000E+00 0.  1.
         24    2    1    2    0    0 -0.40680902642E+03 -0.38010304526E+03 -0.74239009652E+01  0.56193133953E+03  0.75761514331E+02 0.  0.
        254    2    1    2    0    0  0.40680902642E+03  0.38010304526E+03 -0.16294033780E+03  0.10685701498E+04  0.89739662491E+03 0.  0.
         23    2    4    4    0    0  0.43816563973E+03  0.54346746732E+03 -0.36312004041E+03  0.79204914132E+03  0.90220078932E+02 0.  0.
         23    2    4    4    0    0 -0.31356613318E+02 -0.16336442205E+03  0.20017970261E+03  0.27652100850E+03  0.93385133777E+02 0.  0.
          2    1    3    3  502    0 -0.35976486105E+03 -0.36463355428E+03 -0.10081188190E+02  0.51233779336E+03  0.00000000000E+00 0. -1.
         -1    1    3    3    0  502 -0.47044165367E+02 -0.15469490979E+02  0.26572872251E+01  0.49593546169E+02  0.00000000000E+00 0.  1.
         11    1    5    5    0    0  0.33107243008E+03  0.42782930997E+03 -0.32048115086E+03  0.62877264610E+03  0.00000000000E+00 0.  1.
        -11    1    5    5    0    0  0.10709320965E+03  0.11563815735E+03 -0.42638889547E+02  0.16327649522E+03  0.00000000000E+00 0. -1.
          4    1    6    6  503    0 -0.43296537019E+02 -0.79606174089E+02  0.48351331523E+02  0.10271116946E+03  0.00000000000E+00 0. -1.
         -4    1    6    6    0  503  0.11939923701E+02 -0.83758247965E+02  0.15182837109E+03  0.17380983904E+03  0.00000000000E+00 0.  1.
<mgrwt>
<rscale>  0 0.16215767E+04</rscale>
<asrwt>0</asrwt>
<pdfrwt beam="1">  1        2 0.11231825E+00 0.16215767E+04</pdfrwt>
<pdfrwt beam="2">  1       -1 0.13852813E+00 0.16215767E+04</pdfrwt>
<totfact> 0.18294060E+01</totfact>
</mgrwt>
</event>
<event>
12    6  0.9491186E-008  0.1768174E+04  0.7818608E-02  0.8723410E-01
         -1   -1    0    0    0  501 -0.00000000000E+00  0.00000000000E+00  0.98237346603E+03  0.98237346603E+03  0.00000000000E+00 0.  1.
          2   -1    0    0  501    0  0.00000000000E+00 -0.00000000000E+00 -0.79563410699E+03  0.79563410699E+03  0.00000000000E+00 0. -1.
         24    2    1    2    0    0 -0.38161441807E+01  0.61310947755E+03  0.15886339877E+03  0.63834277062E+03  0.79536902837E+02 0.  0.
        254    2    1    2    0    0  0.38161441807E+01 -0.61310947755E+03  0.27875960270E+02  0.11396648024E+04  0.96028172859E+03 0.  0.
         23    2    4    4    0    0  0.33730902885E+03 -0.53759571546E+03 -0.25177007433E+03  0.68880730331E+03  0.90998882019E+02 0.  0.
         23    2    4    4    0    0 -0.33349288467E+03 -0.75513762085E+02  0.27964603460E+03  0.45085749909E+03  0.90281489961E+02 0.  0.
          2    1    3    3  502    0  0.14241489557E+02  0.48735723967E+03  0.15361527246E+03  0.51119228380E+03  0.00000000000E+00 0. -1.
         -1    1    3    3    0  502 -0.18057633737E+02  0.12575223788E+03  0.52481263070E+01  0.12715048682E+03  0.00000000000E+00 0.  1.
         11    1    5    5    0    0  0.89617289352E+02 -0.17831726613E+03 -0.39125306524E+02  0.20336935748E+03  0.00000000000E+00 0.  1.
        -11    1    5    5    0    0  0.24769173950E+03 -0.35927844933E+03 -0.21264476781E+03  0.48543794583E+03  0.00000000000E+00 0. -1.
          3    1    6    6  503    0 -0.17728644772E+03 -0.85150915860E+02  0.16728225494E+03  0.25819472465E+03  0.00000000000E+00 0. -1.
         -3    1    6    6    0  503 -0.15620643695E+03  0.96371537752E+01  0.11236377966E+03  0.19266277445E+03  0.00000000000E+00 0.  1.
<mgrwt>
<rscale>  0 0.17681740E+04</rscale>
<asrwt>0</asrwt>
<pdfrwt beam="1">  1        2 0.12240525E+00 0.17681740E+04</pdfrwt>
<pdfrwt beam="2">  1       -1 0.15113438E+00 0.17681740E+04</pdfrwt>
<totfact> 0.12816753E+01</totfact>
</mgrwt>
</event>
<event>
12    6  0.9491186E-008  0.1722067E+04  0.7818608E-02  0.8748878E-01
         -1   -1    0    0    0  501 -0.00000000000E+00  0.00000000000E+00  0.45816863018E+03  0.45816863018E+03  0.00000000000E+00 0.  1.
          2   -1    0    0  501    0  0.00000000000E+00 -0.00000000000E+00 -0.16181346474E+04  0.16181346474E+04  0.00000000000E+00 0. -1.
         24    2    1    2    0    0  0.37347896524E+03 -0.32786757799E+03  0.32676706021E+02  0.50424332957E+03  0.78802805287E+02 0.  0.
        254    2    1    2    0    0 -0.37347896524E+03  0.32786757799E+03 -0.11926427233E+04  0.15720599481E+04  0.89554013238E+03 0.  0.
         23    2    4    4    0    0  0.23716810456E+03 -0.88158987428E+02 -0.42524896413E+03  0.50330093503E+03  0.91947989791E+02 0.  0.
         23    2    4    4    0    0 -0.61064706979E+03  0.41602656542E+03 -0.76739375915E+03  0.10687590130E+04  0.85934273403E+02 0.  0.
          4    1    3    3  502    0  0.65361314677E+02 -0.73799963905E+02 -0.22427361531E+02  0.10110154635E+03  0.00000000000E+00 0. -1.
         -3    1    3    3    0  502  0.30811765056E+03 -0.25406761409E+03  0.55104067552E+02  0.40314178322E+03  0.00000000000E+00 0.  1.
         11    1    5    5    0    0  0.20314330803E+02 -0.86306287921E+01 -0.33653081914E+01  0.22326779627E+02  0.00000000000E+00 0. -1.
        -11    1    5    5    0    0  0.21685377376E+03 -0.79528358635E+02 -0.42188365594E+03  0.48097415541E+03  0.00000000000E+00 0.  1.
          4    1    6    6  503    0 -0.59732324362E+03  0.38785711897E+03 -0.72673495808E+03  0.10175322606E+04  0.00000000000E+00 0.  1.
         -4    1    6    6    0  503 -0.13323826179E+02  0.28169446452E+02 -0.40658801070E+02  0.51226752404E+02  0.00000000000E+00 0. -1.
<mgrwt>
<rscale>  0 0.17220668E+04</rscale>
<asrwt>0</asrwt>
<pdfrwt beam="1">  1        2 0.24894379E+00 0.17220668E+04</pdfrwt>
<pdfrwt beam="2">  1       -1 0.70487483E-01 0.17220668E+04</pdfrwt>
<totfact> 0.23979315E+01</totfact>
</mgrwt>
</event>
<event>
12    6  0.9491186E-008  0.1949706E+04  0.7818608E-02  0.8630503E-01
          2   -1    0    0  501    0  0.00000000000E+00  0.00000000000E+00  0.97574695275E+03  0.97574695275E+03  0.00000000000E+00 0. -1.
         -1   -1    0    0    0  501 -0.00000000000E+00 -0.00000000000E+00 -0.97395998258E+03  0.97395998258E+03  0.00000000000E+00 0.  1.
         24    2    1    2    0    0 -0.41439718208E+03 -0.62685925494E+03  0.11589534714E+03  0.76444148671E+03  0.79129672679E+02 0.  0.
        254    2    1    2    0    0  0.41439718208E+03  0.62685925494E+03 -0.11410837696E+03  0.11852654486E+04  0.90948112239E+03 0.  0.
         23    2    4    4    0    0  0.48102135880E+03  0.68858066743E+02  0.19969797110E+03  0.53374909838E+03  0.94264730291E+02 0.  0.
         23    2    4    4    0    0 -0.66624176720E+02  0.55800118819E+03 -0.31380634806E+03  0.65151635024E+03  0.10097040952E+03 0.  0.
          4    1    3    3  502    0 -0.53677505115E+02 -0.64169893159E+02 -0.10156390489E+02  0.84274563251E+02  0.00000000000E+00 0. -1.
         -3    1    3    3    0  502 -0.36071967697E+03 -0.56268936178E+03  0.12605173763E+03  0.68016692346E+03  0.00000000000E+00 0.  1.
         11    1    5    5    0    0  0.22045888249E+03  0.79072766608E+02  0.92765337801E+02  0.25191274121E+03  0.00000000000E+00 0. -1.
        -11    1    5    5    0    0  0.26056247631E+03 -0.10214699866E+02  0.10693263330E+03  0.28183635716E+03  0.00000000000E+00 0.  1.
          3    1    6    6  503    0 -0.71717542802E+02  0.28868093193E+03 -0.20367096192E+03  0.36050235385E+03  0.00000000000E+00 0. -1.
         -3    1    6    6    0  503  0.50933660820E+01  0.26932025627E+03 -0.11013538614E+03  0.29101399639E+03  0.00000000000E+00 0.  1.
<mgrwt>
<rscale>  0 0.19497061E+04</rscale>
<asrwt>0</asrwt>
<pdfrwt beam="1">  1        2 0.15011492E+00 0.19497061E+04</pdfrwt>
<pdfrwt beam="2">  1       -1 0.14984000E+00 0.19497061E+04</pdfrwt>
<totfact> 0.97252221E+00</totfact>
</mgrwt>
</event>
<event>
12    6  0.9491186E-008  0.1677739E+04  0.7818608E-02  0.8774164E-01
         -1   -1    0    0    0  501 -0.00000000000E+00  0.00000000000E+00  0.36738342706E+03  0.36738342706E+03  0.00000000000E+00 0.  1.
          2   -1    0    0  501    0  0.00000000000E+00 -0.00000000000E+00 -0.19154426851E+04  0.19154426851E+04  0.00000000000E+00 0. -1.
         24    2    1    2    0    0  0.40390784751E+03  0.42791399481E+03 -0.63891363496E+03  0.87211662556E+03  0.78261353285E+02 0.  0.
        254    2    1    2    0    0 -0.40390784751E+03 -0.42791399481E+03 -0.90914562312E+03  0.14107094866E+04  0.90404842537E+03 0.  0.
         23    2    4    4    0    0 -0.58719678617E+03 -0.79118979482E+02 -0.27809690164E+03  0.66103659032E+03  0.92582981333E+02 0.  0.
         23    2    4    4    0    0  0.18328893867E+03 -0.34879501533E+03 -0.63104872148E+03  0.74967289632E+03  0.92380543598E+02 0.  0.
          2    1    3    3  502    0  0.31867131358E+02  0.98992040490E+01 -0.27163930589E+02  0.43027751822E+02  0.00000000000E+00 0. -1.
         -1    1    3    3    0  502  0.37204071615E+03  0.41801479076E+03 -0.61174970437E+03  0.82908887374E+03  0.00000000000E+00 0.  1.
         11    1    5    5    0    0 -0.45646310798E+03 -0.25563077595E+02 -0.23017434173E+03  0.51185180225E+03  0.00000000000E+00 0. -1.
        -11    1    5    5    0    0 -0.13073367820E+03 -0.53555901887E+02 -0.47922559910E+02  0.14918478807E+03  0.00000000000E+00 0.  1.
          1    1    6    6  503    0  0.16656682200E+03 -0.25693659180E+03 -0.42873407422E+03  0.52685275438E+03  0.00000000000E+00 0. -1.
         -1    1    6    6    0  503  0.16722116673E+02 -0.91858423522E+02 -0.20231464726E+03  0.22282014194E+03  0.00000000000E+00 0.  1.
<mgrwt>
<rscale>  0 0.16777388E+04</rscale>
<asrwt>0</asrwt>
<pdfrwt beam="1">  1        2 0.29468349E+00 0.16777388E+04</pdfrwt>
<pdfrwt beam="2">  1       -1 0.56520527E-01 0.16777388E+04</pdfrwt>
<totfact> 0.25609347E+01</totfact>
</mgrwt>
</event>
<event>
12    6  0.9491186E-008  0.1317404E+04  0.7818608E-02  0.9015876E-01
         -1   -1    0    0    0  501 -0.00000000000E+00  0.00000000000E+00  0.76747683854E+03  0.76747683854E+03  0.00000000000E+00 0.  1.
          2   -1    0    0  501    0  0.00000000000E+00 -0.00000000000E+00 -0.56534413051E+03  0.56534413051E+03  0.00000000000E+00 0. -1.
         24    2    1    2    0    0 -0.19040024082E+03  0.20721508123E+03 -0.15779212318E+03  0.33132444892E+03  0.75413491629E+02 0.  0.
        254    2    1    2    0    0  0.19040024082E+03 -0.20721508123E+03  0.35992483121E+03  0.10014965201E+04  0.89121212632E+03 0.  0.
         23    2    4    4    0    0 -0.34692277751E+03 -0.28822546274E+02  0.11257647430E+03  0.37694743472E+03  0.90717987462E+02 0.  0.
         23    2    4    4    0    0  0.53732301834E+03 -0.17839253496E+03  0.24734835691E+03  0.62454908540E+03  0.91325942904E+02 0.  0.
          4    1    3    3  502    0 -0.40390305365E+02  0.16043948453E+02 -0.37710968350E+01  0.43623459523E+02  0.00000000000E+00 0. -1.
         -3    1    3    3    0  502 -0.15000993546E+03  0.19117113278E+03 -0.15402102635E+03  0.28770098940E+03  0.00000000000E+00 0.  1.
         11    1    5    5    0    0 -0.12473491105E+02  0.48464142342E+01  0.26924684122E+02  0.30066830999E+02  0.00000000000E+00 0. -1.
        -11    1    5    5    0    0 -0.33444928641E+03 -0.33668960508E+02  0.85651790174E+02  0.34688060372E+03  0.00000000000E+00 0.  1.
          3    1    6    6  503    0  0.33858276797E+02 -0.26991525289E+02  0.41417908581E+02  0.59919683714E+02  0.00000000000E+00 0. -1.
         -3    1    6    6    0  503  0.50346474154E+03 -0.15140100967E+03  0.20593044833E+03  0.56462940169E+03  0.00000000000E+00 0.  1.
<mgrwt>
<rscale>  0 0.13174043E+04</rscale>
<asrwt>0</asrwt>
<pdfrwt beam="1">  1        2 0.86976020E-01 0.13174043E+04</pdfrwt>
<pdfrwt beam="2">  1       -1 0.11807336E+00 0.13174043E+04</pdfrwt>
<totfact> 0.38413956E+01</totfact>
</mgrwt>
</event>
<event>
12    6  0.9491186E-008  0.1281621E+04  0.7818608E-02  0.9044269E-01
          4   -1    0    0  501    0  0.00000000000E+00  0.00000000000E+00  0.53885692552E+03  0.53885692552E+03  0.00000000000E+00 0. -1.
         -3   -1    0    0    0  501 -0.00000000000E+00 -0.00000000000E+00 -0.76205344830E+03  0.76205344830E+03  0.00000000000E+00 0.  1.
         24    2    1    2    0    0  0.89078120561E+02 -0.30338228742E+03 -0.15474843256E+01  0.32591739122E+03  0.79019157850E+02 0.  0.
        254    2    1    2    0    0 -0.89078120561E+02  0.30338228742E+03 -0.22164903845E+03  0.97499298260E+03  0.89526939856E+03 0.  0.
         23    2    4    4    0    0  0.37198850613E+03 -0.59522011308E+01 -0.12414325220E+03  0.40394587269E+03  0.96694589299E+02 0.  0.
         23    2    4    4    0    0 -0.46106662669E+03  0.30933448855E+03 -0.97505786250E+02  0.57104710991E+03  0.91198483166E+02 0.  0.
          2    1    3    3  502    0 -0.94224837061E+01 -0.81188837711E+01  0.75031742674E+01  0.14525739120E+02  0.00000000000E+00 0. -1.
         -3    1    3    3    0  502  0.98500604267E+02 -0.29526340365E+03 -0.90506585930E+01  0.31139165210E+03  0.00000000000E+00 0.  1.
         11    1    5    5    0    0  0.34850320929E+03  0.98028944511E+01 -0.90891166591E+02  0.36029402963E+03  0.00000000000E+00 0.  1.
        -11    1    5    5    0    0  0.23485296845E+02 -0.15755095582E+02 -0.33252085609E+02  0.43651843055E+02  0.00000000000E+00 0. -1.
          4    1    6    6  503    0 -0.24476882439E+03  0.11085819459E+03 -0.35876225595E+02  0.27108747715E+03  0.00000000000E+00 0. -1.
         -4    1    6    6    0  503 -0.21629780230E+03  0.19847629396E+03 -0.61629560655E+02  0.29995963277E+03  0.00000000000E+00 0.  1.
<mgrwt>
<rscale>  0 0.12816205E+04</rscale>
<asrwt>0</asrwt>
<pdfrwt beam="1">  1        4 0.82901066E-01 0.12816205E+04</pdfrwt>
<pdfrwt beam="2">  1       -3 0.11723899E+00 0.12816205E+04</pdfrwt>
<totfact> 0.17181069E+00</totfact>
</mgrwt>
</event>
<event>
12    6  0.9491186E-008  0.1628179E+04  0.7818608E-02  0.8803421E-01
         -1   -1    0    0    0  501 -0.00000000000E+00  0.00000000000E+00  0.23325927565E+03  0.23325927565E+03  0.00000000000E+00 0.  1.
          2   -1    0    0  501    0  0.00000000000E+00 -0.00000000000E+00 -0.28412223995E+04  0.28412223995E+04  0.00000000000E+00 0. -1.
         24    2    1    2    0    0  0.43680534562E+03  0.30863031999E+03 -0.12539088079E+04  0.13655101308E+04  0.79240358669E+02 0.  0.
        254    2    1    2    0    0 -0.43680534562E+03 -0.30863031999E+03 -0.13540543159E+04  0.17089715443E+04  0.89502461665E+03 0.  0.
         23    2    4    4    0    0 -0.62038843946E+03 -0.25338304214E+03 -0.53372254790E+03  0.86159742409E+03  0.91681956859E+02 0.  0.
         23    2    4    4    0    0  0.18358309384E+03 -0.55247277852E+02 -0.82033176797E+03  0.84737412017E+03  0.91343724178E+02 0.  0.
          2    1    3    3  502    0  0.32398760305E+03  0.23712153705E+03 -0.84916177466E+03  0.93929245170E+03  0.00000000000E+00 0. -1.
         -1    1    3    3    0  502  0.11281774256E+03  0.71508782942E+02 -0.40474703327E+03  0.42621767915E+03  0.00000000000E+00 0.  1.
         11    1    5    5    0    0 -0.54654649019E+02 -0.49155621002E+02 -0.76336095988E+02  0.10597455018E+03  0.00000000000E+00 0. -1.
        -11    1    5    5    0    0 -0.56573379044E+03 -0.20422742114E+03 -0.45738645191E+03  0.75562287391E+03  0.00000000000E+00 0.  1.
          2    1    6    6  503    0  0.47491254277E+02  0.22291635700E+02 -0.14752077914E+03  0.15657176161E+03  0.00000000000E+00 0. -1.
         -2    1    6    6    0  503  0.13609183956E+03 -0.77538913551E+02 -0.67281098883E+03  0.69080235856E+03  0.00000000000E+00 0.  1.
<mgrwt>
<rscale>  0 0.16281787E+04</rscale>
<asrwt>0</asrwt>
<pdfrwt beam="1">  1        2 0.43711114E+00 0.16281787E+04</pdfrwt>
<pdfrwt beam="2">  1       -1 0.35886042E-01 0.16281787E+04</pdfrwt>
<totfact> 0.17719396E+01</totfact>
</mgrwt>
</event>
<event>
12    6  0.9491186E-008  0.3320174E+04  0.7818608E-02  0.8157781E-01
          2   -1    0    0  501    0  0.00000000000E+00  0.00000000000E+00  0.12621677941E+04  0.12621677941E+04  0.00000000000E+00 0. -1.
         -1   -1    0    0    0  501 -0.00000000000E+00 -0.00000000000E+00 -0.21834564549E+04  0.21834564549E+04  0.00000000000E+00 0.  1.
         24    2    1    2    0    0  0.34553459806E+02 -0.15326998955E+04 -0.53849845828E+03  0.16268729880E+04  0.79826176051E+02 0.  0.
        254    2    1    2    0    0 -0.34553459806E+02  0.15326998955E+04 -0.38279020254E+03  0.18187512611E+04  0.90053589561E+03 0.  0.
         23    2    4    4    0    0  0.19635565913E+03  0.13685347508E+03  0.15832382995E+03  0.30102472519E+03  0.90912218823E+02 0.  0.
         23    2    4    4    0    0 -0.23090911893E+03  0.13958464204E+04 -0.54111403248E+03  0.15177265359E+04  0.94779697368E+02 0.  0.
          4    1    3    3  502    0  0.33009077645E+02 -0.11551972590E+04 -0.44125764116E+03  0.12370443049E+04  0.00000000000E+00 0. -1.
         -3    1    3    3    0  502  0.15443821611E+01 -0.37750263649E+03 -0.97240817124E+02  0.38982868313E+03  0.00000000000E+00 0.  1.
         11    1    5    5    0    0  0.11113743096E+03  0.23936708105E+02  0.82964153177E+02  0.14073928118E+03  0.00000000000E+00 0.  1.
        -11    1    5    5    0    0  0.85218228165E+02  0.11291676698E+03  0.75359676769E+02  0.16028544400E+03  0.00000000000E+00 0. -1.
          1    1    6    6  503    0 -0.55671392702E+02  0.15756988157E+03 -0.54526630824E+02  0.17578602052E+03  0.00000000000E+00 0. -1.
         -1    1    6    6    0  503 -0.17523772623E+03  0.12382765388E+04 -0.48658740166E+03  0.13419405153E+04  0.00000000000E+00 0.  1.
<mgrwt>
<rscale>  0 0.33201737E+04</rscale>
<asrwt>0</asrwt>
<pdfrwt beam="1">  1        2 0.19417966E+00 0.33201737E+04</pdfrwt>
<pdfrwt beam="2">  1       -1 0.33591638E+00 0.33201737E+04</pdfrwt>
<totfact> 0.31797444E-01</totfact>
</mgrwt>
</event>
<event>
12    6  0.9491186E-008  0.1961328E+04  0.7818608E-02  0.8624917E-01
          2   -1    0    0  501    0  0.00000000000E+00  0.00000000000E+00  0.21945651069E+04  0.21945651069E+04  0.00000000000E+00 0. -1.
         -1   -1    0    0    0  501 -0.00000000000E+00 -0.00000000000E+00 -0.43821990360E+03  0.43821990360E+03  0.00000000000E+00 0.  1.
         24    2    1    2    0    0 -0.47290841704E+03 -0.25986734222E+03 -0.44723509429E+02  0.54735924160E+03  0.80178180390E+02 0.  0.
        254    2    1    2    0    0  0.47290841704E+03  0.25986734222E+03  0.18010687127E+04  0.20854257689E+04  0.90220769399E+03 0.  0.
         23    2    4    4    0    0  0.60066109487E+03  0.20235041058E+03  0.18027483232E+04  0.19130811955E+04  0.90767307671E+02 0.  0.
         23    2    4    4    0    0 -0.12775267783E+03  0.57516931648E+02 -0.16796104833E+01  0.17234457340E+03  0.10035380795E+03 0.  0.
          2    1    3    3  502    0 -0.23905567331E+02 -0.16177221316E+02 -0.21444365480E+02  0.35958857738E+02  0.00000000000E+00 0. -1.
         -1    1    3    3    0  502 -0.44900284971E+03 -0.24369012091E+03 -0.23279143949E+02  0.51140038387E+03  0.00000000000E+00 0.  1.
         11    1    5    5    0    0  0.41315134320E+03  0.13079391362E+03  0.11016428146E+04  0.11838150072E+04  0.00000000000E+00 0. -1.
        -11    1    5    5    0    0  0.18750975166E+03  0.71556496956E+02  0.70110550858E+03  0.72926618830E+03  0.00000000000E+00 0.  1.
          3    1    6    6  503    0 -0.13494495740E+03  0.54409534619E+02 -0.25098516857E+02  0.14764983757E+03  0.00000000000E+00 0. -1.
         -3    1    6    6    0  503  0.71922795790E+01  0.31073970292E+01  0.23418906374E+02  0.24694735828E+02  0.00000000000E+00 0.  1.
<mgrwt>
<rscale>  0 0.19613282E+04</rscale>
<asrwt>0</asrwt>
<pdfrwt beam="1">  1        2 0.33762540E+00 0.19613282E+04</pdfrwt>
<pdfrwt beam="2">  1       -1 0.67418448E-01 0.19613282E+04</pdfrwt>
<totfact> 0.12295931E+01</totfact>
</mgrwt>
</event>
<event>
12    6  0.9491186E-008  0.3614201E+04  0.7818608E-02  0.8087246E-01
          2   -1    0    0  501    0  0.00000000000E+00  0.00000000000E+00  0.33744700948E+04  0.33744700948E+04  0.00000000000E+00 0. -1.
         -1   -1    0    0    0  501 -0.00000000000E+00 -0.00000000000E+00 -0.96774099456E+03  0.96774099456E+03  0.00000000000E+00 0.  1.
         24    2    1    2    0    0  0.84862241909E+02 -0.13417497483E+04 -0.10863565004E+03  0.13511497197E+04  0.79434711724E+02 0.  0.
        254    2    1    2    0    0 -0.84862241909E+02  0.13417497483E+04  0.25153647502E+04  0.29910613697E+04  0.90105177611E+03 0.  0.
         23    2    4    4    0    0 -0.33062417123E+03  0.31272732112E+03  0.12793855862E+04  0.13616402085E+04  0.10062732956E+03 0.  0.
         23    2    4    4    0    0  0.24576192932E+03  0.10290224272E+04  0.12359791641E+04  0.16294211611E+04  0.89904086574E+02 0.  0.
          2    1    3    3  502    0  0.34925197774E+02 -0.51869690790E+03 -0.80805432731E+02  0.52611383717E+03  0.00000000000E+00 0. -1.
         -1    1    3    3    0  502  0.49937044135E+02 -0.82305284037E+03 -0.27830217305E+02  0.82503588250E+03  0.00000000000E+00 0.  1.
         11    1    5    5    0    0 -0.31951223850E+03  0.31267919980E+03  0.11836227966E+04  0.12652348703E+04  0.00000000000E+00 0. -1.
        -11    1    5    5    0    0 -0.11111932729E+02  0.48121318142E-01  0.95762789588E+02  0.96405338204E+02  0.00000000000E+00 0.  1.
          1    1    6    6  503    0  0.20997351262E+03  0.85031790100E+03  0.96909647696E+03  0.13062455322E+04  0.00000000000E+00 0. -1.
         -1    1    6    6    0  503  0.35788416704E+02  0.17870452615E+03  0.26688268712E+03  0.32317562891E+03  0.00000000000E+00 0.  1.
<mgrwt>
<rscale>  0 0.36142015E+04</rscale>
<asrwt>0</asrwt>
<pdfrwt beam="1">  1        2 0.51914924E+00 0.36142015E+04</pdfrwt>
<pdfrwt beam="2">  1       -1 0.14888323E+00 0.36142015E+04</pdfrwt>
<totfact> 0.32601579E-01</totfact>
</mgrwt>
</event>
<event>
12    6  0.9491186E-008  0.1780447E+04  0.7818608E-02  0.8716767E-01
          2   -1    0    0  501    0  0.00000000000E+00  0.00000000000E+00  0.95513040581E+03  0.95513040581E+03  0.00000000000E+00 0. -1.
         -1   -1    0    0    0  501 -0.00000000000E+00 -0.00000000000E+00 -0.82972749236E+03  0.82972749236E+03  0.00000000000E+00 0.  1.
         24    2    1    2    0    0  0.13857758514E+03 -0.20606288134E+03 -0.56060080287E+03  0.62298538367E+03  0.11032619781E+03 0.  0.
        254    2    1    2    0    0 -0.13857758514E+03  0.20606288134E+03  0.68600371632E+03  0.11618725145E+04  0.90425714428E+03 0.  0.
         23    2    4    4    0    0  0.56211503793E+02 -0.28114788117E+03  0.52415492538E+03  0.60473041925E+03  0.93576866380E+02 0.  0.
         23    2    4    4    0    0 -0.19478908893E+03  0.48721076251E+03  0.16184879094E+03  0.55714209526E+03  0.94314192495E+02 0.  0.
          4    1    3    3  502    0  0.13876835481E+03 -0.11510243017E+03 -0.38972674899E+03  0.42940908770E+03  0.00000000000E+00 0. -1.
         -3    1    3    3    0  502 -0.19076967255E+00 -0.90960451170E+02 -0.17087405388E+03  0.19357629597E+03  0.00000000000E+00 0.  1.
         11    1    5    5    0    0  0.27438531530E+02 -0.26329287626E+03  0.43323441577E+03  0.50770864746E+03  0.00000000000E+00 0.  1.
        -11    1    5    5    0    0  0.28772972263E+02 -0.17855004915E+02  0.90920509609E+02  0.97021771788E+02  0.00000000000E+00 0. -1.
          2    1    6    6  503    0 -0.51189442971E+02  0.20184427170E+03  0.25458591568E+02  0.20978467288E+03  0.00000000000E+00 0. -1.
         -2    1    6    6    0  503 -0.14359964596E+03  0.28536649081E+03  0.13639019937E+03  0.34735742238E+03  0.00000000000E+00 0.  1.
<mgrwt>
<rscale>  0 0.17804471E+04</rscale>
<asrwt>0</asrwt>
<pdfrwt beam="1">  1        2 0.14694314E+00 0.17804471E+04</pdfrwt>
<pdfrwt beam="2">  1       -1 0.12765038E+00 0.17804471E+04</pdfrwt>
<totfact> 0.15435408E+01</totfact>
</mgrwt>
</event>
<event>
12    6  0.9491186E-008  0.1526395E+04  0.7818608E-02  0.8867088E-01
         -1   -1    0    0    0  501 -0.00000000000E+00  0.00000000000E+00  0.38770181013E+03  0.38770181013E+03  0.00000000000E+00 0.  1.
          2   -1    0    0  501    0  0.00000000000E+00 -0.00000000000E+00 -0.15023670081E+04  0.15023670081E+04  0.00000000000E+00 0. -1.
         24    2    1    2    0    0  0.25844554563E+03 -0.13803273738E+03 -0.85948831123E+03  0.91190066039E+03  0.83639229097E+02 0.  0.
        254    2    1    2    0    0 -0.25844554563E+03  0.13803273738E+03 -0.25517688670E+03  0.97816815779E+03  0.89769179832E+03 0.  0.
         23    2    4    4    0    0 -0.25261651073E+03 -0.25520931178E+03  0.15594258442E+03  0.40232111345E+03  0.92721596052E+02 0.  0.
         23    2    4    4    0    0 -0.58290348965E+01  0.39324204916E+03 -0.41111947112E+03  0.57584704435E+03  0.88923068250E+02 0.  0.
          2    1    3    3  502    0  0.23090512852E+03 -0.92959168243E+02 -0.75218333563E+03  0.79229941041E+03  0.00000000000E+00 0. -1.
         -1    1    3    3    0  502  0.27540417102E+02 -0.45073569137E+02 -0.10730497560E+03  0.11960124998E+03  0.00000000000E+00 0.  1.
         11    1    5    5    0    0 -0.19202973679E+03 -0.13272592454E+03  0.11091396536E+03  0.25844438196E+03  0.00000000000E+00 0. -1.
        -11    1    5    5    0    0 -0.60586773937E+02 -0.12248338725E+03  0.45028619061E+02  0.14387673148E+03  0.00000000000E+00 0.  1.
          1    1    6    6  503    0  0.22765281762E+02  0.13635797588E+03 -0.19439250586E+03  0.23853763220E+03  0.00000000000E+00 0. -1.
         -1    1    6    6    0  503 -0.28594316659E+02  0.25688407328E+03 -0.21672696526E+03  0.33730941215E+03  0.00000000000E+00 0.  1.
<mgrwt>
<rscale>  0 0.15263950E+04</rscale>
<asrwt>0</asrwt>
<pdfrwt beam="1">  1        2 0.23113339E+00 0.15263950E+04</pdfrwt>
<pdfrwt beam="2">  1       -1 0.59646432E-01 0.15263950E+04</pdfrwt>
<totfact> 0.39623057E+01</totfact>
</mgrwt>
</event>
<event>
12    6  0.9491186E-008  0.1323042E+04  0.7818608E-02  0.9011489E-01
         -1   -1    0    0    0  501 -0.00000000000E+00  0.00000000000E+00  0.51274733806E+03  0.51274733806E+03  0.00000000000E+00 0.  1.
          2   -1    0    0  501    0  0.00000000000E+00 -0.00000000000E+00 -0.85346160889E+03  0.85346160889E+03  0.00000000000E+00 0. -1.
         24    2    1    2    0    0 -0.27354382381E+03 -0.23187289834E+03 -0.14274936476E+03  0.39371938095E+03  0.77757991659E+02 0.  0.
        254    2    1    2    0    0  0.27354382381E+03  0.23187289834E+03 -0.19796490607E+03  0.97248956600E+03  0.88201733963E+03 0.  0.
         23    2    4    4    0    0  0.35480319770E+03 -0.24562519328E+03  0.45104486078E+01  0.43894526319E+03  0.80221912580E+02 0.  0.
         23    2    4    4    0    0 -0.81259373888E+02  0.47749809162E+03 -0.20247535468E+03  0.53354430281E+03  0.95214182053E+02 0.  0.
          4    1    3    3  502    0 -0.16229589644E+03 -0.15635164832E+03 -0.51342601949E+02  0.23113169127E+03  0.00000000000E+00 0. -1.
         -1    1    3    3    0  502 -0.11124792737E+03 -0.75521250021E+02 -0.91406762807E+02  0.16258768968E+03  0.00000000000E+00 0.  1.
         11    1    5    5    0    0  0.13192106051E+03 -0.10854487825E+03 -0.34802719478E+02  0.17434559382E+03  0.00000000000E+00 0.  1.
        -11    1    5    5    0    0  0.22288213719E+03 -0.13708031503E+03  0.39313168086E+02  0.26459966937E+03  0.00000000000E+00 0. -1.
          2    1    6    6  503    0 -0.44207636497E+02  0.23694544080E+03 -0.49474754800E+02  0.24605935951E+03  0.00000000000E+00 0.  1.
         -2    1    6    6    0  503 -0.37051737391E+02  0.24055265082E+03 -0.15300059988E+03  0.28748494330E+03  0.00000000000E+00 0. -1.
<mgrwt>
<rscale>  0 0.13230422E+04</rscale>
<asrwt>0</asrwt>
<pdfrwt beam="1">  1        2 0.13130179E+00 0.13230422E+04</pdfrwt>
<pdfrwt beam="2">  1       -1 0.78884206E-01 0.13230422E+04</pdfrwt>
<totfact> 0.56686811E+01</totfact>
</mgrwt>
</event>
<event>
12    6  0.9491186E-008  0.1691300E+04  0.7818608E-02  0.8766342E-01
         -1   -1    0    0    0  501 -0.00000000000E+00  0.00000000000E+00  0.14163166571E+04  0.14163166571E+04  0.00000000000E+00 0.  1.
          2   -1    0    0  501    0  0.00000000000E+00 -0.00000000000E+00 -0.50491801997E+03  0.50491801997E+03  0.00000000000E+00 0. -1.
         24    2    1    2    0    0 -0.53674128073E+03 -0.61538934735E+02  0.18654035141E+02  0.54684148605E+03  0.82519057855E+02 0.  0.
        254    2    1    2    0    0  0.53674128073E+03  0.61538934735E+02  0.89274460199E+03  0.13743931910E+04  0.89447497239E+03 0.  0.
         23    2    4    4    0    0  0.76029532356E+03 -0.64225551617E+02  0.70679020938E+03  0.10440545329E+04  0.91233585429E+02 0.  0.
         23    2    4    4    0    0 -0.22355404283E+03  0.12576448635E+03  0.18595439262E+03  0.33033865812E+03  0.93549328296E+02 0.  0.
          4    1    3    3  502    0 -0.48077857760E+03 -0.43275219776E+02  0.39635208979E+02  0.48434670961E+03  0.00000000000E+00 0. -1.
         -3    1    3    3    0  502 -0.55962703130E+02 -0.18263714959E+02 -0.20981173838E+02  0.62494776433E+02  0.00000000000E+00 0.  1.
         11    1    5    5    0    0  0.38272986882E+03 -0.67939633959E+01  0.40523779368E+03  0.55744594343E+03  0.00000000000E+00 0.  1.
        -11    1    5    5    0    0  0.37756545473E+03 -0.57431588221E+02  0.30155241570E+03  0.48660858947E+03  0.00000000000E+00 0. -1.
          3    1    6    6  503    0 -0.85447681706E+02  0.68994950200E+02  0.13166574470E+03  0.17145692692E+03  0.00000000000E+00 0. -1.
         -3    1    6    6    0  503 -0.13810636112E+03  0.56769536152E+02  0.54288647922E+02  0.15888173121E+03  0.00000000000E+00 0.  1.
<mgrwt>
<rscale>  0 0.16912999E+04</rscale>
<asrwt>0</asrwt>
<pdfrwt beam="1">  1        2 0.77679696E-01 0.16912999E+04</pdfrwt>
<pdfrwt beam="2">  1       -1 0.21789487E+00 0.16912999E+04</pdfrwt>
<totfact> 0.75318277E+00</totfact>
</mgrwt>
</event>
<event>
12    6  0.9491186E-008  0.1168571E+04  0.7818608E-02  0.9140820E-01
          2   -1    0    0  501    0  0.00000000000E+00  0.00000000000E+00  0.13145227049E+04  0.13145227049E+04  0.00000000000E+00 0. -1.
         -1   -1    0    0    0  501 -0.00000000000E+00 -0.00000000000E+00 -0.25970587199E+03  0.25970587199E+03  0.00000000000E+00 0.  1.
         24    2    1    2    0    0  0.15436559656E+03 -0.68654329352E+02  0.43137179517E+03  0.47032352201E+03  0.81119882555E+02 0.  0.
        254    2    1    2    0    0 -0.15436559656E+03  0.68654329352E+02  0.62344503778E+03  0.11039050549E+04  0.89519858177E+03 0.  0.
         23    2    4    4    0    0 -0.42219079585E+03 -0.19519489305E+03  0.15634698096E+03  0.49739155639E+03  0.81288790997E+02 0.  0.
         23    2    4    4    0    0  0.26782519928E+03  0.26384922240E+03  0.46709805682E+03  0.60651349853E+03  0.91275843896E+02 0.  0.
          2    1    3    3  502    0  0.79510952676E+02 -0.49885117969E+02  0.32896712961E+03  0.34209631532E+03  0.00000000000E+00 0. -1.
         -1    1    3    3    0  502  0.74854643887E+02 -0.18769211384E+02  0.10240466556E+03  0.12822720669E+03  0.00000000000E+00 0.  1.
         11    1    5    5    0    0 -0.95235817476E+02 -0.22998408301E+02  0.50920450680E+01  0.98105640193E+02  0.00000000000E+00 0. -1.
        -11    1    5    5    0    0 -0.32695497837E+03 -0.17219648475E+03  0.15125493589E+03  0.39928591620E+03  0.00000000000E+00 0.  1.
          1    1    6    6  503    0  0.17500744842E+03  0.20027158551E+03  0.38191752392E+03  0.46540016120E+03  0.00000000000E+00 0. -1.
         -1    1    6    6    0  503  0.92817750860E+02  0.63577636900E+02  0.85180532905E+02  0.14111333734E+03  0.00000000000E+00 0.  1.
<mgrwt>
<rscale>  0 0.11685705E+04</rscale>
<asrwt>0</asrwt>
<pdfrwt beam="1">  1        2 0.20223426E+00 0.11685705E+04</pdfrwt>
<pdfrwt beam="2">  1       -1 0.39954750E-01 0.11685705E+04</pdfrwt>
<totfact> 0.11143300E+02</totfact>
</mgrwt>
</event>
<event>
12    6  0.9491186E-008  0.1712720E+04  0.7818608E-02  0.8754143E-01
         -1   -1    0    0    0  501 -0.00000000000E+00  0.00000000000E+00  0.55480474962E+03  0.55480474962E+03  0.00000000000E+00 0.  1.
          2   -1    0    0  501    0  0.00000000000E+00 -0.00000000000E+00 -0.13218212981E+04  0.13218212981E+04  0.00000000000E+00 0. -1.
         24    2    1    2    0    0 -0.18392873486E+03 -0.53197179662E+03 -0.54029070068E+03  0.78442205236E+03  0.81118081124E+02 0.  0.
        254    2    1    2    0    0  0.18392873486E+03  0.53197179662E+03 -0.22672584780E+03  0.10922039954E+04  0.90811958768E+03 0.  0.
         23    2    4    4    0    0  0.47889770066E+03  0.51612847276E+03 -0.18758028846E+01  0.71004860766E+03  0.91836259234E+02 0.  0.
         23    2    4    4    0    0 -0.29496896580E+03  0.15843323854E+02 -0.22485004492E+03  0.38215538771E+03  0.90705545381E+02 0.  0.
          4    1    3    3  502    0 -0.77080217664E+02 -0.33734172912E+03 -0.34685626273E+03  0.48994904750E+03  0.00000000000E+00 0. -1.
         -3    1    3    3    0  502 -0.10684851720E+03 -0.19463006750E+03 -0.19343443796E+03  0.29447300486E+03  0.00000000000E+00 0.  1.
         11    1    5    5    0    0  0.84818733850E+00 -0.26514848687E+01  0.36294001750E+01  0.45740943803E+01  0.00000000000E+00 0.  1.
        -11    1    5    5    0    0  0.47804951332E+03  0.51877995763E+03 -0.55052030596E+01  0.70547451328E+03  0.00000000000E+00 0. -1.
          4    1    6    6  503    0 -0.20571653818E+03  0.23012946229E+02 -0.20313070396E+03  0.29001891777E+03  0.00000000000E+00 0. -1.
         -4    1    6    6    0  503 -0.89252427618E+02 -0.71696223752E+01 -0.21719340952E+02  0.92136469935E+02  0.00000000000E+00 0.  1.
<mgrwt>
<rscale>  0 0.17127203E+04</rscale>
<asrwt>0</asrwt>
<pdfrwt beam="1">  1        2 0.20335712E+00 0.17127203E+04</pdfrwt>
<pdfrwt beam="2">  1       -1 0.85354578E-01 0.17127203E+04</pdfrwt>
<totfact> 0.23605055E+01</totfact>
</mgrwt>
</event>
<event>
12    6  0.9491186E-008  0.1766955E+04  0.7818608E-02  0.8724072E-01
          2   -1    0    0  501    0  0.00000000000E+00  0.00000000000E+00  0.23460649733E+04  0.23460649733E+04  0.00000000000E+00 0. -1.
         -1   -1    0    0    0  501 -0.00000000000E+00 -0.00000000000E+00 -0.33269866656E+03  0.33269866656E+03  0.00000000000E+00 0.  1.
         24    2    1    2    0    0  0.20365800907E+03  0.42975966349E+03  0.73838676349E+02  0.48816807320E+03  0.81767747602E+02 0.  0.
        254    2    1    2    0    0 -0.20365800907E+03 -0.42975966349E+03  0.19395276304E+04  0.21905955667E+04  0.90042853942E+03 0.  0.
         23    2    4    4    0    0 -0.38899720488E+03 -0.31386454991E+03  0.43797021267E+03  0.67050659319E+03  0.89058425891E+02 0.  0.
         23    2    4    4    0    0  0.18533919581E+03 -0.11589511357E+03  0.15015574177E+04  0.15200889735E+04  0.90628437710E+02 0.  0.
          2    1    3    3  502    0  0.18780133894E+03  0.39291582870E+03  0.43070742007E+02  0.43761544782E+03  0.00000000000E+00 0. -1.
         -1    1    3    3    0  502  0.15856670127E+02  0.36843834784E+02  0.30767934341E+02  0.50552625380E+02  0.00000000000E+00 0.  1.
         11    1    5    5    0    0 -0.30261804323E+03 -0.19908118974E+03  0.28734854669E+03  0.46236369611E+03  0.00000000000E+00 0.  1.
        -11    1    5    5    0    0 -0.86379161655E+02 -0.11478336018E+03  0.15062166599E+03  0.20814289708E+03  0.00000000000E+00 0. -1.
          1    1    6    6  503    0  0.26426630961E+02  0.76845147116E+01  0.34897133478E+03  0.35005486868E+03  0.00000000000E+00 0. -1.
         -1    1    6    6    0  503  0.15891256485E+03 -0.12357962829E+03  0.11525860829E+04  0.11700341048E+04  0.00000000000E+00 0.  1.
<mgrwt>
<rscale>  0 0.17669552E+04</rscale>
<asrwt>0</asrwt>
<pdfrwt beam="1">  1        2 0.36093306E+00 0.17669552E+04</pdfrwt>
<pdfrwt beam="2">  1       -1 0.51184412E-01 0.17669552E+04</pdfrwt>
<totfact> 0.17670448E+01</totfact>
</mgrwt>
</event>
<event>
12    6  0.9491186E-008  0.2410053E+04  0.7818608E-02  0.8435749E-01
          2   -1    0    0  501    0  0.00000000000E+00  0.00000000000E+00  0.17019447982E+04  0.17019447982E+04  0.00000000000E+00 0. -1.
         -1   -1    0    0    0  501 -0.00000000000E+00 -0.00000000000E+00 -0.85319387426E+03  0.85319387426E+03  0.00000000000E+00 0.  1.
         24    2    1    2    0    0 -0.31747509937E+03 -0.61316781740E+03 -0.44987216294E+03  0.82794879671E+03  0.79680838121E+02 0.  0.
        254    2    1    2    0    0  0.31747509937E+03  0.61316781740E+03  0.12986230869E+04  0.17271898758E+04  0.90553726270E+03 0.  0.
         23    2    4    4    0    0  0.59251555507E+03  0.22465319414E+03  0.60664280220E+03  0.88224056578E+03  0.93750657618E+02 0.  0.
         23    2    4    4    0    0 -0.27504045570E+03  0.38851462325E+03  0.69198028468E+03  0.84494930998E+03  0.92259185457E+02 0.  0.
          2    1    3    3  502    0 -0.17417659566E+02 -0.40048016254E+02 -0.76716115086E+01  0.44340411520E+02  0.00000000000E+00 0. -1.
         -1    1    3    3    0  502 -0.30005743981E+03 -0.57311980114E+03 -0.44220055143E+03  0.78360838519E+03  0.00000000000E+00 0.  1.
         11    1    5    5    0    0  0.64472596863E+02  0.54972043084E+02  0.99645820667E+02  0.13079728913E+03  0.00000000000E+00 0. -1.
        -11    1    5    5    0    0  0.52804295821E+03  0.16968115106E+03  0.50699698153E+03  0.75144327665E+03  0.00000000000E+00 0.  1.
          4    1    6    6  503    0  0.52460164385E+01  0.69163621095E+01  0.28912780344E+02  0.30187838951E+02  0.00000000000E+00 0. -1.
         -4    1    6    6    0  503 -0.28028647214E+03  0.38159826115E+03  0.66306750433E+03  0.81476147103E+03  0.00000000000E+00 0.  1.
<mgrwt>
<rscale>  0 0.24100530E+04</rscale>
<asrwt>0</asrwt>
<pdfrwt beam="1">  1        2 0.26183766E+00 0.24100530E+04</pdfrwt>
<pdfrwt beam="2">  1       -1 0.13126060E+00 0.24100530E+04</pdfrwt>
<totfact> 0.49526831E+00</totfact>
</mgrwt>
</event>
<event>
12    6  0.9491186E-008  0.1977822E+04  0.7818608E-02  0.8617061E-01
         -1   -1    0    0    0  501 -0.00000000000E+00  0.00000000000E+00  0.48660078583E+03  0.48660078583E+03  0.00000000000E+00 0.  1.
          2   -1    0    0  501    0  0.00000000000E+00 -0.00000000000E+00 -0.20097473121E+04  0.20097473121E+04  0.00000000000E+00 0. -1.
         24    2    1    2    0    0 -0.26215513159E+02  0.29248591329E+02 -0.15818878382E+04  0.15842903070E+04  0.77871119279E+02 0.  0.
        254    2    1    2    0    0  0.26215513159E+02 -0.29248591329E+02  0.58741311864E+02  0.91205779091E+03  0.90931630307E+03 0.  0.
         23    2    4    4    0    0 -0.31283107354E+03 -0.24013117068E+03 -0.17169401486E+03  0.44217520831E+03  0.10253692212E+03 0.  0.
         23    2    4    4    0    0  0.33904658670E+03  0.21088257935E+03  0.23043532672E+03  0.46988258261E+03  0.90912878126E+02 0.  0.
          4    1    3    3  502    0 -0.22152266777E+02  0.52811044736E+02 -0.13400954051E+04  0.13413185394E+04  0.00000000000E+00 0. -1.
         -3    1    3    3    0  502 -0.40632463826E+01 -0.23562453407E+02 -0.24179243303E+03  0.24297176761E+03  0.00000000000E+00 0.  1.
         11    1    5    5    0    0 -0.71841028604E+00 -0.32388882550E+02 -0.17014310599E+02  0.36592930893E+02  0.00000000000E+00 0. -1.
        -11    1    5    5    0    0 -0.31211266325E+03 -0.20774228813E+03 -0.15467970426E+03  0.40558227741E+03  0.00000000000E+00 0.  1.
          4    1    6    6  503    0  0.19827695591E+03  0.16405901036E+03  0.17636464245E+03  0.31198332845E+03  0.00000000000E+00 0. -1.
         -4    1    6    6    0  503  0.14076963079E+03  0.46823568994E+02  0.54070684275E+02  0.15789925416E+03  0.00000000000E+00 0.  1.
<mgrwt>
<rscale>  0 0.19778217E+04</rscale>
<asrwt>0</asrwt>
<pdfrwt beam="1">  1        2 0.30919189E+00 0.19778217E+04</pdfrwt>
<pdfrwt beam="2">  1       -1 0.74861660E-01 0.19778217E+04</pdfrwt>
<totfact> 0.12549359E+01</totfact>
</mgrwt>
</event>
<event>
12    6  0.9491186E-008  0.1625955E+04  0.7818608E-02  0.8804759E-01
         -1   -1    0    0    0  501 -0.00000000000E+00  0.00000000000E+00  0.40736078386E+03  0.40736078386E+03  0.00000000000E+00 0.  1.
          2   -1    0    0  501    0  0.00000000000E+00 -0.00000000000E+00 -0.16224752622E+04  0.16224752622E+04  0.00000000000E+00 0. -1.
         24    2    1    2    0    0  0.30465614368E+03 -0.22699692201E+03 -0.92719707108E+03  0.10057545137E+04  0.86630045007E+02 0.  0.
        254    2    1    2    0    0 -0.30465614368E+03  0.22699692201E+03 -0.28791740722E+03  0.10240815323E+04  0.90636834840E+03 0.  0.
         23    2    4    4    0    0 -0.93295765640E+02  0.35981853740E+03  0.22638299062E+03  0.44491173808E+03  0.92323975731E+02 0.  0.
         23    2    4    4    0    0 -0.21136037804E+03 -0.13282161539E+03 -0.51430039785E+03  0.57916979424E+03  0.92832970536E+02 0.  0.
          4    1    3    3  502    0  0.27855843693E+03 -0.16960779864E+03 -0.79499113909E+03  0.85928605213E+03  0.00000000000E+00 0. -1.
         -3    1    3    3    0  502  0.26097706747E+02 -0.57389123372E+02 -0.13220593199E+03  0.14646846157E+03  0.00000000000E+00 0.  1.
         11    1    5    5    0    0 -0.87179322105E+02  0.33666823050E+03  0.17743628589E+03  0.39042203727E+03  0.00000000000E+00 0. -1.
        -11    1    5    5    0    0 -0.61164435349E+01  0.23150306902E+02  0.48946704729E+02  0.54489700816E+02  0.00000000000E+00 0.  1.
          1    1    6    6  503    0 -0.21669701892E+03 -0.13848706092E+03 -0.50702313050E+03  0.56851448435E+03  0.00000000000E+00 0. -1.
         -1    1    6    6    0  503  0.53366408813E+01  0.56654455286E+01 -0.72772673465E+01  0.10655309895E+02  0.00000000000E+00 0.  1.
<mgrwt>
<rscale>  0 0.16259555E+04</rscale>
<asrwt>0</asrwt>
<pdfrwt beam="1">  1        2 0.24961158E+00 0.16259555E+04</pdfrwt>
<pdfrwt beam="2">  1       -1 0.62670890E-01 0.16259555E+04</pdfrwt>
<totfact> 0.30503281E+01</totfact>
</mgrwt>
</event>
<event>
12    6  0.1078945E-007  0.1794231E+04  0.7818608E-02  0.8709373E-01
         -1   -1    0    0    0  501 -0.00000000000E+00  0.00000000000E+00  0.77795048806E+03  0.77795048806E+03  0.00000000000E+00 0.  1.
          2   -1    0    0  501    0  0.00000000000E+00 -0.00000000000E+00 -0.10345344206E+04  0.10345344206E+04  0.00000000000E+00 0. -1.
         24    2    1    2    0    0 -0.37702670424E+03 -0.20005715079E+03 -0.61411184338E+03  0.75223368957E+03  0.80933109740E+02 0.  0.
        254    2    1    2    0    0  0.37702670424E+03  0.20005715079E+03  0.35752791082E+03  0.10602512191E+04  0.90229398830E+03 0.  0.
         23    2    4    4    0    0  0.35644414311E+03  0.35282079603E+03  0.58157782283E+03  0.77347081622E+03  0.92137930717E+02 0.  0.
         23    2    4    4    0    0  0.20582561135E+02 -0.15276364523E+03 -0.22404991201E+03  0.28678040289E+03  0.91017928369E+02 0.  0.
          2    1    3    3  502    0 -0.36180194516E+03 -0.17062684468E+03 -0.55023422690E+03  0.68027338042E+03  0.00000000000E+00 0. -1.
         -1    1    3    3    0  502 -0.15224759081E+02 -0.29430306109E+02 -0.63877616481E+02  0.71960309157E+02  0.00000000000E+00 0.  1.
         11    1    5    5    0    0  0.14649329987E+03  0.20980580332E+03  0.29353750228E+03  0.38941369681E+03  0.00000000000E+00 0. -1.
        -11    1    5    5    0    0  0.20995084324E+03  0.14301499271E+03  0.28804032054E+03  0.38405711941E+03  0.00000000000E+00 0.  1.
          1    1    6    6  503    0  0.26137793365E+02 -0.14347585179E+03 -0.14041174524E+03  0.20244496164E+03  0.00000000000E+00 0. -1.
         -1    1    6    6    0  503 -0.55552322298E+01 -0.92877934396E+01 -0.83638166761E+02  0.84335441253E+02  0.00000000000E+00 0.  1.
<mgrwt>
<rscale>  0 0.17942314E+04</rscale>
<asrwt>0</asrwt>
<pdfrwt beam="1">  1        2 0.15915914E+00 0.17942314E+04</pdfrwt>
<pdfrwt beam="2">  1       -1 0.11968469E+00 0.17942314E+04</pdfrwt>
<totfact> 0.16074991E+01</totfact>
</mgrwt>
</event>
<event>
12    6  0.1020375E-007  0.1965684E+04  0.7818608E-02  0.8622835E-01
          2   -1    0    0  501    0  0.00000000000E+00  0.00000000000E+00  0.11830873472E+04  0.11830873472E+04  0.00000000000E+00 0. -1.
         -1   -1    0    0    0  501 -0.00000000000E+00 -0.00000000000E+00 -0.81648921816E+03  0.81648921816E+03  0.00000000000E+00 0.  1.
         24    2    1    2    0    0 -0.24385271002E+03 -0.30902585461E+03 -0.53036041895E+03  0.66446818381E+03  0.72626925517E+02 0.  0.
        254    2    1    2    0    0  0.24385271002E+03  0.30902585461E+03  0.89695854801E+03  0.13351083816E+04  0.90720374266E+03 0.  0.
         23    2    4    4    0    0  0.48227837393E+03  0.45458901558E+03  0.47120987051E+03  0.81821355023E+03  0.90504522919E+02 0.  0.
         23    2    4    4    0    0 -0.23842566392E+03 -0.14556316097E+03  0.42574867750E+03  0.51689483134E+03  0.88785692694E+02 0.  0.
          2    1    3    3  502    0 -0.25602913025E+02 -0.21867499225E+02 -0.84648360568E+02  0.91099075871E+02  0.00000000000E+00 0. -1.
         -3    1    3    3    0  502 -0.21824979699E+03 -0.28715835538E+03 -0.44571205838E+03  0.57336910794E+03  0.00000000000E+00 0.  1.
         11    1    5    5    0    0  0.21550020658E+03  0.17109163183E+03  0.24216444839E+03  0.36654645760E+03  0.00000000000E+00 0.  1.
        -11    1    5    5    0    0  0.26677816736E+03  0.28349738375E+03  0.22904542212E+03  0.45166709263E+03  0.00000000000E+00 0. -1.
          3    1    6    6  503    0 -0.19218175729E+02 -0.49795424485E+02  0.90155247101E+02  0.10477065981E+03  0.00000000000E+00 0. -1.
         -3    1    6    6    0  503 -0.21920748819E+03 -0.95767736484E+02  0.33559343040E+03  0.41212417153E+03  0.00000000000E+00 0.  1.
<mgrwt>
<rscale>  0 0.19656837E+04</rscale>
<asrwt>0</asrwt>
<pdfrwt beam="1">  1        2 0.18201344E+00 0.19656837E+04</pdfrwt>
<pdfrwt beam="2">  1       -1 0.12561373E+00 0.19656837E+04</pdfrwt>
<totfact> 0.11387250E+01</totfact>
</mgrwt>
</event>
<event>
12    6  0.9491186E-008  0.1333537E+04  0.7818608E-02  0.9003385E-01
         -1   -1    0    0    0  501 -0.00000000000E+00  0.00000000000E+00  0.53630808203E+03  0.53630808203E+03  0.00000000000E+00 0.  1.
          2   -1    0    0  501    0  0.00000000000E+00 -0.00000000000E+00 -0.82896368374E+03  0.82896368374E+03  0.00000000000E+00 0. -1.
         24    2    1    2    0    0  0.23893655802E+02  0.33343528804E+03 -0.16996303914E+03  0.38338892317E+03  0.79684588432E+02 0.  0.
        254    2    1    2    0    0 -0.23893655802E+02 -0.33343528804E+03 -0.12269256257E+03  0.98188284261E+03  0.91503576629E+03 0.  0.
         23    2    4    4    0    0 -0.43406182779E+03 -0.64612404191E+02  0.56651803285E+02  0.45176476349E+03  0.91090842528E+02 0.  0.
         23    2    4    4    0    0  0.41016817199E+03 -0.26882288385E+03 -0.17934436586E+03  0.53011807912E+03  0.91417197764E+02 0.  0.
          4    1    3    3  502    0 -0.50839985697E+01  0.18010407569E+03 -0.13038075222E+03  0.22240158648E+03  0.00000000000E+00 0. -1.
         -3    1    3    3    0  502  0.28977654371E+02  0.15333121235E+03 -0.39582286921E+02  0.16098733668E+03  0.00000000000E+00 0.  1.
         11    1    5    5    0    0 -0.17505185234E+03 -0.71514911821E+02  0.23982949129E+02  0.19061142534E+03  0.00000000000E+00 0. -1.
        -11    1    5    5    0    0 -0.25900997545E+03  0.69025076302E+01  0.32668854156E+02  0.26115333815E+03  0.00000000000E+00 0.  1.
          1    1    6    6  503    0  0.40305608135E+03 -0.24061625081E+03 -0.16406668483E+03  0.49726075849E+03  0.00000000000E+00 0. -1.
         -1    1    6    6    0  503  0.71120906397E+01 -0.28206633047E+02 -0.15277681032E+02  0.32857320628E+02  0.00000000000E+00 0.  1.
<mgrwt>
<rscale>  0 0.13335365E+04</rscale>
<asrwt>0</asrwt>
<pdfrwt beam="1">  1        2 0.12753287E+00 0.13335365E+04</pdfrwt>
<pdfrwt beam="2">  1       -1 0.82508935E-01 0.13335365E+04</pdfrwt>
<totfact> 0.53546275E+01</totfact>
</mgrwt>
</event>
<event>
12    6  0.9491186E-008  0.1987799E+04  0.7818608E-02  0.8612346E-01
         -1   -1    0    0    0  501 -0.00000000000E+00  0.00000000000E+00  0.43139207499E+03  0.43139207499E+03  0.00000000000E+00 0.  1.
          2   -1    0    0  501    0  0.00000000000E+00 -0.00000000000E+00 -0.22898807899E+04  0.22898807899E+04  0.00000000000E+00 0. -1.
         24    2    1    2    0    0 -0.69306165242E+03 -0.15172491788E+03 -0.47948126494E+03  0.85947040578E+03  0.73703393548E+02 0.  0.
        254    2    1    2    0    0  0.69306165242E+03  0.15172491788E+03 -0.13790074500E+04  0.18618024591E+04  0.10301902470E+04 0.  0.
         23    2    4    4    0    0  0.41429626054E+03  0.55586552340E+03 -0.10584581300E+04  0.12685969299E+04  0.91524236989E+02 0.  0.
         23    2    4    4    0    0  0.27876539188E+03 -0.40414060552E+03 -0.32054931997E+03  0.59320552923E+03  0.90006447694E+02 0.  0.
          4    1    3    3  502    0 -0.50220751005E+02 -0.31513177040E+02 -0.38098283712E+02  0.70474700287E+02  0.00000000000E+00 0. -1.
         -3    1    3    3    0  502 -0.64284090142E+03 -0.12021174084E+03 -0.44138298123E+03  0.78899570549E+03  0.00000000000E+00 0.  1.
         11    1    5    5    0    0  0.65285190783E+01  0.32273679026E+02 -0.29624925691E+02  0.44292754955E+02  0.00000000000E+00 0. -1.
        -11    1    5    5    0    0  0.40776774146E+03  0.52359184438E+03 -0.10288332043E+04  0.12243041750E+04  0.00000000000E+00 0.  1.
          3    1    6    6  503    0  0.22548373026E+03 -0.30173887665E+03 -0.28523118388E+03  0.47248924914E+03  0.00000000000E+00 0. -1.
         -3    1    6    6    0  503  0.53281661620E+02 -0.10240172887E+03 -0.35318136095E+02  0.12071628009E+03  0.00000000000E+00 0.  1.
<mgrwt>
<rscale>  0 0.19877992E+04</rscale>
<asrwt>0</asrwt>
<pdfrwt beam="1">  1        2 0.35228936E+00 0.19877992E+04</pdfrwt>
<pdfrwt beam="2">  1       -1 0.66368010E-01 0.19877992E+04</pdfrwt>
<totfact> 0.11191034E+01</totfact>
</mgrwt>
</event>
<event>
12    6  0.9491186E-008  0.1546849E+04  0.7818608E-02  0.8853883E-01
         -1   -1    0    0    0  501 -0.00000000000E+00  0.00000000000E+00  0.37242824214E+03  0.37242824214E+03  0.00000000000E+00 0.  1.
          2   -1    0    0  501    0  0.00000000000E+00 -0.00000000000E+00 -0.16061766512E+04  0.16061766512E+04  0.00000000000E+00 0. -1.
         24    2    1    2    0    0  0.34965652737E+03 -0.17025225309E+03  0.11741745060E+02  0.39934977846E+03  0.89982554769E+02 0.  0.
        254    2    1    2    0    0 -0.34965652737E+03  0.17025225309E+03 -0.12454901541E+04  0.15792551149E+04  0.88969403563E+03 0.  0.
         23    2    4    4    0    0 -0.30547936024E+02  0.26042026651E+03  0.10895233160E+02  0.27662692969E+03  0.87474913642E+02 0.  0.
         23    2    4    4    0    0 -0.31910859135E+03 -0.90168013422E+02 -0.12563853873E+04  0.13026281852E+04  0.91517122773E+02 0.  0.
          4    1    3    3  502    0  0.88748248290E+02 -0.71110339813E+01 -0.15729598831E+02  0.90411496272E+02  0.00000000000E+00 0. -1.
         -3    1    3    3    0  502  0.26090827908E+03 -0.16314121911E+03  0.27471343890E+02  0.30893828219E+03  0.00000000000E+00 0.  1.
         11    1    5    5    0    0 -0.40538959353E+02  0.14323573849E+03  0.42565057177E+02  0.15482786603E+03  0.00000000000E+00 0.  1.
        -11    1    5    5    0    0  0.99910233294E+01  0.11718452802E+03 -0.31669824017E+02  0.12179906366E+03  0.00000000000E+00 0. -1.
          1    1    6    6  503    0 -0.28107266386E+02 -0.29283891840E+02 -0.86389199381E+02  0.95449769589E+02  0.00000000000E+00 0. -1.
         -1    1    6    6    0  503 -0.29100132496E+03 -0.60884121582E+02 -0.11699961879E+04  0.12071784156E+04  0.00000000000E+00 0.  1.
<mgrwt>
<rscale>  0 0.15468491E+04</rscale>
<asrwt>0</asrwt>
<pdfrwt beam="1">  1        2 0.24710410E+00 0.15468491E+04</pdfrwt>
<pdfrwt beam="2">  1       -1 0.57296652E-01 0.15468491E+04</pdfrwt>
<totfact> 0.37433619E+01</totfact>
</mgrwt>
</event>
<event>
12    6  0.1430496E-007  0.3284877E+04  0.7818608E-02  0.8166754E-01
         -1   -1    0    0    0  501 -0.00000000000E+00  0.00000000000E+00  0.10462929003E+04  0.10462929003E+04  0.00000000000E+00 0.  1.
          2   -1    0    0  501    0  0.00000000000E+00 -0.00000000000E+00 -0.25782503165E+04  0.25782503165E+04  0.00000000000E+00 0. -1.
         24    2    1    2    0    0  0.71144818161E+03 -0.12386543375E+04 -0.12772114344E+04  0.19179653105E+04  0.83059022435E+02 0.  0.
        254    2    1    2    0    0 -0.71144818161E+03  0.12386543375E+04 -0.25474598187E+03  0.17065779063E+04  0.89838162929E+03 0.  0.
         23    2    4    4    0    0 -0.39510463580E+03  0.54589675924E+03 -0.55941420173E+03  0.88141871522E+03  0.99215711817E+02 0.  0.
         23    2    4    4    0    0 -0.31634354581E+03  0.69275757828E+03  0.30466821985E+03  0.82515919103E+03  0.89881394688E+02 0.  0.
          4    1    3    3  502    0  0.69697244110E+03 -0.11963474620E+04 -0.12201945042E+04  0.18455060178E+04  0.00000000000E+00 0. -1.
         -3    1    3    3    0  502  0.14475740513E+02 -0.42306875497E+02 -0.57016930112E+02  0.72459292689E+02  0.00000000000E+00 0.  1.
         11    1    5    5    0    0 -0.37159899492E+03  0.54208214145E+03 -0.54266338478E+03  0.85230417709E+03  0.00000000000E+00 0. -1.
        -11    1    5    5    0    0 -0.23505640886E+02  0.38146177871E+01 -0.16750816948E+02  0.29114538134E+02  0.00000000000E+00 0.  1.
          1    1    6    6  503    0 -0.31957553219E+03  0.65603857895E+03  0.29450006698E+03  0.78692148737E+03  0.00000000000E+00 0. -1.
         -1    1    6    6    0  503  0.32319863788E+01  0.36718999332E+02  0.10168152878E+02  0.38237703655E+02  0.00000000000E+00 0.  1.
<mgrwt>
<rscale>  0 0.32848775E+04</rscale>
<asrwt>0</asrwt>
<pdfrwt beam="1">  1        2 0.39665389E+00 0.32848775E+04</pdfrwt>
<pdfrwt beam="2">  1       -1 0.16096814E+00 0.32848775E+04</pdfrwt>
<totfact> 0.85550216E-01</totfact>
</mgrwt>
</event>
<event>
12    6  0.9491186E-008  0.2712957E+04  0.7818608E-02  0.8330813E-01
          2   -1    0    0  501    0  0.00000000000E+00  0.00000000000E+00  0.18007494770E+04  0.18007494770E+04  0.00000000000E+00 0. -1.
         -1   -1    0    0    0  501 -0.00000000000E+00 -0.00000000000E+00 -0.10218158959E+04  0.10218158959E+04  0.00000000000E+00 0.  1.
         24    2    1    2    0    0 -0.33857108199E+03  0.81261166590E+03 -0.50982227514E+03  0.10204674161E+04  0.80417025222E+02 0.  0.
        254    2    1    2    0    0  0.33857108199E+03 -0.81261166590E+03  0.12887558562E+04  0.18020979569E+04  0.90094244660E+03 0.  0.
         23    2    4    4    0    0 -0.29816578201E+03 -0.19637542558E+03  0.36323677620E+03  0.51715645277E+03  0.89686675270E+02 0.  0.
         23    2    4    4    0    0  0.63673686399E+03 -0.61623624032E+03  0.92551908003E+03  0.12849415041E+04  0.96478824788E+02 0.  0.
          4    1    3    3  502    0 -0.52989134137E+02  0.13308186330E+03 -0.11865100966E+03  0.18600186227E+03  0.00000000000E+00 0. -1.
         -3    1    3    3    0  502 -0.28558194785E+03  0.67952980260E+03 -0.39117126549E+03  0.83446555382E+03  0.00000000000E+00 0.  1.
         11    1    5    5    0    0 -0.92975033075E+02 -0.67167665282E+02  0.17911274015E+03  0.21269044576E+03  0.00000000000E+00 0.  1.
        -11    1    5    5    0    0 -0.20519074893E+03 -0.12920776030E+03  0.18412403605E+03  0.30446600700E+03  0.00000000000E+00 0. -1.
          4    1    6    6  503    0  0.57501382124E+03 -0.52293029143E+03  0.83755932447E+03  0.11426296891E+04  0.00000000000E+00 0. -1.
         -4    1    6    6    0  503  0.61723042747E+02 -0.93305948885E+02  0.87959755558E+02  0.14231181504E+03  0.00000000000E+00 0.  1.
<mgrwt>
<rscale>  0 0.27129574E+04</rscale>
<asrwt>0</asrwt>
<pdfrwt beam="1">  1        2 0.27703838E+00 0.27129574E+04</pdfrwt>
<pdfrwt beam="2">  1       -1 0.15720245E+00 0.27129574E+04</pdfrwt>
<totfact> 0.26392133E+00</totfact>
</mgrwt>
</event>
<event>
12    6  0.9491186E-008  0.1916122E+04  0.7818608E-02  0.8646873E-01
         -1   -1    0    0    0  501 -0.00000000000E+00  0.00000000000E+00  0.24479437251E+03  0.24479437251E+03  0.00000000000E+00 0.  1.
          2   -1    0    0  501    0  0.00000000000E+00 -0.00000000000E+00 -0.37495988782E+04  0.37495988782E+04  0.00000000000E+00 0. -1.
         24    2    1    2    0    0  0.46145737450E+03 -0.34593550561E+03 -0.39301686540E+03  0.70240774990E+03  0.79373220416E+02 0.  0.
        254    2    1    2    0    0 -0.46145737450E+03  0.34593550561E+03 -0.31117876403E+04  0.32919855008E+04  0.90627365442E+03 0.  0.
         23    2    4    4    0    0 -0.14006325757E+03 -0.29518780033E+03 -0.78148839136E+03  0.85204832599E+03  0.92242562864E+02 0.  0.
         23    2    4    4    0    0 -0.32139411693E+03  0.64112330594E+03 -0.23302992490E+04  0.24399371749E+04  0.93088966248E+02 0.  0.
          4    1    3    3  502    0  0.24938877688E+02 -0.38755316656E+01 -0.54305093419E+01  0.25815843929E+02  0.00000000000E+00 0. -1.
         -3    1    3    3    0  502  0.43651849681E+03 -0.34205997395E+03 -0.38758635605E+03  0.67659190598E+03  0.00000000000E+00 0.  1.
         11    1    5    5    0    0 -0.22751655943E+02 -0.15519804404E+03 -0.36220845375E+03  0.39471386432E+03  0.00000000000E+00 0.  1.
        -11    1    5    5    0    0 -0.11731160163E+03 -0.13998975629E+03 -0.41927993761E+03  0.45733446166E+03  0.00000000000E+00 0. -1.
          1    1    6    6  503    0 -0.71407531013E+02  0.21382484584E+03 -0.83011802199E+03  0.86018371911E+03  0.00000000000E+00 0. -1.
         -1    1    6    6    0  503 -0.24998658592E+03  0.42729846010E+03 -0.15001812270E+04  0.15797534557E+04  0.00000000000E+00 0.  1.
<mgrwt>
<rscale>  0 0.19161218E+04</rscale>
<asrwt>0</asrwt>
<pdfrwt beam="1">  1        2 0.57686133E+00 0.19161218E+04</pdfrwt>
<pdfrwt beam="2">  1       -1 0.37660675E-01 0.19161218E+04</pdfrwt>
<totfact> 0.39163505E+00</totfact>
</mgrwt>
</event>
<event>
12    6  0.9491186E-008  0.1789075E+04  0.7818608E-02  0.8712131E-01
         -1   -1    0    0    0  501 -0.00000000000E+00  0.00000000000E+00  0.38865864321E+03  0.38865864321E+03  0.00000000000E+00 0.  1.
          2   -1    0    0  501    0  0.00000000000E+00 -0.00000000000E+00 -0.20588694527E+04  0.20588694527E+04  0.00000000000E+00 0. -1.
         24    2    1    2    0    0 -0.23463110796E+03 -0.28222979536E+03  0.13337062508E+03  0.39881474345E+03  0.80994208104E+02 0.  0.
        254    2    1    2    0    0  0.23463110796E+03  0.28222979536E+03 -0.18035814346E+04  0.20487133525E+04  0.89978608303E+03 0.  0.
         23    2    4    4    0    0  0.37408591652E+02 -0.28336924657E+02 -0.16272145488E+04  0.16305019451E+04  0.92233513543E+02 0.  0.
         23    2    4    4    0    0  0.19722251631E+03  0.31056672001E+03 -0.17636688580E+03  0.41821140742E+03  0.91908075662E+02 0.  0.
          4    1    3    3  502    0  0.18834549148E+01 -0.77634522739E+01  0.16138231093E+02  0.18007251219E+02  0.00000000000E+00 0. -1.
         -3    1    3    3    0  502 -0.23651456288E+03 -0.27446634308E+03  0.11723239399E+03  0.38080749223E+03  0.00000000000E+00 0.  1.
         11    1    5    5    0    0  0.26179584478E+02 -0.60533670088E+02 -0.85752708574E+03  0.86005953203E+03  0.00000000000E+00 0. -1.
        -11    1    5    5    0    0  0.11229007174E+02  0.32196745431E+02 -0.76968746305E+03  0.77044241302E+03  0.00000000000E+00 0.  1.
          3    1    6    6  503    0  0.16818914902E+02  0.26984470975E+02 -0.49765935384E+02  0.59056632963E+02  0.00000000000E+00 0. -1.
         -3    1    6    6    0  503  0.18040360141E+03  0.28358224904E+03 -0.12660095042E+03  0.35915477446E+03  0.00000000000E+00 0.  1.
<mgrwt>
<rscale>  0 0.17890751E+04</rscale>
<asrwt>0</asrwt>
<pdfrwt beam="1">  1        2 0.31674915E+00 0.17890751E+04</pdfrwt>
<pdfrwt beam="2">  1       -1 0.59793637E-01 0.17890751E+04</pdfrwt>
<totfact> 0.18906013E+01</totfact>
</mgrwt>
</event>
<event>
12    6  0.9491186E-008  0.1677486E+04  0.7818608E-02  0.8774310E-01
          2   -1    0    0  501    0  0.00000000000E+00  0.00000000000E+00  0.17166936437E+04  0.17166936437E+04  0.00000000000E+00 0. -1.
         -1   -1    0    0    0  501 -0.00000000000E+00 -0.00000000000E+00 -0.40979351311E+03  0.40979351311E+03  0.00000000000E+00 0.  1.
         24    2    1    2    0    0  0.84769833863E+02 -0.24201888519E+03 -0.21097272881E+03  0.34177318833E+03  0.80872457846E+02 0.  0.
        254    2    1    2    0    0 -0.84769833863E+02  0.24201888519E+03  0.15178728594E+04  0.17847139685E+04  0.90305418800E+03 0.  0.
         23    2    4    4    0    0  0.25477864152E+03  0.32962581040E+03  0.12851989096E+04  0.13541355963E+04  0.91551323753E+02 0.  0.
         23    2    4    4    0    0 -0.33954847538E+03 -0.87606925207E+02  0.23267394987E+03  0.43057837224E+03  0.91062765230E+02 0.  0.
          4    1    3    3  502    0  0.41511086011E+02 -0.51729892234E+02 -0.21359488300E+02  0.69680555055E+02  0.00000000000E+00 0. -1.
         -3    1    3    3    0  502  0.43258747852E+02 -0.19028899296E+03 -0.18961324051E+03  0.27209263328E+03  0.00000000000E+00 0.  1.
         11    1    5    5    0    0  0.51245781653E+02  0.56745098601E+02  0.36653580865E+03  0.37442574080E+03  0.00000000000E+00 0.  1.
        -11    1    5    5    0    0  0.20353285987E+03  0.27288071180E+03  0.91866310092E+03  0.97970985547E+03  0.00000000000E+00 0. -1.
          1    1    6    6  503    0 -0.32708302557E+03 -0.93641569968E+02  0.23856293663E+03  0.41552896888E+03  0.00000000000E+00 0. -1.
         -1    1    6    6    0  503 -0.12465449812E+02  0.60346447611E+01 -0.58889867608E+01  0.15049403359E+02  0.00000000000E+00 0.  1.
<mgrwt>
<rscale>  0 0.16774861E+04</rscale>
<asrwt>0</asrwt>
<pdfrwt beam="1">  1        2 0.26410671E+00 0.16774861E+04</pdfrwt>
<pdfrwt beam="2">  1       -1 0.63045157E-01 0.16774861E+04</pdfrwt>
<totfact> 0.26598013E+01</totfact>
</mgrwt>
</event>
<event>
12    6  0.9491186E-008  0.2155862E+04  0.7818608E-02  0.8537027E-01
          2   -1    0    0  501    0  0.00000000000E+00  0.00000000000E+00  0.12332526374E+04  0.12332526374E+04  0.00000000000E+00 0. -1.
         -1   -1    0    0    0  501 -0.00000000000E+00 -0.00000000000E+00 -0.94217127983E+03  0.94217127983E+03  0.00000000000E+00 0.  1.
         24    2    1    2    0    0  0.72023833248E+03 -0.35548633379E+00  0.64751207895E+03  0.97180800492E+03  0.79972020703E+02 0.  0.
        254    2    1    2    0    0 -0.72023833248E+03  0.35548633379E+00 -0.35643072134E+03  0.12036159124E+04  0.89604967686E+03 0.  0.
         23    2    4    4    0    0 -0.51631416033E+03 -0.30471577029E+03 -0.51306483589E+03  0.79406560525E+03  0.88727936912E+02 0.  0.
         23    2    4    4    0    0 -0.20392417215E+03  0.30507125662E+03  0.15663411455E+03  0.40955030710E+03  0.92431967444E+02 0.  0.
          4    1    3    3  502    0  0.50003865056E+03 -0.30806302710E+02  0.42033285015E+03  0.65396283171E+03  0.00000000000E+00 0. -1.
         -3    1    3    3    0  502  0.22019968192E+03  0.30450816376E+02  0.22717922879E+03  0.31784517321E+03  0.00000000000E+00 0.  1.
         11    1    5    5    0    0 -0.28335543444E+03 -0.13295452180E+03 -0.30978056171E+03  0.44037620679E+03  0.00000000000E+00 0. -1.
        -11    1    5    5    0    0 -0.23295872589E+03 -0.17176124849E+03 -0.20328427417E+03  0.35368939845E+03  0.00000000000E+00 0.  1.
          3    1    6    6  503    0 -0.62025288372E+02  0.66486704088E+02  0.81161655280E+02  0.12188040247E+03  0.00000000000E+00 0. -1.
         -3    1    6    6    0  503 -0.14189888377E+03  0.23858455253E+03  0.75472459265E+02  0.28766990463E+03  0.00000000000E+00 0.  1.
<mgrwt>
<rscale>  0 0.21558620E+04</rscale>
<asrwt>0</asrwt>
<pdfrwt beam="1">  1        2 0.18973118E+00 0.21558620E+04</pdfrwt>
<pdfrwt beam="2">  1       -1 0.14494943E+00 0.21558620E+04</pdfrwt>
<totfact> 0.72375590E+00</totfact>
</mgrwt>
</event>
<event>
12    6  0.9907935E-008  0.2212059E+04  0.7818608E-02  0.8513426E-01
          2   -1    0    0  501    0  0.00000000000E+00  0.00000000000E+00  0.96526326725E+03  0.96526326725E+03  0.00000000000E+00 0. -1.
         -1   -1    0    0    0  501 -0.00000000000E+00 -0.00000000000E+00 -0.12673239285E+04  0.12673239285E+04  0.00000000000E+00 0.  1.
         24    2    1    2    0    0 -0.47231078574E+03  0.21516671051E+03 -0.89317661217E+03  0.10363652042E+04  0.83151573840E+02 0.  0.
        254    2    1    2    0    0  0.47231078574E+03 -0.21516671051E+03  0.59111595091E+03  0.11962219916E+04  0.90119631275E+03 0.  0.
         23    2    4    4    0    0  0.53210777783E+03 -0.23931506811E+03 -0.38650514586E+01  0.59056176520E+03  0.91311942492E+02 0.  0.
         23    2    4    4    0    0 -0.59796992086E+02  0.24148357598E+02  0.59498100237E+03  0.60566022640E+03  0.93075739185E+02 0.  0.
          2    1    3    3  502    0 -0.27337343182E+01  0.10025854508E+02 -0.38171318972E+02  0.39560594712E+02  0.00000000000E+00 0. -1.
         -1    1    3    3    0  502 -0.46957705142E+03  0.20514085600E+03 -0.85500529320E+03  0.99680460945E+03  0.00000000000E+00 0.  1.
         11    1    5    5    0    0  0.20568049001E+03 -0.44729352521E+02 -0.45433767184E+01  0.21053698302E+03  0.00000000000E+00 0. -1.
        -11    1    5    5    0    0  0.32642728782E+03 -0.19458571559E+03  0.67832525981E+00  0.38002478217E+03  0.00000000000E+00 0.  1.
          1    1    6    6  503    0  0.38169020809E+01 -0.53037864804E+01 -0.29479198015E-01  0.65345054555E+01  0.00000000000E+00 0. -1.
         -1    1    6    6    0  503 -0.63613894167E+02  0.29452144078E+02  0.59501048156E+03  0.59912572094E+03  0.00000000000E+00 0.  1.
<mgrwt>
<rscale>  0 0.22120590E+04</rscale>
<asrwt>0</asrwt>
<pdfrwt beam="1">  1        2 0.14850204E+00 0.22120590E+04</pdfrwt>
<pdfrwt beam="2">  1       -1 0.19497291E+00 0.22120590E+04</pdfrwt>
<totfact> 0.45060090E+00</totfact>
</mgrwt>
</event>
<event>
12    6  0.9491186E-008  0.1126906E+04  0.7818608E-02  0.9179357E-01
          2   -1    0    0  501    0  0.00000000000E+00  0.00000000000E+00  0.26685038845E+04  0.26685038845E+04  0.00000000000E+00 0. -1.
         -1   -1    0    0    0  501 -0.00000000000E+00 -0.00000000000E+00 -0.11897273394E+03  0.11897273394E+03  0.00000000000E+00 0.  1.
         24    2    1    2    0    0 -0.61598153741E+02 -0.16027329007E+03  0.69994553784E+03  0.72507229363E+03  0.79524933139E+02 0.  0.
        254    2    1    2    0    0  0.61598153741E+02  0.16027329007E+03  0.18495856127E+04  0.20624043248E+04  0.89613771271E+03 0.  0.
         23    2    4    4    0    0 -0.13681008384E+03  0.44220434547E+03  0.14609284809E+04  0.15352651191E+04  0.92006942167E+02 0.  0.
         23    2    4    4    0    0  0.19840823758E+03 -0.28193105540E+03  0.38865713175E+03  0.52713920564E+03  0.89277249793E+02 0.  0.
          2    1    3    3  502    0  0.35888150703E+01 -0.84590705578E+02  0.40232533099E+03  0.41113761567E+03  0.00000000000E+00 0. -1.
         -1    1    3    3    0  502 -0.65186968811E+02 -0.75682584497E+02  0.29762020684E+03  0.31393467795E+03  0.00000000000E+00 0.  1.
         11    1    5    5    0    0 -0.14723251728E+03  0.43107387023E+03  0.14296636118E+04  0.15004799694E+04  0.00000000000E+00 0. -1.
        -11    1    5    5    0    0  0.10422433441E+02  0.11130475249E+02  0.31264869182E+02  0.34785149749E+02  0.00000000000E+00 0.  1.
          4    1    6    6  503    0  0.19175399942E+03 -0.21285899748E+03  0.32030009373E+03  0.42973328838E+03  0.00000000000E+00 0. -1.
         -4    1    6    6    0  503  0.66542381608E+01 -0.69072057923E+02  0.68357038020E+02  0.97405917264E+02  0.00000000000E+00 0.  1.
<mgrwt>
<rscale>  0 0.11269059E+04</rscale>
<asrwt>0</asrwt>
<pdfrwt beam="1">  1        2 0.41053901E+00 0.11269059E+04</pdfrwt>
<pdfrwt beam="2">  1       -1 0.18303500E-01 0.11269059E+04</pdfrwt>
<totfact> 0.75054932E+01</totfact>
</mgrwt>
</event>
<event>
12    6  0.9491186E-008  0.1830572E+04  0.7818608E-02  0.8690208E-01
          2   -1    0    0  501    0  0.00000000000E+00  0.00000000000E+00  0.45971992600E+03  0.45971992600E+03  0.00000000000E+00 0. -1.
         -1   -1    0    0    0  501 -0.00000000000E+00 -0.00000000000E+00 -0.18223026144E+04  0.18223026144E+04  0.00000000000E+00 0.  1.
         24    2    1    2    0    0 -0.39501142524E+03  0.53619989654E+03 -0.75545726140E+03  0.10102533423E+04  0.79698097236E+02 0.  0.
        254    2    1    2    0    0  0.39501142524E+03 -0.53619989654E+03 -0.60712542702E+03  0.12717691981E+04  0.89735792973E+03 0.  0.
         23    2    4    4    0    0  0.65213337611E+02 -0.49354396187E+03 -0.74534395863E+03  0.90090876053E+03  0.90887603331E+02 0.  0.
         23    2    4    4    0    0  0.32979808762E+03 -0.42655934673E+02  0.13821853160E+03  0.37086043760E+03  0.88582133256E+02 0.  0.
          4    1    3    3  502    0 -0.20993154072E+02  0.69838188687E+02 -0.83024272241E+02  0.11050391350E+03  0.00000000000E+00 0. -1.
         -3    1    3    3    0  502 -0.37401827116E+03  0.46636170786E+03 -0.67243298916E+03  0.89974942880E+03  0.00000000000E+00 0.  1.
         11    1    5    5    0    0  0.68297843377E+02 -0.49021627985E+03 -0.74698638453E+03  0.89608328581E+03  0.00000000000E+00 0. -1.
        -11    1    5    5    0    0 -0.30845057667E+01 -0.33276820160E+01  0.16424258998E+01  0.48254747187E+01  0.00000000000E+00 0.  1.
          2    1    6    6  503    0  0.26867400213E+03 -0.30845964846E+02  0.14729182110E+03  0.30794816696E+03  0.00000000000E+00 0. -1.
         -2    1    6    6    0  503  0.61124085493E+02 -0.11809969827E+02 -0.90732894994E+01  0.62912270639E+02  0.00000000000E+00 0.  1.
<mgrwt>
<rscale>  0 0.18305724E+04</rscale>
<asrwt>0</asrwt>
<pdfrwt beam="1">  1        2 0.70726143E-01 0.18305724E+04</pdfrwt>
<pdfrwt beam="2">  1       -1 0.28035424E+00 0.18305724E+04</pdfrwt>
<totfact> 0.32358967E+00</totfact>
</mgrwt>
</event>
<event>
12    6  0.9491186E-008  0.1366371E+04  0.7818608E-02  0.8978527E-01
         -1   -1    0    0    0  501 -0.00000000000E+00  0.00000000000E+00  0.32476510497E+03  0.32476510497E+03  0.00000000000E+00 0.  1.
          2   -1    0    0  501    0  0.00000000000E+00 -0.00000000000E+00 -0.14371689730E+04  0.14371689730E+04  0.00000000000E+00 0. -1.
         24    2    1    2    0    0 -0.14442968562E+03 -0.14514986315E+03 -0.70823684131E+03  0.74162020453E+03  0.80453014313E+02 0.  0.
        254    2    1    2    0    0  0.14442968562E+03  0.14514986315E+03 -0.40416702676E+03  0.10203138735E+04  0.91419964889E+03 0.  0.
         23    2    4    4    0    0 -0.28840678909E+03 -0.97382428446E+02  0.71731188316E+02  0.32692593344E+03  0.95254339608E+02 0.  0.
         23    2    4    4    0    0  0.43283647471E+03  0.24253229159E+03 -0.47589821508E+03  0.69338794004E+03  0.90213069880E+02 0.  0.
          2    1    3    3  502    0 -0.96836730819E+02 -0.14073598613E+03 -0.51664410541E+03  0.54415540233E+03  0.00000000000E+00 0. -1.
         -1    1    3    3    0  502 -0.47592954799E+02 -0.44138770130E+01 -0.19159273590E+03  0.19746480220E+03  0.00000000000E+00 0.  1.
         11    1    5    5    0    0 -0.98820933956E+02  0.55173278270E+01 -0.19043714800E+01  0.98993153931E+02  0.00000000000E+00 0. -1.
        -11    1    5    5    0    0 -0.18958585513E+03 -0.10289975627E+03  0.73635559796E+02  0.22793277951E+03  0.00000000000E+00 0.  1.
          3    1    6    6  503    0  0.56599857845E+02  0.66767533658E+02 -0.10401694821E+03  0.13594474235E+03  0.00000000000E+00 0.  1.
         -3    1    6    6    0  503  0.37623661686E+03  0.17576475794E+03 -0.37188126687E+03  0.55744319769E+03  0.00000000000E+00 0. -1.
<mgrwt>
<rscale>  0 0.13663709E+04</rscale>
<asrwt>0</asrwt>
<pdfrwt beam="1">  1        2 0.22110292E+00 0.13663709E+04</pdfrwt>
<pdfrwt beam="2">  1       -1 0.49963863E-01 0.13663709E+04</pdfrwt>
<totfact> 0.61571413E+01</totfact>
</mgrwt>
</event>
<event>
12    6  0.9491186E-008  0.1196519E+04  0.7818608E-02  0.9115909E-01
         -1   -1    0    0    0  501 -0.00000000000E+00  0.00000000000E+00  0.59029453957E+03  0.59029453957E+03  0.00000000000E+00 0.  1.
          2   -1    0    0  501    0  0.00000000000E+00 -0.00000000000E+00 -0.60633172250E+03  0.60633172250E+03  0.00000000000E+00 0. -1.
         24    2    1    2    0    0  0.15216525069E+03 -0.13293478568E+03  0.15812039899E+03  0.26845348008E+03  0.78989174130E+02 0.  0.
        254    2    1    2    0    0 -0.15216525069E+03  0.13293478568E+03 -0.17415758192E+03  0.92817278199E+03  0.88901514561E+03 0.  0.
         23    2    4    4    0    0  0.21869496918E+03  0.87980240545E+02  0.25045908448E+03  0.35529628546E+03  0.89093687735E+02 0.  0.
         23    2    4    4    0    0 -0.37086021988E+03  0.44954545134E+02 -0.42461666640E+03  0.57287649652E+03  0.91268576583E+02 0.  0.
          4    1    3    3  502    0  0.17615136040E+02 -0.27951848210E+02 -0.37308870996E+01  0.33249336153E+02  0.00000000000E+00 0. -1.
         -3    1    3    3    0  502  0.13455011465E+03 -0.10498293747E+03  0.16185128609E+03  0.23520414393E+03  0.00000000000E+00 0.  1.
         11    1    5    5    0    0  0.13187643392E+03  0.55118799421E+01  0.12312288391E+03  0.18050213070E+03  0.00000000000E+00 0.  1.
        -11    1    5    5    0    0  0.86818535268E+02  0.82468360603E+02  0.12733620056E+03  0.17479415477E+03  0.00000000000E+00 0. -1.
          4    1    6    6  503    0 -0.36670392019E+03  0.31811136414E+02 -0.41970261739E+03  0.55824188353E+03  0.00000000000E+00 0. -1.
         -4    1    6    6    0  503 -0.41562996887E+01  0.13143408720E+02 -0.49140490091E+01  0.14634612997E+02  0.00000000000E+00 0.  1.
<mgrwt>
<rscale>  0 0.11965188E+04</rscale>
<asrwt>0</asrwt>
<pdfrwt beam="1">  1        2 0.93281803E-01 0.11965188E+04</pdfrwt>
<pdfrwt beam="2">  1       -1 0.90814545E-01 0.11965188E+04</pdfrwt>
<totfact> 0.65435707E+01</totfact>
</mgrwt>
</event>
<event>
12    6  0.9491186E-008  0.2507771E+04  0.7818608E-02  0.8400222E-01
         -1   -1    0    0    0  501 -0.00000000000E+00  0.00000000000E+00  0.13961281700E+04  0.13961281700E+04  0.00000000000E+00 0.  1.
          2   -1    0    0  501    0  0.00000000000E+00 -0.00000000000E+00 -0.11261347583E+04  0.11261347583E+04  0.00000000000E+00 0. -1.
         24    2    1    2    0    0 -0.81619521466E+03  0.43069604331E+03  0.70461596625E+03  0.11639209441E+04  0.80960447260E+02 0.  0.
        254    2    1    2    0    0  0.81619521466E+03 -0.43069604331E+03 -0.43462255457E+03  0.13583419843E+04  0.89695176637E+03 0.  0.
         23    2    4    4    0    0  0.16782396096E+03 -0.52313130765E+03  0.17122077165E+02  0.55744845810E+03  0.92867491598E+02 0.  0.
         23    2    4    4    0    0  0.64837125370E+03  0.92435264337E+02 -0.45174463173E+03  0.80089352620E+03  0.91802327252E+02 0.  0.
          2    1    3    3  502    0 -0.51787994798E+02  0.13834639184E+02  0.60818442027E+02  0.81069578371E+02  0.00000000000E+00 0. -1.
         -1    1    3    3    0  502 -0.76440721986E+03  0.41686140413E+03  0.64379752422E+03  0.10828513657E+04  0.00000000000E+00 0.  1.
         11    1    5    5    0    0  0.61826053894E+02 -0.33905212956E+03  0.48322256312E+01  0.34467688914E+03  0.00000000000E+00 0.  1.
        -11    1    5    5    0    0  0.10599790707E+03 -0.18407917809E+03  0.12289851534E+02  0.21277156896E+03  0.00000000000E+00 0. -1.
          1    1    6    6  503    0  0.30816418307E+03  0.81532145127E+02 -0.25099053114E+03  0.40572022521E+03  0.00000000000E+00 0. -1.
         -1    1    6    6    0  503  0.34020707062E+03  0.10903119210E+02 -0.20075410059E+03  0.39517330099E+03  0.00000000000E+00 0.  1.
<mgrwt>
<rscale>  0 0.25077707E+04</rscale>
<asrwt>0</asrwt>
<pdfrwt beam="1">  1        2 0.17325150E+00 0.25077707E+04</pdfrwt>
<pdfrwt beam="2">  1       -1 0.21478895E+00 0.25077707E+04</pdfrwt>
<totfact> 0.25446175E+00</totfact>
</mgrwt>
</event>
<event>
12    6  0.9491186E-008  0.1805328E+04  0.7818608E-02  0.8703471E-01
          2   -1    0    0  501    0  0.00000000000E+00  0.00000000000E+00  0.15704512301E+04  0.15704512301E+04  0.00000000000E+00 0. -1.
         -1   -1    0    0    0  501 -0.00000000000E+00 -0.00000000000E+00 -0.51883349573E+03  0.51883349573E+03  0.00000000000E+00 0.  1.
         24    2    1    2    0    0  0.52208943596E+03  0.40664396984E+03  0.48908293323E+03  0.82686152722E+03  0.81001063466E+02 0.  0.
        254    2    1    2    0    0 -0.52208943596E+03 -0.40664396984E+03  0.56253480117E+03  0.12624231986E+04  0.91614967805E+03 0.  0.
         23    2    4    4    0    0 -0.47463619870E+03 -0.65415087798E+03  0.57456506409E+03  0.99562991873E+03  0.89224603833E+02 0.  0.
         23    2    4    4    0    0 -0.47453237260E+02  0.24750690813E+03 -0.12030262915E+02  0.26679327991E+03  0.86732045287E+02 0.  0.
          4    1    3    3  502    0  0.42310307280E+02  0.30962096101E+02  0.14228051272E+02  0.54325417073E+02  0.00000000000E+00 0. -1.
         -3    1    3    3    0  502  0.47977912868E+03  0.37568187374E+03  0.47485488195E+03  0.77253611015E+03  0.00000000000E+00 0.  1.
         11    1    5    5    0    0 -0.38537037124E+03 -0.46755020270E+03  0.44114330033E+03  0.74948043770E+03  0.00000000000E+00 0.  1.
        -11    1    5    5    0    0 -0.89265827453E+02 -0.18660067527E+03  0.13342176376E+03  0.24614948102E+03  0.00000000000E+00 0. -1.
          3    1    6    6  503    0 -0.52334129792E+02  0.13096697243E+03  0.27387641672E+02  0.14367077617E+03  0.00000000000E+00 0. -1.
         -3    1    6    6    0  503  0.48808925321E+01  0.11653993570E+03 -0.39417904588E+02  0.12312250374E+03  0.00000000000E+00 0.  1.
<mgrwt>
<rscale>  0 0.18053284E+04</rscale>
<asrwt>0</asrwt>
<pdfrwt beam="1">  1        2 0.24160788E+00 0.18053284E+04</pdfrwt>
<pdfrwt beam="2">  1       -1 0.79820539E-01 0.18053284E+04</pdfrwt>
<totfact> 0.19522967E+01</totfact>
</mgrwt>
</event>
<event>
12    6  0.9491186E-008  0.1275641E+04  0.7818608E-02  0.9049108E-01
          2   -1    0    0  501    0  0.00000000000E+00  0.00000000000E+00  0.16669104234E+04  0.16669104234E+04  0.00000000000E+00 0. -1.
         -1   -1    0    0    0  501 -0.00000000000E+00 -0.00000000000E+00 -0.24405326649E+03  0.24405326649E+03  0.00000000000E+00 0.  1.
         24    2    1    2    0    0  0.30240805601E+02 -0.74521300784E+02 -0.95387998879E+02  0.14896999467E+03  0.81395690224E+02 0.  0.
        254    2    1    2    0    0 -0.30240805601E+02  0.74521300784E+02  0.15182451558E+04  0.17619936952E+04  0.89055347865E+03 0.  0.
         23    2    4    4    0    0  0.31664377747E+03 -0.19337692824E+03  0.37308942546E+03  0.53286291483E+03  0.84197674688E+02 0.  0.
         23    2    4    4    0    0 -0.34688458307E+03  0.26789822902E+03  0.11451557303E+04  0.12291307804E+04  0.85337292619E+02 0.  0.
          2    1    3    3  502    0  0.13218001773E+02  0.10255928773E+02 -0.46985715631E+02  0.49875415981E+02  0.00000000000E+00 0. -1.
         -1    1    3    3    0  502  0.17022803828E+02 -0.84777229556E+02 -0.48402283248E+02  0.99094578687E+02  0.00000000000E+00 0.  1.
         11    1    5    5    0    0  0.31955774048E+03 -0.18633194053E+03  0.35276415452E+03  0.51115485939E+03  0.00000000000E+00 0. -1.
        -11    1    5    5    0    0 -0.29139630064E+01 -0.70449877103E+01  0.20325270943E+02  0.21708055444E+02  0.00000000000E+00 0.  1.
          4    1    6    6  503    0 -0.34197299133E+03  0.27426165963E+03  0.11279870057E+04  0.12101734048E+04  0.00000000000E+00 0. -1.
         -4    1    6    6    0  503 -0.49115917448E+01 -0.63634306118E+01  0.17168724695E+02  0.18957375617E+02  0.00000000000E+00 0.  1.
<mgrwt>
<rscale>  0 0.12756409E+04</rscale>
<asrwt>0</asrwt>
<pdfrwt beam="1">  1        2 0.25644775E+00 0.12756409E+04</pdfrwt>
<pdfrwt beam="2">  1       -1 0.37546657E-01 0.12756409E+04</pdfrwt>
<totfact> 0.78227108E+01</totfact>
</mgrwt>
</event>
<event>
12    6  0.9491186E-008  0.2917587E+04  0.7818608E-02  0.8267664E-01
         -1   -1    0    0    0  501 -0.00000000000E+00  0.00000000000E+00  0.80974851717E+03  0.80974851717E+03  0.00000000000E+00 0.  1.
          2   -1    0    0  501    0  0.00000000000E+00 -0.00000000000E+00 -0.26280737156E+04  0.26280737156E+04  0.00000000000E+00 0. -1.
         24    2    1    2    0    0 -0.10997447421E+04  0.70855328477E+03 -0.98002555147E+03  0.16366554768E+04  0.81882923094E+02 0.  0.
        254    2    1    2    0    0  0.10997447421E+04 -0.70855328477E+03 -0.83829964698E+03  0.18011667560E+04  0.91102641541E+03 0.  0.
         23    2    4    4    0    0  0.88120383949E+03 -0.42684857616E+02 -0.44021023309E+03  0.99027649929E+03  0.92305427369E+02 0.  0.
         23    2    4    4    0    0  0.21854090261E+03 -0.66586842716E+03 -0.39808941389E+03  0.81089025669E+03  0.89033356386E+02 0.  0.
          4    1    3    3  502    0 -0.28261017034E+03  0.22399904001E+03 -0.25757762790E+03  0.44315946645E+03  0.00000000000E+00 0. -1.
         -3    1    3    3    0  502 -0.81713457175E+03  0.48455424476E+03 -0.72244792357E+03  0.11934960104E+04  0.00000000000E+00 0.  1.
         11    1    5    5    0    0  0.15082181982E+02  0.31062642249E+01 -0.23346133553E+02  0.27967177953E+02  0.00000000000E+00 0.  1.
        -11    1    5    5    0    0  0.86612165751E+03 -0.45791121841E+02 -0.41686409954E+03  0.96230932133E+03  0.00000000000E+00 0. -1.
          1    1    6    6  503    0  0.21822823427E+03 -0.66447948989E+03 -0.38624959105E+03  0.79896514398E+03  0.00000000000E+00 0. -1.
         -1    1    6    6    0  503  0.31266834314E+00 -0.13889372683E+01 -0.11839822841E+02  0.11925112710E+02  0.00000000000E+00 0.  1.
<mgrwt>
<rscale>  0 0.29175872E+04</rscale>
<asrwt>0</asrwt>
<pdfrwt beam="1">  1        2 0.40431903E+00 0.29175872E+04</pdfrwt>
<pdfrwt beam="2">  1       -1 0.12457669E+00 0.29175872E+04</pdfrwt>
<totfact> 0.16190121E+00</totfact>
</mgrwt>
</event>
<event>
12    6  0.9491186E-008  0.2690381E+04  0.7818608E-02  0.8338133E-01
          2   -1    0    0  501    0  0.00000000000E+00  0.00000000000E+00  0.22242820548E+04  0.22242820548E+04  0.00000000000E+00 0. -1.
         -1   -1    0    0    0  501 -0.00000000000E+00 -0.00000000000E+00 -0.81353785230E+03  0.81353785230E+03  0.00000000000E+00 0.  1.
         24    2    1    2    0    0  0.11276651456E+04  0.36553191089E+03  0.46794211358E+03  0.12768890830E+04  0.78953467956E+02 0.  0.
        254    2    1    2    0    0 -0.11276651456E+04 -0.36553191089E+03  0.94280208893E+03  0.17609308241E+04  0.89819782336E+03 0.  0.
         23    2    4    4    0    0  0.28308642271E+02  0.17123182700E+03  0.50165947382E+02  0.20221623140E+03  0.90846376703E+02 0.  0.
         23    2    4    4    0    0 -0.11559737879E+04 -0.53676373789E+03  0.89263614155E+03  0.15587145927E+04  0.91658015076E+02 0.  0.
          4    1    3    3  502    0  0.68879683550E+03  0.26341892460E+03  0.28729105160E+03  0.79143335712E+03  0.00000000000E+00 0. -1.
         -3    1    3    3    0  502  0.43886831012E+03  0.10211298629E+03  0.18065106198E+03  0.48545572588E+03  0.00000000000E+00 0.  1.
         11    1    5    5    0    0 -0.24876334213E+02  0.86234477082E+02 -0.77052666153E+00  0.89754168443E+02  0.00000000000E+00 0.  1.
        -11    1    5    5    0    0  0.53184976484E+02  0.84997349916E+02  0.50936474043E+02  0.11246206296E+03  0.00000000000E+00 0. -1.
          1    1    6    6  503    0 -0.22662618423E+03 -0.88529222555E+02  0.21140267223E+03  0.32231652215E+03  0.00000000000E+00 0.  1.
         -1    1    6    6    0  503 -0.92934760366E+03 -0.44823451533E+03  0.68123346932E+03  0.12363980706E+04  0.00000000000E+00 0. -1.
<mgrwt>
<rscale>  0 0.26903811E+04</rscale>
<asrwt>0</asrwt>
<pdfrwt beam="1">  1        2 0.34219724E+00 0.26903811E+04</pdfrwt>
<pdfrwt beam="2">  1       -1 0.12515967E+00 0.26903811E+04</pdfrwt>
<totfact> 0.27868886E+00</totfact>
</mgrwt>
</event>
<event>
12    6  0.9491186E-008  0.1566182E+04  0.7818608E-02  0.8841597E-01
         -1   -1    0    0    0  501 -0.00000000000E+00  0.00000000000E+00  0.14722362329E+04  0.14722362329E+04  0.00000000000E+00 0.  1.
          2   -1    0    0  501    0  0.00000000000E+00 -0.00000000000E+00 -0.41653080698E+03  0.41653080698E+03  0.00000000000E+00 0. -1.
         24    2    1    2    0    0 -0.73870247167E+02 -0.50400970784E+03  0.25902255947E+03  0.57690165185E+03  0.78995130086E+02 0.  0.
        254    2    1    2    0    0  0.73870247167E+02  0.50400970784E+03  0.79668286646E+03  0.13118653880E+04  0.90928796737E+03 0.  0.
         23    2    4    4    0    0  0.37419885529E+03  0.49603490993E+03  0.23766921856E+03  0.67130419577E+03  0.89929142236E+02 0.  0.
         23    2    4    4    0    0 -0.30032860813E+03  0.79747979085E+01  0.55901364789E+03  0.64056119227E+03  0.86956956319E+02 0.  0.
          2    1    3    3  502    0 -0.90502860604E+02 -0.42723116450E+03  0.21351101279E+03  0.48611129207E+03  0.00000000000E+00 0. -1.
         -1    1    3    3    0  502  0.16632613437E+02 -0.76778543345E+02  0.45511546672E+02  0.90790359777E+02  0.00000000000E+00 0.  1.
         11    1    5    5    0    0  0.36438335681E+03  0.47084311126E+03  0.24417145447E+03  0.64349682619E+03  0.00000000000E+00 0. -1.
        -11    1    5    5    0    0  0.98154984814E+01  0.25191798671E+02 -0.65022359037E+01  0.27807369571E+02  0.00000000000E+00 0.  1.
          1    1    6    6  503    0 -0.29505780425E+03  0.22652582010E+02  0.54168691528E+03  0.61724951316E+03  0.00000000000E+00 0. -1.
         -1    1    6    6    0  503 -0.52708038817E+01 -0.14677784101E+02  0.17326732614E+02  0.23311679106E+02  0.00000000000E+00 0.  1.
<mgrwt>
<rscale>  0 0.15661823E+04</rscale>
<asrwt>0</asrwt>
<pdfrwt beam="1">  1        2 0.64081664E-01 0.15661823E+04</pdfrwt>
<pdfrwt beam="2">  1       -1 0.22649788E+00 0.15661823E+04</pdfrwt>
<totfact> 0.83178320E+00</totfact>
</mgrwt>
</event>
<event>
12    6  0.9491186E-008  0.1435957E+04  0.7818608E-02  0.8928195E-01
          2   -1    0    0  501    0  0.00000000000E+00  0.00000000000E+00  0.15444714424E+04  0.15444714424E+04  0.00000000000E+00 0. -1.
         -1   -1    0    0    0  501 -0.00000000000E+00 -0.00000000000E+00 -0.33376663277E+03  0.33376663277E+03  0.00000000000E+00 0.  1.
         24    2    1    2    0    0  0.14932029886E+02  0.50982740296E+02 -0.19456314404E+03  0.21664198680E+03  0.79099482328E+02 0.  0.
        254    2    1    2    0    0 -0.14932029886E+02 -0.50982740296E+02  0.14052679537E+04  0.16615960884E+04  0.88504312549E+03 0.  0.
         23    2    4    4    0    0 -0.36077504114E+03 -0.25602148454E+03  0.90685199197E+03  0.10133281193E+04  0.93529199308E+02 0.  0.
         23    2    4    4    0    0  0.34584301125E+03  0.20503874425E+03  0.49841596168E+03  0.64826796908E+03  0.10091884764E+03 0.  0.
          2    1    3    3  502    0  0.21630609612E+02  0.25045318885E+02 -0.17254592139E+02  0.37321203358E+02  0.00000000000E+00 0. -1.
         -1    1    3    3    0  502 -0.66985797252E+01  0.25937421412E+02 -0.17730855190E+03  0.17932078345E+03  0.00000000000E+00 0.  1.
         11    1    5    5    0    0 -0.29953250485E+03 -0.21228578918E+03  0.81982665283E+03  0.89827652671E+03  0.00000000000E+00 0. -1.
        -11    1    5    5    0    0 -0.61242536287E+02 -0.43735695364E+02  0.87025339144E+02  0.11505159257E+03  0.00000000000E+00 0.  1.
          1    1    6    6  503    0  0.16970934533E+03  0.80159076973E+02  0.15892552481E+03  0.24593507669E+03  0.00000000000E+00 0. -1.
         -1    1    6    6    0  503  0.17613366592E+03  0.12487966727E+03  0.33949043687E+03  0.40233289239E+03  0.00000000000E+00 0.  1.
<mgrwt>
<rscale>  0 0.14359569E+04</rscale>
<asrwt>0</asrwt>
<pdfrwt beam="1">  1        2 0.23761099E+00 0.14359569E+04</pdfrwt>
<pdfrwt beam="2">  1       -1 0.51348714E-01 0.14359569E+04</pdfrwt>
<totfact> 0.50552318E+01</totfact>
</mgrwt>
</event>
<event>
12    6  0.9491186E-008  0.1554994E+04  0.7818608E-02  0.8848684E-01
         -1   -1    0    0    0  501 -0.00000000000E+00  0.00000000000E+00  0.24919237943E+03  0.24919237943E+03  0.00000000000E+00 0.  1.
          2   -1    0    0  501    0  0.00000000000E+00 -0.00000000000E+00 -0.24258416637E+04  0.24258416637E+04  0.00000000000E+00 0. -1.
         24    2    1    2    0    0 -0.38532035113E+02 -0.26855994122E+03  0.25233164232E+02  0.28591622229E+03  0.86615320995E+02 0.  0.
        254    2    1    2    0    0  0.38532035113E+02  0.26855994122E+03 -0.22018824485E+04  0.23891178208E+04  0.88655991626E+03 0.  0.
         23    2    4    4    0    0 -0.14610466225E+03  0.35694166120E+03 -0.36007219860E+03  0.53378841088E+03  0.80772257352E+02 0.  0.
         23    2    4    4    0    0  0.18463669737E+03 -0.88381719978E+02 -0.18418102499E+04  0.18553294100E+04  0.89889845842E+02 0.  0.
          4    1    3    3  502    0 -0.25950671211E+00 -0.13016129508E+02  0.24246351393E+02  0.27520402013E+02  0.00000000000E+00 0. -1.
         -3    1    3    3    0  502 -0.38272528401E+02 -0.25554381172E+03  0.98681283845E+00  0.25839582028E+03  0.00000000000E+00 0.  1.
         11    1    5    5    0    0 -0.49572030484E+02  0.45448373170E+02 -0.73900375850E+02  0.99921000700E+02  0.00000000000E+00 0. -1.
        -11    1    5    5    0    0 -0.96532631769E+02  0.31149328803E+03 -0.28617182275E+03  0.43386741018E+03  0.00000000000E+00 0.  1.
          3    1    6    6  503    0  0.87147925684E+02 -0.50061742481E+02 -0.53719765532E+03  0.54651830701E+03  0.00000000000E+00 0. -1.
         -3    1    6    6    0  503  0.97488771682E+02 -0.38319977498E+02 -0.13046125946E+04  0.13088111030E+04  0.00000000000E+00 0.  1.
<mgrwt>
<rscale>  0 0.15549936E+04</rscale>
<asrwt>0</asrwt>
<pdfrwt beam="1">  1        2 0.37320640E+00 0.15549936E+04</pdfrwt>
<pdfrwt beam="2">  1       -1 0.38337291E-01 0.15549936E+04</pdfrwt>
<totfact> 0.27765406E+01</totfact>
</mgrwt>
</event>
<event>
12    6  0.9491186E-008  0.1347384E+04  0.7818608E-02  0.8992811E-01
          2   -1    0    0  501    0  0.00000000000E+00  0.00000000000E+00  0.10734871752E+04  0.10734871752E+04  0.00000000000E+00 0. -1.
         -1   -1    0    0    0  501 -0.00000000000E+00 -0.00000000000E+00 -0.42279094287E+03  0.42279094287E+03  0.00000000000E+00 0.  1.
         24    2    1    2    0    0  0.19752287810E+03 -0.17794074426E+03 -0.10117733935E+03  0.29528615789E+03  0.79239290797E+02 0.  0.
        254    2    1    2    0    0 -0.19752287810E+03  0.17794074426E+03  0.75187357163E+03  0.12009919601E+04  0.89799199593E+03 0.  0.
         23    2    4    4    0    0 -0.41679991859E+03  0.20355329193E+03  0.82577045300E+03  0.95128348534E+03  0.88810549152E+02 0.  0.
         23    2    4    4    0    0  0.21927704049E+03 -0.25612547666E+02 -0.73896881367E+02  0.24970847480E+03  0.90305870377E+02 0.  0.
          4    1    3    3  502    0  0.66714825476E+02 -0.31323570011E+02  0.12311194356E+01  0.73712615145E+02  0.00000000000E+00 0. -1.
         -3    1    3    3    0  502  0.13080805262E+03 -0.14661717425E+03 -0.10240845878E+03  0.22157354275E+03  0.00000000000E+00 0.  1.
         11    1    5    5    0    0 -0.26564308001E+03  0.15910760185E+03  0.61023858760E+03  0.68430447078E+03  0.00000000000E+00 0.  1.
        -11    1    5    5    0    0 -0.15115683858E+03  0.44445690074E+02  0.21553186540E+03  0.26697901456E+03  0.00000000000E+00 0. -1.
          4    1    6    6  503    0  0.72848337437E+02 -0.35786013242E+01  0.18400717773E+02  0.75221493400E+02  0.00000000000E+00 0. -1.
         -4    1    6    6    0  503  0.14642870306E+03 -0.22033946341E+02 -0.92297599141E+02  0.17448698140E+03  0.00000000000E+00 0.  1.
<mgrwt>
<rscale>  0 0.13473836E+04</rscale>
<asrwt>0</asrwt>
<pdfrwt beam="1">  1        2 0.16515187E+00 0.13473836E+04</pdfrwt>
<pdfrwt beam="2">  1       -1 0.65044761E-01 0.13473836E+04</pdfrwt>
<totfact> 0.60427113E+01</totfact>
</mgrwt>
</event>
<event>
12    6  0.9491186E-008  0.3799879E+04  0.7818608E-02  0.8046181E-01
          2   -1    0    0  501    0  0.00000000000E+00  0.00000000000E+00  0.21413182756E+04  0.21413182756E+04  0.00000000000E+00 0. -1.
         -1   -1    0    0    0  501 -0.00000000000E+00 -0.00000000000E+00 -0.16857699247E+04  0.16857699247E+04  0.00000000000E+00 0.  1.
         24    2    1    2    0    0  0.65466923278E+03 -0.16244637664E+04 -0.12822929899E+03  0.17569537422E+04  0.54491891074E+02 0.  0.
        254    2    1    2    0    0 -0.65466923278E+03  0.16244637664E+04  0.58377764983E+03  0.20701344581E+04  0.93658208264E+03 0.  0.
         23    2    4    4    0    0 -0.57783263499E+03  0.36391944118E+03  0.33612148800E+02  0.68969562833E+03  0.90677281946E+02 0.  0.
         23    2    4    4    0    0 -0.76836597788E+02  0.12605443252E+04  0.55016550103E+03  0.13804388298E+04  0.89740880494E+02 0.  0.
          2    1    3    3  502    0  0.31186982259E+03 -0.70351777146E+03 -0.62660874175E+02  0.77209223941E+03  0.00000000000E+00 0. -1.
         -1    1    3    3    0  502  0.34279941019E+03 -0.92094599496E+03 -0.65568424812E+02  0.98486150275E+03  0.00000000000E+00 0.  1.
         11    1    5    5    0    0 -0.53460991836E+03  0.33625929828E+03  0.55301801170E+02  0.63398451850E+03  0.00000000000E+00 0.  1.
        -11    1    5    5    0    0 -0.43222716628E+02  0.27660142900E+02 -0.21689652370E+02  0.55711109825E+02  0.00000000000E+00 0. -1.
          1    1    6    6  503    0 -0.59240364579E+02  0.47162790912E+03  0.17315798362E+03  0.50589128551E+03  0.00000000000E+00 0. -1.
         -1    1    6    6    0  503 -0.17596233209E+02  0.78891641612E+03  0.37700751740E+03  0.87454754429E+03  0.00000000000E+00 0.  1.
<mgrwt>
<rscale>  0 0.37998789E+04</rscale>
<asrwt>0</asrwt>
<pdfrwt beam="1">  1        2 0.32943358E+00 0.37998789E+04</pdfrwt>
<pdfrwt beam="2">  1       -1 0.25934922E+00 0.37998789E+04</pdfrwt>
<totfact> 0.30781551E-01</totfact>
</mgrwt>
</event>
<event>
12    6  0.9491186E-008  0.2449550E+04  0.7818608E-02  0.8421182E-01
          2   -1    0    0  501    0  0.00000000000E+00  0.00000000000E+00  0.15512621956E+04  0.15512621956E+04  0.00000000000E+00 0. -1.
         -1   -1    0    0    0  501 -0.00000000000E+00 -0.00000000000E+00 -0.96700230993E+03  0.96700230993E+03  0.00000000000E+00 0.  1.
         24    2    1    2    0    0 -0.53400666990E+03 -0.89213140810E+03  0.49420400546E+03  0.11538746217E+04  0.78278162511E+02 0.  0.
        254    2    1    2    0    0  0.53400666990E+03  0.89213140810E+03  0.90055880204E+02  0.13643898838E+04  0.87885614339E+03 0.  0.
         23    2    4    4    0    0  0.47134705232E+03  0.19107581998E+02 -0.36987238541E+01  0.47936277669E+03  0.85099046367E+02 0.  0.
         23    2    4    4    0    0  0.62659617577E+02  0.87302382610E+03  0.93754604058E+02  0.88502710716E+03  0.91576339812E+02 0.  0.
          4    1    3    3  502    0 -0.53188749895E+03 -0.89334906571E+03  0.49468094997E+03  0.11513844306E+04  0.00000000000E+00 0. -1.
         -3    1    3    3    0  502 -0.21191709493E+01  0.12176576131E+01 -0.47694451012E+00  0.24901910852E+01  0.00000000000E+00 0.  1.
         11    1    5    5    0    0  0.43997156853E+03  0.39022536175E+02 -0.92067642846E+01  0.44179464002E+03  0.00000000000E+00 0.  1.
        -11    1    5    5    0    0  0.31375483792E+02 -0.19914954177E+02  0.55080404305E+01  0.37568136665E+02  0.00000000000E+00 0. -1.
          2    1    6    6  503    0  0.47036530061E+01  0.16819519339E+03  0.53957802144E+02  0.17670085411E+03  0.00000000000E+00 0. -1.
         -2    1    6    6    0  503  0.57955964571E+02  0.70482863271E+03  0.39796801914E+02  0.70832625305E+03  0.00000000000E+00 0.  1.
<mgrwt>
<rscale>  0 0.24495503E+04</rscale>
<asrwt>0</asrwt>
<pdfrwt beam="1">  1        2 0.23865572E+00 0.24495503E+04</pdfrwt>
<pdfrwt beam="2">  1       -1 0.14876959E+00 0.24495503E+04</pdfrwt>
<totfact> 0.43216424E+00</totfact>
</mgrwt>
</event>
<event>
12    6  0.9491186E-008  0.1048723E+04  0.7818608E-02  0.9256663E-01
          2   -1    0    0  501    0  0.00000000000E+00  0.00000000000E+00  0.31653105755E+04  0.31653105755E+04  0.00000000000E+00 0. -1.
         -1   -1    0    0    0  501 -0.00000000000E+00 -0.00000000000E+00 -0.86865111487E+02  0.86865111487E+02  0.00000000000E+00 0.  1.
         24    2    1    2    0    0 -0.65297737260E+02  0.94401721486E+02  0.33593908067E+03  0.36409661365E+03  0.80844286398E+02 0.  0.
        254    2    1    2    0    0  0.65297737260E+02 -0.94401721486E+02  0.27425063833E+04  0.28880790733E+04  0.89804453766E+03 0.  0.
         23    2    4    4    0    0  0.40201154767E+03  0.13176005469E+03  0.19013708139E+04  0.19497761304E+04  0.86266969911E+02 0.  0.
         23    2    4    4    0    0 -0.33671381041E+03 -0.22616177618E+03  0.84113556939E+03  0.93830294292E+03  0.91531565417E+02 0.  0.
          2    1    3    3  502    0 -0.19159414681E+02  0.43548816412E+02  0.24801736827E+03  0.25253949700E+03  0.00000000000E+00 0. -1.
         -1    1    3    3    0  502 -0.46138322579E+02  0.50852905074E+02  0.87921712396E+02  0.11155711665E+03  0.00000000000E+00 0.  1.
         11    1    5    5    0    0  0.37970052091E+03  0.12378635633E+03  0.18571742042E+04  0.18996293250E+04  0.00000000000E+00 0.  1.
        -11    1    5    5    0    0  0.22311026766E+02  0.79736983671E+01  0.44196609743E+02  0.50146805420E+02  0.00000000000E+00 0. -1.
          1    1    6    6  503    0 -0.21781124218E+03 -0.95007926742E+02  0.51629695718E+03  0.56835797818E+03  0.00000000000E+00 0. -1.
         -1    1    6    6    0  503 -0.11890256823E+03 -0.13115384944E+03  0.32483861221E+03  0.36994496474E+03  0.00000000000E+00 0.  1.
<mgrwt>
<rscale>  0 0.10487231E+04</rscale>
<asrwt>0</asrwt>
<pdfrwt beam="1">  1        2 0.48697077E+00 0.10487231E+04</pdfrwt>
<pdfrwt beam="2">  1       -1 0.13363866E-01 0.10487231E+04</pdfrwt>
<totfact> 0.63083090E+01</totfact>
</mgrwt>
</event>
<event>
12    6  0.9491186E-008  0.2163337E+04  0.7818608E-02  0.8533845E-01
          2   -1    0    0  501    0  0.00000000000E+00  0.00000000000E+00  0.26744517395E+04  0.26744517395E+04  0.00000000000E+00 0. -1.
         -1   -1    0    0    0  501 -0.00000000000E+00 -0.00000000000E+00 -0.43747554205E+03  0.43747554205E+03  0.00000000000E+00 0.  1.
         24    2    1    2    0    0  0.61759264316E+03 -0.15415288993E+03  0.27751713087E+02  0.64226301666E+03  0.80918716152E+02 0.  0.
        254    2    1    2    0    0 -0.61759264316E+03  0.15415288993E+03  0.22092244844E+04  0.24696642649E+04  0.90187857976E+03 0.  0.
         23    2    4    4    0    0  0.15158134655E+03 -0.10325052379E+03  0.14855633851E+03  0.25316149691E+03  0.91565181821E+02 0.  0.
         23    2    4    4    0    0 -0.76917398972E+03  0.25740341371E+03  0.20606681459E+04  0.22165027680E+04  0.92984779911E+02 0.  0.
          4    1    3    3  502    0  0.40337931414E+03 -0.10418217257E+03 -0.20303545803E+02  0.41711033328E+03  0.00000000000E+00 0. -1.
         -3    1    3    3    0  502  0.21421332903E+03 -0.49970717356E+02  0.48055258890E+02  0.22515268338E+03  0.00000000000E+00 0.  1.
         11    1    5    5    0    0  0.94184945584E+02 -0.12647346859E+02  0.90379696820E+02  0.13114590712E+03  0.00000000000E+00 0.  1.
        -11    1    5    5    0    0  0.57396400970E+02 -0.90603176928E+02  0.58176641688E+02  0.12201558979E+03  0.00000000000E+00 0. -1.
          4    1    6    6  503    0 -0.73833246508E+03  0.25559119559E+03  0.20167293693E+04  0.21627896423E+04  0.00000000000E+00 0. -1.
         -4    1    6    6    0  503 -0.30841524635E+02  0.18122181244E+01  0.43938776630E+02  0.53713125659E+02  0.00000000000E+00 0.  1.
<mgrwt>
<rscale>  0 0.21633374E+04</rscale>
<asrwt>0</asrwt>
<pdfrwt beam="1">  1        2 0.41145410E+00 0.21633374E+04</pdfrwt>
<pdfrwt beam="2">  1       -1 0.67303931E-01 0.21633374E+04</pdfrwt>
<totfact> 0.64186213E+00</totfact>
</mgrwt>
</event>
<event>
12    6  0.9491186E-008  0.2006648E+04  0.7818608E-02  0.8603519E-01
          4   -1    0    0  501    0  0.00000000000E+00  0.00000000000E+00  0.22421092338E+04  0.22421092338E+04  0.00000000000E+00 0. -1.
         -3   -1    0    0    0  501 -0.00000000000E+00 -0.00000000000E+00 -0.44897874336E+03  0.44897874336E+03  0.00000000000E+00 0.  1.
         24    2    1    2    0    0 -0.41251218091E+03  0.65058816342E+03  0.42355755985E+03  0.88255914357E+03  0.77963950625E+02 0.  0.
        254    2    1    2    0    0  0.41251218091E+03 -0.65058816342E+03  0.13695729306E+04  0.18085288336E+04  0.89532970016E+03 0.  0.
         23    2    4    4    0    0  0.63540763673E+03 -0.62706567643E+03  0.85352297559E+03  0.12385286022E+04  0.92181349939E+02 0.  0.
         23    2    4    4    0    0 -0.22289545581E+03 -0.23522486994E+02  0.51604995504E+03  0.57000023143E+03  0.91416716787E+02 0.  0.
          2    1    3    3  502    0 -0.78268373595E+02  0.11253537028E+03  0.11012676084E+03  0.17583529601E+03  0.00000000000E+00 0. -1.
         -1    1    3    3    0  502 -0.33424380732E+03  0.53805279314E+03  0.31343079902E+03  0.70672384756E+03  0.00000000000E+00 0.  1.
         11    1    5    5    0    0  0.38553536015E+03 -0.42106196178E+03  0.59023665960E+03  0.82116381065E+03  0.00000000000E+00 0. -1.
        -11    1    5    5    0    0  0.24987227658E+03 -0.20600371464E+03  0.26328631600E+03  0.41736479157E+03  0.00000000000E+00 0.  1.
          4    1    6    6  503    0 -0.20102337995E+03 -0.45789716501E+02  0.40240508691E+03  0.45214704621E+03  0.00000000000E+00 0. -1.
         -4    1    6    6    0  503 -0.21872075858E+02  0.22267229507E+02  0.11364486813E+03  0.11785318521E+03  0.00000000000E+00 0.  1.
<mgrwt>
<rscale>  0 0.20066483E+04</rscale>
<asrwt>0</asrwt>
<pdfrwt beam="1">  1        4 0.34493988E+00 0.20066483E+04</pdfrwt>
<pdfrwt beam="2">  1       -3 0.69073654E-01 0.20066483E+04</pdfrwt>
<totfact> 0.68240753E-02</totfact>
</mgrwt>
</event>
<event>
12    6  0.9491186E-008  0.1585607E+04  0.7818608E-02  0.8829440E-01
         -1   -1    0    0    0  501 -0.00000000000E+00  0.00000000000E+00  0.21608168136E+03  0.21608168136E+03  0.00000000000E+00 0.  1.
          2   -1    0    0  501    0  0.00000000000E+00 -0.00000000000E+00 -0.29087937443E+04  0.29087937443E+04  0.00000000000E+00 0. -1.
         24    2    1    2    0    0  0.30440241577E+03 -0.42226098097E+03 -0.74096244978E+03  0.90887337794E+03  0.77847918250E+02 0.  0.
        254    2    1    2    0    0 -0.30440241577E+03  0.42226098097E+03 -0.19517496131E+04  0.22160020477E+04  0.91124824072E+03 0.  0.
         23    2    4    4    0    0  0.12301530448E+03  0.49133804013E+03 -0.58342176621E+03  0.77790552986E+03  0.90610271387E+02 0.  0.
         23    2    4    4    0    0 -0.42741772024E+03 -0.69077059160E+02 -0.13683278469E+04  0.14380965178E+04  0.91339751798E+02 0.  0.
          2    1    3    3  502    0  0.86930896992E+01 -0.46479600950E+02 -0.52705025025E+02  0.70807787537E+02  0.00000000000E+00 0. -1.
         -1    1    3    3    0  502  0.29570932607E+03 -0.37578138002E+03 -0.68825742475E+03  0.83806559040E+03  0.00000000000E+00 0.  1.
         11    1    5    5    0    0 -0.74234990091E+01  0.42365756520E+02 -0.25563779293E+02  0.50034712698E+02  0.00000000000E+00 0. -1.
        -11    1    5    5    0    0  0.13043880348E+03  0.44897228361E+03 -0.55785798692E+03  0.72787081716E+03  0.00000000000E+00 0.  1.
          4    1    6    6  503    0 -0.11947118092E+03  0.92408510392E+01 -0.47714232634E+03  0.49195889664E+03  0.00000000000E+00 0. -1.
         -4    1    6    6    0  503 -0.30794653932E+03 -0.78317910199E+02 -0.89118552057E+03  0.94613762118E+03  0.00000000000E+00 0.  1.
<mgrwt>
<rscale>  0 0.15856066E+04</rscale>
<asrwt>0</asrwt>
<pdfrwt beam="1">  1        2 0.44750669E+00 0.15856066E+04</pdfrwt>
<pdfrwt beam="2">  1       -1 0.33243339E-01 0.15856066E+04</pdfrwt>
<totfact> 0.18552268E+01</totfact>
</mgrwt>
</event>
<event>
12    6  0.9491186E-008  0.1303907E+04  0.7818608E-02  0.9026473E-01
         -1   -1    0    0    0  501 -0.00000000000E+00  0.00000000000E+00  0.20409435658E+03  0.20409435658E+03  0.00000000000E+00 0.  1.
          2   -1    0    0  501    0  0.00000000000E+00 -0.00000000000E+00 -0.20825822696E+04  0.20825822696E+04  0.00000000000E+00 0. -1.
         24    2    1    2    0    0  0.31544376146E+03 -0.14509844214E+02 -0.30703140132E+03  0.44766588388E+03  0.80132140684E+02 0.  0.
        254    2    1    2    0    0 -0.31544376146E+03  0.14509844214E+02 -0.15714565117E+04  0.18390107423E+04  0.90153737574E+03 0.  0.
         23    2    4    4    0    0 -0.56302354800E+03 -0.16867517871E+02 -0.14215981434E+04  0.15317925088E+04  0.90371343710E+02 0.  0.
         23    2    4    4    0    0  0.24757978654E+03  0.31377362085E+02 -0.14985836823E+03  0.30721823348E+03  0.98210095726E+02 0.  0.
          2    1    3    3  502    0  0.64650640466E+02  0.28288698796E+02 -0.80023369403E+02  0.10669440212E+03  0.00000000000E+00 0. -1.
         -1    1    3    3    0  502  0.25079312100E+03 -0.42798543010E+02 -0.22700803191E+03  0.34097148176E+03  0.00000000000E+00 0.  1.
         11    1    5    5    0    0 -0.12752990694E+03 -0.90511251635E+00 -0.43333402074E+03  0.45171126831E+03  0.00000000000E+00 0. -1.
        -11    1    5    5    0    0 -0.43549364106E+03 -0.15962405355E+02 -0.98826412270E+03  0.10800812405E+04  0.00000000000E+00 0.  1.
          2    1    6    6  503    0  0.13640999160E+03  0.50177601992E+02 -0.42255111248E+02  0.15136370759E+03  0.00000000000E+00 0. -1.
         -2    1    6    6    0  503  0.11116979493E+03 -0.18800239907E+02 -0.10760325698E+03  0.15585452589E+03  0.00000000000E+00 0.  1.
<mgrwt>
<rscale>  0 0.13039069E+04</rscale>
<asrwt>0</asrwt>
<pdfrwt beam="1">  1        2 0.32039728E+00 0.13039069E+04</pdfrwt>
<pdfrwt beam="2">  1       -1 0.31399131E-01 0.13039069E+04</pdfrwt>
<totfact> 0.63239471E+01</totfact>
</mgrwt>
</event>
<event>
12    6  0.9491186E-008  0.2255545E+04  0.7818608E-02  0.8495658E-01
          2   -1    0    0  501    0  0.00000000000E+00  0.00000000000E+00  0.16789017356E+04  0.16789017356E+04  0.00000000000E+00 0. -1.
         -1   -1    0    0    0  501 -0.00000000000E+00 -0.00000000000E+00 -0.75756147522E+03  0.75756147522E+03  0.00000000000E+00 0.  1.
         24    2    1    2    0    0  0.93243118476E+03  0.10710626305E+03  0.29034311625E+03  0.98560801334E+03  0.78894644358E+02 0.  0.
        254    2    1    2    0    0 -0.93243118476E+03 -0.10710626305E+03  0.63099714413E+03  0.14508551975E+04  0.90880346737E+03 0.  0.
         23    2    4    4    0    0 -0.38586980393E+02 -0.23800655760E+02  0.53393825027E+03  0.54343245284E+03  0.90406578494E+02 0.  0.
         23    2    4    4    0    0 -0.89384420436E+03 -0.83305607286E+02  0.97058893868E+02  0.90742274465E+03  0.89990681504E+02 0.  0.
          2    1    3    3  502    0  0.68313845539E+02 -0.10524820896E+02  0.11814222128E+02  0.70122244628E+02  0.00000000000E+00 0. -1.
         -1    1    3    3    0  502  0.86411733922E+03  0.11763108394E+03  0.27852889413E+03  0.91548576871E+03  0.00000000000E+00 0.  1.
         11    1    5    5    0    0 -0.44780052945E+02  0.62581033551E+01  0.11804256407E+03  0.12640594896E+03  0.00000000000E+00 0. -1.
        -11    1    5    5    0    0  0.61930725524E+01 -0.30058759115E+02  0.41589568619E+03  0.41702650388E+03  0.00000000000E+00 0.  1.
          2    1    6    6  503    0 -0.15539692127E+03  0.19310425295E+02  0.12222973700E+02  0.15706844608E+03  0.00000000000E+00 0. -1.
         -2    1    6    6    0  503 -0.73844728309E+03 -0.10261603258E+03  0.84835920168E+02  0.75035429858E+03  0.00000000000E+00 0.  1.
<mgrwt>
<rscale>  0 0.22555454E+04</rscale>
<asrwt>0</asrwt>
<pdfrwt beam="1">  1        2 0.25829257E+00 0.22555454E+04</pdfrwt>
<pdfrwt beam="2">  1       -1 0.11654792E+00 0.22555454E+04</pdfrwt>
<totfact> 0.69391051E+00</totfact>
</mgrwt>
</event>
<event>
12    6  0.9491186E-008  0.2431723E+04  0.7818608E-02  0.8427722E-01
          2   -1    0    0  501    0  0.00000000000E+00  0.00000000000E+00  0.16173124739E+04  0.16173124739E+04  0.00000000000E+00 0. -1.
         -1   -1    0    0    0  501 -0.00000000000E+00 -0.00000000000E+00 -0.91405917855E+03  0.91405917855E+03  0.00000000000E+00 0.  1.
         24    2    1    2    0    0  0.38276929337E+03  0.90777779616E+02  0.13198869568E+04  0.13796819643E+04  0.81656639072E+02 0.  0.
        254    2    1    2    0    0 -0.38276929337E+03 -0.90777779616E+02 -0.61663366144E+03  0.11516896881E+04  0.88960616462E+03 0.  0.
         23    2    4    4    0    0  0.11665109729E+03  0.25893035760E+03 -0.39888147825E+03  0.49800793480E+03  0.90846358456E+02 0.  0.
         23    2    4    4    0    0 -0.49942039066E+03 -0.34970813722E+03 -0.21775218320E+03  0.65368175335E+03  0.90373190291E+02 0.  0.
          4    1    3    3  502    0  0.24834223297E+03  0.80853929738E+02  0.75360853054E+03  0.79758199574E+03  0.00000000000E+00 0. -1.
         -3    1    3    3    0  502  0.13442706040E+03  0.99238498784E+01  0.56627842623E+03  0.58209996854E+03  0.00000000000E+00 0.  1.
         11    1    5    5    0    0  0.17288487836E+02  0.78058329173E+02 -0.55291804726E+02  0.97206883680E+02  0.00000000000E+00 0.  1.
        -11    1    5    5    0    0  0.99362609456E+02  0.18087202843E+03 -0.34358967352E+03  0.40080105112E+03  0.00000000000E+00 0. -1.
          2    1    6    6  503    0 -0.16966769201E+03 -0.13563867031E+03 -0.34566146528E+02  0.21995407039E+03  0.00000000000E+00 0. -1.
         -2    1    6    6    0  503 -0.32975269866E+03 -0.21406946691E+03 -0.18318603667E+03  0.43372768296E+03  0.00000000000E+00 0.  1.
<mgrwt>
<rscale>  0 0.24317231E+04</rscale>
<asrwt>0</asrwt>
<pdfrwt beam="1">  1        2 0.24881730E+00 0.24317231E+04</pdfrwt>
<pdfrwt beam="2">  1       -1 0.14062449E+00 0.24317231E+04</pdfrwt>
<totfact> 0.46148827E+00</totfact>
</mgrwt>
</event>
<event>
12    6  0.9491186E-008  0.1414929E+04  0.7818608E-02  0.8943082E-01
         -1   -1    0    0    0  501 -0.00000000000E+00  0.00000000000E+00  0.78337788186E+03  0.78337788186E+03  0.00000000000E+00 0.  1.
          2   -1    0    0  501    0  0.00000000000E+00 -0.00000000000E+00 -0.63890777588E+03  0.63890777588E+03  0.00000000000E+00 0. -1.
         24    2    1    2    0    0 -0.12452357261E+03 -0.16738824731E+03  0.39775707575E+03  0.46228499300E+03  0.10941562032E+03 0.  0.
        254    2    1    2    0    0  0.12452357261E+03  0.16738824731E+03 -0.25328696977E+03  0.96000066474E+03  0.90217628087E+03 0.  0.
         23    2    4    4    0    0  0.41895040219E+02  0.27643684052E+03  0.27717734794E+03  0.40450348505E+03  0.92861542155E+02 0.  0.
         23    2    4    4    0    0  0.82628532386E+02 -0.10904859321E+03 -0.53046431771E+03  0.55549717969E+03  0.92008989943E+02 0.  0.
          4    1    3    3  502    0 -0.73580349933E+01 -0.93824034932E+02  0.12520404003E+03  0.15663059040E+03  0.00000000000E+00 0. -1.
         -3    1    3    3    0  502 -0.11716553761E+03 -0.73564212381E+02  0.27255303572E+03  0.30565440260E+03  0.00000000000E+00 0.  1.
         11    1    5    5    0    0 -0.11905685452E+02  0.64208813874E+02  0.11423494040E+03  0.13158320080E+03  0.00000000000E+00 0.  1.
        -11    1    5    5    0    0  0.53800725671E+02  0.21222802665E+03  0.16294240754E+03  0.27292028425E+03  0.00000000000E+00 0. -1.
          3    1    6    6  503    0  0.95788772128E+02 -0.11168626866E+03 -0.43775035276E+03  0.46181671994E+03  0.00000000000E+00 0. -1.
         -3    1    6    6    0  503 -0.13160239742E+02  0.26376754494E+01 -0.92713964955E+02  0.93680459753E+02  0.00000000000E+00 0.  1.
<mgrwt>
<rscale>  0 0.14149293E+04</rscale>
<asrwt>0</asrwt>
<pdfrwt beam="1">  1        2 0.98293504E-01 0.14149293E+04</pdfrwt>
<pdfrwt beam="2">  1       -1 0.12051967E+00 0.14149293E+04</pdfrwt>
<totfact> 0.31263073E+01</totfact>
</mgrwt>
</event>
<event>
12    6  0.9491186E-008  0.2049456E+04  0.7818608E-02  0.8583841E-01
          2   -1    0    0  501    0  0.00000000000E+00  0.00000000000E+00  0.84494542146E+03  0.84494542146E+03  0.00000000000E+00 0. -1.
         -1   -1    0    0    0  501 -0.00000000000E+00 -0.00000000000E+00 -0.12427635237E+04  0.12427635237E+04  0.00000000000E+00 0.  1.
         24    2    1    2    0    0  0.60432914105E+03 -0.19290774638E+03  0.38247859534E+03  0.74604097474E+03  0.88657491248E+02 0.  0.
        254    2    1    2    0    0 -0.60432914105E+03  0.19290774638E+03 -0.78029669753E+03  0.13416679704E+04  0.88813450402E+03 0.  0.
         23    2    4    4    0    0 -0.46034261123E+03  0.10160533279E+03 -0.96256835869E+03  0.10755872506E+04  0.90061784873E+02 0.  0.
         23    2    4    4    0    0 -0.14398652982E+03  0.91302413594E+02  0.18227166116E+03  0.26608071980E+03  0.92237408309E+02 0.  0.
          4    1    3    3  502    0  0.58562093300E+03 -0.17525286670E+03  0.38095551593E+03  0.72027255228E+03  0.00000000000E+00 0. -1.
         -3    1    3    3    0  502  0.18708208054E+02 -0.17654879678E+02  0.15230794147E+01  0.25768422457E+02  0.00000000000E+00 0.  1.
         11    1    5    5    0    0 -0.40004091897E+03  0.11672707166E+03 -0.81200735055E+03  0.91269594250E+03  0.00000000000E+00 0. -1.
        -11    1    5    5    0    0 -0.60301692256E+02 -0.15121738872E+02 -0.15056100814E+03  0.16289130808E+03  0.00000000000E+00 0.  1.
          2    1    6    6  503    0 -0.22193713578E+02 -0.19231908684E+02  0.28322753632E+02  0.40799578519E+02  0.00000000000E+00 0. -1.
         -2    1    6    6    0  503 -0.12179281625E+03  0.11053432228E+03  0.15394890752E+03  0.22528114128E+03  0.00000000000E+00 0.  1.
<mgrwt>
<rscale>  0 0.20494559E+04</rscale>
<asrwt>0</asrwt>
<pdfrwt beam="1">  1        2 0.12999161E+00 0.20494559E+04</pdfrwt>
<pdfrwt beam="2">  1       -1 0.19119439E+00 0.20494559E+04</pdfrwt>
<totfact> 0.58554961E+00</totfact>
</mgrwt>
</event>
<event>
12    6  0.9491186E-008  0.1742233E+04  0.7818608E-02  0.8737637E-01
          2   -1    0    0  501    0  0.00000000000E+00  0.00000000000E+00  0.73126347055E+03  0.73126347055E+03  0.00000000000E+00 0. -1.
         -1   -1    0    0    0  501 -0.00000000000E+00 -0.00000000000E+00 -0.10377161213E+04  0.10377161213E+04  0.00000000000E+00 0.  1.
         24    2    1    2    0    0  0.80525882636E+02  0.35641785233E+03  0.43436662934E+03  0.57333004543E+03  0.80714738907E+02 0.  0.
        254    2    1    2    0    0 -0.80525882636E+02 -0.35641785233E+03 -0.74081928010E+03  0.11956495464E+04  0.86443422473E+03 0.  0.
         23    2    4    4    0    0  0.25146250848E+03  0.11561937919E+03 -0.46538830488E+03  0.54933253376E+03  0.92621403114E+02 0.  0.
         23    2    4    4    0    0 -0.33198839111E+03 -0.47203723151E+03 -0.27543097522E+03  0.64631701267E+03  0.93957538229E+02 0.  0.
          4    1    3    3  502    0  0.85656361652E+02  0.34424705024E+03  0.39075293119E+03  0.52776026482E+03  0.00000000000E+00 0. -1.
         -3    1    3    3    0  502 -0.51304790166E+01  0.12170802088E+02  0.43613698154E+02  0.45569780613E+02  0.00000000000E+00 0.  1.
         11    1    5    5    0    0  0.22147077079E+03  0.11132348333E+03 -0.45343013025E+03  0.51676019901E+03  0.00000000000E+00 0.  1.
        -11    1    5    5    0    0  0.29991737690E+02  0.42958958540E+01 -0.11958174623E+02  0.32572334751E+02  0.00000000000E+00 0. -1.
          1    1    6    6  503    0 -0.23722564275E+03 -0.25730164628E+03 -0.16600614874E+03  0.38734762705E+03  0.00000000000E+00 0. -1.
         -1    1    6    6    0  503 -0.94762748363E+02 -0.21473558523E+03 -0.10942482648E+03  0.25896938563E+03  0.00000000000E+00 0.  1.
<mgrwt>
<rscale>  0 0.17422329E+04</rscale>
<asrwt>0</asrwt>
<pdfrwt beam="1">  1        2 0.11250207E+00 0.17422329E+04</pdfrwt>
<pdfrwt beam="2">  1       -1 0.15964863E+00 0.17422329E+04</pdfrwt>
<totfact> 0.12337833E+01</totfact>
</mgrwt>
</event>
<event>
12    6  0.9491186E-008  0.1086140E+04  0.7818608E-02  0.9218807E-01
          2   -1    0    0  501    0  0.00000000000E+00  0.00000000000E+00  0.54166392754E+03  0.54166392754E+03  0.00000000000E+00 0. -1.
         -1   -1    0    0    0  501 -0.00000000000E+00 -0.00000000000E+00 -0.54447989269E+03  0.54447989269E+03  0.00000000000E+00 0.  1.
         24    2    1    2    0    0  0.15225284084E+03  0.12952981643E+02 -0.34432935132E+02  0.18194727573E+03  0.92576869927E+02 0.  0.
        254    2    1    2    0    0 -0.15225284084E+03 -0.12952981643E+02  0.31616969987E+02  0.90419654450E+03  0.89063070406E+03 0.  0.
         23    2    4    4    0    0 -0.36370213455E+03  0.25285420983E+03 -0.18854959224E+03  0.48968376917E+03  0.89580974251E+02 0.  0.
         23    2    4    4    0    0  0.21144929370E+03 -0.26580719148E+03  0.22016656223E+03  0.41451277533E+03  0.89349084729E+02 0.  0.
          4    1    3    3  502    0  0.14588859040E+03  0.31913495000E+01 -0.34642428772E+00  0.14592390321E+03  0.00000000000E+00 0. -1.
         -3    1    3    3    0  502  0.63642504461E+01  0.97616321426E+01 -0.34086510844E+02  0.36023372515E+02  0.00000000000E+00 0.  1.
         11    1    5    5    0    0 -0.25974772604E+03  0.19503643207E+03 -0.17766980345E+03  0.37023593839E+03  0.00000000000E+00 0. -1.
        -11    1    5    5    0    0 -0.10395440850E+03  0.57817777759E+02 -0.10879788793E+02  0.11944783077E+03  0.00000000000E+00 0.  1.
          1    1    6    6  503    0  0.36792830983E+02 -0.49154763868E+02  0.85746873579E+02  0.10546292975E+03  0.00000000000E+00 0. -1.
         -1    1    6    6    0  503  0.17465646272E+03 -0.21665242761E+03  0.13441968865E+03  0.30904984559E+03  0.00000000000E+00 0.  1.
<mgrwt>
<rscale>  0 0.10861402E+04</rscale>
<asrwt>0</asrwt>
<pdfrwt beam="1">  1        2 0.83332912E-01 0.10861402E+04</pdfrwt>
<pdfrwt beam="2">  1       -1 0.83766137E-01 0.10861402E+04</pdfrwt>
<totfact> 0.90045840E+01</totfact>
</mgrwt>
</event>
<event>
12    6  0.9491186E-008  0.1427009E+04  0.7818608E-02  0.8934497E-01
          2   -1    0    0  501    0  0.00000000000E+00  0.00000000000E+00  0.35391420551E+03  0.35391420551E+03  0.00000000000E+00 0. -1.
         -1   -1    0    0    0  501 -0.00000000000E+00 -0.00000000000E+00 -0.14384514439E+04  0.14384514439E+04  0.00000000000E+00 0.  1.
         24    2    1    2    0    0 -0.24341108402E+03  0.34279131762E+03 -0.39673470267E+03  0.58375437685E+03  0.81338213266E+02 0.  0.
        254    2    1    2    0    0  0.24341108402E+03 -0.34279131762E+03 -0.68780253574E+03  0.12086112726E+04  0.90050765501E+03 0.  0.
         23    2    4    4    0    0 -0.29101544971E+03 -0.14324200437E+03 -0.33344329918E+02  0.33552527804E+03  0.79101858897E+02 0.  0.
         23    2    4    4    0    0  0.53442653373E+03 -0.19954931325E+03 -0.65445820582E+03  0.87308599452E+03  0.92368621828E+02 0.  0.
          2    1    3    3  502    0 -0.36497977968E+02  0.23615373220E+02 -0.18219686536E+02  0.47135392494E+02  0.00000000000E+00 0. -1.
         -1    1    3    3    0  502 -0.20691310605E+03  0.31917594440E+03 -0.37851501613E+03  0.53661898436E+03  0.00000000000E+00 0.  1.
         11    1    5    5    0    0 -0.11903134354E+03 -0.94006313781E+02 -0.38760401357E+02  0.15655036407E+03  0.00000000000E+00 0.  1.
        -11    1    5    5    0    0 -0.17198410616E+03 -0.49235690586E+02  0.54160714393E+01  0.17897491397E+03  0.00000000000E+00 0. -1.
          4    1    6    6  503    0  0.11208653884E+02 -0.22488697596E+02 -0.22216023422E+02  0.33539933484E+02  0.00000000000E+00 0. -1.
         -4    1    6    6    0  503  0.52321787984E+03 -0.17706061566E+03 -0.63224218240E+03  0.83954606104E+03  0.00000000000E+00 0.  1.
<mgrwt>
<rscale>  0 0.14270086E+04</rscale>
<asrwt>0</asrwt>
<pdfrwt beam="1">  1        2 0.54448340E-01 0.14270086E+04</pdfrwt>
<pdfrwt beam="2">  1       -1 0.22130022E+00 0.14270086E+04</pdfrwt>
<totfact> 0.10947744E+01</totfact>
</mgrwt>
</event>
<event>
12    6  0.9491186E-008  0.2066973E+04  0.7818608E-02  0.8575933E-01
          2   -1    0    0  501    0  0.00000000000E+00  0.00000000000E+00  0.44764251525E+03  0.44764251525E+03  0.00000000000E+00 0. -1.
         -1   -1    0    0    0  501 -0.00000000000E+00 -0.00000000000E+00 -0.23860436510E+04  0.23860436510E+04  0.00000000000E+00 0.  1.
         24    2    1    2    0    0 -0.16554944469E+03  0.43859034455E+02  0.33396031277E+03  0.38415443568E+03  0.81944532508E+02 0.  0.
        254    2    1    2    0    0  0.16554944469E+03 -0.43859034455E+02 -0.22723614485E+04  0.24495317306E+04  0.89847031825E+03 0.  0.
         23    2    4    4    0    0  0.68340621447E+02 -0.39069315023E+03 -0.18195764259E+04  0.18644179657E+04  0.88794160466E+02 0.  0.
         23    2    4    4    0    0  0.97208823241E+02  0.34683411577E+03 -0.45278502260E+03  0.58511376485E+03  0.87180169467E+02 0.  0.
          2    1    3    3  502    0 -0.12267450007E+03 -0.75590815945E+01  0.21631699096E+03  0.24879552500E+03  0.00000000000E+00 0. -1.
         -1    1    3    3    0  502 -0.42874944614E+02  0.51418116049E+02  0.11764332181E+03  0.13535891068E+03  0.00000000000E+00 0.  1.
         11    1    5    5    0    0  0.58987889739E+02 -0.16545753852E+03 -0.94954016725E+03  0.96565122970E+03  0.00000000000E+00 0. -1.
        -11    1    5    5    0    0  0.93527317082E+01 -0.22523561171E+03 -0.87003625866E+03  0.89876673601E+03  0.00000000000E+00 0.  1.
          1    1    6    6  503    0 -0.11865922238E+02  0.18293199552E+02 -0.12844502457E+02  0.25306570368E+02  0.00000000000E+00 0. -1.
         -1    1    6    6    0  503  0.10907474548E+03  0.32854091622E+03 -0.43994052014E+03  0.55980719448E+03  0.00000000000E+00 0.  1.
<mgrwt>
<rscale>  0 0.20669732E+04</rscale>
<asrwt>0</asrwt>
<pdfrwt beam="1">  1        2 0.68868079E-01 0.20669732E+04</pdfrwt>
<pdfrwt beam="2">  1       -1 0.36708364E+00 0.20669732E+04</pdfrwt>
<totfact> 0.88419970E-01</totfact>
</mgrwt>
</event>
<event>
12    6  0.9491186E-008  0.1295579E+04  0.7818608E-02  0.9033078E-01
         -1   -1    0    0    0  501 -0.00000000000E+00  0.00000000000E+00  0.33801064584E+03  0.33801064584E+03  0.00000000000E+00 0.  1.
          2   -1    0    0  501    0  0.00000000000E+00 -0.00000000000E+00 -0.12414742617E+04  0.12414742617E+04  0.00000000000E+00 0. -1.
         24    2    1    2    0    0 -0.72540878043E+02  0.27118712098E+03 -0.28399487511E+02  0.29348179600E+03  0.80748994533E+02 0.  0.
        254    2    1    2    0    0  0.72540878043E+02 -0.27118712098E+03 -0.87506412837E+03  0.12860031116E+04  0.89958998472E+03 0.  0.
         23    2    4    4    0    0 -0.34582869875E+03 -0.31772736664E+03 -0.29085564844E+03  0.56000517464E+03  0.91981623150E+02 0.  0.
         23    2    4    4    0    0  0.41836957680E+03  0.46540245660E+02 -0.58420847993E+03  0.72599793692E+03  0.92597835454E+02 0.  0.
          2    1    3    3  502    0  0.12779408865E+02  0.59127162922E+02 -0.23359231012E+02  0.64845881593E+02  0.00000000000E+00 0. -1.
         -1    1    3    3    0  502 -0.85320286907E+02  0.21205995806E+03 -0.50402564984E+01  0.22863591441E+03  0.00000000000E+00 0.  1.
         11    1    5    5    0    0 -0.30889673053E+03 -0.26403006434E+03 -0.28108953584E+03  0.49410564879E+03  0.00000000000E+00 0. -1.
        -11    1    5    5    0    0 -0.36931968230E+02 -0.53697302302E+02 -0.97661125928E+01  0.65899525848E+02  0.00000000000E+00 0.  1.
          3    1    6    6  503    0  0.68621541101E+02  0.35139624436E+02 -0.70782460725E+02  0.10466071782E+03  0.00000000000E+00 0. -1.
         -3    1    6    6    0  503  0.34974803570E+03  0.11400621224E+02 -0.51342601921E+03  0.62133721910E+03  0.00000000000E+00 0.  1.
<mgrwt>
<rscale>  0 0.12955794E+04</rscale>
<asrwt>0</asrwt>
<pdfrwt beam="1">  1        2 0.19099604E+00 0.12955794E+04</pdfrwt>
<pdfrwt beam="2">  1       -1 0.52001637E-01 0.12955794E+04</pdfrwt>
<totfact> 0.74455755E+01</totfact>
</mgrwt>
</event>
<event>
12    6  0.9491186E-008  0.1215513E+04  0.7818608E-02  0.9099386E-01
         -1   -1    0    0    0  501 -0.00000000000E+00  0.00000000000E+00  0.39486598809E+03  0.39486598809E+03  0.00000000000E+00 0.  1.
          2   -1    0    0  501    0  0.00000000000E+00 -0.00000000000E+00 -0.93542580668E+03  0.93542580668E+03  0.00000000000E+00 0. -1.
         24    2    1    2    0    0  0.80898139355E+01  0.81747932629E+02 -0.39975802827E+03  0.41578176295E+03  0.79497318533E+02 0.  0.
        254    2    1    2    0    0 -0.80898139355E+01 -0.81747932629E+02 -0.14080179031E+03  0.91451003182E+03  0.89986403672E+03 0.  0.
         23    2    4    4    0    0 -0.38218750767E+03  0.61975693673E+01 -0.29459290971E+03  0.49071631514E+03  0.88948404196E+02 0.  0.
         23    2    4    4    0    0  0.37409769373E+03 -0.87945501996E+02  0.15379111940E+03  0.42379371668E+03  0.90917050753E+02 0.  0.
          4    1    3    3  502    0 -0.34847078592E+02  0.39426268980E+02 -0.21908813622E+03  0.22531835479E+03  0.00000000000E+00 0. -1.
         -3    1    3    3    0  502  0.42936892528E+02  0.42321663649E+02 -0.18066989205E+03  0.19046340816E+03  0.00000000000E+00 0.  1.
         11    1    5    5    0    0 -0.33255232846E+03  0.30045464329E+02 -0.22809339642E+03  0.40437653070E+03  0.00000000000E+00 0. -1.
        -11    1    5    5    0    0 -0.49635179206E+02 -0.23847894961E+02 -0.66499513288E+02  0.86339784436E+02  0.00000000000E+00 0.  1.
          3    1    6    6  503    0  0.22104220126E+03 -0.83660049864E+02  0.58601416881E+02  0.24350109803E+03  0.00000000000E+00 0. -1.
         -3    1    6    6    0  503  0.15305549247E+03 -0.42854521317E+01  0.95189702514E+02  0.18029261865E+03  0.00000000000E+00 0.  1.
<mgrwt>
<rscale>  0 0.12155128E+04</rscale>
<asrwt>0</asrwt>
<pdfrwt beam="1">  1        2 0.14391166E+00 0.12155128E+04</pdfrwt>
<pdfrwt beam="2">  1       -1 0.60748614E-01 0.12155128E+04</pdfrwt>
<totfact> 0.85803891E+01</totfact>
</mgrwt>
</event>
<event>
12    6  0.9491186E-008  0.1336538E+04  0.7818608E-02  0.9001081E-01
          2   -1    0    0  501    0  0.00000000000E+00  0.00000000000E+00  0.42553584398E+03  0.42553584398E+03  0.00000000000E+00 0. -1.
         -1   -1    0    0    0  501 -0.00000000000E+00 -0.00000000000E+00 -0.10494619185E+04  0.10494619185E+04  0.00000000000E+00 0.  1.
         24    2    1    2    0    0 -0.32559178762E+03 -0.14217094333E+03 -0.89316978003E+02  0.37497104938E+03  0.80019847680E+02 0.  0.
        254    2    1    2    0    0  0.32559178762E+03  0.14217094333E+03 -0.53460909649E+03  0.11000267131E+04  0.89332485365E+03 0.  0.
         23    2    4    4    0    0 -0.30041470977E+03  0.21705861361E+02 -0.20073339167E+03  0.37473427202E+03  0.97014111508E+02 0.  0.
         23    2    4    4    0    0  0.62600649739E+03  0.12046508197E+03 -0.33387570482E+03  0.72529244106E+03  0.90444281429E+02 0.  0.
          2    1    3    3  502    0 -0.91124242860E+02 -0.29589654951E+02  0.10496312401E+02  0.96381263174E+02  0.00000000000E+00 0. -1.
         -1    1    3    3    0  502 -0.23446754476E+03 -0.11258128838E+03 -0.99813290404E+02  0.27858978621E+03  0.00000000000E+00 0.  1.
         11    1    5    5    0    0 -0.19305578100E+03  0.60348432366E+02 -0.13200757499E+03  0.24153357473E+03  0.00000000000E+00 0. -1.
        -11    1    5    5    0    0 -0.10735892877E+03 -0.38642571005E+02 -0.68725816675E+02  0.13320069729E+03  0.00000000000E+00 0.  1.
          2    1    6    6  503    0  0.34774771851E+03  0.42756402153E+02 -0.13966807462E+03  0.37717868010E+03  0.00000000000E+00 0. -1.
         -2    1    6    6    0  503  0.27825877888E+03  0.77708679814E+02 -0.19420763020E+03  0.34811376096E+03  0.00000000000E+00 0.  1.
<mgrwt>
<rscale>  0 0.13365383E+04</rscale>
<asrwt>0</asrwt>
<pdfrwt beam="1">  1        2 0.65467054E-01 0.13365383E+04</pdfrwt>
<pdfrwt beam="2">  1       -1 0.16145568E+00 0.13365383E+04</pdfrwt>
<totfact> 0.23626002E+01</totfact>
</mgrwt>
</event>
<event>
12    6  0.9491186E-008  0.2021733E+04  0.7818608E-02  0.8596527E-01
         -1   -1    0    0    0  501 -0.00000000000E+00  0.00000000000E+00  0.72356912779E+03  0.72356912779E+03  0.00000000000E+00 0.  1.
          2   -1    0    0  501    0  0.00000000000E+00 -0.00000000000E+00 -0.14122369104E+04  0.14122369104E+04  0.00000000000E+00 0. -1.
         24    2    1    2    0    0  0.56886833785E+03  0.52948637098E+03 -0.51313659133E+03  0.93457320370E+03  0.78427730079E+02 0.  0.
        254    2    1    2    0    0 -0.56886833785E+03 -0.52948637098E+03 -0.17553119128E+03  0.12012328345E+04  0.89898949977E+03 0.  0.
         23    2    4    4    0    0  0.15578221289E+03 -0.34827641857E+03 -0.21544287835E+03  0.44765612767E+03  0.91737741554E+02 0.  0.
         23    2    4    4    0    0 -0.72465055074E+03 -0.18120995241E+03  0.39911687068E+02  0.75357670682E+03  0.91265780879E+02 0.  0.
          4    1    3    3  502    0  0.48386391824E+03  0.40892639485E+03 -0.42102465150E+03  0.76066210957E+03  0.00000000000E+00 0. -1.
         -3    1    3    3    0  502  0.85004419611E+02  0.12055997614E+03 -0.92111939840E+02  0.17391109413E+03  0.00000000000E+00 0.  1.
         11    1    5    5    0    0  0.14949218401E+03 -0.34328538732E+03 -0.18782095467E+03  0.41889077484E+03  0.00000000000E+00 0. -1.
        -11    1    5    5    0    0  0.62900288816E+01 -0.49910312508E+01 -0.27621923676E+02  0.28765352837E+02  0.00000000000E+00 0.  1.
          4    1    6    6  503    0 -0.69802427654E+03 -0.18924350067E+03  0.29321271361E+02  0.72381677940E+03  0.00000000000E+00 0. -1.
         -4    1    6    6    0  503 -0.26626274195E+02  0.80335482582E+01  0.10590415707E+02  0.29759927419E+02  0.00000000000E+00 0.  1.
<mgrwt>
<rscale>  0 0.20217329E+04</rscale>
<asrwt>0</asrwt>
<pdfrwt beam="1">  1        2 0.21726722E+00 0.20217329E+04</pdfrwt>
<pdfrwt beam="2">  1       -1 0.11131833E+00 0.20217329E+04</pdfrwt>
<totfact> 0.11165450E+01</totfact>
</mgrwt>
</event>
<event>
12    6  0.9491186E-008  0.2101423E+04  0.7818608E-02  0.8560617E-01
         -1   -1    0    0    0  501 -0.00000000000E+00  0.00000000000E+00  0.20606582304E+04  0.20606582304E+04  0.00000000000E+00 0.  1.
          2   -1    0    0  501    0  0.00000000000E+00 -0.00000000000E+00 -0.53574859087E+03  0.53574859087E+03  0.00000000000E+00 0. -1.
         24    2    1    2    0    0 -0.71106186216E+03 -0.34259856720E+03  0.22016339817E+03  0.82314954017E+03  0.78233583152E+02 0.  0.
        254    2    1    2    0    0  0.71106186216E+03  0.34259856720E+03  0.13047462413E+04  0.17732572811E+04  0.90503915967E+03 0.  0.
         23    2    4    4    0    0  0.38823126919E+03 -0.25988323320E+03  0.74938540158E+03  0.88789238892E+03  0.92258338000E+02 0.  0.
         23    2    4    4    0    0  0.32283059297E+03  0.60248180040E+03  0.55536083974E+03  0.88536489214E+03  0.90782257891E+02 0.  0.
          4    1    3    3  502    0 -0.71319962560E+03 -0.34176222901E+03  0.21933114687E+03  0.82070779155E+03  0.00000000000E+00 0. -1.
         -3    1    3    3    0  502  0.21377634402E+01 -0.83633818312E+00  0.83225130038E+00  0.24417486172E+01  0.00000000000E+00 0.  1.
         11    1    5    5    0    0  0.51122507080E+01 -0.25893494586E+02  0.30328263285E+02  0.40204623155E+02  0.00000000000E+00 0. -1.
        -11    1    5    5    0    0  0.38311901848E+03 -0.23398973862E+03  0.71905713829E+03  0.84768776577E+03  0.00000000000E+00 0.  1.
          3    1    6    6  503    0  0.77086209107E+01  0.66555904447E+02  0.67367601525E+02  0.95013183234E+02  0.00000000000E+00 0. -1.
         -3    1    6    6    0  503  0.31512197206E+03  0.53592589595E+03  0.48799323821E+03  0.79035170890E+03  0.00000000000E+00 0.  1.
<mgrwt>
<rscale>  0 0.21014231E+04</rscale>
<asrwt>0</asrwt>
<pdfrwt beam="1">  1        2 0.82422861E-01 0.21014231E+04</pdfrwt>
<pdfrwt beam="2">  1       -1 0.31702434E+00 0.21014231E+04</pdfrwt>
<totfact> 0.15306591E+00</totfact>
</mgrwt>
</event>
<event>
12    6  0.9491186E-008  0.1767857E+04  0.7818608E-02  0.8723582E-01
          2   -1    0    0  501    0  0.00000000000E+00  0.00000000000E+00  0.72259011298E+03  0.72259011298E+03  0.00000000000E+00 0. -1.
         -1   -1    0    0    0  501 -0.00000000000E+00 -0.00000000000E+00 -0.10812906225E+04  0.10812906225E+04  0.00000000000E+00 0.  1.
         24    2    1    2    0    0 -0.43075823463E+03 -0.38851274794E+03  0.16745175548E+03  0.60913455217E+03  0.80684572425E+02 0.  0.
        254    2    1    2    0    0  0.43075823463E+03  0.38851274794E+03 -0.52615226495E+03  0.11947461833E+04  0.90226793386E+03 0.  0.
         23    2    4    4    0    0  0.59394064730E+03  0.28671609032E+03 -0.44212495746E+02  0.66740682740E+03  0.92225373464E+02 0.  0.
         23    2    4    4    0    0 -0.16318241267E+03  0.10179665761E+03 -0.48193976921E+03  0.52733935586E+03  0.93966993060E+02 0.  0.
          4    1    3    3  502    0 -0.62961008973E+02 -0.68158170275E+02 -0.19325993868E+01  0.92808188036E+02  0.00000000000E+00 0. -1.
         -3    1    3    3    0  502 -0.36779722566E+03 -0.32035457766E+03  0.16938435487E+03  0.51632636414E+03  0.00000000000E+00 0.  1.
         11    1    5    5    0    0  0.44207199611E+03  0.18394588021E+03 -0.63561960336E+02  0.48301538215E+03  0.00000000000E+00 0. -1.
        -11    1    5    5    0    0  0.15186865119E+03  0.10277021011E+03  0.19349464590E+02  0.18439144525E+03  0.00000000000E+00 0.  1.
          2    1    6    6  503    0 -0.16416850046E+03  0.78093745141E+02 -0.36210505968E+03  0.40517897751E+03  0.00000000000E+00 0. -1.
         -2    1    6    6    0  503  0.98608779266E+00  0.23702912472E+02 -0.11983470953E+03  0.12216037834E+03  0.00000000000E+00 0.  1.
<mgrwt>
<rscale>  0 0.17678574E+04</rscale>
<asrwt>0</asrwt>
<pdfrwt beam="1">  1        2 0.11116771E+00 0.17678574E+04</pdfrwt>
<pdfrwt beam="2">  1       -1 0.16635240E+00 0.17678574E+04</pdfrwt>
<totfact> 0.11133465E+01</totfact>
</mgrwt>
</event>
<event>
12    6  0.9491186E-008  0.1080715E+04  0.7818608E-02  0.9224195E-01
          2   -1    0    0  501    0  0.00000000000E+00  0.00000000000E+00  0.23397125133E+04  0.23397125133E+04  0.00000000000E+00 0. -1.
         -1   -1    0    0    0  501 -0.00000000000E+00 -0.00000000000E+00 -0.12479579894E+03  0.12479579894E+03  0.00000000000E+00 0.  1.
         24    2    1    2    0    0  0.21760183330E+02 -0.10690327387E+03  0.11724365538E+03  0.17696340335E+03  0.75287155986E+02 0.  0.
        254    2    1    2    0    0 -0.21760183330E+02  0.10690327387E+03  0.20976730590E+04  0.22875449089E+04  0.90594019243E+03 0.  0.
         23    2    4    4    0    0 -0.42673643640E+03  0.20736333105E+03  0.10312413514E+04  0.11387989937E+04  0.91109198857E+02 0.  0.
         23    2    4    4    0    0  0.40497625307E+03 -0.10046005719E+03  0.10664317077E+04  0.11487459152E+04  0.90788776629E+02 0.  0.
          2    1    3    3  502    0  0.22872134249E+02 -0.43242760531E+02  0.99486880279E+02  0.11086347555E+03  0.00000000000E+00 0. -1.
         -1    1    3    3    0  502 -0.11119509192E+01 -0.63660513334E+02  0.17756775096E+02  0.66099927796E+02  0.00000000000E+00 0.  1.
         11    1    5    5    0    0 -0.34924028857E+03  0.19729073282E+03  0.80415506492E+03  0.89864218733E+03  0.00000000000E+00 0.  1.
        -11    1    5    5    0    0 -0.77496147830E+02  0.10072598238E+02  0.22708628644E+03  0.24015680638E+03  0.00000000000E+00 0. -1.
          3    1    6    6  503    0  0.62518348661E+02 -0.46072234077E+02  0.15008243755E+03  0.16898500742E+03  0.00000000000E+00 0. -1.
         -3    1    6    6    0  503  0.34245790441E+03 -0.54387823111E+02  0.91634927010E+03  0.97976090778E+03  0.00000000000E+00 0.  1.
<mgrwt>
<rscale>  0 0.10807151E+04</rscale>
<asrwt>0</asrwt>
<pdfrwt beam="1">  1        2 0.35995574E+00 0.10807151E+04</pdfrwt>
<pdfrwt beam="2">  1       -1 0.19199355E-01 0.10807151E+04</pdfrwt>
<totfact> 0.10744832E+02</totfact>
</mgrwt>
</event>
<event>
12    6  0.9491186E-008  0.2330839E+04  0.7818608E-02  0.8465860E-01
          4   -1    0    0  501    0  0.00000000000E+00  0.00000000000E+00  0.68536219910E+03  0.68536219910E+03  0.00000000000E+00 0. -1.
         -1   -1    0    0    0  501 -0.00000000000E+00 -0.00000000000E+00 -0.19817299106E+04  0.19817299106E+04  0.00000000000E+00 0.  1.
         24    2    1    2    0    0  0.76502061722E+03 -0.31647726554E+03  0.69230414309E+02  0.83462543398E+03  0.79952238210E+02 0.  0.
        254    2    1    2    0    0 -0.76502061722E+03  0.31647726554E+03 -0.13655981258E+04  0.18324666757E+04  0.89869987874E+03 0.  0.
         23    2    4    4    0    0 -0.77651445265E+03  0.55634850132E+03 -0.10040435719E+04  0.13888494386E+04  0.91109378200E+02 0.  0.
         23    2    4    4    0    0  0.11493835428E+02 -0.23987123578E+03 -0.36155455391E+03  0.44361723710E+03  0.91674639865E+02 0.  0.
          2    1    3    3  502    0  0.66079757797E+03 -0.24380490979E+03  0.67365909181E+02  0.70755384163E+03  0.00000000000E+00 0. -1.
         -1    1    3    3    0  502  0.10422303925E+03 -0.72672355751E+02  0.18645051278E+01  0.12707159234E+03  0.00000000000E+00 0.  1.
         11    1    5    5    0    0 -0.51394233097E+03  0.31423531719E+03 -0.62521849179E+03  0.86820430580E+03  0.00000000000E+00 0.  1.
        -11    1    5    5    0    0 -0.26257212168E+03  0.24211318414E+03 -0.37882508009E+03  0.52064513281E+03  0.00000000000E+00 0. -1.
          4    1    6    6  503    0 -0.80526462734E+01 -0.32120788712E+02 -0.11965379659E+03  0.12415160578E+03  0.00000000000E+00 0. -1.
         -4    1    6    6    0  503  0.19546481702E+02 -0.20775044707E+03 -0.24190075731E+03  0.31946563132E+03  0.00000000000E+00 0.  1.
<mgrwt>
<rscale>  0 0.23308391E+04</rscale>
<asrwt>0</asrwt>
<pdfrwt beam="1">  1        4 0.10544034E+00 0.23308391E+04</pdfrwt>
<pdfrwt beam="2">  1       -1 0.30488152E+00 0.23308391E+04</pdfrwt>
<totfact> 0.84349761E-02</totfact>
</mgrwt>
</event>
<event>
12    6  0.9491186E-008  0.1853283E+04  0.7818608E-02  0.8678467E-01
         -1   -1    0    0    0  501 -0.00000000000E+00  0.00000000000E+00  0.23225809142E+03  0.23225809142E+03  0.00000000000E+00 0.  1.
          2   -1    0    0  501    0  0.00000000000E+00 -0.00000000000E+00 -0.36970254572E+04  0.36970254572E+04  0.00000000000E+00 0. -1.
         24    2    1    2    0    0  0.29090229471E+03 -0.63070720855E+03 -0.10775582624E+04  0.12843492608E+04  0.77495077719E+02 0.  0.
        254    2    1    2    0    0 -0.29090229471E+03  0.63070720855E+03 -0.23872091034E+04  0.26449342878E+04  0.90249341006E+03 0.  0.
         23    2    4    4    0    0 -0.88868877245E+02  0.65019805908E+03 -0.78602784018E+03  0.10284079912E+04  0.95540763716E+02 0.  0.
         23    2    4    4    0    0 -0.20203341746E+03 -0.19490850532E+02 -0.16011812632E+04  0.16165262965E+04  0.90434698019E+02 0.  0.
          4    1    3    3  502    0  0.19484411341E+03 -0.33192249952E+03 -0.58076035570E+03  0.69672043530E+03  0.00000000000E+00 0. -1.
         -3    1    3    3    0  502  0.96058181295E+02 -0.29878470903E+03 -0.49679790666E+03  0.58762882554E+03  0.00000000000E+00 0.  1.
         11    1    5    5    0    0 -0.47061003677E+02  0.55105930613E+03 -0.68908254270E+03  0.88358126259E+03  0.00000000000E+00 0. -1.
        -11    1    5    5    0    0 -0.41807873567E+02  0.99138752945E+02 -0.96945297478E+02  0.14482672865E+03  0.00000000000E+00 0.  1.
          1    1    6    6  503    0 -0.11816532516E+03  0.16996614408E+02 -0.64289309195E+03  0.65388336624E+03  0.00000000000E+00 0. -1.
         -1    1    6    6    0  503 -0.83868092304E+02 -0.36487464940E+02 -0.95828817128E+03  0.96264293028E+03  0.00000000000E+00 0.  1.
<mgrwt>
<rscale>  0 0.18532826E+04</rscale>
<asrwt>0</asrwt>
<pdfrwt beam="1">  1        2 0.56877312E+00 0.18532826E+04</pdfrwt>
<pdfrwt beam="2">  1       -1 0.35732016E-01 0.18532826E+04</pdfrwt>
<totfact> 0.47387158E+00</totfact>
</mgrwt>
</event>
<event>
12    6  0.9491186E-008  0.1275172E+04  0.7818608E-02  0.9049489E-01
         -1   -1    0    0    0  501 -0.00000000000E+00  0.00000000000E+00  0.63625040070E+03  0.63625040070E+03  0.00000000000E+00 0.  1.
          2   -1    0    0  501    0  0.00000000000E+00 -0.00000000000E+00 -0.63892473813E+03  0.63892473813E+03  0.00000000000E+00 0. -1.
         24    2    1    2    0    0 -0.63067461036E+02  0.20278430166E+03  0.25097243733E+03  0.34355332346E+03  0.99713309630E+02 0.  0.
        254    2    1    2    0    0  0.63067461036E+02 -0.20278430166E+03 -0.25364677476E+03  0.93162181537E+03  0.87090960661E+03 0.  0.
         23    2    4    4    0    0 -0.14071755497E+03 -0.49775104788E+03 -0.17550145202E+03  0.55393797337E+03  0.92135675640E+02 0.  0.
         23    2    4    4    0    0  0.20378501601E+03  0.29496674623E+03 -0.78145322737E+02  0.37768384200E+03  0.89468871210E+02 0.  0.
          2    1    3    3  502    0 -0.60136673224E+02  0.18675468762E+03  0.25937302467E+03  0.32522007740E+03  0.00000000000E+00 0. -1.
         -1    1    3    3    0  502 -0.29307878118E+01  0.16029614036E+02 -0.84005873411E+01  0.18333246058E+02  0.00000000000E+00 0.  1.
         11    1    5    5    0    0 -0.63708695587E+02 -0.37164890420E+03 -0.13765774139E+03  0.40141170841E+03  0.00000000000E+00 0. -1.
        -11    1    5    5    0    0 -0.77008859386E+02 -0.12610214368E+03 -0.37843710638E+02  0.15252626495E+03  0.00000000000E+00 0.  1.
          1    1    6    6  503    0  0.51820744649E+02  0.15146775688E+03 -0.42764818163E+02  0.16570063555E+03  0.00000000000E+00 0. -1.
         -1    1    6    6    0  503  0.15196427136E+03  0.14349898935E+03 -0.35380504575E+02  0.21198320645E+03  0.00000000000E+00 0.  1.
<mgrwt>
<rscale>  0 0.12751723E+04</rscale>
<asrwt>0</asrwt>
<pdfrwt beam="1">  1        2 0.98296114E-01 0.12751723E+04</pdfrwt>
<pdfrwt beam="2">  1       -1 0.97884677E-01 0.12751723E+04</pdfrwt>
<totfact> 0.51588784E+01</totfact>
</mgrwt>
</event>
<event>
12    6  0.9491186E-008  0.2084430E+04  0.7818608E-02  0.8568133E-01
          2   -1    0    0  501    0  0.00000000000E+00  0.00000000000E+00  0.39721695535E+04  0.39721695535E+04  0.00000000000E+00 0. -1.
         -1   -1    0    0    0  501 -0.00000000000E+00 -0.00000000000E+00 -0.27345563866E+03  0.27345563866E+03  0.00000000000E+00 0.  1.
         24    2    1    2    0    0 -0.79372983787E+03  0.15624855666E+03  0.10120379541E+04  0.12980394426E+04  0.79151164676E+02 0.  0.
        254    2    1    2    0    0  0.79372983787E+03 -0.15624855666E+03  0.26866759607E+04  0.29475857496E+04  0.90311315259E+03 0.  0.
         23    2    4    4    0    0  0.61966389876E+03  0.43222021222E+01  0.26082357402E+04  0.26823830013E+04  0.91010219735E+02 0.  0.
         23    2    4    4    0    0  0.17406593911E+03 -0.16057075879E+03  0.78440220507E+02  0.26520274834E+03  0.89987275748E+02 0.  0.
          2    1    3    3  502    0 -0.13553843221E+03  0.18008207454E+02  0.12837633052E+03  0.18755117803E+03  0.00000000000E+00 0. -1.
         -1    1    3    3    0  502 -0.65819140566E+03  0.13824034921E+03  0.88366162361E+03  0.11104882645E+04  0.00000000000E+00 0.  1.
         11    1    5    5    0    0  0.43880047534E+03  0.44450057916E+02  0.18271773672E+04  0.18796539033E+04  0.00000000000E+00 0. -1.
        -11    1    5    5    0    0  0.18086342341E+03 -0.40127855794E+02  0.78105837300E+03  0.80272909800E+03  0.00000000000E+00 0.  1.
          1    1    6    6  503    0  0.17176834907E+03 -0.15313356019E+03  0.93391150891E+02  0.24834685434E+03  0.00000000000E+00 0. -1.
         -1    1    6    6    0  503  0.22975900457E+01 -0.74371985977E+01 -0.14950930385E+02  0.16855893995E+02  0.00000000000E+00 0.  1.
<mgrwt>
<rscale>  0 0.20844301E+04</rscale>
<asrwt>0</asrwt>
<pdfrwt beam="1">  1        2 0.61110297E+00 0.20844301E+04</pdfrwt>
<pdfrwt beam="2">  1       -1 0.42070101E-01 0.20844301E+04</pdfrwt>
<totfact> 0.21184552E+00</totfact>
</mgrwt>
</event>
<event>
12    6  0.9491186E-008  0.2077490E+04  0.7818608E-02  0.8571224E-01
          2   -1    0    0  501    0  0.00000000000E+00  0.00000000000E+00  0.28216172365E+04  0.28216172365E+04  0.00000000000E+00 0. -1.
         -1   -1    0    0    0  501 -0.00000000000E+00 -0.00000000000E+00 -0.38240176730E+03  0.38240176730E+03  0.00000000000E+00 0.  1.
         24    2    1    2    0    0 -0.57423714208E+03 -0.82802006498E+01  0.19438800948E+04  0.20284800467E+04  0.79022906674E+02 0.  0.
        254    2    1    2    0    0  0.57423714208E+03  0.82802006498E+01  0.49533537439E+03  0.11755389571E+04  0.89817473217E+03 0.  0.
         23    2    4    4    0    0  0.32876023385E+02 -0.13918749621E+03 -0.20936305790E+03  0.26975094346E+03  0.92079799486E+02 0.  0.
         23    2    4    4    0    0  0.54136111869E+03  0.14746769686E+03  0.70469843229E+03  0.90578801365E+03  0.95044530397E+02 0.  0.
          2    1    3    3  502    0 -0.39368381703E+03 -0.16540137950E+02  0.12037031658E+04  0.12665551055E+04  0.00000000000E+00 0. -1.
         -1    1    3    3    0  502 -0.18055332504E+03  0.82599373002E+01  0.74017692905E+03  0.76192494121E+03  0.00000000000E+00 0.  1.
         11    1    5    5    0    0  0.20797461209E+02 -0.15144064213E+03 -0.18666462612E+03  0.24126849178E+03  0.00000000000E+00 0.  1.
        -11    1    5    5    0    0  0.12078562176E+02  0.12253145914E+02 -0.22698431773E+02  0.28482451684E+02  0.00000000000E+00 0. -1.
          3    1    6    6  503    0  0.25684814617E+03  0.64730584886E+02  0.40826088126E+03  0.48666001066E+03  0.00000000000E+00 0. -1.
         -3    1    6    6    0  503  0.28451297252E+03  0.82737111976E+02  0.29643755103E+03  0.41912800299E+03  0.00000000000E+00 0.  1.
<mgrwt>
<rscale>  0 0.20774902E+04</rscale>
<asrwt>0</asrwt>
<pdfrwt beam="1">  1        2 0.43409495E+00 0.20774902E+04</pdfrwt>
<pdfrwt beam="2">  1       -1 0.58831043E-01 0.20774902E+04</pdfrwt>
<totfact> 0.69119707E+00</totfact>
</mgrwt>
</event>
<event>
12    6  0.9491186E-008  0.1838875E+04  0.7818608E-02  0.8685895E-01
         -1   -1    0    0    0  501 -0.00000000000E+00  0.00000000000E+00  0.97847011171E+03  0.97847011171E+03  0.00000000000E+00 0.  1.
          2   -1    0    0  501    0  0.00000000000E+00 -0.00000000000E+00 -0.86396625131E+03  0.86396625131E+03  0.00000000000E+00 0. -1.
         24    2    1    2    0    0  0.27240527491E+03 -0.62376499889E+03  0.17738717991E+03  0.70720128732E+03  0.73348766447E+02 0.  0.
        254    2    1    2    0    0 -0.27240527491E+03  0.62376499889E+03 -0.62883319512E+02  0.11352350757E+04  0.90637572651E+03 0.  0.
         23    2    4    4    0    0 -0.58584755958E+03  0.52279197807E+03 -0.45726081173E+02  0.79232612372E+03  0.95713094367E+02 0.  0.
         23    2    4    4    0    0  0.31344228467E+03  0.10097302082E+03 -0.17157238339E+02  0.34290895198E+03  0.94077424352E+02 0.  0.
          4    1    3    3  502    0  0.57394636593E+01 -0.25838286829E+01 -0.37843145055E+01  0.73442937057E+01  0.00000000000E+00 0. -1.
         -3    1    3    3    0  502  0.26666581125E+03 -0.62118117021E+03  0.18117149442E+03  0.69985699361E+03  0.00000000000E+00 0.  1.
         11    1    5    5    0    0 -0.56192661994E+03  0.50012133161E+03 -0.63418463716E+02  0.75492037598E+03  0.00000000000E+00 0. -1.
        -11    1    5    5    0    0 -0.23920939637E+02  0.22670646467E+02  0.17692382543E+02  0.37405747746E+02  0.00000000000E+00 0.  1.
          3    1    6    6  503    0  0.29525706365E+03  0.67898379697E+02 -0.26206816754E+02  0.30409492078E+03  0.00000000000E+00 0. -1.
         -3    1    6    6    0  503  0.18185221021E+02  0.33074641124E+02  0.90495784147E+01  0.38814031207E+02  0.00000000000E+00 0.  1.
<mgrwt>
<rscale>  0 0.18388748E+04</rscale>
<asrwt>0</asrwt>
<pdfrwt beam="1">  1        2 0.13291788E+00 0.18388748E+04</pdfrwt>
<pdfrwt beam="2">  1       -1 0.15053386E+00 0.18388748E+04</pdfrwt>
<totfact> 0.11520301E+01</totfact>
</mgrwt>
</event>
<event>
12    6  0.9491186E-008  0.1713793E+04  0.7818608E-02  0.8753537E-01
         -1   -1    0    0    0  501 -0.00000000000E+00  0.00000000000E+00  0.27631215576E+03  0.27631215576E+03  0.00000000000E+00 0.  1.
          2   -1    0    0  501    0  0.00000000000E+00 -0.00000000000E+00 -0.26573980801E+04  0.26573980801E+04  0.00000000000E+00 0. -1.
         24    2    1    2    0    0  0.38246415627E+03  0.25749564902E+03 -0.15770959938E+04  0.16450130538E+04  0.79078022647E+02 0.  0.
        254    2    1    2    0    0 -0.38246415627E+03 -0.25749564902E+03 -0.80398993053E+03  0.12886971820E+04  0.89540927981E+03 0.  0.
         23    2    4    4    0    0  0.13817134467E+03  0.86752916222E+02  0.79192152405E+02  0.20341840247E+03  0.92142609591E+02 0.  0.
         23    2    4    4    0    0 -0.52063550093E+03 -0.34424856524E+03 -0.88318208294E+03  0.10852787795E+04  0.90835225188E+02 0.  0.
          4    1    3    3  502    0  0.35587429385E+03  0.22539390553E+03 -0.13525196697E+04  0.14166009962E+04  0.00000000000E+00 0. -1.
         -3    1    3    3    0  502  0.26589862414E+02  0.32101743490E+02 -0.22457632409E+03  0.22841205761E+03  0.00000000000E+00 0.  1.
         11    1    5    5    0    0 -0.81010965144E+01 -0.26366902006E+01  0.20542759994E+02  0.22239264558E+02  0.00000000000E+00 0.  1.
        -11    1    5    5    0    0  0.14627244118E+03  0.89389606422E+02  0.58649392412E+02  0.18117913791E+03  0.00000000000E+00 0. -1.
          1    1    6    6  503    0 -0.37049590701E+03 -0.22188258882E+03 -0.67126356010E+03  0.79818160055E+03  0.00000000000E+00 0. -1.
         -1    1    6    6    0  503 -0.15013959392E+03 -0.12236597641E+03 -0.21191852284E+03  0.28709717896E+03  0.00000000000E+00 0.  1.
<mgrwt>
<rscale>  0 0.17137927E+04</rscale>
<asrwt>0</asrwt>
<pdfrwt beam="1">  1        2 0.40883049E+00 0.17137927E+04</pdfrwt>
<pdfrwt beam="2">  1       -1 0.42509560E-01 0.17137927E+04</pdfrwt>
<totfact> 0.16627825E+01</totfact>
</mgrwt>
</event>
<event>
12    6  0.9491186E-008  0.2868587E+04  0.7818608E-02  0.8282285E-01
         -1   -1    0    0    0  501 -0.00000000000E+00  0.00000000000E+00  0.78686035388E+03  0.78686035388E+03  0.00000000000E+00 0.  1.
          2   -1    0    0  501    0  0.00000000000E+00 -0.00000000000E+00 -0.26144387962E+04  0.26144387962E+04  0.00000000000E+00 0. -1.
         24    2    1    2    0    0  0.41143672185E+03  0.72324944166E+03 -0.19944808757E+04  0.21625414386E+04  0.79130140847E+02 0.  0.
        254    2    1    2    0    0 -0.41143672185E+03 -0.72324944166E+03  0.16690243347E+03  0.12387577114E+04  0.90238257646E+03 0.  0.
         23    2    4    4    0    0 -0.13866973238E+03 -0.79398622427E+03  0.35709299914E+03  0.88626437489E+03  0.91135685437E+02 0.  0.
         23    2    4    4    0    0 -0.27276698947E+03  0.70736782611E+02 -0.19019056567E+03  0.35249333650E+03  0.93132046313E+02 0.  0.
          4    1    3    3  502    0  0.21811320519E+03  0.35484293606E+03 -0.90217889471E+03  0.99368689114E+03  0.00000000000E+00 0. -1.
         -3    1    3    3    0  502  0.19332351665E+03  0.36840650560E+03 -0.10923019810E+04  0.11688545475E+04  0.00000000000E+00 0.  1.
         11    1    5    5    0    0 -0.67147110256E+02 -0.17599934593E+03  0.98199824100E+02  0.21243283559E+03  0.00000000000E+00 0. -1.
        -11    1    5    5    0    0 -0.71522622122E+02 -0.61798687835E+03  0.25889317504E+03  0.67383153931E+03  0.00000000000E+00 0.  1.
          4    1    6    6  503    0 -0.10339096348E+01 -0.46386055231E+01 -0.25482048581E+02  0.25921428013E+02  0.00000000000E+00 0. -1.
         -4    1    6    6    0  503 -0.27173307984E+03  0.75375388134E+02 -0.16470851709E+03  0.32657190849E+03  0.00000000000E+00 0.  1.
<mgrwt>
<rscale>  0 0.28685873E+04</rscale>
<asrwt>0</asrwt>
<pdfrwt beam="1">  1        2 0.40222136E+00 0.28685873E+04</pdfrwt>
<pdfrwt beam="2">  1       -1 0.12105544E+00 0.28685873E+04</pdfrwt>
<totfact> 0.17778576E+00</totfact>
</mgrwt>
</event>
<event>
12    6  0.9491186E-008  0.2478156E+04  0.7818608E-02  0.8410809E-01
          2   -1    0    0  501    0  0.00000000000E+00  0.00000000000E+00  0.25002549722E+04  0.25002549722E+04  0.00000000000E+00 0. -1.
         -1   -1    0    0    0  501 -0.00000000000E+00 -0.00000000000E+00 -0.61406326240E+03  0.61406326240E+03  0.00000000000E+00 0.  1.
         24    2    1    2    0    0 -0.11512027335E+03 -0.38593431442E+03  0.20625920619E+04  0.21030861216E+04  0.80543458209E+02 0.  0.
        254    2    1    2    0    0  0.11512027335E+03  0.38593431442E+03 -0.17640035215E+03  0.10112321129E+04  0.91064555652E+03 0.  0.
         23    2    4    4    0    0  0.33377576759E+03  0.54306158931E+03 -0.28653873350E+03  0.70473991966E+03  0.90729023722E+02 0.  0.
         23    2    4    4    0    0 -0.21865549424E+03 -0.15712727489E+03  0.11013838135E+03  0.30649219328E+03  0.96476918597E+02 0.  0.
          2    1    3    3  502    0 -0.11790563949E+03 -0.29141539389E+03  0.14979939347E+04  0.15306242191E+04  0.00000000000E+00 0. -1.
         -1    1    3    3    0  502  0.27853661356E+01 -0.94518920526E+02  0.56459812720E+03  0.57246190252E+03  0.00000000000E+00 0.  1.
         11    1    5    5    0    0  0.54855459494E+02  0.16573353360E+03 -0.73548782761E+02  0.18943639841E+03  0.00000000000E+00 0. -1.
        -11    1    5    5    0    0  0.27892030810E+03  0.37732805571E+03 -0.21298995074E+03  0.51530352125E+03  0.00000000000E+00 0.  1.
          1    1    6    6  503    0 -0.18124833550E+02 -0.56191347912E+02  0.70750789505E+01  0.59464560147E+02  0.00000000000E+00 0. -1.
         -1    1    6    6    0  503 -0.20053066069E+03 -0.10093592698E+03  0.10306330240E+03  0.24702763314E+03  0.00000000000E+00 0.  1.
<mgrwt>
<rscale>  0 0.24781564E+04</rscale>
<asrwt>0</asrwt>
<pdfrwt beam="1">  1        2 0.38465461E+00 0.24781564E+04</pdfrwt>
<pdfrwt beam="2">  1       -1 0.94471272E-01 0.24781564E+04</pdfrwt>
<totfact> 0.38339233E+00</totfact>
</mgrwt>
</event>
<event>
12    6  0.9491186E-008  0.1453177E+04  0.7818608E-02  0.8916201E-01
         -1   -1    0    0    0  501 -0.00000000000E+00  0.00000000000E+00  0.15292847016E+04  0.15292847016E+04  0.00000000000E+00 0.  1.
          2   -1    0    0  501    0  0.00000000000E+00 -0.00000000000E+00 -0.34521407697E+03  0.34521407697E+03  0.00000000000E+00 0. -1.
         24    2    1    2    0    0  0.64567258538E+02 -0.42351244838E+03  0.50773291069E+03  0.66936828516E+03  0.82033333282E+02 0.  0.
        254    2    1    2    0    0 -0.64567258538E+02  0.42351244838E+03  0.67633771396E+03  0.12051304934E+04  0.90076360832E+03 0.  0.
         23    2    4    4    0    0  0.33090984219E+02  0.58815860934E+03  0.11974830357E+03  0.60974408104E+03  0.10209125902E+03 0.  0.
         23    2    4    4    0    0 -0.97658242758E+02 -0.16464616096E+03  0.55658941038E+03  0.59538641240E+03  0.89709072113E+02 0.  0.
          4    1    3    3  502    0  0.38625940318E+02 -0.34911438921E+03  0.36645239018E+03  0.50760237813E+03  0.00000000000E+00 0. -1.
         -3    1    3    3    0  502  0.25941318220E+02 -0.74398059171E+02  0.14128052052E+03  0.16176590703E+03  0.00000000000E+00 0.  1.
         11    1    5    5    0    0  0.33566678498E+02  0.11685412921E+03  0.57008647460E+02  0.13428177577E+03  0.00000000000E+00 0. -1.
        -11    1    5    5    0    0 -0.47569427825E+00  0.47130448014E+03  0.62739656113E+02  0.47546230527E+03  0.00000000000E+00 0.  1.
          1    1    6    6  503    0 -0.77206650680E+02 -0.44097267990E+02  0.24794851351E+03  0.26340824077E+03  0.00000000000E+00 0. -1.
         -1    1    6    6    0  503 -0.20451592078E+02 -0.12054889297E+03  0.30864089687E+03  0.33197817163E+03  0.00000000000E+00 0.  1.
<mgrwt>
<rscale>  0 0.14531767E+04</rscale>
<asrwt>0</asrwt>
<pdfrwt beam="1">  1        2 0.53109859E-01 0.14531767E+04</pdfrwt>
<pdfrwt beam="2">  1       -1 0.23527457E+00 0.14531767E+04</pdfrwt>
<totfact> 0.90753007E+00</totfact>
</mgrwt>
</event>
<event>
12    6  0.9491186E-008  0.1371029E+04  0.7818608E-02  0.8975060E-01
         -1   -1    0    0    0  501 -0.00000000000E+00  0.00000000000E+00  0.54129654670E+03  0.54129654670E+03  0.00000000000E+00 0.  1.
          2   -1    0    0  501    0  0.00000000000E+00 -0.00000000000E+00 -0.86815692760E+03  0.86815692760E+03  0.00000000000E+00 0. -1.
         24    2    1    2    0    0  0.73192443030E+02  0.11610702956E+03  0.27572605391E+03  0.31889824618E+03  0.82663526317E+02 0.  0.
        254    2    1    2    0    0 -0.73192443030E+02 -0.11610702956E+03 -0.60258643480E+03  0.10905552281E+04  0.89853342628E+03 0.  0.
         23    2    4    4    0    0  0.39766549080E+03  0.18211168252E+02 -0.31344898194E+03  0.51461117563E+03  0.90027265816E+02 0.  0.
         23    2    4    4    0    0 -0.47085793383E+03 -0.13431819781E+03 -0.28913745286E+03  0.57594405248E+03  0.91446775930E+02 0.  0.
          2    1    3    3  502    0 -0.98290837866E+01  0.10401467946E+02  0.26763485223E+01  0.14558992579E+02  0.00000000000E+00 0. -1.
         -1    1    3    3    0  502  0.83021526817E+02  0.10570556161E+03  0.27304970538E+03  0.30433925360E+03  0.00000000000E+00 0.  1.
         11    1    5    5    0    0  0.36476662761E+03  0.42039609556E+02 -0.28824845911E+03  0.46680745021E+03  0.00000000000E+00 0.  1.
        -11    1    5    5    0    0  0.32898863189E+02 -0.23828441304E+02 -0.25200522828E+02  0.47803725429E+02  0.00000000000E+00 0. -1.
          4    1    6    6  503    0 -0.34270995302E+03 -0.13528097077E+03 -0.23373667533E+03  0.43633001999E+03  0.00000000000E+00 0.  1.
         -4    1    6    6    0  503 -0.12814798081E+03  0.96277295520E+00 -0.55400777534E+02  0.13961403249E+03  0.00000000000E+00 0. -1.
<mgrwt>
<rscale>  0 0.13710293E+04</rscale>
<asrwt>0</asrwt>
<pdfrwt beam="1">  1        2 0.13356260E+00 0.13710293E+04</pdfrwt>
<pdfrwt beam="2">  1       -1 0.83276393E-01 0.13710293E+04</pdfrwt>
<totfact> 0.49137925E+01</totfact>
</mgrwt>
</event>
<event>
12    6  0.9491186E-008  0.1601161E+04  0.7818608E-02  0.8819835E-01
         -3   -1    0    0    0  501 -0.00000000000E+00  0.00000000000E+00  0.36059617608E+03  0.36059617608E+03  0.00000000000E+00 0.  1.
          2   -1    0    0  501    0  0.00000000000E+00 -0.00000000000E+00 -0.17774151657E+04  0.17774151657E+04  0.00000000000E+00 0. -1.
         24    2    1    2    0    0 -0.44800479441E+03  0.84643239626E+02 -0.88141849083E+03  0.99552294833E+03  0.79338583596E+02 0.  0.
        254    2    1    2    0    0  0.44800479441E+03 -0.84643239626E+02 -0.53540049882E+03  0.11424883935E+04  0.90041838125E+03 0.  0.
         23    2    4    4    0    0  0.48145819721E+03  0.18199597759E+03  0.15981758980E+02  0.52312999454E+03  0.92114293410E+02 0.  0.
         23    2    4    4    0    0 -0.33453402803E+02 -0.26663921722E+03 -0.55138225780E+03  0.61935839894E+03  0.85830238306E+02 0.  0.
          4    1    3    3  502    0 -0.42525321815E+03  0.97981964138E+02 -0.83293490674E+03  0.94033043326E+03  0.00000000000E+00 0. -1.
         -3    1    3    3    0  502 -0.22751576255E+02 -0.13338724512E+02 -0.48483584091E+02  0.55192515072E+02  0.00000000000E+00 0.  1.
         11    1    5    5    0    0  0.88637178953E+02  0.68756172532E+02 -0.14824802903E+02  0.11315359267E+03  0.00000000000E+00 0. -1.
        -11    1    5    5    0    0  0.39282101826E+03  0.11323980506E+03  0.30806561883E+02  0.40997640187E+03  0.00000000000E+00 0.  1.
          4    1    6    6  503    0 -0.52268846660E+02 -0.23941383374E+03 -0.44582290148E+03  0.50873281357E+03  0.00000000000E+00 0.  1.
         -4    1    6    6    0  503  0.18815443857E+02 -0.27225383480E+02 -0.10555935632E+03  0.11062558537E+03  0.00000000000E+00 0. -1.
<mgrwt>
<rscale>  0 0.16011610E+04</rscale>
<asrwt>0</asrwt>
<pdfrwt beam="1">  1        2 0.27344849E+00 0.16011610E+04</pdfrwt>
<pdfrwt beam="2">  1       -3 0.55476334E-01 0.16011610E+04</pdfrwt>
<totfact> 0.17471557E+01</totfact>
</mgrwt>
</event>
<event>
12    6  0.9491186E-008  0.2926772E+04  0.7818608E-02  0.8264956E-01
         -3   -1    0    0    0  501 -0.00000000000E+00  0.00000000000E+00  0.17169852601E+04  0.17169852601E+04  0.00000000000E+00 0.  1.
          2   -1    0    0  501    0  0.00000000000E+00 -0.00000000000E+00 -0.12472432761E+04  0.12472432761E+04  0.00000000000E+00 0. -1.
         24    2    1    2    0    0  0.23981333908E+03  0.12887452635E+04  0.23351226494E+02  0.13135529230E+04  0.80630082421E+02 0.  0.
        254    2    1    2    0    0 -0.23981333908E+03 -0.12887452635E+04  0.44639075750E+03  0.16506756132E+04  0.89838214583E+03 0.  0.
         23    2    4    4    0    0  0.14506236287E+03 -0.10392891602E+04  0.79357357424E+02  0.10562771327E+04  0.90877627332E+02 0.  0.
         23    2    4    4    0    0 -0.38487570195E+03 -0.24945610322E+03  0.36703340008E+03  0.59439848052E+03  0.90765541271E+02 0.  0.
          4    1    3    3  502    0  0.17769894740E+03  0.77677393708E+03  0.36272037968E+02  0.79766554769E+03  0.00000000000E+00 0. -1.
         -3    1    3    3    0  502  0.62114391675E+02  0.51197132637E+03 -0.12920811475E+02  0.51588737536E+03  0.00000000000E+00 0.  1.
         11    1    5    5    0    0  0.93266076276E+02 -0.85092144858E+03  0.39727732232E+02  0.85693883407E+03  0.00000000000E+00 0. -1.
        -11    1    5    5    0    0  0.51796286597E+02 -0.18836771165E+03  0.39629625192E+02  0.19933829860E+03  0.00000000000E+00 0.  1.
          1    1    6    6  503    0 -0.34487960329E+03 -0.24907074547E+03  0.35014742231E+03  0.55098220876E+03  0.00000000000E+00 0. -1.
         -1    1    6    6    0  503 -0.39996098657E+02 -0.38535775294E+00  0.16885977767E+02  0.43416271760E+02  0.00000000000E+00 0.  1.
<mgrwt>
<rscale>  0 0.29267718E+04</rscale>
<asrwt>0</asrwt>
<pdfrwt beam="1">  1        2 0.19188358E+00 0.29267718E+04</pdfrwt>
<pdfrwt beam="2">  1       -3 0.26415158E+00 0.29267718E+04</pdfrwt>
<totfact> 0.58193134E-01</totfact>
</mgrwt>
</event>
<event>
12    6  0.9491186E-008  0.1730166E+04  0.7818608E-02  0.8744344E-01
          2   -1    0    0  501    0  0.00000000000E+00  0.00000000000E+00  0.12019941645E+04  0.12019941645E+04  0.00000000000E+00 0. -1.
         -1   -1    0    0    0  501 -0.00000000000E+00 -0.00000000000E+00 -0.62260584823E+03  0.62260584823E+03  0.00000000000E+00 0.  1.
         24    2    1    2    0    0 -0.88995950817E+02  0.23845745164E+03 -0.39032739949E+03  0.47319129820E+03  0.82293926863E+02 0.  0.
        254    2    1    2    0    0  0.88995950817E+02 -0.23845745164E+03  0.96971571580E+03  0.13514087146E+04  0.90618690613E+03 0.  0.
         23    2    4    4    0    0 -0.73946825711E+02  0.20685278166E+03  0.80723917886E+03  0.84201977266E+03  0.95425360076E+02 0.  0.
         23    2    4    4    0    0  0.16294277653E+03 -0.44531023330E+03  0.16247653694E+03  0.50938894191E+03  0.90702352691E+02 0.  0.
          4    1    3    3  502    0 -0.41969142559E+02  0.27269078036E+02 -0.90996376048E+02  0.10385254931E+03  0.00000000000E+00 0. -1.
         -3    1    3    3    0  502 -0.47026808258E+02  0.21118837360E+03 -0.29933102344E+03  0.36933874889E+03  0.00000000000E+00 0.  1.
         11    1    5    5    0    0 -0.19476067245E+02  0.10230043193E+03  0.22452640873E+03  0.24750111875E+03  0.00000000000E+00 0. -1.
        -11    1    5    5    0    0 -0.54470758466E+02  0.10455234973E+03  0.58271277014E+03  0.59451865390E+03  0.00000000000E+00 0.  1.
          3    1    6    6  503    0  0.13828938076E+03 -0.43372592050E+03  0.15739437303E+03  0.48167947393E+03  0.00000000000E+00 0. -1.
         -3    1    6    6    0  503  0.24653395767E+02 -0.11584312799E+02  0.50821639155E+01  0.27709467983E+02  0.00000000000E+00 0.  1.
<mgrwt>
<rscale>  0 0.17301660E+04</rscale>
<asrwt>0</asrwt>
<pdfrwt beam="1">  1        2 0.18492218E+00 0.17301660E+04</pdfrwt>
<pdfrwt beam="2">  1       -1 0.95785515E-01 0.17301660E+04</pdfrwt>
<totfact> 0.21493344E+01</totfact>
</mgrwt>
</event>
<event>
12    6  0.9491186E-008  0.2398792E+04  0.7818608E-02  0.8439956E-01
         -1   -1    0    0    0  501 -0.00000000000E+00  0.00000000000E+00  0.93818352103E+03  0.93818352103E+03  0.00000000000E+00 0.  1.
          2   -1    0    0  501    0  0.00000000000E+00 -0.00000000000E+00 -0.15333357477E+04  0.15333357477E+04  0.00000000000E+00 0. -1.
         24    2    1    2    0    0 -0.95305133377E+03  0.36365522828E+03 -0.19348326091E+03  0.10414503823E+04  0.81431914044E+02 0.  0.
        254    2    1    2    0    0  0.95305133377E+03 -0.36365522828E+03 -0.40166896571E+03  0.14300688864E+04  0.91826308432E+03 0.  0.
         23    2    4    4    0    0  0.20740696763E+03  0.26836490476E+03  0.40147838364E+02  0.35356276570E+03  0.91418860379E+02 0.  0.
         23    2    4    4    0    0  0.74564436614E+03 -0.63202013304E+03 -0.44181680407E+03  0.10765061207E+04  0.90710364612E+02 0.  0.
          2    1    3    3  502    0 -0.45390493744E+03  0.13076727833E+03 -0.80422319444E+02  0.47916335709E+03  0.00000000000E+00 0. -1.
         -1    1    3    3    0  502 -0.49914639634E+03  0.23288794995E+03 -0.11306094147E+03  0.56228702519E+03  0.00000000000E+00 0.  1.
         11    1    5    5    0    0  0.14093684693E+03  0.10792885894E+03  0.16084720104E+02  0.17824295676E+03  0.00000000000E+00 0. -1.
        -11    1    5    5    0    0  0.66470120705E+02  0.16043604582E+03  0.24063118260E+02  0.17531980894E+03  0.00000000000E+00 0.  1.
          3    1    6    6  503    0  0.59480865889E+02 -0.85208278174E+02 -0.55788392010E+02  0.11794392210E+03  0.00000000000E+00 0. -1.
         -3    1    6    6    0  503  0.68616350025E+03 -0.54681185487E+03 -0.38602841206E+03  0.95856219862E+03  0.00000000000E+00 0.  1.
<mgrwt>
<rscale>  0 0.23987916E+04</rscale>
<asrwt>0</asrwt>
<pdfrwt beam="1">  1        2 0.23589780E+00 0.23987916E+04</pdfrwt>
<pdfrwt beam="2">  1       -1 0.14433593E+00 0.23987916E+04</pdfrwt>
<totfact> 0.48159985E+00</totfact>
</mgrwt>
</event>
<event>
12    6  0.9491186E-008  0.1154974E+04  0.7818608E-02  0.9153207E-01
          2   -1    0    0  501    0  0.00000000000E+00  0.00000000000E+00  0.95993707865E+03  0.95993707865E+03  0.00000000000E+00 0. -1.
         -1   -1    0    0    0  501 -0.00000000000E+00 -0.00000000000E+00 -0.34740940928E+03  0.34740940928E+03  0.00000000000E+00 0.  1.
         24    2    1    2    0    0  0.56513446832E+02 -0.10033361857E+03 -0.78863423001E+02  0.16365821867E+03  0.85463257377E+02 0.  0.
        254    2    1    2    0    0 -0.56513446832E+02  0.10033361857E+03  0.69139109237E+03  0.11436882693E+04  0.90373702477E+03 0.  0.
         23    2    4    4    0    0  0.12606877307E+03  0.25532489554E+03  0.80824025146E+03  0.86177642985E+03  0.91225945543E+02 0.  0.
         23    2    4    4    0    0 -0.18258221990E+03 -0.15499127697E+03 -0.11684915909E+03  0.28191183940E+03  0.91989109446E+02 0.  0.
          4    1    3    3  502    0 -0.66152669428E+01  0.10449716150E+01  0.11900139971E+02  0.13655293982E+02  0.00000000000E+00 0. -1.
         -3    1    3    3    0  502  0.63128713775E+02 -0.10137859019E+03 -0.90763562971E+02  0.15000292469E+03  0.00000000000E+00 0.  1.
         11    1    5    5    0    0  0.43751491497E+02  0.14138687189E+03  0.52667558967E+03  0.54707551335E+03  0.00000000000E+00 0. -1.
        -11    1    5    5    0    0  0.82317281572E+02  0.11393802365E+03  0.28156466179E+03  0.31470091650E+03  0.00000000000E+00 0.  1.
          4    1    6    6  503    0 -0.19054560182E+03 -0.15598063245E+03 -0.11915744635E+03  0.27356184144E+03  0.00000000000E+00 0.  1.
         -4    1    6    6    0  503  0.79633819172E+01  0.98935548778E+00  0.23082872631E+01  0.83499979599E+01  0.00000000000E+00 0. -1.
<mgrwt>
<rscale>  0 0.11549739E+04</rscale>
<asrwt>0</asrwt>
<pdfrwt beam="1">  1        2 0.14768263E+00 0.11549739E+04</pdfrwt>
<pdfrwt beam="2">  1       -1 0.53447602E-01 0.11549739E+04</pdfrwt>
<totfact> 0.10660618E+02</totfact>
</mgrwt>
</event>
<event>
12    6  0.9582605E-008  0.2417865E+04  0.7818608E-02  0.8432845E-01
          2   -1    0    0  501    0  0.00000000000E+00  0.00000000000E+00  0.23792694742E+04  0.23792694742E+04  0.00000000000E+00 0. -1.
         -1   -1    0    0    0  501 -0.00000000000E+00 -0.00000000000E+00 -0.61427158407E+03  0.61427158407E+03  0.00000000000E+00 0.  1.
         24    2    1    2    0    0 -0.10105702922E+03  0.31046011883E+03 -0.45890535425E+03  0.56895263216E+03  0.80715332788E+02 0.  0.
        254    2    1    2    0    0  0.10105702922E+03 -0.31046011883E+03  0.22239032444E+04  0.24245884261E+04  0.90900241316E+03 0.  0.
         23    2    4    4    0    0  0.27373904152E+02 -0.36498069018E+03  0.26361703526E+03  0.46000909581E+03  0.90300565419E+02 0.  0.
         23    2    4    4    0    0  0.73683125072E+02  0.54520571350E+02  0.19602862091E+04  0.19645793303E+04  0.91914241348E+02 0.  0.
          4    1    3    3  502    0  0.13218291191E+01  0.13469346492E+02 -0.89674404023E+00  0.13563726517E+02  0.00000000000E+00 0. -1.
         -3    1    3    3    0  502 -0.10237885834E+03  0.29699077234E+03 -0.45800861021E+03  0.55538890565E+03  0.00000000000E+00 0.  1.
         11    1    5    5    0    0  0.42488590914E+02 -0.20750078142E+03  0.10662398782E+03  0.23712977339E+03  0.00000000000E+00 0. -1.
        -11    1    5    5    0    0 -0.15114686762E+02 -0.15747990876E+03  0.15699304744E+03  0.22287932242E+03  0.00000000000E+00 0.  1.
          4    1    6    6  503    0  0.17435380075E+02 -0.11484885650E+02  0.10415734196E+04  0.10417826469E+04  0.00000000000E+00 0. -1.
         -4    1    6    6    0  503  0.56247744997E+02  0.66005457000E+02  0.91871278958E+03  0.92279668341E+03  0.00000000000E+00 0.  1.
<mgrwt>
<rscale>  0 0.24178649E+04</rscale>
<asrwt>0</asrwt>
<pdfrwt beam="1">  1        2 0.36604145E+00 0.24178649E+04</pdfrwt>
<pdfrwt beam="2">  1       -1 0.94503322E-01 0.24178649E+04</pdfrwt>
<totfact> 0.45209755E+00</totfact>
</mgrwt>
</event>
<event>
12    6  0.9491186E-008  0.2133725E+04  0.7818608E-02  0.8546531E-01
          4   -1    0    0  501    0  0.00000000000E+00  0.00000000000E+00  0.11445660371E+04  0.11445660371E+04  0.00000000000E+00 0. -1.
         -3   -1    0    0    0  501 -0.00000000000E+00 -0.00000000000E+00 -0.99443450303E+03  0.99443450303E+03  0.00000000000E+00 0.  1.
         24    2    1    2    0    0 -0.69816267112E+03 -0.44612756155E+03  0.33552796330E+03  0.89737964036E+03  0.79058764689E+02 0.  0.
        254    2    1    2    0    0  0.69816267112E+03  0.44612756155E+03 -0.18539642926E+03  0.12416208997E+04  0.90597445116E+03 0.  0.
         23    2    4    4    0    0 -0.16004399052E+03  0.81112003355E+02 -0.22701278184E+03  0.30331626145E+03  0.90954468581E+02 0.  0.
         23    2    4    4    0    0  0.85820666163E+03  0.36501555819E+03  0.41616352578E+02  0.93830463827E+03  0.94491489614E+02 0.  0.
          2    1    3    3  502    0 -0.20226150718E+03 -0.11997073036E+03  0.58305916337E+02  0.24228552022E+03  0.00000000000E+00 0. -1.
         -1    1    3    3    0  502 -0.49590116394E+03 -0.32615683118E+03  0.27722204696E+03  0.65509412014E+03  0.00000000000E+00 0.  1.
         11    1    5    5    0    0 -0.42729103420E+02  0.68248865606E+02 -0.11660413838E+03  0.14170465420E+03  0.00000000000E+00 0. -1.
        -11    1    5    5    0    0 -0.11731488710E+03  0.12863137749E+02 -0.11040864346E+03  0.16161160725E+03  0.00000000000E+00 0.  1.
          1    1    6    6  503    0  0.35579469018E+02  0.37195240008E+02 -0.37047916331E+01  0.51605328949E+02  0.00000000000E+00 0. -1.
         -1    1    6    6    0  503  0.82262719262E+03  0.32782031818E+03  0.45321144211E+02  0.88669930933E+03  0.00000000000E+00 0.  1.
<mgrwt>
<rscale>  0 0.21337253E+04</rscale>
<asrwt>0</asrwt>
<pdfrwt beam="1">  1        4 0.17608708E+00 0.21337253E+04</pdfrwt>
<pdfrwt beam="2">  1       -3 0.15298992E+00 0.21337253E+04</pdfrwt>
<totfact> 0.12306909E-01</totfact>
</mgrwt>
</event>
<event>
12    6  0.9491186E-008  0.1445093E+04  0.7818608E-02  0.8921809E-01
          2   -1    0    0  501    0  0.00000000000E+00  0.00000000000E+00  0.17883673231E+04  0.17883673231E+04  0.00000000000E+00 0. -1.
         -1   -1    0    0    0  501 -0.00000000000E+00 -0.00000000000E+00 -0.29192756784E+03  0.29192756784E+03  0.00000000000E+00 0.  1.
         24    2    1    2    0    0  0.29027617468E+03 -0.49764894802E+02  0.92800891291E+03  0.97718479372E+03  0.83383309412E+02 0.  0.
        254    2    1    2    0    0 -0.29027617468E+03  0.49764894802E+02  0.56843084237E+03  0.11031100972E+04  0.89833260084E+03 0.  0.
         23    2    4    4    0    0 -0.47148438242E+03  0.14400981844E+03  0.10718651827E+02  0.50201705389E+03  0.94180052156E+02 0.  0.
         23    2    4    4    0    0  0.18120820775E+03 -0.94244923639E+02  0.55771219054E+03  0.60109304334E+03  0.92473991420E+02 0.  0.
          4    1    3    3  502    0  0.12160095381E+03 -0.19293182685E+02  0.52491777743E+03  0.53916388225E+03  0.00000000000E+00 0. -1.
         -3    1    3    3    0  502  0.16867522087E+03 -0.30471712117E+02  0.40309113548E+03  0.43802091146E+03  0.00000000000E+00 0.  1.
         11    1    5    5    0    0 -0.25699779420E+03  0.31842428708E+02 -0.94284012887E+01  0.25913452344E+03  0.00000000000E+00 0.  1.
        -11    1    5    5    0    0 -0.21448658822E+03  0.11216738973E+03  0.20147053116E+02  0.24288253045E+03  0.00000000000E+00 0. -1.
          3    1    6    6  503    0  0.58144398611E+02 -0.81505511338E+02  0.23241748649E+03  0.25306482864E+03  0.00000000000E+00 0. -1.
         -3    1    6    6    0  503  0.12306380914E+03 -0.12739412302E+02  0.32529470405E+03  0.34802821470E+03  0.00000000000E+00 0.  1.
<mgrwt>
<rscale>  0 0.14450934E+04</rscale>
<asrwt>0</asrwt>
<pdfrwt beam="1">  1        2 0.27513343E+00 0.14450934E+04</pdfrwt>
<pdfrwt beam="2">  1       -1 0.44911935E-01 0.14450934E+04</pdfrwt>
<totfact> 0.47579305E+01</totfact>
</mgrwt>
</event>
<event>
12    6  0.9491186E-008  0.2893315E+04  0.7818608E-02  0.8274869E-01
         -1   -1    0    0    0  501 -0.00000000000E+00  0.00000000000E+00  0.16227709916E+04  0.16227709916E+04  0.00000000000E+00 0.  1.
          2   -1    0    0  501    0  0.00000000000E+00 -0.00000000000E+00 -0.12896568851E+04  0.12896568851E+04  0.00000000000E+00 0. -1.
         24    2    1    2    0    0 -0.28482516350E+03  0.40698779870E+03  0.13662307316E+04  0.14559970348E+04  0.81095691768E+02 0.  0.
        254    2    1    2    0    0  0.28482516350E+03 -0.40698779870E+03 -0.10331166250E+04  0.14564308420E+04  0.89838543760E+03 0.  0.
         23    2    4    4    0    0 -0.24206958134E+03 -0.15618410149E+03 -0.73490024341E+03  0.79465755316E+03  0.91712067161E+02 0.  0.
         23    2    4    4    0    0  0.52689474484E+03 -0.25080369720E+03 -0.29821638160E+03  0.66177328880E+03  0.92142871948E+02 0.  0.
          4    1    3    3  502    0 -0.12695522917E+03  0.16992510389E+03  0.47120499839E+03  0.51674589660E+03  0.00000000000E+00 0. -1.
         -3    1    3    3    0  502 -0.15786993433E+03  0.23706269481E+03  0.89502573320E+03  0.93925113816E+03  0.00000000000E+00 0.  1.
         11    1    5    5    0    0 -0.13165887058E+03 -0.83143803081E+02 -0.27436633729E+03  0.31547398820E+03  0.00000000000E+00 0. -1.
        -11    1    5    5    0    0 -0.11041071076E+03 -0.73040298412E+02 -0.46053390612E+03  0.47918356496E+03  0.00000000000E+00 0.  1.
          4    1    6    6  503    0  0.62650988284E+02 -0.19316589397E+01 -0.46063800623E+02  0.77786575751E+02  0.00000000000E+00 0. -1.
         -4    1    6    6    0  503  0.46424375655E+03 -0.24887203826E+03 -0.25215258098E+03  0.58398671305E+03  0.00000000000E+00 0.  1.
<mgrwt>
<rscale>  0 0.28933149E+04</rscale>
<asrwt>0</asrwt>
<pdfrwt beam="1">  1        2 0.19840875E+00 0.28933149E+04</pdfrwt>
<pdfrwt beam="2">  1       -1 0.24965708E+00 0.28933149E+04</pdfrwt>
<totfact> 0.11555849E+00</totfact>
</mgrwt>
</event>
<event>
12    6  0.9491186E-008  0.1875458E+04  0.7818608E-02  0.8667170E-01
          2   -1    0    0  501    0  0.00000000000E+00  0.00000000000E+00  0.56447510231E+03  0.56447510231E+03  0.00000000000E+00 0. -1.
         -1   -1    0    0    0  501 -0.00000000000E+00 -0.00000000000E+00 -0.15577934418E+04  0.15577934418E+04  0.00000000000E+00 0.  1.
         24    2    1    2    0    0  0.49262334048E+03  0.47514679209E+03 -0.60639855195E+03  0.91796799417E+03  0.80646170951E+02 0.  0.
        254    2    1    2    0    0 -0.49262334048E+03 -0.47514679209E+03 -0.38691978751E+03  0.12043005499E+04  0.91224484812E+03 0.  0.
         23    2    4    4    0    0 -0.21112516664E+03 -0.26783041541E+03  0.27677210681E+03  0.44852835665E+03  0.90928104610E+02 0.  0.
         23    2    4    4    0    0 -0.28149817384E+03 -0.20731637668E+03 -0.66369189432E+03  0.75577219325E+03  0.92105241943E+02 0.  0.
          2    1    3    3  502    0  0.79934806419E+02  0.98971491024E+02 -0.78250707585E+02  0.14935897211E+03  0.00000000000E+00 0. -1.
         -1    1    3    3    0  502  0.41268853406E+03  0.37617530107E+03 -0.52814784437E+03  0.76860902206E+03  0.00000000000E+00 0.  1.
         11    1    5    5    0    0 -0.14766688704E+03 -0.19426781284E+03  0.14180119587E+03  0.28222875790E+03  0.00000000000E+00 0.  1.
        -11    1    5    5    0    0 -0.63458279601E+02 -0.73562602567E+02  0.13497091094E+03  0.16629959876E+03  0.00000000000E+00 0. -1.
          1    1    6    6  503    0 -0.14216389389E+03 -0.10590564724E+03 -0.23999263955E+03  0.29836730029E+03  0.00000000000E+00 0. -1.
         -1    1    6    6    0  503 -0.13933427995E+03 -0.10141072944E+03 -0.42369925477E+03  0.45740489296E+03  0.00000000000E+00 0.  1.
<mgrwt>
<rscale>  0 0.18754579E+04</rscale>
<asrwt>0</asrwt>
<pdfrwt beam="1">  1        2 0.86842323E-01 0.18754579E+04</pdfrwt>
<pdfrwt beam="2">  1       -1 0.23966053E+00 0.18754579E+04</pdfrwt>
<totfact> 0.46623293E+00</totfact>
</mgrwt>
</event>
<event>
12    6  0.9491186E-008  0.1402416E+04  0.7818608E-02  0.8952071E-01
         -1   -1    0    0    0  501 -0.00000000000E+00  0.00000000000E+00  0.39556406708E+03  0.39556406708E+03  0.00000000000E+00 0.  1.
          2   -1    0    0  501    0  0.00000000000E+00 -0.00000000000E+00 -0.12430168332E+04  0.12430168332E+04  0.00000000000E+00 0. -1.
         24    2    1    2    0    0  0.77663937801E+02  0.54846630634E+02 -0.71645816971E+03  0.72697528302E+03  0.78363978025E+02 0.  0.
        254    2    1    2    0    0 -0.77663937801E+02 -0.54846630634E+02 -0.13099459644E+03  0.91160561729E+03  0.89712060340E+03 0.  0.
         23    2    4    4    0    0 -0.33196178770E+02  0.38782744827E+03  0.84379939684E+02  0.40869072394E+03  0.91629786085E+02 0.  0.
         23    2    4    4    0    0 -0.44467759031E+02 -0.44267407890E+03 -0.21537453613E+03  0.50291489335E+03  0.92733367321E+02 0.  0.
          4    1    3    3  502    0 -0.87025707272E+01  0.30043390890E+02 -0.24920961189E+03  0.25116482782E+03  0.00000000000E+00 0. -1.
         -3    1    3    3    0  502  0.86366508529E+02  0.24803239744E+02 -0.46724855782E+03  0.47581045520E+03  0.00000000000E+00 0.  1.
         11    1    5    5    0    0  0.16094317524E+02  0.18444565994E+03  0.73299234963E+02  0.19912811548E+03  0.00000000000E+00 0.  1.
        -11    1    5    5    0    0 -0.49290496294E+02  0.20338178833E+03  0.11080704720E+02  0.20956260846E+03  0.00000000000E+00 0. -1.
          2    1    6    6  503    0  0.23995877913E+02 -0.21515737555E+03 -0.92450098718E+02  0.23540501091E+03  0.00000000000E+00 0. -1.
         -2    1    6    6    0  503 -0.68463636944E+02 -0.22751670335E+03 -0.12292443741E+03  0.26750988243E+03  0.00000000000E+00 0.  1.
<mgrwt>
<rscale>  0 0.14024162E+04</rscale>
<asrwt>0</asrwt>
<pdfrwt beam="1">  1        2 0.19123336E+00 0.14024162E+04</pdfrwt>
<pdfrwt beam="2">  1       -1 0.60856010E-01 0.14024162E+04</pdfrwt>
<totfact> 0.54249560E+01</totfact>
</mgrwt>
</event>
<event>
12    6  0.9491186E-008  0.3926975E+04  0.7818608E-02  0.8019442E-01
         -1   -1    0    0    0  501 -0.00000000000E+00  0.00000000000E+00  0.26024125755E+04  0.26024125755E+04  0.00000000000E+00 0.  1.
          2   -1    0    0  501    0  0.00000000000E+00 -0.00000000000E+00 -0.14814263496E+04  0.14814263496E+04  0.00000000000E+00 0. -1.
         24    2    1    2    0    0 -0.97826607521E+03 -0.19266551472E+03 -0.11018671858E+04  0.14881440106E+04  0.79603935963E+02 0.  0.
        254    2    1    2    0    0  0.97826607521E+03  0.19266551472E+03  0.22228534117E+04  0.25956949145E+04  0.89578473119E+03 0.  0.
         23    2    4    4    0    0  0.62132408557E+03  0.51677144236E+03  0.16637085626E+04  0.18518345896E+04  0.90933069844E+02 0.  0.
         23    2    4    4    0    0  0.35694198964E+03 -0.32410592764E+03  0.55914484909E+03  0.74386032482E+03  0.90735793779E+02 0.  0.
          2    1    3    3  502    0 -0.83140782470E+03 -0.13949836415E+03 -0.95322973512E+03  0.12725351439E+04  0.00000000000E+00 0. -1.
         -1    1    3    3    0  502 -0.14685825051E+03 -0.53167150573E+02 -0.14863745069E+03  0.21560886668E+03  0.00000000000E+00 0.  1.
         11    1    5    5    0    0  0.41214152924E+03  0.38891741585E+03  0.11100882370E+04  0.12463600163E+04  0.00000000000E+00 0.  1.
        -11    1    5    5    0    0  0.20918255632E+03  0.12785402651E+03  0.55362032563E+03  0.60547457330E+03  0.00000000000E+00 0. -1.
          2    1    6    6  503    0  0.26036012832E+02 -0.18226902874E+02  0.96327096746E+01  0.33209683050E+02  0.00000000000E+00 0. -1.
         -2    1    6    6    0  503  0.33090597681E+03 -0.30587902477E+03  0.54951213942E+03  0.71065064177E+03  0.00000000000E+00 0.  1.
<mgrwt>
<rscale>  0 0.39269747E+04</rscale>
<asrwt>0</asrwt>
<pdfrwt beam="1">  1        2 0.22791175E+00 0.39269747E+04</pdfrwt>
<pdfrwt beam="2">  1       -1 0.40037116E+00 0.39269747E+04</pdfrwt>
<totfact> 0.83530279E-02</totfact>
</mgrwt>
</event>
<event>
12    6  0.9491186E-008  0.1250833E+04  0.7818608E-02  0.9069490E-01
         -3   -1    0    0    0  501 -0.00000000000E+00  0.00000000000E+00  0.10677416978E+04  0.10677416978E+04  0.00000000000E+00 0.  1.
          2   -1    0    0  501    0  0.00000000000E+00 -0.00000000000E+00 -0.36632981323E+03  0.36632981323E+03  0.00000000000E+00 0. -1.
         24    2    1    2    0    0 -0.24014350375E+03  0.22738889069E+02 -0.19411039432E+02  0.25444002252E+03  0.78593747456E+02 0.  0.
        254    2    1    2    0    0  0.24014350375E+03 -0.22738889069E+02  0.72082292396E+03  0.11796314885E+04  0.90208580601E+03 0.  0.
         23    2    4    4    0    0  0.22870511582E+03 -0.30248314971E+03  0.78585710654E+03  0.87748320472E+03  0.92753958368E+02 0.  0.
         23    2    4    4    0    0  0.11438387932E+02  0.27974426064E+03 -0.65034182581E+02  0.30214828376E+03  0.93147476565E+02 0.  0.
          2    1    3    3  502    0 -0.23298264460E+03  0.35432500620E+02 -0.28322314428E+02  0.23735738514E+03  0.00000000000E+00 0. -1.
         -1    1    3    3    0  502 -0.71608591548E+01 -0.12693611551E+02  0.89112749959E+01  0.17082637387E+02  0.00000000000E+00 0.  1.
         11    1    5    5    0    0  0.35105885072E+02 -0.24411878338E+02  0.41265475979E+02  0.59423921769E+02  0.00000000000E+00 0.  1.
        -11    1    5    5    0    0  0.19359923075E+03 -0.27807127138E+03  0.74459163056E+03  0.81805928295E+03  0.00000000000E+00 0. -1.
          2    1    6    6  503    0  0.86495207134E+01  0.52542713873E+01 -0.22099732376E+02  0.24306783981E+02  0.00000000000E+00 0.  1.
         -2    1    6    6    0  503  0.27888672188E+01  0.27448998926E+03 -0.42934450205E+02  0.27784149977E+03  0.00000000000E+00 0. -1.
<mgrwt>
<rscale>  0 0.12508327E+04</rscale>
<asrwt>0</asrwt>
<pdfrwt beam="1">  1        2 0.56358433E-01 0.12508327E+04</pdfrwt>
<pdfrwt beam="2">  1       -3 0.16426795E+00 0.12508327E+04</pdfrwt>
<totfact> 0.13695133E+01</totfact>
</mgrwt>
</event>
<event>
12    6  0.9491186E-008  0.1652802E+04  0.7818608E-02  0.8788751E-01
         -1   -1    0    0    0  501 -0.00000000000E+00  0.00000000000E+00  0.29752451587E+03  0.29752451587E+03  0.00000000000E+00 0.  1.
          2   -1    0    0  501    0  0.00000000000E+00 -0.00000000000E+00 -0.22954018182E+04  0.22954018182E+04  0.00000000000E+00 0. -1.
         24    2    1    2    0    0  0.17502473388E+03 -0.46477633441E+03 -0.11422433565E+04  0.12481199666E+04  0.80205156220E+02 0.  0.
        254    2    1    2    0    0 -0.17502473388E+03  0.46477633441E+03 -0.85563394583E+03  0.13448063675E+04  0.91090285882E+03 0.  0.
         23    2    4    4    0    0 -0.30325961509E+02 -0.24425849015E+03 -0.66069400439E+02  0.27004433727E+03  0.89313517825E+02 0.  0.
         23    2    4    4    0    0 -0.14469877237E+03  0.70903482455E+03 -0.78956454540E+03  0.10747620302E+04  0.89627747020E+02 0.  0.
          2    1    3    3  502    0  0.18311675215E+03 -0.45354601061E+03 -0.11149318091E+04  0.12175009929E+04  0.00000000000E+00 0. -1.
         -1    1    3    3    0  502 -0.80920182728E+01 -0.11230323795E+02 -0.27311547365E+02  0.30618973721E+02  0.00000000000E+00 0.  1.
         11    1    5    5    0    0  0.18099247355E+02 -0.85208502911E+01 -0.12192100441E+02  0.23427226846E+02  0.00000000000E+00 0. -1.
        -11    1    5    5    0    0 -0.48425208865E+02 -0.23573763986E+03 -0.53877299998E+02  0.24661711042E+03  0.00000000000E+00 0.  1.
          2    1    6    6  503    0 -0.88340679759E+02  0.26152473376E+03 -0.33978905220E+03  0.43778517798E+03  0.00000000000E+00 0.  1.
         -2    1    6    6    0  503 -0.56358092607E+02  0.44751009079E+03 -0.44977549320E+03  0.63697685221E+03  0.00000000000E+00 0. -1.
<mgrwt>
<rscale>  0 0.16528016E+04</rscale>
<asrwt>0</asrwt>
<pdfrwt beam="1">  1        2 0.35313874E+00 0.16528016E+04</pdfrwt>
<pdfrwt beam="2">  1       -1 0.45773003E-01 0.16528016E+04</pdfrwt>
<totfact> 0.23554079E+01</totfact>
</mgrwt>
</event>
<event>
12    6  0.9491186E-008  0.3337556E+04  0.7818608E-02  0.8153404E-01
         -1   -1    0    0    0  501 -0.00000000000E+00  0.00000000000E+00  0.14646769772E+04  0.14646769772E+04  0.00000000000E+00 0.  1.
          2   -1    0    0  501    0  0.00000000000E+00 -0.00000000000E+00 -0.19013205777E+04  0.19013205777E+04  0.00000000000E+00 0. -1.
         24    2    1    2    0    0  0.11383291569E+04 -0.16804919921E+03  0.83835536056E+03  0.14259482096E+04  0.80341663439E+02 0.  0.
        254    2    1    2    0    0 -0.11383291569E+04  0.16804919921E+03 -0.12749989611E+04  0.19400493453E+04  0.90229446886E+03 0.  0.
         23    2    4    4    0    0 -0.11052900557E+04 -0.41694658466E+02 -0.68100436966E+03  0.13019554983E+04  0.88975368706E+02 0.  0.
         23    2    4    4    0    0 -0.33039101234E+02  0.20974385767E+03 -0.59399459140E+03  0.63809384700E+03  0.96177517764E+02 0.  0.
          4    1    3    3  502    0  0.16275799931E+03 -0.48456312093E+02  0.10536055868E+03  0.19984751148E+03  0.00000000000E+00 0. -1.
         -3    1    3    3    0  502  0.97557115762E+03 -0.11959288711E+03  0.73299480188E+03  0.12261006981E+04  0.00000000000E+00 0.  1.
         11    1    5    5    0    0 -0.64251873143E+03  0.19064375286E+02 -0.40335039696E+03  0.75887107823E+03  0.00000000000E+00 0.  1.
        -11    1    5    5    0    0 -0.46277132427E+03 -0.60759033752E+02 -0.27765397271E+03  0.54308442006E+03  0.00000000000E+00 0. -1.
          2    1    6    6  503    0 -0.13233992469E+02 -0.65369888785E+01 -0.56052867819E+02  0.57963736689E+02  0.00000000000E+00 0.  1.
         -2    1    6    6    0  503 -0.19805108765E+02  0.21628084655E+03 -0.53794172358E+03  0.58013011031E+03  0.00000000000E+00 0. -1.
<mgrwt>
<rscale>  0 0.33375563E+04</rscale>
<asrwt>0</asrwt>
<pdfrwt beam="1">  1        2 0.29251086E+00 0.33375563E+04</pdfrwt>
<pdfrwt beam="2">  1       -1 0.22533492E+00 0.33375563E+04</pdfrwt>
<totfact> 0.72802179E-01</totfact>
</mgrwt>
</event>
<event>
12    6  0.9491186E-008  0.3285108E+04  0.7818608E-02  0.8166695E-01
         -1   -1    0    0    0  501 -0.00000000000E+00  0.00000000000E+00  0.17284964381E+04  0.17284964381E+04  0.00000000000E+00 0.  1.
          2   -1    0    0  501    0  0.00000000000E+00 -0.00000000000E+00 -0.15608847875E+04  0.15608847875E+04  0.00000000000E+00 0. -1.
         24    2    1    2    0    0 -0.56333936010E+03  0.12705088094E+04  0.68942753204E+03  0.15534490455E+04  0.79685290502E+02 0.  0.
        254    2    1    2    0    0  0.56333936010E+03 -0.12705088094E+04 -0.52181588150E+03  0.17359321801E+04  0.89979155932E+03 0.  0.
         23    2    4    4    0    0  0.47610254805E+03 -0.13678905315E+04 -0.58452640565E+03  0.15645656439E+04  0.91631833186E+02 0.  0.
         23    2    4    4    0    0  0.87236812054E+02  0.97381722028E+02  0.62710524152E+02  0.17136653620E+03  0.91325892972E+02 0.  0.
          4    1    3    3  502    0 -0.11548547026E+03  0.18958583866E+03  0.11539148460E+03  0.25018968560E+03  0.00000000000E+00 0. -1.
         -3    1    3    3    0  502 -0.44785388984E+03  0.10809229708E+04  0.57403604744E+03  0.13032593599E+04  0.00000000000E+00 0.  1.
         11    1    5    5    0    0  0.10435272351E+03 -0.34174392679E+03 -0.18461791215E+03  0.40219668807E+03  0.00000000000E+00 0.  1.
        -11    1    5    5    0    0  0.37174982453E+03 -0.10261466047E+04 -0.39990849350E+03  0.11623689558E+04  0.00000000000E+00 0. -1.
          1    1    6    6  503    0  0.49912236104E+02  0.54811483221E+02 -0.14586518900E+02  0.75553269548E+02  0.00000000000E+00 0. -1.
         -1    1    6    6    0  503  0.37324575950E+02  0.42570238807E+02  0.77297043051E+02  0.95813266651E+02  0.00000000000E+00 0.  1.
<mgrwt>
<rscale>  0 0.32851081E+04</rscale>
<asrwt>0</asrwt>
<pdfrwt beam="1">  1        2 0.24013612E+00 0.32851081E+04</pdfrwt>
<pdfrwt beam="2">  1       -1 0.26592253E+00 0.32851081E+04</pdfrwt>
<totfact> 0.61317644E-01</totfact>
</mgrwt>
</event>
<event>
12    6  0.9491186E-008  0.2549904E+04  0.7818608E-02  0.8385420E-01
          2   -1    0    0  501    0  0.00000000000E+00  0.00000000000E+00  0.11495998733E+04  0.11495998733E+04  0.00000000000E+00 0. -1.
         -1   -1    0    0    0  501 -0.00000000000E+00 -0.00000000000E+00 -0.14139726861E+04  0.14139726861E+04  0.00000000000E+00 0.  1.
         24    2    1    2    0    0 -0.32234172872E+03 -0.12961874682E+03 -0.11792494083E+04  0.12320120615E+04  0.80742449220E+02 0.  0.
        254    2    1    2    0    0  0.32234172872E+03  0.12961874682E+03  0.91487659551E+03  0.13315604980E+04  0.90296675749E+03 0.  0.
         23    2    4    4    0    0  0.11671990213E+03 -0.52158282700E+02 -0.15754476335E+03  0.22079529431E+03  0.87098722864E+02 0.  0.
         23    2    4    4    0    0  0.20562182659E+03  0.18177702952E+03  0.10724213589E+04  0.11107652037E+04  0.91588987788E+02 0.  0.
          2    1    3    3  502    0 -0.29254590864E+01 -0.13628605237E+02 -0.23340182571E+02  0.27185682151E+02  0.00000000000E+00 0. -1.
         -1    1    3    3    0  502 -0.31941626963E+03 -0.11599014158E+03 -0.11559092257E+04  0.12048263793E+04  0.00000000000E+00 0.  1.
         11    1    5    5    0    0  0.19213052278E+02  0.76411791506E+01 -0.79939622175E+02  0.82570407472E+02  0.00000000000E+00 0. -1.
        -11    1    5    5    0    0  0.97506849848E+02 -0.59799461850E+02 -0.77605141173E+02  0.13822488684E+03  0.00000000000E+00 0.  1.
          2    1    6    6  503    0  0.85872978585E+02  0.60255342723E+02  0.58540476321E+03  0.59472986436E+03  0.00000000000E+00 0. -1.
         -2    1    6    6    0  503  0.11974884801E+03  0.12152168679E+03  0.48701659565E+03  0.51603533930E+03  0.00000000000E+00 0.  1.
<mgrwt>
<rscale>  0 0.25499042E+04</rscale>
<asrwt>0</asrwt>
<pdfrwt beam="1">  1        2 0.17686152E+00 0.25499042E+04</pdfrwt>
<pdfrwt beam="2">  1       -1 0.21753426E+00 0.25499042E+04</pdfrwt>
<totfact> 0.23510644E+00</totfact>
</mgrwt>
</event>
<event>
12    6  0.9491186E-008  0.1630586E+04  0.7818608E-02  0.8801975E-01
         -1   -1    0    0    0  501 -0.00000000000E+00  0.00000000000E+00  0.12001359650E+04  0.12001359650E+04  0.00000000000E+00 0.  1.
          2   -1    0    0  501    0  0.00000000000E+00 -0.00000000000E+00 -0.55385583169E+03  0.55385583169E+03  0.00000000000E+00 0. -1.
         24    2    1    2    0    0 -0.54892547838E+03 -0.34778519991E+02  0.20770787416E+03  0.59348235017E+03  0.80932148817E+02 0.  0.
        254    2    1    2    0    0  0.54892547838E+03  0.34778519991E+02  0.43857225913E+03  0.11605094465E+04  0.92298852790E+03 0.  0.
         23    2    4    4    0    0  0.98010126683E+02  0.27075365726E+03  0.55316541419E+03  0.63017226623E+03  0.90617778736E+02 0.  0.
         23    2    4    4    0    0  0.45091535170E+03 -0.23597513726E+03 -0.11459315506E+03  0.53033718025E+03  0.95483054881E+02 0.  0.
          2    1    3    3  502    0 -0.53643315635E+03 -0.43812333923E+02  0.21030631103E+03  0.57784841983E+03  0.00000000000E+00 0. -1.
         -1    1    3    3    0  502 -0.12492322032E+02  0.90338139319E+01 -0.25984368779E+01  0.15633930348E+02  0.00000000000E+00 0.  1.
         11    1    5    5    0    0  0.71834022782E+02  0.25408886778E+03  0.52752628213E+03  0.58991970462E+03  0.00000000000E+00 0. -1.
        -11    1    5    5    0    0  0.26176103900E+02  0.16664789475E+02  0.25639132057E+02  0.40252561612E+02  0.00000000000E+00 0.  1.
          4    1    6    6  503    0  0.40304981007E+03 -0.24064744311E+03 -0.98731800098E+02  0.47969605963E+03  0.00000000000E+00 0. -1.
         -4    1    6    6    0  503  0.47865541629E+02  0.46723058410E+01 -0.15861354959E+02  0.50641120628E+02  0.00000000000E+00 0.  1.
<mgrwt>
<rscale>  0 0.16305855E+04</rscale>
<asrwt>0</asrwt>
<pdfrwt beam="1">  1        2 0.85208590E-01 0.16305855E+04</pdfrwt>
<pdfrwt beam="2">  1       -1 0.18463630E+00 0.16305855E+04</pdfrwt>
<totfact> 0.11507152E+01</totfact>
</mgrwt>
</event>
<event>
12    6  0.9491186E-008  0.1673272E+04  0.7818608E-02  0.8776757E-01
         -1   -1    0    0    0  501 -0.00000000000E+00  0.00000000000E+00  0.34564267331E+03  0.34564267331E+03  0.00000000000E+00 0.  1.
          2   -1    0    0  501    0  0.00000000000E+00 -0.00000000000E+00 -0.20250966930E+04  0.20250966930E+04  0.00000000000E+00 0. -1.
         24    2    1    2    0    0  0.57706314892E+02  0.49597518969E+03 -0.10512490674E+04  0.11667296149E+04  0.82534749501E+02 0.  0.
        254    2    1    2    0    0 -0.57706314892E+02 -0.49597518969E+03 -0.62820495222E+03  0.12040097514E+04  0.89759490411E+03 0.  0.
         23    2    4    4    0    0  0.15819017240E+03  0.12556746014E+03  0.72625278808E+02  0.23810438819E+03  0.10309195344E+03 0.  0.
         23    2    4    4    0    0 -0.21589648729E+03 -0.62154264983E+03 -0.70083023103E+03  0.96590536320E+03  0.94252846963E+02 0.  0.
          4    1    3    3  502    0 -0.66559912153E+01  0.10388599889E+03 -0.15949943972E+03  0.19046436479E+03  0.00000000000E+00 0. -1.
         -3    1    3    3    0  502  0.64362306108E+02  0.39208919080E+03 -0.89174962771E+03  0.97626525008E+03  0.00000000000E+00 0.  1.
         11    1    5    5    0    0  0.77868239299E+02  0.22496833234E+01  0.39108279726E+02  0.87166400119E+02  0.00000000000E+00 0.  1.
        -11    1    5    5    0    0  0.80321933101E+02  0.12331777681E+03  0.33516999082E+02  0.15093798807E+03  0.00000000000E+00 0. -1.
          4    1    6    6  503    0 -0.29102804128E+01 -0.11308461951E+03 -0.10860228636E+03  0.15681536119E+03  0.00000000000E+00 0. -1.
         -4    1    6    6    0  503 -0.21298620688E+03 -0.50845803032E+03 -0.59222794466E+03  0.80909000201E+03  0.00000000000E+00 0.  1.
<mgrwt>
<rscale>  0 0.16732720E+04</rscale>
<asrwt>0</asrwt>
<pdfrwt beam="1">  1        2 0.31155333E+00 0.16732720E+04</pdfrwt>
<pdfrwt beam="2">  1       -1 0.53175796E-01 0.16732720E+04</pdfrwt>
<totfact> 0.25064674E+01</totfact>
</mgrwt>
</event>
<event>
12    6  0.9491186E-008  0.2063447E+04  0.7818608E-02  0.8577519E-01
         -3   -1    0    0    0  501 -0.00000000000E+00  0.00000000000E+00  0.18271136521E+04  0.18271136521E+04  0.00000000000E+00 0.  1.
          4   -1    0    0  501    0  0.00000000000E+00 -0.00000000000E+00 -0.58258714575E+03  0.58258714575E+03  0.00000000000E+00 0. -1.
         24    2    1    2    0    0  0.56421839654E+03 -0.12484839734E+03 -0.19525841062E+03  0.61507502066E+03  0.79132248842E+02 0.  0.
        254    2    1    2    0    0 -0.56421839654E+03  0.12484839734E+03  0.14397849170E+04  0.17946257772E+04  0.90209287313E+03 0.  0.
         23    2    4    4    0    0 -0.16421540413E+03 -0.35034601853E+03  0.82471644871E+03  0.91561432002E+03  0.92104997689E+02 0.  0.
         23    2    4    4    0    0 -0.40000299241E+03  0.47519441587E+03  0.61506846830E+03  0.87901145721E+03  0.92411008008E+02 0.  0.
          2    1    3    3  502    0  0.40481352409E+03 -0.82757109038E+02 -0.10173031453E+03  0.42552530510E+03  0.00000000000E+00 0. -1.
         -1    1    3    3    0  502  0.15940487245E+03 -0.42091288300E+02 -0.93528096088E+02  0.18954971556E+03  0.00000000000E+00 0.  1.
         11    1    5    5    0    0 -0.91230112751E+02 -0.13600331400E+03  0.26102292046E+03  0.30814412196E+03  0.00000000000E+00 0.  1.
        -11    1    5    5    0    0 -0.72985291381E+02 -0.21434270453E+03  0.56369352825E+03  0.60747019807E+03  0.00000000000E+00 0. -1.
          1    1    6    6  503    0 -0.39627345216E+03  0.44405582946E+03  0.59615310030E+03  0.84238752814E+03  0.00000000000E+00 0. -1.
         -1    1    6    6    0  503 -0.37295402483E+01  0.31138586412E+02  0.18915367996E+02  0.36623929071E+02  0.00000000000E+00 0.  1.
<mgrwt>
<rscale>  0 0.20634466E+04</rscale>
<asrwt>0</asrwt>
<pdfrwt beam="1">  1        4 0.89628793E-01 0.20634466E+04</pdfrwt>
<pdfrwt beam="2">  1       -3 0.28109441E+00 0.20634466E+04</pdfrwt>
<totfact> 0.10981802E-01</totfact>
</mgrwt>
</event>
<event>
12    6  0.9491186E-008  0.1435497E+04  0.7818608E-02  0.8928517E-01
         -1   -1    0    0    0  501 -0.00000000000E+00  0.00000000000E+00  0.45162716980E+03  0.45162716980E+03  0.00000000000E+00 0.  1.
          2   -1    0    0  501    0  0.00000000000E+00 -0.00000000000E+00 -0.11406818556E+04  0.11406818556E+04  0.00000000000E+00 0. -1.
         24    2    1    2    0    0 -0.21377601199E+03 -0.20689000646E+02 -0.63308969679E+03  0.67352021195E+03  0.81845547625E+02 0.  0.
        254    2    1    2    0    0  0.21377601199E+03  0.20689000646E+02 -0.55964988994E+02  0.91878881345E+03  0.89157870414E+03 0.  0.
         23    2    4    4    0    0 -0.32134926744E+02  0.42406873780E+03 -0.13027660226E+02  0.43603502618E+03  0.95340842386E+02 0.  0.
         23    2    4    4    0    0  0.24591093873E+03 -0.40337973716E+03 -0.42937328768E+02  0.48275378727E+03  0.89555584886E+02 0.  0.
          2    1    3    3  502    0 -0.21808605952E+03 -0.10585179975E+02 -0.61119270320E+03  0.64902241551E+03  0.00000000000E+00 0. -1.
         -1    1    3    3    0  502  0.43100475263E+01 -0.10103820671E+02 -0.21896993594E+02  0.24497796437E+02  0.00000000000E+00 0.  1.
         11    1    5    5    0    0 -0.24915115110E+02  0.42485730642E+03 -0.55678237645E+01  0.42562365353E+03  0.00000000000E+00 0.  1.
        -11    1    5    5    0    0 -0.72198116339E+01 -0.78856861872E+00 -0.74598364611E+01  0.10411372653E+02  0.00000000000E+00 0. -1.
          3    1    6    6  503    0 -0.38004429365E+01 -0.30019874068E+02 -0.11892511841E+02  0.32512582848E+02  0.00000000000E+00 0. -1.
         -3    1    6    6    0  503  0.24971138167E+03 -0.37335986309E+03 -0.31044816927E+02  0.45024120442E+03  0.00000000000E+00 0.  1.
<mgrwt>
<rscale>  0 0.14354970E+04</rscale>
<asrwt>0</asrwt>
<pdfrwt beam="1">  1        2 0.17548951E+00 0.14354970E+04</pdfrwt>
<pdfrwt beam="2">  1       -1 0.69481104E-01 0.14354970E+04</pdfrwt>
<totfact> 0.47713852E+01</totfact>
</mgrwt>
</event>
<event>
12    6  0.9491186E-008  0.1279879E+04  0.7818608E-02  0.9045676E-01
          2   -1    0    0  501    0  0.00000000000E+00  0.00000000000E+00  0.48892559283E+04  0.48892559283E+04  0.00000000000E+00 0. -1.
         -1   -1    0    0    0  501 -0.00000000000E+00 -0.00000000000E+00 -0.83759639673E+02  0.83759639673E+02  0.00000000000E+00 0.  1.
         24    2    1    2    0    0  0.15625666894E+03  0.27091841980E+03  0.12666384523E+04  0.13071481700E+04  0.80314586030E+02 0.  0.
        254    2    1    2    0    0 -0.15625666894E+03 -0.27091841980E+03  0.35388578364E+04  0.36658673980E+04  0.90402215513E+03 0.  0.
         23    2    4    4    0    0 -0.29278064908E+03 -0.26549929038E+02  0.32106493529E+04  0.32253544231E+04  0.90644803047E+02 0.  0.
         23    2    4    4    0    0  0.13652398013E+03 -0.24436849076E+03  0.32820848349E+03  0.44051297490E+03  0.89309103630E+02 0.  0.
          4    1    3    3  502    0  0.29744819235E+02  0.64363352667E+02  0.44276149004E+03  0.44840286853E+03  0.00000000000E+00 0. -1.
         -3    1    3    3    0  502  0.12651184971E+03  0.20655506713E+03  0.82387696224E+03  0.85874530147E+03  0.00000000000E+00 0.  1.
         11    1    5    5    0    0 -0.31399929315E+02 -0.23439913825E+02  0.23486698848E+03  0.23811318191E+03  0.00000000000E+00 0.  1.
        -11    1    5    5    0    0 -0.26138071976E+03 -0.31100152134E+01  0.29757823644E+04  0.29872412412E+04  0.00000000000E+00 0. -1.
          3    1    6    6  503    0  0.69287855161E+02 -0.10337884646E+03  0.82345578229E+02  0.14922729986E+03  0.00000000000E+00 0. -1.
         -3    1    6    6    0  503  0.67236124973E+02 -0.14098964430E+03  0.24586290527E+03  0.29128567504E+03  0.00000000000E+00 0.  1.
<mgrwt>
<rscale>  0 0.12798786E+04</rscale>
<asrwt>0</asrwt>
<pdfrwt beam="1">  1        2 0.75219300E+00 0.12798786E+04</pdfrwt>
<pdfrwt beam="2">  1       -1 0.12886102E-01 0.12798786E+04</pdfrwt>
<totfact> 0.23579441E+00</totfact>
</mgrwt>
</event>
<event>
12    6  0.9491186E-008  0.1459032E+04  0.7818608E-02  0.8912162E-01
         -1   -1    0    0    0  501 -0.00000000000E+00  0.00000000000E+00  0.18045554959E+03  0.18045554959E+03  0.00000000000E+00 0.  1.
          2   -1    0    0  501    0  0.00000000000E+00 -0.00000000000E+00 -0.29491687881E+04  0.29491687881E+04  0.00000000000E+00 0. -1.
         24    2    1    2    0    0 -0.42214986683E+03  0.53946602156E+02 -0.64394221557E+03  0.77618983565E+03  0.81782259800E+02 0.  0.
        254    2    1    2    0    0  0.42214986683E+03 -0.53946602156E+02 -0.21247710229E+04  0.23534345020E+04  0.91808567655E+03 0.  0.
         23    2    4    4    0    0  0.46571679839E+03  0.27973620809E+03 -0.72310994103E+03  0.90903354384E+03  0.91156538873E+02 0.  0.
         23    2    4    4    0    0 -0.43566931555E+02 -0.33368281025E+03 -0.14016610819E+04  0.14444009582E+04  0.91640843185E+02 0.  0.
          4    1    3    3  502    0 -0.29662903639E+03  0.10518899958E+02 -0.39571225813E+03  0.49465909849E+03  0.00000000000E+00 0. -1.
         -3    1    3    3    0  502 -0.12552083044E+03  0.43427702198E+02 -0.24822995744E+03  0.28153073715E+03  0.00000000000E+00 0.  1.
         11    1    5    5    0    0  0.20237804193E+03  0.76407543831E+02 -0.32174886981E+03  0.38770777634E+03  0.00000000000E+00 0. -1.
        -11    1    5    5    0    0  0.26333875645E+03  0.20332866426E+03 -0.40136107123E+03  0.52132576750E+03  0.00000000000E+00 0.  1.
          1    1    6    6  503    0 -0.51305305225E+02 -0.13260153512E+03 -0.70829054052E+03  0.72242016254E+03  0.00000000000E+00 0. -1.
         -1    1    6    6    0  503  0.77383736710E+01 -0.20108127513E+03 -0.69337054137E+03  0.72198079564E+03  0.00000000000E+00 0.  1.
<mgrwt>
<rscale>  0 0.14590324E+04</rscale>
<asrwt>0</asrwt>
<pdfrwt beam="1">  1        2 0.45371829E+00 0.14590324E+04</pdfrwt>
<pdfrwt beam="2">  1       -1 0.27762392E-01 0.14590324E+04</pdfrwt>
<totfact> 0.24338047E+01</totfact>
</mgrwt>
</event>
<event>
12    6  0.9491186E-008  0.1970075E+04  0.7818608E-02  0.8620741E-01
         -1   -1    0    0    0  501 -0.00000000000E+00  0.00000000000E+00  0.58170176987E+03  0.58170176987E+03  0.00000000000E+00 0.  1.
          2   -1    0    0  501    0  0.00000000000E+00 -0.00000000000E+00 -0.16680343336E+04  0.16680343336E+04  0.00000000000E+00 0. -1.
         24    2    1    2    0    0  0.25184671076E+03 -0.54146304220E+03  0.11114148910E+03  0.61247830126E+03  0.78538188975E+02 0.  0.
        254    2    1    2    0    0 -0.25184671076E+03  0.54146304220E+03 -0.11974740528E+04  0.16372578022E+04  0.94342991891E+03 0.  0.
         23    2    4    4    0    0 -0.10945293930E+03  0.73419972229E+03 -0.11573266763E+04  0.13779756393E+04  0.91556805616E+02 0.  0.
         23    2    4    4    0    0 -0.14239377146E+03 -0.19273668009E+03 -0.40147376557E+02  0.25928216294E+03  0.90509746294E+02 0.  0.
          2    1    3    3  502    0  0.94481388762E+01 -0.40960110950E+02 -0.10259757632E+02  0.43269627268E+02  0.00000000000E+00 0. -1.
         -1    1    3    3    0  502  0.24239857188E+03 -0.50050293125E+03  0.12140124673E+03  0.56920867399E+03  0.00000000000E+00 0.  1.
         11    1    5    5    0    0  0.83605401622E+01  0.36077986300E+02 -0.88414203144E+02  0.95857138726E+02  0.00000000000E+00 0. -1.
        -11    1    5    5    0    0 -0.11781347946E+03  0.69812173599E+03 -0.10689124731E+04  0.12821185005E+04  0.00000000000E+00 0.  1.
          1    1    6    6  503    0  0.42631427098E+01  0.27363758431E+00 -0.14973955367E+02  0.15571403361E+02  0.00000000000E+00 0. -1.
         -1    1    6    6    0  503 -0.14665691417E+03 -0.19301031767E+03 -0.25173421190E+02  0.24371075958E+03  0.00000000000E+00 0.  1.
<mgrwt>
<rscale>  0 0.19700746E+04</rscale>
<asrwt>0</asrwt>
<pdfrwt beam="1">  1        2 0.25662067E+00 0.19700746E+04</pdfrwt>
<pdfrwt beam="2">  1       -1 0.89492580E-01 0.19700746E+04</pdfrwt>
<totfact> 0.13256450E+01</totfact>
</mgrwt>
</event>
<event>
12    6  0.9491186E-008  0.1675247E+04  0.7818608E-02  0.8775609E-01
         -1   -1    0    0    0  501 -0.00000000000E+00  0.00000000000E+00  0.14499010636E+04  0.14499010636E+04  0.00000000000E+00 0.  1.
          2   -1    0    0  501    0  0.00000000000E+00 -0.00000000000E+00 -0.48390392603E+03  0.48390392603E+03  0.00000000000E+00 0. -1.
         24    2    1    2    0    0 -0.43268745622E+03  0.14249972922E+03  0.78509003745E+03  0.91191335790E+03  0.87721136710E+02 0.  0.
        254    2    1    2    0    0  0.43268745622E+03 -0.14249972922E+03  0.18090710008E+03  0.10218916317E+04  0.89666633730E+03 0.  0.
         23    2    4    4    0    0  0.52448960360E+03  0.17062571500E+03  0.33348433243E+03  0.65094213081E+03  0.91166763611E+02 0.  0.
         23    2    4    4    0    0 -0.91802147383E+02 -0.31312544422E+03 -0.15257723235E+03  0.37094950086E+03  0.88591998950E+02 0.  0.
          2    1    3    3  502    0 -0.11339271043E+03  0.15456706411E+02  0.26372560369E+03  0.28748567025E+03  0.00000000000E+00 0. -1.
         -1    1    3    3    0  502 -0.31929474579E+03  0.12704302280E+03  0.52136443375E+03  0.62442768766E+03  0.00000000000E+00 0.  1.
         11    1    5    5    0    0  0.35669099923E+03  0.15758627648E+03  0.24847670717E+03  0.46238790801E+03  0.00000000000E+00 0. -1.
        -11    1    5    5    0    0  0.16779860437E+03  0.13039438527E+02  0.85007625253E+02  0.18855422280E+03  0.00000000000E+00 0.  1.
          2    1    6    6  503    0 -0.87042590941E+02 -0.31732848483E+03 -0.14150621516E+03  0.35818680720E+03  0.00000000000E+00 0. -1.
         -2    1    6    6    0  503 -0.47595564418E+01  0.42030406118E+01 -0.11071017193E+02  0.12762693666E+02  0.00000000000E+00 0.  1.
<mgrwt>
<rscale>  0 0.16752466E+04</rscale>
<asrwt>0</asrwt>
<pdfrwt beam="1">  1        2 0.74446759E-01 0.16752466E+04</pdfrwt>
<pdfrwt beam="2">  1       -1 0.22306170E+00 0.16752466E+04</pdfrwt>
<totfact> 0.73175111E+00</totfact>
</mgrwt>
</event>
<event>
12    6  0.9491186E-008  0.2809571E+04  0.7818608E-02  0.8300303E-01
          2   -1    0    0  501    0  0.00000000000E+00  0.00000000000E+00  0.20078808848E+04  0.20078808848E+04  0.00000000000E+00 0. -1.
         -1   -1    0    0    0  501 -0.00000000000E+00 -0.00000000000E+00 -0.98283808070E+03  0.98283808070E+03  0.00000000000E+00 0.  1.
         24    2    1    2    0    0 -0.69575344720E+03  0.63865569354E+03  0.13480369895E+04  0.16477387510E+04  0.76715787948E+02 0.  0.
        254    2    1    2    0    0  0.69575344720E+03 -0.63865569354E+03 -0.32299418542E+03  0.13429802145E+04  0.89850801812E+03 0.  0.
         23    2    4    4    0    0  0.35749621155E+03 -0.75908956140E+03 -0.44348622925E+03  0.95347313790E+03  0.91708699972E+02 0.  0.
         23    2    4    4    0    0  0.33825723565E+03  0.12043386786E+03  0.12049204383E+03  0.38950707663E+03  0.90967885110E+02 0.  0.
          2    1    3    3  502    0 -0.56633975364E+03  0.55291920231E+03  0.11515175146E+04  0.13973020244E+04  0.00000000000E+00 0. -1.
         -1    1    3    3    0  502 -0.12941369356E+03  0.85736491228E+02  0.19651947489E+03  0.25043672658E+03  0.00000000000E+00 0.  1.
         11    1    5    5    0    0  0.32184288366E+02 -0.10273879537E+03 -0.88894287313E+02  0.13961834696E+03  0.00000000000E+00 0. -1.
        -11    1    5    5    0    0  0.32531192319E+03 -0.65635076603E+03 -0.35459194194E+03  0.81385479093E+03  0.00000000000E+00 0.  1.
          1    1    6    6  503    0  0.54122394700E+02 -0.59396790799E+01  0.42051569312E+02  0.68795696647E+02  0.00000000000E+00 0. -1.
         -1    1    6    6    0  503  0.28413484095E+03  0.12637354694E+03  0.78440474522E+02  0.32071137998E+03  0.00000000000E+00 0.  1.
<mgrwt>
<rscale>  0 0.28095706E+04</rscale>
<asrwt>0</asrwt>
<pdfrwt beam="1">  1        2 0.30890475E+00 0.28095706E+04</pdfrwt>
<pdfrwt beam="2">  1       -1 0.15120586E+00 0.28095706E+04</pdfrwt>
<totfact> 0.22336149E+00</totfact>
</mgrwt>
</event>
<event>
12    6  0.9491186E-008  0.2355196E+04  0.7818608E-02  0.8456471E-01
          2   -1    0    0  501    0  0.00000000000E+00  0.00000000000E+00  0.94545876879E+03  0.94545876879E+03  0.00000000000E+00 0. -1.
         -1   -1    0    0    0  501 -0.00000000000E+00 -0.00000000000E+00 -0.14667346210E+04  0.14667346210E+04  0.00000000000E+00 0.  1.
         24    2    1    2    0    0 -0.75631412462E+03 -0.52070746062E+03 -0.63796921042E+03  0.11209901150E+04  0.80416477141E+02 0.  0.
        254    2    1    2    0    0  0.75631412462E+03  0.52070746062E+03  0.11669335823E+03  0.12912032748E+04  0.90024510126E+03 0.  0.
         23    2    4    4    0    0  0.18876125871E+03 -0.13985949249E+03 -0.23586254769E+03  0.34687733565E+03  0.97474376934E+02 0.  0.
         23    2    4    4    0    0  0.56755286591E+03  0.66056695311E+03  0.35255590591E+03  0.94432593914E+03  0.94820131819E+02 0.  0.
          2    1    3    3  502    0 -0.71266635766E+03 -0.50192220689E+03 -0.62206728559E+03  0.10708813879E+04  0.00000000000E+00 0. -1.
         -1    1    3    3    0  502 -0.43647766958E+02 -0.18785253724E+02 -0.15901924834E+02  0.50108727097E+02  0.00000000000E+00 0.  1.
         11    1    5    5    0    0  0.18094214707E+03 -0.11849388916E+03 -0.24071755053E+03  0.32361366085E+03  0.00000000000E+00 0. -1.
        -11    1    5    5    0    0  0.78191116411E+01 -0.21365603337E+02  0.48550028459E+01  0.23263674805E+02  0.00000000000E+00 0.  1.
          4    1    6    6  503    0  0.52269190442E+03  0.60809971227E+03  0.35087435162E+03  0.87527418427E+03  0.00000000000E+00 0. -1.
         -4    1    6    6    0  503  0.44860961484E+02  0.52467240838E+02  0.16815542899E+01  0.69051754874E+02  0.00000000000E+00 0.  1.
<mgrwt>
<rscale>  0 0.23551961E+04</rscale>
<asrwt>0</asrwt>
<pdfrwt beam="1">  1        2 0.14545520E+00 0.23551961E+04</pdfrwt>
<pdfrwt beam="2">  1       -1 0.22565148E+00 0.23551961E+04</pdfrwt>
<totfact> 0.28385526E+00</totfact>
</mgrwt>
</event>
<event>
12    6  0.9491186E-008  0.1245167E+04  0.7818608E-02  0.9074216E-01
         -1   -1    0    0    0  501 -0.00000000000E+00  0.00000000000E+00  0.19939926567E+03  0.19939926567E+03  0.00000000000E+00 0.  1.
          2   -1    0    0  501    0  0.00000000000E+00 -0.00000000000E+00 -0.19438885257E+04  0.19438885257E+04  0.00000000000E+00 0. -1.
         24    2    1    2    0    0  0.16258469924E+03  0.11134565937E+02 -0.92789783306E+01  0.18181580339E+03  0.80081982621E+02 0.  0.
        254    2    1    2    0    0 -0.16258469924E+03 -0.11134565937E+02 -0.17352102817E+04  0.19614719880E+04  0.89992214936E+03 0.  0.
         23    2    4    4    0    0 -0.50137414679E+03 -0.10845133331E+03 -0.76991977165E+03  0.92961119534E+03  0.90899906268E+02 0.  0.
         23    2    4    4    0    0  0.33878944755E+03  0.97316767373E+02 -0.96529051007E+03  0.10318607927E+04  0.93284959144E+02 0.  0.
          4    1    3    3  502    0  0.43209807395E+01  0.21736555384E+02 -0.67868630295E+01  0.23177795932E+02  0.00000000000E+00 0. -1.
         -3    1    3    3    0  502  0.15826371850E+03 -0.10601989447E+02 -0.24921153011E+01  0.15863800746E+03  0.00000000000E+00 0.  1.
         11    1    5    5    0    0 -0.10978432864E+03  0.12357457924E+02 -0.18352494091E+03  0.21421183328E+03  0.00000000000E+00 0.  1.
        -11    1    5    5    0    0 -0.39158981815E+03 -0.12080879123E+03 -0.58639483074E+03  0.71539936206E+03  0.00000000000E+00 0. -1.
          3    1    6    6  503    0  0.26832708199E+03  0.38266617686E+02 -0.76133777354E+03  0.80814538443E+03  0.00000000000E+00 0. -1.
         -3    1    6    6    0  503  0.70462365563E+02  0.59050149686E+02 -0.20395273653E+03  0.22371540822E+03  0.00000000000E+00 0.  1.
<mgrwt>
<rscale>  0 0.12451666E+04</rscale>
<asrwt>0</asrwt>
<pdfrwt beam="1">  1        2 0.29905976E+00 0.12451666E+04</pdfrwt>
<pdfrwt beam="2">  1       -1 0.30676811E-01 0.12451666E+04</pdfrwt>
<totfact> 0.78997708E+01</totfact>
</mgrwt>
</event>
<event>
12    6  0.9491186E-008  0.1527298E+04  0.7818608E-02  0.8866500E-01
         -1   -1    0    0    0  501 -0.00000000000E+00  0.00000000000E+00  0.35429982602E+03  0.35429982602E+03  0.00000000000E+00 0.  1.
          2   -1    0    0  501    0  0.00000000000E+00 -0.00000000000E+00 -0.16459499157E+04  0.16459499157E+04  0.00000000000E+00 0. -1.
         24    2    1    2    0    0 -0.38063203512E+03 -0.23222033839E+03 -0.70721560712E+03  0.83980031015E+03  0.79395303812E+02 0.  0.
        254    2    1    2    0    0  0.38063203512E+03  0.23222033839E+03 -0.58443448255E+03  0.11604494316E+04  0.89792660450E+03 0.  0.
         23    2    4    4    0    0 -0.18263036666E+02  0.14064611981E+03 -0.70497162143E+03  0.72514914962E+03  0.93495629037E+02 0.  0.
         23    2    4    4    0    0  0.39889507178E+03  0.91574218576E+02  0.12053713888E+03  0.43530028193E+03  0.86336653851E+02 0.  0.
          2    1    3    3  502    0 -0.35962907565E+03 -0.19679879199E+03 -0.61897517836E+03  0.74242380620E+03  0.00000000000E+00 0. -1.
         -1    1    3    3    0  502 -0.21002959461E+02 -0.35421546399E+02 -0.88240428753E+02  0.97376503953E+02  0.00000000000E+00 0.  1.
         11    1    5    5    0    0  0.12992343542E+02  0.13313427550E+03 -0.62079978884E+03  0.63504796207E+03  0.00000000000E+00 0.  1.
        -11    1    5    5    0    0 -0.31255380208E+02  0.75118443103E+01 -0.84171832593E+02  0.90101187556E+02  0.00000000000E+00 0. -1.
          4    1    6    6  503    0  0.57491067737E+02  0.41953074088E+02  0.44826767590E+01  0.71311834122E+02  0.00000000000E+00 0. -1.
         -4    1    6    6    0  503  0.34140400404E+03  0.49621144487E+02  0.11605446212E+03  0.36398844781E+03  0.00000000000E+00 0.  1.
<mgrwt>
<rscale>  0 0.15272980E+04</rscale>
<asrwt>0</asrwt>
<pdfrwt beam="1">  1        2 0.25322306E+00 0.15272980E+04</pdfrwt>
<pdfrwt beam="2">  1       -1 0.54507666E-01 0.15272980E+04</pdfrwt>
<totfact> 0.39256664E+01</totfact>
</mgrwt>
</event>
<event>
12    6  0.9491186E-008  0.1855640E+04  0.7818608E-02  0.8677258E-01
         -1   -1    0    0    0  501 -0.00000000000E+00  0.00000000000E+00  0.44452566958E+03  0.44452566958E+03  0.00000000000E+00 0.  1.
          2   -1    0    0  501    0  0.00000000000E+00 -0.00000000000E+00 -0.19365584360E+04  0.19365584360E+04  0.00000000000E+00 0. -1.
         24    2    1    2    0    0  0.55711746535E+01 -0.41343762270E+03  0.16197430298E+03  0.45106353001E+03  0.79126022477E+02 0.  0.
        254    2    1    2    0    0 -0.55711746535E+01  0.41343762270E+03 -0.16540070694E+04  0.19300205756E+04  0.90458738146E+03 0.  0.
         23    2    4    4    0    0  0.10425110219E+03  0.57994404929E+03 -0.57377620226E+03  0.82752337628E+03  0.91500903817E+02 0.  0.
         23    2    4    4    0    0 -0.10982227684E+03 -0.16650642659E+03 -0.10802308672E+04  0.11024971993E+04  0.93893692803E+02 0.  0.
          2    1    3    3  502    0 -0.11417817442E+02 -0.21582146529E+03  0.44881006459E+02  0.22073417537E+03  0.00000000000E+00 0. -1.
         -1    1    3    3    0  502  0.16988992096E+02 -0.19761615741E+03  0.11709329652E+03  0.23032935465E+03  0.00000000000E+00 0.  1.
         11    1    5    5    0    0  0.10990978545E+03  0.46234050961E+03 -0.42292999277E+03  0.63616718443E+03  0.00000000000E+00 0. -1.
        -11    1    5    5    0    0 -0.56586832660E+01  0.11760353968E+03 -0.15084620949E+03  0.19135619185E+03  0.00000000000E+00 0.  1.
          3    1    6    6  503    0 -0.12217145023E+03 -0.13482335080E+03 -0.81290446585E+03  0.83301672838E+03  0.00000000000E+00 0. -1.
         -3    1    6    6    0  503  0.12349173393E+02 -0.31683075794E+02 -0.26732640132E+03  0.26948047094E+03  0.00000000000E+00 0.  1.
<mgrwt>
<rscale>  0 0.18556400E+04</rscale>
<asrwt>0</asrwt>
<pdfrwt beam="1">  1        2 0.29793206E+00 0.18556400E+04</pdfrwt>
<pdfrwt beam="2">  1       -1 0.68388565E-01 0.18556400E+04</pdfrwt>
<totfact> 0.16785483E+01</totfact>
</mgrwt>
</event>
<event>
12    6  0.9491186E-008  0.1306344E+04  0.7818608E-02  0.9024550E-01
          2   -1    0    0  501    0  0.00000000000E+00  0.00000000000E+00  0.17467881123E+04  0.17467881123E+04  0.00000000000E+00 0. -1.
         -1   -1    0    0    0  501 -0.00000000000E+00 -0.00000000000E+00 -0.24423883608E+03  0.24423883608E+03  0.00000000000E+00 0.  1.
         24    2    1    2    0    0 -0.14311739670E+03 -0.13309512141E+03  0.80597258238E+03  0.83304200007E+03  0.78551064583E+02 0.  0.
        254    2    1    2    0    0  0.14311739670E+03  0.13309512141E+03  0.69657669388E+03  0.11579849484E+04  0.90416433771E+03 0.  0.
         23    2    4    4    0    0 -0.47988838261E+02 -0.29860684738E+03  0.24789824639E+01  0.31389200371E+03  0.83982538295E+02 0.  0.
         23    2    4    4    0    0  0.19110623496E+03  0.43170196880E+03  0.69409771142E+03  0.84409294465E+03  0.88504707832E+02 0.  0.
          4    1    3    3  502    0 -0.12139282561E+03 -0.97914739298E+02  0.73072161501E+03  0.74717975945E+03  0.00000000000E+00 0. -1.
         -3    1    3    3    0  502 -0.21724571080E+02 -0.35180382115E+02  0.75250967367E+02  0.85862240618E+02  0.00000000000E+00 0.  1.
         11    1    5    5    0    0 -0.68075533941E+01  0.43783416009E+01  0.58508372227E+00  0.81151082155E+01  0.00000000000E+00 0.  1.
        -11    1    5    5    0    0 -0.41181284867E+02 -0.30298518898E+03  0.18938987416E+01  0.30577689550E+03  0.00000000000E+00 0. -1.
          3    1    6    6  503    0  0.14832502427E+03  0.39925728821E+03  0.63021667947E+03  0.76064430459E+03  0.00000000000E+00 0. -1.
         -3    1    6    6    0  503  0.42781210682E+02  0.32444680586E+02  0.63881031941E+02  0.83448640058E+02  0.00000000000E+00 0.  1.
<mgrwt>
<rscale>  0 0.13063437E+04</rscale>
<asrwt>0</asrwt>
<pdfrwt beam="1">  1        2 0.26873662E+00 0.13063437E+04</pdfrwt>
<pdfrwt beam="2">  1       -1 0.37575207E-01 0.13063437E+04</pdfrwt>
<totfact> 0.70379142E+01</totfact>
</mgrwt>
</event>
<event>
12    6  0.9491186E-008  0.3948558E+04  0.7818608E-02  0.8015005E-01
         -1   -1    0    0    0  501 -0.00000000000E+00  0.00000000000E+00  0.17982939742E+04  0.17982939742E+04  0.00000000000E+00 0.  1.
          2   -1    0    0  501    0  0.00000000000E+00 -0.00000000000E+00 -0.21674866129E+04  0.21674866129E+04  0.00000000000E+00 0. -1.
         24    2    1    2    0    0  0.30616056022E+03 -0.11704057460E+04  0.12590027559E+04  0.17478888715E+04  0.80272466525E+02 0.  0.
        254    2    1    2    0    0 -0.30616056022E+03  0.11704057460E+04 -0.16281953946E+04  0.22178917156E+04  0.89690552461E+03 0.  0.
         23    2    4    4    0    0 -0.20977586138E+03  0.79796595855E+03 -0.16227805040E+04  0.18225369820E+04  0.86422818195E+02 0.  0.
         23    2    4    4    0    0 -0.96384698844E+02  0.37243978749E+03 -0.54148906254E+01  0.39535473363E+03  0.90965042105E+02 0.  0.
          4    1    3    3  502    0  0.72651468393E+02 -0.42863893635E+03  0.45840283517E+03  0.63177743937E+03  0.00000000000E+00 0. -1.
         -3    1    3    3    0  502  0.23350909183E+03 -0.74176680969E+03  0.80059992071E+03  0.11161114321E+04  0.00000000000E+00 0.  1.
         11    1    5    5    0    0 -0.93918828414E+02  0.21262911649E+03 -0.48237744118E+03  0.53546230799E+03  0.00000000000E+00 0. -1.
        -11    1    5    5    0    0 -0.11585703297E+03  0.58533684206E+03 -0.11404030628E+04  0.12870746740E+04  0.00000000000E+00 0.  1.
          1    1    6    6  503    0 -0.10095744147E+03  0.34756931692E+03  0.15897875908E+02  0.36228383556E+03  0.00000000000E+00 0.  1.
         -1    1    6    6    0  503  0.45727426282E+01  0.24870470574E+02 -0.21312766533E+02  0.33070898068E+02  0.00000000000E+00 0. -1.
<mgrwt>
<rscale>  0 0.39485583E+04</rscale>
<asrwt>0</asrwt>
<pdfrwt beam="1">  1        2 0.33345948E+00 0.39485583E+04</pdfrwt>
<pdfrwt beam="2">  1       -1 0.27666061E+00 0.39485583E+04</pdfrwt>
<totfact> 0.22699332E-01</totfact>
</mgrwt>
</event>
<event>
12    6  0.9491186E-008  0.2243818E+04  0.7818608E-02  0.8500408E-01
          2   -1    0    0  501    0  0.00000000000E+00  0.00000000000E+00  0.11085328691E+04  0.11085328691E+04  0.00000000000E+00 0. -1.
         -1   -1    0    0    0  501 -0.00000000000E+00 -0.00000000000E+00 -0.11354468331E+04  0.11354468331E+04  0.00000000000E+00 0.  1.
         24    2    1    2    0    0  0.86295536002E+03 -0.25884762285E+03 -0.27815639922E+03  0.94630155791E+03  0.80134953818E+02 0.  0.
        254    2    1    2    0    0 -0.86295536002E+03  0.25884762285E+03  0.25124243518E+03  0.12976781443E+04  0.89952863195E+03 0.  0.
         23    2    4    4    0    0 -0.95328802389E+03  0.43223017986E+03  0.25629757947E+03  0.10818860076E+04  0.95957800124E+02 0.  0.
         23    2    4    4    0    0  0.90332663866E+02 -0.17338255701E+03 -0.50551442915E+01  0.21579213666E+03  0.91209596675E+02 0.  0.
          2    1    3    3  502    0  0.12543348582E+03 -0.13682301874E+02 -0.22779595928E+02  0.12821729502E+03  0.00000000000E+00 0. -1.
         -1    1    3    3    0  502  0.73752187420E+03 -0.24516532098E+03 -0.25537680330E+03  0.81808426289E+03  0.00000000000E+00 0.  1.
         11    1    5    5    0    0 -0.36467073198E+02  0.39114274189E+02  0.10407156035E+02  0.54480113525E+02  0.00000000000E+00 0.  1.
        -11    1    5    5    0    0 -0.91682095069E+03  0.39311590567E+03  0.24589042344E+03  0.10274058941E+04  0.00000000000E+00 0. -1.
          1    1    6    6  503    0  0.10838832418E+03 -0.13846235357E+03 -0.10247639858E+02  0.17613877000E+03  0.00000000000E+00 0. -1.
         -1    1    6    6    0  503 -0.18055660313E+02 -0.34920203431E+02  0.51924955667E+01  0.39653366657E+02  0.00000000000E+00 0.  1.
<mgrwt>
<rscale>  0 0.22438183E+04</rscale>
<asrwt>0</asrwt>
<pdfrwt beam="1">  1        2 0.17054352E+00 0.22438183E+04</pdfrwt>
<pdfrwt beam="2">  1       -1 0.17468413E+00 0.22438183E+04</pdfrwt>
<totfact> 0.50824315E+00</totfact>
</mgrwt>
</event>
<event>
12    6  0.9491186E-008  0.1267230E+04  0.7818608E-02  0.9055963E-01
         -1   -1    0    0    0  501 -0.00000000000E+00  0.00000000000E+00  0.31466169604E+03  0.31466169604E+03  0.00000000000E+00 0.  1.
          2   -1    0    0  501    0  0.00000000000E+00 -0.00000000000E+00 -0.12758721543E+04  0.12758721543E+04  0.00000000000E+00 0. -1.
         24    2    1    2    0    0  0.16113165769E+02  0.20002994337E+01 -0.62513658054E+03  0.63026240799E+03  0.78557770446E+02 0.  0.
        254    2    1    2    0    0 -0.16113165769E+02 -0.20002994337E+01 -0.33607387768E+03  0.96027144231E+03  0.89939532818E+03 0.  0.
         23    2    4    4    0    0  0.13575490567E+03  0.21650127179E+03 -0.54573075109E+03  0.60944570957E+03  0.91103376025E+02 0.  0.
         23    2    4    4    0    0 -0.15186807144E+03 -0.21850157123E+03  0.20965687341E+03  0.35082573274E+03  0.91191240998E+02 0.  0.
          4    1    3    3  502    0 -0.63602496140E+01 -0.21220791751E+02 -0.51516725237E+03  0.51564335804E+03  0.00000000000E+00 0. -1.
         -3    1    3    3    0  502  0.22473415383E+02  0.23221091185E+02 -0.10996932816E+03  0.11461904995E+03  0.00000000000E+00 0.  1.
         11    1    5    5    0    0  0.24468533186E+02  0.44069997836E+01 -0.20662245492E+02  0.32327374656E+02  0.00000000000E+00 0. -1.
        -11    1    5    5    0    0  0.11128637248E+03  0.21209427201E+03 -0.52506850560E+03  0.57711833491E+03  0.00000000000E+00 0.  1.
          3    1    6    6  503    0  0.95845876555E+01 -0.26815829660E+02  0.36088826724E+02  0.45971256837E+02  0.00000000000E+00 0. -1.
         -3    1    6    6    0  503 -0.16145265909E+03 -0.19168574157E+03  0.17356804668E+03  0.30485447590E+03  0.00000000000E+00 0.  1.
<mgrwt>
<rscale>  0 0.12672302E+04</rscale>
<asrwt>0</asrwt>
<pdfrwt beam="1">  1        2 0.19628802E+00 0.12672302E+04</pdfrwt>
<pdfrwt beam="2">  1       -1 0.48409492E-01 0.12672302E+04</pdfrwt>
<totfact> 0.81599666E+01</totfact>
</mgrwt>
</event>
<event>
12    6  0.9491186E-008  0.1355372E+04  0.7818608E-02  0.8986771E-01
          2   -1    0    0  501    0  0.00000000000E+00  0.00000000000E+00  0.78127154335E+03  0.78127154335E+03  0.00000000000E+00 0. -1.
         -1   -1    0    0    0  501 -0.00000000000E+00 -0.00000000000E+00 -0.58783448824E+03  0.58783448824E+03  0.00000000000E+00 0.  1.
         24    2    1    2    0    0 -0.21542332352E+03  0.30120618252E+03 -0.14836022556E+02  0.37961620937E+03  0.82194806107E+02 0.  0.
        254    2    1    2    0    0  0.21542332352E+03 -0.30120618252E+03  0.20827307767E+03  0.98948982222E+03  0.89363306827E+03 0.  0.
         23    2    4    4    0    0 -0.70211440146E+02  0.84792784624E+02  0.42914834458E+03  0.45318956515E+03  0.95357315712E+02 0.  0.
         23    2    4    4    0    0  0.28563476366E+03 -0.38599896715E+03 -0.22087526691E+03  0.53630025707E+03  0.90827646391E+02 0.  0.
          4    1    3    3  502    0 -0.19638958364E+03  0.29499598665E+03  0.51155496355E+00  0.35438928087E+03  0.00000000000E+00 0. -1.
         -3    1    3    3    0  502 -0.19033739874E+02  0.62101958699E+01 -0.15347577519E+02  0.25226928510E+02  0.00000000000E+00 0.  1.
         11    1    5    5    0    0 -0.35858888059E+02 -0.71311541451E+01  0.52562041231E+02  0.64027192587E+02  0.00000000000E+00 0. -1.
        -11    1    5    5    0    0 -0.34352552087E+02  0.91923938769E+02  0.37658630335E+03  0.38916237257E+03  0.00000000000E+00 0.  1.
          4    1    6    6  503    0  0.60377960960E+02 -0.12044103757E+03 -0.25865125252E+02  0.13718799658E+03  0.00000000000E+00 0. -1.
         -4    1    6    6    0  503  0.22525680270E+03 -0.26555792957E+03 -0.19501014166E+03  0.39911226049E+03  0.00000000000E+00 0.  1.
<mgrwt>
<rscale>  0 0.13553721E+04</rscale>
<asrwt>0</asrwt>
<pdfrwt beam="1">  1        2 0.12019562E+00 0.13553721E+04</pdfrwt>
<pdfrwt beam="2">  1       -1 0.90436075E-01 0.13553721E+04</pdfrwt>
<totfact> 0.47381473E+01</totfact>
</mgrwt>
</event>
<event>
12    6  0.9491186E-008  0.1367848E+04  0.7818608E-02  0.8977427E-01
         -1   -1    0    0    0  501 -0.00000000000E+00  0.00000000000E+00  0.19091024662E+03  0.19091024662E+03  0.00000000000E+00 0.  1.
          2   -1    0    0  501    0  0.00000000000E+00 -0.00000000000E+00 -0.24501135885E+04  0.24501135885E+04  0.00000000000E+00 0. -1.
         24    2    1    2    0    0 -0.10721673875E+03 -0.34468848297E+01 -0.12687931940E+04  0.12757956544E+04  0.79442260656E+02 0.  0.
        254    2    1    2    0    0  0.10721673875E+03  0.34468848297E+01 -0.99041014794E+03  0.13652281807E+04  0.93350330162E+03 0.  0.
         23    2    4    4    0    0 -0.14639615116E+03 -0.17930910825E+03 -0.10089829646E+04  0.10393839810E+04  0.93213989188E+02 0.  0.
         23    2    4    4    0    0  0.25361288991E+03  0.18275599308E+03  0.18572816652E+02  0.32584419968E+03  0.90056882081E+02 0.  0.
          4    1    3    3  502    0 -0.32250435563E+02 -0.36613297767E+02 -0.60396393122E+03  0.60593155916E+03  0.00000000000E+00 0. -1.
         -3    1    3    3    0  502 -0.74966303191E+02  0.33166412937E+02 -0.66482926273E+03  0.66986409528E+03  0.00000000000E+00 0.  1.
         11    1    5    5    0    0 -0.10113123879E+03 -0.11820641824E+03 -0.83708794009E+03  0.85142028647E+03  0.00000000000E+00 0. -1.
        -11    1    5    5    0    0 -0.45264912362E+02 -0.61102690013E+02 -0.17189502451E+03  0.18796369455E+03  0.00000000000E+00 0.  1.
          1    1    6    6  503    0  0.24880893566E+03  0.15123618983E+03  0.28223740450E+02  0.29253179503E+03  0.00000000000E+00 0. -1.
         -1    1    6    6    0  503  0.48039542505E+01  0.31519803248E+02 -0.96509237979E+01  0.33312404647E+02  0.00000000000E+00 0.  1.
<mgrwt>
<rscale>  0 0.13678476E+04</rscale>
<asrwt>0</asrwt>
<pdfrwt beam="1">  1        2 0.37694054E+00 0.13678476E+04</pdfrwt>
<pdfrwt beam="2">  1       -1 0.29370808E-01 0.13678476E+04</pdfrwt>
<totfact> 0.43933022E+01</totfact>
</mgrwt>
</event>
<event>
12    6  0.9491186E-008  0.2586114E+04  0.7818608E-02  0.8372933E-01
         -1   -1    0    0    0  501 -0.00000000000E+00  0.00000000000E+00  0.13064112454E+04  0.13064112454E+04  0.00000000000E+00 0.  1.
          2   -1    0    0  501    0  0.00000000000E+00 -0.00000000000E+00 -0.12798388963E+04  0.12798388963E+04  0.00000000000E+00 0. -1.
         24    2    1    2    0    0  0.17048079641E+03 -0.11121290856E+04 -0.12723690131E+03  0.11351529140E+04  0.80548768944E+02 0.  0.
        254    2    1    2    0    0 -0.17048079641E+03  0.11121290856E+04  0.15380925048E+03  0.14510972277E+04  0.90339973086E+03 0.  0.
         23    2    4    4    0    0 -0.73570413942E+02 -0.76749081279E+02 -0.15990155840E+03  0.21443948630E+03  0.95460764834E+02 0.  0.
         23    2    4    4    0    0 -0.96910382465E+02  0.11888781669E+04  0.31371080888E+03  0.12366577414E+04  0.89916515976E+02 0.  0.
          4    1    3    3  502    0  0.15713351077E+03 -0.10951016084E+04 -0.12620903363E+03  0.11134932389E+04  0.00000000000E+00 0. -1.
         -3    1    3    3    0  502  0.13347285635E+02 -0.17027477152E+02 -0.10278676781E+01  0.21659675066E+02  0.00000000000E+00 0.  1.
         11    1    5    5    0    0  0.47871823773E+00  0.16164958649E+02 -0.50152400675E+02  0.52695335208E+02  0.00000000000E+00 0. -1.
        -11    1    5    5    0    0 -0.74049132180E+02 -0.92914039928E+02 -0.10974915773E+03  0.16174415110E+03  0.00000000000E+00 0.  1.
          4    1    6    6  503    0 -0.62487069120E+02  0.35611207818E+03  0.69850916249E+02  0.36823850496E+03  0.00000000000E+00 0. -1.
         -4    1    6    6    0  503 -0.34423313346E+02  0.83276608868E+03  0.24385989263E+03  0.86841923642E+03  0.00000000000E+00 0.  1.
<mgrwt>
<rscale>  0 0.25861136E+04</rscale>
<asrwt>0</asrwt>
<pdfrwt beam="1">  1        2 0.19689829E+00 0.25861136E+04</pdfrwt>
<pdfrwt beam="2">  1       -1 0.20098635E+00 0.25861136E+04</pdfrwt>
<totfact> 0.25396457E+00</totfact>
</mgrwt>
</event>
<event>
12    6  0.9491186E-008  0.1229680E+04  0.7818608E-02  0.9087267E-01
         -1   -1    0    0    0  501 -0.00000000000E+00  0.00000000000E+00  0.19326841150E+03  0.19326841150E+03  0.00000000000E+00 0.  1.
          2   -1    0    0  501    0  0.00000000000E+00 -0.00000000000E+00 -0.19559742134E+04  0.19559742134E+04  0.00000000000E+00 0. -1.
         24    2    1    2    0    0 -0.58717740816E+02 -0.21018726333E+03 -0.10226398795E+03  0.25453417658E+03  0.81873469829E+02 0.  0.
        254    2    1    2    0    0  0.58717740816E+02  0.21018726333E+03 -0.16604418139E+04  0.18947084483E+04  0.88613014161E+03 0.  0.
         23    2    4    4    0    0  0.20545133548E+03 -0.21158507252E+03 -0.12302947439E+04  0.12679780927E+04  0.84645097098E+02 0.  0.
         23    2    4    4    0    0 -0.14673359466E+03  0.42177233585E+03 -0.43014706999E+03  0.62673035560E+03  0.91333376771E+02 0.  0.
          2    1    3    3  502    0 -0.12353952803E+01 -0.14462671187E+02 -0.37971559153E+02  0.40651375916E+02  0.00000000000E+00 0. -1.
         -1    1    3    3    0  502 -0.57482345536E+02 -0.19572459215E+03 -0.64292428796E+02  0.21388280066E+03  0.00000000000E+00 0.  1.
         11    1    5    5    0    0 -0.30677243416E+01 -0.24416054304E+02 -0.65918966123E+02  0.70362381534E+02  0.00000000000E+00 0. -1.
        -11    1    5    5    0    0  0.20851905982E+03 -0.18716901821E+03 -0.11643757778E+04  0.11976157112E+04  0.00000000000E+00 0.  1.
          3    1    6    6  503    0 -0.41634991827E+02  0.23614913725E+03 -0.19343596073E+03  0.30808660872E+03  0.00000000000E+00 0. -1.
         -3    1    6    6    0  503 -0.10509860283E+03  0.18562319860E+03 -0.23671110926E+03  0.31864374688E+03  0.00000000000E+00 0.  1.
<mgrwt>
<rscale>  0 0.12296797E+04</rscale>
<asrwt>0</asrwt>
<pdfrwt beam="1">  1        2 0.30091913E+00 0.12296797E+04</pdfrwt>
<pdfrwt beam="2">  1       -1 0.29733600E-01 0.12296797E+04</pdfrwt>
<totfact> 0.82274142E+01</totfact>
</mgrwt>
</event>
<event>
12    6  0.9491186E-008  0.1714516E+04  0.7818608E-02  0.8753128E-01
          2   -1    0    0  501    0  0.00000000000E+00  0.00000000000E+00  0.31482245931E+04  0.31482245931E+04  0.00000000000E+00 0. -1.
         -1   -1    0    0    0  501 -0.00000000000E+00 -0.00000000000E+00 -0.23343046582E+03  0.23343046582E+03  0.00000000000E+00 0.  1.
         24    2    1    2    0    0 -0.17889849666E+03  0.53904224185E+03  0.15313910494E+04  0.16352745147E+04  0.79956123063E+02 0.  0.
        254    2    1    2    0    0  0.17889849666E+03 -0.53904224185E+03  0.13834030779E+04  0.17463805442E+04  0.90192556165E+03 0.  0.
         23    2    4    4    0    0  0.42421960433E+03 -0.60396949181E+03  0.74545404450E+03  0.10531730343E+04  0.93436009868E+02 0.  0.
         23    2    4    4    0    0 -0.24532110766E+03  0.64927249962E+02  0.63794903335E+03  0.69320750993E+03  0.95706264220E+02 0.  0.
          2    1    3    3  502    0 -0.17330044512E+03  0.52463228135E+03  0.14357486497E+04  0.15383908022E+04  0.00000000000E+00 0. -1.
         -1    1    3    3    0  502 -0.55980515472E+01  0.14409960494E+02  0.95642399691E+02  0.96883712570E+02  0.00000000000E+00 0.  1.
         11    1    5    5    0    0  0.31648738559E+02 -0.16852566599E+02  0.53674161788E+02  0.64548952718E+02  0.00000000000E+00 0.  1.
        -11    1    5    5    0    0  0.39257086577E+03 -0.58711692521E+03  0.69177988272E+03  0.98862408156E+03  0.00000000000E+00 0. -1.
          2    1    6    6  503    0 -0.23994814149E+03  0.54993998921E+02  0.52671744874E+03  0.58140409469E+03  0.00000000000E+00 0. -1.
         -2    1    6    6    0  503 -0.53729661719E+01  0.99332510408E+01  0.11123158462E+03  0.11180341523E+03  0.00000000000E+00 0.  1.
<mgrwt>
<rscale>  0 0.17145163E+04</rscale>
<asrwt>0</asrwt>
<pdfrwt beam="1">  1        2 0.48434222E+00 0.17145163E+04</pdfrwt>
<pdfrwt beam="2">  1       -1 0.35912382E-01 0.17145163E+04</pdfrwt>
<totfact> 0.11301279E+01</totfact>
</mgrwt>
</event>
<event>
12    6  0.9491186E-008  0.1928371E+04  0.7818608E-02  0.8640862E-01
          2   -1    0    0  501    0  0.00000000000E+00  0.00000000000E+00  0.77011597867E+03  0.77011597867E+03  0.00000000000E+00 0. -1.
         -1   -1    0    0    0  501 -0.00000000000E+00 -0.00000000000E+00 -0.12071609085E+04  0.12071609085E+04  0.00000000000E+00 0.  1.
         24    2    1    2    0    0 -0.61590685352E+03 -0.36549892156E+03 -0.15938432752E+03  0.73826216036E+03  0.81834831776E+02 0.  0.
        254    2    1    2    0    0  0.61590685352E+03  0.36549892156E+03 -0.27766060233E+03  0.12390147268E+04  0.97217867150E+03 0.  0.
         23    2    4    4    0    0  0.70740751736E+03  0.38545798573E+03  0.11987286187E+03  0.81969874031E+03  0.92375686550E+02 0.  0.
         23    2    4    4    0    0 -0.91500663842E+02 -0.19959064168E+02 -0.39753346420E+03  0.41931598651E+03  0.94985818232E+02 0.  0.
          4    1    3    3  502    0 -0.29351632237E+02 -0.17684032738E+01 -0.15518031040E+02  0.33248381200E+02  0.00000000000E+00 0. -1.
         -3    1    3    3    0  502 -0.58655522128E+03 -0.36373051828E+03 -0.14386629648E+03  0.70501377916E+03  0.00000000000E+00 0.  1.
         11    1    5    5    0    0  0.31315972621E+03  0.17716271568E+03  0.99676900935E+02  0.37335121070E+03  0.00000000000E+00 0. -1.
        -11    1    5    5    0    0  0.39424779115E+03  0.20829527005E+03  0.20195960933E+02  0.44634752961E+03  0.00000000000E+00 0.  1.
          3    1    6    6  503    0  0.20304321836E+01  0.27413699356E+02 -0.10588166149E+03  0.10939177212E+03  0.00000000000E+00 0. -1.
         -3    1    6    6    0  503 -0.93531096026E+02 -0.47372763524E+02 -0.29165180270E+03  0.30992421439E+03  0.00000000000E+00 0.  1.
<mgrwt>
<rscale>  0 0.19283712E+04</rscale>
<asrwt>0</asrwt>
<pdfrwt beam="1">  1        2 0.11847938E+00 0.19283712E+04</pdfrwt>
<pdfrwt beam="2">  1       -1 0.18571706E+00 0.19283712E+04</pdfrwt>
<totfact> 0.73190010E+00</totfact>
</mgrwt>
</event>
<event>
12    6  0.9491186E-008  0.2132505E+04  0.7818608E-02  0.8547058E-01
          4   -1    0    0  501    0  0.00000000000E+00  0.00000000000E+00  0.72790570980E+03  0.72790570980E+03  0.00000000000E+00 0. -1.
         -3   -1    0    0    0  501 -0.00000000000E+00 -0.00000000000E+00 -0.15618704920E+04  0.15618704920E+04  0.00000000000E+00 0.  1.
         24    2    1    2    0    0 -0.26371098765E+03  0.18269311126E+03  0.53006746601E+03  0.62502517718E+03  0.82247770028E+02 0.  0.
        254    2    1    2    0    0  0.26371098765E+03 -0.18269311126E+03 -0.13640322482E+04  0.16647510246E+04  0.89882798238E+03 0.  0.
         23    2    4    4    0    0  0.29657517167E+03 -0.40800048403E+03 -0.13131694366E+04  0.14098900964E+04  0.94630266664E+02 0.  0.
         23    2    4    4    0    0 -0.32864184020E+02  0.22530737277E+03 -0.50862811620E+02  0.25486092820E+03  0.10258460071E+03 0.  0.
          4    1    3    3  502    0 -0.23342283169E+03  0.13999791559E+03  0.39081288179E+03  0.47625659396E+03  0.00000000000E+00 0. -1.
         -1    1    3    3    0  502 -0.30288155966E+02  0.42695195670E+02  0.13925458422E+03  0.14876858321E+03  0.00000000000E+00 0.  1.
         11    1    5    5    0    0  0.89057708578E+02 -0.71903773386E+02 -0.22913934667E+03  0.25613720596E+03  0.00000000000E+00 0. -1.
        -11    1    5    5    0    0  0.20751746310E+03 -0.33609671064E+03 -0.10840300899E+04  0.11537528905E+04  0.00000000000E+00 0.  1.
          1    1    6    6  503    0 -0.61962332596E+02  0.78742885409E+02 -0.16708759205E+02  0.10158225877E+03  0.00000000000E+00 0. -1.
         -1    1    6    6    0  503  0.29098148575E+02  0.14656448736E+03 -0.34154052415E+02  0.15327866943E+03  0.00000000000E+00 0.  1.
<mgrwt>
<rscale>  0 0.21325051E+04</rscale>
<asrwt>0</asrwt>
<pdfrwt beam="1">  1        4 0.11198550E+00 0.21325051E+04</pdfrwt>
<pdfrwt beam="2">  1       -3 0.24028776E+00 0.21325051E+04</pdfrwt>
<totfact> 0.10995197E-01</totfact>
</mgrwt>
</event>
<event>
12    6  0.9491186E-008  0.1375177E+04  0.7818608E-02  0.8971985E-01
         -1   -1    0    0    0  501 -0.00000000000E+00  0.00000000000E+00  0.69124440865E+03  0.69124440865E+03  0.00000000000E+00 0.  1.
          2   -1    0    0  501    0  0.00000000000E+00 -0.00000000000E+00 -0.68395206309E+03  0.68395206309E+03  0.00000000000E+00 0. -1.
         24    2    1    2    0    0 -0.23927070661E+03 -0.29080844714E+03  0.21406908775E+03  0.44050359022E+03  0.79986340686E+02 0.  0.
        254    2    1    2    0    0  0.23927070661E+03  0.29080844714E+03 -0.20677674219E+03  0.93469288152E+03  0.83010489559E+03 0.  0.
         23    2    4    4    0    0 -0.28808495353E+03  0.19658947631E+03 -0.21892011836E+02  0.36067132874E+03  0.89242280002E+02 0.  0.
         23    2    4    4    0    0  0.52735566014E+03  0.94218970828E+02 -0.18488473036E+03  0.57402155278E+03  0.91308120067E+02 0.  0.
          4    1    3    3  502    0 -0.73513570231E+02 -0.12400931279E+03  0.45498922707E+02  0.15117111706E+03  0.00000000000E+00 0. -1.
         -3    1    3    3    0  502 -0.16575713638E+03 -0.16679913436E+03  0.16857016504E+03  0.28933247316E+03  0.00000000000E+00 0.  1.
         11    1    5    5    0    0 -0.37751686233E+02  0.36294063835E+02  0.27800321041E+02  0.59290022205E+02  0.00000000000E+00 0.  1.
        -11    1    5    5    0    0 -0.25033326730E+03  0.16029541248E+03 -0.49692332878E+02  0.30138130653E+03  0.00000000000E+00 0. -1.
          2    1    6    6  503    0  0.46287376374E+03  0.11093826493E+03 -0.17243393688E+03  0.50625377270E+03  0.00000000000E+00 0. -1.
         -2    1    6    6    0  503  0.64481896404E+02 -0.16719294105E+02 -0.12450793480E+02  0.67767780084E+02  0.00000000000E+00 0.  1.
<mgrwt>
<rscale>  0 0.13751771E+04</rscale>
<asrwt>0</asrwt>
<pdfrwt beam="1">  1        2 0.10522339E+00 0.13751771E+04</pdfrwt>
<pdfrwt beam="2">  1       -1 0.10634529E+00 0.13751771E+04</pdfrwt>
<totfact> 0.38852156E+01</totfact>
</mgrwt>
</event>
<event>
12    6  0.9491186E-008  0.1789700E+04  0.7818608E-02  0.8711796E-01
         -1   -1    0    0    0  501 -0.00000000000E+00  0.00000000000E+00  0.10247063310E+04  0.10247063310E+04  0.00000000000E+00 0.  1.
          2   -1    0    0  501    0  0.00000000000E+00 -0.00000000000E+00 -0.78144982617E+03  0.78144982617E+03  0.00000000000E+00 0. -1.
         24    2    1    2    0    0  0.53680439369E+03 -0.29504131818E+03  0.35006952214E+03  0.71073349220E+03  0.85936546801E+02 0.  0.
        254    2    1    2    0    0 -0.53680439369E+03  0.29504131818E+03 -0.10681301727E+03  0.10954226650E+04  0.90185001959E+03 0.  0.
         23    2    4    4    0    0 -0.67715853990E+03  0.25496691997E+03  0.18882198812E+03  0.75331910734E+03  0.91017118399E+02 0.  0.
         23    2    4    4    0    0  0.14035414621E+03  0.40074398210E+02 -0.29563500540E+03  0.34210355767E+03  0.91266335533E+02 0.  0.
          2    1    3    3  502    0  0.37154864197E+03 -0.18299972393E+03  0.27634777817E+03  0.49790098093E+03  0.00000000000E+00 0. -1.
         -1    1    3    3    0  502  0.16525575172E+03 -0.11204159425E+03  0.73721743977E+02  0.21283251127E+03  0.00000000000E+00 0.  1.
         11    1    5    5    0    0 -0.57037044445E+03  0.17779843837E+03  0.15044293443E+03  0.61609074422E+03  0.00000000000E+00 0.  1.
        -11    1    5    5    0    0 -0.10678809545E+03  0.77168481600E+02  0.38379053692E+02  0.13722836312E+03  0.00000000000E+00 0. -1.
          3    1    6    6  503    0  0.10857932908E+03 -0.51509807506E+01 -0.24102865180E+03  0.26440653225E+03  0.00000000000E+00 0. -1.
         -3    1    6    6    0  503  0.31774817128E+02  0.45225378961E+02 -0.54606353594E+02  0.77697025416E+02  0.00000000000E+00 0.  1.
<mgrwt>
<rscale>  0 0.17897001E+04</rscale>
<asrwt>0</asrwt>
<pdfrwt beam="1">  1        2 0.12022305E+00 0.17897001E+04</pdfrwt>
<pdfrwt beam="2">  1       -1 0.15764713E+00 0.17897001E+04</pdfrwt>
<totfact> 0.11673046E+01</totfact>
</mgrwt>
</event>
<event>
12    6  0.9491186E-008  0.2760776E+04  0.7818608E-02  0.8315550E-01
         -1   -1    0    0    0  501 -0.00000000000E+00  0.00000000000E+00  0.73958316134E+03  0.73958316134E+03  0.00000000000E+00 0.  1.
          2   -1    0    0  501    0  0.00000000000E+00 -0.00000000000E+00 -0.25764123972E+04  0.25764123972E+04  0.00000000000E+00 0. -1.
         24    2    1    2    0    0  0.98653839901E+03  0.73213599697E+03 -0.89780699133E+03  0.15236393545E+04  0.78347675164E+02 0.  0.
        254    2    1    2    0    0 -0.98653839901E+03 -0.73213599697E+03 -0.93902224454E+03  0.17923562040E+04  0.90636463721E+03 0.  0.
         23    2    4    4    0    0 -0.40659690322E+03  0.10211665416E+03 -0.37537208696E+02  0.43082369180E+03  0.91930183353E+02 0.  0.
         23    2    4    4    0    0 -0.57994149579E+03 -0.83425265112E+03 -0.90148503584E+03  0.13615325122E+04  0.93733065439E+02 0.  0.
          2    1    3    3  502    0  0.68152778453E+03  0.49151330805E+03 -0.57053366898E+03  0.10156643739E+04  0.00000000000E+00 0. -1.
         -1    1    3    3    0  502  0.30501061449E+03  0.24062268892E+03 -0.32727332235E+03  0.50797498058E+03  0.00000000000E+00 0.  1.
         11    1    5    5    0    0 -0.55535891343E+02 -0.17243059612E+02 -0.10006564397E+02  0.59005844313E+02  0.00000000000E+00 0.  1.
        -11    1    5    5    0    0 -0.35106101188E+03  0.11935971377E+03 -0.27530644299E+02  0.37181784748E+03  0.00000000000E+00 0. -1.
          2    1    6    6  503    0 -0.39729162507E+03 -0.55373788009E+03 -0.66055656538E+03  0.94910550060E+03  0.00000000000E+00 0. -1.
         -2    1    6    6    0  503 -0.18264987072E+03 -0.28051477103E+03 -0.24092847046E+03  0.41242701162E+03  0.00000000000E+00 0.  1.
<mgrwt>
<rscale>  0 0.27607761E+04</rscale>
<asrwt>0</asrwt>
<pdfrwt beam="1">  1        2 0.39637114E+00 0.27607761E+04</pdfrwt>
<pdfrwt beam="2">  1       -1 0.11378203E+00 0.27607761E+04</pdfrwt>
<totfact> 0.21949026E+00</totfact>
</mgrwt>
</event>
<event>
12    6  0.9491186E-008  0.1882720E+04  0.7818608E-02  0.8663506E-01
         -1   -1    0    0    0  501 -0.00000000000E+00  0.00000000000E+00  0.57228919668E+03  0.57228919668E+03  0.00000000000E+00 0.  1.
          2   -1    0    0  501    0  0.00000000000E+00 -0.00000000000E+00 -0.15484452854E+04  0.15484452854E+04  0.00000000000E+00 0. -1.
         24    2    1    2    0    0  0.26747302515E+03 -0.12228981737E+03  0.36704456054E+03  0.47707978769E+03  0.79917431035E+02 0.  0.
        254    2    1    2    0    0 -0.26747302515E+03  0.12228981737E+03 -0.13432006492E+04  0.16436546944E+04  0.90050882928E+03 0.  0.
         23    2    4    4    0    0 -0.54903478599E+03  0.23069571067E+03 -0.10593355826E+04  0.12186851024E+04  0.91333427936E+02 0.  0.
         23    2    4    4    0    0  0.28156176084E+03 -0.10840589330E+03 -0.28386506667E+03  0.42496959202E+03  0.94820436576E+02 0.  0.
          2    1    3    3  502    0  0.60080692386E+01 -0.71070079617E+01 -0.28106049365E+01  0.97214175022E+01  0.00000000000E+00 0. -1.
         -1    1    3    3    0  502  0.26146495591E+03 -0.11518280940E+03  0.36985516548E+03  0.46735837019E+03  0.00000000000E+00 0.  1.
         11    1    5    5    0    0 -0.33071331576E+03  0.10156161670E+03 -0.55155594135E+03  0.65107604444E+03  0.00000000000E+00 0. -1.
        -11    1    5    5    0    0 -0.21832147023E+03  0.12913409397E+03 -0.50777964123E+03  0.56760905793E+03  0.00000000000E+00 0.  1.
          1    1    6    6  503    0  0.22310482784E+03 -0.62400507195E+02 -0.16379181900E+03  0.28372054468E+03  0.00000000000E+00 0. -1.
         -1    1    6    6    0  503  0.58456933002E+02 -0.46005386105E+02 -0.12007324767E+03  0.14124904733E+03  0.00000000000E+00 0.  1.
<mgrwt>
<rscale>  0 0.18827199E+04</rscale>
<asrwt>0</asrwt>
<pdfrwt beam="1">  1        2 0.23822235E+00 0.18827199E+04</pdfrwt>
<pdfrwt beam="2">  1       -1 0.88044493E-01 0.18827199E+04</pdfrwt>
<totfact> 0.16148136E+01</totfact>
</mgrwt>
</event>
<event>
12    6  0.9491186E-008  0.1420604E+04  0.7818608E-02  0.8939038E-01
          2   -1    0    0  501    0  0.00000000000E+00  0.00000000000E+00  0.30910362876E+04  0.30910362876E+04  0.00000000000E+00 0. -1.
         -1   -1    0    0    0  501 -0.00000000000E+00 -0.00000000000E+00 -0.16322328679E+03  0.16322328679E+03  0.00000000000E+00 0.  1.
         24    2    1    2    0    0 -0.11585153176E+03  0.29134130887E+03  0.25058682576E+03  0.40924409669E+03  0.79910185627E+02 0.  0.
        254    2    1    2    0    0  0.11585153176E+03 -0.29134130887E+03  0.26772261751E+04  0.28450154777E+04  0.91009435788E+03 0.  0.
         23    2    4    4    0    0  0.54906383811E+02 -0.58962231196E+03  0.21237759345E+04  0.22067084063E+04  0.92024935546E+02 0.  0.
         23    2    4    4    0    0  0.60945147954E+02  0.29828100310E+03  0.55345024060E+03  0.63830707143E+03  0.91885149773E+02 0.  0.
          2    1    3    3  502    0 -0.16575158027E+02  0.84377756416E+01  0.16190292556E+00  0.18599949837E+02  0.00000000000E+00 0. -1.
         -1    1    3    3    0  502 -0.99276373738E+02  0.28290353323E+03  0.25042492284E+03  0.39064414686E+03  0.00000000000E+00 0.  1.
         11    1    5    5    0    0 -0.69013285249E+01 -0.11340892546E+02  0.10484187343E+03  0.10567905471E+03  0.00000000000E+00 0.  1.
        -11    1    5    5    0    0  0.61807712335E+02 -0.57828141942E+03  0.20189340610E+04  0.21010293516E+04  0.00000000000E+00 0. -1.
          1    1    6    6  503    0  0.20200518351E+02  0.25922397113E+03  0.47723158981E+03  0.54346583928E+03  0.00000000000E+00 0. -1.
         -1    1    6    6    0  503  0.40744629604E+02  0.39057031965E+02  0.76218650787E+02  0.94841232148E+02  0.00000000000E+00 0.  1.
<mgrwt>
<rscale>  0 0.14206042E+04</rscale>
<asrwt>0</asrwt>
<pdfrwt beam="1">  1        2 0.47554400E+00 0.14206042E+04</pdfrwt>
<pdfrwt beam="2">  1       -1 0.25111277E-01 0.14206042E+04</pdfrwt>
<totfact> 0.23694456E+01</totfact>
</mgrwt>
</event>
<event>
12    6  0.9491186E-008  0.1622097E+04  0.7818608E-02  0.8807087E-01
         -1   -1    0    0    0  501 -0.00000000000E+00  0.00000000000E+00  0.83643521472E+03  0.83643521472E+03  0.00000000000E+00 0.  1.
          2   -1    0    0  501    0  0.00000000000E+00 -0.00000000000E+00 -0.78643229832E+03  0.78643229832E+03  0.00000000000E+00 0. -1.
         24    2    1    2    0    0 -0.28276160966E+02  0.18949576607E+03 -0.49699772796E+03  0.53863182151E+03  0.80058172068E+02 0.  0.
        254    2    1    2    0    0  0.28276160966E+02 -0.18949576607E+03  0.54700064436E+03  0.10842356915E+04  0.91632371092E+03 0.  0.
         23    2    4    4    0    0  0.39670002811E+03 -0.25042566364E+03  0.88766770917E+02  0.48593664191E+03  0.90393335024E+02 0.  0.
         23    2    4    4    0    0 -0.36842386715E+03  0.60929897571E+02  0.45823387344E+03  0.59829904961E+03  0.92384369282E+02 0.  0.
          2    1    3    3  502    0 -0.21237892800E+02  0.19169910361E+03 -0.49460208375E+03  0.53087740173E+03  0.00000000000E+00 0. -1.
         -1    1    3    3    0  502 -0.70382681653E+01 -0.22033375372E+01 -0.23956442084E+01  0.77544197876E+01  0.00000000000E+00 0.  1.
         11    1    5    5    0    0  0.37461449853E+03 -0.22200267646E+03  0.59411997064E+02  0.43948947230E+03  0.00000000000E+00 0.  1.
        -11    1    5    5    0    0  0.22085529587E+02 -0.28422987180E+02  0.29354773853E+02  0.46447169616E+02  0.00000000000E+00 0. -1.
          2    1    6    6  503    0 -0.50835229244E+02  0.17961651847E+02  0.12414704574E+03  0.13534892107E+03  0.00000000000E+00 0.  1.
         -2    1    6    6    0  503 -0.31758863790E+03  0.42968245724E+02  0.33408682770E+03  0.46295012854E+03  0.00000000000E+00 0. -1.
<mgrwt>
<rscale>  0 0.16220970E+04</rscale>
<asrwt>0</asrwt>
<pdfrwt beam="1">  1        2 0.12098958E+00 0.16220970E+04</pdfrwt>
<pdfrwt beam="2">  1       -1 0.12868234E+00 0.16220970E+04</pdfrwt>
<totfact> 0.20045092E+01</totfact>
</mgrwt>
</event>
<event>
12    6  0.9491186E-008  0.1295282E+04  0.7818608E-02  0.9033315E-01
         -1   -1    0    0    0  501 -0.00000000000E+00  0.00000000000E+00  0.32964227133E+03  0.32964227133E+03  0.00000000000E+00 0.  1.
          2   -1    0    0  501    0  0.00000000000E+00 -0.00000000000E+00 -0.12724065902E+04  0.12724065902E+04  0.00000000000E+00 0. -1.
         24    2    1    2    0    0  0.25177336942E+03 -0.16816603350E+03 -0.39285952185E+03  0.50254427463E+03  0.80885719887E+02 0.  0.
        254    2    1    2    0    0 -0.25177336942E+03  0.16816603350E+03 -0.54990479697E+03  0.10995045869E+04  0.90268787874E+03 0.  0.
         23    2    4    4    0    0  0.40264438217E+02  0.75495283336E+01 -0.71158819019E+03  0.71854518573E+03  0.90946199225E+02 0.  0.
         23    2    4    4    0    0 -0.29203780764E+03  0.16061650516E+03  0.16168339322E+03  0.38095940113E+03  0.88908958165E+02 0.  0.
          4    1    3    3  502    0  0.24660691749E+03 -0.14122431997E+03 -0.34113970178E+03  0.44399952302E+03  0.00000000000E+00 0. -1.
         -3    1    3    3    0  502  0.51664519250E+01 -0.26941713523E+02 -0.51719820076E+02  0.58544751615E+02  0.00000000000E+00 0.  1.
         11    1    5    5    0    0  0.21969983350E+02 -0.19421803955E+02 -0.67029686586E+02  0.73163279869E+02  0.00000000000E+00 0.  1.
        -11    1    5    5    0    0  0.18294454867E+02  0.26971332288E+02 -0.64455850361E+03  0.64538190586E+03  0.00000000000E+00 0. -1.
          3    1    6    6  503    0 -0.11270085619E+03  0.25963310359E+02  0.86529997351E+02  0.14444035763E+03  0.00000000000E+00 0. -1.
         -3    1    6    6    0  503 -0.17933695145E+03  0.13465319480E+03  0.75153395873E+02  0.23651904350E+03  0.00000000000E+00 0.  1.
<mgrwt>
<rscale>  0 0.12952822E+04</rscale>
<asrwt>0</asrwt>
<pdfrwt beam="1">  1        2 0.19575486E+00 0.12952822E+04</pdfrwt>
<pdfrwt beam="2">  1       -1 0.50714196E-01 0.12952822E+04</pdfrwt>
<totfact> 0.74901671E+01</totfact>
</mgrwt>
</event>
<event>
12    6  0.9491186E-008  0.1434907E+04  0.7818608E-02  0.8928931E-01
          2   -1    0    0  501    0  0.00000000000E+00  0.00000000000E+00  0.20665115566E+04  0.20665115566E+04  0.00000000000E+00 0. -1.
         -1   -1    0    0    0  501 -0.00000000000E+00 -0.00000000000E+00 -0.24908628187E+03  0.24908628187E+03  0.00000000000E+00 0.  1.
         24    2    1    2    0    0  0.39796692829E+03 -0.10193937364E+03  0.74721477880E+03  0.85639416490E+03  0.79446385076E+02 0.  0.
        254    2    1    2    0    0 -0.39796692829E+03  0.10193937364E+03  0.10702104960E+04  0.14592036736E+04  0.90285964773E+03 0.  0.
         23    2    4    4    0    0 -0.22835847946E+03  0.46316955858E+03  0.83861619672E+03  0.98901484642E+03  0.90551675229E+02 0.  0.
         23    2    4    4    0    0 -0.16960844884E+03 -0.36123018494E+03  0.23159429923E+03  0.47018882719E+03  0.90483928673E+02 0.  0.
          2    1    3    3  502    0  0.31947300459E+03 -0.95413684546E+02  0.65607287002E+03  0.73593368087E+03  0.00000000000E+00 0. -1.
         -1    1    3    3    0  502  0.78493923706E+02 -0.65256890944E+01  0.91141908778E+02  0.12046048403E+03  0.00000000000E+00 0.  1.
         11    1    5    5    0    0 -0.83381484225E+02  0.17380406796E+03  0.39881382832E+03  0.44295913537E+03  0.00000000000E+00 0.  1.
        -11    1    5    5    0    0 -0.14497699523E+03  0.28936549062E+03  0.43980236841E+03  0.54605571105E+03  0.00000000000E+00 0. -1.
          2    1    6    6  503    0 -0.17601133814E+03 -0.32587828130E+03  0.19368551211E+03  0.41796019306E+03  0.00000000000E+00 0. -1.
         -2    1    6    6    0  503  0.64028893057E+01 -0.35351903638E+02  0.37908787119E+02  0.52228634131E+02  0.00000000000E+00 0.  1.
<mgrwt>
<rscale>  0 0.14349072E+04</rscale>
<asrwt>0</asrwt>
<pdfrwt beam="1">  1        2 0.31792484E+00 0.14349072E+04</pdfrwt>
<pdfrwt beam="2">  1       -1 0.38320968E-01 0.14349072E+04</pdfrwt>
<totfact> 0.44721440E+01</totfact>
</mgrwt>
</event>
<event>
12    6  0.9491186E-008  0.1388705E+04  0.7818608E-02  0.8962035E-01
          2   -1    0    0  501    0  0.00000000000E+00  0.00000000000E+00  0.23202087634E+04  0.23202087634E+04  0.00000000000E+00 0. -1.
         -1   -1    0    0    0  501 -0.00000000000E+00 -0.00000000000E+00 -0.20779391673E+03  0.20779391673E+03  0.00000000000E+00 0.  1.
         24    2    1    2    0    0  0.91354684570E+02 -0.29827955786E+03  0.65646520589E+03  0.73221832980E+03  0.88773548513E+02 0.  0.
        254    2    1    2    0    0 -0.91354684570E+02  0.29827955786E+03  0.14559496408E+04  0.17957843504E+04  0.10038604003E+04 0.  0.
         23    2    4    4    0    0  0.27927011828E+03 -0.16809074627E+03  0.95228787505E+03  0.10106726398E+04  0.91436808388E+02 0.  0.
         23    2    4    4    0    0 -0.37062480285E+03  0.46637030413E+03  0.50366176577E+03  0.78511171056E+03  0.88663513893E+02 0.  0.
          4    1    3    3  502    0  0.88340756682E+02 -0.23326329982E+03  0.43556322378E+03  0.50192746313E+03  0.00000000000E+00 0. -1.
         -3    1    3    3    0  502  0.30139278883E+01 -0.65016258049E+02  0.22090198211E+03  0.23029086667E+03  0.00000000000E+00 0.  1.
         11    1    5    5    0    0  0.26121433190E+03 -0.17962289949E+03  0.89772103653E+03  0.95205061454E+03  0.00000000000E+00 0. -1.
        -11    1    5    5    0    0  0.18055786386E+02  0.11532153226E+02  0.54566838522E+02  0.58622025266E+02  0.00000000000E+00 0.  1.
          2    1    6    6  503    0 -0.28525184295E+03  0.39933546224E+03  0.44094454553E+03  0.65974958699E+03  0.00000000000E+00 0. -1.
         -2    1    6    6    0  503 -0.85372959904E+02  0.67034841893E+02  0.62717220239E+02  0.12536212357E+03  0.00000000000E+00 0.  1.
<mgrwt>
<rscale>  0 0.13887048E+04</rscale>
<asrwt>0</asrwt>
<pdfrwt beam="1">  1        2 0.35695518E+00 0.13887048E+04</pdfrwt>
<pdfrwt beam="2">  1       -1 0.31968297E-01 0.13887048E+04</pdfrwt>
<totfact> 0.44786622E+01</totfact>
</mgrwt>
</event>
<event>
12    6  0.9491186E-008  0.2490246E+04  0.7818608E-02  0.8406469E-01
          2   -1    0    0  501    0  0.00000000000E+00  0.00000000000E+00  0.28062091636E+04  0.28062091636E+04  0.00000000000E+00 0. -1.
         -1   -1    0    0    0  501 -0.00000000000E+00 -0.00000000000E+00 -0.55246455721E+03  0.55246455721E+03  0.00000000000E+00 0.  1.
         24    2    1    2    0    0  0.15932470807E+03  0.10663244424E+04  0.10453443797E+04  0.15037818350E+04  0.78630502824E+02 0.  0.
        254    2    1    2    0    0 -0.15932470807E+03 -0.10663244424E+04  0.12084002267E+04  0.18548918859E+04  0.90441175436E+03 0.  0.
         23    2    4    4    0    0 -0.30527662764E+03 -0.83558544758E+03  0.12775777555E+04  0.15589817109E+04  0.82596574041E+02 0.  0.
         23    2    4    4    0    0  0.14595191957E+03 -0.23073899479E+03 -0.69177528816E+02  0.29591017494E+03  0.90746099645E+02 0.  0.
          4    1    3    3  502    0 -0.15519880678E+01  0.11766270051E+03  0.13638220358E+03  0.18013057822E+03  0.00000000000E+00 0. -1.
         -3    1    3    3    0  502  0.16087669614E+03  0.94866174185E+03  0.90896217613E+03  0.13236512567E+04  0.00000000000E+00 0.  1.
         11    1    5    5    0    0 -0.14581401503E+03 -0.29791978077E+03  0.44082148051E+03  0.55167155123E+03  0.00000000000E+00 0.  1.
        -11    1    5    5    0    0 -0.15946261261E+03 -0.53766566681E+03  0.83675627501E+03  0.10073101597E+04  0.00000000000E+00 0. -1.
          1    1    6    6  503    0  0.38917746992E+01 -0.31649599461E+02 -0.37603835127E+02  0.49304071562E+02  0.00000000000E+00 0. -1.
         -1    1    6    6    0  503  0.14206014487E+03 -0.19908939533E+03 -0.31573693689E+02  0.24660610338E+03  0.00000000000E+00 0.  1.
<mgrwt>
<rscale>  0 0.24902459E+04</rscale>
<asrwt>0</asrwt>
<pdfrwt beam="1">  1        2 0.43172448E+00 0.24902459E+04</pdfrwt>
<pdfrwt beam="2">  1       -1 0.84994549E-01 0.24902459E+04</pdfrwt>
<totfact> 0.31864517E+00</totfact>
</mgrwt>
</event>
<event>
12    6  0.9491186E-008  0.2442241E+04  0.7818608E-02  0.8423856E-01
          2   -1    0    0  501    0  0.00000000000E+00  0.00000000000E+00  0.32005122129E+04  0.32005122129E+04  0.00000000000E+00 0. -1.
         -1   -1    0    0    0  501 -0.00000000000E+00 -0.00000000000E+00 -0.46590523756E+03  0.46590523756E+03  0.00000000000E+00 0.  1.
         24    2    1    2    0    0 -0.44540870364E+03  0.17882572350E+02 -0.24749875778E+03  0.51556223677E+03  0.76420450178E+02 0.  0.
        254    2    1    2    0    0  0.44540870364E+03 -0.17882572350E+02  0.29821057332E+04  0.31508552137E+04  0.91445353870E+03 0.  0.
         23    2    4    4    0    0  0.64340838608E+03  0.57433147292E+02  0.13092648097E+04  0.14628140928E+04  0.91530380956E+02 0.  0.
         23    2    4    4    0    0 -0.19799968244E+03 -0.75315719642E+02  0.16728409235E+04  0.16880411209E+04  0.78801895189E+02 0.  0.
          4    1    3    3  502    0 -0.15735462263E+03  0.20712253561E+02 -0.50411571179E+02  0.16652567736E+03  0.00000000000E+00 0. -1.
         -3    1    3    3    0  502 -0.28805408101E+03 -0.28296812108E+01 -0.19708718660E+03  0.34903655942E+03  0.00000000000E+00 0.  1.
         11    1    5    5    0    0  0.61062987255E+03  0.66153963517E+02  0.11947429398E+04  0.13433748101E+04  0.00000000000E+00 0.  1.
        -11    1    5    5    0    0  0.32778513529E+02 -0.87208162250E+01  0.11452186989E+03  0.11943928277E+03  0.00000000000E+00 0. -1.
          1    1    6    6  503    0 -0.52661581214E+02 -0.29938094781E+02  0.77661261257E+03  0.77897155381E+03  0.00000000000E+00 0. -1.
         -1    1    6    6    0  503 -0.14533810122E+03 -0.45377624860E+02  0.89622831092E+03  0.90906956709E+03  0.00000000000E+00 0.  1.
<mgrwt>
<rscale>  0 0.24422411E+04</rscale>
<asrwt>0</asrwt>
<pdfrwt beam="1">  1        2 0.49238648E+00 0.24422411E+04</pdfrwt>
<pdfrwt beam="2">  1       -1 0.71677731E-01 0.24422411E+04</pdfrwt>
<totfact> 0.25967954E+00</totfact>
</mgrwt>
</event>
<event>
12    6  0.9491186E-008  0.1550856E+04  0.7818608E-02  0.8851321E-01
         -1   -1    0    0    0  501 -0.00000000000E+00  0.00000000000E+00  0.60463871298E+03  0.60463871298E+03  0.00000000000E+00 0.  1.
          2   -1    0    0  501    0  0.00000000000E+00 -0.00000000000E+00 -0.99445953736E+03  0.99445953736E+03  0.00000000000E+00 0. -1.
         24    2    1    2    0    0 -0.20479084419E+03  0.34126282222E+03 -0.46342457508E+03  0.61609409616E+03  0.80062443370E+02 0.  0.
        254    2    1    2    0    0  0.20479084419E+03 -0.34126282222E+03  0.73603750696E+02  0.98300415418E+03  0.89581250903E+03 0.  0.
         23    2    4    4    0    0  0.28790956871E+03 -0.37347329615E+03 -0.31460887923E+03  0.57445558999E+03  0.92985242374E+02 0.  0.
         23    2    4    4    0    0 -0.83118724512E+02  0.32210473924E+02  0.38821262992E+03  0.40854856419E+03  0.90866089804E+02 0.  0.
          2    1    3    3  502    0 -0.20734450553E+03  0.31063460076E+03 -0.41115702162E+03  0.55545989558E+03  0.00000000000E+00 0. -1.
         -1    1    3    3    0  502  0.25536613365E+01  0.30628221461E+02 -0.52267553454E+02  0.60634200582E+02  0.00000000000E+00 0.  1.
         11    1    5    5    0    0  0.28113232133E+03 -0.32162478985E+03 -0.26709509441E+03  0.50380321258E+03  0.00000000000E+00 0. -1.
        -11    1    5    5    0    0  0.67772473722E+01 -0.51848506296E+02 -0.47513784814E+02  0.70652377415E+02  0.00000000000E+00 0.  1.
          3    1    6    6  503    0 -0.32654503918E+02 -0.18733766301E+01  0.29749251783E+03  0.29928518896E+03  0.00000000000E+00 0. -1.
         -3    1    6    6    0  503 -0.50464220594E+02  0.34083850554E+02  0.90720112092E+02  0.10926337523E+03  0.00000000000E+00 0.  1.
<mgrwt>
<rscale>  0 0.15508562E+04</rscale>
<asrwt>0</asrwt>
<pdfrwt beam="1">  1        2 0.15299377E+00 0.15508562E+04</pdfrwt>
<pdfrwt beam="2">  1       -1 0.93021341E-01 0.15508562E+04</pdfrwt>
<totfact> 0.31313381E+01</totfact>
</mgrwt>
</event>
<event>
12    6  0.9491186E-008  0.1388034E+04  0.7818608E-02  0.8962526E-01
          2   -1    0    0  501    0  0.00000000000E+00  0.00000000000E+00  0.17539451196E+04  0.17539451196E+04  0.00000000000E+00 0. -1.
         -1   -1    0    0    0  501 -0.00000000000E+00 -0.00000000000E+00 -0.27461511787E+03  0.27461511787E+03  0.00000000000E+00 0.  1.
         24    2    1    2    0    0 -0.15255914529E+03 -0.16981792655E+03  0.92221695344E+03  0.95310238730E+03  0.76207811073E+02 0.  0.
        254    2    1    2    0    0  0.15255914529E+03  0.16981792655E+03  0.55711304824E+03  0.10754578501E+04  0.89113535329E+03 0.  0.
         23    2    4    4    0    0 -0.33591048027E+03 -0.85941511660E+02  0.17275300533E+03  0.39787134724E+03  0.90753589030E+02 0.  0.
         23    2    4    4    0    0  0.48846962556E+03  0.25575943821E+03  0.38436004291E+03  0.67758650289E+03  0.85879921901E+02 0.  0.
          2    1    3    3  502    0 -0.99211958479E+02 -0.12639715997E+03  0.76177724340E+03  0.77853954512E+03  0.00000000000E+00 0. -1.
         -1    1    3    3    0  502 -0.53347186812E+02 -0.43420766578E+02  0.16043971005E+03  0.17456284218E+03  0.00000000000E+00 0.  1.
         11    1    5    5    0    0 -0.18389262770E+03 -0.20409632101E+02  0.13230859009E+03  0.22746123761E+03  0.00000000000E+00 0.  1.
        -11    1    5    5    0    0 -0.15201785257E+03 -0.65531879559E+02  0.40444415239E+02  0.17041010962E+03  0.00000000000E+00 0. -1.
          2    1    6    6  503    0  0.30806538628E+02 -0.47996751293E+01  0.25874745385E+02  0.40516442987E+02  0.00000000000E+00 0. -1.
         -2    1    6    6    0  503  0.45766308693E+03  0.26055911334E+03  0.35848529753E+03  0.63707005990E+03  0.00000000000E+00 0.  1.
<mgrwt>
<rscale>  0 0.13880344E+04</rscale>
<asrwt>0</asrwt>
<pdfrwt beam="1">  1        2 0.26983770E+00 0.13880344E+04</pdfrwt>
<pdfrwt beam="2">  1       -1 0.42248481E-01 0.13880344E+04</pdfrwt>
<totfact> 0.55938577E+01</totfact>
</mgrwt>
</event>
<event>
12    6  0.9491186E-008  0.1346957E+04  0.7818608E-02  0.8993135E-01
         -1   -1    0    0    0  501 -0.00000000000E+00  0.00000000000E+00  0.14969803383E+03  0.14969803383E+03  0.00000000000E+00 0.  1.
          2   -1    0    0  501    0  0.00000000000E+00 -0.00000000000E+00 -0.30299193214E+04  0.30299193214E+04  0.00000000000E+00 0. -1.
         24    2    1    2    0    0 -0.23202236623E+03 -0.68336859405E+02 -0.15106704250E+03  0.29567242517E+03  0.78080899667E+02 0.  0.
        254    2    1    2    0    0  0.23202236623E+03  0.68336859405E+02 -0.27291542451E+04  0.28839449301E+04  0.90019506853E+03 0.  0.
         23    2    4    4    0    0  0.34311454045E+03  0.36161967151E+03 -0.96679573846E+03  0.10915856858E+04  0.91481883110E+02 0.  0.
         23    2    4    4    0    0 -0.11109217422E+03 -0.29328281210E+03 -0.17623585067E+04  0.17923592443E+04  0.91037769288E+02 0.  0.
          4    1    3    3  502    0 -0.55901838009E+01  0.12339897166E+02 -0.11116137628E+02  0.17524033005E+02  0.00000000000E+00 0. -1.
         -3    1    3    3    0  502 -0.22643218243E+03 -0.80676756571E+02 -0.13995090487E+03  0.27814839217E+03  0.00000000000E+00 0.  1.
         11    1    5    5    0    0  0.58929322301E+02  0.43861005026E+02 -0.21671086740E+03  0.22882319121E+03  0.00000000000E+00 0. -1.
        -11    1    5    5    0    0  0.28418521815E+03  0.31775866648E+03 -0.75008487106E+03  0.86276249463E+03  0.00000000000E+00 0.  1.
          1    1    6    6  503    0  0.12853176588E+01 -0.96504360049E+02 -0.41476672858E+03  0.42584760500E+03  0.00000000000E+00 0. -1.
         -1    1    6    6    0  503 -0.11237749188E+03 -0.19677845205E+03 -0.13475917781E+04  0.13665116393E+04  0.00000000000E+00 0.  1.
<mgrwt>
<rscale>  0 0.13469565E+04</rscale>
<asrwt>0</asrwt>
<pdfrwt beam="1">  1        2 0.46614142E+00 0.13469565E+04</pdfrwt>
<pdfrwt beam="2">  1       -1 0.23030468E-01 0.13469565E+04</pdfrwt>
<totfact> 0.30222511E+01</totfact>
</mgrwt>
</event>
<event>
12    6  0.9491186E-008  0.2176740E+04  0.7818608E-02  0.8528172E-01
         -1   -1    0    0    0  501 -0.00000000000E+00  0.00000000000E+00  0.45440209811E+03  0.45440209811E+03  0.00000000000E+00 0.  1.
          2   -1    0    0  501    0  0.00000000000E+00 -0.00000000000E+00 -0.26068317018E+04  0.26068317018E+04  0.00000000000E+00 0. -1.
         24    2    1    2    0    0  0.69823606057E+03 -0.12276601540E+03 -0.16710258214E+04  0.18168711298E+04  0.78027659091E+02 0.  0.
        254    2    1    2    0    0 -0.69823606057E+03  0.12276601540E+03 -0.48140378228E+03  0.12443626701E+04  0.90226590450E+03 0.  0.
         23    2    4    4    0    0 -0.56538924496E+03 -0.85904384249E+02  0.11813108239E+03  0.58926197769E+03  0.78931389043E+02 0.  0.
         23    2    4    4    0    0 -0.13284681560E+03  0.20867039965E+03 -0.59953486468E+03  0.65510069244E+03  0.92321455624E+02 0.  0.
          4    1    3    3  502    0  0.26963523184E+03 -0.67579399466E+02 -0.57292263953E+03  0.63679705116E+03  0.00000000000E+00 0. -1.
         -3    1    3    3    0  502  0.42860082872E+03 -0.55186615939E+02 -0.10981031819E+04  0.11800740786E+04  0.00000000000E+00 0.  1.
         11    1    5    5    0    0 -0.36996632740E+03 -0.90536636220E+02  0.93908267969E+02  0.39228908817E+03  0.00000000000E+00 0. -1.
        -11    1    5    5    0    0 -0.19542291757E+03  0.46322519714E+01  0.24222814424E+02  0.19697288952E+03  0.00000000000E+00 0.  1.
          2    1    6    6  503    0 -0.14174153076E+03  0.20440963199E+03 -0.53725401075E+03  0.59204377478E+03  0.00000000000E+00 0. -1.
         -2    1    6    6    0  503  0.88947151586E+01  0.42607676640E+01 -0.62280853928E+02  0.63056917661E+02  0.00000000000E+00 0.  1.
<mgrwt>
<rscale>  0 0.21767405E+04</rscale>
<asrwt>0</asrwt>
<pdfrwt beam="1">  1        2 0.40105103E+00 0.21767405E+04</pdfrwt>
<pdfrwt beam="2">  1       -1 0.69908015E-01 0.21767405E+04</pdfrwt>
<totfact> 0.65029194E+00</totfact>
</mgrwt>
</event>
<event>
12    6  0.9491186E-008  0.1406179E+04  0.7818608E-02  0.8949358E-01
         -1   -1    0    0    0  501 -0.00000000000E+00  0.00000000000E+00  0.65291663134E+03  0.65291663134E+03  0.00000000000E+00 0.  1.
          2   -1    0    0  501    0  0.00000000000E+00 -0.00000000000E+00 -0.75711799099E+03  0.75711799099E+03  0.00000000000E+00 0. -1.
         24    2    1    2    0    0  0.19113077152E+03 -0.25040099820E+03  0.23234827349E+03  0.39960269495E+03  0.80404986760E+02 0.  0.
        254    2    1    2    0    0 -0.19113077152E+03  0.25040099820E+03 -0.33654963314E+03  0.10104319274E+04  0.89915259695E+03 0.  0.
         23    2    4    4    0    0  0.20645456430E+03  0.41984817237E+03 -0.40591702127E+02  0.47840989133E+03  0.91281777357E+02 0.  0.
         23    2    4    4    0    0 -0.39758533582E+03 -0.16944717417E+03 -0.29595793101E+03  0.53202203605E+03  0.93112329073E+02 0.  0.
          2    1    3    3  502    0  0.71942452914E+02 -0.12069570137E+03  0.58789343769E+02  0.15231334742E+03  0.00000000000E+00 0. -1.
         -1    1    3    3    0  502  0.11918831860E+03 -0.12970529684E+03  0.17355892972E+03  0.24728934753E+03  0.00000000000E+00 0.  1.
         11    1    5    5    0    0  0.16756148438E+03  0.36747751157E+03 -0.45929131853E+01  0.40390304209E+03  0.00000000000E+00 0. -1.
        -11    1    5    5    0    0  0.38893079930E+02  0.52370660801E+02 -0.35998788942E+02  0.74506849245E+02  0.00000000000E+00 0.  1.
          1    1    6    6  503    0 -0.35042007703E+03 -0.16441867597E+03 -0.29114052258E+03  0.48434547101E+03  0.00000000000E+00 0. -1.
         -1    1    6    6    0  503 -0.47165258787E+02 -0.50284981968E+01 -0.48174084274E+01  0.47676565045E+02  0.00000000000E+00 0.  1.
<mgrwt>
<rscale>  0 0.14061791E+04</rscale>
<asrwt>0</asrwt>
<pdfrwt beam="1">  1        2 0.11647969E+00 0.14061791E+04</pdfrwt>
<pdfrwt beam="2">  1       -1 0.10044871E+00 0.14061791E+04</pdfrwt>
<totfact> 0.38837698E+01</totfact>
</mgrwt>
</event>
<event>
12    6  0.9491186E-008  0.1722684E+04  0.7818608E-02  0.8748532E-01
         -1   -1    0    0    0  501 -0.00000000000E+00  0.00000000000E+00  0.24979952199E+03  0.24979952199E+03  0.00000000000E+00 0.  1.
          2   -1    0    0  501    0  0.00000000000E+00 -0.00000000000E+00 -0.29700201625E+04  0.29700201625E+04  0.00000000000E+00 0. -1.
         24    2    1    2    0    0  0.38059702424E+03 -0.41089597828E+02 -0.79781298205E+02  0.40353836510E+03  0.99678014894E+02 0.  0.
        254    2    1    2    0    0 -0.38059702424E+03  0.41089597828E+02 -0.26404393423E+04  0.28162813194E+04  0.90165298186E+03 0.  0.
         23    2    4    4    0    0 -0.94043220658E+02  0.10304691154E+03 -0.84137571944E+01  0.16650708760E+03  0.90504284877E+02 0.  0.
         23    2    4    4    0    0 -0.28655380358E+03 -0.61957313712E+02 -0.26320255851E+04  0.26497742318E+04  0.88278014131E+02 0.  0.
          4    1    3    3  502    0  0.10952503803E+03 -0.23072469238E+02 -0.69342134602E+02  0.13166778051E+03  0.00000000000E+00 0. -1.
         -3    1    3    3    0  502  0.27107198620E+03 -0.18017128590E+02 -0.10439163603E+02  0.27187058459E+03  0.00000000000E+00 0.  1.
         11    1    5    5    0    0 -0.13220541417E+02  0.80753854777E+02  0.30525022887E+01  0.81885807970E+02  0.00000000000E+00 0.  1.
        -11    1    5    5    0    0 -0.80822679241E+02  0.22293056763E+02 -0.11466259483E+02  0.84621279629E+02  0.00000000000E+00 0. -1.
          3    1    6    6  503    0 -0.23331534982E+03 -0.83485456348E+02 -0.22133917425E+04  0.22272199891E+04  0.00000000000E+00 0. -1.
         -3    1    6    6    0  503 -0.53238453757E+02  0.21528142635E+02 -0.41863384255E+03  0.42255424269E+03  0.00000000000E+00 0.  1.
<mgrwt>
<rscale>  0 0.17226835E+04</rscale>
<asrwt>0</asrwt>
<pdfrwt beam="1">  1        2 0.45692618E+00 0.17226835E+04</pdfrwt>
<pdfrwt beam="2">  1       -1 0.38430695E-01 0.17226835E+04</pdfrwt>
<totfact> 0.12940515E+01</totfact>
</mgrwt>
</event>
<event>
12    6  0.9491186E-008  0.2311265E+04  0.7818608E-02  0.8473493E-01
         -1   -1    0    0    0  501 -0.00000000000E+00  0.00000000000E+00  0.10709128716E+04  0.10709128716E+04  0.00000000000E+00 0.  1.
          2   -1    0    0  501    0  0.00000000000E+00 -0.00000000000E+00 -0.12470541016E+04  0.12470541016E+04  0.00000000000E+00 0. -1.
         24    2    1    2    0    0  0.55296235169E+03  0.46873491189E+03  0.58552676680E+03  0.93544390597E+03  0.82060505553E+02 0.  0.
        254    2    1    2    0    0 -0.55296235169E+03 -0.46873491189E+03 -0.76166799686E+03  0.13825230672E+04  0.89763696113E+03 0.  0.
         23    2    4    4    0    0 -0.23895055133E+03 -0.68677702913E+03 -0.34615556904E+03  0.81049523766E+03  0.91207448010E+02 0.  0.
         23    2    4    4    0    0 -0.31401180037E+03  0.21804211725E+03 -0.41551242782E+03  0.57202782958E+03  0.91757748849E+02 0.  0.
          2    1    3    3  502    0  0.12913622793E+03  0.12054387145E+03  0.18836941911E+03  0.25824412552E+03  0.00000000000E+00 0. -1.
         -3    1    3    3    0  502  0.42382612377E+03  0.34819104043E+03  0.39715734768E+03  0.67719978045E+03  0.00000000000E+00 0.  1.
         11    1    5    5    0    0 -0.22869897350E+03 -0.62060447966E+03 -0.28640238576E+03  0.72074924018E+03  0.00000000000E+00 0. -1.
        -11    1    5    5    0    0 -0.10251577828E+02 -0.66172549476E+02 -0.59753183283E+02  0.89745997485E+02  0.00000000000E+00 0.  1.
          3    1    6    6  503    0 -0.26928354426E+03  0.18308789184E+03 -0.29748134723E+03  0.44105550138E+03  0.00000000000E+00 0. -1.
         -3    1    6    6    0  503 -0.44728256107E+02  0.34954225408E+02 -0.11803108059E+03  0.13097232820E+03  0.00000000000E+00 0.  1.
<mgrwt>
<rscale>  0 0.23112648E+04</rscale>
<asrwt>0</asrwt>
<pdfrwt beam="1">  1        2 0.19185448E+00 0.23112648E+04</pdfrwt>
<pdfrwt beam="2">  1       -1 0.16475583E+00 0.23112648E+04</pdfrwt>
<totfact> 0.49340947E+00</totfact>
</mgrwt>
</event>
<event>
12    6  0.9491186E-008  0.2900065E+04  0.7818608E-02  0.8272858E-01
          2   -1    0    0  501    0  0.00000000000E+00  0.00000000000E+00  0.34704389406E+04  0.34704389406E+04  0.00000000000E+00 0. -1.
         -1   -1    0    0    0  501 -0.00000000000E+00 -0.00000000000E+00 -0.60585831942E+03  0.60585831942E+03  0.00000000000E+00 0.  1.
         24    2    1    2    0    0  0.54124424845E+03  0.54929497590E+03  0.27806057833E+04  0.28865571657E+04  0.75983169030E+02 0.  0.
        254    2    1    2    0    0 -0.54124424845E+03 -0.54929497590E+03  0.83974837913E+02  0.11897400943E+04  0.90208614420E+03 0.  0.
         23    2    4    4    0    0 -0.72776077867E+03 -0.31131749464E+03  0.24658422590E+03  0.83440324834E+03  0.94184218091E+02 0.  0.
         23    2    4    4    0    0  0.18651653022E+03 -0.23797748127E+03 -0.16260938798E+03  0.35533684597E+03  0.91655678543E+02 0.  0.
          2    1    3    3  502    0  0.50033125210E+03  0.48880606432E+03  0.24442392630E+04  0.25423548739E+04  0.00000000000E+00 0. -1.
         -1    1    3    3    0  502  0.40912996352E+02  0.60488911587E+02  0.33636652033E+03  0.34420229182E+03  0.00000000000E+00 0.  1.
         11    1    5    5    0    0 -0.32877419666E+03 -0.11360723599E+03  0.66866358566E+02  0.35421771041E+03  0.00000000000E+00 0. -1.
        -11    1    5    5    0    0 -0.39898658200E+03 -0.19771025865E+03  0.17971786733E+03  0.48018553792E+03  0.00000000000E+00 0.  1.
          1    1    6    6  503    0  0.54951693875E+02 -0.45568064735E+02 -0.44931465014E+00  0.71388648027E+02  0.00000000000E+00 0. -1.
         -1    1    6    6    0  503  0.13156483634E+03 -0.19240941653E+03 -0.16216007333E+03  0.28394819794E+03  0.00000000000E+00 0.  1.
<mgrwt>
<rscale>  0 0.29000650E+04</rscale>
<asrwt>0</asrwt>
<pdfrwt beam="1">  1        2 0.53391367E+00 0.29000650E+04</pdfrwt>
<pdfrwt beam="2">  1       -1 0.93208974E-01 0.29000650E+04</pdfrwt>
<totfact> 0.93376484E-01</totfact>
</mgrwt>
</event>
<event>
12    6  0.9491186E-008  0.1628757E+04  0.7818608E-02  0.8803074E-01
          2   -1    0    0  501    0  0.00000000000E+00  0.00000000000E+00  0.13113065836E+04  0.13113065836E+04  0.00000000000E+00 0. -1.
         -1   -1    0    0    0  501 -0.00000000000E+00 -0.00000000000E+00 -0.50576423754E+03  0.50576423754E+03  0.00000000000E+00 0.  1.
         24    2    1    2    0    0  0.23395428346E+03 -0.43284504436E+03  0.58415457880E+03  0.76783324433E+03  0.79005569402E+02 0.  0.
        254    2    1    2    0    0 -0.23395428346E+03  0.43284504436E+03  0.22138776727E+03  0.10492375768E+04  0.89988749849E+03 0.  0.
         23    2    4    4    0    0  0.94838651224E+02  0.47690759365E+03 -0.17456535571E+03  0.52467456696E+03  0.91515655229E+02 0.  0.
         23    2    4    4    0    0 -0.32879293468E+03 -0.44062549292E+02  0.39595312298E+03  0.52456300985E+03  0.91330025537E+02 0.  0.
          4    1    3    3  502    0  0.15311502183E+03 -0.23253925472E+03  0.28079416415E+03  0.39542897911E+03  0.00000000000E+00 0. -1.
         -3    1    3    3    0  502  0.80839261624E+02 -0.20030578964E+03  0.30336041464E+03  0.37240426522E+03  0.00000000000E+00 0.  1.
         11    1    5    5    0    0  0.81396905525E+02  0.25483912677E+03 -0.13139920746E+03  0.29805064751E+03  0.00000000000E+00 0.  1.
        -11    1    5    5    0    0  0.13441745699E+02  0.22206846688E+03 -0.43166148250E+02  0.22662391945E+03  0.00000000000E+00 0. -1.
          1    1    6    6  503    0 -0.85282911210E+02 -0.42506839198E+02  0.72724533075E+02  0.11987019660E+03  0.00000000000E+00 0. -1.
         -1    1    6    6    0  503 -0.24351002347E+03 -0.15557100941E+01  0.32322858990E+03  0.40469281325E+03  0.00000000000E+00 0.  1.
<mgrwt>
<rscale>  0 0.16287565E+04</rscale>
<asrwt>0</asrwt>
<pdfrwt beam="1">  1        2 0.20173947E+00 0.16287565E+04</pdfrwt>
<pdfrwt beam="2">  1       -1 0.77809883E-01 0.16287565E+04</pdfrwt>
<totfact> 0.29388043E+01</totfact>
</mgrwt>
</event>
<event>
12    6  0.9491186E-008  0.2915245E+04  0.7818608E-02  0.8268356E-01
         -1   -1    0    0    0  501 -0.00000000000E+00  0.00000000000E+00  0.18788704155E+04  0.18788704155E+04  0.00000000000E+00 0.  1.
          2   -1    0    0  501    0  0.00000000000E+00 -0.00000000000E+00 -0.11308197266E+04  0.11308197266E+04  0.00000000000E+00 0. -1.
         24    2    1    2    0    0 -0.71792564240E+03 -0.10610731395E+04  0.27247895167E+02  0.12839471336E+04  0.80525516699E+02 0.  0.
        254    2    1    2    0    0  0.71792564240E+03  0.10610731395E+04  0.72080279371E+03  0.17257430085E+04  0.90406793359E+03 0.  0.
         23    2    4    4    0    0  0.75124414080E+03  0.33154224396E+03  0.30662054055E+03  0.88110504763E+03  0.89676811140E+02 0.  0.
         23    2    4    4    0    0 -0.33318498397E+02  0.72953089553E+03  0.41418225316E+03  0.84463796085E+03  0.92416969293E+02 0.  0.
          2    1    3    3  502    0 -0.30728206990E+02 -0.21822867264E+02 -0.13487968033E+01  0.37713120970E+02  0.00000000000E+00 0. -1.
         -1    1    3    3    0  502 -0.68719743541E+03 -0.10392502722E+04  0.28596691970E+02  0.12462340127E+04  0.00000000000E+00 0.  1.
         11    1    5    5    0    0  0.63101372205E+03  0.26401087562E+03  0.28712382943E+03  0.74183566461E+03  0.00000000000E+00 0. -1.
        -11    1    5    5    0    0  0.12023041875E+03  0.67531368339E+02  0.19496711124E+02  0.13926938302E+03  0.00000000000E+00 0.  1.
          1    1    6    6  503    0 -0.10263396872E+02  0.87121304587E+02  0.18053923420E+02  0.89562286589E+02  0.00000000000E+00 0. -1.
         -1    1    6    6    0  503 -0.23055101525E+02  0.64240959094E+03  0.39612832974E+03  0.75507567426E+03  0.00000000000E+00 0.  1.
<mgrwt>
<rscale>  0 0.29152453E+04</rscale>
<asrwt>0</asrwt>
<pdfrwt beam="1">  1        2 0.17397227E+00 0.29152453E+04</pdfrwt>
<pdfrwt beam="2">  1       -1 0.28905699E+00 0.29152453E+04</pdfrwt>
<totfact> 0.79646917E-01</totfact>
</mgrwt>
</event>
<event>
12    6  0.9491186E-008  0.1762465E+04  0.7818608E-02  0.8726519E-01
          2   -1    0    0  501    0  0.00000000000E+00  0.00000000000E+00  0.13169877037E+04  0.13169877037E+04  0.00000000000E+00 0. -1.
         -1   -1    0    0    0  501 -0.00000000000E+00 -0.00000000000E+00 -0.58965644379E+03  0.58965644379E+03  0.00000000000E+00 0.  1.
         24    2    1    2    0    0  0.12373074449E+03  0.57675013322E+03 -0.23462867873E+02  0.59571459473E+03  0.79845844655E+02 0.  0.
        254    2    1    2    0    0 -0.12373074449E+03 -0.57675013322E+03  0.75079412774E+03  0.13109295527E+04  0.89827304126E+03 0.  0.
         23    2    4    4    0    0 -0.17297229069E+03 -0.22433096161E+03  0.87433196298E+03  0.92332896660E+03  0.88522344028E+02 0.  0.
         23    2    4    4    0    0  0.49241546199E+02 -0.35241917161E+03 -0.12353783524E+03  0.38760058612E+03  0.91370757041E+02 0.  0.
          4    1    3    3  502    0  0.63437768244E+02  0.37436253597E+03 -0.49601240336E+02  0.38292550427E+03  0.00000000000E+00 0. -1.
         -3    1    3    3    0  502  0.60292976250E+02  0.20238759725E+03  0.26138372463E+02  0.21278909047E+03  0.00000000000E+00 0.  1.
         11    1    5    5    0    0 -0.12727536285E+02 -0.67312122501E+02  0.14693678913E+03  0.16212134966E+03  0.00000000000E+00 0. -1.
        -11    1    5    5    0    0 -0.16024475441E+03 -0.15701883911E+03  0.72739517385E+03  0.76120761695E+03  0.00000000000E+00 0.  1.
          3    1    6    6  503    0 -0.19624728569E+02 -0.99613476111E+02 -0.60208115392E+02  0.11803809450E+03  0.00000000000E+00 0. -1.
         -3    1    6    6    0  503  0.68866274768E+02 -0.25280569549E+03 -0.63329719844E+02  0.26956249162E+03  0.00000000000E+00 0.  1.
<mgrwt>
<rscale>  0 0.17624645E+04</rscale>
<asrwt>0</asrwt>
<pdfrwt beam="1">  1        2 0.20261349E+00 0.17624645E+04</pdfrwt>
<pdfrwt beam="2">  1       -1 0.90716376E-01 0.17624645E+04</pdfrwt>
<totfact> 0.20703356E+01</totfact>
</mgrwt>
</event>
<event>
12    6  0.9491186E-008  0.2007898E+04  0.7818608E-02  0.8602937E-01
         -1   -1    0    0    0  501 -0.00000000000E+00  0.00000000000E+00  0.40194220053E+03  0.40194220053E+03  0.00000000000E+00 0.  1.
          2   -1    0    0  501    0  0.00000000000E+00 -0.00000000000E+00 -0.25076086510E+04  0.25076086510E+04  0.00000000000E+00 0. -1.
         24    2    1    2    0    0  0.16290398006E+03  0.63134126780E+03 -0.15061441771E+04  0.16432979894E+04  0.82634718119E+02 0.  0.
        254    2    1    2    0    0 -0.16290398006E+03 -0.63134126780E+03 -0.59952227333E+03  0.12662528621E+04  0.90489770217E+03 0.  0.
         23    2    4    4    0    0 -0.10848372333E+03 -0.24164748012E+03  0.21777917581E+03  0.35474440832E+03  0.90849341988E+02 0.  0.
         23    2    4    4    0    0 -0.54420256735E+02 -0.38969378768E+03 -0.81730144915E+03  0.91150845377E+03  0.89683833717E+02 0.  0.
          4    1    3    3  502    0  0.42356777244E+02  0.28877614611E+03 -0.73863123484E+03  0.79420517514E+03  0.00000000000E+00 0. -1.
         -3    1    3    3    0  502  0.12054720282E+03  0.34256512169E+03 -0.76751294229E+03  0.84909281429E+03  0.00000000000E+00 0.  1.
         11    1    5    5    0    0 -0.71910188687E+01 -0.33540545978E+02 -0.35699711784E+01  0.34488022139E+02  0.00000000000E+00 0. -1.
        -11    1    5    5    0    0 -0.10129270446E+03 -0.20810693414E+03  0.22134914699E+03  0.32025638618E+03  0.00000000000E+00 0.  1.
          3    1    6    6  503    0 -0.57427804832E+02 -0.37218482338E+03 -0.80801163222E+03  0.89146076376E+03  0.00000000000E+00 0.  1.
         -3    1    6    6    0  503  0.30075480971E+01 -0.17508964297E+02 -0.92898169212E+01  0.20047690010E+02  0.00000000000E+00 0. -1.
<mgrwt>
<rscale>  0 0.20078981E+04</rscale>
<asrwt>0</asrwt>
<pdfrwt beam="1">  1        2 0.38578595E+00 0.20078981E+04</pdfrwt>
<pdfrwt beam="2">  1       -1 0.61837261E-01 0.20078981E+04</pdfrwt>
<totfact> 0.96654857E+00</totfact>
</mgrwt>
</event>
<event>
12    6  0.9491186E-008  0.1533341E+04  0.7818608E-02  0.8862580E-01
         -1   -1    0    0    0  501 -0.00000000000E+00  0.00000000000E+00  0.52672573383E+03  0.52672573383E+03  0.00000000000E+00 0.  1.
          2   -1    0    0  501    0  0.00000000000E+00 -0.00000000000E+00 -0.11159191316E+04  0.11159191316E+04  0.00000000000E+00 0. -1.
         24    2    1    2    0    0  0.39948823343E+03 -0.18900585007E+03 -0.46381984890E+03  0.64553892127E+03  0.79231222568E+02 0.  0.
        254    2    1    2    0    0 -0.39948823343E+03  0.18900585007E+03 -0.12537354886E+03  0.99710594415E+03  0.88497891336E+03 0.  0.
         23    2    4    4    0    0  0.81143868037E+02 -0.23899699716E+00 -0.39082125214E+03  0.40920619771E+03  0.90133660090E+02 0.  0.
         23    2    4    4    0    0 -0.48063210147E+03  0.18924484707E+03  0.26544770328E+03  0.58789974643E+03  0.91338926952E+02 0.  0.
          2    1    3    3  502    0  0.29948803475E+03 -0.10477681209E+03 -0.34720512714E+03  0.47034313392E+03  0.00000000000E+00 0. -1.
         -1    1    3    3    0  502  0.10000019868E+03 -0.84229037978E+02 -0.11661472176E+03  0.17519578735E+03  0.00000000000E+00 0.  1.
         11    1    5    5    0    0  0.26059860313E+02 -0.37025595983E+02 -0.24357375645E+03  0.24774621270E+03  0.00000000000E+00 0.  1.
        -11    1    5    5    0    0  0.55084007724E+02  0.36786598986E+02 -0.14724749569E+03  0.16145998501E+03  0.00000000000E+00 0. -1.
          3    1    6    6  503    0 -0.36999338695E+03  0.11682001461E+03  0.16400578585E+03  0.42123618078E+03  0.00000000000E+00 0. -1.
         -3    1    6    6    0  503 -0.11063871452E+03  0.72424832461E+02  0.10144191743E+03  0.16666356566E+03  0.00000000000E+00 0.  1.
<mgrwt>
<rscale>  0 0.15333406E+04</rscale>
<asrwt>0</asrwt>
<pdfrwt beam="1">  1        2 0.17167986E+00 0.15333406E+04</pdfrwt>
<pdfrwt beam="2">  1       -1 0.81034729E-01 0.15333406E+04</pdfrwt>
<totfact> 0.35537945E+01</totfact>
</mgrwt>
</event>
<event>
12    6  0.9491186E-008  0.1754651E+04  0.7818608E-02  0.8730794E-01
          2   -1    0    0  501    0  0.00000000000E+00  0.00000000000E+00  0.18119522712E+04  0.18119522712E+04  0.00000000000E+00 0. -1.
         -1   -1    0    0    0  501 -0.00000000000E+00 -0.00000000000E+00 -0.42479039213E+03  0.42479039213E+03  0.00000000000E+00 0.  1.
         24    2    1    2    0    0 -0.62463767124E+03 -0.68469093946E+02  0.68633746906E+03  0.93285909487E+03  0.65625698403E+02 0.  0.
        254    2    1    2    0    0  0.62463767124E+03  0.68469093946E+02  0.70082441004E+03  0.13038835685E+04  0.90227338946E+03 0.  0.
         23    2    4    4    0    0  0.47366571303E+03 -0.37698592651E+03  0.31086086224E+03  0.68655042190E+03  0.90771194000E+02 0.  0.
         23    2    4    4    0    0  0.15097195821E+03  0.44545502045E+03  0.38996354779E+03  0.61733314659E+03  0.88351218789E+02 0.  0.
          4    1    3    3  502    0 -0.43951831219E+03 -0.30653626390E+02  0.44313981347E+03  0.62489109919E+03  0.00000000000E+00 0. -1.
         -3    1    3    3    0  502 -0.18511935905E+03 -0.37815467556E+02  0.24319765559E+03  0.30796799568E+03  0.00000000000E+00 0.  1.
         11    1    5    5    0    0  0.25155476085E+03 -0.17192731906E+03  0.11159333793E+03  0.32448709345E+03  0.00000000000E+00 0.  1.
        -11    1    5    5    0    0  0.22211095217E+03 -0.20505860744E+03  0.19926752431E+03  0.36206332845E+03  0.00000000000E+00 0. -1.
          1    1    6    6  503    0  0.52842707533E+02  0.64609856184E+02  0.89720138259E+02  0.12254178253E+03  0.00000000000E+00 0. -1.
         -1    1    6    6    0  503  0.98129250677E+02  0.38084516427E+03  0.30024340953E+03  0.49479136406E+03  0.00000000000E+00 0.  1.
<mgrwt>
<rscale>  0 0.17546509E+04</rscale>
<asrwt>0</asrwt>
<pdfrwt beam="1">  1        2 0.27876188E+00 0.17546509E+04</pdfrwt>
<pdfrwt beam="2">  1       -1 0.65352369E-01 0.17546509E+04</pdfrwt>
<totfact> 0.21767067E+01</totfact>
</mgrwt>
</event>
<event>
12    6  0.9491186E-008  0.1068314E+04  0.7818608E-02  0.9236637E-01
         -1   -1    0    0    0  501 -0.00000000000E+00  0.00000000000E+00  0.11287877516E+03  0.11287877516E+03  0.00000000000E+00 0.  1.
          2   -1    0    0  501    0  0.00000000000E+00 -0.00000000000E+00 -0.25277011098E+04  0.25277011098E+04  0.00000000000E+00 0. -1.
         24    2    1    2    0    0 -0.11536240514E+02 -0.69904210795E+02 -0.70369026296E+03  0.71160544211E+03  0.78629736962E+02 0.  0.
        254    2    1    2    0    0  0.11536240514E+02  0.69904210795E+02 -0.17111320717E+04  0.19289744428E+04  0.88766533720E+03 0.  0.
         23    2    4    4    0    0 -0.19986813841E+03 -0.21919525803E+03 -0.19092441346E+03  0.36442622375E+03  0.91435808122E+02 0.  0.
         23    2    4    4    0    0  0.21140437892E+03  0.28909946883E+03 -0.15202076582E+04  0.15645482191E+04  0.92246904860E+02 0.  0.
          4    1    3    3  502    0 -0.25500841316E+02 -0.64341960771E+02 -0.31016428850E+03  0.31779248998E+03  0.00000000000E+00 0. -1.
         -3    1    3    3    0  502  0.13964600801E+02 -0.55622500243E+01 -0.39352597446E+03  0.39381295214E+03  0.00000000000E+00 0.  1.
         11    1    5    5    0    0 -0.27038229750E+02 -0.42138958269E+01 -0.44217511646E+02  0.52000106944E+02  0.00000000000E+00 0.  1.
        -11    1    5    5    0    0 -0.17282990866E+03 -0.21498136220E+03 -0.14670690182E+03  0.31242611681E+03  0.00000000000E+00 0. -1.
          3    1    6    6  503    0  0.17435213354E+03  0.28036408936E+03 -0.14025730259E+04  0.14409072774E+04  0.00000000000E+00 0. -1.
         -3    1    6    6    0  503  0.37052245383E+02  0.87353794638E+01 -0.11763463226E+03  0.12364094164E+03  0.00000000000E+00 0.  1.
<mgrwt>
<rscale>  0 0.10683142E+04</rscale>
<asrwt>0</asrwt>
<pdfrwt beam="1">  1        2 0.38887707E+00 0.10683142E+04</pdfrwt>
<pdfrwt beam="2">  1       -1 0.17365966E-01 0.10683142E+04</pdfrwt>
<totfact> 0.99352410E+01</totfact>
</mgrwt>
</event>
<event>
12    6  0.9491186E-008  0.1529114E+04  0.7818608E-02  0.8865320E-01
         -1   -1    0    0    0  501 -0.00000000000E+00  0.00000000000E+00  0.42145625687E+03  0.42145625687E+03  0.00000000000E+00 0.  1.
          2   -1    0    0  501    0  0.00000000000E+00 -0.00000000000E+00 -0.13869696570E+04  0.13869696570E+04  0.00000000000E+00 0. -1.
         24    2    1    2    0    0  0.83370887787E+02  0.21659749668E+03  0.20033196671E+03  0.31699155815E+03  0.80533040137E+02 0.  0.
        254    2    1    2    0    0 -0.83370887787E+02 -0.21659749668E+03 -0.11658453668E+04  0.14914343557E+04  0.90073072420E+03 0.  0.
         23    2    4    4    0    0 -0.42841154469E+02 -0.28327846054E+03 -0.12869046123E+04  0.13214492782E+04  0.89569319281E+02 0.  0.
         23    2    4    4    0    0 -0.40529733318E+02  0.66680963856E+02  0.12105924547E+03  0.16998507751E+03  0.90280537425E+02 0.  0.
          4    1    3    3  502    0 -0.13766095317E+02  0.32892925916E+02  0.45707617459E+02  0.57970994897E+02  0.00000000000E+00 0. -1.
         -3    1    3    3    0  502  0.97136983104E+02  0.18370457077E+03  0.15462434925E+03  0.25902056326E+03  0.00000000000E+00 0.  1.
         11    1    5    5    0    0  0.65261596594E+01 -0.10147086122E+03 -0.62656684646E+03  0.63476368793E+03  0.00000000000E+00 0. -1.
        -11    1    5    5    0    0 -0.49367314128E+02 -0.18180759932E+03 -0.66033776584E+03  0.68668559026E+03  0.00000000000E+00 0.  1.
          1    1    6    6  503    0 -0.37572339155E+02 -0.42140155583E+01  0.11615377175E+02  0.39551935270E+02  0.00000000000E+00 0. -1.
         -1    1    6    6    0  503 -0.29573941636E+01  0.70894979414E+02  0.10944386830E+03  0.13043314224E+03  0.00000000000E+00 0.  1.
<mgrwt>
<rscale>  0 0.15291135E+04</rscale>
<asrwt>0</asrwt>
<pdfrwt beam="1">  1        2 0.21337995E+00 0.15291135E+04</pdfrwt>
<pdfrwt beam="2">  1       -1 0.64839424E-01 0.15291135E+04</pdfrwt>
<totfact> 0.39012401E+01</totfact>
</mgrwt>
</event>
<event>
12    6  0.9491186E-008  0.1510958E+04  0.7818608E-02  0.8877198E-01
          2   -1    0    0  501    0  0.00000000000E+00  0.00000000000E+00  0.76076453984E+03  0.76076453984E+03  0.00000000000E+00 0. -1.
         -1   -1    0    0    0  501 -0.00000000000E+00 -0.00000000000E+00 -0.75023020578E+03  0.75023020578E+03  0.00000000000E+00 0.  1.
         24    2    1    2    0    0  0.73566158178E+02  0.23516269280E+03  0.41987259148E+03  0.49155242580E+03  0.67950883121E+02 0.  0.
        254    2    1    2    0    0 -0.73566158178E+02 -0.23516269280E+03 -0.40933825742E+03  0.10194423198E+04  0.90055058866E+03 0.  0.
         23    2    4    4    0    0 -0.17026740071E+03  0.24337174768E+03  0.81795528658E+02  0.32093666354E+03  0.89939080411E+02 0.  0.
         23    2    4    4    0    0  0.96701242529E+02 -0.47853444048E+03 -0.49113378608E+03  0.69850565628E+03  0.91386076577E+02 0.  0.
          4    1    3    3  502    0  0.80552338227E+02  0.18755186012E+03  0.36784419843E+03  0.42068246190E+03  0.00000000000E+00 0. -1.
         -3    1    3    3    0  502 -0.69861800497E+01  0.47610832673E+02  0.52028393050E+02  0.70869963898E+02  0.00000000000E+00 0.  1.
         11    1    5    5    0    0 -0.17582502386E+03  0.24103987431E+03  0.68176495091E+02  0.30604361537E+03  0.00000000000E+00 0.  1.
        -11    1    5    5    0    0  0.55576231581E+01  0.23318733666E+01  0.13619033567E+02  0.14893048172E+02  0.00000000000E+00 0. -1.
          2    1    6    6  503    0  0.80227444221E+02 -0.45865694603E+03 -0.43717925367E+03  0.63869267788E+03  0.00000000000E+00 0.  1.
         -2    1    6    6    0  503  0.16473798307E+02 -0.19877494449E+02 -0.53954532414E+02  0.59812978393E+02  0.00000000000E+00 0. -1.
<mgrwt>
<rscale>  0 0.15109580E+04</rscale>
<asrwt>0</asrwt>
<pdfrwt beam="1">  1        2 0.11704070E+00 0.15109580E+04</pdfrwt>
<pdfrwt beam="2">  1       -1 0.11542003E+00 0.15109580E+04</pdfrwt>
<totfact> 0.27618665E+01</totfact>
</mgrwt>
</event>
<event>
12    6  0.9491186E-008  0.2627199E+04  0.7818608E-02  0.8359020E-01
         -1   -1    0    0    0  501 -0.00000000000E+00  0.00000000000E+00  0.13097672075E+04  0.13097672075E+04  0.00000000000E+00 0.  1.
          2   -1    0    0  501    0  0.00000000000E+00 -0.00000000000E+00 -0.13174434412E+04  0.13174434412E+04  0.00000000000E+00 0. -1.
         24    2    1    2    0    0 -0.23674016875E+03  0.35393872164E+03 -0.10807426001E+04  0.11642572492E+04  0.78561113679E+02 0.  0.
        254    2    1    2    0    0  0.23674016875E+03 -0.35393872164E+03  0.10730663664E+04  0.14629533995E+04  0.89857815255E+03 0.  0.
         23    2    4    4    0    0 -0.21983841980E+03 -0.34529178011E+03  0.85004785250E+03  0.94757095840E+03  0.88056944225E+02 0.  0.
         23    2    4    4    0    0  0.45657858854E+03 -0.86469415332E+01  0.22301851391E+03  0.51538244112E+03  0.85691457857E+02 0.  0.
          2    1    3    3  502    0 -0.17770039978E+03  0.27939482567E+03 -0.74420062845E+03  0.81453881189E+03  0.00000000000E+00 0. -1.
         -1    1    3    3    0  502 -0.59039768965E+02  0.74543895972E+02 -0.33654197161E+03  0.34971843732E+03  0.00000000000E+00 0.  1.
         11    1    5    5    0    0 -0.13141732997E+03 -0.17030387006E+03  0.35467866687E+03  0.41481427110E+03  0.00000000000E+00 0. -1.
        -11    1    5    5    0    0 -0.88421089831E+02 -0.17498791005E+03  0.49536918564E+03  0.53275668730E+03  0.00000000000E+00 0.  1.
          4    1    6    6  503    0  0.39917198498E+02 -0.76002162637E+01  0.49475985944E+02  0.64023583220E+02  0.00000000000E+00 0. -1.
         -4    1    6    6    0  503  0.41666139005E+03 -0.10467252696E+01  0.17354252797E+03  0.45135885790E+03  0.00000000000E+00 0.  1.
<mgrwt>
<rscale>  0 0.26271994E+04</rscale>
<asrwt>0</asrwt>
<pdfrwt beam="1">  1        2 0.20268360E+00 0.26271994E+04</pdfrwt>
<pdfrwt beam="2">  1       -1 0.20150265E+00 0.26271994E+04</pdfrwt>
<totfact> 0.23863490E+00</totfact>
</mgrwt>
</event>
<event>
12    6  0.9491186E-008  0.2090678E+04  0.7818608E-02  0.8565361E-01
         -1   -1    0    0    0  501 -0.00000000000E+00  0.00000000000E+00  0.57363216493E+03  0.57363216493E+03  0.00000000000E+00 0.  1.
          2   -1    0    0  501    0  0.00000000000E+00 -0.00000000000E+00 -0.19049386852E+04  0.19049386852E+04  0.00000000000E+00 0. -1.
         24    2    1    2    0    0  0.24115978090E+03  0.80403716750E+03 -0.61947294985E+03  0.10462793931E+04  0.79498592538E+02 0.  0.
        254    2    1    2    0    0 -0.24115978090E+03 -0.80403716750E+03 -0.71183357047E+03  0.14322914571E+04  0.91657949971E+03 0.  0.
         23    2    4    4    0    0  0.70551410680E+02 -0.69358260615E+03 -0.81321199056E+03  0.10748809176E+04  0.89559546580E+02 0.  0.
         23    2    4    4    0    0 -0.31171119158E+03 -0.11045456135E+03  0.10137842010E+03  0.35741053944E+03  0.90003514151E+02 0.  0.
          4    1    3    3  502    0  0.21773236762E+03  0.73237151177E+03 -0.58995534687E+03  0.96530965315E+03  0.00000000000E+00 0. -1.
         -3    1    3    3    0  502  0.23427413288E+02  0.71665655730E+02 -0.29517602975E+02  0.80969739965E+02  0.00000000000E+00 0.  1.
         11    1    5    5    0    0  0.32181483110E+02 -0.71526771059E+02 -0.11199126630E+03  0.13672516433E+03  0.00000000000E+00 0. -1.
        -11    1    5    5    0    0  0.38369927570E+02 -0.62205583509E+03 -0.70122072426E+03  0.93815575329E+03  0.00000000000E+00 0.  1.
          2    1    6    6  503    0 -0.31666564678E+02  0.11643574342E+02 -0.45889705780E+01  0.34050004302E+02  0.00000000000E+00 0. -1.
         -2    1    6    6    0  503 -0.28004462691E+03 -0.12209813569E+03  0.10596739067E+03  0.32336053514E+03  0.00000000000E+00 0.  1.
<mgrwt>
<rscale>  0 0.20906785E+04</rscale>
<asrwt>0</asrwt>
<pdfrwt beam="1">  1        2 0.29306749E+00 0.20906785E+04</pdfrwt>
<pdfrwt beam="2">  1       -1 0.88251101E-01 0.20906785E+04</pdfrwt>
<totfact> 0.99928805E+00</totfact>
</mgrwt>
</event>
<event>
12    6  0.9491186E-008  0.1456443E+04  0.7818608E-02  0.8913946E-01
          2   -1    0    0  501    0  0.00000000000E+00  0.00000000000E+00  0.21521008713E+04  0.21521008713E+04  0.00000000000E+00 0. -1.
         -1   -1    0    0    0  501 -0.00000000000E+00 -0.00000000000E+00 -0.24641333647E+03  0.24641333647E+03  0.00000000000E+00 0.  1.
         24    2    1    2    0    0  0.39310396249E+03 -0.97339676622E+02  0.32333297511E+03  0.52441684018E+03  0.80393230453E+02 0.  0.
        254    2    1    2    0    0 -0.39310396249E+03  0.97339676622E+02  0.15823545597E+04  0.18740973676E+04  0.91890655268E+03 0.  0.
         23    2    4    4    0    0 -0.67145165483E+03  0.16306664142E+03  0.99758386870E+03  0.12168773478E+04  0.90436995020E+02 0.  0.
         23    2    4    4    0    0  0.27834769234E+03 -0.65726964794E+02  0.58477069100E+03  0.65722001982E+03  0.90465030056E+02 0.  0.
          4    1    3    3  502    0  0.33545481715E+02 -0.88003833442E+01  0.30359973242E+01  0.34813264286E+02  0.00000000000E+00 0. -1.
         -3    1    3    3    0  502  0.35955848078E+03 -0.88539293278E+02  0.32029697779E+03  0.48960357590E+03  0.00000000000E+00 0.  1.
         11    1    5    5    0    0 -0.25848031013E+03  0.60273373165E+02  0.30839204033E+03  0.40687909847E+03  0.00000000000E+00 0.  1.
        -11    1    5    5    0    0 -0.41297134470E+03  0.10279326825E+03  0.68919182837E+03  0.80999824928E+03  0.00000000000E+00 0. -1.
          1    1    6    6  503    0  0.97655963435E+02 -0.77682539071E+00  0.12253999407E+03  0.15669505671E+03  0.00000000000E+00 0. -1.
         -1    1    6    6    0  503  0.18069172890E+03 -0.64950139404E+02  0.46223069694E+03  0.50052496311E+03  0.00000000000E+00 0.  1.
<mgrwt>
<rscale>  0 0.14564427E+04</rscale>
<asrwt>0</asrwt>
<pdfrwt beam="1">  1        2 0.33109243E+00 0.14564427E+04</pdfrwt>
<pdfrwt beam="2">  1       -1 0.37909746E-01 0.14564427E+04</pdfrwt>
<totfact> 0.40790629E+01</totfact>
</mgrwt>
</event>
<event>
12    6  0.9491186E-008  0.3962870E+04  0.7818608E-02  0.8012079E-01
          2   -1    0    0  501    0  0.00000000000E+00  0.00000000000E+00  0.21421574323E+04  0.21421574323E+04  0.00000000000E+00 0. -1.
         -1   -1    0    0    0  501 -0.00000000000E+00 -0.00000000000E+00 -0.18327716458E+04  0.18327716458E+04  0.00000000000E+00 0.  1.
         24    2    1    2    0    0 -0.11994275992E+04 -0.14445388447E+04  0.13329102910E+03  0.18839868287E+04  0.79503663139E+02 0.  0.
        254    2    1    2    0    0  0.11994275992E+04  0.14445388447E+04  0.17609475740E+03  0.20909422495E+04  0.90316725341E+03 0.  0.
         23    2    4    4    0    0  0.11895508869E+04  0.11758927693E+04  0.40442794244E+03  0.17233483806E+04  0.92803893675E+02 0.  0.
         23    2    4    4    0    0  0.98767122828E+01  0.26864607544E+03 -0.22833318504E+03  0.36759386898E+03  0.10354200030E+03 0.  0.
          4    1    3    3  502    0 -0.93796059280E+03 -0.11539809691E+04  0.77130043635E+02  0.14890907274E+04  0.00000000000E+00 0. -1.
         -3    1    3    3    0  502 -0.26146700643E+03 -0.29055787562E+03  0.56160985460E+02  0.39489610130E+03  0.00000000000E+00 0.  1.
         11    1    5    5    0    0  0.60155667248E+02  0.50928026074E+02  0.20253264010E+00  0.78818837604E+02  0.00000000000E+00 0.  1.
        -11    1    5    5    0    0  0.11293952197E+04  0.11249647432E+04  0.40422540980E+03  0.16445295429E+04  0.00000000000E+00 0. -1.
          3    1    6    6  503    0 -0.24994827198E+02  0.22628076638E+03 -0.15259337493E+03  0.27406653333E+03  0.00000000000E+00 0. -1.
         -3    1    6    6    0  503  0.34871539481E+02  0.42365309054E+02 -0.75739810112E+02  0.93527335644E+02  0.00000000000E+00 0.  1.
<mgrwt>
<rscale>  0 0.39628704E+04</rscale>
<asrwt>0</asrwt>
<pdfrwt beam="1">  1        2 0.32956268E+00 0.39628704E+04</pdfrwt>
<pdfrwt beam="2">  1       -1 0.28196487E+00 0.39628704E+04</pdfrwt>
<totfact> 0.21647308E-01</totfact>
</mgrwt>
</event>
<event>
12    6  0.9491186E-008  0.2043468E+04  0.7818608E-02  0.8586564E-01
          2   -1    0    0  501    0  0.00000000000E+00  0.00000000000E+00  0.85724864856E+03  0.85724864856E+03  0.00000000000E+00 0. -1.
         -1   -1    0    0    0  501 -0.00000000000E+00 -0.00000000000E+00 -0.12177795709E+04  0.12177795709E+04  0.00000000000E+00 0.  1.
         24    2    1    2    0    0  0.37091588583E+03  0.29866648625E+03 -0.80335731537E+03  0.93723492892E+03  0.79032091365E+02 0.  0.
        254    2    1    2    0    0 -0.37091588583E+03 -0.29866648625E+03  0.44282639300E+03  0.11377932906E+04  0.93364773514E+03 0.  0.
         23    2    4    4    0    0 -0.53632498872E+03 -0.16244220611E+03  0.62300793157E+03  0.84288333239E+03  0.91002556867E+02 0.  0.
         23    2    4    4    0    0  0.16540910289E+03 -0.13622428014E+03 -0.18018153857E+03  0.29490995817E+03  0.92678318772E+02 0.  0.
          2    1    3    3  502    0  0.14769647616E+02  0.38599748730E+02 -0.80174433464E+02  0.90199905066E+02  0.00000000000E+00 0. -1.
         -1    1    3    3    0  502  0.35614623822E+03  0.26006673752E+03 -0.72318288191E+03  0.84703502386E+03  0.00000000000E+00 0.  1.
         11    1    5    5    0    0 -0.27349574487E+03 -0.12818540444E+03  0.31199115477E+03  0.43424635983E+03  0.00000000000E+00 0. -1.
        -11    1    5    5    0    0 -0.26282924385E+03 -0.34256801676E+02  0.31101677680E+03  0.40863697255E+03  0.00000000000E+00 0.  1.
          4    1    6    6  503    0  0.11750732227E+03 -0.78676649559E+02 -0.60667401991E+02  0.15387826240E+03  0.00000000000E+00 0. -1.
         -4    1    6    6    0  503  0.47901780617E+02 -0.57547630576E+02 -0.11951413658E+03  0.14103169578E+03  0.00000000000E+00 0.  1.
<mgrwt>
<rscale>  0 0.20434675E+04</rscale>
<asrwt>0</asrwt>
<pdfrwt beam="1">  1        2 0.13188441E+00 0.20434675E+04</pdfrwt>
<pdfrwt beam="2">  1       -1 0.18735070E+00 0.20434675E+04</pdfrwt>
<totfact> 0.61126017E+00</totfact>
</mgrwt>
</event>
<event>
12    6  0.9491186E-008  0.2148607E+04  0.7818608E-02  0.8540129E-01
          2   -1    0    0  501    0  0.00000000000E+00  0.00000000000E+00  0.92888321536E+03  0.92888321536E+03  0.00000000000E+00 0. -1.
         -1   -1    0    0    0  501 -0.00000000000E+00 -0.00000000000E+00 -0.12424895929E+04  0.12424895929E+04  0.00000000000E+00 0.  1.
         24    2    1    2    0    0  0.19556628504E+03 -0.82003877862E+03  0.14157983838E+03  0.85860823622E+03  0.80333569437E+02 0.  0.
        254    2    1    2    0    0 -0.19556628504E+03  0.82003877862E+03 -0.45518621594E+03  0.13127645721E+04  0.89746674601E+03 0.  0.
         23    2    4    4    0    0 -0.32143834954E+03  0.77141242684E+03 -0.64833686100E+03  0.10617759627E+04  0.92885761714E+02 0.  0.
         23    2    4    4    0    0  0.12587206450E+03  0.48626351778E+02  0.19315064505E+03  0.25098860939E+03  0.86485904354E+02 0.  0.
          2    1    3    3  502    0  0.66873397165E+02 -0.17030937739E+03  0.94930875493E+01  0.18321422976E+03  0.00000000000E+00 0. -1.
         -1    1    3    3    0  502  0.12869288787E+03 -0.64972940123E+03  0.13208675083E+03  0.67539400646E+03  0.00000000000E+00 0.  1.
         11    1    5    5    0    0 -0.31104256319E+03  0.76235438623E+03 -0.62147769823E+03  0.10315843231E+04  0.00000000000E+00 0. -1.
        -11    1    5    5    0    0 -0.10395786348E+02  0.90580406097E+01 -0.26859162772E+02  0.30191639543E+02  0.00000000000E+00 0.  1.
          3    1    6    6  503    0  0.92924502234E+02  0.67388266998E+02  0.17415514686E+03  0.20858129548E+03  0.00000000000E+00 0. -1.
         -3    1    6    6    0  503  0.32947562267E+02 -0.18761915220E+02  0.18995498191E+02  0.42407313916E+02  0.00000000000E+00 0.  1.
<mgrwt>
<rscale>  0 0.21486067E+04</rscale>
<asrwt>0</asrwt>
<pdfrwt beam="1">  1        2 0.14290511E+00 0.21486067E+04</pdfrwt>
<pdfrwt beam="2">  1       -1 0.19115225E+00 0.21486067E+04</pdfrwt>
<totfact> 0.50917702E+00</totfact>
</mgrwt>
</event>
<event>
12    6  0.9491186E-008  0.2223399E+04  0.7818608E-02  0.8508751E-01
          2   -1    0    0  501    0  0.00000000000E+00  0.00000000000E+00  0.19690281356E+04  0.19690281356E+04  0.00000000000E+00 0. -1.
         -1   -1    0    0    0  501 -0.00000000000E+00 -0.00000000000E+00 -0.62765799214E+03  0.62765799214E+03  0.00000000000E+00 0.  1.
         24    2    1    2    0    0 -0.92534124785E+03 -0.39488471400E+02  0.56258359778E+03  0.10866437929E+04  0.80490147274E+02 0.  0.
        254    2    1    2    0    0  0.92534124785E+03  0.39488471400E+02  0.77878654569E+03  0.15100423348E+04  0.90327382611E+03 0.  0.
         23    2    4    4    0    0  0.77509152356E+03  0.12903232811E+03  0.95953499685E+03  0.12435622274E+04  0.91232623991E+02 0.  0.
         23    2    4    4    0    0  0.15024972429E+03 -0.89543856714E+02 -0.18074845116E+03  0.26648010743E+03  0.88025923081E+02 0.  0.
          2    1    3    3  502    0 -0.68593044955E+02 -0.12071140767E+02  0.21180893596E+02  0.72796624298E+02  0.00000000000E+00 0. -1.
         -1    1    3    3    0  502 -0.85674820289E+03 -0.27417330633E+02  0.54140270418E+03  0.10138471686E+04  0.00000000000E+00 0.  1.
         11    1    5    5    0    0  0.20640592962E+03  0.59896773828E+02  0.31371861660E+03  0.38027674357E+03  0.00000000000E+00 0. -1.
        -11    1    5    5    0    0  0.56868559394E+03  0.69135554286E+02  0.64581638025E+03  0.86328548385E+03  0.00000000000E+00 0.  1.
          3    1    6    6  503    0  0.55217748647E+02 -0.61888261565E+02 -0.34367723674E+02  0.89779157468E+02  0.00000000000E+00 0. -1.
         -3    1    6    6    0  503  0.95031975640E+02 -0.27655595149E+02 -0.14638072749E+03  0.17670094996E+03  0.00000000000E+00 0.  1.
<mgrwt>
<rscale>  0 0.22233994E+04</rscale>
<asrwt>0</asrwt>
<pdfrwt beam="1">  1        2 0.30292740E+00 0.22233994E+04</pdfrwt>
<pdfrwt beam="2">  1       -1 0.96562769E-01 0.22233994E+04</pdfrwt>
<totfact> 0.74496478E+00</totfact>
</mgrwt>
</event>
<event>
12    6  0.9491186E-008  0.1406102E+04  0.7818608E-02  0.8949414E-01
          2   -1    0    0  501    0  0.00000000000E+00  0.00000000000E+00  0.11783928282E+04  0.11783928282E+04  0.00000000000E+00 0. -1.
         -3   -1    0    0    0  501 -0.00000000000E+00 -0.00000000000E+00 -0.41945315680E+03  0.41945315680E+03  0.00000000000E+00 0.  1.
         24    2    1    2    0    0 -0.34830203993E+03 -0.10961471846E+03  0.23906189657E+02  0.37502823293E+03  0.82127778910E+02 0.  0.
        254    2    1    2    0    0  0.34830203993E+03  0.10961471846E+03  0.73503348174E+03  0.12228177521E+04  0.90646529881E+03 0.  0.
         23    2    4    4    0    0 -0.28665426111E+03  0.14266251756E+03  0.21069494869E+03  0.39379445087E+03  0.90324131902E+02 0.  0.
         23    2    4    4    0    0  0.63495630105E+03 -0.33047799100E+02  0.52433853305E+03  0.82902330118E+03  0.89928168002E+02 0.  0.
          4    1    3    3  502    0 -0.94377472229E+02 -0.69416845013E+02  0.93551887576E+01  0.11753010335E+03  0.00000000000E+00 0. -1.
         -3    1    3    3    0  502 -0.25392456770E+03 -0.40197873443E+02  0.14551000900E+02  0.25749812959E+03  0.00000000000E+00 0.  1.
         11    1    5    5    0    0 -0.13622986217E+03  0.45000997156E+02  0.46992960123E+02  0.15097020698E+03  0.00000000000E+00 0.  1.
        -11    1    5    5    0    0 -0.15042439894E+03  0.97661520400E+02  0.16370198857E+03  0.24282424390E+03  0.00000000000E+00 0. -1.
          2    1    6    6  503    0  0.15901594229E+03 -0.19634155213E+02  0.85999794772E+02  0.18184480926E+03  0.00000000000E+00 0. -1.
         -2    1    6    6    0  503  0.47594035876E+03 -0.13413643888E+02  0.43833873828E+03  0.64717849193E+03  0.00000000000E+00 0.  1.
<mgrwt>
<rscale>  0 0.14061018E+04</rscale>
<asrwt>0</asrwt>
<pdfrwt beam="1">  1        2 0.18129120E+00 0.14061018E+04</pdfrwt>
<pdfrwt beam="2">  1       -3 0.64531255E-01 0.14061018E+04</pdfrwt>
<totfact> 0.28137532E+01</totfact>
</mgrwt>
</event>
<event>
12    6  0.9491186E-008  0.2118504E+04  0.7818608E-02  0.8553136E-01
         -1   -1    0    0    0  501 -0.00000000000E+00  0.00000000000E+00  0.54239766722E+03  0.54239766722E+03  0.00000000000E+00 0.  1.
          2   -1    0    0  501    0  0.00000000000E+00 -0.00000000000E+00 -0.20686204323E+04  0.20686204323E+04  0.00000000000E+00 0. -1.
         24    2    1    2    0    0 -0.58565340721E+03  0.63410153529E+03 -0.71839796468E+03  0.11258815668E+04  0.80243357534E+02 0.  0.
        254    2    1    2    0    0  0.58565340721E+03 -0.63410153529E+03 -0.80782480037E+03  0.14851365327E+04  0.89887426379E+03 0.  0.
         23    2    4    4    0    0  0.39766069871E+03 -0.19945821912E+03 -0.88735673374E+03  0.99685400156E+03  0.91642321283E+02 0.  0.
         23    2    4    4    0    0  0.18799270851E+03 -0.43464331617E+03  0.79531933370E+02  0.48828253109E+03  0.88534914024E+02 0.  0.
          2    1    3    3  502    0 -0.15531335402E+03  0.13492023228E+03 -0.13846736731E+03  0.24798975548E+03  0.00000000000E+00 0. -1.
         -1    1    3    3    0  502 -0.43034005319E+03  0.49918130301E+03 -0.57993059738E+03  0.87789181135E+03  0.00000000000E+00 0.  1.
         11    1    5    5    0    0  0.33419274738E+03 -0.12657235156E+03 -0.68566742384E+03  0.77320448052E+03  0.00000000000E+00 0. -1.
        -11    1    5    5    0    0  0.63467951325E+02 -0.72885867554E+02 -0.20168930990E+03  0.22364952104E+03  0.00000000000E+00 0.  1.
          1    1    6    6  503    0  0.10952014278E+03 -0.30838523608E+03  0.19103723385E+02  0.32781254972E+03  0.00000000000E+00 0. -1.
         -1    1    6    6    0  503  0.78472565725E+02 -0.12625808009E+03  0.60428209984E+02  0.16046998137E+03  0.00000000000E+00 0.  1.
<mgrwt>
<rscale>  0 0.21185041E+04</rscale>
<asrwt>0</asrwt>
<pdfrwt beam="1">  1        2 0.31824930E+00 0.21185041E+04</pdfrwt>
<pdfrwt beam="2">  1       -1 0.83445795E-01 0.21185041E+04</pdfrwt>
<totfact> 0.91304394E+00</totfact>
</mgrwt>
</event>
<event>
12    6  0.9491186E-008  0.2019141E+04  0.7818608E-02  0.8597723E-01
         -1   -1    0    0    0  501 -0.00000000000E+00  0.00000000000E+00  0.60810708565E+03  0.60810708565E+03  0.00000000000E+00 0.  1.
          2   -1    0    0  501    0  0.00000000000E+00 -0.00000000000E+00 -0.16760746134E+04  0.16760746134E+04  0.00000000000E+00 0. -1.
         24    2    1    2    0    0  0.18211145274E+03 -0.14261540695E+03 -0.12956799312E+04  0.13185618609E+04  0.79467989389E+02 0.  0.
        254    2    1    2    0    0 -0.18211145274E+03  0.14261540695E+03  0.22771240345E+03  0.96561983817E+03  0.90943113960E+03 0.  0.
         23    2    4    4    0    0  0.21467990811E+03 -0.26791478514E+03  0.38909175062E+02  0.35731372885E+03  0.91068006910E+02 0.  0.
         23    2    4    4    0    0 -0.39679136085E+03  0.41053019208E+03  0.18880322839E+03  0.60830610932E+03  0.91712817690E+02 0.  0.
          4    1    3    3  502    0  0.17545249190E+03 -0.13685242594E+03 -0.10790817985E+04  0.11017847754E+04  0.00000000000E+00 0. -1.
         -3    1    3    3    0  502  0.66589608388E+01 -0.57629810033E+01 -0.21659813276E+03  0.21677708556E+03  0.00000000000E+00 0.  1.
         11    1    5    5    0    0  0.36684344916E+02 -0.17191476314E+02 -0.18470398566E+02  0.44524640851E+02  0.00000000000E+00 0.  1.
        -11    1    5    5    0    0  0.17799556319E+03 -0.25072330882E+03  0.57379573628E+02  0.31278908800E+03  0.00000000000E+00 0. -1.
          4    1    6    6  503    0 -0.21271336890E+03  0.26649048307E+03  0.78716371901E+02  0.34994345554E+03  0.00000000000E+00 0. -1.
         -4    1    6    6    0  503 -0.18407799195E+03  0.14403970902E+03  0.11008685649E+03  0.25836265377E+03  0.00000000000E+00 0.  1.
<mgrwt>
<rscale>  0 0.20191413E+04</rscale>
<asrwt>0</asrwt>
<pdfrwt beam="1">  1        2 0.25785763E+00 0.20191413E+04</pdfrwt>
<pdfrwt beam="2">  1       -1 0.93554937E-01 0.20191413E+04</pdfrwt>
<totfact> 0.11840299E+01</totfact>
</mgrwt>
</event>
<event>
12    6  0.9491186E-008  0.1870314E+04  0.7818608E-02  0.8669776E-01
          2   -1    0    0  501    0  0.00000000000E+00  0.00000000000E+00  0.13857069674E+04  0.13857069674E+04  0.00000000000E+00 0. -1.
         -1   -1    0    0    0  501 -0.00000000000E+00 -0.00000000000E+00 -0.63109916495E+03  0.63109916495E+03  0.00000000000E+00 0.  1.
         24    2    1    2    0    0 -0.56120630710E+03 -0.26054238138E+03  0.67647017035E+03  0.91976932362E+03  0.74356342466E+02 0.  0.
        254    2    1    2    0    0  0.56120630710E+03  0.26054238138E+03  0.78137632062E+02  0.10970368087E+04  0.90252391573E+03 0.  0.
         23    2    4    4    0    0  0.73980879477E+03 -0.60710352860E+01 -0.34337200335E+02  0.74623297298E+03  0.91272648395E+02 0.  0.
         23    2    4    4    0    0 -0.17860248767E+03  0.26661341667E+03  0.11247483240E+03  0.35080383572E+03  0.86204296195E+02 0.  0.
          2    1    3    3  502    0 -0.13384840439E+03 -0.77135054915E+02  0.21376970325E+03  0.26374741341E+03  0.00000000000E+00 0. -1.
         -1    1    3    3    0  502 -0.42735790271E+03 -0.18340732647E+03  0.46270046710E+03  0.65602191020E+03  0.00000000000E+00 0.  1.
         11    1    5    5    0    0  0.70013746480E+03  0.12220725488E+02 -0.43511848034E+02  0.70159468119E+03  0.00000000000E+00 0. -1.
        -11    1    5    5    0    0  0.39671329967E+02 -0.18291760774E+02  0.91746476990E+01  0.44638291791E+02  0.00000000000E+00 0.  1.
          4    1    6    6  503    0 -0.15285865683E+03  0.25361800347E+03  0.12223644350E+03  0.32035856282E+03  0.00000000000E+00 0. -1.
         -4    1    6    6    0  503 -0.25743830845E+02  0.12995413197E+02 -0.97616111009E+01  0.30445272901E+02  0.00000000000E+00 0.  1.
<mgrwt>
<rscale>  0 0.18703139E+04</rscale>
<asrwt>0</asrwt>
<pdfrwt beam="1">  1        2 0.21318569E+00 0.18703139E+04</pdfrwt>
<pdfrwt beam="2">  1       -1 0.97092180E-01 0.18703139E+04</pdfrwt>
<totfact> 0.16084444E+01</totfact>
</mgrwt>
</event>
<event>
12    6  0.9491186E-008  0.1949861E+04  0.7818608E-02  0.8630428E-01
          2   -1    0    0  501    0  0.00000000000E+00  0.00000000000E+00  0.14407562752E+04  0.14407562752E+04  0.00000000000E+00 0. -1.
         -1   -1    0    0    0  501 -0.00000000000E+00 -0.00000000000E+00 -0.65971556246E+03  0.65971556246E+03  0.00000000000E+00 0.  1.
         24    2    1    2    0    0 -0.98328795634E+02  0.75506070400E+02 -0.50325939782E+03  0.52451390677E+03  0.80467994774E+02 0.  0.
        254    2    1    2    0    0  0.98328795634E+02 -0.75506070400E+02  0.12843001105E+04  0.15759579309E+04  0.90490160084E+03 0.  0.
         23    2    4    4    0    0 -0.11865918089E+03 -0.36925891409E+03  0.10727438482E+04  0.11447941273E+04  0.96654452165E+02 0.  0.
         23    2    4    4    0    0  0.21698797652E+03  0.29375284369E+03  0.21155626232E+03  0.43116380358E+03  0.88157009119E+02 0.  0.
          4    1    3    3  502    0 -0.28179058359E+01  0.47196274257E+02 -0.13602087829E+03  0.14400384796E+03  0.00000000000E+00 0. -1.
         -3    1    3    3    0  502 -0.95510889798E+02  0.28309796143E+02 -0.36723851953E+03  0.38051005881E+03  0.00000000000E+00 0.  1.
         11    1    5    5    0    0 -0.18085750419E+02 -0.12257760042E+01  0.44586734177E+02  0.48130798452E+02  0.00000000000E+00 0.  1.
        -11    1    5    5    0    0 -0.10057343047E+03 -0.36803313809E+03  0.10281571140E+04  0.10966633288E+04  0.00000000000E+00 0. -1.
          3    1    6    6  503    0  0.14642870534E+03  0.25641315434E+03  0.17620474487E+03  0.34385634149E+03  0.00000000000E+00 0. -1.
         -3    1    6    6    0  503  0.70559271182E+02  0.37339689349E+02  0.35351517454E+02  0.87307462091E+02  0.00000000000E+00 0.  1.
<mgrwt>
<rscale>  0 0.19498609E+04</rscale>
<asrwt>0</asrwt>
<pdfrwt beam="1">  1        2 0.22165481E+00 0.19498609E+04</pdfrwt>
<pdfrwt beam="2">  1       -1 0.10149470E+00 0.19498609E+04</pdfrwt>
<totfact> 0.13429925E+01</totfact>
</mgrwt>
</event>
<event>
12    6  0.9491186E-008  0.2285466E+04  0.7818608E-02  0.8483674E-01
         -1   -1    0    0    0  501 -0.00000000000E+00  0.00000000000E+00  0.31827895121E+03  0.31827895121E+03  0.00000000000E+00 0.  1.
          2   -1    0    0  501    0  0.00000000000E+00 -0.00000000000E+00 -0.41028103005E+04  0.41028103005E+04  0.00000000000E+00 0. -1.
         24    2    1    2    0    0 -0.48696415534E+03  0.15416294853E+03 -0.34583470520E+02  0.51804282192E+03  0.79196247538E+02 0.  0.
        254    2    1    2    0    0  0.48696415534E+03 -0.15416294853E+03 -0.37499478788E+04  0.39030464298E+04  0.95433853339E+03 0.  0.
         23    2    4    4    0    0  0.44924414203E+03  0.24229539633E+03 -0.30415974027E+04  0.30854815799E+04  0.91402741998E+02 0.  0.
         23    2    4    4    0    0  0.37720013319E+02 -0.39645834486E+03 -0.70835047605E+03  0.81756484992E+03  0.89721058235E+02 0.  0.
          4    1    3    3  502    0 -0.37409871040E+03  0.10904796231E+03  0.65497855718E+01  0.38972323885E+03  0.00000000000E+00 0. -1.
         -3    1    3    3    0  502 -0.11286544495E+03  0.45114986225E+02 -0.41133256092E+02  0.12831958308E+03  0.00000000000E+00 0.  1.
         11    1    5    5    0    0  0.34434533066E+03  0.20190025713E+03 -0.21406656178E+04  0.21775643981E+04  0.00000000000E+00 0. -1.
        -11    1    5    5    0    0  0.10489881137E+03  0.40395139194E+02 -0.90093178495E+03  0.90791718181E+03  0.00000000000E+00 0.  1.
          3    1    6    6  503    0 -0.17343322962E+01 -0.23242644091E+03 -0.48341063035E+03  0.53638689011E+03  0.00000000000E+00 0. -1.
         -3    1    6    6    0  503  0.39454345615E+02 -0.16403190395E+03 -0.22493984569E+03  0.28117795981E+03  0.00000000000E+00 0.  1.
<mgrwt>
<rscale>  0 0.22854655E+04</rscale>
<asrwt>0</asrwt>
<pdfrwt beam="1">  1        2 0.63120153E+00 0.22854655E+04</pdfrwt>
<pdfrwt beam="2">  1       -1 0.48965996E-01 0.22854655E+04</pdfrwt>
<totfact> 0.12222749E+00</totfact>
</mgrwt>
</event>
<event>
12    6  0.9491186E-008  0.1829952E+04  0.7818608E-02  0.8690532E-01
         -1   -1    0    0    0  501 -0.00000000000E+00  0.00000000000E+00  0.59710014781E+03  0.59710014781E+03  0.00000000000E+00 0.  1.
          2   -1    0    0  501    0  0.00000000000E+00 -0.00000000000E+00 -0.14020779673E+04  0.14020779673E+04  0.00000000000E+00 0. -1.
         24    2    1    2    0    0 -0.16575147934E+03 -0.34130244327E+03  0.33056247480E+03  0.50925724281E+03  0.78169552370E+02 0.  0.
        254    2    1    2    0    0  0.16575147934E+03  0.34130244327E+03 -0.11355402943E+04  0.14899208723E+04  0.88682102767E+03 0.  0.
         23    2    4    4    0    0 -0.29359134011E+03  0.33811542143E+03 -0.77184719996E+03  0.89695001435E+03  0.90847756998E+02 0.  0.
         23    2    4    4    0    0  0.45934281945E+03  0.31870218413E+01 -0.36369309434E+03  0.59297085798E+03  0.91300540245E+02 0.  0.
          2    1    3    3  502    0 -0.10005242471E+02 -0.30829844662E+02  0.42760710375E+01  0.32693561787E+02  0.00000000000E+00 0. -1.
         -1    1    3    3    0  502 -0.15574623687E+03 -0.31047259861E+03  0.32628640376E+03  0.47656368102E+03  0.00000000000E+00 0.  1.
         11    1    5    5    0    0 -0.22885792482E+03  0.31107120724E+03 -0.66871115065E+03  0.77221489803E+03  0.00000000000E+00 0. -1.
        -11    1    5    5    0    0 -0.64733415291E+02  0.27044214189E+02 -0.10313604931E+03  0.12473511632E+03  0.00000000000E+00 0.  1.
          4    1    6    6  503    0  0.19888766461E+03  0.38049485539E+02 -0.12500083235E+03  0.23796906222E+03  0.00000000000E+00 0. -1.
         -4    1    6    6    0  503  0.26045515484E+03 -0.34862463698E+02 -0.23869226199E+03  0.35500179576E+03  0.00000000000E+00 0.  1.
<mgrwt>
<rscale>  0 0.18299519E+04</rscale>
<asrwt>0</asrwt>
<pdfrwt beam="1">  1        2 0.21570430E+00 0.18299519E+04</pdfrwt>
<pdfrwt beam="2">  1       -1 0.91861562E-01 0.18299519E+04</pdfrwt>
<totfact> 0.17881018E+01</totfact>
</mgrwt>
</event>
<event>
12    6  0.9491186E-008  0.1915319E+04  0.7818608E-02  0.8647268E-01
          4   -1    0    0  501    0  0.00000000000E+00  0.00000000000E+00  0.16038547124E+04  0.16038547124E+04  0.00000000000E+00 0. -1.
         -3   -1    0    0    0  501 -0.00000000000E+00 -0.00000000000E+00 -0.57181742108E+03  0.57181742108E+03  0.00000000000E+00 0.  1.
         24    2    1    2    0    0  0.10101460888E+03  0.66611826187E+03  0.76551542483E+03  0.10228076532E+04  0.78766362296E+02 0.  0.
        254    2    1    2    0    0 -0.10101460888E+03 -0.66611826187E+03  0.26652186646E+03  0.11528644802E+04  0.89674138662E+03 0.  0.
         23    2    4    4    0    0  0.28943343855E+03 -0.57953536055E+03  0.33592007429E+03  0.73614668266E+03  0.97142640487E+02 0.  0.
         23    2    4    4    0    0 -0.39044804743E+03 -0.86582901320E+02 -0.69398207824E+02  0.41671779758E+03  0.94293875872E+02 0.  0.
          4    1    3    3  502    0  0.98504927215E+02  0.47380022775E+03  0.58272690670E+03  0.75746981742E+03  0.00000000000E+00 0. -1.
         -3    1    3    3    0  502  0.25096816674E+01  0.19231803413E+03  0.18278851813E+03  0.26533783581E+03  0.00000000000E+00 0.  1.
         11    1    5    5    0    0  0.13451477537E+03 -0.26555981807E+03  0.20904231845E+03  0.36375119611E+03  0.00000000000E+00 0.  1.
        -11    1    5    5    0    0  0.15491866317E+03 -0.31397554248E+03  0.12687775584E+03  0.37239548655E+03  0.00000000000E+00 0. -1.
          4    1    6    6  503    0 -0.30320148610E+03 -0.95204450561E+02 -0.25906193088E+02  0.31885131240E+03  0.00000000000E+00 0. -1.
         -4    1    6    6    0  503 -0.87246561329E+02  0.86215492406E+01 -0.43492014736E+02  0.97866485176E+02  0.00000000000E+00 0.  1.
<mgrwt>
<rscale>  0 0.19153194E+04</rscale>
<asrwt>0</asrwt>
<pdfrwt beam="1">  1        4 0.24674688E+00 0.19153194E+04</pdfrwt>
<pdfrwt beam="2">  1       -3 0.87971912E-01 0.19153194E+04</pdfrwt>
<totfact> 0.16596389E-01</totfact>
</mgrwt>
</event>
<event>
12    6  0.9491186E-008  0.2194474E+04  0.7818608E-02  0.8520732E-01
          2   -1    0    0  501    0  0.00000000000E+00  0.00000000000E+00  0.75809329368E+03  0.75809329368E+03  0.00000000000E+00 0. -1.
         -1   -1    0    0    0  501 -0.00000000000E+00 -0.00000000000E+00 -0.15881014811E+04  0.15881014811E+04  0.00000000000E+00 0.  1.
         24    2    1    2    0    0  0.14604897512E+03  0.32382611671E+02  0.62149596718E+03  0.64421645246E+03  0.79866536941E+02 0.  0.
        254    2    1    2    0    0 -0.14604897512E+03 -0.32382611671E+02 -0.14515041547E+04  0.17019783224E+04  0.87606333227E+03 0.  0.
         23    2    4    4    0    0 -0.45140989622E+03  0.18348589150E+03 -0.92840241344E+03  0.10525139461E+04  0.91742022838E+02 0.  0.
         23    2    4    4    0    0  0.30536092110E+03 -0.21586850317E+03 -0.52310174122E+03  0.64946437623E+03  0.91236185411E+02 0.  0.
          2    1    3    3  502    0  0.27047926069E+02  0.41121772983E+02  0.21550000219E+03  0.22104940954E+03  0.00000000000E+00 0. -1.
         -1    1    3    3    0  502  0.11900104905E+03 -0.87391613117E+01  0.40599596500E+03  0.42316704292E+03  0.00000000000E+00 0.  1.
         11    1    5    5    0    0 -0.24584137115E+03  0.14817256030E+03 -0.55295006923E+03  0.62301433889E+03  0.00000000000E+00 0.  1.
        -11    1    5    5    0    0 -0.20556852506E+03  0.35313331197E+02 -0.37545234420E+03  0.42949960725E+03  0.00000000000E+00 0. -1.
          1    1    6    6  503    0  0.87984525371E+02 -0.11591761069E+03 -0.20653426370E+03  0.25265504399E+03  0.00000000000E+00 0.  1.
         -1    1    6    6    0  503  0.21737639573E+03 -0.99950892485E+02 -0.31656747752E+03  0.39680933223E+03  0.00000000000E+00 0. -1.
<mgrwt>
<rscale>  0 0.21944740E+04</rscale>
<asrwt>0</asrwt>
<pdfrwt beam="1">  1        2 0.11662974E+00 0.21944740E+04</pdfrwt>
<pdfrwt beam="2">  1       -1 0.24432330E+00 0.21944740E+04</pdfrwt>
<totfact> 0.29303672E+00</totfact>
</mgrwt>
</event>
<event>
12    6  0.9491186E-008  0.1107254E+04  0.7818608E-02  0.9198150E-01
         -1   -1    0    0    0  501 -0.00000000000E+00  0.00000000000E+00  0.45287970102E+03  0.45287970102E+03  0.00000000000E+00 0.  1.
          2   -1    0    0  501    0  0.00000000000E+00 -0.00000000000E+00 -0.67678637666E+03  0.67678637666E+03  0.00000000000E+00 0. -1.
         24    2    1    2    0    0  0.94763764319E+02  0.10018582763E+03 -0.14280871306E+03  0.21372284661E+03  0.79156525636E+02 0.  0.
        254    2    1    2    0    0 -0.94763764319E+02 -0.10018582763E+03 -0.81097962580E+02  0.91594323107E+03  0.90186348852E+03 0.  0.
         23    2    4    4    0    0  0.19093026034E+02  0.28330262595E+03 -0.32352855231E+03  0.43888435889E+03  0.85579406439E+02 0.  0.
         23    2    4    4    0    0 -0.11385679035E+03 -0.38348845358E+03  0.24243058973E+03  0.47705887218E+03  0.93732672812E+02 0.  0.
          2    1    3    3  502    0  0.99383875178E+02  0.81384931085E+02 -0.14559717935E+03  0.19416281902E+03  0.00000000000E+00 0. -1.
         -1    1    3    3    0  502 -0.46201108586E+01  0.18800896541E+02  0.27884662917E+01  0.19560027591E+02  0.00000000000E+00 0.  1.
         11    1    5    5    0    0 -0.14597538758E+02  0.23054250093E+03 -0.27815527412E+03  0.36157058702E+03  0.00000000000E+00 0. -1.
        -11    1    5    5    0    0  0.33690564792E+02  0.52760125020E+02 -0.45373278187E+02  0.77313771875E+02  0.00000000000E+00 0.  1.
          3    1    6    6  503    0 -0.66571880411E+02 -0.15291902668E+03  0.14960217054E+03  0.22404654296E+03  0.00000000000E+00 0. -1.
         -3    1    6    6    0  503 -0.47284909942E+02 -0.23056942689E+03  0.92828419187E+02  0.25301232921E+03  0.00000000000E+00 0.  1.
<mgrwt>
<rscale>  0 0.11072539E+04</rscale>
<asrwt>0</asrwt>
<pdfrwt beam="1">  1        2 0.10412098E+00 0.11072539E+04</pdfrwt>
<pdfrwt beam="2">  1       -1 0.69673800E-01 0.11072539E+04</pdfrwt>
<totfact> 0.10100172E+02</totfact>
</mgrwt>
</event>
<event>
12    6  0.9491186E-008  0.1995035E+04  0.7818608E-02  0.8608945E-01
          2   -1    0    0  501    0  0.00000000000E+00  0.00000000000E+00  0.11139729106E+04  0.11139729106E+04  0.00000000000E+00 0. -1.
         -1   -1    0    0    0  501 -0.00000000000E+00 -0.00000000000E+00 -0.89323654316E+03  0.89323654316E+03  0.00000000000E+00 0.  1.
         24    2    1    2    0    0 -0.70564241948E+03  0.28633395844E+03  0.30471174219E+03  0.82445163259E+03  0.83383983563E+02 0.  0.
        254    2    1    2    0    0  0.70564241948E+03 -0.28633395844E+03 -0.83975374703E+02  0.11827578212E+04  0.90108037386E+03 0.  0.
         23    2    4    4    0    0  0.23911457070E+02  0.13275809712E+03  0.26001679389E+03  0.30704960157E+03  0.92055714581E+02 0.  0.
         23    2    4    4    0    0  0.68173096241E+03 -0.41909205556E+03 -0.34399216859E+03  0.87570821965E+03  0.90216504868E+02 0.  0.
          2    1    3    3  502    0 -0.53128711551E+03  0.18137208660E+03  0.20327404167E+03  0.59706127736E+03  0.00000000000E+00 0. -1.
         -1    1    3    3    0  502 -0.17435530398E+03  0.10496187184E+03  0.10143770051E+03  0.22739035523E+03  0.00000000000E+00 0.  1.
         11    1    5    5    0    0 -0.22967547510E+02  0.10348628006E+03  0.19288777072E+03  0.22009682073E+03  0.00000000000E+00 0. -1.
        -11    1    5    5    0    0  0.46879004580E+02  0.29271817058E+02  0.67129023167E+02  0.86952780840E+02  0.00000000000E+00 0.  1.
          3    1    6    6  503    0  0.63706992470E+03 -0.37470855734E+03 -0.33718121315E+03  0.81237661364E+03  0.00000000000E+00 0. -1.
         -3    1    6    6    0  503  0.44661037715E+02 -0.44383498226E+02 -0.68109554477E+01  0.63331606001E+02  0.00000000000E+00 0.  1.
<mgrwt>
<rscale>  0 0.19950351E+04</rscale>
<asrwt>0</asrwt>
<pdfrwt beam="1">  1        2 0.17138045E+00 0.19950351E+04</pdfrwt>
<pdfrwt beam="2">  1       -1 0.13742101E+00 0.19950351E+04</pdfrwt>
<totfact> 0.99614593E+00</totfact>
</mgrwt>
</event>
<event>
12    6  0.9491186E-008  0.1212407E+04  0.7818608E-02  0.9102065E-01
         -1   -1    0    0    0  501 -0.00000000000E+00  0.00000000000E+00  0.30168053737E+03  0.30168053737E+03  0.00000000000E+00 0.  1.
          2   -1    0    0  501    0  0.00000000000E+00 -0.00000000000E+00 -0.12181189178E+04  0.12181189178E+04  0.00000000000E+00 0. -1.
         24    2    1    2    0    0  0.11136255744E+02 -0.20432957204E+03 -0.39008037654E+03  0.44771623244E+03  0.80078301863E+02 0.  0.
        254    2    1    2    0    0 -0.11136255744E+02  0.20432957204E+03 -0.52635800391E+03  0.10720832228E+04  0.91128211770E+03 0.  0.
         23    2    4    4    0    0 -0.26687727672E+03  0.47114607516E+03 -0.28322995425E+03  0.61789633502E+03  0.91512670618E+02 0.  0.
         23    2    4    4    0    0  0.25574102097E+03 -0.26681650312E+03 -0.24312804967E+03  0.45418688774E+03  0.10285895350E+03 0.  0.
          4    1    3    3  502    0 -0.14515401614E+02 -0.18058584019E+03 -0.29246627348E+03  0.34403264916E+03  0.00000000000E+00 0. -1.
         -3    1    3    3    0  502  0.25651657358E+02 -0.23743731852E+02 -0.97614103058E+02  0.10368358329E+03  0.00000000000E+00 0.  1.
         11    1    5    5    0    0 -0.13556782651E+03  0.25398092995E+03 -0.20103154593E+03  0.35113904771E+03  0.00000000000E+00 0. -1.
        -11    1    5    5    0    0 -0.13130945021E+03  0.21716514520E+03 -0.82198408316E+02  0.26675728731E+03  0.00000000000E+00 0.  1.
          2    1    6    6  503    0  0.23936382843E+03 -0.20192360658E+03 -0.17524016584E+03  0.35885554333E+03  0.00000000000E+00 0. -1.
         -2    1    6    6    0  503  0.16377192546E+02 -0.64892896540E+02 -0.67887883823E+02  0.95331344410E+02  0.00000000000E+00 0.  1.
<mgrwt>
<rscale>  0 0.12124071E+04</rscale>
<asrwt>0</asrwt>
<pdfrwt beam="1">  1        2 0.18740291E+00 0.12124071E+04</pdfrwt>
<pdfrwt beam="2">  1       -1 0.46412390E-01 0.12124071E+04</pdfrwt>
<totfact> 0.95928573E+01</totfact>
</mgrwt>
</event>
<event>
12    6  0.9491186E-008  0.1450343E+04  0.7818608E-02  0.8918163E-01
          2   -1    0    0  501    0  0.00000000000E+00  0.00000000000E+00  0.18029525548E+04  0.18029525548E+04  0.00000000000E+00 0. -1.
         -1   -1    0    0    0  501 -0.00000000000E+00 -0.00000000000E+00 -0.29167354891E+03  0.29167354891E+03  0.00000000000E+00 0.  1.
         24    2    1    2    0    0 -0.16137254486E+03  0.46201696193E+02  0.10594509525E+04  0.10752456680E+04  0.74439443976E+02 0.  0.
        254    2    1    2    0    0  0.16137254486E+03 -0.46201696193E+02  0.45182805344E+03  0.10193804358E+04  0.89822724741E+03 0.  0.
         23    2    4    4    0    0 -0.22919942810E+03 -0.31188578410E+03  0.34294102820E+03  0.52508139976E+03  0.91086812390E+02 0.  0.
         23    2    4    4    0    0  0.39057197296E+03  0.26568408791E+03  0.10888702524E+03  0.49429903601E+03  0.96647049117E+02 0.  0.
          4    1    3    3  502    0 -0.10083574607E+03  0.49417906802E+02  0.84367905593E+03  0.85111945496E+03  0.00000000000E+00 0. -1.
         -3    1    3    3    0  502 -0.60536798788E+02 -0.32162106087E+01  0.21577189653E+03  0.22412621299E+03  0.00000000000E+00 0.  1.
         11    1    5    5    0    0 -0.13405663635E+03 -0.12935367308E+03  0.20658551937E+03  0.27817464173E+03  0.00000000000E+00 0. -1.
        -11    1    5    5    0    0 -0.95142791751E+02 -0.18253211102E+03  0.13635550883E+03  0.24690675803E+03  0.00000000000E+00 0.  1.
          3    1    6    6  503    0  0.27450727449E+03  0.14595293215E+03  0.38393889038E+02  0.31325802921E+03  0.00000000000E+00 0. -1.
         -3    1    6    6    0  503  0.11606469848E+03  0.11973115575E+03  0.70493136207E+02  0.18104100680E+03  0.00000000000E+00 0.  1.
<mgrwt>
<rscale>  0 0.14503428E+04</rscale>
<asrwt>0</asrwt>
<pdfrwt beam="1">  1        2 0.27737731E+00 0.14503428E+04</pdfrwt>
<pdfrwt beam="2">  1       -1 0.44872855E-01 0.14503428E+04</pdfrwt>
<totfact> 0.46758754E+01</totfact>
</mgrwt>
</event>
<event>
12    6  0.9491186E-008  0.1630883E+04  0.7818608E-02  0.8801797E-01
         -1   -1    0    0    0  501 -0.00000000000E+00  0.00000000000E+00  0.45137243702E+03  0.45137243702E+03  0.00000000000E+00 0.  1.
          2   -1    0    0  501    0  0.00000000000E+00 -0.00000000000E+00 -0.14731626375E+04  0.14731626375E+04  0.00000000000E+00 0. -1.
         24    2    1    2    0    0  0.19703091425E+03  0.44602551845E+03 -0.27000583054E+02  0.49476399936E+03  0.79387904034E+02 0.  0.
        254    2    1    2    0    0 -0.19703091425E+03 -0.44602551845E+03 -0.99478961746E+03  0.14297710752E+04  0.90381358708E+03 0.  0.
         23    2    4    4    0    0 -0.20347664121E+03  0.21560110517E+03 -0.53755927484E+03  0.62061139099E+03  0.91115007487E+02 0.  0.
         23    2    4    4    0    0  0.64457269628E+01 -0.66162662362E+03 -0.45723034262E+03  0.80915968421E+03  0.88817069653E+02 0.  0.
          4    1    3    3  502    0  0.82361837495E+02  0.13455523481E+03 -0.39464436272E+02  0.16262233925E+03  0.00000000000E+00 0. -1.
         -3    1    3    3    0  502  0.11466907675E+03  0.31147028363E+03  0.12463853218E+02  0.33214166012E+03  0.00000000000E+00 0.  1.
         11    1    5    5    0    0 -0.17036786330E+03  0.11901700341E+03 -0.37129170840E+03  0.42549710772E+03  0.00000000000E+00 0. -1.
        -11    1    5    5    0    0 -0.33108777907E+02  0.96584101762E+02 -0.16626756644E+03  0.19511428327E+03  0.00000000000E+00 0.  1.
          4    1    6    6  503    0  0.35878454287E+02 -0.52744855110E+03 -0.38467551411E+03  0.65380768479E+03  0.00000000000E+00 0. -1.
         -4    1    6    6    0  503 -0.29432727325E+02 -0.13417807252E+03 -0.72554828509E+02  0.15535199941E+03  0.00000000000E+00 0.  1.
<mgrwt>
<rscale>  0 0.16308832E+04</rscale>
<asrwt>0</asrwt>
<pdfrwt beam="1">  1        2 0.22664040E+00 0.16308832E+04</pdfrwt>
<pdfrwt beam="2">  1       -1 0.69441914E-01 0.16308832E+04</pdfrwt>
<totfact> 0.30058971E+01</totfact>
</mgrwt>
</event>
<event>
12    6  0.9491186E-008  0.2139097E+04  0.7818608E-02  0.8544214E-01
         -1   -1    0    0    0  501 -0.00000000000E+00  0.00000000000E+00  0.38657527525E+03  0.38657527525E+03  0.00000000000E+00 0.  1.
          2   -1    0    0  501    0  0.00000000000E+00 -0.00000000000E+00 -0.29591507480E+04  0.29591507480E+04  0.00000000000E+00 0. -1.
         24    2    1    2    0    0 -0.14817133138E+03  0.30096535412E+03 -0.23318454421E+04  0.23569738806E+04  0.72717400500E+02 0.  0.
        254    2    1    2    0    0  0.14817133138E+03 -0.30096535412E+03 -0.24073003061E+03  0.98875214258E+03  0.89841246874E+03 0.  0.
         23    2    4    4    0    0  0.29759010410E+03 -0.53162926852E+03 -0.61124466425E+01  0.61650475470E+03  0.94080823561E+02 0.  0.
         23    2    4    4    0    0 -0.14941877272E+03  0.23066391440E+03 -0.23461758397E+03  0.37224738787E+03  0.89391811822E+02 0.  0.
          2    1    3    3  502    0 -0.95392718889E+02  0.24741896889E+03 -0.16785604795E+04  0.16993767093E+04  0.00000000000E+00 0. -1.
         -1    1    3    3    0  502 -0.52778612490E+02  0.53546385225E+02 -0.65328496264E+03  0.65759717131E+03  0.00000000000E+00 0.  1.
         11    1    5    5    0    0  0.11024898026E+03 -0.14167156033E+03  0.31464387753E+02  0.18225168409E+03  0.00000000000E+00 0. -1.
        -11    1    5    5    0    0  0.18734112384E+03 -0.38995770819E+03 -0.37576834395E+02  0.43425307062E+03  0.00000000000E+00 0.  1.
          3    1    6    6  503    0 -0.31210212672E+02  0.12373749217E+03 -0.12620135243E+03  0.17947653245E+03  0.00000000000E+00 0. -1.
         -3    1    6    6    0  503 -0.11820856005E+03  0.10692642223E+03 -0.10841623154E+03  0.19277085543E+03  0.00000000000E+00 0.  1.
<mgrwt>
<rscale>  0 0.21390975E+04</rscale>
<asrwt>0</asrwt>
<pdfrwt beam="1">  1        2 0.45525396E+00 0.21390975E+04</pdfrwt>
<pdfrwt beam="2">  1       -1 0.59473119E-01 0.21390975E+04</pdfrwt>
<totfact> 0.55404941E+00</totfact>
</mgrwt>
</event>
<event>
12    6  0.9491186E-008  0.1705271E+04  0.7818608E-02  0.8758364E-01
         -1   -1    0    0    0  501 -0.00000000000E+00  0.00000000000E+00  0.26339419107E+03  0.26339419107E+03  0.00000000000E+00 0.  1.
          2   -1    0    0  501    0  0.00000000000E+00 -0.00000000000E+00 -0.27600730296E+04  0.27600730296E+04  0.00000000000E+00 0. -1.
         24    2    1    2    0    0  0.60243005575E+03  0.10140804725E+03 -0.83062814500E+03  0.10344057167E+04  0.82743624851E+02 0.  0.
        254    2    1    2    0    0 -0.60243005575E+03 -0.10140804725E+03 -0.16660506936E+04  0.19890615039E+04  0.89857397518E+03 0.  0.
         23    2    4    4    0    0 -0.48855482352E+03 -0.29325990733E+03 -0.40595814024E+03  0.70554891533E+03  0.91159593391E+02 0.  0.
         23    2    4    4    0    0 -0.11387523223E+03  0.19185186008E+03 -0.12600925533E+04  0.12835125886E+04  0.98977863527E+02 0.  0.
          4    1    3    3  502    0  0.53659019784E+03  0.10814950934E+03 -0.70652797559E+03  0.89376011159E+03  0.00000000000E+00 0. -1.
         -3    1    3    3    0  502  0.65839857911E+02 -0.67414620891E+01 -0.12410016941E+03  0.14064560515E+03  0.00000000000E+00 0.  1.
         11    1    5    5    0    0 -0.21031249116E+03 -0.16354410864E+03 -0.22830658555E+03  0.35085882690E+03  0.00000000000E+00 0. -1.
        -11    1    5    5    0    0 -0.27824233237E+03 -0.12971579869E+03 -0.17765155469E+03  0.35469008844E+03  0.00000000000E+00 0.  1.
          2    1    6    6  503    0  0.30305355419E+01 -0.36496355225E+01 -0.23221347698E+01  0.52816943311E+01  0.00000000000E+00 0. -1.
         -2    1    6    6    0  503 -0.11690576777E+03  0.19550149561E+03 -0.12577704185E+04  0.12782308943E+04  0.00000000000E+00 0.  1.
<mgrwt>
<rscale>  0 0.17052709E+04</rscale>
<asrwt>0</asrwt>
<pdfrwt beam="1">  1        2 0.42462661E+00 0.17052709E+04</pdfrwt>
<pdfrwt beam="2">  1       -1 0.40522185E-01 0.17052709E+04</pdfrwt>
<totfact> 0.15793286E+01</totfact>
</mgrwt>
</event>
<event>
12    6  0.9491186E-008  0.2031079E+04  0.7818608E-02  0.8592227E-01
         -1   -1    0    0    0  501 -0.00000000000E+00  0.00000000000E+00  0.90059998422E+03  0.90059998422E+03  0.00000000000E+00 0.  1.
          2   -1    0    0  501    0  0.00000000000E+00 -0.00000000000E+00 -0.11451481304E+04  0.11451481304E+04  0.00000000000E+00 0. -1.
         24    2    1    2    0    0  0.50526357002E+03 -0.58107747306E+03 -0.36232544592E+03  0.85485533564E+03  0.80966729105E+02 0.  0.
        254    2    1    2    0    0 -0.50526357002E+03  0.58107747306E+03  0.11777729976E+03  0.11908927789E+04  0.90078399948E+03 0.  0.
         23    2    4    4    0    0  0.12566598309E+03 -0.93071088447E+02  0.18783593003E+03  0.26045167578E+03  0.89992066296E+02 0.  0.
         23    2    4    4    0    0 -0.63092955311E+03  0.67414856151E+03 -0.70058630266E+02  0.93044110317E+03  0.90906824942E+02 0.  0.
          4    1    3    3  502    0  0.31137352305E+03 -0.41064382470E+03 -0.25933835462E+03  0.57692131509E+03  0.00000000000E+00 0. -1.
         -3    1    3    3    0  502  0.19389004697E+03 -0.17043364836E+03 -0.10298709130E+03  0.27793402056E+03  0.00000000000E+00 0.  1.
         11    1    5    5    0    0  0.13405737343E+03 -0.10178946035E+03  0.17506829903E+03  0.24286083038E+03  0.00000000000E+00 0. -1.
        -11    1    5    5    0    0 -0.83913903437E+01  0.87183718981E+01  0.12767631000E+02  0.17590845398E+02  0.00000000000E+00 0.  1.
          4    1    6    6  503    0 -0.27190320785E+03  0.23879844550E+03 -0.54264355748E+02  0.36592440793E+03  0.00000000000E+00 0. -1.
         -4    1    6    6    0  503 -0.35902634526E+03  0.43535011601E+03 -0.15794274518E+02  0.56451669525E+03  0.00000000000E+00 0.  1.
<mgrwt>
<rscale>  0 0.20310789E+04</rscale>
<asrwt>0</asrwt>
<pdfrwt beam="1">  1        2 0.17617664E+00 0.20310789E+04</pdfrwt>
<pdfrwt beam="2">  1       -1 0.13855384E+00 0.20310789E+04</pdfrwt>
<totfact> 0.93038268E+00</totfact>
</mgrwt>
</event>
<event>
12    6  0.9491186E-008  0.3679934E+04  0.7818608E-02  0.8072423E-01
          2   -1    0    0  501    0  0.00000000000E+00  0.00000000000E+00  0.88397175771E+03  0.88397175771E+03  0.00000000000E+00 0. -1.
         -1   -1    0    0    0  501 -0.00000000000E+00 -0.00000000000E+00 -0.38298488529E+04  0.38298488529E+04  0.00000000000E+00 0.  1.
         24    2    1    2    0    0  0.71496636595E+03  0.13596910166E+04 -0.36468467572E+03  0.15808790201E+04  0.79037956231E+02 0.  0.
        254    2    1    2    0    0 -0.71496636595E+03 -0.13596910166E+04 -0.25811924194E+04  0.31329415904E+04  0.89041121836E+03 0.  0.
         23    2    4    4    0    0  0.58877290992E+02 -0.78079790248E+03 -0.94659159381E+03  0.12318396060E+04  0.91001480738E+02 0.  0.
         23    2    4    4    0    0 -0.77384365694E+03 -0.57889311413E+03 -0.16346008256E+04  0.19011019844E+04  0.91201168446E+02 0.  0.
          4    1    3    3  502    0  0.23964079612E+03  0.39026460242E+03 -0.12864282678E+03  0.47569228283E+03  0.00000000000E+00 0. -1.
         -3    1    3    3    0  502  0.47532556983E+03  0.96942641419E+03 -0.23604184894E+03  0.11051867373E+04  0.00000000000E+00 0.  1.
         11    1    5    5    0    0  0.23411475613E+01 -0.52415860825E+03 -0.66368057645E+03  0.84570658927E+03  0.00000000000E+00 0.  1.
        -11    1    5    5    0    0  0.56536143431E+02 -0.25663929424E+03 -0.28291101735E+03  0.38613301672E+03  0.00000000000E+00 0. -1.
          3    1    6    6  503    0 -0.67064860934E+03 -0.51632134622E+03 -0.14806626767E+04  0.17054967757E+04  0.00000000000E+00 0. -1.
         -3    1    6    6    0  503 -0.10319504760E+03 -0.62571767904E+02 -0.15393814893E+03  0.19560520874E+03  0.00000000000E+00 0.  1.
<mgrwt>
<rscale>  0 0.36799338E+04</rscale>
<asrwt>0</asrwt>
<pdfrwt beam="1">  1        2 0.13599565E+00 0.36799338E+04</pdfrwt>
<pdfrwt beam="2">  1       -1 0.58920754E+00 0.36799338E+04</pdfrwt>
<totfact> 0.13501771E-02</totfact>
</mgrwt>
</event>
<event>
12    6  0.9491186E-008  0.1208342E+04  0.7818608E-02  0.9105586E-01
          2   -1    0    0  501    0  0.00000000000E+00  0.00000000000E+00  0.18820359360E+04  0.18820359360E+04  0.00000000000E+00 0. -1.
         -3   -1    0    0    0  501 -0.00000000000E+00 -0.00000000000E+00 -0.19395076810E+03  0.19395076810E+03  0.00000000000E+00 0.  1.
         24    2    1    2    0    0  0.24798849990E+03  0.66842339966E+02  0.51278218358E+03  0.57932392274E+03  0.81880676428E+02 0.  0.
        254    2    1    2    0    0 -0.24798849990E+03 -0.66842339966E+02  0.11753029843E+04  0.14966627813E+04  0.89033487051E+03 0.  0.
         23    2    4    4    0    0  0.15980283479E+03  0.31280823554E+03  0.46321933151E+03  0.58801938654E+03  0.88366914832E+02 0.  0.
         23    2    4    4    0    0 -0.40779133469E+03 -0.37965057550E+03  0.71208365278E+03  0.90864339479E+03  0.90229475314E+02 0.  0.
          4    1    3    3  502    0  0.24252574880E+03  0.50360093679E+02  0.49921373852E+03  0.55728738959E+03  0.00000000000E+00 0. -1.
         -3    1    3    3    0  502  0.54627511018E+01  0.16482246286E+02  0.13568445059E+02  0.22036533157E+02  0.00000000000E+00 0.  1.
         11    1    5    5    0    0  0.11127281779E+03  0.18230925266E+03  0.34302695022E+03  0.40408636721E+03  0.00000000000E+00 0. -1.
        -11    1    5    5    0    0  0.48530017001E+02  0.13049898287E+03  0.12019238129E+03  0.18393301933E+03  0.00000000000E+00 0.  1.
          3    1    6    6  503    0 -0.30874153748E+03 -0.23015403443E+03  0.48549092408E+03  0.61967221488E+03  0.00000000000E+00 0. -1.
         -3    1    6    6    0  503 -0.99049797203E+02 -0.14949654107E+03  0.22659272871E+03  0.28897117991E+03  0.00000000000E+00 0.  1.
<mgrwt>
<rscale>  0 0.12083415E+04</rscale>
<asrwt>0</asrwt>
<pdfrwt beam="1">  1        2 0.28954398E+00 0.12083415E+04</pdfrwt>
<pdfrwt beam="2">  1       -3 0.29838581E-01 0.12083415E+04</pdfrwt>
<totfact> 0.54299156E+01</totfact>
</mgrwt>
</event>
<event>
12    6  0.9491186E-008  0.3667727E+04  0.7818608E-02  0.8075152E-01
         -1   -1    0    0    0  501 -0.00000000000E+00  0.00000000000E+00  0.14846142171E+04  0.14846142171E+04  0.00000000000E+00 0.  1.
          2   -1    0    0  501    0  0.00000000000E+00 -0.00000000000E+00 -0.22652723703E+04  0.22652723703E+04  0.00000000000E+00 0. -1.
         24    2    1    2    0    0  0.29993396489E+03  0.16191501434E+04  0.14330728118E+03  0.16548288179E+04  0.79459860592E+02 0.  0.
        254    2    1    2    0    0 -0.29993396489E+03 -0.16191501434E+04 -0.92396543442E+03  0.20950577695E+04  0.90771546390E+03 0.  0.
         23    2    4    4    0    0 -0.55637582091E+02  0.93826262226E+02 -0.11658157728E+03  0.18346559523E+03  0.90385023366E+02 0.  0.
         23    2    4    4    0    0 -0.24429638280E+03 -0.17129764056E+04 -0.80738385715E+03  0.19115921743E+04  0.91362241080E+02 0.  0.
          2    1    3    3  502    0  0.96251236275E+02  0.51715403544E+03  0.83032101322E+02  0.53254758164E+03  0.00000000000E+00 0. -1.
         -1    1    3    3    0  502  0.20368272861E+03  0.11019961080E+04  0.60275179858E+02  0.11222812362E+04  0.00000000000E+00 0.  1.
         11    1    5    5    0    0 -0.56806978178E+02  0.84771844888E+02 -0.45379816657E+02  0.11168091249E+03  0.00000000000E+00 0.  1.
        -11    1    5    5    0    0  0.11693960871E+01  0.90544173378E+01 -0.71201760618E+02  0.71784682737E+02  0.00000000000E+00 0. -1.
          4    1    6    6  503    0 -0.15121059428E+03 -0.90331135136E+03 -0.38319870038E+03  0.99281281482E+03  0.00000000000E+00 0. -1.
         -4    1    6    6    0  503 -0.93085788521E+02 -0.80966505428E+03 -0.42418515677E+03  0.91877935946E+03  0.00000000000E+00 0.  1.
<mgrwt>
<rscale>  0 0.36677271E+04</rscale>
<asrwt>0</asrwt>
<pdfrwt beam="1">  1        2 0.34850344E+00 0.36677271E+04</pdfrwt>
<pdfrwt beam="2">  1       -1 0.22840219E+00 0.36677271E+04</pdfrwt>
<totfact> 0.42285805E-01</totfact>
</mgrwt>
</event>
<event>
12    6  0.9491186E-008  0.1250992E+04  0.7818608E-02  0.9069358E-01
         -1   -1    0    0    0  501 -0.00000000000E+00  0.00000000000E+00  0.41423754268E+03  0.41423754268E+03  0.00000000000E+00 0.  1.
          2   -1    0    0  501    0  0.00000000000E+00 -0.00000000000E+00 -0.94449419726E+03  0.94449419726E+03  0.00000000000E+00 0. -1.
         24    2    1    2    0    0  0.14557821508E+03  0.24237552293E+03 -0.30718661983E+03  0.42628281139E+03  0.86107520392E+02 0.  0.
        254    2    1    2    0    0 -0.14557821508E+03 -0.24237552293E+03 -0.22307003476E+03  0.93244892855E+03  0.86009409550E+03 0.  0.
         23    2    4    4    0    0  0.55421999462E+02  0.64354489022E+02  0.27588313834E+03  0.30618337655E+03  0.10209630637E+03 0.  0.
         23    2    4    4    0    0 -0.20100021454E+03 -0.30673001195E+03 -0.49895317310E+03  0.62626555199E+03  0.93647670503E+02 0.  0.
          2    1    3    3  502    0  0.56286145242E+02  0.10878122901E+03 -0.19511882266E+03  0.23037543464E+03  0.00000000000E+00 0. -1.
         -1    1    3    3    0  502  0.89292069835E+02  0.13359429392E+03 -0.11206779717E+03  0.19590737675E+03  0.00000000000E+00 0.  1.
         11    1    5    5    0    0  0.39975466152E+02  0.61423331370E+02  0.28040504566E+03  0.28982383126E+03  0.00000000000E+00 0.  1.
        -11    1    5    5    0    0  0.15446533310E+02  0.29311576521E+01 -0.45219073208E+01  0.16359545296E+02  0.00000000000E+00 0. -1.
          3    1    6    6  503    0 -0.12639396440E+03 -0.23491982937E+03 -0.29633031932E+03  0.39871596233E+03  0.00000000000E+00 0. -1.
         -3    1    6    6    0  503 -0.74606250142E+02 -0.71810182581E+02 -0.20262285378E+03  0.22754958967E+03  0.00000000000E+00 0.  1.
<mgrwt>
<rscale>  0 0.12509915E+04</rscale>
<asrwt>0</asrwt>
<pdfrwt beam="1">  1        2 0.14530680E+00 0.12509915E+04</pdfrwt>
<pdfrwt beam="2">  1       -1 0.63728854E-01 0.12509915E+04</pdfrwt>
<totfact> 0.76722062E+01</totfact>
</mgrwt>
</event>
<event>
12    6  0.9491186E-008  0.2734296E+04  0.7818608E-02  0.8323962E-01
         -1   -1    0    0    0  501 -0.00000000000E+00  0.00000000000E+00  0.70633634506E+03  0.70633634506E+03  0.00000000000E+00 0.  1.
          2   -1    0    0  501    0  0.00000000000E+00 -0.00000000000E+00 -0.26461812607E+04  0.26461812607E+04  0.00000000000E+00 0. -1.
         24    2    1    2    0    0 -0.10018688308E+04 -0.67725085780E+02 -0.16731112826E+04  0.19530112486E+04  0.81386313423E+02 0.  0.
        254    2    1    2    0    0  0.10018688308E+04  0.67725085780E+02 -0.26673363305E+03  0.13995063571E+04  0.93762645619E+03 0.  0.
         23    2    4    4    0    0 -0.13620397077E+03 -0.13626922152E+03 -0.29435500060E+02  0.21563740590E+03  0.92261691775E+02 0.  0.
         23    2    4    4    0    0  0.11380728015E+04  0.20399430730E+03 -0.23729813298E+03  0.11838689512E+04  0.91716469471E+02 0.  0.
          2    1    3    3  502    0 -0.71399458211E+03 -0.65470269509E+02 -0.11288351506E+04  0.13372895785E+04  0.00000000000E+00 0. -1.
         -1    1    3    3    0  502 -0.28787424865E+03 -0.22548162715E+01 -0.54427613192E+03  0.61572167009E+03  0.00000000000E+00 0.  1.
         11    1    5    5    0    0 -0.30400306354E+02 -0.18508237771E+02  0.29989671471E+02  0.46541528625E+02  0.00000000000E+00 0. -1.
        -11    1    5    5    0    0 -0.10580366442E+03 -0.11776098375E+03 -0.59425171531E+02  0.16909587727E+03  0.00000000000E+00 0.  1.
          4    1    6    6  503    0  0.10577773565E+04  0.18247258627E+03 -0.24293523075E+03  0.11005483665E+04  0.00000000000E+00 0. -1.
         -4    1    6    6    0  503  0.80295445017E+02  0.21521721032E+02  0.56370977610E+01  0.83320584719E+02  0.00000000000E+00 0.  1.
<mgrwt>
<rscale>  0 0.27342963E+04</rscale>
<asrwt>0</asrwt>
<pdfrwt beam="1">  1        2 0.40710481E+00 0.27342963E+04</pdfrwt>
<pdfrwt beam="2">  1       -1 0.10866713E+00 0.27342963E+04</pdfrwt>
<totfact> 0.22322493E+00</totfact>
</mgrwt>
</event>
<event>
12    6  0.9491186E-008  0.1421665E+04  0.7818608E-02  0.8938284E-01
          2   -1    0    0  501    0  0.00000000000E+00  0.00000000000E+00  0.13536298385E+03  0.13536298385E+03  0.00000000000E+00 0. -1.
         -1   -1    0    0    0  501 -0.00000000000E+00 -0.00000000000E+00 -0.37327987181E+04  0.37327987181E+04  0.00000000000E+00 0.  1.
         24    2    1    2    0    0  0.10272343988E+03 -0.19059674178E+03 -0.21024359462E+04  0.21150847064E+04  0.80418805375E+02 0.  0.
        254    2    1    2    0    0 -0.10272343988E+03  0.19059674178E+03 -0.14949997881E+04  0.17530769956E+04  0.88959280741E+03 0.  0.
         23    2    4    4    0    0  0.11084589208E+03  0.38193372741E+03 -0.26082206274E+03  0.48330136662E+03  0.85976035266E+02 0.  0.
         23    2    4    4    0    0 -0.21356933197E+03 -0.19133698563E+03 -0.12341777254E+04  0.12697756290E+04  0.83149194423E+02 0.  0.
          2    1    3    3  502    0 -0.67784200533E+01 -0.90654632249E+01 -0.30170308072E+03  0.30191534993E+03  0.00000000000E+00 0. -1.
         -1    1    3    3    0  502  0.10950185994E+03 -0.18153127856E+03 -0.18007328655E+04  0.18131693565E+04  0.00000000000E+00 0.  1.
         11    1    5    5    0    0  0.10320421586E+03  0.23166366671E+03 -0.19064147037E+03  0.31727485698E+03  0.00000000000E+00 0. -1.
        -11    1    5    5    0    0  0.76416762195E+01  0.15027006070E+03 -0.70180592363E+02  0.16602650964E+03  0.00000000000E+00 0.  1.
          3    1    6    6  503    0 -0.63571768876E+02 -0.24535427149E+02 -0.19214291289E+03  0.20386823185E+03  0.00000000000E+00 0. -1.
         -3    1    6    6    0  503 -0.14999756309E+03 -0.16680155849E+03 -0.10420348125E+04  0.10659073971E+04  0.00000000000E+00 0.  1.
<mgrwt>
<rscale>  0 0.14216649E+04</rscale>
<asrwt>0</asrwt>
<pdfrwt beam="1">  1        2 0.20825076E-01 0.14216649E+04</pdfrwt>
<pdfrwt beam="2">  1       -1 0.57427668E+00 0.14216649E+04</pdfrwt>
<totfact> 0.16902528E-01</totfact>
</mgrwt>
</event>
<event>
12    6  0.9491186E-008  0.1968169E+04  0.7818608E-02  0.8621649E-01
         -1   -1    0    0    0  501 -0.00000000000E+00  0.00000000000E+00  0.41999249632E+03  0.41999249632E+03  0.00000000000E+00 0.  1.
          2   -1    0    0  501    0  0.00000000000E+00 -0.00000000000E+00 -0.23058084316E+04  0.23058084316E+04  0.00000000000E+00 0. -1.
         24    2    1    2    0    0 -0.96080158718E+02  0.41916649600E+03  0.14473235065E+03  0.46067186875E+03  0.79618898916E+02 0.  0.
        254    2    1    2    0    0  0.96080158718E+02 -0.41916649600E+03 -0.20305482859E+04  0.22651290591E+04  0.90705642872E+03 0.  0.
         23    2    4    4    0    0 -0.10745181445E+03 -0.61716846992E+03 -0.17312841068E+04  0.18439634284E+04  0.10204731370E+03 0.  0.
         23    2    4    4    0    0  0.20353197316E+03  0.19800197392E+03 -0.29926417914E+03  0.42116563074E+03  0.84802086197E+02 0.  0.
          2    1    3    3  502    0 -0.45922428745E+01  0.19637967272E+03  0.60862744825E+02  0.20564614818E+03  0.00000000000E+00 0. -1.
         -1    1    3    3    0  502 -0.91487915843E+02  0.22278682328E+03  0.83869605829E+02  0.25502572057E+03  0.00000000000E+00 0.  1.
         11    1    5    5    0    0 -0.75846776557E+02 -0.16848653262E+03 -0.48638672643E+03  0.52030038712E+03  0.00000000000E+00 0. -1.
        -11    1    5    5    0    0 -0.31605037889E+02 -0.44868193730E+03 -0.12448973803E+04  0.13236630413E+04  0.00000000000E+00 0.  1.
          4    1    6    6  503    0 -0.17418859334E+01 -0.35619666834E+01  0.21356280098E+01  0.45036296756E+01  0.00000000000E+00 0. -1.
         -4    1    6    6    0  503  0.20527385910E+03  0.20156394060E+03 -0.30139980715E+03  0.41666200106E+03  0.00000000000E+00 0.  1.
<mgrwt>
<rscale>  0 0.19681689E+04</rscale>
<asrwt>0</asrwt>
<pdfrwt beam="1">  1        2 0.35473976E+00 0.19681689E+04</pdfrwt>
<pdfrwt beam="2">  1       -1 0.64614231E-01 0.19681689E+04</pdfrwt>
<totfact> 0.11590035E+01</totfact>
</mgrwt>
</event>
<event>
12    6  0.9491186E-008  0.1123472E+04  0.7818608E-02  0.9182612E-01
         -1   -1    0    0    0  501 -0.00000000000E+00  0.00000000000E+00  0.30533868148E+03  0.30533868148E+03  0.00000000000E+00 0.  1.
          2   -1    0    0  501    0  0.00000000000E+00 -0.00000000000E+00 -0.10334336162E+04  0.10334336162E+04  0.00000000000E+00 0. -1.
         24    2    1    2    0    0 -0.25159147105E+03  0.29852187495E+02 -0.96763159353E+02  0.28257805790E+03  0.79358858322E+02 0.  0.
        254    2    1    2    0    0  0.25159147105E+03 -0.29852187495E+02 -0.63133177541E+03  0.10561942398E+04  0.80794618644E+03 0.  0.
         23    2    4    4    0    0  0.15633260026E+03  0.24101974687E+03  0.56449525583E+02  0.30532250523E+03  0.86630727671E+02 0.  0.
         23    2    4    4    0    0  0.95258870785E+02 -0.27087193436E+03 -0.68778130099E+03  0.75087173459E+03  0.91210671069E+02 0.  0.
          4    1    3    3  502    0 -0.19718047575E+03  0.45131177442E+02 -0.10063512007E+03  0.22593005685E+03  0.00000000000E+00 0. -1.
         -3    1    3    3    0  502 -0.54410995296E+02 -0.15278989947E+02  0.38719607216E+01  0.56648001048E+02  0.00000000000E+00 0.  1.
         11    1    5    5    0    0 -0.63995608934E+01  0.41758713732E+02  0.14449052326E+02  0.44648848421E+02  0.00000000000E+00 0.  1.
        -11    1    5    5    0    0  0.16273216116E+03  0.19926103314E+03  0.42000473258E+02  0.26067365681E+03  0.00000000000E+00 0. -1.
          2    1    6    6  503    0  0.32708747513E+02 -0.14565672163E+03 -0.45903638398E+03  0.48270088517E+03  0.00000000000E+00 0. -1.
         -2    1    6    6    0  503  0.62550123271E+02 -0.12521521273E+03 -0.22874491701E+03  0.26817084942E+03  0.00000000000E+00 0.  1.
<mgrwt>
<rscale>  0 0.11234719E+04</rscale>
<asrwt>0</asrwt>
<pdfrwt beam="1">  1        2 0.15898979E+00 0.11234719E+04</pdfrwt>
<pdfrwt beam="2">  1       -1 0.46975181E-01 0.11234719E+04</pdfrwt>
<totfact> 0.12244089E+02</totfact>
</mgrwt>
</event>
<event>
12    6  0.9491186E-008  0.1969306E+04  0.7818608E-02  0.8621107E-01
         -1   -1    0    0    0  501 -0.00000000000E+00  0.00000000000E+00  0.10548669962E+04  0.10548669962E+04  0.00000000000E+00 0.  1.
          2   -1    0    0  501    0  0.00000000000E+00 -0.00000000000E+00 -0.91911239706E+03  0.91911239706E+03  0.00000000000E+00 0. -1.
         24    2    1    2    0    0 -0.64151851371E+03  0.38958781883E+03  0.26418804315E+03  0.79934818167E+03  0.76403673845E+02 0.  0.
        254    2    1    2    0    0  0.64151851371E+03 -0.38958781883E+03 -0.12843344400E+03  0.11746312116E+04  0.89439290120E+03 0.  0.
         23    2    4    4    0    0  0.55373127336E+03 -0.66278453653E+03 -0.99426517282E+02  0.87401400143E+03  0.90073178000E+02 0.  0.
         23    2    4    4    0    0  0.87787240347E+02  0.27319671770E+03 -0.29006926720E+02  0.30061721016E+03  0.84771806147E+02 0.  0.
          4    1    3    3  502    0 -0.48647547152E+02  0.49525202723E+02  0.39584845775E+02  0.79914263831E+02  0.00000000000E+00 0. -1.
         -3    1    3    3    0  502 -0.59287096656E+03  0.34006261610E+03  0.22460319738E+03  0.71943391783E+03  0.00000000000E+00 0.  1.
         11    1    5    5    0    0  0.30899775002E+03 -0.34952163350E+03 -0.10403175773E+02  0.46664034102E+03  0.00000000000E+00 0. -1.
        -11    1    5    5    0    0  0.24473352335E+03 -0.31326290303E+03 -0.89023341509E+02  0.40737366041E+03  0.00000000000E+00 0.  1.
          4    1    6    6  503    0  0.25193671489E+02  0.20216763760E+03 -0.30064509514E+02  0.20593773211E+03  0.00000000000E+00 0. -1.
         -4    1    6    6    0  503  0.62593568858E+02  0.71029080109E+02  0.10575827941E+01  0.94679478056E+02  0.00000000000E+00 0.  1.
<mgrwt>
<rscale>  0 0.19693058E+04</rscale>
<asrwt>0</asrwt>
<pdfrwt beam="1">  1        2 0.14140191E+00 0.19693058E+04</pdfrwt>
<pdfrwt beam="2">  1       -1 0.16228723E+00 0.19693058E+04</pdfrwt>
<totfact> 0.84948584E+00</totfact>
</mgrwt>
</event>
<event>
12    6  0.9491186E-008  0.1657337E+04  0.7818608E-02  0.8786078E-01
         -1   -1    0    0    0  501 -0.00000000000E+00  0.00000000000E+00  0.81028140078E+03  0.81028140078E+03  0.00000000000E+00 0.  1.
          2   -1    0    0  501    0  0.00000000000E+00 -0.00000000000E+00 -0.84747279309E+03  0.84747279309E+03  0.00000000000E+00 0. -1.
         24    2    1    2    0    0 -0.55916843746E+03  0.12747419785E+03  0.41251328835E+02  0.58036300823E+03  0.78743486209E+02 0.  0.
        254    2    1    2    0    0  0.55916843746E+03 -0.12747419785E+03 -0.78442721144E+02  0.10773911856E+04  0.90868008331E+03 0.  0.
         23    2    4    4    0    0  0.21978981027E+03 -0.12509434501E+03 -0.47551877008E+03  0.54670159170E+03  0.93852937224E+02 0.  0.
         23    2    4    4    0    0  0.33937862719E+03 -0.23798528349E+01  0.39707604893E+03  0.53068959393E+03  0.93693864130E+02 0.  0.
          4    1    3    3  502    0 -0.23375482724E+03  0.61590956723E+02 -0.20696896203E+02  0.24261724324E+03  0.00000000000E+00 0. -1.
         -3    1    3    3    0  502 -0.32541361023E+03  0.65883241122E+02  0.61948225038E+02  0.33774576499E+03  0.00000000000E+00 0.  1.
         11    1    5    5    0    0  0.17142769059E+03 -0.88918577003E+02 -0.42901786535E+03  0.47047879360E+03  0.00000000000E+00 0. -1.
        -11    1    5    5    0    0  0.48362119675E+02 -0.36175768008E+02 -0.46500904727E+02  0.76222798104E+02  0.00000000000E+00 0.  1.
          3    1    6    6  503    0  0.24437288133E+03 -0.57170222516E+01  0.34341256940E+03  0.42152459275E+03  0.00000000000E+00 0. -1.
         -3    1    6    6    0  503  0.95005745862E+02  0.33371694167E+01  0.53663479530E+02  0.10916500118E+03  0.00000000000E+00 0.  1.
<mgrwt>
<rscale>  0 0.16573370E+04</rscale>
<asrwt>0</asrwt>
<pdfrwt beam="1">  1        2 0.13038043E+00 0.16573370E+04</pdfrwt>
<pdfrwt beam="2">  1       -1 0.12465868E+00 0.16573370E+04</pdfrwt>
<totfact> 0.19571936E+01</totfact>
</mgrwt>
</event>
<event>
12    6  0.9491186E-008  0.1666900E+04  0.7818608E-02  0.8780471E-01
         -1   -1    0    0    0  501 -0.00000000000E+00  0.00000000000E+00  0.44028838059E+03  0.44028838059E+03  0.00000000000E+00 0.  1.
          2   -1    0    0  501    0  0.00000000000E+00 -0.00000000000E+00 -0.15776910507E+04  0.15776910507E+04  0.00000000000E+00 0. -1.
         24    2    1    2    0    0 -0.46044236467E+03 -0.45111430065E+02  0.21692358788E+02  0.47312830667E+03  0.96631381238E+02 0.  0.
        254    2    1    2    0    0  0.46044236467E+03  0.45111430065E+02 -0.11590950289E+04  0.15448511246E+04  0.91050617729E+03 0.  0.
         23    2    4    4    0    0  0.60645529429E+03 -0.17951144912E+03 -0.10709243227E+04  0.12473724993E+04  0.95114997122E+02 0.  0.
         23    2    4    4    0    0 -0.14601292962E+03  0.22462287919E+03 -0.88170706183E+02  0.29747862532E+03  0.94574021917E+02 0.  0.
          2    1    3    3  502    0  0.21211042385E+01 -0.37294734403E+01 -0.65827405950E+01  0.78575141790E+01  0.00000000000E+00 0. -1.
         -1    1    3    3    0  502 -0.46256346891E+03 -0.41381956624E+02  0.28275099383E+02  0.46527079249E+03  0.00000000000E+00 0.  1.
         11    1    5    5    0    0  0.56772051520E+03 -0.17126986614E+03 -0.10397892137E+04  0.11969968919E+04  0.00000000000E+00 0. -1.
        -11    1    5    5    0    0  0.38734779093E+02 -0.82415829784E+01 -0.31135109009E+02  0.50375607335E+02  0.00000000000E+00 0.  1.
          2    1    6    6  503    0 -0.14214678346E+03  0.20443725363E+03 -0.10566275384E+03  0.27049014080E+03  0.00000000000E+00 0. -1.
         -2    1    6    6    0  503 -0.38661461598E+01  0.20185625553E+02  0.17492047660E+02  0.26988484515E+02  0.00000000000E+00 0.  1.
<mgrwt>
<rscale>  0 0.16669002E+04</rscale>
<asrwt>0</asrwt>
<pdfrwt beam="1">  1        2 0.24272170E+00 0.16669002E+04</pdfrwt>
<pdfrwt beam="2">  1       -1 0.67736674E-01 0.16669002E+04</pdfrwt>
<totfact> 0.27532476E+01</totfact>
</mgrwt>
</event>
<event>
12    6  0.9491186E-008  0.1565684E+04  0.7818608E-02  0.8841911E-01
         -1   -1    0    0    0  501 -0.00000000000E+00  0.00000000000E+00  0.54989963977E+03  0.54989963977E+03  0.00000000000E+00 0.  1.
          2   -1    0    0  501    0  0.00000000000E+00 -0.00000000000E+00 -0.11144612696E+04  0.11144612696E+04  0.00000000000E+00 0. -1.
         24    2    1    2    0    0 -0.17838804999E+03  0.23854828736E+03 -0.64228641682E+03  0.71252365235E+03  0.80190598825E+02 0.  0.
        254    2    1    2    0    0  0.17838804999E+03 -0.23854828736E+03  0.77724786979E+02  0.95183725704E+03  0.90068054248E+03 0.  0.
         23    2    4    4    0    0 -0.26334508430E+03 -0.31218716064E+03  0.22014167480E+03  0.47302140443E+03  0.92062127749E+02 0.  0.
         23    2    4    4    0    0  0.44173313429E+03  0.73638873282E+02 -0.14241688783E+03  0.47881585262E+03  0.91821594373E+02 0.  0.
          4    1    3    3  502    0 -0.11148461672E+03  0.20494684459E+03 -0.47238160326E+03  0.52685520589E+03  0.00000000000E+00 0. -1.
         -3    1    3    3    0  502 -0.66903433277E+02  0.33601442776E+02 -0.16990481356E+03  0.18566844646E+03  0.00000000000E+00 0.  1.
         11    1    5    5    0    0 -0.11871176609E+03 -0.16596546815E+03  0.15830297453E+03  0.25825733634E+03  0.00000000000E+00 0. -1.
        -11    1    5    5    0    0 -0.14463331820E+03 -0.14622169249E+03  0.61838700272E+02  0.21476406808E+03  0.00000000000E+00 0.  1.
          4    1    6    6  503    0  0.72332219884E+02 -0.20692159395E+02 -0.33139117690E+02  0.82208981353E+02  0.00000000000E+00 0. -1.
         -4    1    6    6    0  503  0.36940091440E+03  0.94331032676E+02 -0.10927777014E+03  0.39660687126E+03  0.00000000000E+00 0.  1.
<mgrwt>
<rscale>  0 0.15656843E+04</rscale>
<asrwt>0</asrwt>
<pdfrwt beam="1">  1        2 0.17145558E+00 0.15656843E+04</pdfrwt>
<pdfrwt beam="2">  1       -1 0.84599946E-01 0.15656843E+04</pdfrwt>
<totfact> 0.32377802E+01</totfact>
</mgrwt>
</event>
<event>
12    6  0.9491186E-008  0.2894704E+04  0.7818608E-02  0.8274455E-01
         -1   -1    0    0    0  501 -0.00000000000E+00  0.00000000000E+00  0.69631363795E+03  0.69631363795E+03  0.00000000000E+00 0.  1.
          2   -1    0    0  501    0  0.00000000000E+00 -0.00000000000E+00 -0.30084533446E+04  0.30084533446E+04  0.00000000000E+00 0. -1.
         24    2    1    2    0    0 -0.34486184882E+03 -0.11472929140E+04 -0.17097980054E+04  0.20896802888E+04  0.90242810869E+02 0.  0.
        254    2    1    2    0    0  0.34486184882E+03  0.11472929140E+04 -0.60234170128E+03  0.16150866938E+04  0.90026594852E+03 0.  0.
         23    2    4    4    0    0 -0.28263885175E+03  0.34225744029E+03 -0.65067313764E+02  0.45801644988E+03  0.92306213709E+02 0.  0.
         23    2    4    4    0    0  0.62750070057E+03  0.80503547368E+03 -0.53727438752E+03  0.11570702439E+04  0.91151185986E+02 0.  0.
          4    1    3    3  502    0 -0.32434744193E+03 -0.10535211554E+04 -0.16100440175E+04  0.19512431489E+04  0.00000000000E+00 0. -1.
         -3    1    3    3    0  502 -0.20514406896E+02 -0.93771758530E+02 -0.99753987917E+02  0.13843713986E+03  0.00000000000E+00 0.  1.
         11    1    5    5    0    0 -0.22893401320E+03  0.32010667159E+03 -0.69961741445E+02  0.39971703599E+03  0.00000000000E+00 0.  1.
        -11    1    5    5    0    0 -0.53704838552E+02  0.22150768705E+02  0.48944276806E+01  0.58299413895E+02  0.00000000000E+00 0. -1.
          1    1    6    6  503    0  0.23230454472E+03  0.35412475700E+03 -0.19010263259E+03  0.46422920625E+03  0.00000000000E+00 0. -1.
         -1    1    6    6    0  503  0.39519615585E+03  0.45091071668E+03 -0.34717175493E+03  0.69284103764E+03  0.00000000000E+00 0.  1.
<mgrwt>
<rscale>  0 0.28947035E+04</rscale>
<asrwt>0</asrwt>
<pdfrwt beam="1">  1        2 0.46283898E+00 0.28947035E+04</pdfrwt>
<pdfrwt beam="2">  1       -1 0.10712517E+00 0.28947035E+04</pdfrwt>
<totfact> 0.13702462E+00</totfact>
</mgrwt>
</event>
<event>
12    6  0.9491186E-008  0.2320546E+04  0.7818608E-02  0.8469864E-01
          2   -1    0    0  501    0  0.00000000000E+00  0.00000000000E+00  0.29014551904E+04  0.29014551904E+04  0.00000000000E+00 0. -1.
         -1   -1    0    0    0  501 -0.00000000000E+00 -0.00000000000E+00 -0.46398561422E+03  0.46398561422E+03  0.00000000000E+00 0.  1.
         24    2    1    2    0    0  0.41201527363E+03 -0.69233445164E+03  0.22717271252E+03  0.84077978167E+03  0.78864575820E+02 0.  0.
        254    2    1    2    0    0 -0.41201527363E+03  0.69233445164E+03  0.22102968637E+04  0.25246610230E+04  0.91619729136E+03 0.  0.
         23    2    4    4    0    0  0.24200705890E+03  0.16655961164E+03  0.10211388284E+04  0.10664129240E+04  0.90567636073E+02 0.  0.
         23    2    4    4    0    0 -0.65402233253E+03  0.52577484000E+03  0.11891580353E+04  0.14582480990E+04  0.90588584359E+02 0.  0.
          4    1    3    3  502    0  0.12725494420E+03 -0.21475708399E+03  0.32892801111E+02  0.25178634258E+03  0.00000000000E+00 0. -1.
         -3    1    3    3    0  502  0.28476032943E+03 -0.47757736765E+03  0.19427991141E+03  0.58899343909E+03  0.00000000000E+00 0.  1.
         11    1    5    5    0    0  0.23898762425E+02  0.30534749031E+02  0.26393874200E+03  0.26677177751E+03  0.00000000000E+00 0.  1.
        -11    1    5    5    0    0  0.21810829647E+03  0.13602486261E+03  0.75720008645E+03  0.79964114649E+03  0.00000000000E+00 0. -1.
          4    1    6    6  503    0 -0.18164433847E+03  0.14173308438E+03  0.39925787611E+03  0.46096614252E+03  0.00000000000E+00 0. -1.
         -4    1    6    6    0  503 -0.47237799405E+03  0.38404175561E+03  0.78990015914E+03  0.99728195649E+03  0.00000000000E+00 0.  1.
<mgrwt>
<rscale>  0 0.23205460E+04</rscale>
<asrwt>0</asrwt>
<pdfrwt beam="1">  1        2 0.44637771E+00 0.23205460E+04</pdfrwt>
<pdfrwt beam="2">  1       -1 0.71382404E-01 0.23205460E+04</pdfrwt>
<totfact> 0.40930471E+00</totfact>
</mgrwt>
</event>
<event>
12    6  0.9491186E-008  0.1615827E+04  0.7818608E-02  0.8810884E-01
         -1   -1    0    0    0  501 -0.00000000000E+00  0.00000000000E+00  0.57620292007E+03  0.57620292007E+03  0.00000000000E+00 0.  1.
          2   -1    0    0  501    0  0.00000000000E+00 -0.00000000000E+00 -0.11328024097E+04  0.11328024097E+04  0.00000000000E+00 0. -1.
         24    2    1    2    0    0  0.36729406509E+03 -0.15295548033E+03 -0.60963329127E+03  0.73237614490E+03  0.80135875734E+02 0.  0.
        254    2    1    2    0    0 -0.36729406509E+03  0.15295548033E+03  0.53033801642E+02  0.97662918487E+03  0.89033233762E+03 0.  0.
         23    2    4    4    0    0 -0.62229970858E+02 -0.33772667721E+03  0.14726345702E+03  0.38382314972E+03  0.87759938028E+02 0.  0.
         23    2    4    4    0    0 -0.30506409423E+03  0.49068215754E+03 -0.94229655376E+02  0.59280603515E+03  0.93309624562E+02 0.  0.
          2    1    3    3  502    0  0.32443677153E+03 -0.13020443729E+03 -0.47885464192E+03  0.59288631482E+03  0.00000000000E+00 0. -1.
         -3    1    3    3    0  502  0.42857293566E+02 -0.22751043047E+02 -0.13077864935E+03  0.13948983008E+03  0.00000000000E+00 0.  1.
         11    1    5    5    0    0 -0.17592652921E+02 -0.47868575884E+01  0.11177870157E+02  0.21385981942E+02  0.00000000000E+00 0. -1.
        -11    1    5    5    0    0 -0.44637317937E+02 -0.33293981962E+03  0.13608558686E+03  0.36243716778E+03  0.00000000000E+00 0.  1.
          1    1    6    6  503    0 -0.16759376494E+03  0.22060725502E+03 -0.84322327149E+02  0.28959538303E+03  0.00000000000E+00 0. -1.
         -1    1    6    6    0  503 -0.13747032929E+03  0.27007490252E+03 -0.99073282268E+01  0.30321065212E+03  0.00000000000E+00 0.  1.
<mgrwt>
<rscale>  0 0.16158268E+04</rscale>
<asrwt>0</asrwt>
<pdfrwt beam="1">  1        2 0.17427729E+00 0.16158268E+04</pdfrwt>
<pdfrwt beam="2">  1       -1 0.88646603E-01 0.16158268E+04</pdfrwt>
<totfact> 0.28379301E+01</totfact>
</mgrwt>
</event>
<event>
12    6  0.9491186E-008  0.1940689E+04  0.7818608E-02  0.8634864E-01
         -1   -1    0    0    0  501 -0.00000000000E+00  0.00000000000E+00  0.29346068003E+03  0.29346068003E+03  0.00000000000E+00 0.  1.
          2   -1    0    0  501    0  0.00000000000E+00 -0.00000000000E+00 -0.32084989913E+04  0.32084989913E+04  0.00000000000E+00 0. -1.
         24    2    1    2    0    0  0.42077652008E+03 -0.19429192923E+03 -0.48358638408E+02  0.47183870751E+03  0.74101109166E+02 0.  0.
        254    2    1    2    0    0 -0.42077652008E+03  0.19429192923E+03 -0.28666796729E+04  0.30301209638E+04  0.86543542510E+03 0.  0.
         23    2    4    4    0    0 -0.59570562417E+03  0.27448056910E+02 -0.25536066510E+04  0.26238948258E+04  0.91096336038E+02 0.  0.
         23    2    4    4    0    0  0.17492910409E+03  0.16684387232E+03 -0.31307302185E+03  0.40622613800E+03  0.92562892091E+02 0.  0.
          4    1    3    3  502    0  0.23092064833E+03 -0.13329095277E+03  0.64531683998E-01  0.26662863327E+03  0.00000000000E+00 0. -1.
         -3    1    3    3    0  502  0.18985587175E+03 -0.61000976464E+02 -0.48423170092E+02  0.20521007424E+03  0.00000000000E+00 0.  1.
         11    1    5    5    0    0 -0.49498672074E+03  0.31625667659E+02 -0.19596772789E+04  0.20214715121E+04  0.00000000000E+00 0. -1.
        -11    1    5    5    0    0 -0.10071890343E+03 -0.41776107483E+01 -0.59392937209E+03  0.60242331377E+03  0.00000000000E+00 0.  1.
          2    1    6    6  503    0  0.13363080014E+03  0.78414438375E+02 -0.23385521683E+03  0.28052500304E+03  0.00000000000E+00 0. -1.
         -2    1    6    6    0  503  0.41298303952E+02  0.88429433945E+02 -0.79217805017E+02  0.12570113495E+03  0.00000000000E+00 0.  1.
<mgrwt>
<rscale>  0 0.19406888E+04</rscale>
<asrwt>0</asrwt>
<pdfrwt beam="1">  1        2 0.49361522E+00 0.19406888E+04</pdfrwt>
<pdfrwt beam="2">  1       -1 0.45147798E-01 0.19406888E+04</pdfrwt>
<totfact> 0.66488960E+00</totfact>
</mgrwt>
</event>
<event>
12    6  0.9491186E-008  0.1520465E+04  0.7818608E-02  0.8870957E-01
         -1   -1    0    0    0  501 -0.00000000000E+00  0.00000000000E+00  0.54492646611E+03  0.54492646611E+03  0.00000000000E+00 0.  1.
          2   -1    0    0  501    0  0.00000000000E+00 -0.00000000000E+00 -0.10606088117E+04  0.10606088117E+04  0.00000000000E+00 0. -1.
         24    2    1    2    0    0 -0.47501062029E+03  0.89873127090E+02 -0.23832465379E+03  0.54468361980E+03  0.78545125281E+02 0.  0.
        254    2    1    2    0    0  0.47501062029E+03 -0.89873127090E+02 -0.27735769176E+03  0.10608516580E+04  0.90264427251E+03 0.  0.
         23    2    4    4    0    0  0.20359505310E+03 -0.10921808845E+03 -0.58808161577E+03  0.63850514034E+03  0.92028750601E+02 0.  0.
         23    2    4    4    0    0  0.27141556719E+03  0.19344961361E+02  0.31072392401E+03  0.42234651765E+03  0.88241636288E+02 0.  0.
          2    1    3    3  502    0 -0.37087199402E+03  0.37056217964E+02 -0.17338603635E+03  0.41107410140E+03  0.00000000000E+00 0. -1.
         -1    1    3    3    0  502 -0.10413862627E+03  0.52816909126E+02 -0.64938617438E+02  0.13360951840E+03  0.00000000000E+00 0.  1.
         11    1    5    5    0    0  0.70566296344E+01 -0.39173027357E+02 -0.10497550215E+03  0.11226833100E+03  0.00000000000E+00 0. -1.
        -11    1    5    5    0    0  0.19653842347E+03 -0.70045061094E+02 -0.48310611362E+03  0.52623680934E+03  0.00000000000E+00 0.  1.
          2    1    6    6  503    0 -0.19525804902E+01 -0.75687211473E+01  0.27824881754E+00  0.78214789382E+01  0.00000000000E+00 0. -1.
         -2    1    6    6    0  503  0.27336814768E+03  0.26913682508E+02  0.31044567519E+03  0.41452503871E+03  0.00000000000E+00 0.  1.
<mgrwt>
<rscale>  0 0.15204655E+04</rscale>
<asrwt>0</asrwt>
<pdfrwt beam="1">  1        2 0.16317058E+00 0.15204655E+04</pdfrwt>
<pdfrwt beam="2">  1       -1 0.83834842E-01 0.15204655E+04</pdfrwt>
<totfact> 0.35791975E+01</totfact>
</mgrwt>
</event>
<event>
12    6  0.9491186E-008  0.1581686E+04  0.7818608E-02  0.8831879E-01
          2   -1    0    0  501    0  0.00000000000E+00  0.00000000000E+00  0.21633106704E+04  0.21633106704E+04  0.00000000000E+00 0. -1.
         -1   -1    0    0    0  501 -0.00000000000E+00 -0.00000000000E+00 -0.28910900667E+03  0.28910900667E+03  0.00000000000E+00 0.  1.
         24    2    1    2    0    0  0.33896038939E+03 -0.40731031788E+03  0.67019006939E+03  0.85844388984E+03  0.83518514537E+02 0.  0.
        254    2    1    2    0    0 -0.33896038939E+03  0.40731031788E+03  0.12040115943E+04  0.15939757872E+04  0.90017723273E+03 0.  0.
         23    2    4    4    0    0 -0.45965465264E+03  0.58292001268E+02  0.18686684230E+03  0.50813634140E+03  0.92752183742E+02 0.  0.
         23    2    4    4    0    0  0.12069426325E+03  0.34901831661E+03  0.10171447520E+04  0.10858394458E+04  0.89905311398E+02 0.  0.
          2    1    3    3  502    0  0.29099906523E+03 -0.31392927929E+03  0.49705752009E+03  0.65597120869E+03  0.00000000000E+00 0. -1.
         -1    1    3    3    0  502  0.47961324164E+02 -0.93381038593E+02  0.17313254930E+03  0.20247268115E+03  0.00000000000E+00 0.  1.
         11    1    5    5    0    0 -0.45177881547E+03  0.41193443230E+02  0.18085638510E+03  0.48837488664E+03  0.00000000000E+00 0. -1.
        -11    1    5    5    0    0 -0.78758371692E+01  0.17098558038E+02  0.60104572024E+01  0.19761454751E+02  0.00000000000E+00 0.  1.
          3    1    6    6  503    0  0.12199179108E+03  0.25883481587E+03  0.70299999963E+03  0.75900359583E+03  0.00000000000E+00 0. -1.
         -3    1    6    6    0  503 -0.12975278317E+01  0.90183500741E+02  0.31414475239E+03  0.32683584999E+03  0.00000000000E+00 0.  1.
<mgrwt>
<rscale>  0 0.15816859E+04</rscale>
<asrwt>0</asrwt>
<pdfrwt beam="1">  1        2 0.33281702E+00 0.15816859E+04</pdfrwt>
<pdfrwt beam="2">  1       -1 0.44478310E-01 0.15816859E+04</pdfrwt>
<totfact> 0.29663800E+01</totfact>
</mgrwt>
</event>
<event>
12    6  0.9491186E-008  0.2273626E+04  0.7818608E-02  0.8488393E-01
         -1   -1    0    0    0  501 -0.00000000000E+00  0.00000000000E+00  0.65116507647E+03  0.65116507647E+03  0.00000000000E+00 0.  1.
          2   -1    0    0  501    0  0.00000000000E+00 -0.00000000000E+00 -0.19846640444E+04  0.19846640444E+04  0.00000000000E+00 0. -1.
         24    2    1    2    0    0 -0.19823640936E+03 -0.29022339476E+03  0.46515196417E+03  0.58918652157E+03  0.85129986252E+02 0.  0.
        254    2    1    2    0    0  0.19823640936E+03  0.29022339476E+03 -0.17986509321E+04  0.20466425993E+04  0.91108367392E+03 0.  0.
         23    2    4    4    0    0  0.99874966659E+02 -0.32102638605E+03 -0.71781082134E+03  0.79786210559E+03  0.91096733154E+02 0.  0.
         23    2    4    4    0    0  0.98361442704E+02  0.61124978081E+03 -0.10808401108E+04  0.12487804937E+04  0.89084838851E+02 0.  0.
          2    1    3    3  502    0 -0.28215029127E+02 -0.74281571157E+02  0.15910788593E+03  0.17784588566E+03  0.00000000000E+00 0. -1.
         -1    1    3    3    0  502 -0.17002138023E+03 -0.21594182361E+03  0.30604407824E+03  0.41134063590E+03  0.00000000000E+00 0.  1.
         11    1    5    5    0    0  0.39078647816E+02 -0.11588717826E+03 -0.36816956599E+03  0.38795078054E+03  0.00000000000E+00 0.  1.
        -11    1    5    5    0    0  0.60796318842E+02 -0.20513920779E+03 -0.34964125535E+03  0.40991132505E+03  0.00000000000E+00 0. -1.
          2    1    6    6  503    0  0.85125596440E+02  0.47454169077E+03 -0.90757108528E+03  0.10276777016E+04  0.00000000000E+00 0. -1.
         -2    1    6    6    0  503  0.13235846263E+02  0.13670809005E+03 -0.17326902548E+03  0.22110279216E+03  0.00000000000E+00 0.  1.
<mgrwt>
<rscale>  0 0.22736261E+04</rscale>
<asrwt>0</asrwt>
<pdfrwt beam="1">  1        2 0.30533293E+00 0.22736261E+04</pdfrwt>
<pdfrwt beam="2">  1       -1 0.10017924E+00 0.22736261E+04</pdfrwt>
<totfact> 0.66878877E+00</totfact>
</mgrwt>
</event>
<event>
12    6  0.9491186E-008  0.2172894E+04  0.7818608E-02  0.8529796E-01
          2   -1    0    0  501    0  0.00000000000E+00  0.00000000000E+00  0.19035825045E+04  0.19035825045E+04  0.00000000000E+00 0. -1.
         -1   -1    0    0    0  501 -0.00000000000E+00 -0.00000000000E+00 -0.62007639610E+03  0.62007639610E+03  0.00000000000E+00 0.  1.
         24    2    1    2    0    0 -0.86164974936E+03  0.20519522420E+03  0.39025119201E+03  0.97044785130E+03  0.70197354836E+02 0.  0.
        254    2    1    2    0    0  0.86164974936E+03 -0.20519522420E+03  0.89325491635E+03  0.15532110493E+04  0.91105150643E+03 0.  0.
         23    2    4    4    0    0  0.90430625831E+03 -0.42770332616E+03  0.59648001935E+03  0.11683789712E+04  0.92849678428E+02 0.  0.
         23    2    4    4    0    0 -0.42656508952E+02  0.22250810196E+03  0.29677489700E+03  0.38483207808E+03  0.93225295054E+02 0.  0.
          4    1    3    3  502    0 -0.76529846024E+03  0.17514472630E+03  0.36820061368E+03  0.86713845509E+03  0.00000000000E+00 0. -1.
         -3    1    3    3    0  502 -0.96351289123E+02  0.30050497909E+02  0.22050578329E+02  0.10330939621E+03  0.00000000000E+00 0.  1.
         11    1    5    5    0    0  0.13648406140E+02  0.43794283652E+01  0.12585610578E+02  0.19075009216E+02  0.00000000000E+00 0. -1.
        -11    1    5    5    0    0  0.89065785217E+03 -0.43208275453E+03  0.58389440877E+03  0.11493039620E+04  0.00000000000E+00 0.  1.
          1    1    6    6  503    0  0.40110236645E+01 -0.47536243904E+01  0.32842412607E+02  0.33426177189E+02  0.00000000000E+00 0. -1.
         -1    1    6    6    0  503 -0.46667532616E+02  0.22726172635E+03  0.26393248439E+03  0.35140590089E+03  0.00000000000E+00 0.  1.
<mgrwt>
<rscale>  0 0.21728935E+04</rscale>
<asrwt>0</asrwt>
<pdfrwt beam="1">  1        2 0.29285884E+00 0.21728935E+04</pdfrwt>
<pdfrwt beam="2">  1       -1 0.95396370E-01 0.21728935E+04</pdfrwt>
<totfact> 0.83614213E+00</totfact>
</mgrwt>
</event>
<event>
12    6  0.9491186E-008  0.1689221E+04  0.7818608E-02  0.8767536E-01
          2   -1    0    0  501    0  0.00000000000E+00  0.00000000000E+00  0.33112177852E+04  0.33112177852E+04  0.00000000000E+00 0. -1.
         -1   -1    0    0    0  501 -0.00000000000E+00 -0.00000000000E+00 -0.21543956332E+03  0.21543956332E+03  0.00000000000E+00 0.  1.
         24    2    1    2    0    0 -0.20032876110E+03 -0.52773619525E+03  0.67942722107E+03  0.88699740650E+03  0.80659445254E+02 0.  0.
        254    2    1    2    0    0  0.20032876110E+03  0.52773619525E+03  0.24163510009E+04  0.26396599421E+04  0.90023071826E+03 0.  0.
         23    2    4    4    0    0  0.24977620414E+03  0.75038350135E+03  0.20435837330E+04  0.21931926656E+04  0.91629926552E+02 0.  0.
         23    2    4    4    0    0 -0.49447443045E+02 -0.22264730611E+03  0.37276726790E+03  0.44646727649E+03  0.91436975137E+02 0.  0.
          4    1    3    3  502    0 -0.16882059687E+03 -0.47337575116E+03  0.56292516311E+03  0.75463218523E+03  0.00000000000E+00 0. -1.
         -3    1    3    3    0  502 -0.31508164231E+02 -0.54360444086E+02  0.11650205796E+03  0.13236522127E+03  0.00000000000E+00 0.  1.
         11    1    5    5    0    0  0.20575835985E+03  0.49638772906E+03  0.14322930174E+04  0.15297714104E+04  0.00000000000E+00 0.  1.
        -11    1    5    5    0    0  0.44017844290E+02  0.25399577229E+03  0.61129071553E+03  0.66342125520E+03  0.00000000000E+00 0. -1.
          2    1    6    6  503    0  0.10721277479E+02 -0.14394061108E+03  0.19039354319E+03  0.23892163275E+03  0.00000000000E+00 0. -1.
         -2    1    6    6    0  503 -0.60168720525E+02 -0.78706695029E+02  0.18237372471E+03  0.20754564374E+03  0.00000000000E+00 0.  1.
<mgrwt>
<rscale>  0 0.16892215E+04</rscale>
<asrwt>0</asrwt>
<pdfrwt beam="1">  1        2 0.50941808E+00 0.16892215E+04</pdfrwt>
<pdfrwt beam="2">  1       -1 0.33144551E-01 0.16892215E+04</pdfrwt>
<totfact> 0.10235098E+01</totfact>
</mgrwt>
</event>
<event>
12    6  0.9491186E-008  0.2098076E+04  0.7818608E-02  0.8562091E-01
          2   -1    0    0  501    0  0.00000000000E+00  0.00000000000E+00  0.15372716371E+04  0.15372716371E+04  0.00000000000E+00 0. -1.
         -1   -1    0    0    0  501 -0.00000000000E+00 -0.00000000000E+00 -0.71586604273E+03  0.71586604273E+03  0.00000000000E+00 0.  1.
         24    2    1    2    0    0  0.14528020231E+03  0.16087612795E+03 -0.54913643968E+03  0.59705405360E+03  0.89080007891E+02 0.  0.
        254    2    1    2    0    0 -0.14528020231E+03 -0.16087612795E+03  0.13705420341E+04  0.16560836262E+04  0.90401329870E+03 0.  0.
         23    2    4    4    0    0 -0.27718099052E+03 -0.10377076385E+03  0.14362823072E+04  0.14689890272E+04  0.86163932084E+02 0.  0.
         23    2    4    4    0    0  0.13190078821E+03 -0.57105364100E+02 -0.65740273121E+02  0.18709459903E+03  0.10011875418E+03 0.  0.
          4    1    3    3  502    0  0.40778055930E+00 -0.10665230390E+00 -0.83665990590E+02  0.83667052303E+02  0.00000000000E+00 0. -1.
         -3    1    3    3    0  502  0.14487242175E+03  0.16098278025E+03 -0.46547044909E+03  0.51338700130E+03  0.00000000000E+00 0.  1.
         11    1    5    5    0    0 -0.19520561310E+03 -0.11151908057E+03  0.99388641230E+03  0.10189955531E+04  0.00000000000E+00 0. -1.
        -11    1    5    5    0    0 -0.81975377423E+02  0.77483167161E+01  0.44239589488E+03  0.44999347408E+03  0.00000000000E+00 0.  1.
          4    1    6    6  503    0  0.11667108084E+03 -0.35251639166E+01 -0.28699941837E+02  0.12020089245E+03  0.00000000000E+00 0. -1.
         -4    1    6    6    0  503  0.15229707366E+02 -0.53580200183E+02 -0.37040331284E+02  0.66893706578E+02  0.00000000000E+00 0.  1.
<mgrwt>
<rscale>  0 0.20980758E+04</rscale>
<asrwt>0</asrwt>
<pdfrwt beam="1">  1        2 0.23650333E+00 0.20980758E+04</pdfrwt>
<pdfrwt beam="2">  1       -1 0.11013324E+00 0.20980758E+04</pdfrwt>
<totfact> 0.96637862E+00</totfact>
</mgrwt>
</event>
<event>
12    6  0.9491186E-008  0.2276450E+04  0.7818608E-02  0.8487265E-01
         -1   -1    0    0    0  501 -0.00000000000E+00  0.00000000000E+00  0.10606718015E+04  0.10606718015E+04  0.00000000000E+00 0.  1.
          2   -1    0    0  501    0  0.00000000000E+00 -0.00000000000E+00 -0.12214486851E+04  0.12214486851E+04  0.00000000000E+00 0. -1.
         24    2    1    2    0    0  0.92639617969E+03  0.23437941514E+03 -0.14450432942E+01  0.95880762241E+03  0.78526280037E+02 0.  0.
        254    2    1    2    0    0 -0.92639617969E+03 -0.23437941514E+03 -0.15933184035E+03  0.13233128641E+04  0.90145810167E+03 0.  0.
         23    2    4    4    0    0  0.10269400572E+03 -0.19545224259E+03 -0.16871249411E+03  0.28937976529E+03  0.80802877111E+02 0.  0.
         23    2    4    4    0    0 -0.10290901854E+04 -0.38927172554E+02  0.93806537601E+01  0.10339330988E+04  0.91584506131E+02 0.  0.
          2    1    3    3  502    0  0.20201775491E+03  0.29785370061E+02  0.24352634254E+02  0.20564871106E+03  0.00000000000E+00 0. -1.
         -1    1    3    3    0  502  0.72437842479E+03  0.20459404508E+03 -0.25797677548E+02  0.75315891135E+03  0.00000000000E+00 0.  1.
         11    1    5    5    0    0  0.90598609617E+02 -0.86126056946E+02 -0.85251002596E+02  0.15130611089E+03  0.00000000000E+00 0. -1.
        -11    1    5    5    0    0  0.12095396099E+02 -0.10932618565E+03 -0.83461491512E+02  0.13807365440E+03  0.00000000000E+00 0.  1.
          4    1    6    6  503    0 -0.34193935495E+03 -0.56164485463E+02  0.41743107509E+01  0.34654638472E+03  0.00000000000E+00 0. -1.
         -4    1    6    6    0  503 -0.68715083046E+03  0.17237312909E+02  0.52063430092E+01  0.68738671413E+03  0.00000000000E+00 0.  1.
<mgrwt>
<rscale>  0 0.22764500E+04</rscale>
<asrwt>0</asrwt>
<pdfrwt beam="1">  1        2 0.18791518E+00 0.22764500E+04</pdfrwt>
<pdfrwt beam="2">  1       -1 0.16318028E+00 0.22764500E+04</pdfrwt>
<totfact> 0.52658253E+00</totfact>
</mgrwt>
</event>
<event>
12    6  0.9491186E-008  0.1339350E+04  0.7818608E-02  0.8998929E-01
          2   -1    0    0  501    0  0.00000000000E+00  0.00000000000E+00  0.31379160864E+04  0.31379160864E+04  0.00000000000E+00 0. -1.
         -1   -1    0    0    0  501 -0.00000000000E+00 -0.00000000000E+00 -0.14291794279E+03  0.14291794279E+03  0.00000000000E+00 0.  1.
         24    2    1    2    0    0 -0.76091342432E-01 -0.25096059453E+03  0.18905566269E+03  0.32382354515E+03  0.78348063201E+02 0.  0.
        254    2    1    2    0    0  0.76091342433E-01  0.25096059453E+03  0.28059424809E+04  0.29570104840E+04  0.89867489706E+03 0.  0.
         23    2    4    4    0    0 -0.32445338140E+03 -0.17314206165E+03  0.13999477075E+04  0.14502197843E+04  0.89641891203E+02 0.  0.
         23    2    4    4    0    0  0.32452947274E+03  0.42410265617E+03  0.14059947734E+04  0.15067906997E+04  0.91730411601E+02 0.  0.
          4    1    3    3  502    0  0.89626102379E+01  0.43550127901E+00  0.16463917526E+02  0.18750429967E+02  0.00000000000E+00 0. -1.
         -3    1    3    3    0  502 -0.90387015803E+01 -0.25139609580E+03  0.17259174516E+03  0.30507311519E+03  0.00000000000E+00 0.  1.
         11    1    5    5    0    0 -0.52781099381E+02 -0.12628014586E+02  0.11603425851E+03  0.12809863525E+03  0.00000000000E+00 0. -1.
        -11    1    5    5    0    0 -0.27167228202E+03 -0.16051404706E+03  0.12839134490E+04  0.13221211490E+04  0.00000000000E+00 0.  1.
          1    1    6    6  503    0  0.34712612854E+02  0.43786748685E+02  0.24289862310E+03  0.24924282528E+03  0.00000000000E+00 0. -1.
         -1    1    6    6    0  503  0.28981685989E+03  0.38031590749E+03  0.11630961503E+04  0.12575478745E+04  0.00000000000E+00 0.  1.
<mgrwt>
<rscale>  0 0.13393499E+04</rscale>
<asrwt>0</asrwt>
<pdfrwt beam="1">  1        2 0.48275627E+00 0.13393499E+04</pdfrwt>
<pdfrwt beam="2">  1       -1 0.21987378E-01 0.13393499E+04</pdfrwt>
<totfact> 0.27970115E+01</totfact>
</mgrwt>
</event>
<event>
12    6  0.9491186E-008  0.1651207E+04  0.7818608E-02  0.8789693E-01
          2   -1    0    0  501    0  0.00000000000E+00  0.00000000000E+00  0.20196218752E+04  0.20196218752E+04  0.00000000000E+00 0. -1.
         -1   -1    0    0    0  501 -0.00000000000E+00 -0.00000000000E+00 -0.33749943188E+03  0.33749943188E+03  0.00000000000E+00 0.  1.
         24    2    1    2    0    0  0.35151715560E+03 -0.21743978778E+03  0.13788512674E+04  0.14415143019E+04  0.76735213585E+02 0.  0.
        254    2    1    2    0    0 -0.35151715560E+03  0.21743978778E+03  0.30327117584E+03  0.91560700508E+03  0.75862929661E+03 0.  0.
         23    2    4    4    0    0 -0.57189366155E+03  0.22630292573E+03  0.25203897947E+03  0.67130746568E+03  0.94099372978E+02 0.  0.
         23    2    4    4    0    0  0.22037650595E+03 -0.88631379597E+01  0.51232196370E+02  0.24429953940E+03  0.91723319919E+02 0.  0.
          2    1    3    3  502    0  0.22891591582E+03 -0.10502326119E+03  0.75684844479E+03  0.79765402919E+03  0.00000000000E+00 0. -1.
         -3    1    3    3    0  502  0.12260123978E+03 -0.11241652658E+03  0.62200282265E+03  0.64386027276E+03  0.00000000000E+00 0.  1.
         11    1    5    5    0    0 -0.27873568888E+03  0.12284284280E+03  0.75586694605E+02  0.31384278976E+03  0.00000000000E+00 0. -1.
        -11    1    5    5    0    0 -0.29315797267E+03  0.10346008294E+03  0.17645228486E+03  0.35746467593E+03  0.00000000000E+00 0.  1.
          3    1    6    6  503    0  0.43567614203E+02  0.13718127134E+02  0.47667216967E+02  0.66018842710E+02  0.00000000000E+00 0. -1.
         -3    1    6    6    0  503  0.17680889175E+03 -0.22581265094E+02  0.35649794025E+01  0.17828069669E+03  0.00000000000E+00 0.  1.
<mgrwt>
<rscale>  0 0.16512071E+04</rscale>
<asrwt>0</asrwt>
<pdfrwt beam="1">  1        2 0.31071105E+00 0.16512071E+04</pdfrwt>
<pdfrwt beam="2">  1       -1 0.51922991E-01 0.16512071E+04</pdfrwt>
<totfact> 0.26473364E+01</totfact>
</mgrwt>
</event>
<event>
12    6  0.9491186E-008  0.2663091E+04  0.7818608E-02  0.8347081E-01
         -1   -1    0    0    0  501 -0.00000000000E+00  0.00000000000E+00  0.74469137595E+03  0.74469137595E+03  0.00000000000E+00 0.  1.
          2   -1    0    0  501    0  0.00000000000E+00 -0.00000000000E+00 -0.23808699856E+04  0.23808699856E+04  0.00000000000E+00 0. -1.
         24    2    1    2    0    0  0.11346290645E+03 -0.28202896587E+03  0.61153650903E+03  0.68769167466E+03  0.80800796986E+02 0.  0.
        254    2    1    2    0    0 -0.11346290645E+03  0.28202896587E+03 -0.22477151186E+04  0.24378696868E+04  0.89362810314E+03 0.  0.
         23    2    4    4    0    0 -0.44884678702E+03  0.31372381163E+03 -0.10172020575E+04  0.11587896546E+04  0.90594534475E+02 0.  0.
         23    2    4    4    0    0  0.33538388057E+03 -0.31694845764E+02 -0.12305130612E+04  0.12790800323E+04  0.91632006349E+02 0.  0.
          2    1    3    3  502    0  0.87162200714E+02 -0.19554076160E+03  0.34281802810E+03  0.40417525786E+03  0.00000000000E+00 0. -1.
         -1    1    3    3    0  502  0.26300705736E+02 -0.86488204270E+02  0.26871848093E+03  0.28351641680E+03  0.00000000000E+00 0.  1.
         11    1    5    5    0    0 -0.40362250612E+03  0.24560828608E+03 -0.88848359193E+03  0.10062989868E+04  0.00000000000E+00 0.  1.
        -11    1    5    5    0    0 -0.45224280891E+02  0.68115525552E+02 -0.12871846553E+03  0.15249066782E+03  0.00000000000E+00 0. -1.
          3    1    6    6  503    0  0.70045428694E+01 -0.17613519012E+02 -0.98897603017E+02  0.10069774355E+03  0.00000000000E+00 0. -1.
         -3    1    6    6    0  503  0.32837933770E+03 -0.14081326752E+02 -0.11316154582E+04  0.11783822887E+04  0.00000000000E+00 0.  1.
<mgrwt>
<rscale>  0 0.26630909E+04</rscale>
<asrwt>0</asrwt>
<pdfrwt beam="1">  1        2 0.36628769E+00 0.26630909E+04</pdfrwt>
<pdfrwt beam="2">  1       -1 0.11456791E+00 0.26630909E+04</pdfrwt>
<totfact> 0.28252522E+00</totfact>
</mgrwt>
</event>
<event>
12    6  0.1083897E-007  0.1819813E+04  0.7818608E-02  0.8695834E-01
         -1   -1    0    0    0  501 -0.00000000000E+00  0.00000000000E+00  0.67312682216E+03  0.67312682216E+03  0.00000000000E+00 0.  1.
          2   -1    0    0  501    0  0.00000000000E+00 -0.00000000000E+00 -0.12299760037E+04  0.12299760037E+04  0.00000000000E+00 0. -1.
         24    2    1    2    0    0 -0.23496033223E+03 -0.35709481619E+03 -0.77421130979E+03  0.88787205159E+03  0.78680126501E+02 0.  0.
        254    2    1    2    0    0  0.23496033223E+03  0.35709481619E+03  0.21736212825E+03  0.10152307743E+04  0.89483191984E+03 0.  0.
         23    2    4    4    0    0  0.44362364391E+03 -0.99437799991E+02  0.19885710241E+03  0.50459173762E+03  0.91536118495E+02 0.  0.
         23    2    4    4    0    0 -0.20866331168E+03  0.45653261618E+03  0.18505025838E+02  0.51063903665E+03  0.91909643102E+02 0.  0.
          2    1    3    3  502    0 -0.21810565892E+03 -0.29588391544E+03 -0.61514781794E+03  0.71660603387E+03  0.00000000000E+00 0. -1.
         -1    1    3    3    0  502 -0.16854673315E+02 -0.61210900753E+02 -0.15906349185E+03  0.17126601771E+03  0.00000000000E+00 0.  1.
         11    1    5    5    0    0  0.44187204302E+02 -0.84308694804E+01  0.53493474164E+02  0.69893779139E+02  0.00000000000E+00 0. -1.
        -11    1    5    5    0    0  0.39943643961E+03 -0.91006930511E+02  0.14536362825E+03  0.43469795848E+03  0.00000000000E+00 0.  1.
          3    1    6    6  503    0  0.70196863527E+01  0.41413839806E+02  0.77220633658E+01  0.42708458022E+02  0.00000000000E+00 0. -1.
         -3    1    6    6    0  503 -0.21568299803E+03  0.41511877638E+03  0.10782962472E+02  0.46793057863E+03  0.00000000000E+00 0.  1.
<mgrwt>
<rscale>  0 0.18198130E+04</rscale>
<asrwt>0</asrwt>
<pdfrwt beam="1">  1        2 0.18922708E+00 0.18198130E+04</pdfrwt>
<pdfrwt beam="2">  1       -1 0.10355797E+00 0.18198130E+04</pdfrwt>
<totfact> 0.17177021E+01</totfact>
</mgrwt>
</event>
<event>
12    6  0.9491186E-008  0.2029877E+04  0.7818608E-02  0.8592778E-01
         -1   -1    0    0    0  501 -0.00000000000E+00  0.00000000000E+00  0.93413447860E+03  0.93413447860E+03  0.00000000000E+00 0.  1.
          2   -1    0    0  501    0  0.00000000000E+00 -0.00000000000E+00 -0.11027323359E+04  0.11027323359E+04  0.00000000000E+00 0. -1.
         24    2    1    2    0    0 -0.51457886924E+03 -0.53891802373E+03 -0.38716993421E+03  0.84343123461E+03  0.79067316808E+02 0.  0.
        254    2    1    2    0    0  0.51457886924E+03  0.53891802373E+03  0.21857207687E+03  0.11934355799E+04  0.90625089335E+03 0.  0.
         23    2    4    4    0    0  0.15593803072E+03  0.49779039405E+03 -0.25789930619E+03  0.58872558735E+03  0.89296244229E+02 0.  0.
         23    2    4    4    0    0  0.35864083852E+03  0.41127629678E+02  0.47647138306E+03  0.60470999258E+03  0.91293281665E+02 0.  0.
          2    1    3    3  502    0 -0.51108764092E+03 -0.53806913713E+03 -0.37646359599E+03  0.83213809680E+03  0.00000000000E+00 0. -1.
         -3    1    3    3    0  502 -0.34912283164E+01 -0.84888660163E+00 -0.10706338213E+02  0.11293137808E+02  0.00000000000E+00 0.  1.
         11    1    5    5    0    0  0.16631426303E+03  0.47793666053E+03 -0.25311384027E+03  0.56581843528E+03  0.00000000000E+00 0.  1.
        -11    1    5    5    0    0 -0.10376232317E+02  0.19853733519E+02 -0.47854659177E+01  0.22907152066E+02  0.00000000000E+00 0. -1.
          2    1    6    6  503    0  0.33715163934E+03  0.20852828824E+02  0.40505341521E+03  0.52742235216E+03  0.00000000000E+00 0.  1.
         -2    1    6    6    0  503  0.21489199180E+02  0.20274800854E+02  0.71417967847E+02  0.77287640425E+02  0.00000000000E+00 0. -1.
<mgrwt>
<rscale>  0 0.20298771E+04</rscale>
<asrwt>0</asrwt>
<pdfrwt beam="1">  1        2 0.16965113E+00 0.20298771E+04</pdfrwt>
<pdfrwt beam="2">  1       -1 0.14371300E+00 0.20298771E+04</pdfrwt>
<totfact> 0.89744539E+00</totfact>
</mgrwt>
</event>
<event>
12    6  0.9491186E-008  0.1560119E+04  0.7818608E-02  0.8845430E-01
          2   -1    0    0  501    0  0.00000000000E+00  0.00000000000E+00  0.12495903773E+04  0.12495903773E+04  0.00000000000E+00 0. -1.
         -1   -1    0    0    0  501 -0.00000000000E+00 -0.00000000000E+00 -0.48695386878E+03  0.48695386878E+03  0.00000000000E+00 0.  1.
         24    2    1    2    0    0  0.35087223325E+03  0.29081296142E-01  0.67132291265E+03  0.76187345307E+03  0.81641781766E+02 0.  0.
        254    2    1    2    0    0 -0.35087223325E+03 -0.29081296142E-01  0.91313595897E+02  0.97467079304E+03  0.90472849911E+03 0.  0.
         23    2    4    4    0    0 -0.46355447681E+03  0.34985342153E+03  0.15898477823E+02  0.58801731273E+03  0.90727222743E+02 0.  0.
         23    2    4    4    0    0  0.11268224356E+03 -0.34988250283E+03  0.75415118075E+02  0.38665348031E+03  0.93265320485E+02 0.  0.
          4    1    3    3  502    0  0.25284274530E+03  0.12854814307E+02  0.54923329507E+03  0.60477426575E+03  0.00000000000E+00 0. -1.
         -3    1    3    3    0  502  0.98029487949E+02 -0.12825733011E+02  0.12208961758E+03  0.15709918732E+03  0.00000000000E+00 0.  1.
         11    1    5    5    0    0 -0.15416195913E+03  0.65194482255E+02  0.46885160766E+01  0.16744614759E+03  0.00000000000E+00 0.  1.
        -11    1    5    5    0    0 -0.30939251767E+03  0.28465893928E+03  0.11209961746E+02  0.42057116514E+03  0.00000000000E+00 0. -1.
          3    1    6    6  503    0 -0.10748568489E+02 -0.98813162589E+02  0.22848458096E+02  0.10198835651E+03  0.00000000000E+00 0. -1.
         -3    1    6    6    0  503  0.12343081205E+03 -0.25106934024E+03  0.52566659979E+02  0.28466512381E+03  0.00000000000E+00 0.  1.
<mgrwt>
<rscale>  0 0.15601191E+04</rscale>
<asrwt>0</asrwt>
<pdfrwt beam="1">  1        2 0.19224467E+00 0.15601191E+04</pdfrwt>
<pdfrwt beam="2">  1       -1 0.74915980E-01 0.15601191E+04</pdfrwt>
<totfact> 0.34782701E+01</totfact>
</mgrwt>
</event>
<event>
12    6  0.9491186E-008  0.1169177E+04  0.7818608E-02  0.9140272E-01
          2   -1    0    0  501    0  0.00000000000E+00  0.00000000000E+00  0.13555405292E+04  0.13555405292E+04  0.00000000000E+00 0. -1.
         -1   -1    0    0    0  501 -0.00000000000E+00 -0.00000000000E+00 -0.25210876339E+03  0.25210876339E+03  0.00000000000E+00 0.  1.
         24    2    1    2    0    0  0.93848546659E+02 -0.19178172280E+03  0.33515111805E+03  0.40566289127E+03  0.81537295257E+02 0.  0.
        254    2    1    2    0    0 -0.93848546659E+02  0.19178172280E+03  0.76828064773E+03  0.12019864013E+04  0.89940445647E+03 0.  0.
         23    2    4    4    0    0  0.28390333212E+03  0.25235065382E+03  0.64606391705E+02  0.39611362730E+03  0.91924237341E+02 0.  0.
         23    2    4    4    0    0 -0.37775187878E+03 -0.60568931022E+02  0.70367425603E+03  0.80587277400E+03  0.88929140040E+02 0.  0.
          4    1    3    3  502    0  0.97196948598E+02 -0.17335055346E+03  0.33160110273E+03  0.38659662768E+03  0.00000000000E+00 0. -1.
         -1    1    3    3    0  502 -0.33484019390E+01 -0.18431169335E+02  0.35500153176E+01  0.19066263591E+02  0.00000000000E+00 0.  1.
         11    1    5    5    0    0  0.21285285384E+03  0.19021256783E+03  0.88284680908E+02  0.29879983807E+03  0.00000000000E+00 0.  1.
        -11    1    5    5    0    0  0.71050478278E+02  0.62138085987E+02 -0.23678289203E+02  0.97313789224E+02  0.00000000000E+00 0. -1.
          1    1    6    6  503    0 -0.16067077240E+03 -0.91946005027E+01  0.38099773228E+03  0.41359268585E+03  0.00000000000E+00 0. -1.
         -1    1    6    6    0  503 -0.21708110638E+03 -0.51374330519E+02  0.32267652375E+03  0.39228008815E+03  0.00000000000E+00 0.  1.
<mgrwt>
<rscale>  0 0.11691769E+04</rscale>
<asrwt>0</asrwt>
<pdfrwt beam="1">  1        2 0.20854469E+00 0.11691769E+04</pdfrwt>
<pdfrwt beam="2">  1       -1 0.38785964E-01 0.11691769E+04</pdfrwt>
<totfact> 0.11136657E+02</totfact>
</mgrwt>
</event>
<event>
12    6  0.9491186E-008  0.2040001E+04  0.7818608E-02  0.8588144E-01
         -1   -1    0    0    0  501 -0.00000000000E+00  0.00000000000E+00  0.16048310552E+04  0.16048310552E+04  0.00000000000E+00 0.  1.
          2   -1    0    0  501    0  0.00000000000E+00 -0.00000000000E+00 -0.64829288317E+03  0.64829288317E+03  0.00000000000E+00 0. -1.
         24    2    1    2    0    0 -0.40032651649E+03  0.71259061624E+03  0.29360675721E+03  0.87218791052E+03  0.80374854382E+02 0.  0.
        254    2    1    2    0    0  0.40032651649E+03 -0.71259061624E+03  0.66293141485E+03  0.13809360279E+04  0.89412501705E+03 0.  0.
         23    2    4    4    0    0 -0.20829979363E+03  0.45960529931E+02  0.11505484473E+03  0.25998071652E+03  0.94080717092E+02 0.  0.
         23    2    4    4    0    0  0.60862631012E+03 -0.75855114617E+03  0.54787657012E+03  0.11209553113E+04  0.10269492308E+03 0.  0.
          4    1    3    3  502    0 -0.22558822630E+03  0.42253471940E+03  0.13117136585E+03  0.49662014071E+03  0.00000000000E+00 0. -1.
         -3    1    3    3    0  502 -0.17473829018E+03  0.29005589685E+03  0.16243539136E+03  0.37556776980E+03  0.00000000000E+00 0.  1.
         11    1    5    5    0    0 -0.21840293792E+03  0.43510938197E+02  0.11095956829E+03  0.24880729657E+03  0.00000000000E+00 0.  1.
        -11    1    5    5    0    0  0.10103144287E+02  0.24495917340E+01  0.40952764364E+01  0.11173419944E+02  0.00000000000E+00 0. -1.
          1    1    6    6  503    0  0.16690040677E+03 -0.14303028247E+03  0.10810491475E+03  0.24494913773E+03  0.00000000000E+00 0. -1.
         -1    1    6    6    0  503  0.44172590334E+03 -0.61552086371E+03  0.43977165537E+03  0.87600617361E+03  0.00000000000E+00 0.  1.
<mgrwt>
<rscale>  0 0.20400005E+04</rscale>
<asrwt>0</asrwt>
<pdfrwt beam="1">  1        2 0.99737368E-01 0.20400005E+04</pdfrwt>
<pdfrwt beam="2">  1       -1 0.24689708E+00 0.20400005E+04</pdfrwt>
<totfact> 0.34841371E+00</totfact>
</mgrwt>
</event>
<event>
12    6  0.9491186E-008  0.2176338E+04  0.7818608E-02  0.8528342E-01
         -1   -1    0    0    0  501 -0.00000000000E+00  0.00000000000E+00  0.13582041916E+04  0.13582041916E+04  0.00000000000E+00 0.  1.
          2   -1    0    0  501    0  0.00000000000E+00 -0.00000000000E+00 -0.87182159580E+03  0.87182159580E+03  0.00000000000E+00 0. -1.
         24    2    1    2    0    0 -0.59555966816E+01 -0.23058484080E+03  0.10925937071E+04  0.11195933024E+04  0.80767048472E+02 0.  0.
        254    2    1    2    0    0  0.59555966816E+01  0.23058484080E+03 -0.60621111127E+03  0.11104324850E+04  0.90131212926E+03 0.  0.
         23    2    4    4    0    0 -0.89382362115E+01  0.17018525404E+03 -0.83465631102E+03  0.85645487576E+03  0.88435761630E+02 0.  0.
         23    2    4    4    0    0  0.14893832893E+02  0.60399586764E+02  0.22844519975E+03  0.25397760923E+03  0.91910175523E+02 0.  0.
          4    1    3    3  502    0  0.21370172101E+02 -0.21644298728E+02  0.21012440263E+03  0.21231444724E+03  0.00000000000E+00 0. -1.
         -3    1    3    3    0  502 -0.27325768782E+02 -0.20894054207E+03  0.88246930442E+03  0.90727885516E+03  0.00000000000E+00 0.  1.
         11    1    5    5    0    0  0.18555009135E+02  0.10756171991E+03 -0.65855007812E+03  0.66753428177E+03  0.00000000000E+00 0. -1.
        -11    1    5    5    0    0 -0.27493245347E+02  0.62623534129E+02 -0.17610623290E+03  0.18892059399E+03  0.00000000000E+00 0.  1.
          3    1    6    6  503    0 -0.45873710008E+01 -0.14533076247E+02  0.11867744991E+03  0.11965195943E+03  0.00000000000E+00 0. -1.
         -3    1    6    6    0  503  0.19481203894E+02  0.74932663011E+02  0.10976774984E+03  0.13432564980E+03  0.00000000000E+00 0.  1.
<mgrwt>
<rscale>  0 0.21763380E+04</rscale>
<asrwt>0</asrwt>
<pdfrwt beam="1">  1        2 0.13412640E+00 0.21763380E+04</pdfrwt>
<pdfrwt beam="2">  1       -1 0.20895449E+00 0.21763380E+04</pdfrwt>
<totfact> 0.41844695E+00</totfact>
</mgrwt>
</event>
<event>
12    6  0.9491186E-008  0.1469086E+04  0.7818608E-02  0.8905275E-01
         -1   -1    0    0    0  501 -0.00000000000E+00  0.00000000000E+00  0.36790602002E+03  0.36790602002E+03  0.00000000000E+00 0.  1.
          2   -1    0    0  501    0  0.00000000000E+00 -0.00000000000E+00 -0.14665513657E+04  0.14665513657E+04  0.00000000000E+00 0. -1.
         24    2    1    2    0    0  0.36896523668E+03 -0.22222140088E+03 -0.16684046404E+03  0.46860752195E+03  0.78990963399E+02 0.  0.
        254    2    1    2    0    0 -0.36896523668E+03  0.22222140088E+03 -0.93180488168E+03  0.13658498638E+04  0.90098158474E+03 0.  0.
         23    2    4    4    0    0 -0.30594437921E+03 -0.31538128629E+03 -0.41735349884E+03  0.61294881116E+03  0.91950982542E+02 0.  0.
         23    2    4    4    0    0 -0.63020857474E+02  0.53760268717E+03 -0.51445138283E+03  0.75290105265E+03  0.95976518186E+02 0.  0.
          2    1    3    3  502    0  0.10305616617E+03 -0.81125371257E+02 -0.86275685266E+02  0.15698851268E+03  0.00000000000E+00 0. -1.
         -1    1    3    3    0  502  0.26590907052E+03 -0.14109602963E+03 -0.80564778778E+02  0.31161900927E+03  0.00000000000E+00 0.  1.
         11    1    5    5    0    0 -0.28618148003E+03 -0.31502763826E+03 -0.41225918106E+03  0.59253682143E+03  0.00000000000E+00 0.  1.
        -11    1    5    5    0    0 -0.19762899182E+02 -0.35364802794E+00 -0.50943177825E+01  0.20411989729E+02  0.00000000000E+00 0. -1.
          4    1    6    6  503    0 -0.17405954239E+02  0.98430825311E+02 -0.48929036338E+02  0.11129081369E+03  0.00000000000E+00 0. -1.
         -4    1    6    6    0  503 -0.45614903235E+02  0.43917186186E+03 -0.46552234650E+03  0.64161023896E+03  0.00000000000E+00 0.  1.
<mgrwt>
<rscale>  0 0.14690855E+04</rscale>
<asrwt>0</asrwt>
<pdfrwt beam="1">  1        2 0.22562328E+00 0.14690855E+04</pdfrwt>
<pdfrwt beam="2">  1       -1 0.56600927E-01 0.14690855E+04</pdfrwt>
<totfact> 0.46227645E+01</totfact>
</mgrwt>
</event>
<event>
12    6  0.9491186E-008  0.1760585E+04  0.7818608E-02  0.8727545E-01
          2   -1    0    0  501    0  0.00000000000E+00  0.00000000000E+00  0.14300226315E+04  0.14300226315E+04  0.00000000000E+00 0. -1.
         -1   -1    0    0    0  501 -0.00000000000E+00 -0.00000000000E+00 -0.54188983311E+03  0.54188983311E+03  0.00000000000E+00 0.  1.
         24    2    1    2    0    0  0.36662329822E+03 -0.52371849620E+03  0.47253675577E+03  0.79896150199E+03  0.79716937013E+02 0.  0.
        254    2    1    2    0    0 -0.36662329822E+03  0.52371849620E+03  0.41559604259E+03  0.11729509626E+04  0.89129130140E+03 0.  0.
         23    2    4    4    0    0 -0.33156665245E+03 -0.15378872847E+03  0.85989933734E+01  0.37683029056E+03  0.91321997201E+02 0.  0.
         23    2    4    4    0    0 -0.35056645764E+02  0.67750722468E+03  0.40699704922E+03  0.79612067203E+03  0.88974819199E+02 0.  0.
          2    1    3    3  502    0  0.28554547656E+03 -0.45581985759E+03  0.38164493497E+03  0.65951559356E+03  0.00000000000E+00 0. -1.
         -1    1    3    3    0  502  0.81077821654E+02 -0.67898638611E+02  0.90891820794E+02  0.13944590843E+03  0.00000000000E+00 0.  1.
         11    1    5    5    0    0 -0.23480370965E+03 -0.72842282397E+02  0.33878081769E+02  0.24816628417E+03  0.00000000000E+00 0. -1.
        -11    1    5    5    0    0 -0.96762942797E+02 -0.80946446077E+02 -0.25279088395E+02  0.12866400639E+03  0.00000000000E+00 0.  1.
          1    1    6    6  503    0 -0.45315084554E+01  0.55775926983E+03  0.30395552972E+03  0.63522035680E+03  0.00000000000E+00 0. -1.
         -1    1    6    6    0  503 -0.30525137309E+02  0.11974795485E+03  0.10304151950E+03  0.16090031523E+03  0.00000000000E+00 0.  1.
<mgrwt>
<rscale>  0 0.17605848E+04</rscale>
<asrwt>0</asrwt>
<pdfrwt beam="1">  1        2 0.22000348E+00 0.17605848E+04</pdfrwt>
<pdfrwt beam="2">  1       -1 0.83367668E-01 0.17605848E+04</pdfrwt>
<totfact> 0.21435409E+01</totfact>
</mgrwt>
</event>
<event>
12    6  0.9491186E-008  0.2543173E+04  0.7818608E-02  0.8387764E-01
         -1   -1    0    0    0  501 -0.00000000000E+00  0.00000000000E+00  0.81573802327E+03  0.81573802327E+03  0.00000000000E+00 0.  1.
          2   -1    0    0  501    0  0.00000000000E+00 -0.00000000000E+00 -0.19821716091E+04  0.19821716091E+04  0.00000000000E+00 0. -1.
         24    2    1    2    0    0  0.85534349057E+03  0.42963999142E+03  0.11840654050E+03  0.96779917388E+03  0.80075733120E+02 0.  0.
        254    2    1    2    0    0 -0.85534349057E+03 -0.42963999142E+03 -0.12848401263E+04  0.18301104585E+04  0.88446997179E+03 0.  0.
         23    2    4    4    0    0 -0.87553043254E+03 -0.21316983221E+03 -0.55245432771E+03  0.10607174477E+04  0.88998899095E+02 0.  0.
         23    2    4    4    0    0  0.20186941971E+02 -0.21647015921E+03 -0.73238579863E+03  0.76939301078E+03  0.91158129328E+02 0.  0.
          4    1    3    3  502    0  0.75619085900E+03  0.38453124459E+03  0.13001953992E+03  0.85825053106E+03  0.00000000000E+00 0. -1.
         -3    1    3    3    0  502  0.99152631566E+02  0.45108746829E+02 -0.11612999418E+02  0.10954864281E+03  0.00000000000E+00 0.  1.
         11    1    5    5    0    0 -0.11464877208E+03 -0.56663060431E+01 -0.94849766074E+02  0.14890576244E+03  0.00000000000E+00 0. -1.
        -11    1    5    5    0    0 -0.76088166046E+03 -0.20750352617E+03 -0.45760456163E+03  0.91181168529E+03  0.00000000000E+00 0.  1.
          1    1    6    6  503    0 -0.77460037834E+01 -0.59884464653E+02 -0.95842266708E+02  0.11327793152E+03  0.00000000000E+00 0. -1.
         -1    1    6    6    0  503  0.27932945755E+02 -0.15658569456E+03 -0.63654353192E+03  0.65611507926E+03  0.00000000000E+00 0.  1.
<mgrwt>
<rscale>  0 0.25431734E+04</rscale>
<asrwt>0</asrwt>
<pdfrwt beam="1">  1        2 0.30494947E+00 0.25431734E+04</pdfrwt>
<pdfrwt beam="2">  1       -1 0.12549816E+00 0.25431734E+04</pdfrwt>
<totfact> 0.38300564E+00</totfact>
</mgrwt>
</event>
<event>
12    6  0.1434631E-007  0.2125317E+04  0.7818608E-02  0.8550172E-01
          2   -1    0    0  501    0  0.00000000000E+00  0.00000000000E+00  0.15632305925E+04  0.15632305925E+04  0.00000000000E+00 0. -1.
         -1   -1    0    0    0  501 -0.00000000000E+00 -0.00000000000E+00 -0.72237808433E+03  0.72237808433E+03  0.00000000000E+00 0.  1.
         24    2    1    2    0    0 -0.50026251015E+02  0.27415185725E+03  0.12381077957E+04  0.12715028080E+04  0.78400321423E+02 0.  0.
        254    2    1    2    0    0  0.50026251015E+02 -0.27415185725E+03 -0.39725528758E+03  0.10141058688E+04  0.89047014711E+03 0.  0.
         23    2    4    4    0    0  0.11742974981E+03 -0.39451595787E+03 -0.61151822810E+03  0.74293892159E+03  0.92580293627E+02 0.  0.
         23    2    4    4    0    0 -0.67403498791E+02  0.12036410062E+03  0.21426294052E+03  0.27116694716E+03  0.92693889685E+02 0.  0.
          2    1    3    3  502    0 -0.45113261500E+02  0.27769510810E+03  0.11797431664E+04  0.12128246856E+04  0.00000000000E+00 0. -1.
         -1    1    3    3    0  502 -0.49129895151E+01 -0.35432508484E+01  0.58364629357E+02  0.58678122435E+02  0.00000000000E+00 0.  1.
         11    1    5    5    0    0  0.11695680406E+03 -0.25215272459E+03 -0.43411025505E+03  0.51547221465E+03  0.00000000000E+00 0.  1.
        -11    1    5    5    0    0  0.47294574273E+00 -0.14236323327E+03 -0.17740797305E+03  0.22746670694E+03  0.00000000000E+00 0. -1.
          2    1    6    6  503    0  0.11489087080E+01  0.83668969900E+02  0.78613629874E+02  0.11481253990E+03  0.00000000000E+00 0. -1.
         -2    1    6    6    0  503 -0.68552407499E+02  0.36695130718E+02  0.13564931064E+03  0.15635440726E+03  0.00000000000E+00 0.  1.
<mgrwt>
<rscale>  0 0.21253174E+04</rscale>
<asrwt>0</asrwt>
<pdfrwt beam="1">  1        2 0.24049701E+00 0.21253174E+04</pdfrwt>
<pdfrwt beam="2">  1       -1 0.11113509E+00 0.21253174E+04</pdfrwt>
<totfact> 0.91247469E+00</totfact>
</mgrwt>
</event>
<event>
12    6  0.9491186E-008  0.1196880E+04  0.7818608E-02  0.9115591E-01
          2   -1    0    0  501    0  0.00000000000E+00  0.00000000000E+00  0.16788005011E+04  0.16788005011E+04  0.00000000000E+00 0. -1.
         -1   -1    0    0    0  501 -0.00000000000E+00 -0.00000000000E+00 -0.21332534701E+03  0.21332534701E+03  0.00000000000E+00 0.  1.
         24    2    1    2    0    0 -0.22622749860E+03 -0.30766568800E+02  0.43113975885E+03  0.49439220893E+03  0.80104317707E+02 0.  0.
        254    2    1    2    0    0  0.22622749860E+03  0.30766568800E+02  0.10343353953E+04  0.13977336392E+04  0.91196718877E+03 0.  0.
         23    2    4    4    0    0  0.56048514726E+03 -0.61287035950E+02  0.52960761101E+03  0.77892726031E+03  0.91344152197E+02 0.  0.
         23    2    4    4    0    0 -0.33425764866E+03  0.92053604750E+02  0.50472778428E+03  0.61880637891E+03  0.89270132343E+02 0.  0.
          4    1    3    3  502    0  0.67890929956E+01 -0.62653148671E+00  0.92911165694E+01  0.11524286204E+02  0.00000000000E+00 0. -1.
         -3    1    3    3    0  502 -0.23301659159E+03 -0.30140037313E+02  0.42184864228E+03  0.48286792273E+03  0.00000000000E+00 0.  1.
         11    1    5    5    0    0  0.24959863221E+03 -0.48224990876E+02  0.29376466457E+03  0.38848784421E+03  0.00000000000E+00 0.  1.
        -11    1    5    5    0    0  0.31088651505E+03 -0.13062045074E+02  0.23584294643E+03  0.39043941610E+03  0.00000000000E+00 0. -1.
          4    1    6    6  503    0 -0.13538642648E+03  0.48089779271E+02  0.28522255120E+03  0.31936501853E+03  0.00000000000E+00 0. -1.
         -4    1    6    6    0  503 -0.19887122218E+03  0.43963825479E+02  0.21950523307E+03  0.29944136039E+03  0.00000000000E+00 0.  1.
<mgrwt>
<rscale>  0 0.11968804E+04</rscale>
<asrwt>0</asrwt>
<pdfrwt beam="1">  1        2 0.25827699E+00 0.11968804E+04</pdfrwt>
<pdfrwt beam="2">  1       -1 0.32819285E-01 0.11968804E+04</pdfrwt>
<totfact> 0.98621318E+01</totfact>
</mgrwt>
</event>
<event>
12    6  0.1079286E-007  0.2408705E+04  0.7818608E-02  0.8436252E-01
         -1   -1    0    0    0  501 -0.00000000000E+00  0.00000000000E+00  0.72076162642E+03  0.72076162642E+03  0.00000000000E+00 0.  1.
          2   -1    0    0  501    0  0.00000000000E+00 -0.00000000000E+00 -0.20124055799E+04  0.20124055799E+04  0.00000000000E+00 0. -1.
         24    2    1    2    0    0  0.27879135345E+03 -0.20004402465E+03 -0.16571191755E+04  0.16941882914E+04  0.80546723265E+02 0.  0.
        254    2    1    2    0    0 -0.27879135345E+03  0.20004402465E+03  0.36547522193E+03  0.10389789149E+04  0.91003451432E+03 0.  0.
         23    2    4    4    0    0  0.19484251128E+03 -0.23679363649E+03  0.89564419650E+02  0.33232448737E+03  0.91558446663E+02 0.  0.
         23    2    4    4    0    0 -0.47363386474E+03  0.43683766114E+03  0.27591080228E+03  0.70665442755E+03  0.89875075241E+02 0.  0.
          4    1    3    3  502    0  0.19354541050E+03 -0.17571098070E+03 -0.11458144503E+04  0.11752552613E+04  0.00000000000E+00 0. -1.
         -3    1    3    3    0  502  0.85245942954E+02 -0.24333043951E+02 -0.51130472514E+03  0.51893303014E+03  0.00000000000E+00 0.  1.
         11    1    5    5    0    0  0.10170286699E+02 -0.50930838634E+01  0.27280627692E+02  0.29556841544E+02  0.00000000000E+00 0.  1.
        -11    1    5    5    0    0  0.18467222458E+03 -0.23170055262E+03  0.62283791958E+02  0.30276764583E+03  0.00000000000E+00 0. -1.
          4    1    6    6  503    0 -0.46766428587E+03  0.42937265505E+03  0.28265473414E+03  0.69495644462E+03  0.00000000000E+00 0. -1.
         -4    1    6    6    0  503 -0.59695788620E+01  0.74650060893E+01 -0.67439318621E+01  0.11697982931E+02  0.00000000000E+00 0.  1.
<mgrwt>
<rscale>  0 0.24087048E+04</rscale>
<asrwt>0</asrwt>
<pdfrwt beam="1">  1        2 0.30960086E+00 0.24087048E+04</pdfrwt>
<pdfrwt beam="2">  1       -1 0.11088640E+00 0.24087048E+04</pdfrwt>
<totfact> 0.50346654E+00</totfact>
</mgrwt>
</event>
<event>
12    6  0.9491186E-008  0.1507678E+04  0.7818608E-02  0.8879363E-01
          2   -1    0    0  501    0  0.00000000000E+00  0.00000000000E+00  0.10441547568E+04  0.10441547568E+04  0.00000000000E+00 0. -1.
         -1   -1    0    0    0  501 -0.00000000000E+00 -0.00000000000E+00 -0.54424226039E+03  0.54424226039E+03  0.00000000000E+00 0.  1.
         24    2    1    2    0    0  0.81166814093E+02 -0.88604194708E+02  0.65154047052E+03  0.66635036290E+03  0.71267568866E+02 0.  0.
        254    2    1    2    0    0 -0.81166814093E+02  0.88604194708E+02 -0.15162797411E+03  0.92204665430E+03  0.90152106749E+03 0.  0.
         23    2    4    4    0    0  0.13508815642E+03  0.30815907847E+03  0.23466846929E+03  0.41966738504E+03  0.88547139631E+02 0.  0.
         23    2    4    4    0    0 -0.21625497052E+03 -0.21955488376E+03 -0.38629644340E+03  0.50237926926E+03  0.90495462567E+02 0.  0.
          4    1    3    3  502    0  0.93332013612E+02 -0.70453960917E+02  0.57397423228E+03  0.58576534952E+03  0.00000000000E+00 0. -1.
         -3    1    3    3    0  502 -0.12165199520E+02 -0.18150233790E+02  0.77566238245E+02  0.80585013380E+02  0.00000000000E+00 0.  1.
         11    1    5    5    0    0  0.14535027463E+03  0.25344527605E+03  0.20057426151E+03  0.35438855042E+03  0.00000000000E+00 0.  1.
        -11    1    5    5    0    0 -0.10262118206E+02  0.54713802418E+02  0.34094207780E+02  0.65278834619E+02  0.00000000000E+00 0. -1.
          2    1    6    6  503    0 -0.96347444474E+02 -0.15974617747E+03 -0.20908740956E+03  0.28021280505E+03  0.00000000000E+00 0. -1.
         -2    1    6    6    0  503 -0.11990752604E+03 -0.59808706289E+02 -0.17720903383E+03  0.22216646421E+03  0.00000000000E+00 0.  1.
<mgrwt>
<rscale>  0 0.15076779E+04</rscale>
<asrwt>0</asrwt>
<pdfrwt beam="1">  1        2 0.16063919E+00 0.15076779E+04</pdfrwt>
<pdfrwt beam="2">  1       -1 0.83729578E-01 0.15076779E+04</pdfrwt>
<totfact> 0.36792837E+01</totfact>
</mgrwt>
</event>
<event>
12    6  0.9491186E-008  0.1400223E+04  0.7818608E-02  0.8953657E-01
         -3   -1    0    0    0  501 -0.00000000000E+00  0.00000000000E+00  0.22470080606E+03  0.22470080606E+03  0.00000000000E+00 0.  1.
          2   -1    0    0  501    0  0.00000000000E+00 -0.00000000000E+00 -0.21813721351E+04  0.21813721351E+04  0.00000000000E+00 0. -1.
         24    2    1    2    0    0 -0.24293321102E+02 -0.38220205838E+03 -0.71371013264E+03  0.81395530692E+03  0.80451907043E+02 0.  0.
        254    2    1    2    0    0  0.24293321102E+02  0.38220205838E+03 -0.12429611964E+04  0.15921176343E+04  0.91826872247E+03 0.  0.
         23    2    4    4    0    0 -0.34119612426E+03  0.12086104977E+03 -0.13784986848E+03  0.39568950180E+03  0.80903689836E+02 0.  0.
         23    2    4    4    0    0  0.36548944537E+03  0.26134100861E+03 -0.11051113280E+04  0.11964281325E+04  0.91036100316E+02 0.  0.
          4    1    3    3  502    0 -0.11634153815E+02 -0.17634554561E+03 -0.24708863009E+03  0.30378593797E+03  0.00000000000E+00 0. -1.
         -3    1    3    3    0  502 -0.12659167287E+02 -0.20585651277E+03 -0.46662150255E+03  0.51016936895E+03  0.00000000000E+00 0.  1.
         11    1    5    5    0    0 -0.37900691869E+01  0.22875466637E+01  0.82507307634E+01  0.93633355334E+01  0.00000000000E+00 0.  1.
        -11    1    5    5    0    0 -0.33740605508E+03  0.11857350310E+03 -0.14610059924E+03  0.38632616626E+03  0.00000000000E+00 0. -1.
          2    1    6    6  503    0  0.37051303572E+03  0.25970890825E+03 -0.10979626089E+04  0.11875396908E+04  0.00000000000E+00 0. -1.
         -2    1    6    6    0  503 -0.50235903541E+01  0.16321003615E+01 -0.71487191028E+01  0.88884417333E+01  0.00000000000E+00 0.  1.
<mgrwt>
<rscale>  0 0.14002229E+04</rscale>
<asrwt>0</asrwt>
<pdfrwt beam="1">  1        2 0.33559572E+00 0.14002229E+04</pdfrwt>
<pdfrwt beam="2">  1       -3 0.34569354E-01 0.14002229E+04</pdfrwt>
<totfact> 0.27542158E+01</totfact>
</mgrwt>
</event>
<event>
12    6  0.9491186E-008  0.1931767E+04  0.7818608E-02  0.8639204E-01
          2   -1    0    0  501    0  0.00000000000E+00  0.00000000000E+00  0.10304263643E+04  0.10304263643E+04  0.00000000000E+00 0. -1.
         -1   -1    0    0    0  501 -0.00000000000E+00 -0.00000000000E+00 -0.90538311607E+03  0.90538311607E+03  0.00000000000E+00 0.  1.
         24    2    1    2    0    0 -0.15104774665E+03 -0.74089494205E+03  0.65519071637E+01  0.76029572917E+03  0.79157636305E+02 0.  0.
        254    2    1    2    0    0  0.15104774665E+03  0.74089494205E+03  0.11849134110E+03  0.11755137512E+04  0.89221726306E+03 0.  0.
         23    2    4    4    0    0 -0.29462284018E+03  0.46869674873E+03 -0.15142826177E+03  0.58115394094E+03  0.91269515071E+02 0.  0.
         23    2    4    4    0    0  0.44567058683E+03  0.27219819332E+03  0.26991960287E+03  0.59435981030E+03  0.87708971438E+02 0.  0.
          2    1    3    3  502    0 -0.16534405958E+02 -0.11265742620E+03  0.28742490929E+02  0.11743599551E+03  0.00000000000E+00 0. -1.
         -1    1    3    3    0  502 -0.13451334069E+03 -0.62823751586E+03 -0.22190583765E+02  0.64285973366E+03  0.00000000000E+00 0.  1.
         11    1    5    5    0    0 -0.12262240895E+03  0.26376637802E+03 -0.10706868045E+03  0.30995589958E+03  0.00000000000E+00 0.  1.
        -11    1    5    5    0    0 -0.17200043123E+03  0.20493037072E+03 -0.44359581316E+02  0.27119804136E+03  0.00000000000E+00 0. -1.
          3    1    6    6  503    0  0.36684636817E+03  0.23333059707E+03  0.18612593662E+03  0.47292947640E+03  0.00000000000E+00 0. -1.
         -3    1    6    6    0  503  0.78824218652E+02  0.38867596257E+02  0.83793666255E+02  0.12143033389E+03  0.00000000000E+00 0.  1.
<mgrwt>
<rscale>  0 0.19317667E+04</rscale>
<asrwt>0</asrwt>
<pdfrwt beam="1">  1        2 0.15852713E+00 0.19317667E+04</pdfrwt>
<pdfrwt beam="2">  1       -1 0.13928971E+00 0.19317667E+04</pdfrwt>
<totfact> 0.10902898E+01</totfact>
</mgrwt>
</event>
<event>
12    6  0.9491186E-008  0.1411818E+04  0.7818608E-02  0.8945308E-01
         -1   -1    0    0    0  501 -0.00000000000E+00  0.00000000000E+00  0.58330965577E+03  0.58330965577E+03  0.00000000000E+00 0.  1.
          2   -1    0    0  501    0  0.00000000000E+00 -0.00000000000E+00 -0.85427641454E+03  0.85427641454E+03  0.00000000000E+00 0. -1.
         24    2    1    2    0    0 -0.12889466158E+02  0.21529532896E+03 -0.41820789197E+03  0.47713185549E+03  0.78985755777E+02 0.  0.
        254    2    1    2    0    0  0.12889466158E+02 -0.21529532896E+03  0.14724113320E+03  0.96045421482E+03  0.92426951181E+03 0.  0.
         23    2    4    4    0    0  0.28373701142E+03 -0.11222749019E+03  0.43683208800E+03  0.54066479621E+03  0.91621217786E+02 0.  0.
         23    2    4    4    0    0 -0.27084754527E+03 -0.10306783876E+03 -0.28959095481E+03  0.41978941861E+03  0.91536127873E+02 0.  0.
          4    1    3    3  502    0 -0.19747712311E+02  0.21922598220E+03 -0.41187876716E+03  0.46700548418E+03  0.00000000000E+00 0. -1.
         -3    1    3    3    0  502  0.68582461526E+01 -0.39306532463E+01 -0.63291248073E+01  0.10126371317E+02  0.00000000000E+00 0.  1.
         11    1    5    5    0    0  0.33789760523E+02 -0.36330507257E+02  0.32563491018E+02  0.59346732185E+02  0.00000000000E+00 0.  1.
        -11    1    5    5    0    0  0.24994725090E+03 -0.75896982936E+02  0.40426859698E+03  0.48131806403E+03  0.00000000000E+00 0. -1.
          3    1    6    6  503    0 -0.96661093435E+02 -0.33799907332E+02 -0.16671596092E+03  0.19565278517E+03  0.00000000000E+00 0. -1.
         -3    1    6    6    0  503 -0.17418645183E+03 -0.69267931432E+02 -0.12287499389E+03  0.22413663344E+03  0.00000000000E+00 0.  1.
<mgrwt>
<rscale>  0 0.14118182E+04</rscale>
<asrwt>0</asrwt>
<pdfrwt beam="1">  1        2 0.13142714E+00 0.14118182E+04</pdfrwt>
<pdfrwt beam="2">  1       -1 0.89739948E-01 0.14118182E+04</pdfrwt>
<totfact> 0.42553841E+01</totfact>
</mgrwt>
</event>
<event>
12    6  0.9491186E-008  0.1609197E+04  0.7818608E-02  0.8814918E-01
          2   -1    0    0  501    0  0.00000000000E+00  0.00000000000E+00  0.11347228247E+04  0.11347228247E+04  0.00000000000E+00 0. -1.
         -1   -1    0    0    0  501 -0.00000000000E+00 -0.00000000000E+00 -0.57051718030E+03  0.57051718030E+03  0.00000000000E+00 0.  1.
         24    2    1    2    0    0 -0.79626356336E+00  0.19652870592E+03 -0.34994591484E+03  0.40946290250E+03  0.81077487149E+02 0.  0.
        254    2    1    2    0    0  0.79626356336E+00 -0.19652870592E+03  0.91415155927E+03  0.12957771025E+04  0.89707360893E+03 0.  0.
         23    2    4    4    0    0  0.37323026573E+03  0.13874785793E+03  0.36979534312E+03  0.55041113492E+03  0.87475838498E+02 0.  0.
         23    2    4    4    0    0 -0.37243400217E+03 -0.33527656385E+03  0.54435621615E+03  0.74536596760E+03  0.90162494214E+02 0.  0.
          2    1    3    3  502    0  0.21106382624E+02  0.19008135981E+02 -0.22066377425E+02  0.35968230893E+02  0.00000000000E+00 0. -1.
         -1    1    3    3    0  502 -0.21902646187E+02  0.17752056994E+03 -0.32787953741E+03  0.37349467161E+03  0.00000000000E+00 0.  1.
         11    1    5    5    0    0  0.15058912767E+03  0.10084134510E+03  0.14984495729E+03  0.23515861345E+03  0.00000000000E+00 0.  1.
        -11    1    5    5    0    0  0.22264113805E+03  0.37906512831E+02  0.21995038583E+03  0.31525252148E+03  0.00000000000E+00 0. -1.
          1    1    6    6  503    0 -0.27789644313E+03 -0.21025826076E+03  0.41679485080E+03  0.54327977781E+03  0.00000000000E+00 0. -1.
         -1    1    6    6    0  503 -0.94537559031E+02 -0.12501830309E+03  0.12756136536E+03  0.20208618980E+03  0.00000000000E+00 0.  1.
<mgrwt>
<rscale>  0 0.16091971E+04</rscale>
<asrwt>0</asrwt>
<pdfrwt beam="1">  1        2 0.17457274E+00 0.16091971E+04</pdfrwt>
<pdfrwt beam="2">  1       -1 0.87771874E-01 0.16091971E+04</pdfrwt>
<totfact> 0.28940510E+01</totfact>
</mgrwt>
</event>
<event>
12    6  0.9491186E-008  0.1870962E+04  0.7818608E-02  0.8669447E-01
          2   -1    0    0  501    0  0.00000000000E+00  0.00000000000E+00  0.11433545409E+04  0.11433545409E+04  0.00000000000E+00 0. -1.
         -1   -1    0    0    0  501 -0.00000000000E+00 -0.00000000000E+00 -0.76540100798E+03  0.76540100798E+03  0.00000000000E+00 0.  1.
         24    2    1    2    0    0  0.87760844632E+02  0.64603674096E+03  0.45514828598E+03  0.79852840358E+03  0.73635674599E+02 0.  0.
        254    2    1    2    0    0 -0.87760844632E+02 -0.64603674096E+03 -0.77194753100E+02  0.11102271453E+04  0.89530991710E+03 0.  0.
         23    2    4    4    0    0 -0.98500971762E+02 -0.85875525171E+03 -0.13619111204E+02  0.86972564879E+03  0.95258596513E+02 0.  0.
         23    2    4    4    0    0  0.10740127130E+02  0.21271851075E+03 -0.63575641896E+02  0.24050149647E+03  0.91840037098E+02 0.  0.
          2    1    3    3  502    0  0.81507814393E+01  0.22811490769E+02  0.28950343120E+01  0.24396322937E+02  0.00000000000E+00 0. -1.
         -1    1    3    3    0  502  0.79610063193E+02  0.62322525019E+03  0.45225325167E+03  0.77413208064E+03  0.00000000000E+00 0.  1.
         11    1    5    5    0    0  0.65086927286E+01 -0.16464908701E+02 -0.11127208823E+02  0.20911027611E+02  0.00000000000E+00 0. -1.
        -11    1    5    5    0    0 -0.10500966449E+03 -0.84229034301E+03 -0.24919023806E+01  0.84881462118E+03  0.00000000000E+00 0.  1.
          3    1    6    6  503    0 -0.29633288134E+02  0.87352292737E+02 -0.57414228392E+02  0.10865057954E+03  0.00000000000E+00 0. -1.
         -3    1    6    6    0  503  0.40373415264E+02  0.12536621801E+03 -0.61614135044E+01  0.13185091693E+03  0.00000000000E+00 0.  1.
<mgrwt>
<rscale>  0 0.18709620E+04</rscale>
<asrwt>0</asrwt>
<pdfrwt beam="1">  1        2 0.17590070E+00 0.18709620E+04</pdfrwt>
<pdfrwt beam="2">  1       -1 0.11775400E+00 0.18709620E+04</pdfrwt>
<totfact> 0.14223886E+01</totfact>
</mgrwt>
</event>
<event>
12    6  0.9491186E-008  0.2674263E+04  0.7818608E-02  0.8343404E-01
          4   -1    0    0  501    0  0.00000000000E+00  0.00000000000E+00  0.28653921151E+04  0.28653921151E+04  0.00000000000E+00 0. -1.
         -3   -1    0    0    0  501 -0.00000000000E+00 -0.00000000000E+00 -0.62397053900E+03  0.62397053900E+03  0.00000000000E+00 0.  1.
         24    2    1    2    0    0  0.10946947476E+04 -0.43887557507E+03  0.87659365981E+03  0.14716797262E+04  0.80351796489E+02 0.  0.
        254    2    1    2    0    0 -0.10946947476E+04  0.43887557507E+03  0.13648279163E+04  0.20176829280E+04  0.90405796045E+03 0.  0.
         23    2    4    4    0    0 -0.17379220982E+03  0.16940117804E+03  0.92062669151E+03  0.95644989142E+03  0.91336730632E+02 0.  0.
         23    2    4    4    0    0 -0.92090253778E+03  0.26947439703E+03  0.44420122482E+03  0.10612330366E+04  0.90680179814E+02 0.  0.
          4    1    3    3  502    0  0.48042504123E+03 -0.22524207021E+03  0.36147611171E+03  0.64203363601E+03  0.00000000000E+00 0. -1.
         -3    1    3    3    0  502  0.61426970636E+03 -0.21363350486E+03  0.51511754810E+03  0.82964609016E+03  0.00000000000E+00 0.  1.
         11    1    5    5    0    0 -0.49779384270E+02  0.89109428992E+00  0.15946442439E+03  0.16705593013E+03  0.00000000000E+00 0.  1.
        -11    1    5    5    0    0 -0.12401282555E+03  0.16851008375E+03  0.76116226712E+03  0.78939396129E+03  0.00000000000E+00 0. -1.
          2    1    6    6  503    0 -0.15112815086E+03  0.70800548870E+02  0.10293597378E+03  0.19608225417E+03  0.00000000000E+00 0.  1.
         -2    1    6    6    0  503 -0.76977438692E+03  0.19867384816E+03  0.34126525104E+03  0.86515078239E+03  0.00000000000E+00 0. -1.
<mgrwt>
<rscale>  0 0.26742627E+04</rscale>
<asrwt>0</asrwt>
<pdfrwt beam="1">  1        4 0.44082955E+00 0.26742627E+04</pdfrwt>
<pdfrwt beam="2">  1       -3 0.95995469E-01 0.26742627E+04</pdfrwt>
<totfact> 0.66365100E-03</totfact>
</mgrwt>
</event>
<event>
12    6  0.9491186E-008  0.1321986E+04  0.7818608E-02  0.9012310E-01
         -1   -1    0    0    0  501 -0.00000000000E+00  0.00000000000E+00  0.38219111117E+03  0.38219111117E+03  0.00000000000E+00 0.  1.
          2   -1    0    0  501    0  0.00000000000E+00 -0.00000000000E+00 -0.11431760199E+04  0.11431760199E+04  0.00000000000E+00 0. -1.
         24    2    1    2    0    0  0.31398503506E+03  0.58706309144E+02 -0.36726156201E+03  0.49324708253E+03  0.79866116234E+02 0.  0.
        254    2    1    2    0    0 -0.31398503506E+03 -0.58706309144E+02 -0.39372334671E+03  0.10321200485E+04  0.89901094981E+03 0.  0.
         23    2    4    4    0    0 -0.29479616692E+03 -0.45351449617E+03 -0.21738123493E+03  0.58991545875E+03  0.90362984160E+02 0.  0.
         23    2    4    4    0    0 -0.19188868137E+02  0.39480818703E+03 -0.17634211178E+03  0.44220458978E+03  0.90590516246E+02 0.  0.
          4    1    3    3  502    0  0.21264739770E+03  0.58165793342E+02 -0.29722796082E+03  0.37006301620E+03  0.00000000000E+00 0. -1.
         -3    1    3    3    0  502  0.10133763736E+03  0.54051580188E+00 -0.70033601186E+02  0.12318406633E+03  0.00000000000E+00 0.  1.
         11    1    5    5    0    0 -0.15069706921E+03 -0.18142358332E+03 -0.56486165899E+02  0.24251764923E+03  0.00000000000E+00 0.  1.
        -11    1    5    5    0    0 -0.14409909771E+03 -0.27209091286E+03 -0.16089506903E+03  0.34739780952E+03  0.00000000000E+00 0. -1.
          2    1    6    6  503    0 -0.40115750924E+02  0.21255063544E+03 -0.58186946514E+02  0.22399278302E+03  0.00000000000E+00 0. -1.
         -2    1    6    6    0  503  0.20926882788E+02  0.18225755158E+03 -0.11815516526E+03  0.21821180676E+03  0.00000000000E+00 0.  1.
<mgrwt>
<rscale>  0 0.13219860E+04</rscale>
<asrwt>0</asrwt>
<pdfrwt beam="1">  1        2 0.17587323E+00 0.13219860E+04</pdfrwt>
<pdfrwt beam="2">  1       -1 0.58798635E-01 0.13219860E+04</pdfrwt>
<totfact> 0.67056421E+01</totfact>
</mgrwt>
</event>
<event>
12    6  0.9491186E-008  0.2296649E+04  0.7818608E-02  0.8479244E-01
          2   -1    0    0  501    0  0.00000000000E+00  0.00000000000E+00  0.28356392535E+04  0.28356392535E+04  0.00000000000E+00 0. -1.
         -1   -1    0    0    0  501 -0.00000000000E+00 -0.00000000000E+00 -0.46502694679E+03  0.46502694679E+03  0.00000000000E+00 0.  1.
         24    2    1    2    0    0  0.14930972743E+03 -0.72096621916E+03  0.19230887049E+04  0.20607660777E+04  0.80006100544E+02 0.  0.
        254    2    1    2    0    0 -0.14930972743E+03  0.72096621916E+03  0.44752360184E+03  0.12399001226E+04  0.89162170008E+03 0.  0.
         23    2    4    4    0    0 -0.10006120848E+03  0.24935659781E+03  0.65545246070E+03  0.71423284673E+03  0.91212240322E+02 0.  0.
         23    2    4    4    0    0 -0.49248518954E+02  0.47160962135E+03 -0.20792885886E+03  0.52566727592E+03  0.90832940368E+02 0.  0.
          2    1    3    3  502    0  0.46494181372E+02 -0.22599037625E+03  0.50346660984E+03  0.55381584149E+03  0.00000000000E+00 0. -1.
         -1    1    3    3    0  502  0.10281554606E+03 -0.49497584291E+03  0.14196220951E+04  0.15069502362E+04  0.00000000000E+00 0.  1.
         11    1    5    5    0    0 -0.17502446540E+02  0.16334401883E+03  0.36516430944E+03  0.40041550545E+03  0.00000000000E+00 0.  1.
        -11    1    5    5    0    0 -0.82558761940E+02  0.86012578984E+02  0.29028815127E+03  0.31381734127E+03  0.00000000000E+00 0. -1.
          1    1    6    6  503    0 -0.64605101980E+02  0.33153423149E+03 -0.17724517317E+03  0.38145067475E+03  0.00000000000E+00 0. -1.
         -1    1    6    6    0  503  0.15356583026E+02  0.14007538986E+03 -0.30683685693E+02  0.14421660117E+03  0.00000000000E+00 0.  1.
<mgrwt>
<rscale>  0 0.22966486E+04</rscale>
<asrwt>0</asrwt>
<pdfrwt beam="1">  1        2 0.43625218E+00 0.22966486E+04</pdfrwt>
<pdfrwt beam="2">  1       -1 0.71542609E-01 0.22966486E+04</pdfrwt>
<totfact> 0.44791387E+00</totfact>
</mgrwt>
</event>
<event>
12    6  0.9491186E-008  0.1699473E+04  0.7818608E-02  0.8761665E-01
          2   -1    0    0  501    0  0.00000000000E+00  0.00000000000E+00  0.17480982662E+04  0.17480982662E+04  0.00000000000E+00 0. -1.
         -1   -1    0    0    0  501 -0.00000000000E+00 -0.00000000000E+00 -0.41305014885E+03  0.41305014885E+03  0.00000000000E+00 0.  1.
         24    2    1    2    0    0 -0.13067897838E+03 -0.54617666227E+03  0.79276391994E+03  0.97474964423E+03  0.79223067133E+02 0.  0.
        254    2    1    2    0    0  0.13067897838E+03  0.54617666227E+03  0.54228419741E+03  0.11863987708E+04  0.89335544485E+03 0.  0.
         23    2    4    4    0    0  0.19175250244E+03 -0.15308297087E+03 -0.45738855711E+02  0.26590722454E+03  0.91712545383E+02 0.  0.
         23    2    4    4    0    0 -0.61073524060E+02  0.69925963314E+03  0.58802305312E+03  0.92049154628E+03  0.94018965607E+02 0.  0.
          2    1    3    3  502    0 -0.55924954061E+02 -0.36056448659E+03  0.55192175725E+03  0.66162827600E+03  0.00000000000E+00 0. -1.
         -1    1    3    3    0  502 -0.74754024317E+02 -0.18561217568E+03  0.24084216270E+03  0.31312136823E+03  0.00000000000E+00 0.  1.
         11    1    5    5    0    0  0.49863131066E+02 -0.14345451282E+02 -0.43087647650E+02  0.67443822491E+02  0.00000000000E+00 0.  1.
        -11    1    5    5    0    0  0.14188937137E+03 -0.13873751959E+03 -0.26512080617E+01  0.19846340205E+03  0.00000000000E+00 0. -1.
          2    1    6    6  503    0 -0.42058299672E+02  0.28439900552E+03  0.29716458413E+03  0.41347126257E+03  0.00000000000E+00 0. -1.
         -2    1    6    6    0  503 -0.19015224388E+02  0.41486062762E+03  0.29085846899E+03  0.50702028371E+03  0.00000000000E+00 0.  1.
<mgrwt>
<rscale>  0 0.16994732E+04</rscale>
<asrwt>0</asrwt>
<pdfrwt beam="1">  1        2 0.26893819E+00 0.16994732E+04</pdfrwt>
<pdfrwt beam="2">  1       -1 0.63546178E-01 0.16994732E+04</pdfrwt>
<totfact> 0.25102956E+01</totfact>
</mgrwt>
</event>
<event>
12    6  0.9491186E-008  0.1282213E+04  0.7818608E-02  0.9043790E-01
          2   -1    0    0  501    0  0.00000000000E+00  0.00000000000E+00  0.61652998858E+03  0.61652998858E+03  0.00000000000E+00 0. -1.
         -1   -1    0    0    0  501 -0.00000000000E+00 -0.00000000000E+00 -0.66666311071E+03  0.66666311071E+03  0.00000000000E+00 0.  1.
         24    2    1    2    0    0 -0.20388483884E+03  0.61840019212E+02 -0.23210242787E+03  0.32968723088E+03  0.97102614271E+02 0.  0.
        254    2    1    2    0    0  0.20388483884E+03 -0.61840019212E+02  0.18196930573E+03  0.95350586841E+03  0.91140956621E+03 0.  0.
         23    2    4    4    0    0  0.33656556391E+03  0.21991084018E+03  0.39057645003E+03  0.56789544149E+03  0.91203688051E+02 0.  0.
         23    2    4    4    0    0 -0.13268072507E+03 -0.28175085939E+03 -0.20860714430E+03  0.38561042692E+03  0.90502702296E+02 0.  0.
          4    1    3    3  502    0 -0.87478540415E+02  0.45526918917E+02 -0.44246682544E+02  0.10808776201E+03  0.00000000000E+00 0. -1.
         -3    1    3    3    0  502 -0.11640629842E+03  0.16313100295E+02 -0.18785574532E+03  0.22159946887E+03  0.00000000000E+00 0.  1.
         11    1    5    5    0    0  0.83368208360E+02  0.66197445612E+02  0.53414585238E+02  0.11910280386E+03  0.00000000000E+00 0. -1.
        -11    1    5    5    0    0  0.25319735555E+03  0.15371339457E+03  0.33716186479E+03  0.44879263764E+03  0.00000000000E+00 0.  1.
          1    1    6    6  503    0 -0.38764110762E+02 -0.16857585077E+03 -0.81444658229E+02  0.19119023537E+03  0.00000000000E+00 0. -1.
         -1    1    6    6    0  503 -0.93916614307E+02 -0.11317500862E+03 -0.12716248607E+03  0.19442019155E+03  0.00000000000E+00 0.  1.
<mgrwt>
<rscale>  0 0.12822134E+04</rscale>
<asrwt>0</asrwt>
<pdfrwt beam="1">  1        2 0.94850767E-01 0.12822134E+04</pdfrwt>
<pdfrwt beam="2">  1       -1 0.10256356E+00 0.12822134E+04</pdfrwt>
<totfact> 0.48405489E+01</totfact>
</mgrwt>
</event>
<event>
12    6  0.9491186E-008  0.2068931E+04  0.7818608E-02  0.8575054E-01
          2   -1    0    0  501    0  0.00000000000E+00  0.00000000000E+00  0.10926624023E+04  0.10926624023E+04  0.00000000000E+00 0. -1.
         -1   -1    0    0    0  501 -0.00000000000E+00 -0.00000000000E+00 -0.97936834339E+03  0.97936834339E+03  0.00000000000E+00 0.  1.
         24    2    1    2    0    0 -0.10330990038E+03 -0.63870045013E+03  0.57597520681E+03  0.86983595950E+03  0.79094608329E+02 0.  0.
        254    2    1    2    0    0  0.10330990038E+03  0.63870045013E+03 -0.46268114792E+03  0.12021947862E+04  0.90143622003E+03 0.  0.
         23    2    4    4    0    0 -0.31267938933E+03  0.45764195737E+03 -0.47944524687E+03  0.73903598624E+03  0.95403786921E+02 0.  0.
         23    2    4    4    0    0  0.41598928971E+03  0.18105849276E+03  0.16764098958E+02  0.46315879994E+03  0.91682997285E+02 0.  0.
          4    1    3    3  502    0 -0.91149919533E+02 -0.63070389448E+03  0.56375483820E+03  0.85083207975E+03  0.00000000000E+00 0. -1.
         -3    1    3    3    0  502 -0.12159980849E+02 -0.79965556519E+01  0.12220368613E+02  0.19003879750E+02  0.00000000000E+00 0.  1.
         11    1    5    5    0    0 -0.25950049729E+03  0.31902652789E+03 -0.38319224027E+03  0.56209850258E+03  0.00000000000E+00 0.  1.
        -11    1    5    5    0    0 -0.53178892042E+02  0.13861542947E+03 -0.96253006599E+02  0.17693748367E+03  0.00000000000E+00 0. -1.
          2    1    6    6  503    0  0.82293082106E+02  0.93408161183E+01 -0.22500838530E+02  0.85823597820E+02  0.00000000000E+00 0. -1.
         -2    1    6    6    0  503  0.33369620761E+03  0.17171767664E+03  0.39264937488E+02  0.37733520212E+03  0.00000000000E+00 0.  1.
<mgrwt>
<rscale>  0 0.20689311E+04</rscale>
<asrwt>0</asrwt>
<pdfrwt beam="1">  1        2 0.16810191E+00 0.20689311E+04</pdfrwt>
<pdfrwt beam="2">  1       -1 0.15067205E+00 0.20689311E+04</pdfrwt>
<totfact> 0.79959839E+00</totfact>
</mgrwt>
</event>
<event>
12    6  0.9491186E-008  0.1653607E+04  0.7818608E-02  0.8788276E-01
          2   -1    0    0  501    0  0.00000000000E+00  0.00000000000E+00  0.33368112834E+04  0.33368112834E+04  0.00000000000E+00 0. -1.
         -1   -1    0    0    0  501 -0.00000000000E+00 -0.00000000000E+00 -0.20486738655E+03  0.20486738655E+03  0.00000000000E+00 0.  1.
         24    2    1    2    0    0  0.56362437807E+03 -0.48837088241E+02  0.13561224875E+04  0.14715020837E+04  0.78693586191E+02 0.  0.
        254    2    1    2    0    0 -0.56362437807E+03  0.48837088241E+02  0.17758214093E+04  0.20701765862E+04  0.90112813718E+03 0.  0.
         23    2    4    4    0    0 -0.20956173852E+03  0.37937436575E+02 -0.24524341510E+02  0.23297722900E+03  0.91222664731E+02 0.  0.
         23    2    4    4    0    0 -0.35406263955E+03  0.10899651666E+02  0.18003457508E+04  0.18371993572E+04  0.92614796493E+02 0.  0.
          2    1    3    3  502    0  0.55685499917E+03 -0.47172117966E+02  0.13529833519E+04  0.14638567722E+04  0.00000000000E+00 0. -1.
         -1    1    3    3    0  502  0.67693788954E+01 -0.16649702743E+01  0.31391355993E+01  0.76453115669E+01  0.00000000000E+00 0.  1.
         11    1    5    5    0    0 -0.27326834272E+02  0.39652030590E+02 -0.15190259805E+02  0.50495379929E+02  0.00000000000E+00 0.  1.
        -11    1    5    5    0    0 -0.18223490425E+03 -0.17145940159E+01 -0.93340817048E+01  0.18248184907E+03  0.00000000000E+00 0. -1.
          3    1    6    6  503    0 -0.22413629915E+03 -0.13367621202E+02  0.13218375174E+04  0.13407722388E+04  0.00000000000E+00 0. -1.
         -3    1    6    6    0  503 -0.12992634040E+03  0.24267272868E+02  0.47850823341E+03  0.49642711842E+03  0.00000000000E+00 0.  1.
<mgrwt>
<rscale>  0 0.16536067E+04</rscale>
<asrwt>0</asrwt>
<pdfrwt beam="1">  1        2 0.51335554E+00 0.16536067E+04</pdfrwt>
<pdfrwt beam="2">  1       -1 0.31518062E-01 0.16536067E+04</pdfrwt>
<totfact> 0.10796642E+01</totfact>
</mgrwt>
</event>
<event>
12    6  0.9491186E-008  0.2349230E+04  0.7818608E-02  0.8458760E-01
          2   -1    0    0  501    0  0.00000000000E+00  0.00000000000E+00  0.16134503852E+04  0.16134503852E+04  0.00000000000E+00 0. -1.
         -1   -1    0    0    0  501 -0.00000000000E+00 -0.00000000000E+00 -0.85513634277E+03  0.85513634277E+03  0.00000000000E+00 0.  1.
         24    2    1    2    0    0  0.30666786559E+03  0.15223730368E+03 -0.66096248060E+03  0.74863325198E+03  0.79743142583E+02 0.  0.
        254    2    1    2    0    0 -0.30666786559E+03 -0.15223730368E+03  0.14192765230E+04  0.17199534759E+04  0.90921544987E+03 0.  0.
         23    2    4    4    0    0 -0.12861902281E+03 -0.51469667205E+03  0.96870033343E+03  0.11083505989E+04  0.92764200434E+02 0.  0.
         23    2    4    4    0    0 -0.17804884277E+03  0.36245936837E+03  0.45057618956E+03  0.61160287703E+03  0.89224393867E+02 0.  0.
          4    1    3    3  502    0  0.72514331768E+01 -0.54156076094E+01 -0.44437053081E+02  0.45349352536E+02  0.00000000000E+00 0. -1.
         -3    1    3    3    0  502  0.29941643241E+03  0.15765291129E+03 -0.61652542752E+03  0.70328389944E+03  0.00000000000E+00 0.  1.
         11    1    5    5    0    0 -0.91007723516E+02 -0.27526517495E+03  0.61070621580E+03  0.67602914456E+03  0.00000000000E+00 0. -1.
        -11    1    5    5    0    0 -0.37611299297E+02 -0.23943149710E+03  0.35799411763E+03  0.43232145435E+03  0.00000000000E+00 0.  1.
          3    1    6    6  503    0 -0.11365964987E+03  0.26267693529E+03  0.25788003801E+03  0.38525290699E+03  0.00000000000E+00 0. -1.
         -3    1    6    6    0  503 -0.64389192907E+02  0.99782433078E+02  0.19269615155E+03  0.22634997003E+03  0.00000000000E+00 0.  1.
<mgrwt>
<rscale>  0 0.23492297E+04</rscale>
<asrwt>0</asrwt>
<pdfrwt beam="1">  1        2 0.24822314E+00 0.23492297E+04</pdfrwt>
<pdfrwt beam="2">  1       -1 0.13155944E+00 0.23492297E+04</pdfrwt>
<totfact> 0.55458505E+00</totfact>
</mgrwt>
</event>
<event>
12    6  0.9491186E-008  0.1603246E+04  0.7818608E-02  0.8818556E-01
          2   -1    0    0  501    0  0.00000000000E+00  0.00000000000E+00  0.18805854766E+04  0.18805854766E+04  0.00000000000E+00 0. -1.
         -1   -1    0    0    0  501 -0.00000000000E+00 -0.00000000000E+00 -0.34170171321E+03  0.34170171321E+03  0.00000000000E+00 0.  1.
         24    2    1    2    0    0 -0.96565522049E+01 -0.42428203379E+03  0.88912250411E+03  0.98836573756E+03  0.78863874336E+02 0.  0.
        254    2    1    2    0    0  0.96565522049E+01  0.42428203379E+03  0.64976125926E+03  0.12339214522E+04  0.95930389503E+03 0.  0.
         23    2    4    4    0    0  0.20833510670E+03 -0.25059540104E+03  0.21222168032E+03  0.40034065320E+03  0.95042229032E+02 0.  0.
         23    2    4    4    0    0 -0.19867855450E+03  0.67487743483E+03  0.43753957894E+03  0.83358079902E+03  0.92105077489E+02 0.  0.
          2    1    3    3  502    0 -0.13103168650E+02 -0.21420405206E+03  0.53741528006E+03  0.57867974924E+03  0.00000000000E+00 0. -1.
         -1    1    3    3    0  502  0.34466164446E+01 -0.21007798173E+03  0.35170722405E+03  0.40968598832E+03  0.00000000000E+00 0.  1.
         11    1    5    5    0    0  0.95549381693E+01 -0.54638903149E+02  0.11795574742E+02  0.56708395889E+02  0.00000000000E+00 0. -1.
        -11    1    5    5    0    0  0.19878016853E+03 -0.19595649790E+03  0.20042610558E+03  0.34363225731E+03  0.00000000000E+00 0.  1.
          4    1    6    6  503    0 -0.37435351245E+02  0.28333620401E+03  0.16492733471E+03  0.32997247727E+03  0.00000000000E+00 0. -1.
         -4    1    6    6    0  503 -0.16124320325E+03  0.39154123082E+03  0.27261224423E+03  0.50360832175E+03  0.00000000000E+00 0.  1.
<mgrwt>
<rscale>  0 0.16032458E+04</rscale>
<asrwt>0</asrwt>
<pdfrwt beam="1">  1        2 0.28932084E+00 0.16032458E+04</pdfrwt>
<pdfrwt beam="2">  1       -1 0.52569495E-01 0.16032458E+04</pdfrwt>
<totfact> 0.30998455E+01</totfact>
</mgrwt>
</event>
<event>
12    6  0.9491186E-008  0.2179446E+04  0.7818608E-02  0.8527032E-01
         -1   -1    0    0    0  501 -0.00000000000E+00  0.00000000000E+00  0.28944175564E+04  0.28944175564E+04  0.00000000000E+00 0.  1.
          2   -1    0    0  501    0  0.00000000000E+00 -0.00000000000E+00 -0.41027106269E+03  0.41027106269E+03  0.00000000000E+00 0. -1.
         24    2    1    2    0    0  0.28879642450E+03  0.58030862699E+03  0.19832166732E+04  0.20879344955E+04  0.78489537209E+02 0.  0.
        254    2    1    2    0    0 -0.28879642450E+03 -0.58030862699E+03  0.50092982053E+03  0.12167541236E+04  0.89966573500E+03 0.  0.
         23    2    4    4    0    0 -0.43705231305E+03 -0.29419925322E+03 -0.85442071405E+02  0.54139605171E+03  0.90782224607E+02 0.  0.
         23    2    4    4    0    0  0.14825588854E+03 -0.28610937378E+03  0.58637189193E+03  0.67535807185E+03  0.91859388806E+02 0.  0.
          4    1    3    3  502    0  0.15791267439E+02  0.67240334648E+01  0.67243115750E+02  0.69398943574E+02  0.00000000000E+00 0. -1.
         -3    1    3    3    0  502  0.27300515707E+03  0.57358459353E+03  0.19159735574E+04  0.20185355520E+04  0.00000000000E+00 0.  1.
         11    1    5    5    0    0 -0.12997627948E+03 -0.13712827090E+03 -0.44042455704E+02  0.19400446853E+03  0.00000000000E+00 0.  1.
        -11    1    5    5    0    0 -0.30707603357E+03 -0.15707098232E+03 -0.41399615701E+02  0.34739158318E+03  0.00000000000E+00 0. -1.
          2    1    6    6  503    0  0.50107992756E+02 -0.16196991425E+03  0.37282554814E+03  0.40956556667E+03  0.00000000000E+00 0.  1.
         -2    1    6    6    0  503  0.98147895789E+02 -0.12413945953E+03  0.21354634380E+03  0.26579250518E+03  0.00000000000E+00 0. -1.
<mgrwt>
<rscale>  0 0.21794456E+04</rscale>
<asrwt>0</asrwt>
<pdfrwt beam="1">  1        2 0.63118627E-01 0.21794456E+04</pdfrwt>
<pdfrwt beam="2">  1       -1 0.44529500E+00 0.21794456E+04</pdfrwt>
<totfact> 0.28183782E-01</totfact>
</mgrwt>
</event>
<event>
12    6  0.9491186E-008  0.1098791E+04  0.7818608E-02  0.9206371E-01
          2   -1    0    0  501    0  0.00000000000E+00  0.00000000000E+00  0.39938140958E+03  0.39938140958E+03  0.00000000000E+00 0. -1.
         -1   -1    0    0    0  501 -0.00000000000E+00 -0.00000000000E+00 -0.75575770966E+03  0.75575770966E+03  0.00000000000E+00 0.  1.
         24    2    1    2    0    0  0.89575507184E+02 -0.13929435819E+03 -0.52939057215E+02  0.19030103988E+03  0.77364412285E+02 0.  0.
        254    2    1    2    0    0 -0.89575507184E+02  0.13929435819E+03 -0.30343724286E+03  0.96483807937E+03  0.90078391933E+03 0.  0.
         23    2    4    4    0    0  0.19081228863E+03  0.85416698486E+02 -0.53772504991E+03  0.58414843008E+03  0.91519490771E+02 0.  0.
         23    2    4    4    0    0 -0.28038779581E+03  0.53877659707E+02  0.23428780705E+03  0.38068964928E+03  0.92269790745E+02 0.  0.
          2    1    3    3  502    0 -0.13241698589E+02 -0.27204309816E+02 -0.13726822698E+02  0.33224128513E+02  0.00000000000E+00 0. -1.
         -1    1    3    3    0  502  0.10281720577E+03 -0.11209004838E+03 -0.39212234517E+02  0.15707691136E+03  0.00000000000E+00 0.  1.
         11    1    5    5    0    0  0.43101192657E+02  0.14852338296E+02 -0.24089333916E+03  0.24516913674E+03  0.00000000000E+00 0. -1.
        -11    1    5    5    0    0  0.14771109597E+03  0.70564360190E+02 -0.29683171076E+03  0.33897929334E+03  0.00000000000E+00 0.  1.
          1    1    6    6  503    0 -0.10029676410E+01 -0.12783776026E+02  0.10497017144E+02  0.16571609532E+02  0.00000000000E+00 0. -1.
         -1    1    6    6    0  503 -0.27938482817E+03  0.66661435733E+02  0.22379078991E+03  0.36411803975E+03  0.00000000000E+00 0.  1.
<mgrwt>
<rscale>  0 0.10987913E+04</rscale>
<asrwt>0</asrwt>
<pdfrwt beam="1">  1        2 0.61443295E-01 0.10987913E+04</pdfrwt>
<pdfrwt beam="2">  1       -1 0.11627042E+00 0.10987913E+04</pdfrwt>
<totfact> 0.60548353E+01</totfact>
</mgrwt>
</event>
<event>
12    6  0.9491186E-008  0.3796836E+04  0.7818608E-02  0.8046834E-01
          2   -1    0    0  501    0  0.00000000000E+00  0.00000000000E+00  0.36465038199E+04  0.36465038199E+04  0.00000000000E+00 0. -1.
         -1   -1    0    0    0  501 -0.00000000000E+00 -0.00000000000E+00 -0.98834156830E+03  0.98834156830E+03  0.00000000000E+00 0.  1.
         24    2    1    2    0    0  0.17844984015E+04 -0.10401069132E+03  0.11096605007E+04  0.21054229991E+04  0.78783308074E+02 0.  0.
        254    2    1    2    0    0 -0.17844984015E+04  0.10401069132E+03  0.15485017510E+04  0.25294223891E+04  0.89714390196E+03 0.  0.
         23    2    4    4    0    0 -0.11779264177E+04 -0.18266008266E+03  0.53326138134E+03  0.13090617775E+04  0.91649797162E+02 0.  0.
         23    2    4    4    0    0 -0.60657198386E+03  0.28667077398E+03  0.10152403696E+04  0.12203606116E+04  0.91963633664E+02 0.  0.
          2    1    3    3  502    0  0.17846206271E+04 -0.10352592507E+03  0.11068041006E+04  0.21025231786E+04  0.00000000000E+00 0. -1.
         -3    1    3    3    0  502 -0.12222553963E+00 -0.48476624979E+00  0.28564000997E+01  0.28998204995E+01  0.00000000000E+00 0.  1.
         11    1    5    5    0    0 -0.88961232991E+03 -0.11072305431E+03  0.36821960358E+03  0.96915188115E+03  0.00000000000E+00 0.  1.
        -11    1    5    5    0    0 -0.28831408775E+03 -0.71937028347E+02  0.16504177775E+03  0.33990989637E+03  0.00000000000E+00 0. -1.
          3    1    6    6  503    0 -0.23416355043E+03  0.16051938948E+03  0.41637694202E+03  0.50395317302E+03  0.00000000000E+00 0. -1.
         -3    1    6    6    0  503 -0.37240843342E+03  0.12615138450E+03  0.59886342762E+03  0.71640743857E+03  0.00000000000E+00 0.  1.
<mgrwt>
<rscale>  0 0.37968362E+04</rscale>
<asrwt>0</asrwt>
<pdfrwt beam="1">  1        2 0.56100058E+00 0.37968362E+04</pdfrwt>
<pdfrwt beam="2">  1       -1 0.15205255E+00 0.37968362E+04</pdfrwt>
<totfact> 0.19512251E-01</totfact>
</mgrwt>
</event>
<event>
12    6  0.9491186E-008  0.2976445E+04  0.7818608E-02  0.8250489E-01
         -1   -1    0    0    0  501 -0.00000000000E+00  0.00000000000E+00  0.26374613309E+04  0.26374613309E+04  0.00000000000E+00 0.  1.
          2   -1    0    0  501    0  0.00000000000E+00 -0.00000000000E+00 -0.83974948883E+03  0.83974948883E+03  0.00000000000E+00 0. -1.
         24    2    1    2    0    0 -0.13267598987E+04  0.18728296009E+03  0.64802748592E+03  0.14905372381E+04  0.79968117244E+02 0.  0.
        254    2    1    2    0    0  0.13267598987E+04 -0.18728296009E+03  0.11496843561E+04  0.19866735816E+04  0.91089574869E+03 0.  0.
         23    2    4    4    0    0  0.32959583723E+03  0.31246307209E+03  0.15216915527E+03  0.48753262830E+03  0.90917679799E+02 0.  0.
         23    2    4    4    0    0  0.99716406149E+03 -0.49974603219E+03  0.99751520084E+03  0.14991409533E+04  0.91130453816E+02 0.  0.
          2    1    3    3  502    0 -0.12612128163E+04  0.16689310088E+03  0.59892037833E+03  0.14061353757E+04  0.00000000000E+00 0. -1.
         -1    1    3    3    0  502 -0.65547082409E+02  0.20389859209E+02  0.49107107599E+02  0.84401862465E+02  0.00000000000E+00 0.  1.
         11    1    5    5    0    0  0.20082031718E+03  0.13135433978E+03  0.94898694172E+02  0.25804752378E+03  0.00000000000E+00 0.  1.
        -11    1    5    5    0    0  0.12877552005E+03  0.18110873231E+03  0.57270461098E+02  0.22948510452E+03  0.00000000000E+00 0. -1.
          2    1    6    6  503    0  0.21114594202E+03 -0.68318605345E+02  0.21682020833E+03  0.31025963870E+03  0.00000000000E+00 0. -1.
         -2    1    6    6    0  503  0.78601811947E+03 -0.43142742684E+03  0.78069499251E+03  0.11888813146E+04  0.00000000000E+00 0.  1.
<mgrwt>
<rscale>  0 0.29764454E+04</rscale>
<asrwt>0</asrwt>
<pdfrwt beam="1">  1        2 0.12919223E+00 0.29764454E+04</pdfrwt>
<pdfrwt beam="2">  1       -1 0.40576328E+00 0.29764454E+04</pdfrwt>
<totfact> 0.20593853E-01</totfact>
</mgrwt>
</event>
<event>
12    6  0.9491186E-008  0.1249259E+04  0.7818608E-02  0.9070800E-01
          2   -1    0    0  501    0  0.00000000000E+00  0.00000000000E+00  0.42551732400E+03  0.42551732400E+03  0.00000000000E+00 0. -1.
         -1   -1    0    0    0  501 -0.00000000000E+00 -0.00000000000E+00 -0.91691232706E+03  0.91691232706E+03  0.00000000000E+00 0.  1.
         24    2    1    2    0    0  0.52491602378E+02  0.51888969882E+02  0.18215025478E+03  0.21483494256E+03  0.86761187829E+02 0.  0.
        254    2    1    2    0    0 -0.52491602378E+02 -0.51888969882E+02 -0.67354525784E+03  0.11275947085E+04  0.90130948001E+03 0.  0.
         23    2    4    4    0    0  0.27687982300E+02 -0.38569426848E+03 -0.65964512137E+03  0.77115904589E+03  0.10013937694E+03 0.  0.
         23    2    4    4    0    0 -0.80179584678E+02  0.33380529859E+03 -0.13900136467E+02  0.35643566260E+03  0.94860026433E+02 0.  0.
          2    1    3    3  502    0  0.69796025049E+02  0.35273081381E+02  0.17169395034E+03  0.18866501522E+03  0.00000000000E+00 0. -1.
         -1    1    3    3    0  502 -0.17304422670E+02  0.16615888502E+02  0.10456304434E+02  0.26169927342E+02  0.00000000000E+00 0.  1.
         11    1    5    5    0    0 -0.15709306725E+02 -0.28968326635E+02 -0.23306763805E+02  0.40362748976E+02  0.00000000000E+00 0. -1.
        -11    1    5    5    0    0  0.43397289025E+02 -0.35672594184E+03 -0.63633835757E+03  0.73079629692E+03  0.00000000000E+00 0.  1.
          2    1    6    6  503    0  0.17892177713E+02  0.27824582645E+02 -0.11779121488E+02  0.35115311841E+02  0.00000000000E+00 0. -1.
         -2    1    6    6    0  503 -0.98071762391E+02  0.30598071595E+03 -0.21210149788E+01  0.32132035076E+03  0.00000000000E+00 0.  1.
<mgrwt>
<rscale>  0 0.12492591E+04</rscale>
<asrwt>0</asrwt>
<pdfrwt beam="1">  1        2 0.65464204E-01 0.12492591E+04</pdfrwt>
<pdfrwt beam="2">  1       -1 0.14106343E+00 0.12492591E+04</pdfrwt>
<totfact> 0.34289068E+01</totfact>
</mgrwt>
</event>
<event>
12    6  0.9491186E-008  0.4833430E+04  0.7818608E-02  0.7854729E-01
          2   -1    0    0  501    0  0.00000000000E+00  0.00000000000E+00  0.24512127834E+04  0.24512127834E+04  0.00000000000E+00 0. -1.
         -3   -1    0    0    0  501 -0.00000000000E+00 -0.00000000000E+00 -0.23827031696E+04  0.23827031696E+04  0.00000000000E+00 0.  1.
         24    2    1    2    0    0  0.91853431237E+03 -0.18887522739E+04 -0.98108112072E+03  0.23194097374E+04  0.77787718290E+02 0.  0.
        254    2    1    2    0    0 -0.91853431237E+03  0.18887522739E+04  0.10495907345E+04  0.25145062157E+04  0.90000575743E+03 0.  0.
         23    2    4    4    0    0 -0.53755816322E+03  0.95667424895E+03  0.10231043612E+04  0.15031735918E+04  0.92703374584E+02 0.  0.
         23    2    4    4    0    0 -0.38097614915E+03  0.93207802498E+03  0.26486373275E+02  0.10113326239E+04  0.90442673962E+02 0.  0.
          2    1    3    3  502    0  0.74318784838E+03 -0.15718116310E+04 -0.83634486937E+03  0.19293503368E+04  0.00000000000E+00 0. -1.
         -3    1    3    3    0  502  0.17534646399E+03 -0.31694064290E+03 -0.14473625135E+03  0.39005940061E+03  0.00000000000E+00 0.  1.
         11    1    5    5    0    0 -0.44272996772E+03  0.74419016590E+03  0.84767279371E+03  0.12117664761E+04  0.00000000000E+00 0.  1.
        -11    1    5    5    0    0 -0.94828195502E+02  0.21248408304E+03  0.17543156751E+03  0.29140711571E+03  0.00000000000E+00 0. -1.
          1    1    6    6  503    0 -0.14898245634E+03  0.36188136745E+03 -0.33781398214E+02  0.39280412328E+03  0.00000000000E+00 0. -1.
         -1    1    6    6    0  503 -0.23199369281E+03  0.57019665753E+03  0.60267771488E+02  0.61852850059E+03  0.00000000000E+00 0.  1.
<mgrwt>
<rscale>  0 0.48334304E+04</rscale>
<asrwt>0</asrwt>
<pdfrwt beam="1">  1        2 0.37710966E+00 0.48334304E+04</pdfrwt>
<pdfrwt beam="2">  1       -3 0.36656972E+00 0.48334304E+04</pdfrwt>
<totfact> 0.27865180E-02</totfact>
</mgrwt>
</event>
<event>
12    6  0.9491186E-008  0.3638968E+04  0.7818608E-02  0.8081623E-01
         -1   -1    0    0    0  501 -0.00000000000E+00  0.00000000000E+00  0.12479938335E+04  0.12479938335E+04  0.00000000000E+00 0.  1.
          2   -1    0    0  501    0  0.00000000000E+00 -0.00000000000E+00 -0.26526754333E+04  0.26526754333E+04  0.00000000000E+00 0. -1.
         24    2    1    2    0    0 -0.36474266038E+03 -0.10431605186E+04 -0.20534106544E+04  0.23332503192E+04  0.79628264669E+02 0.  0.
        254    2    1    2    0    0  0.36474266038E+03  0.10431605186E+04  0.64872905473E+03  0.15674189476E+04  0.90262489153E+03 0.  0.
         23    2    4    4    0    0 -0.18807044893E+03  0.57651486383E+03  0.56441675985E+03  0.83346839400E+03  0.91451643035E+02 0.  0.
         23    2    4    4    0    0  0.55281310931E+03  0.46664565477E+03  0.84312294882E+02  0.73395055356E+03  0.90633057161E+02 0.  0.
          4    1    3    3  502    0 -0.29127385880E+03 -0.89579554916E+03 -0.17054232203E+04  0.19482706401E+04  0.00000000000E+00 0. -1.
         -3    1    3    3    0  502 -0.73468801588E+02 -0.14736496944E+03 -0.34798743420E+03  0.38497967918E+03  0.00000000000E+00 0.  1.
         11    1    5    5    0    0 -0.96743625808E+02  0.17683411195E+03  0.15721699240E+03  0.25563023097E+03  0.00000000000E+00 0. -1.
        -11    1    5    5    0    0 -0.91326823120E+02  0.39968075188E+03  0.40719976745E+03  0.57783816303E+03  0.00000000000E+00 0.  1.
          4    1    6    6  503    0  0.17829567822E+03  0.13463558250E+03  0.66636277000E+02  0.23314476696E+03  0.00000000000E+00 0. -1.
         -4    1    6    6    0  503  0.37451743110E+03  0.33201007227E+03  0.17676017882E+02  0.50080578660E+03  0.00000000000E+00 0.  1.
<mgrwt>
<rscale>  0 0.36389683E+04</rscale>
<asrwt>0</asrwt>
<pdfrwt beam="1">  1        2 0.40810391E+00 0.36389683E+04</pdfrwt>
<pdfrwt beam="2">  1       -1 0.19199905E+00 0.36389683E+04</pdfrwt>
<totfact> 0.44731582E-01</totfact>
</mgrwt>
</event>
<event>
12    6  0.9491186E-008  0.1478634E+04  0.7818608E-02  0.8898787E-01
          2   -1    0    0  501    0  0.00000000000E+00  0.00000000000E+00  0.13431801300E+04  0.13431801300E+04  0.00000000000E+00 0. -1.
         -1   -1    0    0    0  501 -0.00000000000E+00 -0.00000000000E+00 -0.40693674934E+03  0.40693674934E+03  0.00000000000E+00 0.  1.
         24    2    1    2    0    0 -0.20687855243E+03 -0.34526910452E+03  0.47690663472E+02  0.41344989033E+03  0.81589965308E+02 0.  0.
        254    2    1    2    0    0  0.20687855243E+03  0.34526910452E+03  0.88855271722E+03  0.13366669890E+04  0.91386170635E+03 0.  0.
         23    2    4    4    0    0  0.42745129609E+03  0.32334983019E+03  0.94332116391E+03  0.10888455228E+04  0.91978427511E+02 0.  0.
         23    2    4    4    0    0 -0.22057274367E+03  0.21919274331E+02 -0.54768446694E+02  0.24782146619E+03  0.96348879175E+02 0.  0.
          2    1    3    3  502    0 -0.74073309545E+02 -0.16614684176E+03 -0.12936739995E+02  0.18237046761E+03  0.00000000000E+00 0. -1.
         -1    1    3    3    0  502 -0.13280524288E+03 -0.17912226276E+03  0.60627403468E+02  0.23107942272E+03  0.00000000000E+00 0.  1.
         11    1    5    5    0    0  0.39681932003E+03  0.32327849356E+03  0.87017007645E+03  0.10095397561E+04  0.00000000000E+00 0.  1.
        -11    1    5    5    0    0  0.30631976059E+02  0.71336626853E-01  0.73151087462E+02  0.79305766771E+02  0.00000000000E+00 0. -1.
          3    1    6    6  503    0  0.52883125170E+01 -0.16152537947E+01  0.10221023088E+02  0.11620869463E+02  0.00000000000E+00 0. -1.
         -3    1    6    6    0  503 -0.22586105618E+03  0.23534528126E+02 -0.64989469782E+02  0.23620059673E+03  0.00000000000E+00 0.  1.
<mgrwt>
<rscale>  0 0.14786336E+04</rscale>
<asrwt>0</asrwt>
<pdfrwt beam="1">  1        2 0.20664309E+00 0.14786336E+04</pdfrwt>
<pdfrwt beam="2">  1       -1 0.62605654E-01 0.14786336E+04</pdfrwt>
<totfact> 0.44538028E+01</totfact>
</mgrwt>
</event>
<event>
12    6  0.9491186E-008  0.1917732E+04  0.7818608E-02  0.8646080E-01
          2   -1    0    0  501    0  0.00000000000E+00  0.00000000000E+00  0.24580090762E+04  0.24580090762E+04  0.00000000000E+00 0. -1.
         -1   -1    0    0    0  501 -0.00000000000E+00 -0.00000000000E+00 -0.37405219504E+03  0.37405219504E+03  0.00000000000E+00 0.  1.
         24    2    1    2    0    0 -0.59834517334E+03 -0.33156272542E+03  0.37883340524E+03  0.78625845491E+03  0.82078143463E+02 0.  0.
        254    2    1    2    0    0  0.59834517334E+03  0.33156272542E+03  0.17051234760E+04  0.20458028164E+04  0.89995128084E+03 0.  0.
         23    2    4    4    0    0  0.28417793235E+03  0.17309736428E+03  0.16393892817E+04  0.16759877168E+04  0.10304278270E+03 0.  0.
         23    2    4    4    0    0  0.31416724099E+03  0.15846536114E+03  0.65734194212E+02  0.36981509956E+03  0.92897242064E+02 0.  0.
          4    1    3    3  502    0 -0.11934862830E+03 -0.38861197789E+02  0.46143847593E+02  0.13372936267E+03  0.00000000000E+00 0. -1.
         -3    1    3    3    0  502 -0.47899654504E+03 -0.29270152763E+03  0.33268955765E+03  0.65252909223E+03  0.00000000000E+00 0.  1.
         11    1    5    5    0    0  0.25268133214E+03  0.14709528321E+03  0.15548300583E+04  0.15820813469E+04  0.00000000000E+00 0. -1.
        -11    1    5    5    0    0  0.31496600212E+02  0.26002081073E+02  0.84559223437E+02  0.93906369930E+02  0.00000000000E+00 0.  1.
          1    1    6    6  503    0  0.28500308282E+03  0.11967457054E+03  0.79880462206E+02  0.31926422959E+03  0.00000000000E+00 0. -1.
         -1    1    6    6    0  503  0.29164158164E+02  0.38790790597E+02 -0.14146267994E+02  0.50550869970E+02  0.00000000000E+00 0.  1.
<mgrwt>
<rscale>  0 0.19177317E+04</rscale>
<asrwt>0</asrwt>
<pdfrwt beam="1">  1        2 0.37815523E+00 0.19177317E+04</pdfrwt>
<pdfrwt beam="2">  1       -1 0.57546493E-01 0.19177317E+04</pdfrwt>
<totfact> 0.11996036E+01</totfact>
</mgrwt>
</event>
<event>
12    6  0.9491186E-008  0.3166016E+04  0.7818608E-02  0.8197850E-01
         -1   -1    0    0    0  501 -0.00000000000E+00  0.00000000000E+00  0.19742628542E+04  0.19742628542E+04  0.00000000000E+00 0.  1.
          2   -1    0    0  501    0  0.00000000000E+00 -0.00000000000E+00 -0.12692914106E+04  0.12692914106E+04  0.00000000000E+00 0. -1.
         24    2    1    2    0    0  0.87257041846E+03  0.35479223307E+03  0.14586838532E+04  0.17383466806E+04  0.82667614669E+02 0.  0.
        254    2    1    2    0    0 -0.87257041846E+03 -0.35479223307E+03 -0.75371240961E+03  0.15052075842E+04  0.90017265637E+03 0.  0.
         23    2    4    4    0    0 -0.36244324054E+03 -0.10486876474E+03  0.16441210560E+03  0.42175108598E+03  0.92087336943E+02 0.  0.
         23    2    4    4    0    0 -0.51012717792E+03 -0.24992346833E+03 -0.91812451521E+03  0.10834564982E+04  0.90740731776E+02 0.  0.
          4    1    3    3  502    0  0.15192289726E+03  0.52732771291E+02  0.19715646165E+03  0.25442480667E+03  0.00000000000E+00 0. -1.
         -3    1    3    3    0  502  0.72064752120E+03  0.30205946178E+03  0.12615273916E+04  0.14839218740E+04  0.00000000000E+00 0.  1.
         11    1    5    5    0    0 -0.12825554767E+03  0.69428521151E+01  0.45147970545E+02  0.13614708204E+03  0.00000000000E+00 0. -1.
        -11    1    5    5    0    0 -0.23418769286E+03 -0.11181161685E+03  0.11926413506E+03  0.28560400393E+03  0.00000000000E+00 0.  1.
          4    1    6    6  503    0 -0.45145647739E+03 -0.24993230143E+03 -0.80907268594E+03  0.95962373742E+03  0.00000000000E+00 0. -1.
         -4    1    6    6    0  503 -0.58670700535E+02  0.88330961505E-02 -0.10905182926E+03  0.12383276079E+03  0.00000000000E+00 0.  1.
<mgrwt>
<rscale>  0 0.31660164E+04</rscale>
<asrwt>0</asrwt>
<pdfrwt beam="1">  1        2 0.19527560E+00 0.31660164E+04</pdfrwt>
<pdfrwt beam="2">  1       -1 0.30373275E+00 0.31660164E+04</pdfrwt>
<totfact> 0.51755348E-01</totfact>
</mgrwt>
</event>
<event>
12    6  0.9491186E-008  0.1836281E+04  0.7818608E-02  0.8687240E-01
         -1   -1    0    0    0  501 -0.00000000000E+00  0.00000000000E+00  0.40669644945E+03  0.40669644945E+03  0.00000000000E+00 0.  1.
          2   -1    0    0  501    0  0.00000000000E+00 -0.00000000000E+00 -0.20727555907E+04  0.20727555907E+04  0.00000000000E+00 0. -1.
         24    2    1    2    0    0 -0.44559181401E+02 -0.33232564314E+03  0.18763972562E+03  0.39339212073E+03  0.84396921043E+02 0.  0.
        254    2    1    2    0    0  0.44559181401E+02  0.33232564314E+03 -0.18536988668E+04  0.20860599194E+04  0.89611419176E+03 0.  0.
         23    2    4    4    0    0  0.33262998829E+03 -0.98908982181E+02 -0.38585897003E+03  0.52659389882E+03  0.89377254647E+02 0.  0.
         23    2    4    4    0    0 -0.28807080689E+03  0.43123462532E+03 -0.14678398968E+04  0.15594660206E+04  0.91827092115E+02 0.  0.
          2    1    3    3  502    0 -0.45667154977E+02 -0.25185266970E+03  0.17923317979E+03  0.31247366131E+03  0.00000000000E+00 0. -1.
         -1    1    3    3    0  502  0.11079735758E+01 -0.80472973447E+02  0.84065458265E+01  0.80918459412E+02  0.00000000000E+00 0.  1.
         11    1    5    5    0    0  0.42106645924E+02  0.10532645886E+02 -0.23245437102E+02  0.49236740412E+02  0.00000000000E+00 0.  1.
        -11    1    5    5    0    0  0.29052334236E+03 -0.10944162807E+03 -0.36261353293E+03  0.47735715840E+03  0.00000000000E+00 0. -1.
          4    1    6    6  503    0 -0.19765797323E+03  0.23002071154E+03 -0.76928190878E+03  0.82690559153E+03  0.00000000000E+00 0. -1.
         -4    1    6    6    0  503 -0.90412833654E+02  0.20121391378E+03 -0.69855798802E+03  0.73256042905E+03  0.00000000000E+00 0.  1.
<mgrwt>
<rscale>  0 0.18362814E+04</rscale>
<asrwt>0</asrwt>
<pdfrwt beam="1">  1        2 0.31888547E+00 0.18362814E+04</pdfrwt>
<pdfrwt beam="2">  1       -1 0.62568685E-01 0.18362814E+04</pdfrwt>
<totfact> 0.16901863E+01</totfact>
</mgrwt>
</event>
<event>
12    6  0.9491186E-008  0.1803348E+04  0.7818608E-02  0.8704521E-01
          2   -1    0    0  501    0  0.00000000000E+00  0.00000000000E+00  0.12781500676E+04  0.12781500676E+04  0.00000000000E+00 0. -1.
         -1   -1    0    0    0  501 -0.00000000000E+00 -0.00000000000E+00 -0.63608777984E+03  0.63608777984E+03  0.00000000000E+00 0.  1.
         24    2    1    2    0    0  0.13827615894E+03 -0.59362375904E+03 -0.60833031999E+02  0.61760234514E+03  0.78883049633E+02 0.  0.
        254    2    1    2    0    0 -0.13827615894E+03  0.59362375904E+03  0.70289531974E+03  0.12966355023E+04  0.90315687000E+03 0.  0.
         23    2    4    4    0    0  0.24386031968E+03  0.26166519336E+03  0.68995075864E+03  0.78223817306E+03  0.89039211130E+02 0.  0.
         23    2    4    4    0    0 -0.38213647863E+03  0.33195856568E+03  0.12944561095E+02  0.51439732921E+03  0.90621592410E+02 0.  0.
          2    1    3    3  502    0  0.13282311385E+03 -0.51338152199E+03 -0.76163360506E+02  0.53572700527E+03  0.00000000000E+00 0. -1.
         -1    1    3    3    0  502  0.54530450944E+01 -0.80242237050E+02  0.15330328507E+02  0.81875339875E+02  0.00000000000E+00 0.  1.
         11    1    5    5    0    0  0.24081328193E+03  0.26732102952E+03  0.68618559261E+03  0.77479173788E+03  0.00000000000E+00 0.  1.
        -11    1    5    5    0    0  0.30470377536E+01 -0.56558361609E+01  0.37651660295E+01  0.74464351861E+01  0.00000000000E+00 0. -1.
          1    1    6    6  503    0 -0.28489140184E+02  0.65518574379E+02  0.86820138327E+00  0.71449761866E+02  0.00000000000E+00 0. -1.
         -1    1    6    6    0  503 -0.35364733844E+03  0.26643999130E+03  0.12076359712E+02  0.44294756734E+03  0.00000000000E+00 0.  1.
<mgrwt>
<rscale>  0 0.18033476E+04</rscale>
<asrwt>0</asrwt>
<pdfrwt beam="1">  1        2 0.19663847E+00 0.18033476E+04</pdfrwt>
<pdfrwt beam="2">  1       -1 0.97859659E-01 0.18033476E+04</pdfrwt>
<totfact> 0.18344918E+01</totfact>
</mgrwt>
</event>
<event>
12    6  0.9491186E-008  0.1411196E+04  0.7818608E-02  0.8945754E-01
          2   -1    0    0  501    0  0.00000000000E+00  0.00000000000E+00  0.31574876594E+04  0.31574876594E+04  0.00000000000E+00 0. -1.
         -1   -1    0    0    0  501 -0.00000000000E+00 -0.00000000000E+00 -0.15767880746E+03  0.15767880746E+03  0.00000000000E+00 0.  1.
         24    2    1    2    0    0 -0.81277769736E+02  0.19563381985E+03  0.17372312178E+04  0.17521728578E+04  0.85198311838E+02 0.  0.
        254    2    1    2    0    0  0.81277769736E+02 -0.19563381985E+03  0.12625776342E+04  0.15629936091E+04  0.89664266701E+03 0.  0.
         23    2    4    4    0    0 -0.14054657645E+03  0.31425927810E+03  0.43973633842E+03  0.56582693312E+03  0.90993609065E+02 0.  0.
         23    2    4    4    0    0  0.22182434619E+03 -0.50989309795E+03  0.82284129579E+03  0.99716667597E+03  0.89869737431E+02 0.  0.
          4    1    3    3  502    0 -0.87426394560E+02  0.18702543077E+03  0.17167689021E+04  0.17291377474E+04  0.00000000000E+00 0. -1.
         -3    1    3    3    0  502  0.61486248236E+01  0.86083890706E+01  0.20462315646E+02  0.23035110402E+02  0.00000000000E+00 0.  1.
         11    1    5    5    0    0 -0.12649320235E+03  0.17862386783E+03  0.25180015286E+03  0.33363203290E+03  0.00000000000E+00 0. -1.
        -11    1    5    5    0    0 -0.14053374101E+02  0.13563541027E+03  0.18793618556E+03  0.23219490021E+03  0.00000000000E+00 0.  1.
          2    1    6    6  503    0  0.63481016268E+02 -0.92817955827E+02  0.22151298813E+03  0.24842104633E+03  0.00000000000E+00 0. -1.
         -2    1    6    6    0  503  0.15834332992E+03 -0.41707514212E+03  0.60132830766E+03  0.74874562964E+03  0.00000000000E+00 0.  1.
<mgrwt>
<rscale>  0 0.14111965E+04</rscale>
<asrwt>0</asrwt>
<pdfrwt beam="1">  1        2 0.48576728E+00 0.14111965E+04</pdfrwt>
<pdfrwt beam="2">  1       -1 0.24258280E-01 0.14111965E+04</pdfrwt>
<totfact> 0.22828495E+01</totfact>
</mgrwt>
</event>
<event>
12    6  0.9491186E-008  0.1522406E+04  0.7818608E-02  0.8869688E-01
         -1   -1    0    0    0  501 -0.00000000000E+00  0.00000000000E+00  0.25980538380E+03  0.25980538380E+03  0.00000000000E+00 0.  1.
          2   -1    0    0  501    0  0.00000000000E+00 -0.00000000000E+00 -0.22302473935E+04  0.22302473935E+04  0.00000000000E+00 0. -1.
         24    2    1    2    0    0 -0.28746932407E+03 -0.41308639819E+03 -0.60633961544E+03  0.79195541520E+03  0.79162274849E+02 0.  0.
        254    2    1    2    0    0  0.28746932407E+03  0.41308639819E+03 -0.13641023943E+04  0.16980973621E+04  0.87720027618E+03 0.  0.
         23    2    4    4    0    0 -0.23063603225E+03  0.40270631344E+03 -0.77397403003E+03  0.90723865926E+03  0.93170979611E+02 0.  0.
         23    2    4    4    0    0  0.51810535632E+03  0.10380084753E+02 -0.59012836423E+03  0.79085870285E+03  0.93086493109E+02 0.  0.
          2    1    3    3  502    0 -0.80005539407E+02 -0.14378959901E+03 -0.14804383004E+03  0.22134432618E+03  0.00000000000E+00 0. -1.
         -3    1    3    3    0  502 -0.20746378466E+03 -0.26929679918E+03 -0.45829578540E+03  0.57061108902E+03  0.00000000000E+00 0.  1.
         11    1    5    5    0    0 -0.23124447878E+03  0.36013107875E+03 -0.67176747237E+03  0.79651738197E+03  0.00000000000E+00 0.  1.
        -11    1    5    5    0    0  0.60844653073E+00  0.42575234688E+02 -0.10220655766E+03  0.11072127729E+03  0.00000000000E+00 0. -1.
          1    1    6    6  503    0  0.99375406975E+02 -0.71220726479E+01 -0.64846584289E+02  0.11887503911E+03  0.00000000000E+00 0. -1.
         -1    1    6    6    0  503  0.41872994934E+03  0.17502157401E+02 -0.52528177994E+03  0.67198366374E+03  0.00000000000E+00 0.  1.
<mgrwt>
<rscale>  0 0.15224064E+04</rscale>
<asrwt>0</asrwt>
<pdfrwt beam="1">  1        2 0.34311498E+00 0.15224064E+04</pdfrwt>
<pdfrwt beam="2">  1       -1 0.39970060E-01 0.15224064E+04</pdfrwt>
<totfact> 0.33306496E+01</totfact>
</mgrwt>
</event>
<event>
12    6  0.9491186E-008  0.1271711E+04  0.7818608E-02  0.9052305E-01
          2   -1    0    0  501    0  0.00000000000E+00  0.00000000000E+00  0.91052826849E+03  0.91052826849E+03  0.00000000000E+00 0. -1.
         -1   -1    0    0    0  501 -0.00000000000E+00 -0.00000000000E+00 -0.44404108736E+03  0.44404108736E+03  0.00000000000E+00 0.  1.
         24    2    1    2    0    0  0.25907834914E+03 -0.32926901227E+01 -0.62229582107E+02  0.27895046759E+03  0.82513087930E+02 0.  0.
        254    2    1    2    0    0 -0.25907834914E+03  0.32926901227E+01  0.52871676323E+03  0.10756188883E+04  0.90015673316E+03 0.  0.
         23    2    4    4    0    0 -0.49588263159E+02  0.29093404039E+03  0.62406591180E+03  0.69614627096E+03  0.89776147156E+02 0.  0.
         23    2    4    4    0    0 -0.20949008598E+03 -0.28764135027E+03 -0.95349148566E+02  0.37947261730E+03  0.91018485146E+02 0.  0.
          2    1    3    3  502    0  0.61951617385E+02 -0.20481553724E+02  0.14289511118E+02  0.66795861157E+02  0.00000000000E+00 0. -1.
         -1    1    3    3    0  502  0.19712673175E+03  0.17188863602E+02 -0.76519093226E+02  0.21215460643E+03  0.00000000000E+00 0.  1.
         11    1    5    5    0    0 -0.67178453664E+02  0.12853716188E+03  0.28458038624E+03  0.31940686100E+03  0.00000000000E+00 0. -1.
        -11    1    5    5    0    0  0.17590190506E+02  0.16239687851E+03  0.33948552556E+03  0.37673940996E+03  0.00000000000E+00 0.  1.
          1    1    6    6  503    0 -0.17693114700E+03 -0.27874347501E+03 -0.10098098213E+03  0.34525311641E+03  0.00000000000E+00 0. -1.
         -1    1    6    6    0  503 -0.32558938977E+02 -0.88978752524E+01  0.56318335612E+01  0.34219500881E+02  0.00000000000E+00 0.  1.
<mgrwt>
<rscale>  0 0.12717106E+04</rscale>
<asrwt>0</asrwt>
<pdfrwt beam="1">  1        2 0.14008127E+00 0.12717106E+04</pdfrwt>
<pdfrwt beam="2">  1       -1 0.68314014E-01 0.12717106E+04</pdfrwt>
<totfact> 0.70131990E+01</totfact>
</mgrwt>
</event>
<event>
12    6  0.9491186E-008  0.1139129E+04  0.7818608E-02  0.9167872E-01
         -1   -1    0    0    0  501 -0.00000000000E+00  0.00000000000E+00  0.17923706749E+03  0.17923706749E+03  0.00000000000E+00 0.  1.
          2   -1    0    0  501    0  0.00000000000E+00 -0.00000000000E+00 -0.18099131572E+04  0.18099131572E+04  0.00000000000E+00 0. -1.
         24    2    1    2    0    0 -0.59688607290E+02  0.13287928856E+02 -0.67239874785E+03  0.67988674632E+03  0.79916286344E+02 0.  0.
        254    2    1    2    0    0  0.59688607290E+02 -0.13287928856E+02 -0.95827734184E+03  0.13092634783E+04  0.89002027670E+03 0.  0.
         23    2    4    4    0    0 -0.33147397706E+03  0.65043282819E+02 -0.79443547591E+03  0.86775855765E+03  0.88156468168E+02 0.  0.
         23    2    4    4    0    0  0.39116258435E+03 -0.78331211675E+02 -0.16384186593E+03  0.44150492069E+03  0.94543597608E+02 0.  0.
          4    1    3    3  502    0 -0.18459585204E+02  0.42413572203E+02 -0.41618360138E+03  0.41874629246E+03  0.00000000000E+00 0. -1.
         -3    1    3    3    0  502 -0.41229022086E+02 -0.29125643347E+02 -0.25621514647E+03  0.26114045386E+03  0.00000000000E+00 0.  1.
         11    1    5    5    0    0 -0.51551361797E+02  0.24991757286E+02 -0.22222451803E+03  0.22949045132E+03  0.00000000000E+00 0. -1.
        -11    1    5    5    0    0 -0.27992261526E+03  0.40051525533E+02 -0.57221095789E+03  0.63826810633E+03  0.00000000000E+00 0.  1.
          3    1    6    6  503    0  0.40277652003E+02 -0.17917179452E+02  0.10122285644E+02  0.45230246926E+02  0.00000000000E+00 0. -1.
         -3    1    6    6    0  503  0.35088493234E+03 -0.60414032223E+02 -0.17396415157E+03  0.39627467377E+03  0.00000000000E+00 0.  1.
<mgrwt>
<rscale>  0 0.11391287E+04</rscale>
<asrwt>0</asrwt>
<pdfrwt beam="1">  1        2 0.27844818E+00 0.11391287E+04</pdfrwt>
<pdfrwt beam="2">  1       -1 0.27574933E-01 0.11391287E+04</pdfrwt>
<totfact> 0.11373683E+02</totfact>
</mgrwt>
</event>
<event>
12    6  0.9491186E-008  0.3071172E+04  0.7818608E-02  0.8223694E-01
          2   -1    0    0  501    0  0.00000000000E+00  0.00000000000E+00  0.38511288961E+04  0.38511288961E+04  0.00000000000E+00 0. -1.
         -3   -1    0    0    0  501 -0.00000000000E+00 -0.00000000000E+00 -0.61229451658E+03  0.61229451658E+03  0.00000000000E+00 0.  1.
         24    2    1    2    0    0  0.10408536719E+04  0.61182732064E+03  0.25141321026E+04  0.27900971056E+04  0.77926842462E+02 0.  0.
        254    2    1    2    0    0 -0.10408536719E+04 -0.61182732064E+03  0.72470227695E+03  0.16733263071E+04  0.90394607327E+03 0.  0.
         23    2    4    4    0    0 -0.19246739006E+03  0.21929823037E+03  0.68283911746E+02  0.31334621120E+03  0.91584635135E+02 0.  0.
         23    2    4    4    0    0 -0.84838628181E+03 -0.83112555101E+03  0.65641836520E+03  0.13599800959E+04  0.90176640088E+02 0.  0.
          2    1    3    3  502    0  0.90037978508E+03  0.55491280693E+03  0.21674906865E+04  0.24117686160E+04  0.00000000000E+00 0. -1.
         -1    1    3    3    0  502  0.14047388679E+03  0.56914513710E+02  0.34664141607E+03  0.37832848964E+03  0.00000000000E+00 0.  1.
         11    1    5    5    0    0 -0.97288098594E+02  0.57399323710E+02  0.53424269474E+02  0.12495522822E+03  0.00000000000E+00 0. -1.
        -11    1    5    5    0    0 -0.95179291465E+02  0.16189890666E+03  0.14859642273E+02  0.18839098299E+03  0.00000000000E+00 0.  1.
          2    1    6    6  503    0 -0.91364438893E+02 -0.61337608196E+02  0.42358428071E+02  0.11791522082E+03  0.00000000000E+00 0. -1.
         -2    1    6    6    0  503 -0.75702184292E+03 -0.76978794282E+03  0.61405993713E+03  0.12420648751E+04  0.00000000000E+00 0.  1.
<mgrwt>
<rscale>  0 0.30711725E+04</rscale>
<asrwt>0</asrwt>
<pdfrwt beam="1">  1        2 0.59248135E+00 0.30711725E+04</pdfrwt>
<pdfrwt beam="2">  1       -3 0.94199159E-01 0.30711725E+04</pdfrwt>
<totfact> 0.24584441E-01</totfact>
</mgrwt>
</event>
<event>
12    6  0.9491186E-008  0.1993676E+04  0.7818608E-02  0.8609583E-01
         -1   -1    0    0    0  501 -0.00000000000E+00  0.00000000000E+00  0.18982707967E+04  0.18982707967E+04  0.00000000000E+00 0.  1.
          2   -1    0    0  501    0  0.00000000000E+00 -0.00000000000E+00 -0.52346900593E+03  0.52346900593E+03  0.00000000000E+00 0. -1.
         24    2    1    2    0    0 -0.48168179782E+03  0.17130731955E+03  0.12767427635E+04  0.13775584602E+04  0.78940959120E+02 0.  0.
        254    2    1    2    0    0  0.48168179782E+03 -0.17130731955E+03  0.98059027269E+02  0.10441813424E+04  0.90517155885E+03 0.  0.
         23    2    4    4    0    0 -0.18360462970E+03 -0.73708784981E+02  0.26754710863E+03  0.34507523399E+03  0.91388274650E+02 0.  0.
         23    2    4    4    0    0  0.66528642752E+03 -0.97598534566E+02 -0.16948808136E+03  0.69910610844E+03  0.88834883567E+02 0.  0.
          4    1    3    3  502    0 -0.24098670655E+02 -0.86326946456E+01  0.64649877304E+02  0.69533272464E+02  0.00000000000E+00 0. -1.
         -3    1    3    3    0  502 -0.45758312717E+03  0.17994001419E+03  0.12120928862E+04  0.13080251877E+04  0.00000000000E+00 0.  1.
         11    1    5    5    0    0 -0.18076112812E+03 -0.68130817657E+02  0.27453862564E+03  0.33569011114E+03  0.00000000000E+00 0.  1.
        -11    1    5    5    0    0 -0.28435015819E+01 -0.55779673236E+01 -0.69915170065E+01  0.93851228422E+01  0.00000000000E+00 0. -1.
          2    1    6    6  503    0  0.42131843930E+03 -0.18305925048E+02 -0.10654861026E+03  0.43496774655E+03  0.00000000000E+00 0.  1.
         -2    1    6    6    0  503  0.24396798822E+03 -0.79292609518E+02 -0.62939471104E+02  0.26413836189E+03  0.00000000000E+00 0. -1.
<mgrwt>
<rscale>  0 0.19936759E+04</rscale>
<asrwt>0</asrwt>
<pdfrwt beam="1">  1        2 0.80533694E-01 0.19936759E+04</pdfrwt>
<pdfrwt beam="2">  1       -1 0.29204166E+00 0.19936759E+04</pdfrwt>
<totfact> 0.23059121E+00</totfact>
</mgrwt>
</event>
<event>
12    6  0.9491186E-008  0.2042750E+04  0.7818608E-02  0.8586891E-01
          2   -1    0    0  501    0  0.00000000000E+00  0.00000000000E+00  0.23120810342E+04  0.23120810342E+04  0.00000000000E+00 0. -1.
         -1   -1    0    0    0  501 -0.00000000000E+00 -0.00000000000E+00 -0.45119815007E+03  0.45119815007E+03  0.00000000000E+00 0.  1.
         24    2    1    2    0    0  0.20991468994E+03 -0.62864967761E+03  0.14003109270E+04  0.15512812971E+04  0.79613920421E+02 0.  0.
        254    2    1    2    0    0 -0.20991468994E+03  0.62864967761E+03  0.46057195715E+03  0.12119978872E+04  0.90418347506E+03 0.  0.
         23    2    4    4    0    0 -0.61887625834E+01  0.14932018049E+03 -0.26284700752E+03  0.31580074278E+03  0.91141333625E+02 0.  0.
         23    2    4    4    0    0 -0.20372592736E+03  0.47932949712E+03  0.72341896468E+03  0.89619714439E+03  0.92592131790E+02 0.  0.
          2    1    3    3  502    0  0.18214205447E+03 -0.49461986987E+03  0.10422763289E+04  0.11679745244E+04  0.00000000000E+00 0. -1.
         -1    1    3    3    0  502  0.27772635468E+02 -0.13402980774E+03  0.35803459801E+03  0.38330677272E+03  0.00000000000E+00 0.  1.
         11    1    5    5    0    0 -0.20289665571E+02  0.73477409542E+01 -0.66908307563E+01  0.22592632479E+02  0.00000000000E+00 0.  1.
        -11    1    5    5    0    0  0.14100902987E+02  0.14197243954E+03 -0.25615617677E+03  0.29320811030E+03  0.00000000000E+00 0. -1.
          2    1    6    6  503    0 -0.20435323001E+03  0.47524689724E+03  0.72590230275E+03  0.89137759063E+03  0.00000000000E+00 0. -1.
         -2    1    6    6    0  503  0.62730264829E+00  0.40825998817E+01 -0.24833380727E+01  0.48195537542E+01  0.00000000000E+00 0.  1.
<mgrwt>
<rscale>  0 0.20427498E+04</rscale>
<asrwt>0</asrwt>
<pdfrwt beam="1">  1        2 0.35570477E+00 0.20427498E+04</pdfrwt>
<pdfrwt beam="2">  1       -1 0.69415101E-01 0.20427498E+04</pdfrwt>
<totfact> 0.98736021E+00</totfact>
</mgrwt>
</event>
<event>
12    6  0.9491186E-008  0.2426787E+04  0.7818608E-02  0.8429542E-01
         -1   -1    0    0    0  501 -0.00000000000E+00  0.00000000000E+00  0.97321679800E+03  0.97321679800E+03  0.00000000000E+00 0.  1.
          2   -1    0    0  501    0  0.00000000000E+00 -0.00000000000E+00 -0.15128430365E+04  0.15128430365E+04  0.00000000000E+00 0. -1.
         24    2    1    2    0    0  0.20015058273E+03 -0.10086077626E+04 -0.11675120752E+03  0.10378233673E+04  0.78080872110E+02 0.  0.
        254    2    1    2    0    0 -0.20015058273E+03  0.10086077626E+04 -0.42287503093E+03  0.14482364672E+04  0.92801707877E+03 0.  0.
         23    2    4    4    0    0 -0.31211168531E+03  0.42222651731E+03 -0.61561053247E+03  0.81428414888E+03  0.91615563160E+02 0.  0.
         23    2    4    4    0    0  0.11196110257E+03  0.58638124532E+03  0.19273550153E+03  0.63395231830E+03  0.91489425497E+02 0.  0.
          4    1    3    3  502    0  0.18531914358E+02 -0.28981567552E+02 -0.98655380018E+01  0.35786756595E+02  0.00000000000E+00 0. -1.
         -3    1    3    3    0  502  0.18161866837E+03 -0.97962619508E+03 -0.10688566952E+03  0.10020366107E+04  0.00000000000E+00 0.  1.
         11    1    5    5    0    0 -0.25927022627E+03  0.34450727354E+03 -0.55356202935E+03  0.70166746546E+03  0.00000000000E+00 0. -1.
        -11    1    5    5    0    0 -0.52841459039E+02  0.77719243775E+02 -0.62048503122E+02  0.11261668343E+03  0.00000000000E+00 0.  1.
          3    1    6    6  503    0  0.48871834790E+02  0.45845366190E+03  0.15497257088E+03  0.48639974720E+03  0.00000000000E+00 0. -1.
         -3    1    6    6    0  503  0.63089267784E+02  0.12792758342E+03  0.37762930653E+02  0.14755257110E+03  0.00000000000E+00 0.  1.
<mgrwt>
<rscale>  0 0.24267874E+04</rscale>
<asrwt>0</asrwt>
<pdfrwt beam="1">  1        2 0.23274508E+00 0.24267874E+04</pdfrwt>
<pdfrwt beam="2">  1       -1 0.14972566E+00 0.24267874E+04</pdfrwt>
<totfact> 0.44735490E+00</totfact>
</mgrwt>
</event>
<event>
12    6  0.9491186E-008  0.1977650E+04  0.7818608E-02  0.8617142E-01
         -1   -1    0    0    0  501 -0.00000000000E+00  0.00000000000E+00  0.11647543725E+04  0.11647543725E+04  0.00000000000E+00 0.  1.
          2   -1    0    0  501    0  0.00000000000E+00 -0.00000000000E+00 -0.83946892531E+03  0.83946892531E+03  0.00000000000E+00 0. -1.
         24    2    1    2    0    0  0.28438484929E+03 -0.64347775727E+03  0.49631485848E+03  0.86479065216E+03  0.81216172643E+02 0.  0.
        254    2    1    2    0    0 -0.28438484929E+03  0.64347775727E+03 -0.17102941126E+03  0.11394326457E+04  0.87983937621E+03 0.  0.
         23    2    4    4    0    0 -0.85106592473E+02  0.76388990621E+03  0.88585910596E+02  0.77901296196E+03  0.90789924927E+02 0.  0.
         23    2    4    4    0    0 -0.19927825682E+03 -0.12041214893E+03 -0.25961532186E+03  0.36041968372E+03  0.91056706617E+02 0.  0.
          2    1    3    3  502    0  0.20107652479E+03 -0.43347719984E+03  0.38099202887E+03  0.61113760943E+03  0.00000000000E+00 0. -1.
         -1    1    3    3    0  502  0.83308324505E+02 -0.21000055743E+03  0.11532282961E+03  0.25365304272E+03  0.00000000000E+00 0.  1.
         11    1    5    5    0    0 -0.47721129503E+02  0.63804701541E+03  0.48106459733E+02  0.64163504545E+03  0.00000000000E+00 0.  1.
        -11    1    5    5    0    0 -0.37385462970E+02  0.12584289079E+03  0.40479450863E+02  0.13737791652E+03  0.00000000000E+00 0. -1.
          1    1    6    6  503    0 -0.42281569941E+02 -0.40435981368E+02 -0.12722002372E+03  0.14002761935E+03  0.00000000000E+00 0. -1.
         -1    1    6    6    0  503 -0.15699668688E+03 -0.79976167563E+02 -0.13239529814E+03  0.22039206437E+03  0.00000000000E+00 0.  1.
<mgrwt>
<rscale>  0 0.19776502E+04</rscale>
<asrwt>0</asrwt>
<pdfrwt beam="1">  1        2 0.12914907E+00 0.19776502E+04</pdfrwt>
<pdfrwt beam="2">  1       -1 0.17919298E+00 0.19776502E+04</pdfrwt>
<totfact> 0.72316403E+00</totfact>
</mgrwt>
</event>
<event>
12    6  0.9491186E-008  0.3035218E+04  0.7818608E-02  0.8233745E-01
         -1   -1    0    0    0  501 -0.00000000000E+00  0.00000000000E+00  0.91521615416E+03  0.91521615416E+03  0.00000000000E+00 0.  1.
          2   -1    0    0  501    0  0.00000000000E+00 -0.00000000000E+00 -0.25164947423E+04  0.25164947423E+04  0.00000000000E+00 0. -1.
         24    2    1    2    0    0 -0.10068362428E+03  0.10289691065E+04 -0.17721932290E+04  0.20532654958E+04  0.79471635384E+02 0.  0.
        254    2    1    2    0    0  0.10068362428E+03 -0.10289691065E+04  0.17091464091E+03  0.13784454007E+04  0.89553631630E+03 0.  0.
         23    2    4    4    0    0  0.10631850194E+03 -0.11769030227E+04  0.19606953937E+03  0.12019297607E+04  0.98931980412E+02 0.  0.
         23    2    4    4    0    0 -0.56348776594E+01  0.14793391618E+03 -0.25154898456E+02  0.17651563996E+03  0.92783656056E+02 0.  0.
          4    1    3    3  502    0 -0.11208963655E+03  0.95273056832E+03 -0.16570656260E+04  0.19147130624E+04  0.00000000000E+00 0. -1.
         -3    1    3    3    0  502  0.11406012267E+02  0.76238538171E+02 -0.11512760309E+03  0.13855243344E+03  0.00000000000E+00 0.  1.
         11    1    5    5    0    0  0.47039407621E+02 -0.93845597930E+03  0.16939248073E+03  0.95478067821E+03  0.00000000000E+00 0. -1.
        -11    1    5    5    0    0  0.59279094323E+02 -0.23844704337E+03  0.26677058642E+02  0.24714908248E+03  0.00000000000E+00 0.  1.
          3    1    6    6  503    0  0.16106630511E+02  0.91387740314E+02 -0.56153500822E+02  0.10846362653E+03  0.00000000000E+00 0. -1.
         -3    1    6    6    0  503 -0.21741508171E+02  0.56546175869E+02  0.30998602366E+02  0.68052013428E+02  0.00000000000E+00 0.  1.
<mgrwt>
<rscale>  0 0.30352177E+04</rscale>
<asrwt>0</asrwt>
<pdfrwt beam="1">  1        2 0.38715303E+00 0.30352177E+04</pdfrwt>
<pdfrwt beam="2">  1       -1 0.14080249E+00 0.30352177E+04</pdfrwt>
<totfact> 0.13637350E+00</totfact>
</mgrwt>
</event>
<event>
12    6  0.9491186E-008  0.2283290E+04  0.7818608E-02  0.8484539E-01
         -1   -1    0    0    0  501 -0.00000000000E+00  0.00000000000E+00  0.54432519564E+03  0.54432519564E+03  0.00000000000E+00 0.  1.
          2   -1    0    0  501    0  0.00000000000E+00 -0.00000000000E+00 -0.23944396951E+04  0.23944396951E+04  0.00000000000E+00 0. -1.
         24    2    1    2    0    0 -0.63147183237E+03 -0.22391521136E+03 -0.16644962798E+04  0.17960038589E+04  0.78659384456E+02 0.  0.
        254    2    1    2    0    0  0.63147183237E+03  0.22391521136E+03 -0.18561821968E+03  0.11427610319E+04  0.90694760350E+03 0.  0.
         23    2    4    4    0    0  0.18210050606E+03  0.53448748546E+03 -0.58926461890E+02  0.57476372644E+03  0.89685823280E+02 0.  0.
         23    2    4    4    0    0  0.44937132631E+03 -0.31057227410E+03 -0.12669175779E+03  0.56799730542E+03  0.90445625243E+02 0.  0.
          2    1    3    3  502    0 -0.10249156767E+03 -0.58734056051E+02 -0.23961474090E+03  0.26715058458E+03  0.00000000000E+00 0. -1.
         -1    1    3    3    0  502 -0.52898026471E+03 -0.16518115531E+03 -0.14248815389E+04  0.15288532743E+04  0.00000000000E+00 0.  1.
         11    1    5    5    0    0  0.79061042481E+02  0.20407172783E+03  0.20018854575E+02  0.21976504061E+03  0.00000000000E+00 0. -1.
        -11    1    5    5    0    0  0.10303946358E+03  0.33041575763E+03 -0.78945316465E+02  0.35499868583E+03  0.00000000000E+00 0.  1.
          4    1    6    6  503    0  0.13158346414E+03 -0.99562881301E+02 -0.80976425578E+02  0.18380467042E+03  0.00000000000E+00 0. -1.
         -4    1    6    6    0  503  0.31778786217E+03 -0.21100939280E+03 -0.45715332210E+02  0.38419263500E+03  0.00000000000E+00 0.  1.
<mgrwt>
<rscale>  0 0.22832905E+04</rscale>
<asrwt>0</asrwt>
<pdfrwt beam="1">  1        2 0.36837534E+00 0.22832905E+04</pdfrwt>
<pdfrwt beam="2">  1       -1 0.83742338E-01 0.22832905E+04</pdfrwt>
<totfact> 0.58492666E+00</totfact>
</mgrwt>
</event>
<event>
12    6  0.9491186E-008  0.1173570E+04  0.7818608E-02  0.9136310E-01
          2   -1    0    0  501    0  0.00000000000E+00  0.00000000000E+00  0.16155185461E+04  0.16155185461E+04  0.00000000000E+00 0. -1.
         -1   -1    0    0    0  501 -0.00000000000E+00 -0.00000000000E+00 -0.21313085704E+03  0.21313085704E+03  0.00000000000E+00 0.  1.
         24    2    1    2    0    0 -0.66452246195E+01  0.22453961982E+03  0.19575938720E+03  0.30813971908E+03  0.78524829935E+02 0.  0.
        254    2    1    2    0    0  0.66452246195E+01 -0.22453961982E+03  0.12066283018E+04  0.15205096840E+04  0.89751637343E+03 0.  0.
         23    2    4    4    0    0  0.23173136252E+03 -0.37845324347E+03  0.11377181803E+04  0.12245788136E+04  0.90908366207E+02 0.  0.
         23    2    4    4    0    0 -0.22508613790E+03  0.15391362365E+03  0.68910121573E+02  0.29593087048E+03  0.92050541718E+02 0.  0.
          2    1    3    3  502    0 -0.20490836169E+02  0.22047580373E+02  0.68594612069E+01  0.30871060482E+02  0.00000000000E+00 0. -1.
         -1    1    3    3    0  502  0.13845611550E+02  0.20249203945E+03  0.18889992599E+03  0.27726865860E+03  0.00000000000E+00 0.  1.
         11    1    5    5    0    0  0.80253091814E+02 -0.63039314690E+02  0.22383620862E+03  0.24600236225E+03  0.00000000000E+00 0. -1.
        -11    1    5    5    0    0  0.15147827070E+03 -0.31541392878E+03  0.91388197164E+03  0.97857645130E+03  0.00000000000E+00 0.  1.
          2    1    6    6  503    0 -0.93173049312E+01  0.32517887395E+02 -0.11337183564E+02  0.35675718675E+02  0.00000000000E+00 0. -1.
         -2    1    6    6    0  503 -0.21576883297E+03  0.12139573625E+03  0.80247305137E+02  0.26025515181E+03  0.00000000000E+00 0.  1.
<mgrwt>
<rscale>  0 0.11735704E+04</rscale>
<asrwt>0</asrwt>
<pdfrwt beam="1">  1        2 0.24854131E+00 0.11735704E+04</pdfrwt>
<pdfrwt beam="2">  1       -1 0.32789364E-01 0.11735704E+04</pdfrwt>
<totfact> 0.10729625E+02</totfact>
</mgrwt>
</event>
<event>
12    6  0.9491186E-008  0.1707791E+04  0.7818608E-02  0.8756933E-01
         -1   -1    0    0    0  501 -0.00000000000E+00  0.00000000000E+00  0.29975618854E+03  0.29975618854E+03  0.00000000000E+00 0.  1.
          2   -1    0    0  501    0  0.00000000000E+00 -0.00000000000E+00 -0.24324346548E+04  0.24324346548E+04  0.00000000000E+00 0. -1.
         24    2    1    2    0    0  0.22951699913E+03 -0.91879247688E+02  0.12411773868E+03  0.28781289821E+03  0.79443075698E+02 0.  0.
        254    2    1    2    0    0 -0.22951699913E+03  0.91879247688E+02 -0.22567962050E+04  0.24443779452E+04  0.90594402640E+03 0.  0.
         23    2    4    4    0    0 -0.55939558854E+03  0.11287066429E+02 -0.16252542965E+04  0.17214078672E+04  0.93502377738E+02 0.  0.
         23    2    4    4    0    0  0.32987858941E+03  0.80592181258E+02 -0.63154190845E+03  0.72297007793E+03  0.92334002578E+02 0.  0.
          2    1    3    3  502    0  0.10783133448E+03 -0.29314236913E+02  0.97755184233E+02  0.14846884261E+03  0.00000000000E+00 0. -1.
         -1    1    3    3    0  502  0.12168566465E+03 -0.62565010775E+02  0.26362554449E+02  0.13934405560E+03  0.00000000000E+00 0.  1.
         11    1    5    5    0    0 -0.50828477421E+03 -0.13113089901E+02 -0.14118188687E+04  0.15005858465E+04  0.00000000000E+00 0. -1.
        -11    1    5    5    0    0 -0.51110814328E+02  0.24400156331E+02 -0.21343542783E+03  0.22082202070E+03  0.00000000000E+00 0.  1.
          1    1    6    6  503    0  0.33515536237E+03  0.83791257920E+02 -0.61625112591E+03  0.70648109813E+03  0.00000000000E+00 0. -1.
         -1    1    6    6    0  503 -0.52767729613E+01 -0.31990766619E+01 -0.15290782539E+02  0.16488979806E+02  0.00000000000E+00 0.  1.
<mgrwt>
<rscale>  0 0.17077908E+04</rscale>
<asrwt>0</asrwt>
<pdfrwt beam="1">  1        2 0.37422070E+00 0.17077908E+04</pdfrwt>
<pdfrwt beam="2">  1       -1 0.46116338E-01 0.17077908E+04</pdfrwt>
<totfact> 0.19316417E+01</totfact>
</mgrwt>
</event>
<event>
12    6  0.9491186E-008  0.2053612E+04  0.7818608E-02  0.8581958E-01
          2   -1    0    0  501    0  0.00000000000E+00  0.00000000000E+00  0.15731512096E+04  0.15731512096E+04  0.00000000000E+00 0. -1.
         -1   -1    0    0    0  501 -0.00000000000E+00 -0.00000000000E+00 -0.67020280412E+03  0.67020280412E+03  0.00000000000E+00 0.  1.
         24    2    1    2    0    0 -0.13672459806E+03  0.74611988435E+03  0.72424649876E+03  0.10519601961E+04  0.81845987170E+02 0.  0.
        254    2    1    2    0    0  0.13672459806E+03 -0.74611988435E+03  0.17870190675E+03  0.11913938177E+04  0.90116389177E+03 0.  0.
         23    2    4    4    0    0 -0.17432759522E+03 -0.15583910183E+03 -0.27991680438E+03  0.37566942771E+03  0.89989807372E+02 0.  0.
         23    2    4    4    0    0  0.31105219328E+03 -0.59028078252E+03  0.45861871113E+03  0.81572438998E+03  0.99449932407E+02 0.  0.
          2    1    3    3  502    0 -0.14170060093E+02  0.19735461334E+03  0.15023598584E+03  0.24843607920E+03  0.00000000000E+00 0. -1.
         -1    1    3    3    0  502 -0.12255453797E+03  0.54876527101E+03  0.57401051292E+03  0.80352411687E+03  0.00000000000E+00 0.  1.
         11    1    5    5    0    0 -0.51992854771E+02 -0.10589603810E+03 -0.12095466623E+03  0.16895934160E+03  0.00000000000E+00 0.  1.
        -11    1    5    5    0    0 -0.12233474045E+03 -0.49943063735E+02 -0.15896213815E+03  0.20671008611E+03  0.00000000000E+00 0. -1.
          3    1    6    6  503    0  0.30096720216E+03 -0.56885939872E+03  0.41405253539E+03  0.76525928570E+03  0.00000000000E+00 0. -1.
         -3    1    6    6    0  503  0.10084991126E+02 -0.21421383791E+02  0.44566175742E+02  0.50465104278E+02  0.00000000000E+00 0.  1.
<mgrwt>
<rscale>  0 0.20536118E+04</rscale>
<asrwt>0</asrwt>
<pdfrwt beam="1">  1        2 0.24202326E+00 0.20536118E+04</pdfrwt>
<pdfrwt beam="2">  1       -1 0.10310812E+00 0.20536118E+04</pdfrwt>
<totfact> 0.10805022E+01</totfact>
</mgrwt>
</event>
<event>
12    6  0.9491186E-008  0.2060384E+04  0.7818608E-02  0.8578898E-01
         -1   -1    0    0    0  501 -0.00000000000E+00  0.00000000000E+00  0.24247424135E+04  0.24247424135E+04  0.00000000000E+00 0.  1.
          2   -1    0    0  501    0  0.00000000000E+00 -0.00000000000E+00 -0.43769412734E+03  0.43769412734E+03  0.00000000000E+00 0. -1.
         24    2    1    2    0    0 -0.10606749713E+03 -0.44245782626E+03  0.17831858526E+04  0.18421730751E+04  0.82647514896E+02 0.  0.
        254    2    1    2    0    0  0.10606749713E+03  0.44245782626E+03  0.20386243355E+03  0.10202634657E+04  0.89014515992E+03 0.  0.
         23    2    4    4    0    0 -0.15696011016E+03  0.13437307017E+03  0.47344773638E+03  0.52449180425E+03  0.90809115559E+02 0.  0.
         23    2    4    4    0    0  0.26302760730E+03  0.30808475609E+03 -0.26958530283E+03  0.49577166148E+03  0.94939800318E+02 0.  0.
          4    1    3    3  502    0 -0.40626808571E+02 -0.15934473279E+03  0.81039727653E+03  0.82691295022E+03  0.00000000000E+00 0. -1.
         -3    1    3    3    0  502 -0.65440688563E+02 -0.28311309347E+03  0.97278857604E+03  0.10152601248E+04  0.00000000000E+00 0.  1.
         11    1    5    5    0    0 -0.84213398233E+02  0.75786744926E+02  0.36073068530E+03  0.37810336479E+03  0.00000000000E+00 0.  1.
        -11    1    5    5    0    0 -0.72746711932E+02  0.58586325240E+02  0.11271705108E+03  0.14638843945E+03  0.00000000000E+00 0. -1.
          2    1    6    6  503    0  0.13124694183E+03  0.83522744739E+02 -0.10676018287E+03  0.18867841761E+03  0.00000000000E+00 0. -1.
         -2    1    6    6    0  503  0.13178066547E+03  0.22456201135E+03 -0.16282511997E+03  0.30709324386E+03  0.00000000000E+00 0.  1.
<mgrwt>
<rscale>  0 0.20603840E+04</rscale>
<asrwt>0</asrwt>
<pdfrwt beam="1">  1        2 0.67337559E-01 0.20603840E+04</pdfrwt>
<pdfrwt beam="2">  1       -1 0.37303729E+00 0.20603840E+04</pdfrwt>
<totfact> 0.82796230E-01</totfact>
</mgrwt>
</event>
<event>
12    6  0.9491186E-008  0.1286464E+04  0.7818608E-02  0.9040369E-01
         -1   -1    0    0    0  501 -0.00000000000E+00  0.00000000000E+00  0.25919192684E+03  0.25919192684E+03  0.00000000000E+00 0.  1.
          2   -1    0    0  501    0  0.00000000000E+00 -0.00000000000E+00 -0.15962966639E+04  0.15962966639E+04  0.00000000000E+00 0. -1.
         24    2    1    2    0    0  0.11931006432E+03 -0.15521284340E+03 -0.72212240054E+03  0.75222571282E+03  0.77825724934E+02 0.  0.
        254    2    1    2    0    0 -0.11931006432E+03  0.15521284340E+03 -0.61498233654E+03  0.11032628779E+04  0.89479594622E+03 0.  0.
         23    2    4    4    0    0 -0.39574899207E+03 -0.89003345281E+02 -0.58871983470E+03  0.72073389921E+03  0.91254860194E+02 0.  0.
         23    2    4    4    0    0  0.27643892775E+03  0.24421618868E+03 -0.26262501838E+02  0.38252897872E+03  0.97870695158E+02 0.  0.
          4    1    3    3  502    0  0.10311602489E+03 -0.13511958210E+03 -0.48938001043E+03  0.51805695697E+03  0.00000000000E+00 0. -1.
         -3    1    3    3    0  502  0.16194039431E+02 -0.20093261303E+02 -0.23274239011E+03  0.23416875585E+03  0.00000000000E+00 0.  1.
         11    1    5    5    0    0 -0.19289822940E+03  0.31685780565E+01 -0.27807217666E+03  0.33844335157E+03  0.00000000000E+00 0.  1.
        -11    1    5    5    0    0 -0.20285076267E+03 -0.92171923337E+02 -0.31064765804E+03  0.38229054764E+03  0.00000000000E+00 0. -1.
          3    1    6    6  503    0  0.69434594716E+02  0.11650475671E+03  0.12612402250E+02  0.13621157796E+03  0.00000000000E+00 0. -1.
         -3    1    6    6    0  503  0.20700433304E+03  0.12771143197E+03 -0.38874904087E+02  0.24631740076E+03  0.00000000000E+00 0.  1.
<mgrwt>
<rscale>  0 0.12864637E+04</rscale>
<asrwt>0</asrwt>
<pdfrwt beam="1">  1        2 0.24558410E+00 0.12864637E+04</pdfrwt>
<pdfrwt beam="2">  1       -1 0.39875682E-01 0.12864637E+04</pdfrwt>
<totfact> 0.76707527E+01</totfact>
</mgrwt>
</event>
<event>
12    6  0.9491186E-008  0.4109398E+04  0.7818608E-02  0.7982834E-01
          2   -1    0    0  501    0  0.00000000000E+00  0.00000000000E+00  0.32211268504E+04  0.32211268504E+04  0.00000000000E+00 0. -1.
         -1   -1    0    0    0  501 -0.00000000000E+00 -0.00000000000E+00 -0.13106554446E+04  0.13106554446E+04  0.00000000000E+00 0.  1.
         24    2    1    2    0    0 -0.99915348277E+03 -0.16629692955E+04  0.62945504671E+03  0.20411725313E+04  0.79981791232E+02 0.  0.
        254    2    1    2    0    0  0.99915348277E+03  0.16629692955E+04  0.12810163591E+04  0.24906097637E+04  0.89350966599E+03 0.  0.
         23    2    4    4    0    0  0.36081889425E+03  0.22874816534E+02  0.19774171424E+03  0.42194207801E+03  0.90663112475E+02 0.  0.
         23    2    4    4    0    0  0.63833458852E+03  0.16400944789E+04  0.10832746448E+04  0.20686676857E+04  0.92309756302E+02 0.  0.
          4    1    3    3  502    0 -0.78774846789E+03 -0.13101391224E+04  0.46131772209E+03  0.15968175254E+04  0.00000000000E+00 0. -1.
         -3    1    3    3    0  502 -0.21140501488E+03 -0.35283017305E+03  0.16813732463E+03  0.44435500590E+03  0.00000000000E+00 0.  1.
         11    1    5    5    0    0  0.31398545653E+03  0.57258438371E+01  0.13508549122E+03  0.34185924317E+03  0.00000000000E+00 0. -1.
        -11    1    5    5    0    0  0.46833437722E+02  0.17148972697E+02  0.62656223018E+02  0.80082834842E+02  0.00000000000E+00 0.  1.
          1    1    6    6  503    0  0.51201308886E+03  0.13987496800E+04  0.89896942053E+03  0.17397712750E+04  0.00000000000E+00 0. -1.
         -1    1    6    6    0  503  0.12632149966E+03  0.24134479896E+03  0.18430522429E+03  0.32889641068E+03  0.00000000000E+00 0.  1.
<mgrwt>
<rscale>  0 0.41093977E+04</rscale>
<asrwt>0</asrwt>
<pdfrwt beam="1">  1        2 0.49555798E+00 0.41093977E+04</pdfrwt>
<pdfrwt beam="2">  1       -1 0.20163930E+00 0.41093977E+04</pdfrwt>
<totfact> 0.16335288E-01</totfact>
</mgrwt>
</event>
<event>
12    6  0.9491186E-008  0.1895717E+04  0.7818608E-02  0.8656991E-01
         -1   -1    0    0    0  501 -0.00000000000E+00  0.00000000000E+00  0.30681549528E+03  0.30681549528E+03  0.00000000000E+00 0.  1.
          2   -1    0    0  501    0  0.00000000000E+00 -0.00000000000E+00 -0.29282610608E+04  0.29282610608E+04  0.00000000000E+00 0. -1.
         24    2    1    2    0    0 -0.10350205617E+03 -0.40293445974E+03  0.10505725417E+02  0.42362727131E+03  0.79251752396E+02 0.  0.
        254    2    1    2    0    0  0.10350205617E+03  0.40293445974E+03 -0.26319512910E+04  0.28114492848E+04  0.89666639754E+03 0.  0.
         23    2    4    4    0    0 -0.15112984838E+03 -0.23555015268E+03 -0.82189991317E+03  0.87302713779E+03  0.91284229440E+02 0.  0.
         23    2    4    4    0    0  0.25463190455E+03  0.63848461242E+03 -0.18100513778E+04  0.19384221470E+04  0.93243887912E+02 0.  0.
          4    1    3    3  502    0 -0.10826116063E+02 -0.32369527800E+01 -0.63847531789E+01  0.12978741290E+02  0.00000000000E+00 0. -1.
         -3    1    3    3    0  502 -0.92675940107E+02 -0.39969750696E+03  0.16890478596E+02  0.41064853002E+03  0.00000000000E+00 0.  1.
         11    1    5    5    0    0 -0.13252056354E+03 -0.23411983177E+03 -0.80117777866E+03  0.84513882198E+03  0.00000000000E+00 0.  1.
        -11    1    5    5    0    0 -0.18609284840E+02 -0.14303209086E+01 -0.20722134507E+02  0.27888315810E+02  0.00000000000E+00 0. -1.
          3    1    6    6  503    0  0.90195779405E+02  0.33441870907E+03 -0.83946962517E+03  0.90811915693E+03  0.00000000000E+00 0. -1.
         -3    1    6    6    0  503  0.16443612515E+03  0.30406590335E+03 -0.97058175263E+03  0.10303029901E+04  0.00000000000E+00 0.  1.
<mgrwt>
<rscale>  0 0.18957171E+04</rscale>
<asrwt>0</asrwt>
<pdfrwt beam="1">  1        2 0.45050170E+00 0.18957171E+04</pdfrwt>
<pdfrwt beam="2">  1       -1 0.47202384E-01 0.18957171E+04</pdfrwt>
<totfact> 0.92399414E+00</totfact>
</mgrwt>
</event>
<event>
12    6  0.9491186E-008  0.1406024E+04  0.7818608E-02  0.8949469E-01
         -1   -1    0    0    0  501 -0.00000000000E+00  0.00000000000E+00  0.65661720696E+03  0.65661720696E+03  0.00000000000E+00 0.  1.
          2   -1    0    0  501    0  0.00000000000E+00 -0.00000000000E+00 -0.75268536676E+03  0.75268536676E+03  0.00000000000E+00 0. -1.
         24    2    1    2    0    0  0.76786914911E+02 -0.33739000260E+03  0.21628546314E+03  0.41563456809E+03  0.79021822740E+02 0.  0.
        254    2    1    2    0    0 -0.76786914911E+02  0.33739000260E+03 -0.31235362295E+03  0.99366800562E+03  0.87754377411E+03 0.  0.
         23    2    4    4    0    0  0.13422565431E+03  0.55401519056E+03 -0.35215523599E+03  0.67587560311E+03  0.88572924785E+02 0.  0.
         23    2    4    4    0    0 -0.21101256922E+03 -0.21662518796E+03  0.39801613039E+02  0.31779240251E+03  0.89191178201E+02 0.  0.
          2    1    3    3  502    0 -0.85178797289E+01 -0.62921612172E+01  0.16581119977E+02  0.19674326101E+02  0.00000000000E+00 0. -1.
         -1    1    3    3    0  502  0.85304794640E+02 -0.33109784138E+03  0.19970434317E+03  0.39596024199E+03  0.00000000000E+00 0.  1.
         11    1    5    5    0    0  0.54252377527E+02  0.83274717532E+02 -0.59179091498E+02  0.11567265847E+03  0.00000000000E+00 0.  1.
        -11    1    5    5    0    0  0.79973276783E+02  0.47074047302E+03 -0.29297614449E+03  0.56020294464E+03  0.00000000000E+00 0. -1.
          4    1    6    6  503    0 -0.19278285699E+03 -0.19413184446E+03  0.65059632919E+01  0.27366901640E+03  0.00000000000E+00 0. -1.
         -4    1    6    6    0  503 -0.18229712234E+02 -0.22493343501E+02  0.33295649747E+02  0.44123386113E+02  0.00000000000E+00 0.  1.
<mgrwt>
<rscale>  0 0.14060244E+04</rscale>
<asrwt>0</asrwt>
<pdfrwt beam="1">  1        2 0.11579775E+00 0.14060244E+04</pdfrwt>
<pdfrwt beam="2">  1       -1 0.10101803E+00 0.14060244E+04</pdfrwt>
<totfact> 0.38631439E+01</totfact>
</mgrwt>
</event>
<event>
12    6  0.9491186E-008  0.1845513E+04  0.7818608E-02  0.8682464E-01
         -1   -1    0    0    0  501 -0.00000000000E+00  0.00000000000E+00  0.68167737791E+03  0.68167737791E+03  0.00000000000E+00 0.  1.
          2   -1    0    0  501    0  0.00000000000E+00 -0.00000000000E+00 -0.12490941821E+04  0.12490941821E+04  0.00000000000E+00 0. -1.
         24    2    1    2    0    0 -0.49291100791E+03 -0.45227295555E+03  0.13727631554E+02  0.67395452889E+03  0.80710415152E+02 0.  0.
        254    2    1    2    0    0  0.49291100791E+03  0.45227295555E+03 -0.58114443571E+03  0.12568170311E+04  0.89126208627E+03 0.  0.
         23    2    4    4    0    0 -0.18124826727E+03 -0.10828824634E+03 -0.15203211333E+03  0.27643909766E+03  0.93421263892E+02 0.  0.
         23    2    4    4    0    0  0.67415927517E+03  0.56056120189E+03 -0.42911232238E+03  0.98037793342E+03  0.91016030196E+02 0.  0.
          2    1    3    3  502    0 -0.16727734917E+03 -0.19540155769E+03  0.29452803988E+02  0.25890335640E+03  0.00000000000E+00 0. -1.
         -1    1    3    3    0  502 -0.32563365874E+03 -0.25687139786E+03 -0.15725172433E+02  0.41505117249E+03  0.00000000000E+00 0.  1.
         11    1    5    5    0    0 -0.76974367454E+02 -0.39717831876E+02 -0.97261169928E+01  0.87161670278E+02  0.00000000000E+00 0. -1.
        -11    1    5    5    0    0 -0.10427389981E+03 -0.68570414469E+02 -0.14230599634E+03  0.18927742738E+03  0.00000000000E+00 0.  1.
          2    1    6    6  503    0  0.23988021116E+03  0.19755872023E+03 -0.20117654431E+03  0.37019449702E+03  0.00000000000E+00 0. -1.
         -2    1    6    6    0  503  0.43427906401E+03  0.36300248166E+03 -0.22793577807E+03  0.61018343640E+03  0.00000000000E+00 0.  1.
<mgrwt>
<rscale>  0 0.18455127E+04</rscale>
<asrwt>0</asrwt>
<pdfrwt beam="1">  1        2 0.19216833E+00 0.18455127E+04</pdfrwt>
<pdfrwt beam="2">  1       -1 0.10487344E+00 0.18455127E+04</pdfrwt>
<totfact> 0.16216090E+01</totfact>
</mgrwt>
</event>
<event>
12    6  0.9491186E-008  0.1395715E+04  0.7818608E-02  0.8956926E-01
          2   -1    0    0  501    0  0.00000000000E+00  0.00000000000E+00  0.28498337946E+04  0.28498337946E+04  0.00000000000E+00 0. -1.
         -1   -1    0    0    0  501 -0.00000000000E+00 -0.00000000000E+00 -0.17088886537E+03  0.17088886537E+03  0.00000000000E+00 0.  1.
         24    2    1    2    0    0  0.74585608662E+02  0.38060724087E+03  0.10781942222E+04  0.11485240832E+04  0.78612365231E+02 0.  0.
        254    2    1    2    0    0 -0.74585608662E+02 -0.38060724087E+03  0.16007507070E+04  0.18721985768E+04  0.89011224021E+03 0.  0.
         23    2    4    4    0    0  0.28981462130E+03  0.50167079718E+02  0.22202470126E+03  0.37947272527E+03  0.90528065525E+02 0.  0.
         23    2    4    4    0    0 -0.36440022996E+03 -0.43077432059E+03  0.13787260057E+04  0.14927258515E+04  0.94821021045E+02 0.  0.
          4    1    3    3  502    0  0.50444003056E+02  0.27754094843E+03  0.67293299809E+03  0.72966594783E+03  0.00000000000E+00 0. -1.
         -3    1    3    3    0  502  0.24141605605E+02  0.10306629244E+03  0.40526122411E+03  0.41885813533E+03  0.00000000000E+00 0.  1.
         11    1    5    5    0    0  0.16481293930E+03  0.22402519787E+02  0.69343867424E+02  0.18020474412E+03  0.00000000000E+00 0. -1.
        -11    1    5    5    0    0  0.12500168200E+03  0.27764559931E+02  0.15268083384E+03  0.19926798115E+03  0.00000000000E+00 0.  1.
          1    1    6    6  503    0 -0.17054486876E+03 -0.20641715602E+03  0.77847247368E+03  0.82323325178E+03  0.00000000000E+00 0. -1.
         -1    1    6    6    0  503 -0.19385536121E+03 -0.22435716457E+03  0.60025353204E+03  0.66949259973E+03  0.00000000000E+00 0.  1.
<mgrwt>
<rscale>  0 0.13957147E+04</rscale>
<asrwt>0</asrwt>
<pdfrwt beam="1">  1        2 0.43843593E+00 0.13957147E+04</pdfrwt>
<pdfrwt beam="2">  1       -1 0.26290597E-01 0.13957147E+04</pdfrwt>
<totfact> 0.30936694E+01</totfact>
</mgrwt>
</event>
<event>
12    6  0.9491186E-008  0.1963510E+04  0.7818608E-02  0.8623874E-01
          2   -1    0    0  501    0  0.00000000000E+00  0.00000000000E+00  0.28413392520E+04  0.28413392520E+04  0.00000000000E+00 0. -1.
         -1   -1    0    0    0  501 -0.00000000000E+00 -0.00000000000E+00 -0.33922121290E+03  0.33922121290E+03  0.00000000000E+00 0.  1.
         24    2    1    2    0    0  0.21120717211E+02 -0.74976777502E+03  0.67693521749E+03  0.10135153649E+04  0.79839245261E+02 0.  0.
        254    2    1    2    0    0 -0.21120717211E+02  0.74976777502E+03  0.18251828216E+04  0.21670451000E+04  0.89565301983E+03 0.  0.
         23    2    4    4    0    0  0.15109967713E+03  0.88180637921E+03  0.12063616270E+04  0.15046462313E+04  0.90765100480E+02 0.  0.
         23    2    4    4    0    0 -0.17222039435E+03 -0.13203860419E+03  0.61882119467E+03  0.66239886873E+03  0.93480121371E+02 0.  0.
          2    1    3    3  502    0  0.18961007701E+02 -0.43720955339E+03  0.34213856758E+03  0.55549123559E+03  0.00000000000E+00 0. -1.
         -1    1    3    3    0  502  0.21597095103E+01 -0.31255822162E+03  0.33479664991E+03  0.45802412932E+03  0.00000000000E+00 0.  1.
         11    1    5    5    0    0  0.30008381736E+02  0.22233819520E+03  0.36995620292E+03  0.43266888969E+03  0.00000000000E+00 0. -1.
        -11    1    5    5    0    0  0.12109129540E+03  0.65946818400E+03  0.83640542403E+03  0.10719773416E+04  0.00000000000E+00 0.  1.
          4    1    6    6  503    0 -0.10878549239E+03 -0.13350110606E+03  0.43006327253E+03  0.46326153202E+03  0.00000000000E+00 0. -1.
         -4    1    6    6    0  503 -0.63434901960E+02  0.14625018720E+01  0.18875792215E+03  0.19913733671E+03  0.00000000000E+00 0.  1.
<mgrwt>
<rscale>  0 0.19635097E+04</rscale>
<asrwt>0</asrwt>
<pdfrwt beam="1">  1        2 0.43712910E+00 0.19635097E+04</pdfrwt>
<pdfrwt beam="2">  1       -1 0.52187881E-01 0.19635097E+04</pdfrwt>
<totfact> 0.85758937E+00</totfact>
</mgrwt>
</event>
<event>
12    6  0.9491186E-008  0.1213259E+04  0.7818608E-02  0.9101330E-01
          2   -1    0    0  501    0  0.00000000000E+00  0.00000000000E+00  0.34427099108E+04  0.34427099108E+04  0.00000000000E+00 0. -1.
         -1   -1    0    0    0  501 -0.00000000000E+00 -0.00000000000E+00 -0.10689232963E+03  0.10689232963E+03  0.00000000000E+00 0.  1.
         24    2    1    2    0    0  0.15884148169E+03 -0.95381427887E+02  0.14220608893E+04  0.14362465549E+04  0.78859117608E+02 0.  0.
        254    2    1    2    0    0 -0.15884148169E+03  0.95381427887E+02  0.19137566918E+04  0.21133556855E+04  0.87719971779E+03 0.  0.
         23    2    4    4    0    0 -0.35044775527E+03  0.20310848634E+03  0.38568180505E+03  0.56671595767E+03  0.91377434457E+02 0.  0.
         23    2    4    4    0    0  0.19160627358E+03 -0.10772705845E+03  0.15280748868E+04  0.15466397279E+04  0.93613593850E+02 0.  0.
          2    1    3    3  502    0  0.46186017265E+02  0.43351985234E+01  0.48145816756E+03  0.48368782210E+03  0.00000000000E+00 0. -1.
         -1    1    3    3    0  502  0.11265546443E+03 -0.99716626410E+02  0.94060272178E+03  0.95255873282E+03  0.00000000000E+00 0.  1.
         11    1    5    5    0    0 -0.31666969009E+03  0.16706872940E+03  0.29692732423E+03  0.46514243930E+03  0.00000000000E+00 0.  1.
        -11    1    5    5    0    0 -0.33778065188E+02  0.36039756939E+02  0.88754480819E+02  0.10157351837E+03  0.00000000000E+00 0. -1.
          1    1    6    6  503    0  0.56935846652E+02  0.57727488818E+01  0.24870399722E+03  0.25520323959E+03  0.00000000000E+00 0. -1.
         -1    1    6    6    0  503  0.13467042693E+03 -0.11349980734E+03  0.12793708896E+04  0.12914364883E+04  0.00000000000E+00 0.  1.
<mgrwt>
<rscale>  0 0.12132589E+04</rscale>
<asrwt>0</asrwt>
<pdfrwt beam="1">  1        2 0.52964759E+00 0.12132589E+04</pdfrwt>
<pdfrwt beam="2">  1       -1 0.16444976E-01 0.12132589E+04</pdfrwt>
<totfact> 0.28998738E+01</totfact>
</mgrwt>
</event>
<event>
12    6  0.9491186E-008  0.1886143E+04  0.7818608E-02  0.8661785E-01
          2   -1    0    0  501    0  0.00000000000E+00  0.00000000000E+00  0.83902299202E+03  0.83902299202E+03  0.00000000000E+00 0. -1.
         -1   -1    0    0    0  501 -0.00000000000E+00 -0.00000000000E+00 -0.10600230506E+04  0.10600230506E+04  0.00000000000E+00 0.  1.
         24    2    1    2    0    0  0.17515500404E+03 -0.58066769631E+03 -0.49789079227E+03  0.78884040219E+03  0.80744598064E+02 0.  0.
        254    2    1    2    0    0 -0.17515500404E+03  0.58066769631E+03  0.27689073370E+03  0.11102056404E+04  0.88771269939E+03 0.  0.
         23    2    4    4    0    0 -0.23449606301E+02  0.16945682567E+03 -0.31398690871E+03  0.36850023086E+03  0.89101860225E+02 0.  0.
         23    2    4    4    0    0 -0.15170539774E+03  0.41121087064E+03  0.59087764241E+03  0.74170540958E+03  0.94242339000E+02 0.  0.
          2    1    3    3  502    0  0.14172966377E+03 -0.46163852243E+03 -0.43586914173E+03  0.65052235296E+03  0.00000000000E+00 0. -1.
         -1    1    3    3    0  502  0.33425340265E+02 -0.11902917389E+03 -0.62021650537E+02  0.13831804923E+03  0.00000000000E+00 0.  1.
         11    1    5    5    0    0  0.13546348044E+02  0.72292752030E+02 -0.20536937259E+03  0.21814289982E+03  0.00000000000E+00 0.  1.
        -11    1    5    5    0    0 -0.36995954345E+02  0.97164073643E+02 -0.10861753612E+03  0.15035733104E+03  0.00000000000E+00 0. -1.
          1    1    6    6  503    0 -0.10456423088E+03  0.19895118709E+03  0.36131930785E+03  0.42551955942E+03  0.00000000000E+00 0. -1.
         -1    1    6    6    0  503 -0.47141166855E+02  0.21225968354E+03  0.22955833456E+03  0.31618585015E+03  0.00000000000E+00 0.  1.
<mgrwt>
<rscale>  0 0.18861428E+04</rscale>
<asrwt>0</asrwt>
<pdfrwt beam="1">  1        2 0.12908046E+00 0.18861428E+04</pdfrwt>
<pdfrwt beam="2">  1       -1 0.16308047E+00 0.18861428E+04</pdfrwt>
<totfact> 0.95761545E+00</totfact>
</mgrwt>
</event>
<event>
12    6  0.9491186E-008  0.1567208E+04  0.7818608E-02  0.8840951E-01
          2   -1    0    0  501    0  0.00000000000E+00  0.00000000000E+00  0.11016515406E+04  0.11016515406E+04  0.00000000000E+00 0. -1.
         -1   -1    0    0    0  501 -0.00000000000E+00 -0.00000000000E+00 -0.55737698877E+03  0.55737698877E+03  0.00000000000E+00 0.  1.
         24    2    1    2    0    0  0.43449680879E+03  0.10289879213E+02 -0.54880310164E+02  0.44495330365E+03  0.77963039475E+02 0.  0.
        254    2    1    2    0    0 -0.43449680879E+03 -0.10289879213E+02  0.59915486203E+03  0.12140752258E+04  0.96234024474E+03 0.  0.
         23    2    4    4    0    0 -0.34200002891E+03 -0.44272173792E+03  0.49014539894E+03  0.74942758822E+03  0.91829411834E+02 0.  0.
         23    2    4    4    0    0 -0.92496779880E+02  0.43243185871E+03  0.10900946309E+03  0.46464763754E+03  0.91985853887E+02 0.  0.
          4    1    3    3  502    0  0.76275243456E+02  0.19166046057E+02 -0.34965578123E+02  0.86068819785E+02  0.00000000000E+00 0. -1.
         -3    1    3    3    0  502  0.35822156533E+03 -0.88761668440E+01 -0.19914732041E+02  0.35888448386E+03  0.00000000000E+00 0.  1.
         11    1    5    5    0    0 -0.38701206726E+02 -0.27515834803E+02  0.16308273689E+02  0.50208210062E+02  0.00000000000E+00 0.  1.
        -11    1    5    5    0    0 -0.30329882218E+03 -0.41520590312E+03  0.47383712525E+03  0.69921937815E+03  0.00000000000E+00 0. -1.
          1    1    6    6  503    0 -0.80023516274E+02  0.43169341014E+03  0.10784080445E+03  0.45209800112E+03  0.00000000000E+00 0. -1.
         -1    1    6    6    0  503 -0.12473263606E+02  0.73844857117E+00  0.11686586436E+01  0.12549636422E+02  0.00000000000E+00 0.  1.
<mgrwt>
<rscale>  0 0.15672080E+04</rscale>
<asrwt>0</asrwt>
<pdfrwt beam="1">  1        2 0.16948485E+00 0.15672080E+04</pdfrwt>
<pdfrwt beam="2">  1       -1 0.85750306E-01 0.15672080E+04</pdfrwt>
<totfact> 0.32015762E+01</totfact>
</mgrwt>
</event>
<event>
12    6  0.9491186E-008  0.1370200E+04  0.7818608E-02  0.8975676E-01
          2   -1    0    0  501    0  0.00000000000E+00  0.00000000000E+00  0.75978578764E+03  0.75978578764E+03  0.00000000000E+00 0. -1.
         -1   -1    0    0    0  501 -0.00000000000E+00 -0.00000000000E+00 -0.61775556248E+03  0.61775556248E+03  0.00000000000E+00 0.  1.
         24    2    1    2    0    0 -0.94536937265E+02  0.27111273182E+03 -0.21636574849E+03  0.36828315712E+03  0.79868647378E+02 0.  0.
        254    2    1    2    0    0  0.94536937265E+02 -0.27111273182E+03  0.35839597364E+03  0.10092581930E+04  0.89872970372E+03 0.  0.
         23    2    4    4    0    0  0.74049142773E+02  0.46554582524E+02  0.59052034989E+03  0.60443915196E+03  0.94772359337E+02 0.  0.
         23    2    4    4    0    0  0.20487794493E+02 -0.31766731434E+03 -0.23212437625E+03  0.40481904104E+03  0.93083068356E+02 0.  0.
          4    1    3    3  502    0 -0.27137731779E+02  0.15488742086E+02 -0.96666036565E+01  0.32707810134E+02  0.00000000000E+00 0. -1.
         -3    1    3    3    0  502 -0.67399205486E+02  0.25562398973E+03 -0.20669914483E+03  0.33557534698E+03  0.00000000000E+00 0.  1.
         11    1    5    5    0    0  0.75076292538E+02  0.61490855211E+02  0.34293209228E+03  0.35639864603E+03  0.00000000000E+00 0. -1.
        -11    1    5    5    0    0 -0.10271497656E+01 -0.14936272687E+02  0.24758825761E+03  0.24804050594E+03  0.00000000000E+00 0.  1.
          2    1    6    6  503    0  0.54523383832E+02 -0.13945501838E+03 -0.11592820111E+03  0.18936697006E+03  0.00000000000E+00 0.  1.
         -2    1    6    6    0  503 -0.34035589339E+02 -0.17821229596E+03 -0.11619617513E+03  0.21545207098E+03  0.00000000000E+00 0. -1.
<mgrwt>
<rscale>  0 0.13701998E+04</rscale>
<asrwt>0</asrwt>
<pdfrwt beam="1">  1        2 0.11689012E+00 0.13701998E+04</pdfrwt>
<pdfrwt beam="2">  1       -1 0.95039317E-01 0.13701998E+04</pdfrwt>
<totfact> 0.43952731E+01</totfact>
</mgrwt>
</event>
<event>
12    6  0.9491186E-008  0.2496988E+04  0.7818608E-02  0.8404059E-01
         -1   -1    0    0    0  501 -0.00000000000E+00  0.00000000000E+00  0.10345037387E+04  0.10345037387E+04  0.00000000000E+00 0.  1.
          2   -1    0    0  501    0  0.00000000000E+00 -0.00000000000E+00 -0.15067487522E+04  0.15067487522E+04  0.00000000000E+00 0. -1.
         24    2    1    2    0    0 -0.57449575305E+03 -0.48185497537E+02 -0.11442154237E+04  0.12838112205E+04  0.81087000104E+02 0.  0.
        254    2    1    2    0    0  0.57449575305E+03  0.48185497537E+02  0.67197041023E+03  0.12574412704E+04  0.89288694903E+03 0.  0.
         23    2    4    4    0    0 -0.48381260111E+02 -0.31815321665E+03  0.21400086371E+03  0.39694851769E+03  0.90606514271E+02 0.  0.
         23    2    4    4    0    0  0.62287701316E+03  0.36633871419E+03  0.45796954652E+03  0.86049275267E+03  0.92367985956E+02 0.  0.
          4    1    3    3  502    0 -0.38959415124E+03 -0.34549765354E+02 -0.68876438791E+03  0.79206923373E+03  0.00000000000E+00 0. -1.
         -3    1    3    3    0  502 -0.18490160180E+03 -0.13635732183E+02 -0.45545103579E+03  0.49174198676E+03  0.00000000000E+00 0.  1.
         11    1    5    5    0    0 -0.66383332789E+02 -0.28364059929E+03  0.16648250178E+03  0.33552221959E+03  0.00000000000E+00 0. -1.
        -11    1    5    5    0    0  0.18002072677E+02 -0.34512617367E+02  0.47518361927E+02  0.61426298102E+02  0.00000000000E+00 0.  1.
          1    1    6    6  503    0  0.49571468235E+03  0.26986085310E+03  0.31586770135E+03  0.64678460950E+03  0.00000000000E+00 0. -1.
         -1    1    6    6    0  503  0.12716233081E+03  0.96477861093E+02  0.14210184517E+03  0.21370814318E+03  0.00000000000E+00 0.  1.
<mgrwt>
<rscale>  0 0.24969880E+04</rscale>
<asrwt>0</asrwt>
<pdfrwt beam="1">  1        2 0.23180750E+00 0.24969880E+04</pdfrwt>
<pdfrwt beam="2">  1       -1 0.15915442E+00 0.24969880E+04</pdfrwt>
<totfact> 0.37921833E+00</totfact>
</mgrwt>
</event>
<event>
12    6  0.9491186E-008  0.1860729E+04  0.7818608E-02  0.8674655E-01
         -1   -1    0    0    0  501 -0.00000000000E+00  0.00000000000E+00  0.14425542074E+04  0.14425542074E+04  0.00000000000E+00 0.  1.
          2   -1    0    0  501    0  0.00000000000E+00 -0.00000000000E+00 -0.60003171392E+03  0.60003171392E+03  0.00000000000E+00 0. -1.
         24    2    1    2    0    0  0.28228862739E+03 -0.48012962831E+03  0.80872167678E+03  0.98425350509E+03  0.67177992334E+02 0.  0.
        254    2    1    2    0    0 -0.28228862739E+03  0.48012962831E+03  0.33800816697E+02  0.10583324162E+04  0.89928509322E+03 0.  0.
         23    2    4    4    0    0 -0.52141202400E+03  0.52988411532E+03 -0.11567631032E+03  0.75826830724E+03  0.94562902596E+02 0.  0.
         23    2    4    4    0    0  0.23912339661E+03 -0.49754487013E+02  0.14947712702E+03  0.30006410898E+03  0.89663538920E+02 0.  0.
          4    1    3    3  502    0  0.23503001284E+02 -0.21546552056E+02  0.27300785972E+02  0.41975920354E+02  0.00000000000E+00 0. -1.
         -3    1    3    3    0  502  0.25878562611E+03 -0.45858307625E+03  0.78142089081E+03  0.94227758474E+03  0.00000000000E+00 0.  1.
         11    1    5    5    0    0 -0.29551057211E+03  0.24967508557E+03 -0.91443479596E+02  0.39752491311E+03  0.00000000000E+00 0. -1.
        -11    1    5    5    0    0 -0.22590145189E+03  0.28020902975E+03 -0.24232830729E+02  0.36074339413E+03  0.00000000000E+00 0.  1.
          2    1    6    6  503    0  0.22680995799E+03 -0.55428490647E+02  0.15987730197E+03  0.28297672396E+03  0.00000000000E+00 0. -1.
         -2    1    6    6    0  503  0.12313438619E+02  0.56740036339E+01 -0.10400174947E+02  0.17087385019E+02  0.00000000000E+00 0.  1.
<mgrwt>
<rscale>  0 0.18607292E+04</rscale>
<asrwt>0</asrwt>
<pdfrwt beam="1">  1        2 0.92312572E-01 0.18607292E+04</pdfrwt>
<pdfrwt beam="2">  1       -1 0.22193142E+00 0.18607292E+04</pdfrwt>
<totfact> 0.56838765E+00</totfact>
</mgrwt>
</event>
<event>
12    6  0.9491186E-008  0.4877451E+04  0.7818608E-02  0.7847695E-01
          2   -1    0    0  501    0  0.00000000000E+00  0.00000000000E+00  0.35827425869E+04  0.35827425869E+04  0.00000000000E+00 0. -1.
         -1   -1    0    0    0  501 -0.00000000000E+00 -0.00000000000E+00 -0.16600084276E+04  0.16600084276E+04  0.00000000000E+00 0.  1.
         24    2    1    2    0    0  0.17885472408E+04 -0.82091917603E+03 -0.46529035269E+03  0.20237738443E+04  0.79724114421E+02 0.  0.
        254    2    1    2    0    0 -0.17885472408E+04  0.82091917603E+03  0.23880245120E+04  0.32189771702E+04  0.88676007270E+03 0.  0.
         23    2    4    4    0    0 -0.10575951956E+04  0.13480319686E+03  0.16654525101E+04  0.19795543990E+04  0.90686577327E+02 0.  0.
         23    2    4    4    0    0 -0.73095204512E+03  0.68611597917E+03  0.72257200192E+03  0.12394227713E+04  0.94934076529E+02 0.  0.
          4    1    3    3  502    0  0.15098190940E+03 -0.93213051318E+02 -0.34887254724E+02  0.18083509185E+03  0.00000000000E+00 0. -1.
         -3    1    3    3    0  502  0.16375653314E+04 -0.72770612471E+03 -0.43040309796E+03  0.18429387524E+04  0.00000000000E+00 0.  1.
         11    1    5    5    0    0 -0.60795665311E+03  0.33329092034E+02  0.96607797645E+03  0.11419407940E+04  0.00000000000E+00 0. -1.
        -11    1    5    5    0    0 -0.44963854252E+03  0.10147410482E+03  0.69937453364E+03  0.83761360494E+03  0.00000000000E+00 0.  1.
          1    1    6    6  503    0 -0.57862592845E+03  0.48761910461E+03  0.55074668597E+03  0.93589650516E+03  0.00000000000E+00 0. -1.
         -1    1    6    6    0  503 -0.15232611667E+03  0.19849687456E+03  0.17182531595E+03  0.30352626613E+03  0.00000000000E+00 0.  1.
<mgrwt>
<rscale>  0 0.48774513E+04</rscale>
<asrwt>0</asrwt>
<pdfrwt beam="1">  1        2 0.55119117E+00 0.48774513E+04</pdfrwt>
<pdfrwt beam="2">  1       -1 0.25538591E+00 0.48774513E+04</pdfrwt>
<totfact> 0.38035759E-02</totfact>
</mgrwt>
</event>
<event>
12    6  0.9491186E-008  0.2206868E+04  0.7818608E-02  0.8515575E-01
         -1   -1    0    0    0  501 -0.00000000000E+00  0.00000000000E+00  0.13309416837E+04  0.13309416837E+04  0.00000000000E+00 0.  1.
          2   -1    0    0  501    0  0.00000000000E+00 -0.00000000000E+00 -0.91481583255E+03  0.91481583255E+03  0.00000000000E+00 0. -1.
         24    2    1    2    0    0  0.16905252379E+03  0.65440520564E+03 -0.45414080909E+03  0.81838322471E+03  0.81745330346E+02 0.  0.
        254    2    1    2    0    0 -0.16905252379E+03 -0.65440520564E+03  0.87026666026E+03  0.14273742916E+04  0.90730831545E+03 0.  0.
         23    2    4    4    0    0 -0.12203730017E+03 -0.87473673891E+03  0.66070624951E+03  0.11069118387E+04  0.93078490651E+02 0.  0.
         23    2    4    4    0    0 -0.47015223618E+02  0.22033153326E+03  0.20956041076E+03  0.32046245290E+03  0.89577911121E+02 0.  0.
          4    1    3    3  502    0  0.14614458675E+03  0.51657865812E+03 -0.32165360820E+03  0.62583767378E+03  0.00000000000E+00 0. -1.
         -3    1    3    3    0  502  0.22907937043E+02  0.13782654753E+03 -0.13248720089E+03  0.19254555093E+03  0.00000000000E+00 0.  1.
         11    1    5    5    0    0 -0.10784381090E+03 -0.77929213126E+03  0.62217290045E+03  0.10030082908E+04  0.00000000000E+00 0. -1.
        -11    1    5    5    0    0 -0.14193489270E+02 -0.95444607645E+02  0.38533349053E+02  0.10390354785E+03  0.00000000000E+00 0.  1.
          2    1    6    6  503    0 -0.54571263619E+02  0.22559865249E+03  0.19457754498E+03  0.30287488478E+03  0.00000000000E+00 0. -1.
         -2    1    6    6    0  503  0.75560400010E+01 -0.52671192329E+01  0.14982865773E+02  0.17587568117E+02  0.00000000000E+00 0.  1.
<mgrwt>
<rscale>  0 0.22068679E+04</rscale>
<asrwt>0</asrwt>
<pdfrwt beam="1">  1        2 0.14074090E+00 0.22068679E+04</pdfrwt>
<pdfrwt beam="2">  1       -1 0.20476026E+00 0.22068679E+04</pdfrwt>
<totfact> 0.41673393E+00</totfact>
</mgrwt>
</event>
<event>
12    6  0.9491186E-008  0.1828830E+04  0.7818608E-02  0.8691117E-01
          2   -1    0    0  501    0  0.00000000000E+00  0.00000000000E+00  0.50650925589E+03  0.50650925589E+03  0.00000000000E+00 0. -1.
         -1   -1    0    0    0  501 -0.00000000000E+00 -0.00000000000E+00 -0.16508180216E+04  0.16508180216E+04  0.00000000000E+00 0.  1.
         24    2    1    2    0    0  0.13440664669E+03  0.24149037500E+03  0.31333461320E+03  0.42514940775E+03  0.78680945519E+02 0.  0.
        254    2    1    2    0    0 -0.13440664669E+03 -0.24149037500E+03 -0.14576433789E+04  0.17321778697E+04  0.89405436325E+03 0.  0.
         23    2    4    4    0    0 -0.41282356209E+03 -0.41240497525E+03 -0.83836567692E+03  0.10255643578E+04  0.91782823912E+02 0.  0.
         23    2    4    4    0    0  0.27841691540E+03  0.17091460025E+03 -0.61927770199E+03  0.70661351192E+03  0.95236566957E+02 0.  0.
          4    1    3    3  502    0  0.13983349116E+03  0.24387949402E+03  0.30935359062E+03  0.41800748424E+03  0.00000000000E+00 0. -1.
         -1    1    3    3    0  502 -0.54268444695E+01 -0.23891190203E+01  0.39810225817E+01  0.71419235073E+01  0.00000000000E+00 0.  1.
         11    1    5    5    0    0 -0.28063023663E+03 -0.31577716058E+03 -0.54458397070E+03  0.68923163450E+03  0.00000000000E+00 0. -1.
        -11    1    5    5    0    0 -0.13219332546E+03 -0.96627814664E+02 -0.29378170622E+03  0.33633272332E+03  0.00000000000E+00 0.  1.
          4    1    6    6  503    0 -0.61517689115E+00  0.24305639338E+02 -0.57911863709E+02  0.62808649917E+02  0.00000000000E+00 0. -1.
         -4    1    6    6    0  503  0.27903209229E+03  0.14660896091E+03 -0.56136583828E+03  0.64380486200E+03  0.00000000000E+00 0.  1.
<mgrwt>
<rscale>  0 0.18288298E+04</rscale>
<asrwt>0</asrwt>
<pdfrwt beam="1">  1        2 0.77924500E-01 0.18288298E+04</pdfrwt>
<pdfrwt beam="2">  1       -1 0.25397200E+00 0.18288298E+04</pdfrwt>
<totfact> 0.42883285E+00</totfact>
</mgrwt>
</event>
<event>
12    6  0.9491186E-008  0.1557256E+04  0.7818608E-02  0.8847246E-01
         -1   -1    0    0    0  501 -0.00000000000E+00  0.00000000000E+00  0.80580059009E+03  0.80580059009E+03  0.00000000000E+00 0.  1.
          2   -1    0    0  501    0  0.00000000000E+00 -0.00000000000E+00 -0.75237185232E+03  0.75237185232E+03  0.00000000000E+00 0. -1.
         24    2    1    2    0    0  0.18858557160E+03  0.46351481899E+03  0.13872628054E+03  0.52524933649E+03  0.78939086192E+02 0.  0.
        254    2    1    2    0    0 -0.18858557160E+03 -0.46351481899E+03 -0.85297542777E+02  0.10329231059E+04  0.89957988346E+03 0.  0.
         23    2    4    4    0    0 -0.27804460091E+03 -0.33986525314E+03 -0.44513836109E+03  0.63165732691E+03  0.89585867985E+02 0.  0.
         23    2    4    4    0    0  0.89459029302E+02 -0.12364956585E+03  0.35984081831E+03  0.40126577902E+03  0.90756144885E+02 0.  0.
          2    1    3    3  502    0  0.10521561089E+03  0.25049979971E+03  0.11582465836E+03  0.29535711590E+03  0.00000000000E+00 0. -1.
         -1    1    3    3    0  502  0.83369960710E+02  0.21301501927E+03  0.22901622184E+02  0.22989222058E+03  0.00000000000E+00 0.  1.
         11    1    5    5    0    0 -0.18534477758E+03 -0.28464155284E+03 -0.35133785420E+03  0.48868373000E+03  0.00000000000E+00 0. -1.
        -11    1    5    5    0    0 -0.92699823323E+02 -0.55223700300E+02 -0.93800506891E+02  0.14297359690E+03  0.00000000000E+00 0.  1.
          1    1    6    6  503    0  0.49529316666E+02 -0.49935435440E+02  0.26729898175E+03  0.27639726222E+03  0.00000000000E+00 0. -1.
         -1    1    6    6    0  503  0.39929712636E+02 -0.73714130407E+02  0.92541836562E+02  0.12486851680E+03  0.00000000000E+00 0.  1.
<mgrwt>
<rscale>  0 0.15572562E+04</rscale>
<asrwt>0</asrwt>
<pdfrwt beam="1">  1        2 0.11574952E+00 0.15572562E+04</pdfrwt>
<pdfrwt beam="2">  1       -1 0.12396932E+00 0.15572562E+04</pdfrwt>
<totfact> 0.23443723E+01</totfact>
</mgrwt>
</event>
<event>
12    6  0.9491186E-008  0.1560529E+04  0.7818608E-02  0.8845171E-01
         -1   -1    0    0    0  501 -0.00000000000E+00  0.00000000000E+00  0.26390385902E+03  0.26390385902E+03  0.00000000000E+00 0.  1.
          2   -1    0    0  501    0  0.00000000000E+00 -0.00000000000E+00 -0.23069475598E+04  0.23069475598E+04  0.00000000000E+00 0. -1.
         24    2    1    2    0    0 -0.51751252951E+02  0.10561327594E+03  0.14435241638E+03  0.20281522548E+03  0.80399249596E+02 0.  0.
        254    2    1    2    0    0  0.51751252951E+02 -0.10561327594E+03 -0.21873961171E+04  0.23680361933E+04  0.89947833957E+03 0.  0.
         23    2    4    4    0    0  0.40114762369E+03  0.24439802256E+02 -0.16919053413E+04  0.17411611275E+04  0.87072774988E+02 0.  0.
         23    2    4    4    0    0 -0.34939637074E+03 -0.13005307820E+03 -0.49549077579E+03  0.62687506575E+03  0.92030495679E+02 0.  0.
          2    1    3    3  502    0  0.19975124211E+02  0.12865763763E+02  0.14376009799E+02  0.27770544147E+02  0.00000000000E+00 0. -1.
         -1    1    3    3    0  502 -0.71726377162E+02  0.92747512180E+02  0.12997640658E+03  0.17504468133E+03  0.00000000000E+00 0.  1.
         11    1    5    5    0    0  0.21761501780E+03  0.30954122840E+02 -0.75123125833E+03  0.78272783085E+03  0.00000000000E+00 0. -1.
        -11    1    5    5    0    0  0.18353260589E+03 -0.65143205847E+01 -0.94067408300E+03  0.95843329670E+03  0.00000000000E+00 0.  1.
          4    1    6    6  503    0 -0.36451637299E+02  0.22782900079E+01 -0.94369497147E+02  0.10119048601E+03  0.00000000000E+00 0. -1.
         -4    1    6    6    0  503 -0.31294473344E+03 -0.13233136821E+03 -0.40112127864E+03  0.52568457974E+03  0.00000000000E+00 0.  1.
<mgrwt>
<rscale>  0 0.15605286E+04</rscale>
<asrwt>0</asrwt>
<pdfrwt beam="1">  1        2 0.35491500E+00 0.15605286E+04</pdfrwt>
<pdfrwt beam="2">  1       -1 0.40600595E-01 0.15605286E+04</pdfrwt>
<totfact> 0.29204515E+01</totfact>
</mgrwt>
</event>
<event>
12    6  0.9491186E-008  0.2124339E+04  0.7818608E-02  0.8550597E-01
         -1   -1    0    0    0  501 -0.00000000000E+00  0.00000000000E+00  0.48501017410E+03  0.48501017410E+03  0.00000000000E+00 0.  1.
          2   -1    0    0  501    0  0.00000000000E+00 -0.00000000000E+00 -0.23261442776E+04  0.23261442776E+04  0.00000000000E+00 0. -1.
         24    2    1    2    0    0 -0.61825823458E+03 -0.60976118023E+03 -0.83694960508E+03  0.12086297682E+04  0.79052726500E+02 0.  0.
        254    2    1    2    0    0  0.61825823458E+03  0.60976118023E+03 -0.10041844984E+04  0.16025246835E+04  0.89757836026E+03 0.  0.
         23    2    4    4    0    0  0.43258639169E+03  0.15896708488E+03 -0.10017704734E+04  0.11065029704E+04  0.91669088581E+02 0.  0.
         23    2    4    4    0    0  0.18567184289E+03  0.45079409534E+03 -0.24140249627E+01  0.49602171304E+03  0.91336535126E+02 0.  0.
          4    1    3    3  502    0 -0.45007425111E+03 -0.41337452846E+03 -0.54719085010E+03  0.82028236524E+03  0.00000000000E+00 0. -1.
         -3    1    3    3    0  502 -0.16818398347E+03 -0.19638665177E+03 -0.28975875498E+03  0.38834740294E+03  0.00000000000E+00 0.  1.
         11    1    5    5    0    0  0.33018132638E+03  0.15687934441E+03 -0.73886204643E+03  0.82434699044E+03  0.00000000000E+00 0.  1.
        -11    1    5    5    0    0  0.10240506531E+03  0.20877404740E+01 -0.26290842700E+03  0.28215598000E+03  0.00000000000E+00 0. -1.
          1    1    6    6  503    0  0.15519659990E+03  0.38195691811E+03 -0.35463402181E+02  0.41380517736E+03  0.00000000000E+00 0. -1.
         -1    1    6    6    0  503  0.30475242989E+02  0.68837177233E+02  0.33049377219E+02  0.82216535680E+02  0.00000000000E+00 0.  1.
<mgrwt>
<rscale>  0 0.21243386E+04</rscale>
<asrwt>0</asrwt>
<pdfrwt beam="1">  1        2 0.35786835E+00 0.21243386E+04</pdfrwt>
<pdfrwt beam="2">  1       -1 0.74616951E-01 0.21243386E+04</pdfrwt>
<totfact> 0.82881660E+00</totfact>
</mgrwt>
</event>
<event>
12    6  0.9491186E-008  0.1947639E+04  0.7818608E-02  0.8631500E-01
         -1   -1    0    0    0  501 -0.00000000000E+00  0.00000000000E+00  0.10787891816E+04  0.10787891816E+04  0.00000000000E+00 0.  1.
          2   -1    0    0  501    0  0.00000000000E+00 -0.00000000000E+00 -0.87906406473E+03  0.87906406473E+03  0.00000000000E+00 0. -1.
         24    2    1    2    0    0 -0.37162765955E+03 -0.31942591911E+03 -0.51436720639E+03  0.71643596624E+03  0.92557201614E+02 0.  0.
        254    2    1    2    0    0  0.37162765955E+03  0.31942591911E+03  0.71409232329E+03  0.12414172801E+04  0.88940934449E+03 0.  0.
         23    2    4    4    0    0 -0.10351271756E+03 -0.19880321767E+03  0.39749652272E+03  0.46478569834E+03  0.88230707510E+02 0.  0.
         23    2    4    4    0    0  0.47514037711E+03  0.51822913678E+03  0.31659580057E+03  0.77663158179E+03  0.92757192304E+02 0.  0.
          4    1    3    3  502    0 -0.25147090624E+03 -0.17759207115E+03 -0.27059827490E+03  0.40987801453E+03  0.00000000000E+00 0. -1.
         -3    1    3    3    0  502 -0.12015675331E+03 -0.14183384796E+03 -0.24376893149E+03  0.30655795170E+03  0.00000000000E+00 0.  1.
         11    1    5    5    0    0 -0.41048911686E+02 -0.10364841081E+02  0.72139037787E+02  0.83644987023E+02  0.00000000000E+00 0. -1.
        -11    1    5    5    0    0 -0.62463805874E+02 -0.18843837659E+03  0.32535748494E+03  0.38114071131E+03  0.00000000000E+00 0.  1.
          2    1    6    6  503    0  0.32136965719E+02  0.32651048650E+02  0.48632074776E+02  0.66812829910E+02  0.00000000000E+00 0. -1.
         -2    1    6    6    0  503  0.44300341139E+03  0.48557808813E+03  0.26796372579E+03  0.70981875188E+03  0.00000000000E+00 0.  1.
<mgrwt>
<rscale>  0 0.19476394E+04</rscale>
<asrwt>0</asrwt>
<pdfrwt beam="1">  1        2 0.13524063E+00 0.19476394E+04</pdfrwt>
<pdfrwt beam="2">  1       -1 0.16596757E+00 0.19476394E+04</pdfrwt>
<totfact> 0.85027631E+00</totfact>
</mgrwt>
</event>
<event>
12    6  0.9491186E-008  0.1157137E+04  0.7818608E-02  0.9151225E-01
         -1   -1    0    0    0  501 -0.00000000000E+00  0.00000000000E+00  0.20782784131E+03  0.20782784131E+03  0.00000000000E+00 0.  1.
          2   -1    0    0  501    0  0.00000000000E+00 -0.00000000000E+00 -0.16106666202E+04  0.16106666202E+04  0.00000000000E+00 0. -1.
         24    2    1    2    0    0  0.45642213094E+02 -0.18812646460E+03 -0.13088696373E+03  0.24734560736E+03  0.81078196252E+02 0.  0.
        254    2    1    2    0    0 -0.45642213094E+02  0.18812646460E+03 -0.12719518151E+04  0.15711488541E+04  0.90176079062E+03 0.  0.
         23    2    4    4    0    0  0.26690116120E+03  0.29781145631E+03 -0.11253920465E+04  0.11977928850E+04  0.90954075102E+02 0.  0.
         23    2    4    4    0    0 -0.31254337429E+03 -0.10968499171E+03 -0.14655976869E+03  0.37335596914E+03  0.90558023778E+02 0.  0.
          2    1    3    3  502    0  0.46196246230E+01 -0.74282920517E+02 -0.95876200422E+02  0.12137355156E+03  0.00000000000E+00 0. -1.
         -1    1    3    3    0  502  0.41022588471E+02 -0.11384354408E+03 -0.35010763311E+02  0.12597205580E+03  0.00000000000E+00 0.  1.
         11    1    5    5    0    0  0.12292192549E+03  0.15633907461E+03 -0.68615019788E+03  0.71439050950E+03  0.00000000000E+00 0. -1.
        -11    1    5    5    0    0  0.14397923571E+03  0.14147238170E+03 -0.43924184857E+03  0.48340237550E+03  0.00000000000E+00 0.  1.
          4    1    6    6  503    0 -0.30612601283E+03 -0.10372083104E+03 -0.11898842200E+03  0.34442617654E+03  0.00000000000E+00 0. -1.
         -4    1    6    6    0  503 -0.64173614661E+01 -0.59641606712E+01 -0.27571346698E+02  0.28929792593E+02  0.00000000000E+00 0.  1.
<mgrwt>
<rscale>  0 0.11571368E+04</rscale>
<asrwt>0</asrwt>
<pdfrwt beam="1">  1        2 0.24779486E+00 0.11571368E+04</pdfrwt>
<pdfrwt beam="2">  1       -1 0.31973515E-01 0.11571368E+04</pdfrwt>
<totfact> 0.11302356E+02</totfact>
</mgrwt>
</event>
<event>
12    6  0.9491186E-008  0.2120503E+04  0.7818608E-02  0.8552265E-01
         -1   -1    0    0    0  501 -0.00000000000E+00  0.00000000000E+00  0.17239223114E+04  0.17239223114E+04  0.00000000000E+00 0.  1.
          2   -1    0    0  501    0  0.00000000000E+00 -0.00000000000E+00 -0.65207861223E+03  0.65207861223E+03  0.00000000000E+00 0. -1.
         24    2    1    2    0    0 -0.35944922685E+03  0.35089077043E+03 -0.35252487992E+03  0.61943786492E+03  0.84269793354E+02 0.  0.
        254    2    1    2    0    0  0.35944922685E+03 -0.35089077043E+03  0.14243685791E+04  0.17565630588E+04  0.89686111004E+03 0.  0.
         23    2    4    4    0    0 -0.21643301747E+03  0.13107229032E+03  0.32011175918E+03  0.41795626793E+03  0.90513574667E+02 0.  0.
         23    2    4    4    0    0  0.57588224432E+03 -0.48196306075E+03  0.11042568200E+04  0.13386067908E+04  0.92500079767E+02 0.  0.
          4    1    3    3  502    0 -0.36421316184E+03  0.34699429379E+03 -0.34976887042E+03  0.61269448333E+03  0.00000000000E+00 0. -1.
         -3    1    3    3    0  502  0.47639349986E+01  0.38964766373E+01 -0.27560095095E+01  0.67433815903E+01  0.00000000000E+00 0.  1.
         11    1    5    5    0    0 -0.77485888549E+02  0.84797689478E+02  0.19016877125E+03  0.22216856804E+03  0.00000000000E+00 0. -1.
        -11    1    5    5    0    0 -0.13894712892E+03  0.46274600846E+02  0.12994298792E+03  0.19578769989E+03  0.00000000000E+00 0.  1.
          3    1    6    6  503    0  0.22191676194E+03 -0.24461706534E+03  0.46795467614E+03  0.57277057955E+03  0.00000000000E+00 0. -1.
         -3    1    6    6    0  503  0.35396548238E+03 -0.23734599541E+03  0.63630214383E+03  0.76583621128E+03  0.00000000000E+00 0.  1.
<mgrwt>
<rscale>  0 0.21205026E+04</rscale>
<asrwt>0</asrwt>
<pdfrwt beam="1">  1        2 0.10031979E+00 0.21205026E+04</pdfrwt>
<pdfrwt beam="2">  1       -1 0.26521882E+00 0.21205026E+04</pdfrwt>
<totfact> 0.26104614E+00</totfact>
</mgrwt>
</event>
<event>
12    6  0.9491186E-008  0.1559744E+04  0.7818608E-02  0.8845668E-01
          2   -1    0    0  501    0  0.00000000000E+00  0.00000000000E+00  0.11845470539E+04  0.11845470539E+04  0.00000000000E+00 0. -1.
         -1   -1    0    0    0  501 -0.00000000000E+00 -0.00000000000E+00 -0.51344536968E+03  0.51344536968E+03  0.00000000000E+00 0.  1.
         24    2    1    2    0    0 -0.99104066862E+01 -0.37353422639E+03  0.61210696232E+03  0.72191574405E+03  0.82833409585E+02 0.  0.
        254    2    1    2    0    0  0.99104066862E+01  0.37353422639E+03  0.58994721898E+02  0.97607667954E+03  0.89978845996E+03 0.  0.
         23    2    4    4    0    0 -0.41633718193E+03  0.49244424605E+02 -0.60749894463E+01  0.42896647669E+03  0.90629301095E+02 0.  0.
         23    2    4    4    0    0  0.42624758862E+03  0.32428980178E+03  0.65069711345E+02  0.54711020284E+03  0.90799913992E+02 0.  0.
          2    1    3    3  502    0 -0.12322866227E+02 -0.31891916965E+03  0.45665408910E+03  0.55713036795E+03  0.00000000000E+00 0. -1.
         -1    1    3    3    0  502  0.24124595410E+01 -0.54615056735E+02  0.15545287322E+03  0.16478537610E+03  0.00000000000E+00 0.  1.
         11    1    5    5    0    0 -0.13830822846E+03 -0.16212794830E+02 -0.29608743282E+02  0.14236817922E+03  0.00000000000E+00 0. -1.
        -11    1    5    5    0    0 -0.27802895347E+03  0.65457219435E+02  0.23533753836E+02  0.28659829747E+03  0.00000000000E+00 0.  1.
          1    1    6    6  503    0  0.30953381222E+02  0.57512937038E+02  0.18866412703E+02  0.67983757355E+02  0.00000000000E+00 0. -1.
         -1    1    6    6    0  503  0.39529420739E+03  0.26677686474E+03  0.46203298642E+02  0.47912644549E+03  0.00000000000E+00 0.  1.
<mgrwt>
<rscale>  0 0.15597438E+04</rscale>
<asrwt>0</asrwt>
<pdfrwt beam="1">  1        2 0.18223801E+00 0.15597438E+04</pdfrwt>
<pdfrwt beam="2">  1       -1 0.78991595E-01 0.15597438E+04</pdfrwt>
<totfact> 0.34016249E+01</totfact>
</mgrwt>
</event>
<event>
12    6  0.9491186E-008  0.1320446E+04  0.7818608E-02  0.9013507E-01
         -1   -1    0    0    0  501 -0.00000000000E+00  0.00000000000E+00  0.93049017692E+03  0.93049017692E+03  0.00000000000E+00 0.  1.
          2   -1    0    0  501    0  0.00000000000E+00 -0.00000000000E+00 -0.46845660560E+03  0.46845660560E+03  0.00000000000E+00 0. -1.
         24    2    1    2    0    0  0.11717353945E+03  0.27301562186E+02 -0.22222540332E+03  0.26455186789E+03  0.78285038676E+02 0.  0.
        254    2    1    2    0    0 -0.11717353945E+03 -0.27301562186E+02  0.68425897465E+03  0.11343949146E+04  0.89675329065E+03 0.  0.
         23    2    4    4    0    0  0.52527615627E+01 -0.42540162471E+03  0.17420637223E+03  0.46893998332E+03  0.92534934024E+02 0.  0.
         23    2    4    4    0    0 -0.12242630101E+03  0.39810006253E+03  0.51005260241E+03  0.66545493130E+03  0.95941385256E+02 0.  0.
          4    1    3    3  502    0  0.11636057972E+03  0.26423923989E+02 -0.22870583019E+03  0.25796194493E+03  0.00000000000E+00 0. -1.
         -3    1    3    3    0  502  0.81295972541E+00  0.87763819675E+00  0.64804268636E+01  0.65899229626E+01  0.00000000000E+00 0.  1.
         11    1    5    5    0    0  0.30591656230E+01  0.15037787057E+01  0.11631904413E+02  0.12121099165E+02  0.00000000000E+00 0.  1.
        -11    1    5    5    0    0  0.21935959396E+01 -0.42690540342E+03  0.16257446782E+03  0.45681888415E+03  0.00000000000E+00 0. -1.
          4    1    6    6  503    0 -0.64178692302E+02  0.33108050626E+03  0.42444985981E+03  0.54211704425E+03  0.00000000000E+00 0. -1.
         -4    1    6    6    0  503 -0.58247608706E+02  0.67019556267E+02  0.85602742604E+02  0.12333788706E+03  0.00000000000E+00 0.  1.
<mgrwt>
<rscale>  0 0.13204458E+04</rscale>
<asrwt>0</asrwt>
<pdfrwt beam="1">  1        2 0.72070247E-01 0.13204458E+04</pdfrwt>
<pdfrwt beam="2">  1       -1 0.14315233E+00 0.13204458E+04</pdfrwt>
<totfact> 0.29393038E+01</totfact>
</mgrwt>
</event>
<event>
12    6  0.9491186E-008  0.3761738E+04  0.7818608E-02  0.8054416E-01
          2   -1    0    0  501    0  0.00000000000E+00  0.00000000000E+00  0.13763787490E+04  0.13763787490E+04  0.00000000000E+00 0. -1.
         -1   -1    0    0    0  501 -0.00000000000E+00 -0.00000000000E+00 -0.25702718947E+04  0.25702718947E+04  0.00000000000E+00 0.  1.
         24    2    1    2    0    0 -0.17690525333E+04  0.91081687613E+02 -0.50710562872E+03  0.18442817466E+04  0.79851754714E+02 0.  0.
        254    2    1    2    0    0  0.17690525333E+04 -0.91081687613E+02 -0.68678751694E+03  0.21023688971E+04  0.90024171579E+03 0.  0.
         23    2    4    4    0    0  0.91936477745E+03 -0.12754256634E+03 -0.81382250377E+03  0.12378236365E+04  0.91660171676E+02 0.  0.
         23    2    4    4    0    0  0.84968775583E+03  0.36460878724E+02  0.12703498683E+03  0.86454526067E+03  0.89453573354E+02 0.  0.
          4    1    3    3  502    0 -0.13670021732E+04  0.37502508737E+02 -0.38404794591E+03  0.14204204323E+04  0.00000000000E+00 0. -1.
         -3    1    3    3    0  502 -0.40205036010E+03  0.53579178876E+02 -0.12305768281E+03  0.42386131431E+03  0.00000000000E+00 0.  1.
         11    1    5    5    0    0  0.67827282212E+03 -0.77303218274E+02 -0.54753530827E+03  0.87511411975E+03  0.00000000000E+00 0.  1.
        -11    1    5    5    0    0  0.24109195533E+03 -0.50239348063E+02 -0.26628719551E+03  0.36270951671E+03  0.00000000000E+00 0. -1.
          1    1    6    6  503    0  0.20933654394E+03  0.17834314851E+02 -0.63224923846E+01  0.21018997436E+03  0.00000000000E+00 0. -1.
         -1    1    6    6    0  503  0.64035121190E+03  0.18626563874E+02  0.13335747921E+03  0.65435528631E+03  0.00000000000E+00 0.  1.
<mgrwt>
<rscale>  0 0.37617377E+04</rscale>
<asrwt>0</asrwt>
<pdfrwt beam="1">  1        2 0.21175058E+00 0.37617377E+04</pdfrwt>
<pdfrwt beam="2">  1       -1 0.39542644E+00 0.37617377E+04</pdfrwt>
<totfact> 0.10506088E-01</totfact>
</mgrwt>
</event>
<event>
12    6  0.9491186E-008  0.1534382E+04  0.7818608E-02  0.8861906E-01
          2   -1    0    0  501    0  0.00000000000E+00  0.00000000000E+00  0.13541005724E+04  0.13541005724E+04  0.00000000000E+00 0. -1.
         -1   -1    0    0    0  501 -0.00000000000E+00 -0.00000000000E+00 -0.43466630929E+03  0.43466630929E+03  0.00000000000E+00 0.  1.
         24    2    1    2    0    0  0.31170872705E+03 -0.99285079878E+02  0.74159744477E+03  0.81438534809E+03  0.78973840525E+02 0.  0.
        254    2    1    2    0    0 -0.31170872705E+03  0.99285079878E+02  0.17783681831E+03  0.97438153357E+03  0.90042966489E+03 0.  0.
         23    2    4    4    0    0 -0.55564766822E+02 -0.16929293128E+03  0.45819830716E+03  0.50023109082E+03  0.92400842220E+02 0.  0.
         23    2    4    4    0    0 -0.25614396023E+03  0.26857801116E+03 -0.28036148884E+03  0.47415044276E+03  0.92044562577E+02 0.  0.
          4    1    3    3  502    0  0.21871763396E+03 -0.53715821898E+02  0.42068021717E+03  0.47717359319E+03  0.00000000000E+00 0. -1.
         -3    1    3    3    0  502  0.92991093099E+02 -0.45569257980E+02  0.32091722760E+03  0.33721175490E+03  0.00000000000E+00 0.  1.
         11    1    5    5    0    0 -0.39862826511E+02 -0.14348054201E+03  0.25903338664E+03  0.29878756043E+03  0.00000000000E+00 0.  1.
        -11    1    5    5    0    0 -0.15701940311E+02 -0.25812389269E+02  0.19916492052E+03  0.20144353039E+03  0.00000000000E+00 0. -1.
          1    1    6    6  503    0 -0.96078849939E+02  0.41744050818E+02 -0.75877115217E+02  0.12934855159E+03  0.00000000000E+00 0. -1.
         -1    1    6    6    0  503 -0.16006511029E+03  0.22683396034E+03 -0.20448437363E+03  0.34480189117E+03  0.00000000000E+00 0.  1.
<mgrwt>
<rscale>  0 0.15343818E+04</rscale>
<asrwt>0</asrwt>
<pdfrwt beam="1">  1        2 0.20832316E+00 0.15343818E+04</pdfrwt>
<pdfrwt beam="2">  1       -1 0.66871740E-01 0.15343818E+04</pdfrwt>
<totfact> 0.38268537E+01</totfact>
</mgrwt>
</event>
<event>
12    6  0.9491186E-008  0.3694613E+04  0.7818608E-02  0.8069157E-01
         -1   -1    0    0    0  501 -0.00000000000E+00  0.00000000000E+00  0.13548785501E+04  0.13548785501E+04  0.00000000000E+00 0.  1.
          2   -1    0    0  501    0  0.00000000000E+00 -0.00000000000E+00 -0.25187059475E+04  0.25187059475E+04  0.00000000000E+00 0. -1.
         24    2    1    2    0    0  0.10616328433E+04 -0.12183425963E+04 -0.12178626077E+04  0.20251038645E+04  0.80208199126E+02 0.  0.
        254    2    1    2    0    0 -0.10616328433E+04  0.12183425963E+04  0.54035210240E+02  0.18484806330E+04  0.89584478063E+03 0.  0.
         23    2    4    4    0    0 -0.99278788102E+02 -0.12224956780E+03  0.72811182591E+02  0.19595021534E+03  0.91070214591E+02 0.  0.
         23    2    4    4    0    0 -0.96235405516E+03  0.13405921641E+04 -0.18775972351E+02  0.16525304177E+04  0.84803103951E+02 0.  0.
          4    1    3    3  502    0  0.81776938610E+03 -0.98442736897E+03 -0.94795992171E+03  0.15926305368E+04  0.00000000000E+00 0. -1.
         -3    1    3    3    0  502  0.24386345717E+03 -0.23391522731E+03 -0.26990268594E+03  0.43247332772E+03  0.00000000000E+00 0.  1.
         11    1    5    5    0    0 -0.14501065562E+02 -0.60029025823E+02  0.66274073777E+02  0.90587072470E+02  0.00000000000E+00 0. -1.
        -11    1    5    5    0    0 -0.84777722540E+02 -0.62220541975E+02  0.65371088139E+01  0.10536314286E+03  0.00000000000E+00 0.  1.
          1    1    6    6  503    0 -0.94775941660E+03  0.12964872001E+04 -0.17995001135E+02  0.16060668703E+04  0.00000000000E+00 0. -1.
         -1    1    6    6    0  503 -0.14594638560E+02  0.44104964006E+02 -0.78097121560E+00  0.46463547440E+02  0.00000000000E+00 0.  1.
<mgrwt>
<rscale>  0 0.36946127E+04</rscale>
<asrwt>0</asrwt>
<pdfrwt beam="1">  1        2 0.38749322E+00 0.36946127E+04</pdfrwt>
<pdfrwt beam="2">  1       -1 0.20844286E+00 0.36946127E+04</pdfrwt>
<totfact> 0.41101865E-01</totfact>
</mgrwt>
</event>
<event>
12    6  0.9491186E-008  0.1540478E+04  0.7818608E-02  0.8857973E-01
         -1   -1    0    0    0  501 -0.00000000000E+00  0.00000000000E+00  0.67772867403E+03  0.67772867403E+03  0.00000000000E+00 0.  1.
          2   -1    0    0  501    0  0.00000000000E+00 -0.00000000000E+00 -0.87537725583E+03  0.87537725583E+03  0.00000000000E+00 0. -1.
         24    2    1    2    0    0 -0.20539834280E+03 -0.45931229066E+03 -0.56685168349E+02  0.51296117460E+03  0.82217387229E+02 0.  0.
        254    2    1    2    0    0  0.20539834280E+03  0.45931229066E+03 -0.14096341345E+03  0.10401447553E+04  0.89937432051E+03 0.  0.
         23    2    4    4    0    0  0.29912377833E+03 -0.18411813083E+03  0.20256125287E+02  0.36405422877E+03  0.93544909045E+02 0.  0.
         23    2    4    4    0    0 -0.93725435525E+02  0.64343042149E+03 -0.16121953873E+03  0.67609052649E+03  0.91211270035E+02 0.  0.
          2    1    3    3  502    0  0.17394077305E+01 -0.85803583323E+01  0.90302302315E+01  0.12577485695E+02  0.00000000000E+00 0. -1.
         -1    1    3    3    0  502 -0.20713775053E+03 -0.45073193232E+03 -0.65715398581E+02  0.50038368891E+03  0.00000000000E+00 0.  1.
         11    1    5    5    0    0  0.20878327733E+03 -0.17331772002E+03  0.27747308391E+02  0.27276253792E+03  0.00000000000E+00 0.  1.
        -11    1    5    5    0    0  0.90340500999E+02 -0.10800410811E+02 -0.74911831044E+01  0.91291690852E+02  0.00000000000E+00 0. -1.
          4    1    6    6  503    0 -0.54794355643E+01  0.22851527923E+01 -0.97446526708E+01  0.11410713959E+02  0.00000000000E+00 0. -1.
         -4    1    6    6    0  503 -0.88245999961E+02  0.64114526870E+03 -0.15147488606E+03  0.66467981253E+03  0.00000000000E+00 0.  1.
<mgrwt>
<rscale>  0 0.15404782E+04</rscale>
<asrwt>0</asrwt>
<pdfrwt beam="1">  1        2 0.13467342E+00 0.15404782E+04</pdfrwt>
<pdfrwt beam="2">  1       -1 0.10426595E+00 0.15404782E+04</pdfrwt>
<totfact> 0.29008145E+01</totfact>
</mgrwt>
</event>
<event>
12    6  0.9491186E-008  0.1525221E+04  0.7818608E-02  0.8867852E-01
          2   -1    0    0  501    0  0.00000000000E+00  0.00000000000E+00  0.95544592950E+03  0.95544592950E+03  0.00000000000E+00 0. -1.
         -1   -1    0    0    0  501 -0.00000000000E+00 -0.00000000000E+00 -0.60869481744E+03  0.60869481744E+03  0.00000000000E+00 0.  1.
         24    2    1    2    0    0 -0.21487753243E+03  0.40722450476E+03 -0.89915544203E+02  0.47586029789E+03  0.79712400522E+02 0.  0.
        254    2    1    2    0    0  0.21487753243E+03 -0.40722450476E+03  0.43666665627E+03  0.10882804491E+04  0.88412239870E+03 0.  0.
         23    2    4    4    0    0  0.80012726015E+02 -0.27009842410E+03 -0.23875541253E+03  0.38005925073E+03  0.89920476128E+02 0.  0.
         23    2    4    4    0    0  0.13486480642E+03 -0.13712608066E+03  0.67542206880E+03  0.70822119832E+03  0.91598126214E+02 0.  0.
          4    1    3    3  502    0 -0.11486957518E+02  0.63919423822E+02  0.67319772668E+01  0.65291365835E+02  0.00000000000E+00 0. -1.
         -3    1    3    3    0  502 -0.20339057491E+03  0.34330508094E+03 -0.96647521470E+02  0.41056893205E+03  0.00000000000E+00 0.  1.
         11    1    5    5    0    0  0.55088185104E+02 -0.51805361541E+02 -0.69600215987E+02  0.10277496625E+03  0.00000000000E+00 0. -1.
        -11    1    5    5    0    0  0.24924540911E+02 -0.21829306256E+03 -0.16915519654E+03  0.27728428448E+03  0.00000000000E+00 0.  1.
          3    1    6    6  503    0  0.76761547462E+02 -0.12952135853E+03  0.54147368277E+03  0.56201589534E+03  0.00000000000E+00 0. -1.
         -3    1    6    6    0  503  0.58103258953E+02 -0.76047221245E+01  0.13394838603E+03  0.14620530298E+03  0.00000000000E+00 0.  1.
<mgrwt>
<rscale>  0 0.15252213E+04</rscale>
<asrwt>0</asrwt>
<pdfrwt beam="1">  1        2 0.14699168E+00 0.15252213E+04</pdfrwt>
<pdfrwt beam="2">  1       -1 0.93645357E-01 0.15252213E+04</pdfrwt>
<totfact> 0.32775464E+01</totfact>
</mgrwt>
</event>
<event>
12    6  0.9491186E-008  0.2774699E+04  0.7818608E-02  0.8311167E-01
          2   -1    0    0  501    0  0.00000000000E+00  0.00000000000E+00  0.12882584092E+04  0.12882584092E+04  0.00000000000E+00 0. -1.
         -1   -1    0    0    0  501 -0.00000000000E+00 -0.00000000000E+00 -0.14940621668E+04  0.14940621668E+04  0.00000000000E+00 0.  1.
         24    2    1    2    0    0  0.91804770867E+03  0.81346726722E+03 -0.26424734438E+03  0.12573244902E+04  0.80607842956E+02 0.  0.
        254    2    1    2    0    0 -0.91804770867E+03 -0.81346726722E+03  0.58443586752E+02  0.15249960858E+04  0.90424378283E+03 0.  0.
         23    2    4    4    0    0 -0.46915855682E+03 -0.46998714951E+03  0.47102440678E+03  0.81933696668E+03  0.91931501912E+02 0.  0.
         23    2    4    4    0    0 -0.44888915185E+03 -0.34348011771E+03 -0.41258082003E+03  0.70565911916E+03  0.90839404935E+02 0.  0.
          2    1    3    3  502    0  0.60009303920E+03  0.57264571403E+03 -0.20094231893E+03  0.85347090462E+03  0.00000000000E+00 0. -1.
         -1    1    3    3    0  502  0.31795466946E+03  0.24082155319E+03 -0.63305025448E+02  0.40385358555E+03  0.00000000000E+00 0.  1.
         11    1    5    5    0    0 -0.41421344467E+03 -0.37174467246E+03  0.37223991086E+03  0.66957406646E+03  0.00000000000E+00 0. -1.
        -11    1    5    5    0    0 -0.54945112152E+02 -0.98242477055E+02  0.98784495921E+02  0.14976290022E+03  0.00000000000E+00 0.  1.
          1    1    6    6  503    0 -0.22815040167E+03 -0.13530290057E+03 -0.23315409096E+03  0.35315762885E+03  0.00000000000E+00 0. -1.
         -1    1    6    6    0  503 -0.22073875018E+03 -0.20817721713E+03 -0.17942672908E+03  0.35250149031E+03  0.00000000000E+00 0.  1.
<mgrwt>
<rscale>  0 0.27746987E+04</rscale>
<asrwt>0</asrwt>
<pdfrwt beam="1">  1        2 0.19819360E+00 0.27746987E+04</pdfrwt>
<pdfrwt beam="2">  1       -1 0.22985572E+00 0.27746987E+04</pdfrwt>
<totfact> 0.15782703E+00</totfact>
</mgrwt>
</event>
<event>
12    6  0.9491186E-008  0.2523540E+04  0.7818608E-02  0.8394647E-01
         -1   -1    0    0    0  501 -0.00000000000E+00  0.00000000000E+00  0.82173378020E+03  0.82173378020E+03  0.00000000000E+00 0.  1.
          2   -1    0    0  501    0  0.00000000000E+00 -0.00000000000E+00 -0.19374450676E+04  0.19374450676E+04  0.00000000000E+00 0. -1.
         24    2    1    2    0    0  0.88747610137E+02 -0.10554416420E+04 -0.82223691853E+03  0.13429160354E+04  0.74274691636E+02 0.  0.
        254    2    1    2    0    0 -0.88747610137E+02  0.10554416420E+04 -0.29347436889E+03  0.14162628125E+04  0.89321887057E+03 0.  0.
         23    2    4    4    0    0 -0.20654013602E+03  0.42297379836E+03 -0.53899962790E+03  0.72140492256E+03  0.91317038558E+02 0.  0.
         23    2    4    4    0    0  0.11779252588E+03  0.63246784366E+03  0.24552525901E+03  0.69485788990E+03  0.93027855648E+02 0.  0.
          4    1    3    3  502    0  0.93333010631E+02 -0.78779114810E+03 -0.59217267901E+03  0.98994667819E+03  0.00000000000E+00 0. -1.
         -3    1    3    3    0  502 -0.45854004940E+01 -0.26765049393E+03 -0.23006423952E+03  0.35296935718E+03  0.00000000000E+00 0.  1.
         11    1    5    5    0    0 -0.30746603077E+02  0.15538838197E+03 -0.19975350021E+03  0.25493599922E+03  0.00000000000E+00 0.  1.
        -11    1    5    5    0    0 -0.17579353294E+03  0.26758541639E+03 -0.33924612768E+03  0.46646892334E+03  0.00000000000E+00 0. -1.
          1    1    6    6  503    0 -0.75697208436E+00  0.23687771551E+03  0.81559697443E+02  0.25052666397E+03  0.00000000000E+00 0. -1.
         -1    1    6    6    0  503  0.11854949797E+03  0.39559012815E+03  0.16396556156E+03  0.44433122593E+03  0.00000000000E+00 0.  1.
<mgrwt>
<rscale>  0 0.25235404E+04</rscale>
<asrwt>0</asrwt>
<pdfrwt beam="1">  1        2 0.29806847E+00 0.25235404E+04</pdfrwt>
<pdfrwt beam="2">  1       -1 0.12642058E+00 0.25235404E+04</pdfrwt>
<totfact> 0.39890315E+00</totfact>
</mgrwt>
</event>
<event>
12    6  0.9491186E-008  0.1558720E+04  0.7818608E-02  0.8846317E-01
         -1   -1    0    0    0  501 -0.00000000000E+00  0.00000000000E+00  0.14357585408E+04  0.14357585408E+04  0.00000000000E+00 0.  1.
          2   -1    0    0  501    0  0.00000000000E+00 -0.00000000000E+00 -0.42305309820E+03  0.42305309820E+03  0.00000000000E+00 0. -1.
         24    2    1    2    0    0 -0.35989709009E+03 -0.13698542557E+03  0.74958049706E+03  0.84650059241E+03  0.80008806467E+02 0.  0.
        254    2    1    2    0    0  0.35989709009E+03  0.13698542557E+03  0.26312494559E+03  0.10123110466E+04  0.89846980798E+03 0.  0.
         23    2    4    4    0    0  0.55024915412E+03  0.36345729531E+03  0.19059001147E+03  0.69253453466E+03  0.91674380828E+02 0.  0.
         23    2    4    4    0    0 -0.19035206403E+03 -0.22647186974E+03  0.72534934124E+02  0.31977651197E+03  0.97325663987E+02 0.  0.
          2    1    3    3  502    0 -0.32813224348E+02 -0.62916338631E+00  0.11598696681E+03  0.12054078152E+03  0.00000000000E+00 0. -1.
         -1    1    3    3    0  502 -0.32708386574E+03 -0.13635626218E+03  0.63359353024E+03  0.72595981089E+03  0.00000000000E+00 0.  1.
         11    1    5    5    0    0  0.46857676245E+03  0.28574065886E+03  0.18674609537E+03  0.57972925626E+03  0.00000000000E+00 0.  1.
        -11    1    5    5    0    0  0.81672391676E+02  0.77716636456E+02  0.38439160949E+01  0.11280527840E+03  0.00000000000E+00 0. -1.
          1    1    6    6  503    0 -0.74051581513E+02 -0.86026340242E+02  0.77362176384E+02  0.13736474903E+03  0.00000000000E+00 0. -1.
         -1    1    6    6    0  503 -0.11630048252E+03 -0.14044552950E+03 -0.48272422608E+01  0.18241176294E+03  0.00000000000E+00 0.  1.
<mgrwt>
<rscale>  0 0.15587201E+04</rscale>
<asrwt>0</asrwt>
<pdfrwt beam="1">  1        2 0.65085093E-01 0.15587201E+04</pdfrwt>
<pdfrwt beam="2">  1       -1 0.22088593E+00 0.15587201E+04</pdfrwt>
<totfact> 0.89125706E+00</totfact>
</mgrwt>
</event>
<event>
12    6  0.9491186E-008  0.1301447E+04  0.7818608E-02  0.9028418E-01
          2   -1    0    0  501    0  0.00000000000E+00  0.00000000000E+00  0.60265852592E+03  0.60265852592E+03  0.00000000000E+00 0. -1.
         -1   -1    0    0    0  501 -0.00000000000E+00 -0.00000000000E+00 -0.70262233962E+03  0.70262233962E+03  0.00000000000E+00 0.  1.
         24    2    1    2    0    0 -0.10520411273E+03 -0.33750748359E+02 -0.31356735535E+03  0.34191453922E+03  0.79837631699E+02 0.  0.
        254    2    1    2    0    0  0.10520411273E+03  0.33750748359E+02  0.21360354165E+03  0.96336632631E+03  0.93286718632E+03 0.  0.
         23    2    4    4    0    0  0.34731529397E+03 -0.13644377200E+03  0.43753434572E+03  0.58239928285E+03  0.92237761461E+02 0.  0.
         23    2    4    4    0    0 -0.24211118124E+03  0.17019452036E+03 -0.22393080406E+03  0.38096704346E+03  0.86063257856E+02 0.  0.
          2    1    3    3  502    0 -0.24385101151E+02 -0.47465249788E+02 -0.10415202406E+03  0.11702660899E+03  0.00000000000E+00 0. -1.
         -1    1    3    3    0  502 -0.80819011578E+02  0.13714501429E+02 -0.20941533130E+03  0.22488793023E+03  0.00000000000E+00 0.  1.
         11    1    5    5    0    0  0.15427340569E+03 -0.70805396878E+02  0.26797185827E+03  0.31721066305E+03  0.00000000000E+00 0. -1.
        -11    1    5    5    0    0  0.19304188829E+03 -0.65638375120E+02  0.16956248744E+03  0.26518861980E+03  0.00000000000E+00 0.  1.
          3    1    6    6  503    0 -0.89867717600E+02  0.10436717069E+03 -0.13459446235E+03  0.19257305700E+03  0.00000000000E+00 0. -1.
         -3    1    6    6    0  503 -0.15224346364E+03  0.65827349664E+02 -0.89336341712E+02  0.18839398647E+03  0.00000000000E+00 0.  1.
<mgrwt>
<rscale>  0 0.13014474E+04</rscale>
<asrwt>0</asrwt>
<pdfrwt beam="1">  1        2 0.92716696E-01 0.13014474E+04</pdfrwt>
<pdfrwt beam="2">  1       -1 0.10809575E+00 0.13014474E+04</pdfrwt>
<totfact> 0.43964372E+01</totfact>
</mgrwt>
</event>
<event>
12    6  0.9491186E-008  0.1861548E+04  0.7818608E-02  0.8674237E-01
          2   -1    0    0  501    0  0.00000000000E+00  0.00000000000E+00  0.15298099973E+04  0.15298099973E+04  0.00000000000E+00 0. -1.
         -1   -1    0    0    0  501 -0.00000000000E+00 -0.00000000000E+00 -0.56630573875E+03  0.56630573875E+03  0.00000000000E+00 0.  1.
         24    2    1    2    0    0  0.29080285119E+03 -0.56161639953E+03  0.74075593118E+03  0.97706519965E+03  0.77186632896E+02 0.  0.
        254    2    1    2    0    0 -0.29080285119E+03  0.56161639953E+03  0.22274832742E+03  0.11190505364E+04  0.89592299182E+03 0.  0.
         23    2    4    4    0    0 -0.15910420798E+03  0.77912155674E+03  0.58807914305E+02  0.80321477292E+03  0.96700834923E+02 0.  0.
         23    2    4    4    0    0 -0.13169864322E+03 -0.21750515721E+03  0.16394041311E+03  0.31583576352E+03  0.90679349534E+02 0.  0.
          4    1    3    3  502    0  0.29340524232E+03 -0.55980888710E+03  0.74093976227E+03  0.97389134795E+03  0.00000000000E+00 0. -1.
         -3    1    3    3    0  502 -0.26023911243E+01 -0.18075124308E+01 -0.18383108646E+00  0.31738517010E+01  0.00000000000E+00 0.  1.
         11    1    5    5    0    0 -0.14275427041E+02  0.68753847724E+02  0.33475162002E+02  0.77791168297E+02  0.00000000000E+00 0.  1.
        -11    1    5    5    0    0 -0.14482878094E+03  0.71036770902E+03  0.25332752303E+02  0.72542360462E+03  0.00000000000E+00 0. -1.
          3    1    6    6  503    0 -0.98695039713E+02 -0.17780195806E+03  0.16837569811E+03  0.26401633068E+03  0.00000000000E+00 0. -1.
         -3    1    6    6    0  503 -0.33003603504E+02 -0.39703199149E+02 -0.44352849973E+01  0.51819432841E+02  0.00000000000E+00 0.  1.
<mgrwt>
<rscale>  0 0.18615479E+04</rscale>
<asrwt>0</asrwt>
<pdfrwt beam="1">  1        2 0.23535538E+00 0.18615479E+04</pdfrwt>
<pdfrwt beam="2">  1       -1 0.87123961E-01 0.18615479E+04</pdfrwt>
<totfact> 0.16957817E+01</totfact>
</mgrwt>
</event>
<event>
12    6  0.9491186E-008  0.2333208E+04  0.7818608E-02  0.8464942E-01
         -1   -1    0    0    0  501 -0.00000000000E+00  0.00000000000E+00  0.10852066273E+04  0.10852066273E+04  0.00000000000E+00 0.  1.
          2   -1    0    0  501    0  0.00000000000E+00 -0.00000000000E+00 -0.12541063213E+04  0.12541063213E+04  0.00000000000E+00 0. -1.
         24    2    1    2    0    0  0.35613534189E+01 -0.97613101793E+03 -0.31998134899E+03  0.10304030200E+04  0.80609382108E+02 0.  0.
        254    2    1    2    0    0 -0.35613534189E+01  0.97613101793E+03  0.15108165495E+03  0.13089099287E+04  0.85882191838E+03 0.  0.
         23    2    4    4    0    0  0.24291085732E+03  0.56561635822E+03 -0.25599391936E+03  0.67292241806E+03  0.91455697963E+02 0.  0.
         23    2    4    4    0    0 -0.24647221073E+03  0.41051465971E+03  0.40707557431E+03  0.63598751060E+03  0.97461551072E+02 0.  0.
          2    1    3    3  502    0  0.97102103781E+01 -0.96276988504E+03 -0.30643472499E+03  0.10104070370E+04  0.00000000000E+00 0. -1.
         -1    1    3    3    0  502 -0.61488569592E+01 -0.13361132893E+02 -0.13546623995E+02  0.19995982991E+02  0.00000000000E+00 0.  1.
         11    1    5    5    0    0  0.16128256336E+03  0.26141193295E+03 -0.13492385057E+03  0.33548876194E+03  0.00000000000E+00 0. -1.
        -11    1    5    5    0    0  0.81628293955E+02  0.30420442527E+03 -0.12107006879E+03  0.33743365613E+03  0.00000000000E+00 0.  1.
          1    1    6    6  503    0 -0.14503391677E+03  0.16850060290E+03  0.14698472299E+03  0.26651791494E+03  0.00000000000E+00 0. -1.
         -1    1    6    6    0  503 -0.10143829396E+03  0.24201405681E+03  0.26009085132E+03  0.36946959566E+03  0.00000000000E+00 0.  1.
<mgrwt>
<rscale>  0 0.23332077E+04</rscale>
<asrwt>0</asrwt>
<pdfrwt beam="1">  1        2 0.19293943E+00 0.23332077E+04</pdfrwt>
<pdfrwt beam="2">  1       -1 0.16695487E+00 0.23332077E+04</pdfrwt>
<totfact> 0.46975219E+00</totfact>
</mgrwt>
</event>
<event>
12    6  0.9491186E-008  0.1254606E+04  0.7818608E-02  0.9066358E-01
         -1   -1    0    0    0  501 -0.00000000000E+00  0.00000000000E+00  0.34724714627E+03  0.34724714627E+03  0.00000000000E+00 0.  1.
          2   -1    0    0  501    0  0.00000000000E+00 -0.00000000000E+00 -0.11332248139E+04  0.11332248139E+04  0.00000000000E+00 0. -1.
         24    2    1    2    0    0 -0.23756168275E+03 -0.24204415944E+03 -0.12138249011E+03  0.36905286451E+03  0.80283121955E+02 0.  0.
        254    2    1    2    0    0  0.23756168275E+03  0.24204415944E+03 -0.66459517747E+03  0.11114190956E+04  0.82373826421E+03 0.  0.
         23    2    4    4    0    0  0.31390259245E+03 -0.42531528503E+02 -0.72437531932E+03  0.79729275214E+03  0.10301631380E+03 0.  0.
         23    2    4    4    0    0 -0.76340909700E+02  0.28457568794E+03  0.59780141848E+02  0.31412634346E+03  0.91051840370E+02 0.  0.
          4    1    3    3  502    0 -0.14239404819E+03 -0.17573719703E+03 -0.11278601865E+03  0.25274555067E+03  0.00000000000E+00 0. -1.
         -3    1    3    3    0  502 -0.95167634565E+02 -0.66306962406E+02 -0.85964714578E+01  0.11630731384E+03  0.00000000000E+00 0.  1.
         11    1    5    5    0    0  0.32606676193E+02 -0.69989928005E+01 -0.22275883202E+02  0.40104815234E+02  0.00000000000E+00 0. -1.
        -11    1    5    5    0    0  0.28129591626E+03 -0.35532535702E+02 -0.70209943612E+03  0.75718793691E+03  0.00000000000E+00 0.  1.
          2    1    6    6  503    0 -0.63595366663E+02  0.90008423035E+02  0.43432801639E+02  0.11845798891E+03  0.00000000000E+00 0. -1.
         -2    1    6    6    0  503 -0.12745543038E+02  0.19456726491E+03  0.16347340209E+02  0.19566835455E+03  0.00000000000E+00 0.  1.
<mgrwt>
<rscale>  0 0.12546060E+04</rscale>
<asrwt>0</asrwt>
<pdfrwt beam="1">  1        2 0.17434228E+00 0.12546060E+04</pdfrwt>
<pdfrwt beam="2">  1       -1 0.53422638E-01 0.12546060E+04</pdfrwt>
<totfact> 0.82359676E+01</totfact>
</mgrwt>
</event>
<event>
12    6  0.9491186E-008  0.1263568E+04  0.7818608E-02  0.9058966E-01
          2   -1    0    0  501    0  0.00000000000E+00  0.00000000000E+00  0.31871638397E+04  0.31871638397E+04  0.00000000000E+00 0. -1.
         -1   -1    0    0    0  501 -0.00000000000E+00 -0.00000000000E+00 -0.12523696717E+03  0.12523696717E+03  0.00000000000E+00 0.  1.
         24    2    1    2    0    0  0.83911429674E+02 -0.15676378376E+03  0.14081683162E+04  0.14216766448E+04  0.81304758530E+02 0.  0.
        254    2    1    2    0    0 -0.83911429674E+02  0.15676378376E+03  0.16537585563E+04  0.18907241621E+04  0.89905755234E+03 0.  0.
         23    2    4    4    0    0  0.18326732568E+03  0.42530324195E+03  0.57877503293E+03  0.74719133724E+03  0.94045709257E+02 0.  0.
         23    2    4    4    0    0 -0.26717875536E+03 -0.26853945819E+03  0.10749835234E+04  0.11435328248E+04  0.92627306619E+02 0.  0.
          4    1    3    3  502    0  0.16853312138E+02 -0.11089970928E+03  0.91688649814E+03  0.92372270196E+03  0.00000000000E+00 0. -1.
         -3    1    3    3    0  502  0.67058117536E+02 -0.45864074478E+02  0.49128181804E+03  0.49795394284E+03  0.00000000000E+00 0.  1.
         11    1    5    5    0    0  0.40132230554E+02  0.24626672013E+02  0.57434386741E+02  0.74268281816E+02  0.00000000000E+00 0.  1.
        -11    1    5    5    0    0  0.14313509513E+03  0.40067656993E+03  0.52134064619E+03  0.67292305543E+03  0.00000000000E+00 0. -1.
          3    1    6    6  503    0 -0.52395874400E+02 -0.11370204316E+03  0.34669667586E+03  0.36860828439E+03  0.00000000000E+00 0. -1.
         -3    1    6    6    0  503 -0.21478288096E+03 -0.15483741503E+03  0.72828684755E+03  0.77492454043E+03  0.00000000000E+00 0.  1.
<mgrwt>
<rscale>  0 0.12635675E+04</rscale>
<asrwt>0</asrwt>
<pdfrwt beam="1">  1        2 0.49033284E+00 0.12635675E+04</pdfrwt>
<pdfrwt beam="2">  1       -1 0.19267228E-01 0.12635675E+04</pdfrwt>
<totfact> 0.32726173E+01</totfact>
</mgrwt>
</event>
<event>
12    6  0.9491186E-008  0.2688769E+04  0.7818608E-02  0.8338658E-01
         -1   -1    0    0    0  501 -0.00000000000E+00  0.00000000000E+00  0.17157612820E+04  0.17157612820E+04  0.00000000000E+00 0.  1.
          2   -1    0    0  501    0  0.00000000000E+00 -0.00000000000E+00 -0.10533920176E+04  0.10533920176E+04  0.00000000000E+00 0. -1.
         24    2    1    2    0    0  0.10678930280E+04  0.47309706690E+03  0.37017480719E+03  0.12278176092E+04  0.79311660696E+02 0.  0.
        254    2    1    2    0    0 -0.10678930280E+04 -0.47309706690E+03  0.29219445721E+03  0.15413356904E+04  0.96235219931E+03 0.  0.
         23    2    4    4    0    0 -0.83033866946E+03  0.14798597908E+02  0.47516417213E+03  0.96137368364E+03  0.93685989443E+02 0.  0.
         23    2    4    4    0    0 -0.23755435857E+03 -0.48789566480E+03 -0.18296971492E+03  0.57996200672E+03  0.91672022141E+02 0.  0.
          2    1    3    3  502    0  0.53698273255E+03  0.24352231697E+03  0.22809176759E+03  0.63220204711E+03  0.00000000000E+00 0. -1.
         -1    1    3    3    0  502  0.53091029548E+03  0.22957474992E+03  0.14208303960E+03  0.59561556208E+03  0.00000000000E+00 0.  1.
         11    1    5    5    0    0 -0.54557089712E+03  0.26300732524E+02  0.26393750501E+03  0.60663196327E+03  0.00000000000E+00 0.  1.
        -11    1    5    5    0    0 -0.28476777234E+03 -0.11502134616E+02  0.21122666713E+03  0.35474172037E+03  0.00000000000E+00 0. -1.
          3    1    6    6  503    0 -0.18933281223E+03 -0.29693067782E+03 -0.13579398457E+03  0.37743177855E+03  0.00000000000E+00 0. -1.
         -3    1    6    6    0  503 -0.48221546348E+02 -0.19096498698E+03 -0.47175730357E+02  0.20253022816E+03  0.00000000000E+00 0.  1.
<mgrwt>
<rscale>  0 0.26887687E+04</rscale>
<asrwt>0</asrwt>
<pdfrwt beam="1">  1        2 0.16206031E+00 0.26887687E+04</pdfrwt>
<pdfrwt beam="2">  1       -1 0.26396327E+00 0.26887687E+04</pdfrwt>
<totfact> 0.13182631E+00</totfact>
</mgrwt>
</event>
<event>
12    6  0.9491186E-008  0.2735750E+04  0.7818608E-02  0.8323498E-01
         -1   -1    0    0    0  501 -0.00000000000E+00  0.00000000000E+00  0.10201371695E+04  0.10201371695E+04  0.00000000000E+00 0.  1.
          2   -1    0    0  501    0  0.00000000000E+00 -0.00000000000E+00 -0.18341481057E+04  0.18341481057E+04  0.00000000000E+00 0. -1.
         24    2    1    2    0    0 -0.73135329083E+03 -0.45121640257E+02 -0.13805427804E+04  0.15650620767E+04  0.81285528225E+02 0.  0.
        254    2    1    2    0    0  0.73135329083E+03  0.45121640257E+02  0.56653184410E+03  0.12892231985E+04  0.89678566374E+03 0.  0.
         23    2    4    4    0    0 -0.61104018867E+02  0.40756519098E+02  0.47349662811E+03  0.48577957428E+03  0.79924608177E+02 0.  0.
         23    2    4    4    0    0  0.79245730969E+03  0.43651211593E+01  0.93035215995E+02  0.80344362420E+03  0.94119412851E+02 0.  0.
          2    1    3    3  502    0 -0.58879574006E+03 -0.28970680064E+02 -0.10385876212E+04  0.11942294465E+04  0.00000000000E+00 0. -1.
         -1    1    3    3    0  502 -0.14255755077E+03 -0.16150960193E+02 -0.34195515915E+03  0.37083263026E+03  0.00000000000E+00 0.  1.
         11    1    5    5    0    0 -0.52774847848E+02  0.44932199482E+02  0.19198016569E+03  0.20410896877E+03  0.00000000000E+00 0. -1.
        -11    1    5    5    0    0 -0.83291710189E+01 -0.41756803844E+01  0.28151646242E+03  0.28167060551E+03  0.00000000000E+00 0.  1.
          2    1    6    6  503    0  0.11830439237E+03 -0.21097830932E+02  0.40315412367E+02  0.12675322560E+03  0.00000000000E+00 0. -1.
         -2    1    6    6    0  503  0.67415291732E+03  0.25462952092E+02  0.52719803628E+02  0.67669039860E+03  0.00000000000E+00 0.  1.
<mgrwt>
<rscale>  0 0.27357505E+04</rscale>
<asrwt>0</asrwt>
<pdfrwt beam="1">  1        2 0.28217663E+00 0.27357505E+04</pdfrwt>
<pdfrwt beam="2">  1       -1 0.15694418E+00 0.27357505E+04</pdfrwt>
<totfact> 0.25355137E+00</totfact>
</mgrwt>
</event>
<event>
12    6  0.9491186E-008  0.4054977E+04  0.7818608E-02  0.7993547E-01
          2   -1    0    0  501    0  0.00000000000E+00  0.00000000000E+00  0.49768503918E+04  0.49768503918E+04  0.00000000000E+00 0. -1.
         -3   -1    0    0    0  501 -0.00000000000E+00 -0.00000000000E+00 -0.82596619677E+03  0.82596619677E+03  0.00000000000E+00 0.  1.
         24    2    1    2    0    0 -0.18769279743E+04 -0.42023657655E+03  0.18021151934E+04  0.26369321065E+04  0.79588712752E+02 0.  0.
        254    2    1    2    0    0  0.18769279743E+04  0.42023657655E+03  0.23487690017E+04  0.31658844821E+04  0.89813770099E+03 0.  0.
         23    2    4    4    0    0  0.60058230603E+03  0.15598151195E+03  0.14509321971E+04  0.15805790917E+04  0.89424191320E+02 0.  0.
         23    2    4    4    0    0  0.12763456682E+04  0.26425506460E+03  0.89783680454E+03  0.15853053904E+04  0.90516569424E+02 0.  0.
          2    1    3    3  502    0 -0.10388261196E+04 -0.23416130813E+03  0.94342045652E+03  0.14226852718E+04  0.00000000000E+00 0. -1.
         -1    1    3    3    0  502 -0.83810185471E+03 -0.18607526841E+03  0.85869473686E+03  0.12142468347E+04  0.00000000000E+00 0.  1.
         11    1    5    5    0    0  0.33251681523E+03  0.10553085156E+03  0.71113165452E+03  0.79209369591E+03  0.00000000000E+00 0.  1.
        -11    1    5    5    0    0  0.26806549080E+03  0.50450660390E+02  0.73980054259E+03  0.78848539575E+03  0.00000000000E+00 0. -1.
          3    1    6    6  503    0  0.12586122015E+04  0.26860508273E+03  0.89295720143E+03  0.15664054162E+04  0.00000000000E+00 0. -1.
         -3    1    6    6    0  503  0.17733466722E+02 -0.43500181370E+01  0.48796031072E+01  0.18899974240E+02  0.00000000000E+00 0.  1.
<mgrwt>
<rscale>  0 0.40549773E+04</rscale>
<asrwt>0</asrwt>
<pdfrwt beam="1">  1        2 0.76566927E+00 0.40549773E+04</pdfrwt>
<pdfrwt beam="2">  1       -3 0.12707173E+00 0.40549773E+04</pdfrwt>
<totfact> 0.89614234E-03</totfact>
</mgrwt>
</event>
<event>
12    6  0.9491186E-008  0.2291989E+04  0.7818608E-02  0.8481087E-01
         -1   -1    0    0    0  501 -0.00000000000E+00  0.00000000000E+00  0.63230228044E+03  0.63230228044E+03  0.00000000000E+00 0.  1.
          2   -1    0    0  501    0  0.00000000000E+00 -0.00000000000E+00 -0.20770174707E+04  0.20770174707E+04  0.00000000000E+00 0. -1.
         24    2    1    2    0    0 -0.82443388900E+02 -0.65388597972E+03  0.22696150632E+03  0.70188216524E+03  0.82239052086E+02 0.  0.
        254    2    1    2    0    0  0.82443388900E+02  0.65388597972E+03 -0.16716766965E+04  0.20074375859E+04  0.89495189622E+03 0.  0.
         23    2    4    4    0    0  0.27939667286E+03  0.79323688480E+03 -0.13756049573E+04  0.16147905319E+04  0.89287217628E+02 0.  0.
         23    2    4    4    0    0 -0.19695328396E+03 -0.13935090509E+03 -0.29607173923E+03  0.39264705393E+03  0.91126085075E+02 0.  0.
          4    1    3    3  502    0  0.13692864175E+02 -0.10718460929E+03  0.51657954630E+02  0.11976885770E+03  0.00000000000E+00 0. -1.
         -3    1    3    3    0  502 -0.96136253075E+02 -0.54670137042E+03  0.17530355169E+03  0.58211330754E+03  0.00000000000E+00 0.  1.
         11    1    5    5    0    0  0.48951673339E+02  0.98903404788E+02 -0.13298217067E+03  0.17280742900E+03  0.00000000000E+00 0. -1.
        -11    1    5    5    0    0  0.23044499952E+03  0.69433348001E+03 -0.12426227866E+04  0.14419831029E+04  0.00000000000E+00 0.  1.
          1    1    6    6  503    0  0.97965390521E+01 -0.46710788954E+01 -0.89557897991E+01  0.14071152276E+02  0.00000000000E+00 0. -1.
         -1    1    6    6    0  503 -0.20674982301E+03 -0.13467982619E+03 -0.28711594943E+03  0.37857590166E+03  0.00000000000E+00 0.  1.
<mgrwt>
<rscale>  0 0.22919886E+04</rscale>
<asrwt>0</asrwt>
<pdfrwt beam="1">  1        2 0.31954114E+00 0.22919886E+04</pdfrwt>
<pdfrwt beam="2">  1       -1 0.97277276E-01 0.22919886E+04</pdfrwt>
<totfact> 0.63415753E+00</totfact>
</mgrwt>
</event>
<event>
12    6  0.9491186E-008  0.2559768E+04  0.7818608E-02  0.8381997E-01
         -1   -1    0    0    0  501 -0.00000000000E+00  0.00000000000E+00  0.12313820260E+04  0.12313820260E+04  0.00000000000E+00 0.  1.
          2   -1    0    0  501    0  0.00000000000E+00 -0.00000000000E+00 -0.13302959041E+04  0.13302959041E+04  0.00000000000E+00 0. -1.
         24    2    1    2    0    0  0.48146899035E+03  0.32620045715E+03  0.91994693150E+03  0.10910750866E+04  0.76963374420E+02 0.  0.
        254    2    1    2    0    0 -0.48146899035E+03 -0.32620045715E+03 -0.10188608096E+04  0.14706028434E+04  0.88677857821E+03 0.  0.
         23    2    4    4    0    0  0.65097692674E+02 -0.47028032371E+03 -0.53795337785E+03  0.72287660513E+03  0.88065072799E+02 0.  0.
         23    2    4    4    0    0 -0.54656668303E+03  0.14407986656E+03 -0.48090743173E+03  0.74772623826E+03  0.91260191448E+02 0.  0.
          2    1    3    3  502    0  0.53372498422E+02  0.51293071424E+02  0.79449521515E+02  0.10859018939E+03  0.00000000000E+00 0. -1.
         -1    1    3    3    0  502  0.42809649193E+03  0.27490738573E+03  0.84049740999E+03  0.98248489725E+03  0.00000000000E+00 0.  1.
         11    1    5    5    0    0  0.42731750540E+02 -0.42318828126E+03 -0.44037995423E+03  0.61224899182E+03  0.00000000000E+00 0. -1.
        -11    1    5    5    0    0  0.22365942134E+02 -0.47092042449E+02 -0.97573423619E+02  0.11062761331E+03  0.00000000000E+00 0.  1.
          3    1    6    6  503    0 -0.52339548800E+03  0.15636703184E+03 -0.46137293088E+03  0.71502340301E+03  0.00000000000E+00 0. -1.
         -3    1    6    6    0  503 -0.23171195032E+02 -0.12287165283E+02 -0.19534500850E+02  0.32702835249E+02  0.00000000000E+00 0.  1.
<mgrwt>
<rscale>  0 0.25597675E+04</rscale>
<asrwt>0</asrwt>
<pdfrwt beam="1">  1        2 0.20466091E+00 0.25597675E+04</pdfrwt>
<pdfrwt beam="2">  1       -1 0.18944339E+00 0.25597675E+04</pdfrwt>
<totfact> 0.28619333E+00</totfact>
</mgrwt>
</event>
<event>
12    6  0.9491186E-008  0.1010595E+04  0.7818608E-02  0.9297000E-01
         -1   -1    0    0    0  501 -0.00000000000E+00  0.00000000000E+00  0.24395306099E+03  0.24395306099E+03  0.00000000000E+00 0.  1.
          2   -1    0    0  501    0  0.00000000000E+00 -0.00000000000E+00 -0.10466169581E+04  0.10466169581E+04  0.00000000000E+00 0. -1.
         24    2    1    2    0    0 -0.25406661885E+02 -0.65662037634E+02 -0.52541106810E+02  0.11994160146E+03  0.81660383308E+02 0.  0.
        254    2    1    2    0    0  0.25406661885E+02  0.65662037634E+02 -0.75012279031E+03  0.11706284176E+04  0.89595183464E+03 0.  0.
         23    2    4    4    0    0  0.15271806211E+03  0.29576590423E+03  0.26354593264E+02  0.34572665575E+03  0.89621868475E+02 0.  0.
         23    2    4    4    0    0 -0.12731140023E+03 -0.23010386660E+03 -0.77647738357E+03  0.82490176189E+03  0.91595892495E+02 0.  0.
          2    1    3    3  502    0  0.27019636294E+02 -0.22115247961E+02 -0.35279441865E+02  0.49636518372E+02  0.00000000000E+00 0. -1.
         -1    1    3    3    0  502 -0.52426298179E+02 -0.43546789673E+02 -0.17261664946E+02  0.70305083090E+02  0.00000000000E+00 0.  1.
         11    1    5    5    0    0  0.66054176571E+01  0.68226191513E+02 -0.19923906502E+02  0.71382118217E+02  0.00000000000E+00 0. -1.
        -11    1    5    5    0    0  0.14611264446E+03  0.22753971272E+03  0.46278499767E+02  0.27434453753E+03  0.00000000000E+00 0.  1.
          3    1    6    6  503    0 -0.18402038698E+02 -0.11337298143E+03 -0.25822128111E+03  0.28261333649E+03  0.00000000000E+00 0. -1.
         -3    1    6    6    0  503 -0.10890936153E+03 -0.11673088517E+03 -0.51825610246E+03  0.54228842540E+03  0.00000000000E+00 0.  1.
<mgrwt>
<rscale>  0 0.10105947E+04</rscale>
<asrwt>0</asrwt>
<pdfrwt beam="1">  1        2 0.16101799E+00 0.10105947E+04</pdfrwt>
<pdfrwt beam="2">  1       -1 0.37531241E-01 0.10105947E+04</pdfrwt>
<totfact> 0.18287069E+02</totfact>
</mgrwt>
</event>
<event>
12    6  0.9491186E-008  0.1144687E+04  0.7818608E-02  0.9162699E-01
         -1   -1    0    0    0  501 -0.00000000000E+00  0.00000000000E+00  0.29640734566E+03  0.29640734566E+03  0.00000000000E+00 0.  1.
          2   -1    0    0  501    0  0.00000000000E+00 -0.00000000000E+00 -0.11051593890E+04  0.11051593890E+04  0.00000000000E+00 0. -1.
         24    2    1    2    0    0  0.12492240939E+03  0.11473527372E+03 -0.18169941618E+02  0.18764294914E+03  0.78166093536E+02 0.  0.
        254    2    1    2    0    0 -0.12492240939E+03 -0.11473527372E+03 -0.79058210173E+03  0.12139237855E+04  0.90543973079E+03 0.  0.
         23    2    4    4    0    0 -0.31155512869E+03 -0.41266267590E+03 -0.62094843134E+03  0.81339411377E+03  0.93144767126E+02 0.  0.
         23    2    4    4    0    0  0.18663271930E+03  0.29792740217E+03 -0.16963367039E+03  0.40052967175E+03  0.89754815716E+02 0.  0.
          4    1    3    3  502    0  0.33989504442E+02  0.57784298132E+02 -0.40117404560E+02  0.78126293087E+02  0.00000000000E+00 0. -1.
         -3    1    3    3    0  502  0.90932904951E+02  0.56950975593E+02  0.21947462942E+02  0.10951665605E+03  0.00000000000E+00 0.  1.
         11    1    5    5    0    0 -0.41780067626E+02 -0.33946337463E+02 -0.11049412358E+03  0.12291004525E+03  0.00000000000E+00 0.  1.
        -11    1    5    5    0    0 -0.26977506107E+03 -0.37871633844E+03 -0.51045430776E+03  0.69048406852E+03  0.00000000000E+00 0. -1.
          1    1    6    6  503    0  0.62056390758E+02  0.10369383095E+03 -0.10705450889E+03  0.16144371801E+03  0.00000000000E+00 0. -1.
         -1    1    6    6    0  503  0.12457632854E+03  0.19423357123E+03 -0.62579161503E+02  0.23908595375E+03  0.00000000000E+00 0.  1.
<mgrwt>
<rscale>  0 0.11446875E+04</rscale>
<asrwt>0</asrwt>
<pdfrwt beam="1">  1        2 0.17002452E+00 0.11446875E+04</pdfrwt>
<pdfrwt beam="2">  1       -1 0.45601131E-01 0.11446875E+04</pdfrwt>
<totfact> 0.11658805E+02</totfact>
</mgrwt>
</event>
<event>
12    6  0.9491186E-008  0.2401381E+04  0.7818608E-02  0.8438987E-01
         -1   -1    0    0    0  501 -0.00000000000E+00  0.00000000000E+00  0.50212527868E+03  0.50212527868E+03  0.00000000000E+00 0.  1.
          2   -1    0    0  501    0  0.00000000000E+00 -0.00000000000E+00 -0.28711119721E+04  0.28711119721E+04  0.00000000000E+00 0. -1.
         24    2    1    2    0    0 -0.82385273495E+03 -0.24195150904E+03 -0.21242791981E+03  0.88794787158E+03  0.77794215192E+02 0.  0.
        254    2    1    2    0    0  0.82385273495E+03  0.24195150904E+03 -0.21565587736E+04  0.24852893792E+04  0.88805613153E+03 0.  0.
         23    2    4    4    0    0  0.49113373378E+03 -0.25489794129E+03 -0.14519732310E+04  0.15566005844E+04  0.92702809567E+02 0.  0.
         23    2    4    4    0    0  0.33271900117E+03  0.49684945033E+03 -0.70458554254E+03  0.92868879474E+03  0.91982502038E+02 0.  0.
          2    1    3    3  502    0 -0.86930255178E+02 -0.18795329067E+02  0.10031536915E+01  0.88944589365E+02  0.00000000000E+00 0. -1.
         -1    1    3    3    0  502 -0.73692247977E+03 -0.22315617997E+03 -0.21343107351E+03  0.79900328221E+03  0.00000000000E+00 0.  1.
         11    1    5    5    0    0  0.23354040049E+03 -0.17172871997E+03 -0.71855830767E+03  0.77482766693E+03  0.00000000000E+00 0.  1.
        -11    1    5    5    0    0  0.25759333328E+03 -0.83169221321E+02 -0.73341492335E+03  0.78177291749E+03  0.00000000000E+00 0. -1.
          2    1    6    6  503    0  0.23399126228E+02  0.23266495909E+02 -0.77201609645E+02  0.83957950617E+02  0.00000000000E+00 0. -1.
         -2    1    6    6    0  503  0.30931987494E+03  0.47358295442E+03 -0.62738393290E+03  0.84473084412E+03  0.00000000000E+00 0.  1.
<mgrwt>
<rscale>  0 0.24013812E+04</rscale>
<asrwt>0</asrwt>
<pdfrwt beam="1">  1        2 0.44170953E+00 0.24013812E+04</pdfrwt>
<pdfrwt beam="2">  1       -1 0.77250044E-01 0.24013812E+04</pdfrwt>
<totfact> 0.35970591E+00</totfact>
</mgrwt>
</event>
<event>
12    6  0.9491186E-008  0.2522754E+04  0.7818608E-02  0.8394924E-01
          2   -1    0    0  501    0  0.00000000000E+00  0.00000000000E+00  0.30968753643E+04  0.30968753643E+04  0.00000000000E+00 0. -1.
         -1   -1    0    0    0  501 -0.00000000000E+00 -0.00000000000E+00 -0.51376665880E+03  0.51376665880E+03  0.00000000000E+00 0.  1.
         24    2    1    2    0    0  0.60128119574E+03  0.10647405243E+03 -0.17971972839E+03  0.64151442951E+03  0.79785852854E+02 0.  0.
        254    2    1    2    0    0 -0.60128119574E+03 -0.10647405243E+03  0.27628284339E+04  0.29691275936E+04  0.89978992643E+03 0.  0.
         23    2    4    4    0    0  0.46663303642E+02  0.37188724087E+02  0.17589434358E+04  0.17622093837E+04  0.89103515943E+02 0.  0.
         23    2    4    4    0    0 -0.64794449938E+03 -0.14366277651E+03  0.10038849981E+04  0.12069182099E+04  0.91626460958E+02 0.  0.
          2    1    3    3  502    0  0.24407344691E+03  0.59541918359E+02 -0.11137424403E+03  0.27481140763E+03  0.00000000000E+00 0. -1.
         -1    1    3    3    0  502  0.35720774882E+03  0.46932134068E+02 -0.68345484362E+02  0.36670302189E+03  0.00000000000E+00 0.  1.
         11    1    5    5    0    0  0.11346393468E+02 -0.94348903460E+01  0.46891372869E+02  0.49158505369E+02  0.00000000000E+00 0.  1.
        -11    1    5    5    0    0  0.35316910174E+02  0.46623614433E+02  0.17120520629E+04  0.17130508783E+04  0.00000000000E+00 0. -1.
          2    1    6    6  503    0 -0.37100061350E+03 -0.35897090375E+02  0.54991101495E+03  0.66432836812E+03  0.00000000000E+00 0. -1.
         -2    1    6    6    0  503 -0.27694388588E+03 -0.10776568614E+03  0.45397398318E+03  0.54258984181E+03  0.00000000000E+00 0.  1.
<mgrwt>
<rscale>  0 0.25227535E+04</rscale>
<asrwt>0</asrwt>
<pdfrwt beam="1">  1        2 0.47644235E+00 0.25227535E+04</pdfrwt>
<pdfrwt beam="2">  1       -1 0.79041026E-01 0.25227535E+04</pdfrwt>
<totfact> 0.24500013E+00</totfact>
</mgrwt>
</event>
<event>
12    6  0.9491186E-008  0.1319722E+04  0.7818608E-02  0.9014070E-01
          2   -1    0    0  501    0  0.00000000000E+00  0.00000000000E+00  0.60217732168E+03  0.60217732168E+03  0.00000000000E+00 0. -1.
         -1   -1    0    0    0  501 -0.00000000000E+00 -0.00000000000E+00 -0.72307023602E+03  0.72307023602E+03  0.00000000000E+00 0.  1.
         24    2    1    2    0    0 -0.20391434499E+03  0.19715916591E+02  0.20191144445E+03  0.29853523950E+03  0.79907949293E+02 0.  0.
        254    2    1    2    0    0  0.20391434499E+03 -0.19715916591E+02 -0.32280435880E+03  0.10267123182E+04  0.95287236965E+03 0.  0.
         23    2    4    4    0    0  0.16993761876E+03 -0.36598788382E+03  0.14415431078E+03  0.43808102505E+03  0.91151488302E+02 0.  0.
         23    2    4    4    0    0  0.33976726231E+02  0.34627196723E+03 -0.46695866958E+03  0.58863129316E+03  0.85893579381E+02 0.  0.
          4    1    3    3  502    0 -0.19644960654E+03  0.16394752065E+02  0.20929978051E+03  0.28751979745E+03  0.00000000000E+00 0. -1.
         -3    1    3    3    0  502 -0.74647384493E+01  0.33211645255E+01 -0.73883360509E+01  0.11015442048E+02  0.00000000000E+00 0.  1.
         11    1    5    5    0    0  0.12395877091E+03 -0.33460952470E+03  0.13576333487E+03  0.38178658175E+03  0.00000000000E+00 0. -1.
        -11    1    5    5    0    0  0.45978847844E+02 -0.31378359123E+02  0.83909759074E+01  0.56294443305E+02  0.00000000000E+00 0.  1.
          2    1    6    6  503    0  0.54670070275E+02  0.18006458357E+03 -0.28291369514E+03  0.33978262130E+03  0.00000000000E+00 0. -1.
         -2    1    6    6    0  503 -0.20693344044E+02  0.16620738366E+03 -0.18404497444E+03  0.24884867186E+03  0.00000000000E+00 0.  1.
<mgrwt>
<rscale>  0 0.13197219E+04</rscale>
<asrwt>0</asrwt>
<pdfrwt beam="1">  1        2 0.92642665E-01 0.13197219E+04</pdfrwt>
<pdfrwt beam="2">  1       -1 0.11124157E+00 0.13197219E+04</pdfrwt>
<totfact> 0.41066576E+01</totfact>
</mgrwt>
</event>
<event>
12    6  0.9491186E-008  0.1470502E+04  0.7818608E-02  0.8904309E-01
          2   -1    0    0  501    0  0.00000000000E+00  0.00000000000E+00  0.31861486881E+04  0.31861486881E+04  0.00000000000E+00 0. -1.
         -1   -1    0    0    0  501 -0.00000000000E+00 -0.00000000000E+00 -0.16967011577E+03  0.16967011577E+03  0.00000000000E+00 0.  1.
         24    2    1    2    0    0  0.45485218982E+03 -0.23894242916E+02  0.91695253910E+03  0.10268537104E+04  0.78518368761E+02 0.  0.
        254    2    1    2    0    0 -0.45485218982E+03  0.23894242916E+02  0.20995260332E+04  0.23289650934E+04  0.89922599650E+03 0.  0.
         23    2    4    4    0    0 -0.57821522361E+03  0.11884453031E+03  0.71091942682E+03  0.92858940217E+03  0.91733195729E+02 0.  0.
         23    2    4    4    0    0  0.12336303379E+03 -0.94950287390E+02  0.13886066064E+04  0.14003756912E+04  0.92681034345E+02 0.  0.
          2    1    3    3  502    0  0.18109601556E+03  0.44070734932E+01  0.44595329549E+03  0.48134138707E+03  0.00000000000E+00 0. -1.
         -1    1    3    3    0  502  0.27375617426E+03 -0.28301316410E+02  0.47099924361E+03  0.54551232336E+03  0.00000000000E+00 0.  1.
         11    1    5    5    0    0 -0.87701668285E+02  0.48225349176E+02  0.14728391252E+03  0.17807250718E+03  0.00000000000E+00 0.  1.
        -11    1    5    5    0    0 -0.49051355533E+03  0.70619181131E+02  0.56363551430E+03  0.75051689500E+03  0.00000000000E+00 0. -1.
          3    1    6    6  503    0  0.61458544912E+02 -0.40055055798E+01  0.73491702070E+03  0.73749320277E+03  0.00000000000E+00 0. -1.
         -3    1    6    6    0  503  0.61904488875E+02 -0.90944781810E+02  0.65368958570E+03  0.66288248848E+03  0.00000000000E+00 0.  1.
<mgrwt>
<rscale>  0 0.14705022E+04</rscale>
<asrwt>0</asrwt>
<pdfrwt beam="1">  1        2 0.49017668E+00 0.14705022E+04</pdfrwt>
<pdfrwt beam="2">  1       -1 0.26103097E-01 0.14705022E+04</pdfrwt>
<totfact> 0.19179540E+01</totfact>
</mgrwt>
</event>
<event>
12    6  0.9491186E-008  0.2367496E+04  0.7818608E-02  0.8451774E-01
         -1   -1    0    0    0  501 -0.00000000000E+00  0.00000000000E+00  0.11582785367E+04  0.11582785367E+04  0.00000000000E+00 0.  1.
          2   -1    0    0  501    0  0.00000000000E+00 -0.00000000000E+00 -0.12097771213E+04  0.12097771213E+04  0.00000000000E+00 0. -1.
         24    2    1    2    0    0  0.47908901035E+03  0.85469501938E+03 -0.27446916826E+03  0.10206237465E+04  0.79433315922E+02 0.  0.
        254    2    1    2    0    0 -0.47908901035E+03 -0.85469501938E+03  0.22297058373E+03  0.13474319115E+04  0.89767868353E+03 0.  0.
         23    2    4    4    0    0 -0.17980597784E+03 -0.37007006447E+03  0.54195631723E+03  0.68826287132E+03  0.10347505967E+03 0.  0.
         23    2    4    4    0    0 -0.29928303252E+03 -0.48462495490E+03 -0.31898573349E+03  0.65916904015E+03  0.91215376225E+02 0.  0.
          2    1    3    3  502    0  0.35366058038E+03  0.55515879602E+03 -0.17891808603E+03  0.68212079313E+03  0.00000000000E+00 0. -1.
         -1    1    3    3    0  502  0.12542842997E+03  0.29953622335E+03 -0.95551082230E+02  0.33850295340E+03  0.00000000000E+00 0.  1.
         11    1    5    5    0    0 -0.95453621751E+02 -0.23497291113E+03  0.25250317145E+03  0.35788477819E+03  0.00000000000E+00 0. -1.
        -11    1    5    5    0    0 -0.84352356087E+02 -0.13509715334E+03  0.28945314578E+03  0.33037809313E+03  0.00000000000E+00 0.  1.
          3    1    6    6  503    0 -0.14436589722E+03 -0.18005371029E+03 -0.16873474712E+03  0.28588855478E+03  0.00000000000E+00 0. -1.
         -3    1    6    6    0  503 -0.15491713529E+03 -0.30457124462E+03 -0.15025098637E+03  0.37328048537E+03  0.00000000000E+00 0.  1.
<mgrwt>
<rscale>  0 0.23674956E+04</rscale>
<asrwt>0</asrwt>
<pdfrwt beam="1">  1        2 0.18611956E+00 0.23674956E+04</pdfrwt>
<pdfrwt beam="2">  1       -1 0.17819670E+00 0.23674956E+04</pdfrwt>
<totfact> 0.41182508E+00</totfact>
</mgrwt>
</event>
<event>
12    6  0.9491186E-008  0.2431429E+04  0.7818608E-02  0.8427830E-01
          2   -1    0    0  501    0  0.00000000000E+00  0.00000000000E+00  0.19313306358E+04  0.19313306358E+04  0.00000000000E+00 0. -1.
         -1   -1    0    0    0  501 -0.00000000000E+00 -0.00000000000E+00 -0.76525583600E+03  0.76525583600E+03  0.00000000000E+00 0.  1.
         24    2    1    2    0    0  0.24085179858E+03 -0.10183197702E+04  0.42452551779E+03  0.11320603018E+04  0.79711155474E+02 0.  0.
        254    2    1    2    0    0 -0.24085179858E+03  0.10183197702E+04  0.74154928203E+03  0.15645261700E+04  0.89602570034E+03 0.  0.
         23    2    4    4    0    0 -0.15100344823E+03  0.73151112039E+03 -0.70584911577E+01  0.75243362658E+03  0.90531649019E+02 0.  0.
         23    2    4    4    0    0 -0.89848350351E+02  0.28680864985E+03  0.74860777319E+03  0.81209254345E+03  0.93534877739E+02 0.  0.
          4    1    3    3  502    0  0.15671772169E+03 -0.48974085781E+03  0.20564253174E+03  0.55380086942E+03  0.00000000000E+00 0. -1.
         -3    1    3    3    0  502  0.84134076887E+02 -0.52857891243E+03  0.21888298605E+03  0.57825943239E+03  0.00000000000E+00 0.  1.
         11    1    5    5    0    0 -0.55978182792E+02  0.24081081785E+03  0.39842801915E+02  0.25042135653E+03  0.00000000000E+00 0. -1.
        -11    1    5    5    0    0 -0.95025265433E+02  0.49070030255E+03 -0.46901293073E+02  0.50201227005E+03  0.00000000000E+00 0.  1.
          1    1    6    6  503    0  0.11320209199E+02  0.34307208988E+02  0.44822363180E+02  0.57568880186E+02  0.00000000000E+00 0. -1.
         -1    1    6    6    0  503 -0.10116855955E+03  0.25250144087E+03  0.70378541001E+03  0.75452366326E+03  0.00000000000E+00 0.  1.
<mgrwt>
<rscale>  0 0.24314292E+04</rscale>
<asrwt>0</asrwt>
<pdfrwt beam="1">  1        2 0.29712779E+00 0.24314292E+04</pdfrwt>
<pdfrwt beam="2">  1       -1 0.11773167E+00 0.24314292E+04</pdfrwt>
<totfact> 0.48297953E+00</totfact>
</mgrwt>
</event>
<event>
12    6  0.9491186E-008  0.1584590E+04  0.7818608E-02  0.8830071E-01
          2   -1    0    0  501    0  0.00000000000E+00  0.00000000000E+00  0.14242362616E+04  0.14242362616E+04  0.00000000000E+00 0. -1.
         -1   -1    0    0    0  501 -0.00000000000E+00 -0.00000000000E+00 -0.44074955913E+03  0.44074955913E+03  0.00000000000E+00 0.  1.
         24    2    1    2    0    0 -0.11795802284E+02 -0.42828963161E+03 -0.37416116117E+02  0.43712029275E+03  0.78121924529E+02 0.  0.
        254    2    1    2    0    0  0.11795802284E+02  0.42828963161E+03  0.10209028186E+04  0.14278655280E+04  0.90165750234E+03 0.  0.
         23    2    4    4    0    0 -0.36391844371E+02 -0.26780254725E+03  0.20304644052E+03  0.34978918135E+03  0.89900187591E+02 0.  0.
         23    2    4    4    0    0  0.48187646655E+02  0.69609217886E+03  0.81785637807E+03  0.10780763466E+04  0.80580290941E+02 0.  0.
          2    1    3    3  502    0 -0.35251428851E+01 -0.85688434546E+01 -0.13841651456E+02  0.16656621072E+02  0.00000000000E+00 0. -1.
         -1    1    3    3    0  502 -0.82706593988E+01 -0.41972078815E+03 -0.23574464662E+02  0.42046367168E+03  0.00000000000E+00 0.  1.
         11    1    5    5    0    0 -0.19207794493E+02 -0.26582711472E+03  0.19715434682E+03  0.33151595853E+03  0.00000000000E+00 0.  1.
        -11    1    5    5    0    0 -0.17184049878E+02 -0.19754325273E+01  0.58920937021E+01  0.18273222816E+02  0.00000000000E+00 0. -1.
          3    1    6    6  503    0  0.17528689538E+02  0.25829040867E+03  0.24505943642E+03  0.35647625103E+03  0.00000000000E+00 0. -1.
         -3    1    6    6    0  503  0.30658957116E+02  0.43780177019E+03  0.57279694165E+03  0.72160009562E+03  0.00000000000E+00 0.  1.
<mgrwt>
<rscale>  0 0.15845902E+04</rscale>
<asrwt>0</asrwt>
<pdfrwt beam="1">  1        2 0.21911327E+00 0.15845902E+04</pdfrwt>
<pdfrwt beam="2">  1       -1 0.67807625E-01 0.15845902E+04</pdfrwt>
<totfact> 0.33772635E+01</totfact>
</mgrwt>
</event>
<event>
12    6  0.9491186E-008  0.1936944E+04  0.7818608E-02  0.8636683E-01
          2   -1    0    0  501    0  0.00000000000E+00  0.00000000000E+00  0.20434727045E+04  0.20434727045E+04  0.00000000000E+00 0. -1.
         -1   -1    0    0    0  501 -0.00000000000E+00 -0.00000000000E+00 -0.45899203923E+03  0.45899203923E+03  0.00000000000E+00 0.  1.
         24    2    1    2    0    0 -0.75297617584E+02  0.72552279625E+03  0.87327924099E+03  0.11407160341E+04  0.81014682049E+02 0.  0.
        254    2    1    2    0    0  0.75297617584E+02 -0.72552279625E+03  0.71120142431E+03  0.13617487096E+04  0.90360335498E+03 0.  0.
         23    2    4    4    0    0 -0.11389653477E+03 -0.37672877183E+03  0.84224254924E+03  0.93411437988E+03  0.91105295073E+02 0.  0.
         23    2    4    4    0    0  0.18919415236E+03 -0.34879402442E+03 -0.13104112493E+03  0.42763432974E+03  0.90816544707E+02 0.  0.
          2    1    3    3  502    0 -0.46761286925E+02  0.66564453730E+03  0.78484427641E+03  0.10301697948E+04  0.00000000000E+00 0. -1.
         -1    1    3    3    0  502 -0.28536330659E+02  0.59878258943E+02  0.88434964583E+02  0.11054623930E+03  0.00000000000E+00 0.  1.
         11    1    5    5    0    0 -0.37449195358E+01 -0.16306757990E+03  0.31827514667E+03  0.35763686754E+03  0.00000000000E+00 0.  1.
        -11    1    5    5    0    0 -0.11015161524E+03 -0.21366119193E+03  0.52396740257E+03  0.57647751234E+03  0.00000000000E+00 0. -1.
          1    1    6    6  503    0  0.13022793833E+03 -0.21550107565E+03 -0.37816967175E+02  0.25461765951E+03  0.00000000000E+00 0. -1.
         -1    1    6    6    0  503  0.58966214030E+02 -0.13329294877E+03 -0.93224157759E+02  0.17301667023E+03  0.00000000000E+00 0.  1.
<mgrwt>
<rscale>  0 0.19369437E+04</rscale>
<asrwt>0</asrwt>
<pdfrwt beam="1">  1        2 0.31438041E+00 0.19369437E+04</pdfrwt>
<pdfrwt beam="2">  1       -1 0.70614161E-01 0.19369437E+04</pdfrwt>
<totfact> 0.13614219E+01</totfact>
</mgrwt>
</event>
<event>
12    6  0.9491186E-008  0.1779254E+04  0.7818608E-02  0.8717411E-01
         -1   -1    0    0    0  501 -0.00000000000E+00  0.00000000000E+00  0.55124766681E+03  0.55124766681E+03  0.00000000000E+00 0.  1.
          2   -1    0    0  501    0  0.00000000000E+00 -0.00000000000E+00 -0.14357172465E+04  0.14357172465E+04  0.00000000000E+00 0. -1.
         24    2    1    2    0    0  0.21131308834E+03  0.21764542556E+03 -0.98384909445E+03  0.10326812795E+04  0.80304618915E+02 0.  0.
        254    2    1    2    0    0 -0.21131308834E+03 -0.21764542556E+03  0.99379514783E+02  0.95428363379E+03  0.89930985383E+03 0.  0.
         23    2    4    4    0    0 -0.30654597449E+03  0.21261915935E+03 -0.18126455454E+03  0.42472485883E+03  0.91416768571E+02 0.  0.
         23    2    4    4    0    0  0.95232886156E+02 -0.43026458491E+03  0.28064406933E+03  0.52955877496E+03  0.86455114696E+02 0.  0.
          4    1    3    3  502    0  0.17085969257E+03  0.12235621425E+03 -0.67292353891E+03  0.70497529526E+03  0.00000000000E+00 0. -1.
         -3    1    3    3    0  502  0.40453395771E+02  0.95289211303E+02 -0.31092555555E+03  0.32770598425E+03  0.00000000000E+00 0.  1.
         11    1    5    5    0    0 -0.23975631520E+03  0.19968799474E+03 -0.12384593223E+03  0.33570254818E+03  0.00000000000E+00 0. -1.
        -11    1    5    5    0    0 -0.66789659293E+02  0.12931164611E+02 -0.57418622309E+02  0.89022310657E+02  0.00000000000E+00 0.  1.
          4    1    6    6  503    0  0.10762513747E+03 -0.34920689285E+03  0.21089175394E+03  0.42190515060E+03  0.00000000000E+00 0. -1.
         -4    1    6    6    0  503 -0.12392251313E+02 -0.81057692060E+02  0.69752315390E+02  0.10765362436E+03  0.00000000000E+00 0.  1.
<mgrwt>
<rscale>  0 0.17792535E+04</rscale>
<asrwt>0</asrwt>
<pdfrwt beam="1">  1        2 0.22087957E+00 0.17792535E+04</pdfrwt>
<pdfrwt beam="2">  1       -1 0.84807335E-01 0.17792535E+04</pdfrwt>
<totfact> 0.20470927E+01</totfact>
</mgrwt>
</event>
<event>
12    6  0.9491186E-008  0.1767556E+04  0.7818608E-02  0.8723745E-01
         -1   -1    0    0    0  501 -0.00000000000E+00  0.00000000000E+00  0.75809355703E+03  0.75809355703E+03  0.00000000000E+00 0.  1.
          2   -1    0    0  501    0  0.00000000000E+00 -0.00000000000E+00 -0.10303001794E+04  0.10303001794E+04  0.00000000000E+00 0. -1.
         24    2    1    2    0    0  0.21713212458E+03 -0.56887955660E+03 -0.33067816468E+03  0.69749313194E+03  0.79864329081E+02 0.  0.
        254    2    1    2    0    0 -0.21713212458E+03  0.56887955660E+03  0.58471542265E+02  0.10909006045E+04  0.90325793562E+03 0.  0.
         23    2    4    4    0    0  0.36303331462E+02  0.58443751251E+02  0.40293442790E+03  0.41889309901E+03  0.91551467873E+02 0.  0.
         23    2    4    4    0    0 -0.25343545605E+03  0.51043580535E+03 -0.34446288564E+03  0.67200750552E+03  0.90361308812E+02 0.  0.
          4    1    3    3  502    0  0.11987515643E+03 -0.37932158390E+03 -0.18059592249E+03  0.43688648910E+03  0.00000000000E+00 0. -1.
         -1    1    3    3    0  502  0.97256968151E+02 -0.18955797270E+03 -0.15008224219E+03  0.26060664283E+03  0.00000000000E+00 0.  1.
         11    1    5    5    0    0  0.66967256414E+02  0.35056886827E+02  0.28228913136E+03  0.29223407130E+03  0.00000000000E+00 0. -1.
        -11    1    5    5    0    0 -0.30663924952E+02  0.23386864424E+02  0.12064529654E+03  0.12665902771E+03  0.00000000000E+00 0.  1.
          1    1    6    6  503    0 -0.24500499572E+03  0.42643737102E+03 -0.30603217774E+03  0.57925121764E+03  0.00000000000E+00 0. -1.
         -1    1    6    6    0  503 -0.84304603299E+01  0.83998434334E+02 -0.38430707894E+02  0.92756287879E+02  0.00000000000E+00 0.  1.
<mgrwt>
<rscale>  0 0.17675564E+04</rscale>
<asrwt>0</asrwt>
<pdfrwt beam="1">  1        2 0.15850772E+00 0.17675564E+04</pdfrwt>
<pdfrwt beam="2">  1       -1 0.11662978E+00 0.17675564E+04</pdfrwt>
<totfact> 0.17261549E+01</totfact>
</mgrwt>
</event>
<event>
12    6  0.9491186E-008  0.1185651E+04  0.7818608E-02  0.9125509E-01
         -1   -1    0    0    0  501 -0.00000000000E+00  0.00000000000E+00  0.27740330580E+03  0.27740330580E+03  0.00000000000E+00 0.  1.
          2   -1    0    0  501    0  0.00000000000E+00 -0.00000000000E+00 -0.12668998821E+04  0.12668998821E+04  0.00000000000E+00 0. -1.
         24    2    1    2    0    0  0.19013712613E+03 -0.36450944101E+02 -0.23165216558E+02  0.20965769781E+03  0.77064420686E+02 0.  0.
        254    2    1    2    0    0 -0.19013712613E+03  0.36450944101E+02 -0.96633135977E+03  0.13346454901E+04  0.90000082743E+03 0.  0.
         23    2    4    4    0    0  0.27888719630E+03  0.23094925071E+03 -0.24322304866E+03  0.44666668200E+03  0.96114768628E+02 0.  0.
         23    2    4    4    0    0 -0.46902432243E+03 -0.19449830661E+03 -0.72310831112E+03  0.88797880813E+03  0.88359084287E+02 0.  0.
          2    1    3    3  502    0  0.11992899437E+03 -0.58533363966E+02 -0.26190436984E+02  0.13599653443E+03  0.00000000000E+00 0. -1.
         -1    1    3    3    0  502  0.70208131758E+02  0.22082419865E+02  0.30252204260E+01  0.73661163382E+02  0.00000000000E+00 0.  1.
         11    1    5    5    0    0  0.13452445911E+03  0.81451020246E+02 -0.15527385218E+03  0.22100015378E+03  0.00000000000E+00 0. -1.
        -11    1    5    5    0    0  0.14436273719E+03  0.14949823046E+03 -0.87949196477E+02  0.22566652822E+03  0.00000000000E+00 0.  1.
          2    1    6    6  503    0 -0.46757420527E+03 -0.18661074418E+03 -0.72153224423E+03  0.87980565283E+03  0.00000000000E+00 0.  1.
         -2    1    6    6    0  503 -0.14501171545E+01 -0.78875624248E+01 -0.15760668881E+01  0.81731553027E+01  0.00000000000E+00 0. -1.
<mgrwt>
<rscale>  0 0.11856512E+04</rscale>
<asrwt>0</asrwt>
<pdfrwt beam="1">  1        2 0.19490768E+00 0.11856512E+04</pdfrwt>
<pdfrwt beam="2">  1       -1 0.42677431E-01 0.11856512E+04</pdfrwt>
<totfact> 0.10512976E+02</totfact>
</mgrwt>
</event>
<event>
12    6  0.9491186E-008  0.2834769E+04  0.7818608E-02  0.8292554E-01
         -1   -1    0    0    0  501 -0.00000000000E+00  0.00000000000E+00  0.75084899697E+03  0.75084899697E+03  0.00000000000E+00 0.  1.
          2   -1    0    0  501    0  0.00000000000E+00 -0.00000000000E+00 -0.26756104590E+04  0.26756104590E+04  0.00000000000E+00 0. -1.
         24    2    1    2    0    0  0.63514593743E+03 -0.53063999457E+03 -0.20342972445E+04  0.21975991890E+04  0.78024041442E+02 0.  0.
        254    2    1    2    0    0 -0.63514593743E+03  0.53063999457E+03  0.10953578239E+03  0.12288602670E+04  0.90172629025E+03 0.  0.
         23    2    4    4    0    0  0.19242724352E+02  0.14585229310E+03 -0.31173461244E+03  0.35613667713E+03  0.89508046342E+02 0.  0.
         23    2    4    4    0    0 -0.65438866178E+03  0.38478770147E+03  0.42127039482E+03  0.87272358988E+03  0.88834806871E+02 0.  0.
          4    1    3    3  502    0  0.53571344051E+03 -0.46182967715E+03 -0.16648714067E+04  0.18088870451E+04  0.00000000000E+00 0. -1.
         -3    1    3    3    0  502  0.99432496919E+02 -0.68810317416E+02 -0.36942583773E+03  0.38871214389E+03  0.00000000000E+00 0.  1.
         11    1    5    5    0    0  0.43860659300E+02  0.60493354451E+02 -0.88201421161E+02  0.11559711961E+03  0.00000000000E+00 0. -1.
        -11    1    5    5    0    0 -0.24617934949E+02  0.85358938648E+02 -0.22353319128E+03  0.24053955752E+03  0.00000000000E+00 0.  1.
          3    1    6    6  503    0 -0.57436263809E+03  0.35318343542E+03  0.40039891298E+03  0.78418764885E+03  0.00000000000E+00 0. -1.
         -3    1    6    6    0  503 -0.80026023696E+02  0.31604266043E+02  0.20871481843E+02  0.88535941036E+02  0.00000000000E+00 0.  1.
<mgrwt>
<rscale>  0 0.28347694E+04</rscale>
<asrwt>0</asrwt>
<pdfrwt beam="1">  1        2 0.41163238E+00 0.28347694E+04</pdfrwt>
<pdfrwt beam="2">  1       -1 0.11551523E+00 0.28347694E+04</pdfrwt>
<totfact> 0.18383070E+00</totfact>
</mgrwt>
</event>
<event>
12    6  0.9491186E-008  0.1172468E+04  0.7818608E-02  0.9137302E-01
          2   -1    0    0  501    0  0.00000000000E+00  0.00000000000E+00  0.23539301639E+04  0.23539301639E+04  0.00000000000E+00 0. -1.
         -1   -1    0    0    0  501 -0.00000000000E+00 -0.00000000000E+00 -0.14599856083E+03  0.14599856083E+03  0.00000000000E+00 0.  1.
         24    2    1    2    0    0 -0.22609256571E+03 -0.60877303181E+02  0.50500832564E+03  0.56270495472E+03  0.82338100490E+02 0.  0.
        254    2    1    2    0    0  0.22609256571E+03  0.60877303181E+02  0.17029232774E+04  0.19372237700E+04  0.89334447553E+03 0.  0.
         23    2    4    4    0    0 -0.28302896227E+03  0.10522908937E+03  0.27689424345E+03  0.41982717523E+03  0.91683587832E+02 0.  0.
         23    2    4    4    0    0  0.50912152798E+03 -0.44351786188E+02  0.14260290340E+04  0.15173965948E+04  0.88101128683E+02 0.  0.
          2    1    3    3  502    0 -0.11127185770E+03 -0.41006273241E+02  0.34463525917E+03  0.36446728608E+03  0.00000000000E+00 0. -1.
         -1    1    3    3    0  502 -0.11482070801E+03 -0.19871029939E+02  0.16037306647E+03  0.19823766864E+03  0.00000000000E+00 0.  1.
         11    1    5    5    0    0 -0.20202493608E+02  0.11390733890E+02 -0.43736172615E+01  0.23601230784E+02  0.00000000000E+00 0. -1.
        -11    1    5    5    0    0 -0.26282646866E+03  0.93838355478E+02  0.28126786071E+03  0.39622594445E+03  0.00000000000E+00 0.  1.
          1    1    6    6  503    0  0.18768344289E+03 -0.28719919998E+02  0.65331932752E+03  0.68034994837E+03  0.00000000000E+00 0. -1.
         -1    1    6    6    0  503  0.32143808510E+03 -0.15631866190E+02  0.77270970648E+03  0.83704664641E+03  0.00000000000E+00 0.  1.
<mgrwt>
<rscale>  0 0.11724682E+04</rscale>
<asrwt>0</asrwt>
<pdfrwt beam="1">  1        2 0.36214307E+00 0.11724682E+04</pdfrwt>
<pdfrwt beam="2">  1       -1 0.22461319E-01 0.11724682E+04</pdfrwt>
<totfact> 0.80393018E+01</totfact>
</mgrwt>
</event>
<event>
12    6  0.9491186E-008  0.1898870E+04  0.7818608E-02  0.8655419E-01
          2   -1    0    0  501    0  0.00000000000E+00  0.00000000000E+00  0.13136706923E+04  0.13136706923E+04  0.00000000000E+00 0. -1.
         -1   -1    0    0    0  501 -0.00000000000E+00 -0.00000000000E+00 -0.68618935179E+03  0.68618935179E+03  0.00000000000E+00 0.  1.
         24    2    1    2    0    0  0.18797295424E+03 -0.29160070879E+03 -0.43838695346E+03  0.56476244000E+03  0.80054280190E+02 0.  0.
        254    2    1    2    0    0 -0.18797295424E+03  0.29160070879E+03  0.10658682940E+04  0.14350976041E+04  0.89613900052E+03 0.  0.
         23    2    4    4    0    0  0.67285109632E+02  0.52786631843E+03  0.38133466676E+03  0.66165833596E+03  0.95945241492E+02 0.  0.
         23    2    4    4    0    0 -0.25525806387E+03 -0.23626560963E+03  0.68453362722E+03  0.77343926813E+03  0.92972561678E+02 0.  0.
          4    1    3    3  502    0  0.23624607390E+02 -0.84489221367E+01 -0.13879848544E+02  0.28673272488E+02  0.00000000000E+00 0. -1.
         -3    1    3    3    0  502  0.16434834685E+03 -0.28315178666E+03 -0.42450710492E+03  0.53608916751E+03  0.00000000000E+00 0.  1.
         11    1    5    5    0    0  0.32499054687E+02  0.39685221341E+02  0.35386539031E+02  0.62316229772E+02  0.00000000000E+00 0. -1.
        -11    1    5    5    0    0  0.34786054945E+02  0.48818109709E+03  0.34594812773E+03  0.59934210619E+03  0.00000000000E+00 0.  1.
          3    1    6    6  503    0 -0.21639325773E+03 -0.15549155331E+03  0.45891295211E+03  0.53066445402E+03  0.00000000000E+00 0. -1.
         -3    1    6    6    0  503 -0.38864806139E+02 -0.80774056326E+02  0.22562067511E+03  0.24277481411E+03  0.00000000000E+00 0.  1.
<mgrwt>
<rscale>  0 0.18988700E+04</rscale>
<asrwt>0</asrwt>
<pdfrwt beam="1">  1        2 0.20210318E+00 0.18988700E+04</pdfrwt>
<pdfrwt beam="2">  1       -1 0.10556759E+00 0.18988700E+04</pdfrwt>
<totfact> 0.14569970E+01</totfact>
</mgrwt>
</event>
<event>
12    6  0.9491186E-008  0.1980000E+04  0.7818608E-02  0.8616029E-01
          2   -1    0    0  501    0  0.00000000000E+00  0.00000000000E+00  0.21193263362E+04  0.21193263362E+04  0.00000000000E+00 0. -1.
         -1   -1    0    0    0  501 -0.00000000000E+00 -0.00000000000E+00 -0.46245811590E+03  0.46245811590E+03  0.00000000000E+00 0.  1.
         24    2    1    2    0    0 -0.51090228272E+03  0.52830409997E+03  0.31317182841E+03  0.80300811489E+03  0.81357691293E+02 0.  0.
        254    2    1    2    0    0  0.51090228272E+03 -0.52830409997E+03  0.13436963919E+04  0.17787763372E+04  0.90465402210E+03 0.  0.
         23    2    4    4    0    0  0.59750251565E+03 -0.14080163617E+03  0.11919202550E+04  0.13437818382E+04  0.90782032977E+02 0.  0.
         23    2    4    4    0    0 -0.86600232931E+02 -0.38750246381E+03  0.15177613688E+03  0.43499449897E+03  0.92338825042E+02 0.  0.
          2    1    3    3  502    0 -0.60303455491E+02  0.32030923342E+02  0.18248176653E+02  0.70678729087E+02  0.00000000000E+00 0. -1.
         -1    1    3    3    0  502 -0.45059882723E+03  0.49627317663E+03  0.29492365176E+03  0.73232938581E+03  0.00000000000E+00 0.  1.
         11    1    5    5    0    0  0.48929423069E+03 -0.96989054603E+02  0.10269450882E+04  0.11416794362E+04  0.00000000000E+00 0.  1.
        -11    1    5    5    0    0  0.10820828497E+03 -0.43812581563E+02  0.16497516680E+03  0.20210240201E+03  0.00000000000E+00 0. -1.
          1    1    6    6  503    0  0.41907617817E+01 -0.15203697402E+01 -0.66452544369E+01  0.80020881643E+01  0.00000000000E+00 0. -1.
         -1    1    6    6    0  503 -0.90790994712E+02 -0.38598209407E+03  0.15842139132E+03  0.42699241081E+03  0.00000000000E+00 0.  1.
<mgrwt>
<rscale>  0 0.19799997E+04</rscale>
<asrwt>0</asrwt>
<pdfrwt beam="1">  1        2 0.32605020E+00 0.19799997E+04</pdfrwt>
<pdfrwt beam="2">  1       -1 0.71147403E-01 0.19799997E+04</pdfrwt>
<totfact> 0.12115243E+01</totfact>
</mgrwt>
</event>
<event>
12    6  0.9491186E-008  0.1368573E+04  0.7818608E-02  0.8976886E-01
         -1   -1    0    0    0  501 -0.00000000000E+00  0.00000000000E+00  0.21535780803E+03  0.21535780803E+03  0.00000000000E+00 0.  1.
          2   -1    0    0  501    0  0.00000000000E+00 -0.00000000000E+00 -0.21742803560E+04  0.21742803560E+04  0.00000000000E+00 0. -1.
         24    2    1    2    0    0 -0.19715540965E+03 -0.72347240542E+02 -0.57891574451E+01  0.22435830249E+03  0.78732171236E+02 0.  0.
        254    2    1    2    0    0  0.19715540965E+03  0.72347240542E+02 -0.19531333906E+04  0.21652798616E+04  0.91082515271E+03 0.  0.
         23    2    4    4    0    0  0.46775174779E+03  0.14428454180E+03 -0.59607387826E+03  0.77677613894E+03  0.92018341230E+02 0.  0.
         23    2    4    4    0    0 -0.27059633814E+03 -0.71937301262E+02 -0.13570595123E+04  0.13885037226E+04  0.89077013244E+02 0.  0.
          2    1    3    3  502    0 -0.32581713922E+02 -0.35249389871E+02  0.22982663057E+02  0.53219266902E+02  0.00000000000E+00 0. -1.
         -1    1    3    3    0  502 -0.16457369572E+03 -0.37097850670E+02 -0.28771820502E+02  0.17113903559E+03  0.00000000000E+00 0.  1.
         11    1    5    5    0    0  0.46102363803E+03  0.14079890285E+03 -0.59880400525E+03  0.76872190197E+03  0.00000000000E+00 0. -1.
        -11    1    5    5    0    0  0.67281097552E+01  0.34856389565E+01  0.27301269882E+01  0.80542369710E+01  0.00000000000E+00 0.  1.
          4    1    6    6  503    0 -0.25646131318E+03 -0.58964213322E+02 -0.13270173747E+04  0.13528578256E+04  0.00000000000E+00 0. -1.
         -4    1    6    6    0  503 -0.14135024955E+02 -0.12973087940E+02 -0.30042137629E+02  0.35645897022E+02  0.00000000000E+00 0.  1.
<mgrwt>
<rscale>  0 0.13685733E+04</rscale>
<asrwt>0</asrwt>
<pdfrwt beam="1">  1        2 0.33450468E+00 0.13685733E+04</pdfrwt>
<pdfrwt beam="2">  1       -1 0.33131970E-01 0.13685733E+04</pdfrwt>
<totfact> 0.50853895E+01</totfact>
</mgrwt>
</event>
<event>
12    6  0.9491186E-008  0.1695784E+04  0.7818608E-02  0.8763772E-01
         -1   -1    0    0    0  501 -0.00000000000E+00  0.00000000000E+00  0.60106211790E+03  0.60106211790E+03  0.00000000000E+00 0.  1.
          2   -1    0    0  501    0  0.00000000000E+00 -0.00000000000E+00 -0.11960847554E+04  0.11960847554E+04  0.00000000000E+00 0. -1.
         24    2    1    2    0    0  0.45551859408E+03  0.86907725003E+02  0.19691553466E+03  0.51046641666E+03  0.82158946776E+02 0.  0.
        254    2    1    2    0    0 -0.45551859408E+03 -0.86907725003E+02 -0.79193817219E+03  0.12866804567E+04  0.90184831693E+03 0.  0.
         23    2    4    4    0    0 -0.22862740215E+03  0.27883942466E+03 -0.75881303951E+03  0.84568425249E+03  0.96761109001E+02 0.  0.
         23    2    4    4    0    0 -0.22689119193E+03 -0.36574714967E+03 -0.33125132673E+02  0.44099620417E+03  0.90165332639E+02 0.  0.
          4    1    3    3  502    0  0.22547848590E+03  0.62626290719E+02  0.13834238959E+03  0.27184778213E+03  0.00000000000E+00 0. -1.
         -1    1    3    3    0  502  0.23004010818E+03  0.24281434284E+02  0.58573145066E+02  0.23861863453E+03  0.00000000000E+00 0.  1.
         11    1    5    5    0    0 -0.15590295234E+03  0.11462750253E+03 -0.37839382332E+03  0.42500244754E+03  0.00000000000E+00 0.  1.
        -11    1    5    5    0    0 -0.72724449805E+02  0.16421192213E+03 -0.38041921619E+03  0.42068180495E+03  0.00000000000E+00 0. -1.
          4    1    6    6  503    0 -0.15893678150E+03 -0.28179030322E+03  0.12452674867E+02  0.32376186405E+03  0.00000000000E+00 0.  1.
         -4    1    6    6    0  503 -0.67954410426E+02 -0.83956846444E+02 -0.45577807540E+02  0.11723434011E+03  0.00000000000E+00 0. -1.
<mgrwt>
<rscale>  0 0.16957845E+04</rscale>
<asrwt>0</asrwt>
<pdfrwt beam="1">  1        2 0.18401304E+00 0.16957845E+04</pdfrwt>
<pdfrwt beam="2">  1       -1 0.92471094E-01 0.16957845E+04</pdfrwt>
<totfact> 0.23513554E+01</totfact>
</mgrwt>
</event>
<event>
12    6  0.9491186E-008  0.2606675E+04  0.7818608E-02  0.8365937E-01
         -1   -1    0    0    0  501 -0.00000000000E+00  0.00000000000E+00  0.43993665245E+03  0.43993665245E+03  0.00000000000E+00 0.  1.
          2   -1    0    0  501    0  0.00000000000E+00 -0.00000000000E+00 -0.38612117811E+04  0.38612117811E+04  0.00000000000E+00 0. -1.
         24    2    1    2    0    0  0.10271537471E+04 -0.35293265483E+03 -0.90333609306E+03  0.14150358298E+04  0.81878102339E+02 0.  0.
        254    2    1    2    0    0 -0.10271537471E+04  0.35293265483E+03 -0.25179390355E+04  0.28861126037E+04  0.90001260841E+03 0.  0.
         23    2    4    4    0    0 -0.31598501665E+03  0.50227390301E+03 -0.67633163768E+03  0.90423130788E+03  0.89912010587E+02 0.  0.
         23    2    4    4    0    0 -0.71116873046E+03 -0.14934124818E+03 -0.18416073979E+04  0.19818812958E+04  0.90949937363E+02 0.  0.
          2    1    3    3  502    0  0.37422486535E+03 -0.17038786161E+03 -0.34552456804E+03  0.53708798194E+03  0.00000000000E+00 0. -1.
         -1    1    3    3    0  502  0.65292888177E+03 -0.18254479321E+03 -0.55781152502E+03  0.87794784790E+03  0.00000000000E+00 0.  1.
         11    1    5    5    0    0 -0.12886911948E+03  0.24554016272E+03 -0.37477535971E+03  0.46621217456E+03  0.00000000000E+00 0. -1.
        -11    1    5    5    0    0 -0.18711589718E+03  0.25673374028E+03 -0.30155627797E+03  0.43801913332E+03  0.00000000000E+00 0.  1.
          2    1    6    6  503    0 -0.62594788202E+01 -0.79203435731E+01 -0.57151341127E+02  0.58036098336E+02  0.00000000000E+00 0.  1.
         -2    1    6    6    0  503 -0.70490925164E+03 -0.14142090461E+03 -0.17844560567E+04  0.19238451974E+04  0.00000000000E+00 0. -1.
<mgrwt>
<rscale>  0 0.26066750E+04</rscale>
<asrwt>0</asrwt>
<pdfrwt beam="1">  1        2 0.59403261E+00 0.26066750E+04</pdfrwt>
<pdfrwt beam="2">  1       -1 0.67682559E-01 0.26066750E+04</pdfrwt>
<totfact> 0.98108556E-01</totfact>
</mgrwt>
</event>
<event>
12    6  0.9491186E-008  0.1365215E+04  0.7818608E-02  0.8979390E-01
          2   -1    0    0  501    0  0.00000000000E+00  0.00000000000E+00  0.13377488873E+04  0.13377488873E+04  0.00000000000E+00 0. -1.
         -1   -1    0    0    0  501 -0.00000000000E+00 -0.00000000000E+00 -0.34831139188E+03  0.34831139188E+03  0.00000000000E+00 0.  1.
         24    2    1    2    0    0  0.21002146775E+03 -0.18390859772E+03 -0.38481677577E+02  0.29299519669E+03  0.80211947630E+02 0.  0.
        254    2    1    2    0    0 -0.21002146775E+03  0.18390859772E+03  0.10279191730E+04  0.13930650825E+04  0.89782019838E+03 0.  0.
         23    2    4    4    0    0 -0.51805882960E+02  0.37475383991E+03  0.10584813226E+04  0.11273577992E+04  0.86189367792E+02 0.  0.
         23    2    4    4    0    0 -0.15821558479E+03 -0.19084524219E+03 -0.30562149569E+02  0.26570728330E+03  0.90621397465E+02 0.  0.
          2    1    3    3  502    0  0.33263858692E+02 -0.57591498510E+02 -0.36217259611E+02  0.75729484941E+02  0.00000000000E+00 0. -1.
         -3    1    3    3    0  502  0.17675760906E+03 -0.12631709921E+03 -0.22644179659E+01  0.21726571175E+03  0.00000000000E+00 0.  1.
         11    1    5    5    0    0  0.19376739248E+02  0.88952111539E+02  0.19967871359E+03  0.21945278497E+03  0.00000000000E+00 0. -1.
        -11    1    5    5    0    0 -0.71182622207E+02  0.28580172837E+03  0.85880260900E+03  0.90790501423E+03  0.00000000000E+00 0.  1.
          2    1    6    6  503    0 -0.73533764808E+02 -0.51121495866E+02  0.25259859205E+02  0.93052041318E+02  0.00000000000E+00 0. -1.
         -2    1    6    6    0  503 -0.84681819981E+02 -0.13972374632E+03 -0.55822008773E+02  0.17265524199E+03  0.00000000000E+00 0.  1.
<mgrwt>
<rscale>  0 0.13652153E+04</rscale>
<asrwt>0</asrwt>
<pdfrwt beam="1">  1        2 0.20580752E+00 0.13652153E+04</pdfrwt>
<pdfrwt beam="2">  1       -1 0.53586369E-01 0.13652153E+04</pdfrwt>
<totfact> 0.61412926E+01</totfact>
</mgrwt>
</event>
<event>
12    6  0.9491186E-008  0.1423947E+04  0.7818608E-02  0.8936665E-01
         -1   -1    0    0    0  501 -0.00000000000E+00  0.00000000000E+00  0.71826607818E+03  0.71826607818E+03  0.00000000000E+00 0.  1.
          2   -1    0    0  501    0  0.00000000000E+00 -0.00000000000E+00 -0.70573558793E+03  0.70573558793E+03  0.00000000000E+00 0. -1.
         24    2    1    2    0    0 -0.91711934674E+02 -0.13574036423E+03  0.36323079839E+03  0.40627315539E+03  0.79276342322E+02 0.  0.
        254    2    1    2    0    0  0.91711934674E+02  0.13574036423E+03 -0.35070030814E+03  0.10177285107E+04  0.94124603051E+03 0.  0.
         23    2    4    4    0    0  0.45302857697E+03 -0.14943500662E+03 -0.18740440197E+03  0.52075836060E+03  0.92212512740E+02 0.  0.
         23    2    4    4    0    0 -0.36131664229E+03  0.28517537085E+03 -0.16329590617E+03  0.49697015011E+03  0.91864405475E+02 0.  0.
          2    1    3    3  502    0  0.54813135151E+01  0.46352891066E+01  0.40792837858E+02  0.41419636930E+02  0.00000000000E+00 0. -1.
         -1    1    3    3    0  502 -0.97193248189E+02 -0.14037565334E+03  0.32243796053E+03  0.36485351846E+03  0.00000000000E+00 0.  1.
         11    1    5    5    0    0  0.34739108721E+03 -0.12792057871E+03 -0.10420662834E+03  0.38458193317E+03  0.00000000000E+00 0. -1.
        -11    1    5    5    0    0  0.10563748976E+03 -0.21514427906E+02 -0.83197773634E+02  0.13617642743E+03  0.00000000000E+00 0.  1.
          1    1    6    6  503    0 -0.26068422895E+03  0.17360502879E+03 -0.14654667260E+03  0.34579025506E+03  0.00000000000E+00 0. -1.
         -1    1    6    6    0  503 -0.10063241334E+03  0.11157034206E+03 -0.16749233571E+02  0.15117989506E+03  0.00000000000E+00 0.  1.
<mgrwt>
<rscale>  0 0.14239465E+04</rscale>
<asrwt>0</asrwt>
<pdfrwt beam="1">  1        2 0.10857471E+00 0.14239465E+04</pdfrwt>
<pdfrwt beam="2">  1       -1 0.11050247E+00 0.14239465E+04</pdfrwt>
<totfact> 0.33988943E+01</totfact>
</mgrwt>
</event>
<event>
12    6  0.9491186E-008  0.1723550E+04  0.7818608E-02  0.8748046E-01
          2   -1    0    0  501    0  0.00000000000E+00  0.00000000000E+00  0.79246592992E+03  0.79246592992E+03  0.00000000000E+00 0. -1.
         -1   -1    0    0    0  501 -0.00000000000E+00 -0.00000000000E+00 -0.93714607324E+03  0.93714607324E+03  0.00000000000E+00 0.  1.
         24    2    1    2    0    0  0.12160825765E+03 -0.57429042188E+03 -0.26428820983E+03  0.64899233697E+03  0.82126357535E+02 0.  0.
        254    2    1    2    0    0 -0.12160825765E+03  0.57429042188E+03  0.11960806650E+03  0.10806196662E+04  0.89935238721E+03 0.  0.
         23    2    4    4    0    0 -0.28177020616E+02  0.71286017313E+03  0.33393891693E+03  0.79437214449E+03  0.10270507670E+03 0.  0.
         23    2    4    4    0    0 -0.93431237035E+02 -0.13856975124E+03 -0.21433085043E+03  0.28624752170E+03  0.89827380104E+02 0.  0.
          2    1    3    3  502    0 -0.11004158160E+02 -0.64692714841E+02 -0.38262707515E+02  0.75962317216E+02  0.00000000000E+00 0. -1.
         -1    1    3    3    0  502  0.13261241581E+03 -0.50959770704E+03 -0.22602550231E+03  0.57303001976E+03  0.00000000000E+00 0.  1.
         11    1    5    5    0    0  0.15834645753E+02  0.10460660089E+03  0.84848746689E+02  0.13561927138E+03  0.00000000000E+00 0. -1.
        -11    1    5    5    0    0 -0.44011666369E+02  0.60825357224E+03  0.24909017024E+03  0.65875287311E+03  0.00000000000E+00 0.  1.
          3    1    6    6  503    0  0.10708772380E+02 -0.50837552433E+02 -0.43310989454E+02  0.67638571472E+02  0.00000000000E+00 0. -1.
         -3    1    6    6    0  503 -0.10414000941E+03 -0.87732198810E+02 -0.17101986098E+03  0.21860895022E+03  0.00000000000E+00 0.  1.
<mgrwt>
<rscale>  0 0.17235502E+04</rscale>
<asrwt>0</asrwt>
<pdfrwt beam="1">  1        2 0.12191784E+00 0.17235502E+04</pdfrwt>
<pdfrwt beam="2">  1       -1 0.14417632E+00 0.17235502E+04</pdfrwt>
<totfact> 0.14673145E+01</totfact>
</mgrwt>
</event>
<event>
12    6  0.9491186E-008  0.2011564E+04  0.7818608E-02  0.8601233E-01
          2   -1    0    0  501    0  0.00000000000E+00  0.00000000000E+00  0.77556119143E+03  0.77556119143E+03  0.00000000000E+00 0. -1.
         -1   -1    0    0    0  501 -0.00000000000E+00 -0.00000000000E+00 -0.13043418829E+04  0.13043418829E+04  0.00000000000E+00 0.  1.
         24    2    1    2    0    0 -0.57957947485E+03 -0.57425322842E+03 -0.31614175818E+03  0.87855273460E+03  0.78931351133E+02 0.  0.
        254    2    1    2    0    0  0.57957947485E+03  0.57425322842E+03 -0.21263893331E+03  0.12013503398E+04  0.85577344248E+03 0.  0.
         23    2    4    4    0    0  0.57656171307E+03  0.31596957617E+02 -0.27848963151E+03  0.64741411828E+03  0.90370288173E+02 0.  0.
         23    2    4    4    0    0  0.30177617835E+01  0.54265627080E+03  0.65850698203E+02  0.55393622147E+03  0.89577273232E+02 0.  0.
          2    1    3    3  502    0 -0.20842756413E+03 -0.17040407294E+03 -0.13306549849E+03  0.30030988071E+03  0.00000000000E+00 0. -1.
         -3    1    3    3    0  502 -0.37115191072E+03 -0.40384915548E+03 -0.18307625969E+03  0.57824285389E+03  0.00000000000E+00 0.  1.
         11    1    5    5    0    0  0.27732704124E+03 -0.94315364824E+01 -0.91509333186E+02  0.29218692603E+03  0.00000000000E+00 0. -1.
        -11    1    5    5    0    0  0.29923467183E+03  0.41028494099E+02 -0.18698029833E+03  0.35522719225E+03  0.00000000000E+00 0.  1.
          3    1    6    6  503    0  0.33546335037E+02  0.17080751213E+03 -0.51223915292E+01  0.17414592068E+03  0.00000000000E+00 0. -1.
         -3    1    6    6    0  503 -0.30528573253E+02  0.37184875867E+03  0.70973089732E+02  0.37979030079E+03  0.00000000000E+00 0.  1.
<mgrwt>
<rscale>  0 0.20115635E+04</rscale>
<asrwt>0</asrwt>
<pdfrwt beam="1">  1        2 0.11931711E+00 0.20115635E+04</pdfrwt>
<pdfrwt beam="2">  1       -1 0.20066798E+00 0.20115635E+04</pdfrwt>
<totfact> 0.56614599E+00</totfact>
</mgrwt>
</event>
<event>
12    6  0.9659674E-008  0.3269404E+04  0.7818608E-02  0.8170724E-01
         -1   -1    0    0    0  501 -0.00000000000E+00  0.00000000000E+00  0.12630903035E+04  0.12630903035E+04  0.00000000000E+00 0.  1.
          2   -1    0    0  501    0  0.00000000000E+00 -0.00000000000E+00 -0.21156451910E+04  0.21156451910E+04  0.00000000000E+00 0. -1.
         24    2    1    2    0    0  0.68784370496E+03 -0.42263104313E+03  0.92117071477E+03  0.12273804078E+04  0.78493430273E+02 0.  0.
        254    2    1    2    0    0 -0.68784370496E+03  0.42263104313E+03 -0.17737256023E+04  0.21513550867E+04  0.91130688338E+03 0.  0.
         23    2    4    4    0    0 -0.62906869422E+03  0.13372178172E+03 -0.44509565106E+03  0.78740536655E+03  0.91039198858E+02 0.  0.
         23    2    4    4    0    0 -0.58775010737E+02  0.28890926141E+03 -0.13286299512E+04  0.13639497201E+04  0.90433558547E+02 0.  0.
          2    1    3    3  502    0  0.99158408765E+02 -0.41097519385E+02  0.15533307628E+03  0.18881144223E+03  0.00000000000E+00 0. -1.
         -1    1    3    3    0  502  0.58868529619E+03 -0.38153352375E+03  0.76583763849E+03  0.10385689656E+04  0.00000000000E+00 0.  1.
         11    1    5    5    0    0 -0.34281709742E+03  0.26531080586E+02 -0.23179376028E+03  0.41467554524E+03  0.00000000000E+00 0. -1.
        -11    1    5    5    0    0 -0.28625159680E+03  0.10719070114E+03 -0.21330189078E+03  0.37272982131E+03  0.00000000000E+00 0.  1.
          4    1    6    6  503    0 -0.15438604214E+02  0.37257209950E+02 -0.81343977272E+02  0.90792581370E+02  0.00000000000E+00 0. -1.
         -4    1    6    6    0  503 -0.43336406522E+02  0.25165205146E+03 -0.12472859740E+04  0.12731571388E+04  0.00000000000E+00 0.  1.
<mgrwt>
<rscale>  0 0.32694042E+04</rscale>
<asrwt>0</asrwt>
<pdfrwt beam="1">  1        2 0.32548387E+00 0.32694042E+04</pdfrwt>
<pdfrwt beam="2">  1       -1 0.19432159E+00 0.32694042E+04</pdfrwt>
<totfact> 0.90363931E-01</totfact>
</mgrwt>
</event>
<event>
12    6  0.9491186E-008  0.2299569E+04  0.7818608E-02  0.8478091E-01
         -1   -1    0    0    0  501 -0.00000000000E+00  0.00000000000E+00  0.36557983002E+03  0.36557983002E+03  0.00000000000E+00 0.  1.
          2   -1    0    0  501    0  0.00000000000E+00 -0.00000000000E+00 -0.36161863237E+04  0.36161863237E+04  0.00000000000E+00 0. -1.
         24    2    1    2    0    0 -0.83319069355E+03 -0.30989808794E+03 -0.20541242582E+04  0.22396713831E+04  0.80360933147E+02 0.  0.
        254    2    1    2    0    0  0.83319069355E+03  0.30989808794E+03 -0.11964822355E+04  0.17420947706E+04  0.90170998286E+03 0.  0.
         23    2    4    4    0    0  0.73054611931E+03  0.25861181472E+02 -0.12200908025E+04  0.14250912016E+04  0.88864691452E+02 0.  0.
         23    2    4    4    0    0  0.10264457424E+03  0.28403690647E+03  0.23608566955E+02  0.31700356905E+03  0.93386431028E+02 0.  0.
          4    1    3    3  502    0 -0.44523142507E+03 -0.16894229703E+03 -0.99950045658E+03  0.11071466408E+04  0.00000000000E+00 0. -1.
         -1    1    3    3    0  502 -0.38795926849E+03 -0.14095579091E+03 -0.10546238016E+04  0.11325247423E+04  0.00000000000E+00 0.  1.
         11    1    5    5    0    0  0.45417277246E+03 -0.17792329789E+02 -0.80618068705E+03  0.92548191469E+03  0.00000000000E+00 0.  1.
        -11    1    5    5    0    0  0.27637334686E+03  0.43653511261E+02 -0.41391011540E+03  0.49960928688E+03  0.00000000000E+00 0. -1.
          1    1    6    6  503    0  0.10126935243E+03  0.29146453580E+03  0.23481999278E+02  0.30944864139E+03  0.00000000000E+00 0. -1.
         -1    1    6    6    0  503  0.13752218075E+01 -0.74276293314E+01  0.12656767618E+00  0.75549276556E+01  0.00000000000E+00 0.  1.
<mgrwt>
<rscale>  0 0.22995693E+04</rscale>
<asrwt>0</asrwt>
<pdfrwt beam="1">  1        2 0.55633636E+00 0.22995693E+04</pdfrwt>
<pdfrwt beam="2">  1       -1 0.56243050E-01 0.22995693E+04</pdfrwt>
<totfact> 0.22248260E+00</totfact>
</mgrwt>
</event>
<event>
12    6  0.9491186E-008  0.1287632E+04  0.7818608E-02  0.9039431E-01
         -1   -1    0    0    0  501 -0.00000000000E+00  0.00000000000E+00  0.49408801738E+03  0.49408801738E+03  0.00000000000E+00 0.  1.
          2   -1    0    0  501    0  0.00000000000E+00 -0.00000000000E+00 -0.83891698777E+03  0.83891698777E+03  0.00000000000E+00 0. -1.
         24    2    1    2    0    0 -0.15297736768E+03  0.28375579486E+03 -0.13095644592E+03  0.35751768828E+03  0.82157656769E+02 0.  0.
        254    2    1    2    0    0  0.15297736768E+03 -0.28375579486E+03 -0.21387252447E+03  0.97548731687E+03  0.89549685790E+03 0.  0.
         23    2    4    4    0    0  0.40879128638E+03  0.10050070344E+03  0.53479409944E+02  0.43436831767E+03  0.92763575255E+02 0.  0.
         23    2    4    4    0    0 -0.25581391870E+03 -0.38425649830E+03 -0.26735193441E+03  0.54111899920E+03  0.90768369868E+02 0.  0.
          4    1    3    3  502    0  0.16472958606E+01  0.19221862948E+02 -0.28531950474E+02  0.34442209521E+02  0.00000000000E+00 0. -1.
         -3    1    3    3    0  502 -0.15462466354E+03  0.26453393191E+03 -0.10242449544E+03  0.32307547875E+03  0.00000000000E+00 0.  1.
         11    1    5    5    0    0  0.41385351436E+03  0.97744279787E+02  0.53591323578E+02  0.42860320291E+03  0.00000000000E+00 0.  1.
        -11    1    5    5    0    0 -0.50622279833E+01  0.27564236554E+01 -0.11191363441E+00  0.57651147590E+01  0.00000000000E+00 0. -1.
          4    1    6    6  503    0  0.34237699675E+01  0.75609410837E+00  0.24212833288E+01  0.42610435400E+01  0.00000000000E+00 0. -1.
         -4    1    6    6    0  503 -0.25923768867E+03 -0.38501259241E+03 -0.26977321774E+03  0.53685795566E+03  0.00000000000E+00 0.  1.
<mgrwt>
<rscale>  0 0.12876317E+04</rscale>
<asrwt>0</asrwt>
<pdfrwt beam="1">  1        2 0.12906415E+00 0.12876317E+04</pdfrwt>
<pdfrwt beam="2">  1       -1 0.76013542E-01 0.12876317E+04</pdfrwt>
<totfact> 0.62917631E+01</totfact>
</mgrwt>
</event>
<event>
12    6  0.9491186E-008  0.1981251E+04  0.7818608E-02  0.8615437E-01
         -1   -1    0    0    0  501 -0.00000000000E+00  0.00000000000E+00  0.36322023287E+03  0.36322023287E+03  0.00000000000E+00 0.  1.
          2   -1    0    0  501    0  0.00000000000E+00 -0.00000000000E+00 -0.27017745537E+04  0.27017745537E+04  0.00000000000E+00 0. -1.
         24    2    1    2    0    0 -0.16384817054E+03  0.47889435187E+03 -0.92598157569E+01  0.51407886136E+03  0.89472388296E+02 0.  0.
        254    2    1    2    0    0  0.16384817054E+03 -0.47889435187E+03 -0.23292945051E+04  0.25509159252E+04  0.90850049140E+03 0.  0.
         23    2    4    4    0    0 -0.32392851394E+03 -0.23025968091E+03 -0.53433712663E+03  0.67238989595E+03  0.92966684815E+02 0.  0.
         23    2    4    4    0    0  0.48777668449E+03 -0.24863467096E+03 -0.17949573785E+04  0.18785260293E+04  0.85104398390E+02 0.  0.
          4    1    3    3  502    0 -0.19603813721E+02  0.39974410798E+02 -0.26373647847E+02  0.51747776105E+02  0.00000000000E+00 0. -1.
         -3    1    3    3    0  502 -0.14424435682E+03  0.43891994107E+03  0.17113832090E+02  0.46233108526E+03  0.00000000000E+00 0.  1.
         11    1    5    5    0    0 -0.23638288935E+03 -0.14178254422E+03 -0.30247577448E+03  0.40923190781E+03  0.00000000000E+00 0. -1.
        -11    1    5    5    0    0 -0.87545624594E+02 -0.88477136686E+02 -0.23186135215E+03  0.26315798814E+03  0.00000000000E+00 0.  1.
          3    1    6    6  503    0  0.24606867100E+03 -0.11875323659E+03 -0.75275376488E+03  0.80080606428E+03  0.00000000000E+00 0.  1.
         -3    1    6    6    0  503  0.24170801349E+03 -0.12988143437E+03 -0.10422036136E+04  0.10777199650E+04  0.00000000000E+00 0. -1.
<mgrwt>
<rscale>  0 0.19812513E+04</rscale>
<asrwt>0</asrwt>
<pdfrwt beam="1">  1        2 0.41565762E+00 0.19812513E+04</pdfrwt>
<pdfrwt beam="2">  1       -1 0.55880037E-01 0.19812513E+04</pdfrwt>
<totfact> 0.91000314E+00</totfact>
</mgrwt>
</event>
<event>
12    6  0.9491186E-008  0.1491614E+04  0.7818608E-02  0.8890049E-01
         -1   -1    0    0    0  501 -0.00000000000E+00  0.00000000000E+00  0.47839377628E+03  0.47839377628E+03  0.00000000000E+00 0.  1.
          2   -1    0    0  501    0  0.00000000000E+00 -0.00000000000E+00 -0.11626992030E+04  0.11626992030E+04  0.00000000000E+00 0. -1.
         24    2    1    2    0    0  0.18513195554E+03 -0.81124898431E+02  0.24997084849E+03  0.33430510057E+03  0.91757207155E+02 0.  0.
        254    2    1    2    0    0 -0.18513195554E+03  0.81124898431E+02 -0.93427627516E+03  0.13067878787E+04  0.89104843381E+03 0.  0.
         23    2    4    4    0    0 -0.78301867216E+02 -0.22813241064E+03  0.51421509817E+02  0.26406811466E+03  0.94404546030E+02 0.  0.
         23    2    4    4    0    0 -0.10683008832E+03  0.30925730907E+03 -0.98569778498E+03  0.10427197640E+04  0.92798879083E+02 0.  0.
          4    1    3    3  502    0  0.46342988020E+02 -0.49757679694E+02  0.34910595820E+02  0.76434605564E+02  0.00000000000E+00 0. -1.
         -3    1    3    3    0  502  0.13878896752E+03 -0.31367218738E+02  0.21506025267E+03  0.25787049500E+03  0.00000000000E+00 0.  1.
         11    1    5    5    0    0  0.46142259638E+01 -0.39158549157E+00 -0.12571168406E+02  0.13396965908E+02  0.00000000000E+00 0. -1.
        -11    1    5    5    0    0 -0.82916093180E+02 -0.22774082515E+03  0.63992678222E+02  0.25067114875E+03  0.00000000000E+00 0.  1.
          3    1    6    6  503    0 -0.49132426296E+02  0.16790532852E+03 -0.38433375478E+03  0.42227790579E+03  0.00000000000E+00 0. -1.
         -3    1    6    6    0  503 -0.57697662025E+02  0.14135198056E+03 -0.60136403020E+03  0.62044185822E+03  0.00000000000E+00 0.  1.
<mgrwt>
<rscale>  0 0.14916140E+04</rscale>
<asrwt>0</asrwt>
<pdfrwt beam="1">  1        2 0.17887680E+00 0.14916140E+04</pdfrwt>
<pdfrwt beam="2">  1       -1 0.73599043E-01 0.14916140E+04</pdfrwt>
<totfact> 0.40900820E+01</totfact>
</mgrwt>
</event>
<event>
12    6  0.9491186E-008  0.1580830E+04  0.7818608E-02  0.8832412E-01
          2   -1    0    0  501    0  0.00000000000E+00  0.00000000000E+00  0.15439305262E+04  0.15439305262E+04  0.00000000000E+00 0. -1.
         -1   -1    0    0    0  501 -0.00000000000E+00 -0.00000000000E+00 -0.40465262403E+03  0.40465262403E+03  0.00000000000E+00 0.  1.
         24    2    1    2    0    0 -0.31696590925E+03  0.27765815633E+03  0.14145049261E-01  0.42903122479E+03  0.80661962822E+02 0.  0.
        254    2    1    2    0    0  0.31696590925E+03 -0.27765815633E+03  0.11392637571E+04  0.15195519255E+04  0.91299217217E+03 0.  0.
         23    2    4    4    0    0  0.14423034410E+03 -0.55089660522E+03  0.38254062378E+03  0.69146355648E+03  0.86574010515E+02 0.  0.
         23    2    4    4    0    0  0.17273556514E+03  0.27323844889E+03  0.75672313335E+03  0.82808836898E+03  0.92755705303E+02 0.  0.
          4    1    3    3  502    0 -0.89190377646E+02  0.90609052754E+02  0.35916410905E+02  0.13211704083E+03  0.00000000000E+00 0. -1.
         -3    1    3    3    0  502 -0.22777553160E+03  0.18704910357E+03 -0.35902265855E+02  0.29691418396E+03  0.00000000000E+00 0.  1.
         11    1    5    5    0    0  0.10657245226E+03 -0.34061582862E+03  0.19230155533E+03  0.40540932213E+03  0.00000000000E+00 0. -1.
        -11    1    5    5    0    0  0.37657891842E+02 -0.21028077660E+03  0.19023906845E+03  0.28605423435E+03  0.00000000000E+00 0.  1.
          1    1    6    6  503    0  0.82675199604E+02  0.11514494949E+03  0.44633030752E+03  0.46829936092E+03  0.00000000000E+00 0. -1.
         -1    1    6    6    0  503  0.90060365540E+02  0.15809349940E+03  0.31039282583E+03  0.35978900806E+03  0.00000000000E+00 0.  1.
<mgrwt>
<rscale>  0 0.15808296E+04</rscale>
<asrwt>0</asrwt>
<pdfrwt beam="1">  1        2 0.23752777E+00 0.15808296E+04</pdfrwt>
<pdfrwt beam="2">  1       -1 0.62254251E-01 0.15808296E+04</pdfrwt>
<totfact> 0.34334754E+01</totfact>
</mgrwt>
</event>
<event>
12    6  0.9491186E-008  0.1831333E+04  0.7818608E-02  0.8689812E-01
         -1   -1    0    0    0  501 -0.00000000000E+00  0.00000000000E+00  0.85630565714E+03  0.85630565714E+03  0.00000000000E+00 0.  1.
          2   -1    0    0  501    0  0.00000000000E+00 -0.00000000000E+00 -0.97914280836E+03  0.97914280836E+03  0.00000000000E+00 0. -1.
         24    2    1    2    0    0  0.42857773562E+03 -0.37646970179E+03  0.34310441570E+03  0.67026551762E+03  0.78274594830E+02 0.  0.
        254    2    1    2    0    0 -0.42857773562E+03  0.37646970179E+03 -0.46594156692E+03  0.11651829479E+04  0.90285184079E+03 0.  0.
         23    2    4    4    0    0  0.11106080661E+03  0.18995046910E+03  0.17991097184E+03  0.29816712453E+03  0.90111003122E+02 0.  0.
         23    2    4    4    0    0 -0.53963854224E+03  0.18651923269E+03 -0.64585253877E+03  0.86701582335E+03  0.92691723909E+02 0.  0.
          4    1    3    3  502    0  0.57074642367E+02 -0.74705743647E+02  0.83680102804E+02  0.12586032949E+03  0.00000000000E+00 0. -1.
         -3    1    3    3    0  502  0.37150309326E+03 -0.30176395814E+03  0.25942431289E+03  0.54440518812E+03  0.00000000000E+00 0.  1.
         11    1    5    5    0    0 -0.14487527006E+02  0.16914446549E+02  0.28623074888E+02  0.36266614907E+02  0.00000000000E+00 0.  1.
        -11    1    5    5    0    0  0.12554833362E+03  0.17303602255E+03  0.15128789696E+03  0.26190050962E+03  0.00000000000E+00 0. -1.
          1    1    6    6  503    0 -0.15442009104E+03  0.53375706308E+02 -0.25133470297E+03  0.29977268631E+03  0.00000000000E+00 0. -1.
         -1    1    6    6    0  503 -0.38521845120E+03  0.13314352638E+03 -0.39451783580E+03  0.56724313704E+03  0.00000000000E+00 0.  1.
<mgrwt>
<rscale>  0 0.18313334E+04</rscale>
<asrwt>0</asrwt>
<pdfrwt beam="1">  1        2 0.15063735E+00 0.18313334E+04</pdfrwt>
<pdfrwt beam="2">  1       -1 0.13173933E+00 0.18313334E+04</pdfrwt>
<totfact> 0.13689824E+01</totfact>
</mgrwt>
</event>
<event>
12    6  0.9491186E-008  0.2022786E+04  0.7818608E-02  0.8596041E-01
          2   -1    0    0  501    0  0.00000000000E+00  0.00000000000E+00  0.92359599967E+03  0.92359599967E+03  0.00000000000E+00 0. -1.
         -1   -1    0    0    0  501 -0.00000000000E+00 -0.00000000000E+00 -0.11075357762E+04  0.11075357762E+04  0.00000000000E+00 0.  1.
         24    2    1    2    0    0  0.39500824238E+03  0.40986365392E+03 -0.64878179680E+03  0.86678797065E+03  0.79898935249E+02 0.  0.
        254    2    1    2    0    0 -0.39500824238E+03 -0.40986365392E+03  0.46484202022E+03  0.11643438053E+04  0.90310501424E+03 0.  0.
         23    2    4    4    0    0 -0.40893271953E+03 -0.25159241860E+03  0.70739006813E+03  0.85983702115E+03  0.91620304824E+02 0.  0.
         23    2    4    4    0    0  0.13924477144E+02 -0.15827123532E+03 -0.24254804791E+03  0.30450678411E+03  0.93011563993E+02 0.  0.
          4    1    3    3  502    0  0.15622819661E+03  0.17417434990E+03 -0.32555488920E+03  0.40091138605E+03  0.00000000000E+00 0. -1.
         -3    1    3    3    0  502  0.23878004577E+03  0.23568930402E+03 -0.32322690760E+03  0.46587658460E+03  0.00000000000E+00 0.  1.
         11    1    5    5    0    0 -0.18227936024E+02 -0.41155083573E+02  0.63584312613E+02  0.77903551691E+02  0.00000000000E+00 0.  1.
        -11    1    5    5    0    0 -0.39070478350E+03 -0.21043733503E+03  0.64380575551E+03  0.78193346946E+03  0.00000000000E+00 0. -1.
          1    1    6    6  503    0 -0.13880254891E+02 -0.11798781660E+03 -0.22124639614E+03  0.25112497715E+03  0.00000000000E+00 0. -1.
         -1    1    6    6    0  503  0.27804732035E+02 -0.40283418718E+02 -0.21301651763E+02  0.53381806966E+02  0.00000000000E+00 0.  1.
<mgrwt>
<rscale>  0 0.20227858E+04</rscale>
<asrwt>0</asrwt>
<pdfrwt beam="1">  1        2 0.14209169E+00 0.20227858E+04</pdfrwt>
<pdfrwt beam="2">  1       -1 0.17039012E+00 0.20227858E+04</pdfrwt>
<totfact> 0.73107579E+00</totfact>
</mgrwt>
</event>
<event>
12    6  0.9491186E-008  0.1430234E+04  0.7818608E-02  0.8932220E-01
         -1   -1    0    0    0  501 -0.00000000000E+00  0.00000000000E+00  0.20132616825E+03  0.20132616825E+03  0.00000000000E+00 0.  1.
          2   -1    0    0  501    0  0.00000000000E+00 -0.00000000000E+00 -0.25401177289E+04  0.25401177289E+04  0.00000000000E+00 0. -1.
         24    2    1    2    0    0 -0.10193557078E+03 -0.39159732136E+03 -0.46706153572E+03  0.62311449642E+03  0.79911668783E+02 0.  0.
        254    2    1    2    0    0  0.10193557078E+03  0.39159732136E+03 -0.18717300249E+04  0.21183294007E+04  0.90565271551E+03 0.  0.
         23    2    4    4    0    0 -0.20792898032E+03  0.77691109343E+02 -0.15401710049E+04  0.15592534053E+04  0.99368446765E+02 0.  0.
         23    2    4    4    0    0  0.30986455110E+03  0.31390621201E+03 -0.33155902001E+03  0.55907599544E+03  0.89896801685E+02 0.  0.
          4    1    3    3  502    0 -0.54310992532E+01 -0.93244321219E+01  0.13336656568E+01  0.10872926817E+02  0.00000000000E+00 0. -1.
         -3    1    3    3    0  502 -0.96504471528E+02 -0.38227288924E+03 -0.46839520138E+03  0.61224156960E+03  0.00000000000E+00 0.  1.
         11    1    5    5    0    0 -0.12390033556E+03  0.42175460930E+02 -0.11980743019E+04  0.12052020974E+04  0.00000000000E+00 0.  1.
        -11    1    5    5    0    0 -0.84028644755E+02  0.35515648414E+02 -0.34209670303E+03  0.35405130792E+03  0.00000000000E+00 0. -1.
          3    1    6    6  503    0  0.10088466882E+03  0.13799916127E+03 -0.17311547558E+03  0.24329088105E+03  0.00000000000E+00 0. -1.
         -3    1    6    6    0  503  0.20897988228E+03  0.17590705074E+03 -0.15844354442E+03  0.31578511439E+03  0.00000000000E+00 0.  1.
<mgrwt>
<rscale>  0 0.14302338E+04</rscale>
<asrwt>0</asrwt>
<pdfrwt beam="1">  1        2 0.39078735E+00 0.14302338E+04</pdfrwt>
<pdfrwt beam="2">  1       -1 0.30973256E-01 0.14302338E+04</pdfrwt>
<totfact> 0.35328148E+01</totfact>
</mgrwt>
</event>
<event>
12    6  0.9491186E-008  0.2173993E+04  0.7818608E-02  0.8529331E-01
         -1   -1    0    0    0  501 -0.00000000000E+00  0.00000000000E+00  0.15029118799E+04  0.15029118799E+04  0.00000000000E+00 0.  1.
          2   -1    0    0  501    0  0.00000000000E+00 -0.00000000000E+00 -0.78618126893E+03  0.78618126893E+03  0.00000000000E+00 0. -1.
         24    2    1    2    0    0 -0.33828330375E+03  0.78326095853E+03  0.88726794967E+01  0.85687044355E+03  0.78834699482E+02 0.  0.
        254    2    1    2    0    0  0.33828330375E+03 -0.78326095853E+03  0.70785793149E+03  0.14322227053E+04  0.90678867639E+03 0.  0.
         23    2    4    4    0    0 -0.29946162941E+03 -0.34360290702E+03  0.28087689039E+03  0.54305011227E+03  0.90947081787E+02 0.  0.
         23    2    4    4    0    0  0.63774493315E+03 -0.43965805151E+03  0.42698104110E+03  0.88917259302E+03  0.91089454370E+02 0.  0.
          2    1    3    3  502    0 -0.14708974626E+03  0.35010397333E+03  0.42953231424E+02  0.38216902764E+03  0.00000000000E+00 0. -1.
         -1    1    3    3    0  502 -0.19119355748E+03  0.43315698520E+03 -0.34080551927E+02  0.47470141591E+03  0.00000000000E+00 0.  1.
         11    1    5    5    0    0 -0.21326675771E+03 -0.19534343739E+03  0.21036949798E+03  0.35762703219E+03  0.00000000000E+00 0. -1.
        -11    1    5    5    0    0 -0.86194871700E+02 -0.14825946963E+03  0.70507392415E+02  0.18542308009E+03  0.00000000000E+00 0.  1.
          3    1    6    6  503    0  0.42661777964E+03 -0.32347320171E+03  0.25433036678E+03  0.59272386285E+03  0.00000000000E+00 0. -1.
         -3    1    6    6    0  503  0.21112715351E+03 -0.11618484980E+03  0.17265067432E+03  0.29644873016E+03  0.00000000000E+00 0.  1.
<mgrwt>
<rscale>  0 0.21739928E+04</rscale>
<asrwt>0</asrwt>
<pdfrwt beam="1">  1        2 0.12095096E+00 0.21739928E+04</pdfrwt>
<pdfrwt beam="2">  1       -1 0.23121721E+00 0.21739928E+04</pdfrwt>
<totfact> 0.34136024E+00</totfact>
</mgrwt>
</event>
<event>
12    6  0.9491186E-008  0.1611609E+04  0.7818608E-02  0.8813448E-01
         -1   -1    0    0    0  501 -0.00000000000E+00  0.00000000000E+00  0.11163256249E+04  0.11163256249E+04  0.00000000000E+00 0.  1.
          2   -1    0    0  501    0  0.00000000000E+00 -0.00000000000E+00 -0.58165888999E+03  0.58165888999E+03  0.00000000000E+00 0. -1.
         24    2    1    2    0    0  0.25642691136E+03 -0.27764759862E+03  0.60509395811E+03  0.71798971434E+03  0.80793451907E+02 0.  0.
        254    2    1    2    0    0 -0.25642691136E+03  0.27764759862E+03 -0.70427223217E+02  0.97999480054E+03  0.90143600184E+03 0.  0.
         23    2    4    4    0    0 -0.54054343044E+02  0.13036400200E+03 -0.47046224539E+03  0.49962429594E+03  0.91504468412E+02 0.  0.
         23    2    4    4    0    0 -0.20237256832E+03  0.14728359663E+03  0.40003502217E+03  0.48037050460E+03  0.89892649746E+02 0.  0.
          4    1    3    3  502    0  0.47267313120E+02 -0.13250162573E+02  0.68282707872E+02  0.84096931526E+02  0.00000000000E+00 0. -1.
         -3    1    3    3    0  502  0.20915959824E+03 -0.26439743605E+03  0.53681125024E+03  0.63389278282E+03  0.00000000000E+00 0.  1.
         11    1    5    5    0    0 -0.47764893566E+02  0.14984950950E+02 -0.18523161661E+03  0.19187700645E+03  0.00000000000E+00 0.  1.
        -11    1    5    5    0    0 -0.62894494782E+01  0.11537905105E+03 -0.28523062878E+03  0.30774728949E+03  0.00000000000E+00 0. -1.
          1    1    6    6  503    0 -0.19177010525E+03  0.13123257989E+03  0.39820413461E+03  0.46104695651E+03  0.00000000000E+00 0. -1.
         -1    1    6    6    0  503 -0.10602463069E+02  0.16051016731E+02  0.18308875674E+01  0.19323548083E+02  0.00000000000E+00 0.  1.
<mgrwt>
<rscale>  0 0.16116088E+04</rscale>
<asrwt>0</asrwt>
<pdfrwt beam="1">  1        2 0.89485983E-01 0.16116088E+04</pdfrwt>
<pdfrwt beam="2">  1       -1 0.17174240E+00 0.16116088E+04</pdfrwt>
<totfact> 0.13466507E+01</totfact>
</mgrwt>
</event>
<event>
12    6  0.9491186E-008  0.2656031E+04  0.7818608E-02  0.8349414E-01
          2   -1    0    0  501    0  0.00000000000E+00  0.00000000000E+00  0.30803628528E+04  0.30803628528E+04  0.00000000000E+00 0. -1.
         -1   -1    0    0    0  501 -0.00000000000E+00 -0.00000000000E+00 -0.57253815370E+03  0.57253815370E+03  0.00000000000E+00 0.  1.
         24    2    1    2    0    0 -0.11102453099E+04 -0.25005902557E+02  0.57322335314E+03  0.12523362631E+04  0.80567735189E+02 0.  0.
        254    2    1    2    0    0  0.11102453099E+04  0.25005902557E+02  0.19346013459E+04  0.24005647434E+04  0.88699423692E+03 0.  0.
         23    2    4    4    0    0 -0.63711539681E+02 -0.14576406339E+03  0.80086301095E+02  0.19702159757E+03  0.84245900916E+02 0.  0.
         23    2    4    4    0    0  0.11739568496E+04  0.17076996594E+03  0.18545150448E+04  0.22035431458E+04  0.95075118395E+02 0.  0.
          4    1    3    3  502    0 -0.98850687752E+02  0.54466472178E+01  0.27731772614E+02  0.10281135952E+03  0.00000000000E+00 0. -1.
         -3    1    3    3    0  502 -0.10113946221E+04 -0.30452549775E+02  0.54549158052E+03  0.11495249036E+04  0.00000000000E+00 0.  1.
         11    1    5    5    0    0  0.98720501796E+01  0.17786944815E+01 -0.53044550502E+01  0.11347174635E+02  0.00000000000E+00 0. -1.
        -11    1    5    5    0    0 -0.73583589861E+02 -0.14754275787E+03  0.85390756145E+02  0.18567442293E+03  0.00000000000E+00 0.  1.
          2    1    6    6  503    0  0.85650289964E+03  0.12751288391E+03  0.14290061497E+04  0.16709025491E+04  0.00000000000E+00 0. -1.
         -2    1    6    6    0  503  0.31745394992E+03  0.43257082034E+02  0.42550889511E+03  0.53264059673E+03  0.00000000000E+00 0.  1.
<mgrwt>
<rscale>  0 0.26560311E+04</rscale>
<asrwt>0</asrwt>
<pdfrwt beam="1">  1        2 0.47390197E+00 0.26560311E+04</pdfrwt>
<pdfrwt beam="2">  1       -1 0.88082794E-01 0.26560311E+04</pdfrwt>
<totfact> 0.19635239E+00</totfact>
</mgrwt>
</event>
<event>
12    6  0.9491186E-008  0.1979588E+04  0.7818608E-02  0.8616224E-01
         -1   -1    0    0    0  501 -0.00000000000E+00  0.00000000000E+00  0.45230612075E+03  0.45230612075E+03  0.00000000000E+00 0.  1.
          2   -1    0    0  501    0  0.00000000000E+00 -0.00000000000E+00 -0.21659943867E+04  0.21659943867E+04  0.00000000000E+00 0. -1.
         24    2    1    2    0    0 -0.65326425243E+03  0.44776460019E+02 -0.12180822924E+03  0.67400671831E+03  0.10338615350E+03 0.  0.
        254    2    1    2    0    0  0.65326425243E+03 -0.44776460019E+02 -0.15918800367E+04  0.19442937891E+04  0.90412232155E+03 0.  0.
         23    2    4    4    0    0 -0.13476693763E+03  0.22016482182E+03 -0.49280087502E+03  0.56372570248E+03  0.91100433437E+02 0.  0.
         23    2    4    4    0    0  0.78803119007E+03 -0.26494128184E+03 -0.10990791616E+04  0.13805680866E+04  0.82499690239E+02 0.  0.
          4    1    3    3  502    0 -0.47219777053E+02  0.34424877037E+01  0.18037595849E+02  0.50664710900E+02  0.00000000000E+00 0. -1.
         -3    1    3    3    0  502 -0.60604447538E+03  0.41333972315E+02 -0.13984582509E+03  0.62334200741E+03  0.00000000000E+00 0.  1.
         11    1    5    5    0    0 -0.18561986626E+02  0.60454633535E+02 -0.20603736819E+03  0.21552426117E+03  0.00000000000E+00 0.  1.
        -11    1    5    5    0    0 -0.11620495101E+03  0.15971018828E+03 -0.28676350683E+03  0.34820144131E+03  0.00000000000E+00 0. -1.
          2    1    6    6  503    0  0.52777773155E+03 -0.14609594359E+03 -0.76336768305E+03  0.93948048313E+03  0.00000000000E+00 0. -1.
         -2    1    6    6    0  503  0.26025345851E+03 -0.11884533825E+03 -0.33571147859E+03  0.44108760349E+03  0.00000000000E+00 0.  1.
<mgrwt>
<rscale>  0 0.19795884E+04</rscale>
<asrwt>0</asrwt>
<pdfrwt beam="1">  1        2 0.33322991E+00 0.19795884E+04</pdfrwt>
<pdfrwt beam="2">  1       -1 0.69585557E-01 0.19795884E+04</pdfrwt>
<totfact> 0.11941116E+01</totfact>
</mgrwt>
</event>
<event>
12    6  0.9491186E-008  0.1700965E+04  0.7818608E-02  0.8760814E-01
         -1   -1    0    0    0  501 -0.00000000000E+00  0.00000000000E+00  0.59114241062E+03  0.59114241062E+03  0.00000000000E+00 0.  1.
          2   -1    0    0  501    0  0.00000000000E+00 -0.00000000000E+00 -0.12235972610E+04  0.12235972610E+04  0.00000000000E+00 0. -1.
         24    2    1    2    0    0  0.75639833433E+02  0.41598064828E+02 -0.87390252029E+03  0.88171625424E+03  0.79159046328E+02 0.  0.
        254    2    1    2    0    0 -0.75639833433E+02 -0.41598064828E+02  0.24144766995E+03  0.93302341735E+03  0.89709750674E+03 0.  0.
         23    2    4    4    0    0 -0.32347876365E+03 -0.34681024940E+03  0.59843685587E+02  0.48868944803E+03  0.10158863269E+03 0.  0.
         23    2    4    4    0    0  0.24783893022E+03  0.30521218457E+03  0.18160398437E+03  0.44433396932E+03  0.99368285750E+02 0.  0.
          2    1    3    3  502    0 -0.13630633242E+01  0.36490333598E+02 -0.19031907023E+03  0.19379048192E+03  0.00000000000E+00 0. -1.
         -1    1    3    3    0  502  0.77002896757E+02  0.51077312306E+01 -0.68358345006E+03  0.68792577232E+03  0.00000000000E+00 0.  1.
         11    1    5    5    0    0 -0.18033990592E+03 -0.25728858203E+03  0.17777687837E+02  0.31469976533E+03  0.00000000000E+00 0. -1.
        -11    1    5    5    0    0 -0.14313885773E+03 -0.89521667361E+02  0.42065997751E+02  0.17398968270E+03  0.00000000000E+00 0.  1.
          3    1    6    6  503    0  0.75131673367E+02  0.14284058746E+03  0.11477637428E+03  0.19804498949E+03  0.00000000000E+00 0. -1.
         -3    1    6    6    0  503  0.17270725685E+03  0.16237159710E+03  0.66827610090E+02  0.24628897983E+03  0.00000000000E+00 0.  1.
<mgrwt>
<rscale>  0 0.17009647E+04</rscale>
<asrwt>0</asrwt>
<pdfrwt beam="1">  1        2 0.18824573E+00 0.17009647E+04</pdfrwt>
<pdfrwt beam="2">  1       -1 0.90944986E-01 0.17009647E+04</pdfrwt>
<totfact> 0.23482959E+01</totfact>
</mgrwt>
</event>
<event>
12    6  0.9491186E-008  0.1619179E+04  0.7818608E-02  0.8808851E-01
         -1   -1    0    0    0  501 -0.00000000000E+00  0.00000000000E+00  0.61606460837E+03  0.61606460837E+03  0.00000000000E+00 0.  1.
          2   -1    0    0  501    0  0.00000000000E+00 -0.00000000000E+00 -0.10639065896E+04  0.10639065896E+04  0.00000000000E+00 0. -1.
         24    2    1    2    0    0 -0.60767788710E+02 -0.34360083827E+03 -0.61644684073E+03  0.71285895573E+03  0.80043257769E+02 0.  0.
        254    2    1    2    0    0  0.60767788710E+02  0.34360083827E+03  0.16860485953E+03  0.96711224221E+03  0.88607236170E+03 0.  0.
         23    2    4    4    0    0 -0.15677778058E+03  0.23915151811E+03 -0.30492510447E+03  0.42794288166E+03  0.91559104009E+02 0.  0.
         23    2    4    4    0    0  0.21754556929E+03  0.10444932016E+03  0.47352996400E+03  0.53916936054E+03  0.90759227314E+02 0.  0.
          4    1    3    3  502    0 -0.55027526513E+02 -0.32620746351E+03 -0.60907028518E+03  0.69311323044E+03  0.00000000000E+00 0. -1.
         -3    1    3    3    0  502 -0.57402621972E+01 -0.17393374755E+02 -0.73765555575E+01  0.19745725293E+02  0.00000000000E+00 0.  1.
         11    1    5    5    0    0 -0.13866164151E+03  0.22504969795E+03 -0.23274497382E+03  0.35219971638E+03  0.00000000000E+00 0.  1.
        -11    1    5    5    0    0 -0.18116139073E+02  0.14101820158E+02 -0.72180130653E+02  0.75743165287E+02  0.00000000000E+00 0. -1.
          4    1    6    6  503    0  0.15457848892E+03  0.45965128711E+02  0.37632192306E+03  0.40942092285E+03  0.00000000000E+00 0.  1.
         -4    1    6    6    0  503  0.62967080377E+02  0.58484191445E+02  0.97208040942E+02  0.12974843769E+03  0.00000000000E+00 0. -1.
<mgrwt>
<rscale>  0 0.16191790E+04</rscale>
<asrwt>0</asrwt>
<pdfrwt beam="1">  1        2 0.16367794E+00 0.16191790E+04</pdfrwt>
<pdfrwt beam="2">  1       -1 0.94779171E-01 0.16191790E+04</pdfrwt>
<totfact> 0.26977896E+01</totfact>
</mgrwt>
</event>
<event>
12    6  0.9491186E-008  0.1453280E+04  0.7818608E-02  0.8916130E-01
          2   -1    0    0  501    0  0.00000000000E+00  0.00000000000E+00  0.76379349878E+03  0.76379349878E+03  0.00000000000E+00 0. -1.
         -1   -1    0    0    0  501 -0.00000000000E+00 -0.00000000000E+00 -0.69129368607E+03  0.69129368607E+03  0.00000000000E+00 0.  1.
         24    2    1    2    0    0  0.28703080382E+03  0.34757868339E+03  0.24331743345E+03  0.51840949488E+03  0.79670618638E+02 0.  0.
        254    2    1    2    0    0 -0.28703080382E+03 -0.34757868339E+03 -0.17081762074E+03  0.93667768997E+03  0.80311195473E+03 0.  0.
         23    2    4    4    0    0  0.74541397791E+02  0.90550135035E+02 -0.31013030036E+03  0.34461635452E+03  0.93935518649E+02 0.  0.
         23    2    4    4    0    0 -0.36157220161E+03 -0.43812881842E+03  0.13931267962E+03  0.59206133544E+03  0.91854688041E+02 0.  0.
          2    1    3    3  502    0  0.28929563196E+03  0.33805031500E+03  0.24578282664E+03  0.50831011796E+03  0.00000000000E+00 0. -1.
         -1    1    3    3    0  502 -0.22648281408E+01  0.95283683871E+01 -0.24653931957E+01  0.10099376923E+02  0.00000000000E+00 0.  1.
         11    1    5    5    0    0  0.53140788494E+02  0.86025095853E+02 -0.13788084343E+03  0.17098358841E+03  0.00000000000E+00 0. -1.
        -11    1    5    5    0    0  0.21400609297E+02  0.45250391819E+01 -0.17224945693E+03  0.17363276612E+03  0.00000000000E+00 0.  1.
          1    1    6    6  503    0 -0.11425642662E+03 -0.14853708901E+03  0.25258530418E+01  0.18741445453E+03  0.00000000000E+00 0. -1.
         -1    1    6    6    0  503 -0.24731577499E+03 -0.28959172941E+03  0.13678682658E+03  0.40464688091E+03  0.00000000000E+00 0.  1.
<mgrwt>
<rscale>  0 0.14532799E+04</rscale>
<asrwt>0</asrwt>
<pdfrwt beam="1">  1        2 0.11750669E+00 0.14532799E+04</pdfrwt>
<pdfrwt beam="2">  1       -1 0.10635287E+00 0.14532799E+04</pdfrwt>
<totfact> 0.33510650E+01</totfact>
</mgrwt>
</event>
<event>
12    6  0.9491186E-008  0.2443998E+04  0.7818608E-02  0.8423213E-01
         -3   -1    0    0    0  501 -0.00000000000E+00  0.00000000000E+00  0.87242568011E+03  0.87242568011E+03  0.00000000000E+00 0.  1.
          2   -1    0    0  501    0  0.00000000000E+00 -0.00000000000E+00 -0.17116437276E+04  0.17116437276E+04  0.00000000000E+00 0. -1.
         24    2    1    2    0    0  0.10085826231E+04  0.13516802381E+03 -0.97681093709E+02  0.10254361828E+04  0.80426777943E+02 0.  0.
        254    2    1    2    0    0 -0.10085826231E+04 -0.13516802381E+03 -0.74153695376E+03  0.15586332249E+04  0.91866815216E+03 0.  0.
         23    2    4    4    0    0 -0.59362038798E+03  0.26287500034E+03 -0.54175851287E+02  0.65784782677E+03  0.91325294941E+02 0.  0.
         23    2    4    4    0    0 -0.41496223510E+03 -0.39804302415E+03 -0.68736110247E+03  0.90078539815E+03  0.91198370021E+02 0.  0.
          2    1    3    3  502    0  0.41923899767E+03  0.47135753009E+02 -0.17672699596E+01  0.42188415427E+03  0.00000000000E+00 0. -1.
         -1    1    3    3    0  502  0.58934362541E+03  0.88032270799E+02 -0.95913823750E+02  0.60355202850E+03  0.00000000000E+00 0.  1.
         11    1    5    5    0    0 -0.57329261001E+03  0.26803750221E+03 -0.43595799478E+02  0.63435724400E+03  0.00000000000E+00 0. -1.
        -11    1    5    5    0    0 -0.20327777964E+02 -0.51625018664E+01 -0.10580051809E+02  0.23490582768E+02  0.00000000000E+00 0.  1.
          4    1    6    6  503    0 -0.35610246987E+03 -0.33946430882E+03 -0.63227209790E+03  0.80113231853E+03  0.00000000000E+00 0. -1.
         -4    1    6    6    0  503 -0.58859765236E+02 -0.58578715329E+02 -0.55089004567E+02  0.99653079618E+02  0.00000000000E+00 0.  1.
<mgrwt>
<rscale>  0 0.24439983E+04</rscale>
<asrwt>0</asrwt>
<pdfrwt beam="1">  1        2 0.26332981E+00 0.24439983E+04</pdfrwt>
<pdfrwt beam="2">  1       -3 0.13421933E+00 0.24439983E+04</pdfrwt>
<totfact> 0.23556993E+00</totfact>
</mgrwt>
</event>
<event>
12    6  0.9491186E-008  0.1683027E+04  0.7818608E-02  0.8771104E-01
          2   -1    0    0  501    0  0.00000000000E+00  0.00000000000E+00  0.48200237418E+03  0.48200237418E+03  0.00000000000E+00 0. -1.
         -1   -1    0    0    0  501 -0.00000000000E+00 -0.00000000000E+00 -0.14691726166E+04  0.14691726166E+04  0.00000000000E+00 0.  1.
         24    2    1    2    0    0  0.51398154587E+03 -0.78208996514E+02 -0.15766110701E+02  0.52650883294E+03  0.81665808551E+02 0.  0.
        254    2    1    2    0    0 -0.51398154587E+03  0.78208996514E+02 -0.97140413168E+03  0.14246661578E+04  0.90319100831E+03 0.  0.
         23    2    4    4    0    0 -0.19099762235E+03  0.80596302445E+02 -0.10540272806E+04  0.10781004951E+04  0.91385522173E+02 0.  0.
         23    2    4    4    0    0 -0.32298392352E+03 -0.23873059318E+01  0.82623148867E+02  0.34656566270E+03  0.94640687626E+02 0.  0.
          4    1    3    3  502    0  0.47798750470E+03 -0.93613739032E+02 -0.16541814186E+02  0.48734917503E+03  0.00000000000E+00 0. -1.
         -3    1    3    3    0  502  0.35994041171E+02  0.15404742518E+02  0.77570348520E+00  0.39159657912E+02  0.00000000000E+00 0.  1.
         11    1    5    5    0    0 -0.18452431128E+03  0.50264371256E+02 -0.81885840084E+03  0.84089524264E+03  0.00000000000E+00 0. -1.
        -11    1    5    5    0    0 -0.64733110687E+01  0.30331931189E+02 -0.23516887971E+03  0.23720525245E+03  0.00000000000E+00 0.  1.
          3    1    6    6  503    0 -0.10432814466E+03 -0.10694501099E+02  0.72544118265E+02  0.12752012867E+03  0.00000000000E+00 0. -1.
         -3    1    6    6    0  503 -0.21865577887E+03  0.83071951667E+01  0.10079030602E+02  0.21904553404E+03  0.00000000000E+00 0.  1.
<mgrwt>
<rscale>  0 0.16830267E+04</rscale>
<asrwt>0</asrwt>
<pdfrwt beam="1">  1        2 0.74154211E-01 0.16830267E+04</pdfrwt>
<pdfrwt beam="2">  1       -1 0.22602656E+00 0.16830267E+04</pdfrwt>
<totfact> 0.70197703E+00</totfact>
</mgrwt>
</event>
<event>
12    6  0.9491186E-008  0.1602681E+04  0.7818608E-02  0.8818903E-01
          2   -1    0    0  501    0  0.00000000000E+00  0.00000000000E+00  0.51808765600E+03  0.51808765600E+03  0.00000000000E+00 0. -1.
         -1   -1    0    0    0  501 -0.00000000000E+00 -0.00000000000E+00 -0.12394556246E+04  0.12394556246E+04  0.00000000000E+00 0.  1.
         24    2    1    2    0    0 -0.46311013463E+03  0.22028686039E+03 -0.12260992753E+03  0.53307173996E+03  0.78326163947E+02 0.  0.
        254    2    1    2    0    0  0.46311013463E+03 -0.22028686039E+03 -0.59875804111E+03  0.12244715407E+04  0.93692158930E+03 0.  0.
         23    2    4    4    0    0 -0.93264945278E+02 -0.44051137996E+03 -0.30072146092E+03  0.54978630950E+03  0.95304581032E+02 0.  0.
         23    2    4    4    0    0  0.55637507991E+03  0.22022451956E+03 -0.29803658018E+03  0.67468523118E+03  0.91226583252E+02 0.  0.
          2    1    3    3  502    0 -0.40317675185E+03  0.21903419543E+03 -0.10865663810E+03  0.47152278525E+03  0.00000000000E+00 0. -1.
         -1    1    3    3    0  502 -0.59933382777E+02  0.12526649591E+01 -0.13953289430E+02  0.61548954715E+02  0.00000000000E+00 0.  1.
         11    1    5    5    0    0 -0.88018307153E+02 -0.38933257043E+03 -0.22489368719E+03  0.45815307849E+03  0.00000000000E+00 0.  1.
        -11    1    5    5    0    0 -0.52466381255E+01 -0.51178809527E+02 -0.75827773734E+02  0.91633231012E+02  0.00000000000E+00 0. -1.
          4    1    6    6  503    0  0.16769645393E+03  0.58710019251E+02 -0.43930571998E+02  0.18302694386E+03  0.00000000000E+00 0. -1.
         -4    1    6    6    0  503  0.38867862597E+03  0.16151450031E+03 -0.25410600818E+03  0.49165828733E+03  0.00000000000E+00 0.  1.
<mgrwt>
<rscale>  0 0.16026811E+04</rscale>
<asrwt>0</asrwt>
<pdfrwt beam="1">  1        2 0.79705793E-01 0.16026811E+04</pdfrwt>
<pdfrwt beam="2">  1       -1 0.19068548E+00 0.16026811E+04</pdfrwt>
<totfact> 0.11310786E+01</totfact>
</mgrwt>
</event>
<event>
12    6  0.9491186E-008  0.3311771E+04  0.7818608E-02  0.8159907E-01
          2   -1    0    0  501    0  0.00000000000E+00  0.00000000000E+00  0.28687452799E+04  0.28687452799E+04  0.00000000000E+00 0. -1.
         -1   -1    0    0    0  501 -0.00000000000E+00 -0.00000000000E+00 -0.95580376068E+03  0.95580376068E+03  0.00000000000E+00 0.  1.
         24    2    1    2    0    0 -0.10993770832E+04  0.66829491125E+03  0.18344747853E+04  0.22423145986E+04  0.86191426550E+02 0.  0.
        254    2    1    2    0    0  0.10993770832E+04 -0.66829491125E+03  0.78466733906E+02  0.15822344419E+04  0.91763867694E+03 0.  0.
         23    2    4    4    0    0  0.11125649577E+04 -0.73429613034E+03  0.26771693803E+03  0.13626975559E+04  0.90998229241E+02 0.  0.
         23    2    4    4    0    0 -0.13187874532E+02  0.66001219088E+02 -0.18925020413E+03  0.21953688604E+03  0.88604309216E+02 0.  0.
          4    1    3    3  502    0 -0.98706704475E+03  0.62772194014E+03  0.16507936754E+04  0.20232290883E+04  0.00000000000E+00 0. -1.
         -3    1    3    3    0  502 -0.11231003844E+03  0.40572971108E+02  0.18368110990E+03  0.21908551037E+03  0.00000000000E+00 0.  1.
         11    1    5    5    0    0  0.83897247451E+03 -0.57267984430E+03  0.23977605286E+03  0.10437095250E+04  0.00000000000E+00 0.  1.
        -11    1    5    5    0    0  0.27359248320E+03 -0.16161628603E+03  0.27940885170E+02  0.31898803087E+03  0.00000000000E+00 0. -1.
          1    1    6    6  503    0 -0.16267206285E+02 -0.14452448838E+02 -0.85421074250E+02  0.88149051065E+02  0.00000000000E+00 0. -1.
         -1    1    6    6    0  503  0.30793317530E+01  0.80453667926E+02 -0.10382912988E+03  0.13138783497E+03  0.00000000000E+00 0.  1.
<mgrwt>
<rscale>  0 0.33117714E+04</rscale>
<asrwt>0</asrwt>
<pdfrwt beam="1">  1        2 0.44134542E+00 0.33117714E+04</pdfrwt>
<pdfrwt beam="2">  1       -1 0.14704673E+00 0.33117714E+04</pdfrwt>
<totfact> 0.73212071E-01</totfact>
</mgrwt>
</event>
<event>
12    6  0.9491186E-008  0.1946725E+04  0.7818608E-02  0.8631942E-01
         -1   -1    0    0    0  501 -0.00000000000E+00  0.00000000000E+00  0.41035034606E+03  0.41035034606E+03  0.00000000000E+00 0.  1.
          2   -1    0    0  501    0  0.00000000000E+00 -0.00000000000E+00 -0.23088425829E+04  0.23088425829E+04  0.00000000000E+00 0. -1.
         24    2    1    2    0    0  0.21270726730E+03  0.40695006616E+03 -0.15989830149E+04  0.16655371589E+04  0.80091246832E+02 0.  0.
        254    2    1    2    0    0 -0.21270726730E+03 -0.40695006616E+03 -0.29950922200E+03  0.10536557701E+04  0.89979551561E+03 0.  0.
         23    2    4    4    0    0  0.18691668777E+02  0.22468208397E+03  0.10402683122E+03  0.26395293575E+03  0.89544141852E+02 0.  0.
         23    2    4    4    0    0 -0.23139893608E+03 -0.63163215013E+03 -0.40353605322E+03  0.78970283436E+03  0.91019666253E+02 0.  0.
          4    1    3    3  502    0  0.15355440044E+03  0.26847730240E+03 -0.94023036154E+03  0.98979399299E+03  0.00000000000E+00 0. -1.
         -3    1    3    3    0  502  0.59152866861E+02  0.13847276376E+03 -0.65875265336E+03  0.67574316590E+03  0.00000000000E+00 0.  1.
         11    1    5    5    0    0  0.33216387839E+02  0.25318825855E+02  0.27004730864E+02  0.49735569292E+02  0.00000000000E+00 0.  1.
        -11    1    5    5    0    0 -0.14524719063E+02  0.19936325811E+03  0.77022100358E+02  0.21421736646E+03  0.00000000000E+00 0. -1.
          4    1    6    6  503    0 -0.31181527704E+02 -0.19227029378E+03 -0.13756155184E+03  0.23846034070E+03  0.00000000000E+00 0. -1.
         -4    1    6    6    0  503 -0.20021740838E+03 -0.43936185635E+03 -0.26597450138E+03  0.55124249366E+03  0.00000000000E+00 0.  1.
<mgrwt>
<rscale>  0 0.19467248E+04</rscale>
<asrwt>0</asrwt>
<pdfrwt beam="1">  1        2 0.35520655E+00 0.19467248E+04</pdfrwt>
<pdfrwt beam="2">  1       -1 0.63130822E-01 0.19467248E+04</pdfrwt>
<totfact> 0.12117943E+01</totfact>
</mgrwt>
</event>
<event>
12    6  0.9491186E-008  0.5390233E+04  0.7818608E-02  0.7770976E-01
          2   -1    0    0  501    0  0.00000000000E+00  0.00000000000E+00  0.42424881145E+04  0.42424881145E+04  0.00000000000E+00 0. -1.
         -3   -1    0    0    0  501 -0.00000000000E+00 -0.00000000000E+00 -0.17121209011E+04  0.17121209011E+04  0.00000000000E+00 0.  1.
         24    2    1    2    0    0  0.73002952181E+03  0.22845952416E+04  0.23916834599E+04  0.33882131690E+04  0.86719004919E+02 0.  0.
        254    2    1    2    0    0 -0.73002952181E+03 -0.22845952416E+04  0.13868375355E+03  0.25663958466E+04  0.90268263367E+03 0.  0.
         23    2    4    4    0    0 -0.86329701090E+03 -0.20597999334E+04 -0.42073840614E+02  0.22356603770E+04  0.91376245652E+02 0.  0.
         23    2    4    4    0    0  0.13326748908E+03 -0.22479530816E+03  0.18075759416E+03  0.33073546960E+03  0.91757772343E+02 0.  0.
          4    1    3    3  502    0  0.43329623055E+03  0.12791211591E+04  0.12953775397E+04  0.18713362962E+04  0.00000000000E+00 0. -1.
         -3    1    3    3    0  502  0.29673329127E+03  0.10054740825E+04  0.10963059202E+04  0.15168768728E+04  0.00000000000E+00 0.  1.
         11    1    5    5    0    0 -0.53198893489E+03 -0.13653110501E+04 -0.50450467376E+01  0.14653026796E+04  0.00000000000E+00 0. -1.
        -11    1    5    5    0    0 -0.33130807600E+03 -0.69448888335E+03 -0.37028793876E+02  0.77035769737E+03  0.00000000000E+00 0.  1.
          4    1    6    6  503    0  0.72894092869E+02 -0.42035051582E+02  0.62731755761E+02  0.10495602659E+03  0.00000000000E+00 0. -1.
         -4    1    6    6    0  503  0.60373396214E+02 -0.18276025657E+03  0.11802583840E+03  0.22577944301E+03  0.00000000000E+00 0.  1.
<mgrwt>
<rscale>  0 0.53902329E+04</rscale>
<asrwt>0</asrwt>
<pdfrwt beam="1">  1        2 0.65269048E+00 0.53902329E+04</pdfrwt>
<pdfrwt beam="2">  1       -3 0.26340322E+00 0.53902329E+04</pdfrwt>
<totfact> 0.57925754E-03</totfact>
</mgrwt>
</event>
<event>
12    6  0.9491186E-008  0.1479781E+04  0.7818608E-02  0.8898011E-01
          2   -1    0    0  501    0  0.00000000000E+00  0.00000000000E+00  0.38124995654E+04  0.38124995654E+04  0.00000000000E+00 0. -1.
         -1   -1    0    0    0  501 -0.00000000000E+00 -0.00000000000E+00 -0.14359032736E+03  0.14359032736E+03  0.00000000000E+00 0.  1.
         24    2    1    2    0    0  0.41356733393E+03  0.20675521891E+03  0.12529841171E+04  0.13379447143E+04  0.79631657115E+02 0.  0.
        254    2    1    2    0    0 -0.41356733393E+03 -0.20675521891E+03  0.24159251210E+04  0.26181451784E+04  0.89677440019E+03 0.  0.
         23    2    4    4    0    0 -0.60892688243E+03 -0.66769595699E+02  0.21901442103E+04  0.22758978370E+04  0.87915728780E+02 0.  0.
         23    2    4    4    0    0  0.19535954851E+03 -0.13998562321E+03  0.22578091064E+03  0.34224734140E+03  0.91623660648E+02 0.  0.
          2    1    3    3  502    0  0.35615056711E+03  0.15452103770E+03  0.10979188316E+04  0.11645367054E+04  0.00000000000E+00 0. -1.
         -1    1    3    3    0  502  0.57416766817E+02  0.52234181204E+02  0.15506528546E+03  0.17340800891E+03  0.00000000000E+00 0.  1.
         11    1    5    5    0    0 -0.52473713668E+03 -0.60382352965E+02  0.17602498608E+04  0.18377907018E+04  0.00000000000E+00 0.  1.
        -11    1    5    5    0    0 -0.84189745749E+02 -0.63872427338E+01  0.42989434955E+03  0.43810713522E+03  0.00000000000E+00 0. -1.
          3    1    6    6  503    0 -0.22754660500E+00 -0.33408419952E+02  0.19631640949E+02  0.38750169387E+02  0.00000000000E+00 0. -1.
         -3    1    6    6    0  503  0.19558709511E+03 -0.10657720326E+03  0.20614926969E+03  0.30349717201E+03  0.00000000000E+00 0.  1.
<mgrwt>
<rscale>  0 0.14797811E+04</rscale>
<asrwt>0</asrwt>
<pdfrwt beam="1">  1        2 0.58653832E+00 0.14797811E+04</pdfrwt>
<pdfrwt beam="2">  1       -1 0.22090822E-01 0.14797811E+04</pdfrwt>
<totfact> 0.93487796E+00</totfact>
</mgrwt>
</event>
<event>
12    6  0.9491186E-008  0.1369410E+04  0.7818608E-02  0.8976263E-01
         -1   -1    0    0    0  501 -0.00000000000E+00  0.00000000000E+00  0.27713317265E+03  0.27713317265E+03  0.00000000000E+00 0.  1.
          2   -1    0    0  501    0  0.00000000000E+00 -0.00000000000E+00 -0.16916820462E+04  0.16916820462E+04  0.00000000000E+00 0. -1.
         24    2    1    2    0    0  0.15949992645E+03  0.34684070935E+02  0.91318919439E+02  0.20351575793E+03  0.80226600095E+02 0.  0.
        254    2    1    2    0    0 -0.15949992645E+03 -0.34684070935E+02 -0.15058677930E+04  0.17652994609E+04  0.90664279926E+03 0.  0.
         23    2    4    4    0    0  0.22095185288E+03  0.30147668508E+03 -0.83709033611E+03  0.92061980336E+03  0.84336697831E+02 0.  0.
         23    2    4    4    0    0 -0.38045177933E+03 -0.33616075602E+03 -0.66877745689E+03  0.84467965756E+03  0.92047959108E+02 0.  0.
          4    1    3    3  502    0  0.31619615375E+02 -0.25189421136E+01 -0.13061471116E+02  0.34303748681E+02  0.00000000000E+00 0. -1.
         -3    1    3    3    0  502  0.12788031107E+03  0.37203013049E+02  0.10438039056E+03  0.16921200924E+03  0.00000000000E+00 0.  1.
         11    1    5    5    0    0  0.13503233866E+03  0.22176302540E+03 -0.64891353451E+03  0.69892871396E+03  0.00000000000E+00 0.  1.
        -11    1    5    5    0    0  0.85919514224E+02  0.79713659685E+02 -0.18817680159E+03  0.22169108941E+03  0.00000000000E+00 0. -1.
          4    1    6    6  503    0 -0.10303979581E+02 -0.40442265324E+02 -0.64394696952E+02  0.76736078967E+02  0.00000000000E+00 0. -1.
         -4    1    6    6    0  503 -0.37014779975E+03 -0.29571849069E+03 -0.60438275993E+03  0.76794357859E+03  0.00000000000E+00 0.  1.
<mgrwt>
<rscale>  0 0.13694104E+04</rscale>
<asrwt>0</asrwt>
<pdfrwt beam="1">  1        2 0.26025877E+00 0.13694104E+04</pdfrwt>
<pdfrwt beam="2">  1       -1 0.42635874E-01 0.13694104E+04</pdfrwt>
<totfact> 0.59643284E+01</totfact>
</mgrwt>
</event>
<event>
12    6  0.9491186E-008  0.1425949E+04  0.7818608E-02  0.8935247E-01
         -1   -1    0    0    0  501 -0.00000000000E+00  0.00000000000E+00  0.31094365642E+03  0.31094365642E+03  0.00000000000E+00 0.  1.
          2   -1    0    0  501    0  0.00000000000E+00 -0.00000000000E+00 -0.16348064707E+04  0.16348064707E+04  0.00000000000E+00 0. -1.
         24    2    1    2    0    0 -0.11720017725E+03 -0.33834417996E+03 -0.76774200119E+02  0.37475257064E+03  0.79577294104E+02 0.  0.
        254    2    1    2    0    0  0.11720017725E+03  0.33834417996E+03 -0.12470886142E+04  0.15709975565E+04  0.88577121494E+03 0.  0.
         23    2    4    4    0    0  0.39418473824E+03  0.46573321414E+03 -0.65606137846E+03  0.90063685090E+03  0.91875841624E+02 0.  0.
         23    2    4    4    0    0 -0.27698456099E+03 -0.12738903418E+03 -0.59102723571E+03  0.67036070558E+03  0.84391167677E+02 0.  0.
          4    1    3    3  502    0 -0.46563417730E+02 -0.10547025732E+03  0.11549723130E+02  0.11586855982E+03  0.00000000000E+00 0. -1.
         -3    1    3    3    0  502 -0.70636759522E+02 -0.23287392264E+03 -0.88323923249E+02  0.25888401082E+03  0.00000000000E+00 0.  1.
         11    1    5    5    0    0  0.11227729307E+03  0.13615023016E+03 -0.25366040470E+03  0.30900918534E+03  0.00000000000E+00 0. -1.
        -11    1    5    5    0    0  0.28190744517E+03  0.32958298398E+03 -0.40240097377E+03  0.59162766556E+03  0.00000000000E+00 0.  1.
          1    1    6    6  503    0 -0.17483257691E+03 -0.77813262795E+02 -0.27906057122E+03  0.33837277701E+03  0.00000000000E+00 0. -1.
         -1    1    6    6    0  503 -0.10215198407E+03 -0.49575771388E+02 -0.31196666449E+03  0.33198792857E+03  0.00000000000E+00 0.  1.
<mgrwt>
<rscale>  0 0.14259491E+04</rscale>
<asrwt>0</asrwt>
<pdfrwt beam="1">  1        2 0.25150868E+00 0.14259491E+04</pdfrwt>
<pdfrwt beam="2">  1       -1 0.47837486E-01 0.14259491E+04</pdfrwt>
<totfact> 0.51517473E+01</totfact>
</mgrwt>
</event>
<event>
12    6  0.9491186E-008  0.2008740E+04  0.7818608E-02  0.8602545E-01
          2   -1    0    0  501    0  0.00000000000E+00  0.00000000000E+00  0.99318885710E+03  0.99318885710E+03  0.00000000000E+00 0. -1.
         -1   -1    0    0    0  501 -0.00000000000E+00 -0.00000000000E+00 -0.10156768529E+04  0.10156768529E+04  0.00000000000E+00 0.  1.
         24    2    1    2    0    0 -0.51204968441E+03 -0.53076656512E+03  0.34712064984E+03  0.81883789901E+03  0.78068773229E+02 0.  0.
        254    2    1    2    0    0  0.51204968441E+03  0.53076656512E+03 -0.36960864567E+03  0.11900278110E+04  0.85769902301E+03 0.  0.
         23    2    4    4    0    0  0.67400313986E+03  0.57432407775E+03 -0.43165187703E+03  0.98966393942E+03  0.94778643250E+02 0.  0.
         23    2    4    4    0    0 -0.16195345544E+03 -0.43557512638E+02  0.62043231362E+02  0.20036387159E+03  0.90388825877E+02 0.  0.
          4    1    3    3  502    0 -0.35928419203E+03 -0.34676045113E+03  0.26942417790E+03  0.56737758923E+03  0.00000000000E+00 0. -1.
         -3    1    3    3    0  502 -0.15276549238E+03 -0.18400611398E+03  0.77696471939E+02  0.25146030978E+03  0.00000000000E+00 0.  1.
         11    1    5    5    0    0  0.56565191664E+03  0.49983960760E+03 -0.33176654226E+03  0.82454275978E+03  0.00000000000E+00 0.  1.
        -11    1    5    5    0    0  0.10835122321E+03  0.74484470150E+02 -0.99885334766E+02  0.16512117964E+03  0.00000000000E+00 0. -1.
          1    1    6    6  503    0 -0.14136544966E+03 -0.63192983800E+01  0.68689992841E+02  0.15729729498E+03  0.00000000000E+00 0. -1.
         -1    1    6    6    0  503 -0.20588005783E+02 -0.37238214258E+02 -0.66467614783E+01  0.43066576616E+02  0.00000000000E+00 0.  1.
<mgrwt>
<rscale>  0 0.20087398E+04</rscale>
<asrwt>0</asrwt>
<pdfrwt beam="1">  1        2 0.15279829E+00 0.20087398E+04</pdfrwt>
<pdfrwt beam="2">  1       -1 0.15625798E+00 0.20087398E+04</pdfrwt>
<totfact> 0.84103272E+00</totfact>
</mgrwt>
</event>
<event>
12    6  0.9491186E-008  0.2044083E+04  0.7818608E-02  0.8586283E-01
          2   -1    0    0  501    0  0.00000000000E+00  0.00000000000E+00  0.26329718854E+04  0.26329718854E+04  0.00000000000E+00 0. -1.
         -1   -1    0    0    0  501 -0.00000000000E+00 -0.00000000000E+00 -0.39672621603E+03  0.39672621603E+03  0.00000000000E+00 0.  1.
         24    2    1    2    0    0 -0.46208256888E+02 -0.64375572712E+03  0.15979744926E+04  0.17251768322E+04  0.78460079703E+02 0.  0.
        254    2    1    2    0    0  0.46208256888E+02  0.64375572712E+03  0.63827117673E+03  0.13045212692E+04  0.93692529456E+03 0.  0.
         23    2    4    4    0    0  0.45546806652E+03  0.52183197259E+03  0.43295476869E+03  0.82260202715E+03  0.97285641889E+02 0.  0.
         23    2    4    4    0    0 -0.40925980963E+03  0.12192375453E+03  0.20531640804E+03  0.48191924206E+03  0.87933695259E+02 0.  0.
          2    1    3    3  502    0  0.13420980181E+02 -0.30349035297E+03  0.70193543325E+03  0.76485284174E+03  0.00000000000E+00 0. -1.
         -1    1    3    3    0  502 -0.59629237069E+02 -0.34026537415E+03  0.89603905938E+03  0.96032399048E+03  0.00000000000E+00 0.  1.
         11    1    5    5    0    0  0.69287044673E+02  0.13929997430E+03  0.10642251943E+03  0.18849649875E+03  0.00000000000E+00 0. -1.
        -11    1    5    5    0    0  0.38618102184E+03  0.38253199829E+03  0.32653224925E+03  0.63410552840E+03  0.00000000000E+00 0.  1.
          1    1    6    6  503    0 -0.23525815721E+03  0.94096609336E+02  0.80063894694E+02  0.26572692686E+03  0.00000000000E+00 0. -1.
         -1    1    6    6    0  503 -0.17400165241E+03  0.27827145192E+02  0.12525251335E+03  0.21619231520E+03  0.00000000000E+00 0.  1.
<mgrwt>
<rscale>  0 0.20440831E+04</rscale>
<asrwt>0</asrwt>
<pdfrwt beam="1">  1        2 0.40507259E+00 0.20440831E+04</pdfrwt>
<pdfrwt beam="2">  1       -1 0.61034804E-01 0.20440831E+04</pdfrwt>
<totfact> 0.83546320E+00</totfact>
</mgrwt>
</event>
<event>
12    6  0.9491186E-008  0.2403083E+04  0.7818608E-02  0.8438350E-01
         -1   -1    0    0    0  501 -0.00000000000E+00  0.00000000000E+00  0.50173188901E+03  0.50173188901E+03  0.00000000000E+00 0.  1.
          2   -1    0    0  501    0  0.00000000000E+00 -0.00000000000E+00 -0.28774367082E+04  0.28774367082E+04  0.00000000000E+00 0. -1.
         24    2    1    2    0    0 -0.83746819048E+03  0.54544154527E+03 -0.66705317430E+03  0.12031534382E+04  0.61309127545E+02 0.  0.
        254    2    1    2    0    0  0.83746819048E+03 -0.54544154527E+03 -0.17086516448E+04  0.21760151590E+04  0.90371017437E+03 0.  0.
         23    2    4    4    0    0  0.10634527859E+03  0.86517710541E+02 -0.89326606474E+03  0.90846110058E+03  0.92642734916E+02 0.  0.
         23    2    4    4    0    0  0.73112291189E+03 -0.63195925582E+03 -0.81538558010E+03  0.12675540584E+04  0.89030519498E+02 0.  0.
          4    1    3    3  502    0 -0.48336305729E+03  0.29877955843E+03 -0.34626961436E+03  0.66544099326E+03  0.00000000000E+00 0. -1.
         -3    1    3    3    0  502 -0.35410513319E+03  0.24666198684E+03 -0.32078355994E+03  0.53771244493E+03  0.00000000000E+00 0.  1.
         11    1    5    5    0    0  0.32096053805E+02  0.46576766762E+02 -0.14799539917E+03  0.15843670675E+03  0.00000000000E+00 0.  1.
        -11    1    5    5    0    0  0.74249224784E+02  0.39940943779E+02 -0.74527066557E+03  0.75002439383E+03  0.00000000000E+00 0. -1.
          4    1    6    6  503    0  0.37946051324E+03 -0.32763688484E+03 -0.36476826121E+03  0.61999362400E+03  0.00000000000E+00 0. -1.
         -4    1    6    6    0  503  0.35166239865E+03 -0.30432237097E+03 -0.45061731889E+03  0.64756043439E+03  0.00000000000E+00 0.  1.
<mgrwt>
<rscale>  0 0.24030828E+04</rscale>
<asrwt>0</asrwt>
<pdfrwt beam="1">  1        2 0.44268257E+00 0.24030828E+04</pdfrwt>
<pdfrwt beam="2">  1       -1 0.77189521E-01 0.24030828E+04</pdfrwt>
<totfact> 0.35704912E+00</totfact>
</mgrwt>
</event>
<event>
12    6  0.9491186E-008  0.2005297E+04  0.7818608E-02  0.8604148E-01
         -1   -1    0    0    0  501 -0.00000000000E+00  0.00000000000E+00  0.39929590919E+03  0.39929590919E+03  0.00000000000E+00 0.  1.
          2   -1    0    0  501    0  0.00000000000E+00 -0.00000000000E+00 -0.25176913487E+04  0.25176913487E+04  0.00000000000E+00 0. -1.
         24    2    1    2    0    0 -0.25179253485E+03 -0.26937426478E+03  0.18295238923E+03  0.41914371999E+03  0.79043697719E+02 0.  0.
        254    2    1    2    0    0  0.25179253485E+03  0.26937426478E+03 -0.23013478287E+04  0.24978435379E+04  0.89836436701E+03 0.  0.
         23    2    4    4    0    0  0.21988453123E+03 -0.20420370056E+03 -0.16885924979E+04  0.17174953993E+04  0.91637678549E+02 0.  0.
         23    2    4    4    0    0  0.31908003615E+02  0.47357796535E+03 -0.61275533084E+03  0.78034813865E+03  0.90442866285E+02 0.  0.
          2    1    3    3  502    0  0.20404704579E+01 -0.48665658055E+01  0.15002441568E+02  0.15903466145E+02  0.00000000000E+00 0. -1.
         -1    1    3    3    0  502 -0.25383300530E+03 -0.26450769898E+03  0.16794994766E+03  0.40324025384E+03  0.00000000000E+00 0.  1.
         11    1    5    5    0    0  0.11323759980E+03 -0.79444107971E+02 -0.10050285927E+04  0.10145031259E+04  0.00000000000E+00 0.  1.
        -11    1    5    5    0    0  0.10664693144E+03 -0.12475959259E+03 -0.68356390517E+03  0.70299227334E+03  0.00000000000E+00 0. -1.
          3    1    6    6  503    0 -0.56816082748E+01  0.20722582810E+03 -0.33296939857E+03  0.39222881700E+03  0.00000000000E+00 0. -1.
         -3    1    6    6    0  503  0.37589611889E+02  0.26635213724E+03 -0.27978593227E+03  0.38811932165E+03  0.00000000000E+00 0.  1.
<mgrwt>
<rscale>  0 0.20052968E+04</rscale>
<asrwt>0</asrwt>
<pdfrwt beam="1">  1        2 0.38733714E+00 0.20052968E+04</pdfrwt>
<pdfrwt beam="2">  1       -1 0.61430139E-01 0.20052968E+04</pdfrwt>
<totfact> 0.96648100E+00</totfact>
</mgrwt>
</event>
<event>
12    6  0.9491186E-008  0.1573432E+04  0.7818608E-02  0.8837038E-01
         -1   -1    0    0    0  501 -0.00000000000E+00  0.00000000000E+00  0.73033755546E+03  0.73033755546E+03  0.00000000000E+00 0.  1.
          2   -1    0    0  501    0  0.00000000000E+00 -0.00000000000E+00 -0.84744646499E+03  0.84744646499E+03  0.00000000000E+00 0. -1.
         24    2    1    2    0    0  0.30176991244E+03  0.40651682842E+03  0.94210294325E+02  0.52085525663E+03  0.78061558794E+02 0.  0.
        254    2    1    2    0    0 -0.30176991244E+03 -0.40651682842E+03 -0.21131920386E+03  0.10569287638E+04  0.90339448417E+03 0.  0.
         23    2    4    4    0    0  0.11863836666E+03 -0.17303061288E+03 -0.45574831747E+03  0.50972317843E+03  0.89980746361E+02 0.  0.
         23    2    4    4    0    0 -0.42040827910E+03 -0.23348621555E+03  0.24442911361E+03  0.54720558539E+03  0.91811911595E+02 0.  0.
          2    1    3    3  502    0  0.25948321339E+03  0.31619446978E+03  0.51137360378E+02  0.41222022073E+03  0.00000000000E+00 0. -1.
         -1    1    3    3    0  502  0.42286699048E+02  0.90322358641E+02  0.43072933948E+02  0.10863503590E+03  0.00000000000E+00 0.  1.
         11    1    5    5    0    0  0.12516486260E+03 -0.17930364103E+03 -0.44365765623E+03  0.49461920145E+03  0.00000000000E+00 0.  1.
        -11    1    5    5    0    0 -0.65264959310E+01  0.62730281517E+01 -0.12090661240E+02  0.15103976978E+02  0.00000000000E+00 0. -1.
          4    1    6    6  503    0 -0.78821831557E+02 -0.72292430952E+02  0.87527753505E+02  0.13820341652E+03  0.00000000000E+00 0. -1.
         -4    1    6    6    0  503 -0.34158644755E+03 -0.16119378459E+03  0.15690136010E+03  0.40900216887E+03  0.00000000000E+00 0.  1.
<mgrwt>
<rscale>  0 0.15734319E+04</rscale>
<asrwt>0</asrwt>
<pdfrwt beam="1">  1        2 0.13037638E+00 0.15734319E+04</pdfrwt>
<pdfrwt beam="2">  1       -1 0.11235962E+00 0.15734319E+04</pdfrwt>
<totfact> 0.25372290E+01</totfact>
</mgrwt>
</event>
<event>
12    6  0.9491186E-008  0.3081591E+04  0.7818608E-02  0.8220808E-01
          2   -1    0    0  501    0  0.00000000000E+00  0.00000000000E+00  0.28415148183E+04  0.28415148183E+04  0.00000000000E+00 0. -1.
         -1   -1    0    0    0  501 -0.00000000000E+00 -0.00000000000E+00 -0.83548799712E+03  0.83548799712E+03  0.00000000000E+00 0.  1.
         24    2    1    2    0    0  0.13154387302E+04  0.20580440786E+03  0.14626421302E+04  0.19794838824E+04  0.79372113314E+02 0.  0.
        254    2    1    2    0    0 -0.13154387302E+04 -0.20580440786E+03  0.54338469095E+03  0.16975189330E+04  0.90198065312E+03 0.  0.
         23    2    4    4    0    0 -0.86866553736E+03 -0.49378007793E+03  0.11793578615E+03  0.10107090808E+04  0.96049025152E+02 0.  0.
         23    2    4    4    0    0 -0.44677319279E+03  0.28797567007E+03  0.42544890480E+03  0.68680985223E+03  0.90358896502E+02 0.  0.
          2    1    3    3  502    0  0.62957954475E+03  0.11343614245E+03  0.64804485973E+03  0.91060436075E+03  0.00000000000E+00 0. -1.
         -1    1    3    3    0  502  0.68585918540E+03  0.92368265412E+02  0.81459727048E+03  0.10688795216E+04  0.00000000000E+00 0.  1.
         11    1    5    5    0    0 -0.86958025274E+02 -0.84916060847E+02  0.18599198810E+02  0.12295676372E+03  0.00000000000E+00 0. -1.
        -11    1    5    5    0    0 -0.78170751209E+03 -0.40886401708E+03  0.99336587344E+02  0.88775231709E+03  0.00000000000E+00 0.  1.
          2    1    6    6  503    0 -0.28779200706E+03  0.23475077667E+03  0.29981491767E+03  0.47730614005E+03  0.00000000000E+00 0.  1.
         -2    1    6    6    0  503 -0.15898118573E+03  0.53224893397E+02  0.12563398713E+03  0.20950371218E+03  0.00000000000E+00 0. -1.
<mgrwt>
<rscale>  0 0.30815915E+04</rscale>
<asrwt>0</asrwt>
<pdfrwt beam="1">  1        2 0.43715612E+00 0.30815915E+04</pdfrwt>
<pdfrwt beam="2">  1       -1 0.12853662E+00 0.30815915E+04</pdfrwt>
<totfact> 0.10994365E+00</totfact>
</mgrwt>
</event>
<event>
12    6  0.9491186E-008  0.2286379E+04  0.7818608E-02  0.8483311E-01
          2   -1    0    0  501    0  0.00000000000E+00  0.00000000000E+00  0.66827716860E+03  0.66827716860E+03  0.00000000000E+00 0. -1.
         -1   -1    0    0    0  501 -0.00000000000E+00 -0.00000000000E+00 -0.19555987232E+04  0.19555987232E+04  0.00000000000E+00 0.  1.
         24    2    1    2    0    0  0.66572927628E+03 -0.17899275171E+03  0.23414798150E+03  0.73077529702E+03  0.63034776356E+02 0.  0.
        254    2    1    2    0    0 -0.66572927628E+03  0.17899275171E+03 -0.15214695361E+04  0.18931005948E+04  0.89091326079E+03 0.  0.
         23    2    4    4    0    0 -0.61197375094E+03  0.46480648186E+03 -0.13057536378E+04  0.15177640888E+04  0.89768196765E+02 0.  0.
         23    2    4    4    0    0 -0.53755525344E+02 -0.28581373015E+03 -0.21571589827E+03  0.37533650599E+03  0.98818010053E+02 0.  0.
          2    1    3    3  502    0  0.41876737527E+03 -0.12901396988E+03  0.12115174809E+03  0.45463003099E+03  0.00000000000E+00 0. -1.
         -1    1    3    3    0  502  0.24696190102E+03 -0.49978781826E+02  0.11299623341E+03  0.27614526603E+03  0.00000000000E+00 0.  1.
         11    1    5    5    0    0 -0.44126076311E+03  0.38280375009E+03 -0.99877465449E+03  0.11570655049E+04  0.00000000000E+00 0.  1.
        -11    1    5    5    0    0 -0.17071298783E+03  0.82002731768E+02 -0.30697898334E+03  0.36069858392E+03  0.00000000000E+00 0. -1.
          4    1    6    6  503    0  0.20696155672E+02 -0.12113397506E+03 -0.59887643240E+02  0.13670515932E+03  0.00000000000E+00 0. -1.
         -4    1    6    6    0  503 -0.74451681016E+02 -0.16467975509E+03 -0.15582825503E+03  0.23863134666E+03  0.00000000000E+00 0.  1.
<mgrwt>
<rscale>  0 0.22863788E+04</rscale>
<asrwt>0</asrwt>
<pdfrwt beam="1">  1        2 0.10281187E+00 0.22863788E+04</pdfrwt>
<pdfrwt beam="2">  1       -1 0.30086134E+00 0.22863788E+04</pdfrwt>
<totfact> 0.14672617E+00</totfact>
</mgrwt>
</event>
<event>
12    6  0.9491186E-008  0.1328994E+04  0.7818608E-02  0.9006883E-01
          2   -1    0    0  501    0  0.00000000000E+00  0.00000000000E+00  0.15838478576E+04  0.15838478576E+04  0.00000000000E+00 0. -1.
         -1   -1    0    0    0  501 -0.00000000000E+00 -0.00000000000E+00 -0.27878712512E+03  0.27878712512E+03  0.00000000000E+00 0.  1.
         24    2    1    2    0    0  0.28764470074E+03 -0.12412011264E+03  0.60389920584E+03  0.68524000473E+03  0.81941058345E+02 0.  0.
        254    2    1    2    0    0 -0.28764470074E+03  0.12412011264E+03  0.70116152660E+03  0.11773949780E+04  0.89246073948E+03 0.  0.
         23    2    4    4    0    0  0.20969246439E+03  0.22126829351E+03  0.55852835443E+03  0.64339648262E+03  0.95260295010E+02 0.  0.
         23    2    4    4    0    0 -0.49733716513E+03 -0.97148180876E+02  0.14263317217E+03  0.53399849534E+03  0.89599923852E+02 0.  0.
          2    1    3    3  502    0  0.23700778769E+03 -0.12144865365E+03  0.44665735888E+03  0.52002429092E+03  0.00000000000E+00 0. -1.
         -1    1    3    3    0  502  0.50636913047E+02 -0.26714589913E+01  0.15724184696E+03  0.16521571382E+03  0.00000000000E+00 0.  1.
         11    1    5    5    0    0  0.21925398937E+03  0.20889033242E+03  0.54027835694E+03  0.61936111099E+03  0.00000000000E+00 0.  1.
        -11    1    5    5    0    0 -0.95615249785E+01  0.12377961092E+02  0.18249997492E+02  0.24035371625E+02  0.00000000000E+00 0. -1.
          4    1    6    6  503    0 -0.37619769124E+02 -0.25547684045E+02 -0.53100025138E+01  0.45783483001E+02  0.00000000000E+00 0. -1.
         -4    1    6    6    0  503 -0.45971739600E+03 -0.71600496831E+02  0.14794317468E+03  0.48821501234E+03  0.00000000000E+00 0.  1.
<mgrwt>
<rscale>  0 0.13289942E+04</rscale>
<asrwt>0</asrwt>
<pdfrwt beam="1">  1        2 0.24366890E+00 0.13289942E+04</pdfrwt>
<pdfrwt beam="2">  1       -1 0.42890328E-01 0.13289942E+04</pdfrwt>
<totfact> 0.67954597E+01</totfact>
</mgrwt>
</event>
<event>
12    6  0.9491186E-008  0.1670606E+04  0.7818608E-02  0.8778308E-01
          2   -1    0    0  501    0  0.00000000000E+00  0.00000000000E+00  0.19024565775E+04  0.19024565775E+04  0.00000000000E+00 0. -1.
         -1   -1    0    0    0  501 -0.00000000000E+00 -0.00000000000E+00 -0.36675288385E+03  0.36675288385E+03  0.00000000000E+00 0.  1.
         24    2    1    2    0    0  0.50913056942E+03 -0.28860525531E+03  0.50079976244E+03  0.77429495651E+03  0.78900871435E+02 0.  0.
        254    2    1    2    0    0 -0.50913056942E+03  0.28860525531E+03  0.10349039312E+04  0.14949145048E+04  0.90622088907E+03 0.  0.
         23    2    4    4    0    0 -0.15038252311E+02  0.49650942584E+03  0.32444039462E+03  0.60030583122E+03  0.91420798286E+02 0.  0.
         23    2    4    4    0    0 -0.49409231710E+03 -0.20790417052E+03  0.71046353656E+03  0.89460867358E+03  0.90635975889E+02 0.  0.
          2    1    3    3  502    0  0.28381838518E+03 -0.19369529315E+03  0.25763475283E+03  0.42947224383E+03  0.00000000000E+00 0. -1.
         -1    1    3    3    0  502  0.22531218424E+03 -0.94909962159E+02  0.24316500961E+03  0.34482271268E+03  0.00000000000E+00 0.  1.
         11    1    5    5    0    0  0.14355220667E+02  0.38242610250E+03  0.28084552275E+03  0.47468937621E+03  0.00000000000E+00 0.  1.
        -11    1    5    5    0    0 -0.29393472978E+02  0.11408332334E+03  0.43594871870E+02  0.12561645501E+03  0.00000000000E+00 0. -1.
          1    1    6    6  503    0 -0.24909053780E+03 -0.10930569068E+03  0.43458732218E+03  0.51269871331E+03  0.00000000000E+00 0. -1.
         -1    1    6    6    0  503 -0.24500177931E+03 -0.98598479839E+02  0.27587621438E+03  0.38190996027E+03  0.00000000000E+00 0.  1.
<mgrwt>
<rscale>  0 0.16706064E+04</rscale>
<asrwt>0</asrwt>
<pdfrwt beam="1">  1        2 0.29268562E+00 0.16706064E+04</pdfrwt>
<pdfrwt beam="2">  1       -1 0.56423522E-01 0.16706064E+04</pdfrwt>
<totfact> 0.26140330E+01</totfact>
</mgrwt>
</event>
<event>
12    6  0.9491186E-008  0.1452186E+04  0.7818608E-02  0.8916886E-01
          2   -1    0    0  501    0  0.00000000000E+00  0.00000000000E+00  0.22009160691E+04  0.22009160691E+04  0.00000000000E+00 0. -1.
         -1   -1    0    0    0  501 -0.00000000000E+00 -0.00000000000E+00 -0.23954159984E+03  0.23954159984E+03  0.00000000000E+00 0.  1.
         24    2    1    2    0    0 -0.72404071453E+02 -0.41499433271E+03  0.36249446051E+03  0.56321106799E+03  0.91333605344E+02 0.  0.
        254    2    1    2    0    0  0.72404071453E+02  0.41499433271E+03  0.15988800088E+04  0.18772466010E+04  0.88891780987E+03 0.  0.
         23    2    4    4    0    0  0.37608952587E+03  0.19596337949E+03  0.31448916192E+03  0.53624769004E+03  0.93878509443E+02 0.  0.
         23    2    4    4    0    0 -0.30368545441E+03  0.21903095321E+03  0.12843908469E+04  0.13409989110E+04  0.91754117036E+02 0.  0.
          4    1    3    3  502    0 -0.75947028597E+01 -0.18063333540E+03  0.20582356586E+03  0.27395149503E+03  0.00000000000E+00 0. -1.
         -3    1    3    3    0  502 -0.64809368593E+02 -0.23436099731E+03  0.15667089466E+03  0.28925957296E+03  0.00000000000E+00 0.  1.
         11    1    5    5    0    0  0.21613485989E+03  0.15966212749E+03  0.17259526664E+03  0.31936718473E+03  0.00000000000E+00 0. -1.
        -11    1    5    5    0    0  0.15995466597E+03  0.36301251999E+02  0.14189389528E+03  0.21688050530E+03  0.00000000000E+00 0.  1.
          3    1    6    6  503    0 -0.17789479676E+03  0.14286583131E+03  0.92418940074E+03  0.95193658030E+03  0.00000000000E+00 0. -1.
         -3    1    6    6    0  503 -0.12579065766E+03  0.76165121900E+02  0.36020144611E+03  0.38906233065E+03  0.00000000000E+00 0.  1.
<mgrwt>
<rscale>  0 0.14521859E+04</rscale>
<asrwt>0</asrwt>
<pdfrwt beam="1">  1        2 0.33860246E+00 0.14521859E+04</pdfrwt>
<pdfrwt beam="2">  1       -1 0.36852555E-01 0.14521859E+04</pdfrwt>
<totfact> 0.40329981E+01</totfact>
</mgrwt>
</event>
<event>
12    6  0.9491186E-008  0.1423736E+04  0.7818608E-02  0.8936814E-01
         -1   -1    0    0    0  501 -0.00000000000E+00  0.00000000000E+00  0.12563146619E+03  0.12563146619E+03  0.00000000000E+00 0.  1.
          2   -1    0    0  501    0  0.00000000000E+00 -0.00000000000E+00 -0.40336727924E+04  0.40336727924E+04  0.00000000000E+00 0. -1.
         24    2    1    2    0    0 -0.20653435977E+03  0.36246254725E+03 -0.17833990530E+04  0.18333023112E+04  0.80309663095E+02 0.  0.
        254    2    1    2    0    0  0.20653435977E+03 -0.36246254725E+03 -0.21246422731E+04  0.23260019473E+04  0.84979099217E+03 0.  0.
         23    2    4    4    0    0  0.34128483665E+03 -0.44226745499E+03 -0.75026717440E+03  0.93979186655E+03  0.90730799544E+02 0.  0.
         23    2    4    4    0    0 -0.13475047689E+03  0.79804907741E+02 -0.13743750987E+04  0.13862100808E+04  0.90249441937E+02 0.  0.
          4    1    3    3  502    0 -0.16293357709E+03  0.26553932118E+03 -0.11701788158E+04  0.12109405198E+04  0.00000000000E+00 0. -1.
         -3    1    3    3    0  502 -0.43600782680E+02  0.96923226066E+02 -0.61322023726E+03  0.62236179139E+03  0.00000000000E+00 0.  1.
         11    1    5    5    0    0  0.15325100270E+03 -0.23186008675E+03 -0.30499505667E+03  0.41263416515E+03  0.00000000000E+00 0. -1.
        -11    1    5    5    0    0  0.18803383395E+03 -0.21040736824E+03 -0.44527211773E+03  0.52715770140E+03  0.00000000000E+00 0.  1.
          3    1    6    6  503    0 -0.14112283019E+01  0.38521984048E+02 -0.21112275318E+03  0.21461302787E+03  0.00000000000E+00 0. -1.
         -3    1    6    6    0  503 -0.13333924858E+03  0.41282923693E+02 -0.11632523455E+04  0.11715970529E+04  0.00000000000E+00 0.  1.
<mgrwt>
<rscale>  0 0.14237362E+04</rscale>
<asrwt>0</asrwt>
<pdfrwt beam="1">  1        2 0.62056496E+00 0.14237362E+04</pdfrwt>
<pdfrwt beam="2">  1       -1 0.19327921E-01 0.14237362E+04</pdfrwt>
<totfact> 0.79149646E+00</totfact>
</mgrwt>
</event>
<event>
12    6  0.9491186E-008  0.1300540E+04  0.7818608E-02  0.9029137E-01
          2   -1    0    0  501    0  0.00000000000E+00  0.00000000000E+00  0.64281462810E+03  0.64281462810E+03  0.00000000000E+00 0. -1.
         -1   -1    0    0    0  501 -0.00000000000E+00 -0.00000000000E+00 -0.65781153188E+03  0.65781153188E+03  0.00000000000E+00 0.  1.
         24    2    1    2    0    0 -0.74495392160E+02 -0.47307207131E+02  0.31879309915E+03  0.34010762751E+03  0.79098817466E+02 0.  0.
        254    2    1    2    0    0  0.74495392160E+02  0.47307207131E+02 -0.33379000293E+03  0.96051853247E+03  0.89632167767E+03 0.  0.
         23    2    4    4    0    0  0.11642969326E+03  0.42714452878E+03 -0.34400265710E+03  0.56740408654E+03  0.87185132845E+02 0.  0.
         23    2    4    4    0    0 -0.41934301101E+02 -0.37983732165E+03  0.10212654173E+02  0.39311444593E+03  0.91650383372E+02 0.  0.
          4    1    3    3  502    0 -0.83931347950E+02 -0.59040646061E+02  0.28990997878E+03  0.30753546926E+03  0.00000000000E+00 0. -1.
         -3    1    3    3    0  502  0.94359557895E+01  0.11733438930E+02  0.28883120370E+02  0.32572158250E+02  0.00000000000E+00 0.  1.
         11    1    5    5    0    0  0.10271713475E+03  0.21254576380E+03 -0.17320953908E+03  0.29279353803E+03  0.00000000000E+00 0.  1.
        -11    1    5    5    0    0  0.13712558509E+02  0.21459876498E+03 -0.17079311802E+03  0.27461054851E+03  0.00000000000E+00 0. -1.
          3    1    6    6  503    0  0.24687600522E+02 -0.12468934117E+03  0.22680498421E+02  0.12911744433E+03  0.00000000000E+00 0. -1.
         -3    1    6    6    0  503 -0.66621901623E+02 -0.25514798047E+03 -0.12467844248E+02  0.26399700160E+03  0.00000000000E+00 0.  1.
<mgrwt>
<rscale>  0 0.13005397E+04</rscale>
<asrwt>0</asrwt>
<pdfrwt beam="1">  1        2 0.98894558E-01 0.13005397E+04</pdfrwt>
<pdfrwt beam="2">  1       -1 0.10120177E+00 0.13005397E+04</pdfrwt>
<totfact> 0.47361650E+01</totfact>
</mgrwt>
</event>
<event>
12    6  0.9491186E-008  0.1701954E+04  0.7818608E-02  0.8760251E-01
         -1   -1    0    0    0  501 -0.00000000000E+00  0.00000000000E+00  0.62701991177E+03  0.62701991177E+03  0.00000000000E+00 0.  1.
          2   -1    0    0  501    0  0.00000000000E+00 -0.00000000000E+00 -0.11549265099E+04  0.11549265099E+04  0.00000000000E+00 0. -1.
         24    2    1    2    0    0 -0.14693742811E+03  0.40133655670E+03 -0.64812534297E+03  0.78034076827E+03  0.78763029991E+02 0.  0.
        254    2    1    2    0    0  0.14693742811E+03 -0.40133655670E+03  0.12021874481E+03  0.10016056534E+04  0.89783055130E+03 0.  0.
         23    2    4    4    0    0  0.47251116809E+03 -0.44301436701E+03  0.93083893422E+02  0.66058992884E+03  0.90476016256E+02 0.  0.
         23    2    4    4    0    0 -0.32557373998E+03  0.41677810305E+02  0.27134851384E+02  0.34101572459E+03  0.88431466235E+02 0.  0.
          4    1    3    3  502    0 -0.11275901431E+03  0.32978961792E+03 -0.46789390344E+03  0.58343850770E+03  0.00000000000E+00 0. -1.
         -3    1    3    3    0  502 -0.34178413799E+02  0.71546938782E+02 -0.18023143954E+03  0.19690226057E+03  0.00000000000E+00 0.  1.
         11    1    5    5    0    0  0.87014516979E+02 -0.71312973535E+02 -0.17291226146E+02  0.11382465841E+03  0.00000000000E+00 0.  1.
        -11    1    5    5    0    0  0.38549665112E+03 -0.37170139347E+03  0.11037511957E+03  0.54676527043E+03  0.00000000000E+00 0. -1.
          4    1    6    6  503    0  0.52311653407E+01  0.30591626477E+01  0.37889634812E+01  0.71470141450E+01  0.00000000000E+00 0.  1.
         -4    1    6    6    0  503 -0.33080490532E+03  0.38618647657E+02  0.23345887903E+02  0.33386871044E+03  0.00000000000E+00 0. -1.
<mgrwt>
<rscale>  0 0.17019541E+04</rscale>
<asrwt>0</asrwt>
<pdfrwt beam="1">  1        2 0.17768100E+00 0.17019541E+04</pdfrwt>
<pdfrwt beam="2">  1       -1 0.96464602E-01 0.17019541E+04</pdfrwt>
<totfact> 0.22633537E+01</totfact>
</mgrwt>
</event>
<event>
12    6  0.9491186E-008  0.1159498E+04  0.7818608E-02  0.9149066E-01
          2   -1    0    0  501    0  0.00000000000E+00  0.00000000000E+00  0.26205724787E+04  0.26205724787E+04  0.00000000000E+00 0. -1.
         -1   -1    0    0    0  501 -0.00000000000E+00 -0.00000000000E+00 -0.12825773806E+03  0.12825773806E+03  0.00000000000E+00 0.  1.
         24    2    1    2    0    0 -0.96873017163E+01 -0.13069608226E+03  0.70396606175E+02  0.16544460867E+03  0.72394244540E+02 0.  0.
        254    2    1    2    0    0  0.96873017163E+01  0.13069608226E+03  0.24219181344E+04  0.25833856081E+04  0.88939217463E+03 0.  0.
         23    2    4    4    0    0  0.36000862498E+03 -0.13642980690E+03  0.15759621716E+04  0.16250060038E+04  0.93639969794E+02 0.  0.
         23    2    4    4    0    0 -0.35032132326E+03  0.26712588916E+03  0.84595596285E+03  0.95837960423E+03  0.93641361223E+02 0.  0.
          4    1    3    3  502    0  0.10813140565E+02  0.47272490020E+01  0.11073675350E+02  0.16183237555E+02  0.00000000000E+00 0. -1.
         -1    1    3    3    0  502 -0.20500442281E+02 -0.13542333127E+03  0.59322930825E+02  0.14926137111E+03  0.00000000000E+00 0.  1.
         11    1    5    5    0    0  0.35210830938E+03 -0.13742971859E+03  0.14390225283E+04  0.14878350131E+04  0.00000000000E+00 0.  1.
        -11    1    5    5    0    0  0.79003155983E+01  0.99991168968E+00  0.13693964326E+03  0.13717099076E+03  0.00000000000E+00 0. -1.
          2    1    6    6  503    0 -0.91437120816E+02  0.11969847126E+03  0.32613512961E+03  0.35923890916E+03  0.00000000000E+00 0. -1.
         -2    1    6    6    0  503 -0.25888420245E+03  0.14742741790E+03  0.51982083324E+03  0.59914069508E+03  0.00000000000E+00 0.  1.
<mgrwt>
<rscale>  0 0.11594976E+04</rscale>
<asrwt>0</asrwt>
<pdfrwt beam="1">  1        2 0.40316496E+00 0.11594976E+04</pdfrwt>
<pdfrwt beam="2">  1       -1 0.19731962E-01 0.11594976E+04</pdfrwt>
<totfact> 0.70413349E+01</totfact>
</mgrwt>
</event>
<event>
12    6  0.9491186E-008  0.2254913E+04  0.7818608E-02  0.8495913E-01
          2   -1    0    0  501    0  0.00000000000E+00  0.00000000000E+00  0.27701856165E+04  0.27701856165E+04  0.00000000000E+00 0. -1.
         -1   -1    0    0    0  501 -0.00000000000E+00 -0.00000000000E+00 -0.45887115868E+03  0.45887115868E+03  0.00000000000E+00 0.  1.
         24    2    1    2    0    0  0.21009428622E+03 -0.46531121967E+03  0.21143965277E+04  0.21766502349E+04  0.80494898594E+02 0.  0.
        254    2    1    2    0    0 -0.21009428622E+03  0.46531121967E+03  0.19691793019E+03  0.10524065403E+04  0.89895979587E+03 0.  0.
         23    2    4    4    0    0 -0.33642681792E+03  0.68099685182E+03  0.18631747794E+03  0.78697423294E+03  0.87604364737E+02 0.  0.
         23    2    4    4    0    0  0.12633253169E+03 -0.21568563215E+03  0.10600452247E+02  0.26543230736E+03  0.88666452075E+02 0.  0.
          2    1    3    3  502    0  0.19989636179E+03 -0.45244540812E+03  0.20860633047E+04  0.21439042689E+04  0.00000000000E+00 0. -1.
         -1    1    3    3    0  502  0.10197924428E+02 -0.12865811556E+02  0.28333222931E+02  0.32745966031E+02  0.00000000000E+00 0.  1.
         11    1    5    5    0    0 -0.16897603759E+03  0.28499454691E+03  0.44831784651E+02  0.33434216301E+03  0.00000000000E+00 0. -1.
        -11    1    5    5    0    0 -0.16745078032E+03  0.39600230491E+03  0.14148569329E+03  0.45263206993E+03  0.00000000000E+00 0.  1.
          3    1    6    6  503    0  0.44775389090E+00  0.66032549438E+01 -0.66619330762E+01  0.93906768506E+01  0.00000000000E+00 0. -1.
         -3    1    6    6    0  503  0.12588477780E+03 -0.22228888709E+03  0.17262385324E+02  0.25604163051E+03  0.00000000000E+00 0.  1.
<mgrwt>
<rscale>  0 0.22549131E+04</rscale>
<asrwt>0</asrwt>
<pdfrwt beam="1">  1        2 0.42618239E+00 0.22549131E+04</pdfrwt>
<pdfrwt beam="2">  1       -1 0.70595565E-01 0.22549131E+04</pdfrwt>
<totfact> 0.50618740E+00</totfact>
</mgrwt>
</event>
<event>
12    6  0.9491186E-008  0.3063265E+04  0.7818608E-02  0.8225892E-01
          2   -1    0    0  501    0  0.00000000000E+00  0.00000000000E+00  0.14490375434E+04  0.14490375434E+04  0.00000000000E+00 0. -1.
         -1   -1    0    0    0  501 -0.00000000000E+00 -0.00000000000E+00 -0.16189352368E+04  0.16189352368E+04  0.00000000000E+00 0.  1.
         24    2    1    2    0    0 -0.68342226546E+03 -0.26836252093E+03 -0.12680144838E+04  0.14674306738E+04  0.80047584611E+02 0.  0.
        254    2    1    2    0    0  0.68342226546E+03  0.26836252093E+03  0.10981167904E+04  0.16005421064E+04  0.90376441269E+03 0.  0.
         23    2    4    4    0    0  0.17085759362E+03  0.54021732641E+03  0.59673320488E+03  0.82794614545E+03  0.91527181215E+02 0.  0.
         23    2    4    4    0    0  0.51256467185E+03 -0.27185480548E+03  0.50138358548E+03  0.77259596100E+03  0.94294438149E+02 0.  0.
          4    1    3    3  502    0 -0.34871024408E+03 -0.99918742766E+02 -0.66421177512E+03  0.75680900609E+03  0.00000000000E+00 0. -1.
         -3    1    3    3    0  502 -0.33471202138E+03 -0.16844377816E+03 -0.60380270864E+03  0.71062166771E+03  0.00000000000E+00 0.  1.
         11    1    5    5    0    0  0.20537933453E+01 -0.23960608246E+00 -0.26866097070E+01  0.33901843457E+01  0.00000000000E+00 0.  1.
        -11    1    5    5    0    0  0.16880380027E+03  0.54045693249E+03  0.59941981459E+03  0.82455596110E+03  0.00000000000E+00 0. -1.
          4    1    6    6  503    0  0.49039253695E+03 -0.25377217527E+03  0.44422112602E+03  0.70867310238E+03  0.00000000000E+00 0. -1.
         -4    1    6    6    0  503  0.22172134898E+02 -0.18082630205E+02  0.57162459468E+02  0.63922858615E+02  0.00000000000E+00 0.  1.
<mgrwt>
<rscale>  0 0.30632649E+04</rscale>
<asrwt>0</asrwt>
<pdfrwt beam="1">  1        2 0.22292885E+00 0.30632649E+04</pdfrwt>
<pdfrwt beam="2">  1       -1 0.24906696E+00 0.30632649E+04</pdfrwt>
<totfact> 0.93020603E-01</totfact>
</mgrwt>
</event>
<event>
12    6  0.9491186E-008  0.1100755E+04  0.7818608E-02  0.9204457E-01
         -1   -1    0    0    0  501 -0.00000000000E+00  0.00000000000E+00  0.18012344041E+03  0.18012344041E+03  0.00000000000E+00 0.  1.
          2   -1    0    0  501    0  0.00000000000E+00 -0.00000000000E+00 -0.16817092924E+04  0.16817092924E+04  0.00000000000E+00 0. -1.
         24    2    1    2    0    0 -0.11699594469E+03  0.24155332600E+02 -0.65882631362E+02  0.16162858218E+03  0.86670331105E+02 0.  0.
        254    2    1    2    0    0  0.11699594469E+03 -0.24155332600E+02 -0.14357032206E+04  0.17002041506E+04  0.90287257404E+03 0.  0.
         23    2    4    4    0    0  0.10339095378E+03 -0.29845667250E+02  0.91421217786E+02  0.17031593919E+03  0.95232488695E+02 0.  0.
         23    2    4    4    0    0  0.13604990914E+02  0.56903346493E+01 -0.15271244384E+04  0.15298882115E+04  0.90727137285E+02 0.  0.
          2    1    3    3  502    0 -0.56083305042E+02  0.18626054542E+01 -0.77551234465E+02  0.95723562254E+02  0.00000000000E+00 0. -1.
         -1    1    3    3    0  502 -0.60912639650E+02  0.22292727146E+02  0.11668603103E+02  0.65905019923E+02  0.00000000000E+00 0.  1.
         11    1    5    5    0    0  0.75678181093E+02  0.12050542638E+02  0.92440149887E+02  0.12007324424E+03  0.00000000000E+00 0. -1.
        -11    1    5    5    0    0  0.27712772686E+02 -0.41896209887E+02 -0.10189321017E+01  0.50242694946E+02  0.00000000000E+00 0.  1.
          4    1    6    6  503    0  0.26320478873E+02  0.41756468633E+02 -0.62162678827E+03  0.62358338190E+03  0.00000000000E+00 0. -1.
         -4    1    6    6    0  503 -0.12715487960E+02 -0.36066133984E+02 -0.90549765015E+03  0.90630482956E+03  0.00000000000E+00 0.  1.
<mgrwt>
<rscale>  0 0.11007548E+04</rscale>
<asrwt>0</asrwt>
<pdfrwt beam="1">  1        2 0.25872451E+00 0.11007548E+04</pdfrwt>
<pdfrwt beam="2">  1       -1 0.27711298E-01 0.11007548E+04</pdfrwt>
<totfact> 0.13311390E+02</totfact>
</mgrwt>
</event>
<event>
12    6  0.9491186E-008  0.1785316E+04  0.7818608E-02  0.8714148E-01
         -1   -1    0    0    0  501 -0.00000000000E+00  0.00000000000E+00  0.26478008026E+04  0.26478008026E+04  0.00000000000E+00 0.  1.
          2   -1    0    0  501    0  0.00000000000E+00 -0.00000000000E+00 -0.30094337233E+03  0.30094337233E+03  0.00000000000E+00 0. -1.
         24    2    1    2    0    0  0.62056232419E+03  0.17568487611E+03  0.62156124414E+03  0.89943075785E+03  0.81697821575E+02 0.  0.
        254    2    1    2    0    0 -0.62056232419E+03 -0.17568487611E+03  0.17252961861E+04  0.20493134171E+04  0.89837396315E+03 0.  0.
         23    2    4    4    0    0 -0.74967881987E+03  0.87988574639E+02  0.14483101855E+04  0.16356329285E+04  0.89063804538E+02 0.  0.
         23    2    4    4    0    0  0.12911649568E+03 -0.26367345075E+03  0.27698600059E+03  0.41368048851E+03  0.90639637915E+02 0.  0.
          4    1    3    3  502    0  0.49990487685E+03  0.10693346950E+03  0.48578413689E+03  0.70521335810E+03  0.00000000000E+00 0. -1.
         -3    1    3    3    0  502  0.12065744734E+03  0.68751406614E+02  0.13577710726E+03  0.19421739975E+03  0.00000000000E+00 0.  1.
         11    1    5    5    0    0 -0.60485021906E+03  0.68511596990E+02  0.10860137227E+04  0.12449752738E+04  0.00000000000E+00 0. -1.
        -11    1    5    5    0    0 -0.14482860081E+03  0.19476977649E+02  0.36229646279E+03  0.39065765476E+03  0.00000000000E+00 0.  1.
          2    1    6    6  503    0 -0.24774503553E+01  0.63493652880E+01  0.74584279869E+01  0.10103481967E+02  0.00000000000E+00 0.  1.
         -2    1    6    6    0  503  0.13159394604E+03 -0.27002281604E+03  0.26952757260E+03  0.40357700654E+03  0.00000000000E+00 0. -1.
<mgrwt>
<rscale>  0 0.17853158E+04</rscale>
<asrwt>0</asrwt>
<pdfrwt beam="1">  1        2 0.46298982E-01 0.17853158E+04</pdfrwt>
<pdfrwt beam="2">  1       -1 0.40735395E+00 0.17853158E+04</pdfrwt>
<totfact> 0.75621671E-01</totfact>
</mgrwt>
</event>
<event>
12    6  0.9491186E-008  0.1837652E+04  0.7818608E-02  0.8686529E-01
          2   -1    0    0  501    0  0.00000000000E+00  0.00000000000E+00  0.77422524545E+03  0.77422524545E+03  0.00000000000E+00 0. -1.
         -1   -1    0    0    0  501 -0.00000000000E+00 -0.00000000000E+00 -0.10904333953E+04  0.10904333953E+04  0.00000000000E+00 0.  1.
         24    2    1    2    0    0  0.31036799213E+03  0.39408219795E+03 -0.61431179770E+03  0.79702180935E+03  0.78966515051E+02 0.  0.
        254    2    1    2    0    0 -0.31036799213E+03 -0.39408219795E+03  0.29810364784E+03  0.10676368314E+04  0.89406574124E+03 0.  0.
         23    2    4    4    0    0 -0.39692732871E+03 -0.24663468130E+03 -0.21242430114E+03  0.52159149427E+03  0.92485852321E+02 0.  0.
         23    2    4    4    0    0  0.86559336580E+02 -0.14744751665E+03  0.51052794898E+03  0.54604533715E+03  0.91068296432E+02 0.  0.
          4    1    3    3  502    0  0.43249125696E+02  0.10705374459E+03 -0.15039145528E+03  0.18960111003E+03  0.00000000000E+00 0. -1.
         -3    1    3    3    0  502  0.26711886644E+03  0.28702845336E+03 -0.46392034242E+03  0.60742069931E+03  0.00000000000E+00 0.  1.
         11    1    5    5    0    0 -0.36890220119E+03 -0.20337980085E+03 -0.16788450400E+03  0.45347258365E+03  0.00000000000E+00 0.  1.
        -11    1    5    5    0    0 -0.28025127526E+02 -0.43254880446E+02 -0.44539797135E+02  0.68118910620E+02  0.00000000000E+00 0. -1.
          1    1    6    6  503    0 -0.13124224588E+02 -0.14826690605E+02  0.12171916270E+03  0.12331922232E+03  0.00000000000E+00 0. -1.
         -1    1    6    6    0  503  0.99683561168E+02 -0.13262082605E+03  0.38880878628E+03  0.42272611483E+03  0.00000000000E+00 0.  1.
<mgrwt>
<rscale>  0 0.18376518E+04</rscale>
<asrwt>0</asrwt>
<pdfrwt beam="1">  1        2 0.11911158E+00 0.18376518E+04</pdfrwt>
<pdfrwt beam="2">  1       -1 0.16775898E+00 0.18376518E+04</pdfrwt>
<totfact> 0.98797870E+00</totfact>
</mgrwt>
</event>
<event>
12    6  0.9491186E-008  0.2095780E+04  0.7818608E-02  0.8563105E-01
         -1   -1    0    0    0  501 -0.00000000000E+00  0.00000000000E+00  0.81281513720E+03  0.81281513720E+03  0.00000000000E+00 0.  1.
          2   -1    0    0  501    0  0.00000000000E+00 -0.00000000000E+00 -0.13509504290E+04  0.13509504290E+04  0.00000000000E+00 0. -1.
         24    2    1    2    0    0  0.60071944093E+03 -0.72095942089E+02  0.39781548655E+03  0.72861906818E+03  0.81036495463E+02 0.  0.
        254    2    1    2    0    0 -0.60071944093E+03  0.72095942089E+02 -0.93595077832E+03  0.14351464980E+04  0.90420127167E+03 0.  0.
         23    2    4    4    0    0 -0.70589977497E+03  0.31782626686E+03 -0.54027489450E+03  0.94832764570E+03  0.90112894556E+02 0.  0.
         23    2    4    4    0    0  0.10518033404E+03 -0.24573032477E+03 -0.39567588382E+03  0.48681885229E+03  0.94799233812E+02 0.  0.
          4    1    3    3  502    0  0.35530973859E+02 -0.11719023002E+02  0.49251420741E+02  0.61850529897E+02  0.00000000000E+00 0. -1.
         -3    1    3    3    0  502  0.56518846707E+03 -0.60376919086E+02  0.34856406581E+03  0.66676853828E+03  0.00000000000E+00 0.  1.
         11    1    5    5    0    0 -0.38690154418E+03  0.19537108467E+03 -0.35087386922E+03  0.55765144823E+03  0.00000000000E+00 0. -1.
        -11    1    5    5    0    0 -0.31899823079E+03  0.12245518219E+03 -0.18940102528E+03  0.39067619747E+03  0.00000000000E+00 0.  1.
          2    1    6    6  503    0  0.10724479824E+03 -0.25360571888E+03 -0.38182113125E+03  0.47074906656E+03  0.00000000000E+00 0. -1.
         -2    1    6    6    0  503 -0.20644642029E+01  0.78753941066E+01 -0.13854752569E+02  0.16069785734E+02  0.00000000000E+00 0.  1.
<mgrwt>
<rscale>  0 0.20957795E+04</rscale>
<asrwt>0</asrwt>
<pdfrwt beam="1">  1        2 0.20783853E+00 0.20957795E+04</pdfrwt>
<pdfrwt beam="2">  1       -1 0.12504848E+00 0.20957795E+04</pdfrwt>
<totfact> 0.90713831E+00</totfact>
</mgrwt>
</event>
<event>
12    6  0.9491186E-008  0.1420184E+04  0.7818608E-02  0.8939336E-01
         -1   -1    0    0    0  501 -0.00000000000E+00  0.00000000000E+00  0.42065173431E+03  0.42065173431E+03  0.00000000000E+00 0.  1.
          2   -1    0    0  501    0  0.00000000000E+00 -0.00000000000E+00 -0.11986896121E+04  0.11986896121E+04  0.00000000000E+00 0. -1.
         24    2    1    2    0    0 -0.78084207236E+02  0.32131514396E+03  0.69781944838E+02  0.34729689020E+03  0.80031524798E+02 0.  0.
        254    2    1    2    0    0  0.78084207236E+02 -0.32131514396E+03 -0.84781982259E+03  0.12720444562E+04  0.88879586055E+03 0.  0.
         23    2    4    4    0    0  0.47510089464E+02  0.18867814291E+03  0.62370040439E+02  0.22419707994E+03  0.92291161535E+02 0.  0.
         23    2    4    4    0    0  0.30574117772E+02 -0.50999328687E+03 -0.91018986303E+03  0.10478473762E+04  0.92252955331E+02 0.  0.
          2    1    3    3  502    0 -0.44980447517E+02  0.51619439121E+02  0.15793603655E+02  0.70265532592E+02  0.00000000000E+00 0. -1.
         -1    1    3    3    0  502 -0.33103759719E+02  0.26969570484E+03  0.53988341184E+02  0.27703135761E+03  0.00000000000E+00 0.  1.
         11    1    5    5    0    0 -0.12900357812E+01  0.15727364172E+03  0.47378230350E+02  0.16426003557E+03  0.00000000000E+00 0.  1.
        -11    1    5    5    0    0  0.48800125245E+02  0.31404501186E+02  0.14991810089E+02  0.59937044375E+02  0.00000000000E+00 0. -1.
          4    1    6    6  503    0  0.53456450646E+02 -0.43387789486E+03 -0.72964080804E+03  0.85057823187E+03  0.00000000000E+00 0.  1.
         -4    1    6    6    0  503 -0.22882332874E+02 -0.76115392006E+02 -0.18054905499E+03  0.19726914436E+03  0.00000000000E+00 0. -1.
<mgrwt>
<rscale>  0 0.14201843E+04</rscale>
<asrwt>0</asrwt>
<pdfrwt beam="1">  1        2 0.18441378E+00 0.14201843E+04</pdfrwt>
<pdfrwt beam="2">  1       -1 0.64715652E-01 0.14201843E+04</pdfrwt>
<totfact> 0.50909852E+01</totfact>
</mgrwt>
</event>
<event>
12    6  0.9491186E-008  0.2320676E+04  0.7818608E-02  0.8469813E-01
         -1   -1    0    0    0  501 -0.00000000000E+00  0.00000000000E+00  0.11651117482E+04  0.11651117482E+04  0.00000000000E+00 0.  1.
          2   -1    0    0  501    0  0.00000000000E+00 -0.00000000000E+00 -0.11555842938E+04  0.11555842938E+04  0.00000000000E+00 0. -1.
         24    2    1    2    0    0  0.73869041702E+03  0.63727294471E+03 -0.10441697233E+03  0.98436327749E+03  0.79295773512E+02 0.  0.
        254    2    1    2    0    0 -0.73869041702E+03 -0.63727294471E+03  0.11394442670E+03  0.13363327645E+04  0.90610241519E+03 0.  0.
         23    2    4    4    0    0 -0.71410315295E+02  0.21274128976E+03  0.70365462211E+02  0.25096521301E+03  0.87601086584E+02 0.  0.
         23    2    4    4    0    0 -0.66728010173E+03 -0.85001423447E+03  0.43578964489E+02  0.10853675515E+04  0.91305326731E+02 0.  0.
          2    1    3    3  502    0  0.23831683277E+03  0.20821641245E+03  0.33056207732E+01  0.31648051176E+03  0.00000000000E+00 0. -1.
         -1    1    3    3    0  502  0.50037358425E+03  0.42905653227E+03 -0.10772259310E+03  0.66788276573E+03  0.00000000000E+00 0.  1.
         11    1    5    5    0    0 -0.87052816326E+02  0.18081260157E+03  0.40934038022E+02  0.20480963157E+03  0.00000000000E+00 0. -1.
        -11    1    5    5    0    0  0.15642501031E+02  0.31928688189E+02  0.29431424190E+02  0.46155581437E+02  0.00000000000E+00 0.  1.
          2    1    6    6  503    0 -0.24283442789E+02 -0.62682094959E+02  0.12414802213E+02  0.68358305538E+02  0.00000000000E+00 0. -1.
         -2    1    6    6    0  503 -0.64299665894E+03 -0.78733213951E+03  0.31164162276E+02  0.10170092459E+04  0.00000000000E+00 0.  1.
<mgrwt>
<rscale>  0 0.23206765E+04</rscale>
<asrwt>0</asrwt>
<pdfrwt beam="1">  1        2 0.17778220E+00 0.23206765E+04</pdfrwt>
<pdfrwt beam="2">  1       -1 0.17924796E+00 0.23206765E+04</pdfrwt>
<totfact> 0.43798262E+00</totfact>
</mgrwt>
</event>
<event>
12    6  0.9894021E-008  0.2124820E+04  0.7818608E-02  0.8550388E-01
          2   -1    0    0  501    0  0.00000000000E+00  0.00000000000E+00  0.97614361374E+03  0.97614361374E+03  0.00000000000E+00 0. -1.
         -1   -1    0    0    0  501 -0.00000000000E+00 -0.00000000000E+00 -0.11563003655E+04  0.11563003655E+04  0.00000000000E+00 0.  1.
         24    2    1    2    0    0 -0.73579452731E+03  0.18481622240E+02  0.39204455068E+03  0.83727191632E+03  0.74767475304E+02 0.  0.
        254    2    1    2    0    0  0.73579452731E+03 -0.18481622240E+02 -0.57220130248E+03  0.12951720630E+04  0.89906684142E+03 0.  0.
         23    2    4    4    0    0 -0.19601724044E+03 -0.92636129424E+01 -0.46974772310E+02  0.22138381540E+03  0.91080137309E+02 0.  0.
         23    2    4    4    0    0  0.93181176774E+03 -0.92180092981E+01 -0.52522653017E+03  0.10737882476E+04  0.93809116889E+02 0.  0.
          4    1    3    3  502    0 -0.66470585602E+03  0.11761440379E+02  0.32785699007E+03  0.74125731865E+03  0.00000000000E+00 0. -1.
         -3    1    3    3    0  502 -0.71088671286E+02  0.67201818611E+01  0.64187560606E+02  0.96014597671E+02  0.00000000000E+00 0.  1.
         11    1    5    5    0    0 -0.42222072377E+01 -0.60123131351E+00  0.18153222334E+02  0.18647466159E+02  0.00000000000E+00 0.  1.
        -11    1    5    5    0    0 -0.19179503320E+03 -0.86623816289E+01 -0.65127994644E+02  0.20273634924E+03  0.00000000000E+00 0. -1.
          4    1    6    6  503    0  0.87721429497E+03 -0.27742777071E+02 -0.47878114156E+03  0.99975295072E+03  0.00000000000E+00 0. -1.
         -4    1    6    6    0  503  0.54597472779E+02  0.18524767773E+02 -0.46445388612E+02  0.74035296840E+02  0.00000000000E+00 0.  1.
<mgrwt>
<rscale>  0 0.21248202E+04</rscale>
<asrwt>0</asrwt>
<pdfrwt beam="1">  1        2 0.15017594E+00 0.21248202E+04</pdfrwt>
<pdfrwt beam="2">  1       -1 0.17789236E+00 0.21248202E+04</pdfrwt>
<totfact> 0.59007331E+00</totfact>
</mgrwt>
</event>
<event>
12    6  0.9491186E-008  0.1976317E+04  0.7818608E-02  0.8617774E-01
         -1   -1    0    0    0  501 -0.00000000000E+00  0.00000000000E+00  0.17366379312E+04  0.17366379312E+04  0.00000000000E+00 0.  1.
          2   -1    0    0  501    0  0.00000000000E+00 -0.00000000000E+00 -0.56226890231E+03  0.56226890231E+03  0.00000000000E+00 0. -1.
         24    2    1    2    0    0  0.58132669267E+03  0.42342191947E+03  0.80723613441E+03  0.10841414810E+04  0.80658097705E+02 0.  0.
        254    2    1    2    0    0 -0.58132669267E+03 -0.42342191947E+03  0.36713289453E+03  0.12147653525E+04  0.90754694308E+03 0.  0.
         23    2    4    4    0    0  0.22758441574E+03 -0.10058436176E+03 -0.15677179383E+01  0.26477739315E+03  0.90513700951E+02 0.  0.
         23    2    4    4    0    0 -0.80891110842E+03 -0.32283755771E+03  0.36870061246E+03  0.94998795936E+03  0.89306837941E+02 0.  0.
          4    1    3    3  502    0  0.23368885065E+03  0.14031514006E+03  0.35205082786E+03  0.44523993851E+03  0.00000000000E+00 0. -1.
         -3    1    3    3    0  502  0.34763784202E+03  0.28310677941E+03  0.45518530655E+03  0.63890154253E+03  0.00000000000E+00 0.  1.
         11    1    5    5    0    0  0.34591134884E+02 -0.49937667497E+02  0.20310410407E+02  0.64053337294E+02  0.00000000000E+00 0. -1.
        -11    1    5    5    0    0  0.19299328086E+03 -0.50646694267E+02 -0.21878128345E+02  0.20072405585E+03  0.00000000000E+00 0.  1.
          1    1    6    6  503    0 -0.46443394147E+03 -0.14382764246E+03  0.18115588525E+03  0.51884750311E+03  0.00000000000E+00 0. -1.
         -1    1    6    6    0  503 -0.34447716695E+03 -0.17900991525E+03  0.18754472721E+03  0.43114045624E+03  0.00000000000E+00 0.  1.
<mgrwt>
<rscale>  0 0.19763173E+04</rscale>
<asrwt>0</asrwt>
<pdfrwt beam="1">  1        2 0.86502909E-01 0.19763173E+04</pdfrwt>
<pdfrwt beam="2">  1       -1 0.26717506E+00 0.19763173E+04</pdfrwt>
<totfact> 0.30733546E+00</totfact>
</mgrwt>
</event>
<event>
12    6  0.9491186E-008  0.1677704E+04  0.7818608E-02  0.8774184E-01
          2   -1    0    0  501    0  0.00000000000E+00  0.00000000000E+00  0.11114687580E+04  0.11114687580E+04  0.00000000000E+00 0. -1.
         -1   -1    0    0    0  501 -0.00000000000E+00 -0.00000000000E+00 -0.63310153107E+03  0.63310153107E+03  0.00000000000E+00 0.  1.
         24    2    1    2    0    0 -0.50383116346E+03 -0.12440547151E+02 -0.16192250032E+03  0.53542027588E+03  0.80345299985E+02 0.  0.
        254    2    1    2    0    0  0.50383116346E+03  0.12440547151E+02  0.64028972723E+03  0.12091500132E+04  0.89334887423E+03 0.  0.
         23    2    4    4    0    0 -0.19051942508E+03  0.21014556549E+03  0.19420246041E+03  0.35563005806E+03  0.91100672527E+02 0.  0.
         23    2    4    4    0    0  0.69435058854E+03 -0.19770501833E+03  0.44608726682E+03  0.85351995512E+03  0.91062890871E+02 0.  0.
          4    1    3    3  502    0 -0.31222412144E+02  0.59021387704E+01  0.81551970339E+01  0.32805205392E+02  0.00000000000E+00 0. -1.
         -1    1    3    3    0  502 -0.47260875131E+03 -0.18342685922E+02 -0.17007769735E+03  0.50261507049E+03  0.00000000000E+00 0.  1.
         11    1    5    5    0    0 -0.11657186274E+03  0.18422080504E+03  0.12633747360E+03  0.25196718323E+03  0.00000000000E+00 0.  1.
        -11    1    5    5    0    0 -0.73947562343E+02  0.25924760446E+02  0.67864986819E+02  0.10366287482E+03  0.00000000000E+00 0. -1.
          3    1    6    6  503    0  0.19598635357E+03 -0.14473652150E+02  0.11239809003E+03  0.22639228793E+03  0.00000000000E+00 0. -1.
         -3    1    6    6    0  503  0.49836423497E+03 -0.18323136618E+03  0.33368917679E+03  0.62712766719E+03  0.00000000000E+00 0.  1.
<mgrwt>
<rscale>  0 0.16777039E+04</rscale>
<asrwt>0</asrwt>
<pdfrwt beam="1">  1        2 0.17099519E+00 0.16777039E+04</pdfrwt>
<pdfrwt beam="2">  1       -1 0.97400236E-01 0.16777039E+04</pdfrwt>
<totfact> 0.23588156E+01</totfact>
</mgrwt>
</event>
<event>
12    6  0.9491186E-008  0.1099568E+04  0.7818608E-02  0.9205613E-01
          2   -1    0    0  501    0  0.00000000000E+00  0.00000000000E+00  0.96467185498E+03  0.96467185498E+03  0.00000000000E+00 0. -1.
         -1   -1    0    0    0  501 -0.00000000000E+00 -0.00000000000E+00 -0.31333176667E+03  0.31333176667E+03  0.00000000000E+00 0.  1.
         24    2    1    2    0    0 -0.49579847228E+02 -0.10615232865E+03 -0.57707649649E+02  0.15493374631E+03  0.83353552957E+02 0.  0.
        254    2    1    2    0    0  0.49579847228E+02  0.10615232865E+03  0.70904773796E+03  0.11230698753E+04  0.86302420131E+03 0.  0.
         23    2    4    4    0    0 -0.32137313047E+03  0.90719751611E+02  0.65212317813E+03  0.73694334852E+03  0.79436119984E+02 0.  0.
         23    2    4    4    0    0  0.37095297770E+03  0.15432577035E+02  0.56924559830E+02  0.38612652681E+03  0.89493089659E+02 0.  0.
          4    1    3    3  502    0  0.17403680343E+02 -0.27359155965E+01  0.25039341969E+01  0.17794465715E+02  0.00000000000E+00 0. -1.
         -3    1    3    3    0  502 -0.66983527571E+02 -0.10341641305E+03 -0.60211583846E+02  0.13713928060E+03  0.00000000000E+00 0.  1.
         11    1    5    5    0    0 -0.28184573485E+03  0.93892471897E+02  0.51865418892E+03  0.59770810787E+03  0.00000000000E+00 0.  1.
        -11    1    5    5    0    0 -0.39527395623E+02 -0.31727202864E+01  0.13346898921E+03  0.13923524065E+03  0.00000000000E+00 0. -1.
          2    1    6    6  503    0  0.98262922010E+02 -0.88710720245E+01 -0.22242967473E+02  0.10113875302E+03  0.00000000000E+00 0. -1.
         -2    1    6    6    0  503  0.27269005569E+03  0.24303649060E+02  0.79167527304E+02  0.28498777379E+03  0.00000000000E+00 0.  1.
<mgrwt>
<rscale>  0 0.10995678E+04</rscale>
<asrwt>0</asrwt>
<pdfrwt beam="1">  1        2 0.14841105E+00 0.10995678E+04</pdfrwt>
<pdfrwt beam="2">  1       -1 0.48204888E-01 0.10995678E+04</pdfrwt>
<totfact> 0.12934125E+02</totfact>
</mgrwt>
</event>
<event>
12    6  0.9491186E-008  0.2677711E+04  0.7818608E-02  0.8342273E-01
          2   -1    0    0  501    0  0.00000000000E+00  0.00000000000E+00  0.12370328061E+04  0.12370328061E+04  0.00000000000E+00 0. -1.
         -1   -1    0    0    0  501 -0.00000000000E+00 -0.00000000000E+00 -0.14490596050E+04  0.14490596050E+04  0.00000000000E+00 0.  1.
         24    2    1    2    0    0 -0.33339536374E+03 -0.48455053496E+02  0.10481529568E+04  0.11042442002E+04  0.85031007169E+02 0.  0.
        254    2    1    2    0    0  0.33339536374E+03  0.48455053496E+02 -0.12601797557E+04  0.15818482109E+04  0.89481304462E+03 0.  0.
         23    2    4    4    0    0  0.44111808415E+03  0.30771425295E+03 -0.11417626928E+04  0.12654239741E+04  0.91665489420E+02 0.  0.
         23    2    4    4    0    0 -0.10772272041E+03 -0.25925919945E+03 -0.11841706296E+03  0.31642423682E+03  0.85335689231E+02 0.  0.
          2    1    3    3  502    0 -0.33149242357E+03 -0.43674287903E+02  0.10468314484E+04  0.10989316410E+04  0.00000000000E+00 0. -1.
         -1    1    3    3    0  502 -0.19029401655E+01 -0.47807655927E+01  0.13215083866E+01  0.53125592083E+01  0.00000000000E+00 0.  1.
         11    1    5    5    0    0  0.30734071392E+03  0.21874175370E+03 -0.69707752077E+03  0.79260541205E+03  0.00000000000E+00 0.  1.
        -11    1    5    5    0    0  0.13377737023E+03  0.88972499243E+02 -0.44468517199E+03  0.47281856203E+03  0.00000000000E+00 0. -1.
          2    1    6    6  503    0 -0.42171832151E+02 -0.37457038074E+02  0.39501099757E+00  0.56406109261E+02  0.00000000000E+00 0. -1.
         -2    1    6    6    0  503 -0.65550888258E+02 -0.22180216138E+03 -0.11881207395E+03  0.26001812756E+03  0.00000000000E+00 0.  1.
<mgrwt>
<rscale>  0 0.26777112E+04</rscale>
<asrwt>0</asrwt>
<pdfrwt beam="1">  1        2 0.19031274E+00 0.26777112E+04</pdfrwt>
<pdfrwt beam="2">  1       -1 0.22293225E+00 0.26777112E+04</pdfrwt>
<totfact> 0.18964375E+00</totfact>
</mgrwt>
</event>
<event>
12    6  0.9491186E-008  0.1472717E+04  0.7818608E-02  0.8902801E-01
         -1   -1    0    0    0  501 -0.00000000000E+00  0.00000000000E+00  0.36476002846E+03  0.36476002846E+03  0.00000000000E+00 0.  1.
          2   -1    0    0  501    0  0.00000000000E+00 -0.00000000000E+00 -0.14865215470E+04  0.14865215470E+04  0.00000000000E+00 0. -1.
         24    2    1    2    0    0 -0.12186630998E+03  0.10270743454E+02 -0.89968959672E+03  0.91132888758E+03  0.78243755068E+02 0.  0.
        254    2    1    2    0    0  0.12186630998E+03 -0.10270743454E+02 -0.22207192180E+03  0.93995268786E+03  0.90511779967E+03 0.  0.
         23    2    4    4    0    0  0.26470215867E+03 -0.17158625120E+03  0.24964991750E+03  0.41261047848E+03  0.91723776827E+02 0.  0.
         23    2    4    4    0    0 -0.14283584869E+03  0.16131550775E+03 -0.47172183931E+03  0.52734220938E+03  0.95621856310E+02 0.  0.
          4    1    3    3  502    0 -0.84271876314E+02 -0.30582165265E+02 -0.54859164130E+03  0.55586851581E+03  0.00000000000E+00 0. -1.
         -3    1    3    3    0  502 -0.37594433670E+02  0.40852908719E+02 -0.35109795542E+03  0.35546037177E+03  0.00000000000E+00 0.  1.
         11    1    5    5    0    0  0.11336353154E+03 -0.11785378056E+03  0.92292878196E+02  0.18777321226E+03  0.00000000000E+00 0. -1.
        -11    1    5    5    0    0  0.15133862713E+03 -0.53732470643E+02  0.15735703931E+03  0.22483726622E+03  0.00000000000E+00 0.  1.
          1    1    6    6  503    0 -0.56869826520E+02  0.13281778629E+03 -0.30915996730E+03  0.34125448994E+03  0.00000000000E+00 0. -1.
         -1    1    6    6    0  503 -0.85966022168E+02  0.28497721457E+02 -0.16256187200E+03  0.18608771943E+03  0.00000000000E+00 0.  1.
<mgrwt>
<rscale>  0 0.14727167E+04</rscale>
<asrwt>0</asrwt>
<pdfrwt beam="1">  1        2 0.22869562E+00 0.14727167E+04</pdfrwt>
<pdfrwt beam="2">  1       -1 0.56116928E-01 0.14727167E+04</pdfrwt>
<totfact> 0.45786307E+01</totfact>
</mgrwt>
</event>
<event>
12    6  0.9491186E-008  0.1497747E+04  0.7818608E-02  0.8885953E-01
         -1   -1    0    0    0  501 -0.00000000000E+00  0.00000000000E+00  0.30222908175E+03  0.30222908175E+03  0.00000000000E+00 0.  1.
          2   -1    0    0  501    0  0.00000000000E+00 -0.00000000000E+00 -0.18555838518E+04  0.18555838518E+04  0.00000000000E+00 0. -1.
         24    2    1    2    0    0  0.10743585984E+03 -0.12226755903E+03  0.13890142074E+03  0.22887225699E+03  0.81222443731E+02 0.  0.
        254    2    1    2    0    0 -0.10743585984E+03  0.12226755903E+03 -0.16922561908E+04  0.19289406766E+04  0.91136672007E+03 0.  0.
         23    2    4    4    0    0 -0.75048413236E+01 -0.77158509836E+02  0.78958607082E+02  0.14128416891E+03  0.87846436864E+02 0.  0.
         23    2    4    4    0    0 -0.99931018520E+02  0.19942606887E+03 -0.17712147979E+04  0.17876565076E+04  0.93578649990E+02 0.  0.
          2    1    3    3  502    0  0.36088622992E+02 -0.28306008108E+02  0.90287690784E+02  0.10126937302E+03  0.00000000000E+00 0. -1.
         -1    1    3    3    0  502  0.71347236852E+02 -0.93961550926E+02  0.48613729957E+02  0.12760288398E+03  0.00000000000E+00 0.  1.
         11    1    5    5    0    0 -0.37853853005E+02 -0.21477357967E+02  0.49192924738E+01  0.43799435282E+02  0.00000000000E+00 0.  1.
        -11    1    5    5    0    0  0.30349011681E+02 -0.55681151869E+02  0.74039314609E+02  0.97484733631E+02  0.00000000000E+00 0. -1.
          1    1    6    6  503    0 -0.38565159261E+02  0.16742617939E+03 -0.13287866730E+04  0.13398480583E+04  0.00000000000E+00 0. -1.
         -1    1    6    6    0  503 -0.61365859259E+02  0.31999889483E+02 -0.44242812491E+03  0.44780844936E+03  0.00000000000E+00 0.  1.
<mgrwt>
<rscale>  0 0.14977468E+04</rscale>
<asrwt>0</asrwt>
<pdfrwt beam="1">  1        2 0.28547444E+00 0.14977468E+04</pdfrwt>
<pdfrwt beam="2">  1       -1 0.46496782E-01 0.14977468E+04</pdfrwt>
<totfact> 0.40753848E+01</totfact>
</mgrwt>
</event>
<event>
12    6  0.9491186E-008  0.1592525E+04  0.7818608E-02  0.8825153E-01
         -1   -1    0    0    0  501 -0.00000000000E+00  0.00000000000E+00  0.12861846947E+04  0.12861846947E+04  0.00000000000E+00 0.  1.
          2   -1    0    0  501    0  0.00000000000E+00 -0.00000000000E+00 -0.49295737471E+03  0.49295737471E+03  0.00000000000E+00 0. -1.
         24    2    1    2    0    0 -0.40612295938E+03  0.26545846525E+03  0.40204270874E+01  0.49169607996E+03  0.79654355262E+02 0.  0.
        254    2    1    2    0    0  0.40612295938E+03 -0.26545846525E+03  0.78920689287E+03  0.12874459894E+04  0.89401655521E+03 0.  0.
         23    2    4    4    0    0  0.22579766183E+03  0.13584920896E+03 -0.95888630592E+02  0.29458474338E+03  0.90254916172E+02 0.  0.
         23    2    4    4    0    0  0.18032529755E+03 -0.40130767421E+03  0.88509552346E+03  0.99286124603E+03  0.93884534987E+02 0.  0.
          4    1    3    3  502    0 -0.55348524025E+02  0.52919609148E+02 -0.24936619536E+02  0.80534335149E+02  0.00000000000E+00 0. -1.
         -3    1    3    3    0  502 -0.35077443535E+03  0.21253885610E+03  0.28957046623E+02  0.41116174482E+03  0.00000000000E+00 0.  1.
         11    1    5    5    0    0  0.70863752139E+02 -0.20193493312E+01 -0.29966628162E+02  0.76965888173E+02  0.00000000000E+00 0. -1.
        -11    1    5    5    0    0  0.15493390969E+03  0.13786855829E+03 -0.65922002430E+02  0.21761885521E+03  0.00000000000E+00 0.  1.
          3    1    6    6  503    0  0.66615494673E+02 -0.95795917929E+02  0.31823485101E+03  0.33895118000E+03  0.00000000000E+00 0. -1.
         -3    1    6    6    0  503  0.11370980288E+03 -0.30551175628E+03  0.56686067245E+03  0.65391006604E+03  0.00000000000E+00 0.  1.
<mgrwt>
<rscale>  0 0.15925253E+04</rscale>
<asrwt>0</asrwt>
<pdfrwt beam="1">  1        2 0.75839596E-01 0.15925253E+04</pdfrwt>
<pdfrwt beam="2">  1       -1 0.19787457E+00 0.15925253E+04</pdfrwt>
<totfact> 0.10688877E+01</totfact>
</mgrwt>
</event>
<event>
12    6  0.9491186E-008  0.1862517E+04  0.7818608E-02  0.8673742E-01
         -1   -1    0    0    0  501 -0.00000000000E+00  0.00000000000E+00  0.35554088999E+03  0.35554088999E+03  0.00000000000E+00 0.  1.
          2   -1    0    0  501    0  0.00000000000E+00 -0.00000000000E+00 -0.24392193641E+04  0.24392193641E+04  0.00000000000E+00 0. -1.
         24    2    1    2    0    0  0.29834207435E+03 -0.33267941720E+03  0.17906675058E+02  0.45379304425E+03  0.76966811310E+02 0.  0.
        254    2    1    2    0    0 -0.29834207435E+03  0.33267941720E+03 -0.21015851491E+04  0.23409672098E+04  0.92939967201E+03 0.  0.
         23    2    4    4    0    0  0.19907766918E+03 -0.13289543665E+03 -0.10783393230E+04  0.11082604558E+04  0.90179969152E+02 0.  0.
         23    2    4    4    0    0 -0.49741974354E+03  0.46557485385E+03 -0.10232458261E+04  0.12327067540E+04  0.91365064094E+02 0.  0.
          2    1    3    3  502    0  0.62943831780E+02 -0.32663695646E+02 -0.91002489357E+01  0.71495856545E+02  0.00000000000E+00 0. -1.
         -1    1    3    3    0  502  0.23539824257E+03 -0.30001572155E+03  0.27006923994E+02  0.38229718771E+03  0.00000000000E+00 0.  1.
         11    1    5    5    0    0  0.20292205392E+03 -0.13004766871E+03 -0.10764737647E+04  0.11031253429E+04  0.00000000000E+00 0.  1.
        -11    1    5    5    0    0 -0.38443847369E+01 -0.28477679399E+01 -0.18655583117E+01  0.51351128575E+01  0.00000000000E+00 0. -1.
          1    1    6    6  503    0  0.25932402347E+01 -0.13192428133E+01 -0.77137785542E+01  0.82442510939E+01  0.00000000000E+00 0. -1.
         -1    1    6    6    0  503 -0.50001298377E+03  0.46689409666E+03 -0.10155320476E+04  0.12244625029E+04  0.00000000000E+00 0.  1.
<mgrwt>
<rscale>  0 0.18625168E+04</rscale>
<asrwt>0</asrwt>
<pdfrwt beam="1">  1        2 0.37526450E+00 0.18625168E+04</pdfrwt>
<pdfrwt beam="2">  1       -1 0.54698602E-01 0.18625168E+04</pdfrwt>
<totfact> 0.13642202E+01</totfact>
</mgrwt>
</event>
<event>
12    6  0.9491186E-008  0.3726974E+04  0.7818608E-02  0.8062010E-01
         -1   -1    0    0    0  501 -0.00000000000E+00  0.00000000000E+00  0.13552822787E+04  0.13552822787E+04  0.00000000000E+00 0.  1.
          2   -1    0    0  501    0  0.00000000000E+00 -0.00000000000E+00 -0.25622589583E+04  0.25622589583E+04  0.00000000000E+00 0. -1.
         24    2    1    2    0    0  0.10871526952E+04  0.96474943028E+03  0.46515914119E+03  0.15281893057E+04  0.79668574111E+02 0.  0.
        254    2    1    2    0    0 -0.10871526952E+04 -0.96474943028E+03 -0.16721358208E+04  0.23893519313E+04  0.89460717781E+03 0.  0.
         23    2    4    4    0    0 -0.13456901834E+03  0.50756711826E+02 -0.61514007454E+03  0.63863262999E+03  0.93644328690E+02 0.  0.
         23    2    4    4    0    0 -0.95258367681E+03 -0.10155061421E+04 -0.10569957462E+04  0.17507193013E+04  0.95444635011E+02 0.  0.
          4    1    3    3  502    0  0.89244031571E+02  0.67218143126E+02  0.56483831671E+02  0.12519264825E+03  0.00000000000E+00 0. -1.
         -3    1    3    3    0  502  0.99790866359E+03  0.89753128715E+03  0.40867530952E+03  0.14029966575E+04  0.00000000000E+00 0.  1.
         11    1    5    5    0    0 -0.28203712657E+02  0.58417890440E+02 -0.22157726976E+03  0.23087785906E+03  0.00000000000E+00 0. -1.
        -11    1    5    5    0    0 -0.10636530569E+03 -0.76611786141E+01 -0.39356280478E+03  0.40775477093E+03  0.00000000000E+00 0.  1.
          1    1    6    6  503    0 -0.19765615411E+03 -0.26932608241E+03 -0.26174960196E+03  0.42440234218E+03  0.00000000000E+00 0. -1.
         -1    1    6    6    0  503 -0.75492752270E+03 -0.74618005969E+03 -0.79524614426E+03  0.13263169591E+04  0.00000000000E+00 0.  1.
<mgrwt>
<rscale>  0 0.37269742E+04</rscale>
<asrwt>0</asrwt>
<pdfrwt beam="1">  1        2 0.39419368E+00 0.37269742E+04</pdfrwt>
<pdfrwt beam="2">  1       -1 0.20850497E+00 0.37269742E+04</pdfrwt>
<totfact> 0.38623810E-01</totfact>
</mgrwt>
</event>
<event>
12    6  0.9491186E-008  0.1817324E+04  0.7818608E-02  0.8697140E-01
         -1   -1    0    0    0  501 -0.00000000000E+00  0.00000000000E+00  0.33610560011E+03  0.33610560011E+03  0.00000000000E+00 0.  1.
          2   -1    0    0  501    0  0.00000000000E+00 -0.00000000000E+00 -0.24565699923E+04  0.24565699923E+04  0.00000000000E+00 0. -1.
         24    2    1    2    0    0 -0.41448162331E+03 -0.43606137044E+03 -0.30253874866E+03  0.67812671962E+03  0.79885033433E+02 0.  0.
        254    2    1    2    0    0  0.41448162331E+03  0.43606137044E+03 -0.18179256435E+04  0.21145488728E+04  0.89694969488E+03 0.  0.
         23    2    4    4    0    0  0.30014430399E+03 -0.15819552665E+03 -0.11759213035E+04  0.12274159308E+04  0.92986704939E+02 0.  0.
         23    2    4    4    0    0  0.11433731932E+03  0.59425689709E+03 -0.64200434003E+03  0.88713294198E+03  0.92849350088E+02 0.  0.
          4    1    3    3  502    0 -0.11199887951E+03 -0.93589978811E+02 -0.40828523135E+02  0.15155791450E+03  0.00000000000E+00 0. -1.
         -3    1    3    3    0  502 -0.30248274380E+03 -0.34247139163E+03 -0.26171022553E+03  0.52656880512E+03  0.00000000000E+00 0.  1.
         11    1    5    5    0    0  0.12638069308E+03 -0.73438500655E+02 -0.35252626243E+03  0.38162816807E+03  0.00000000000E+00 0.  1.
        -11    1    5    5    0    0  0.17376361091E+03 -0.84757025995E+02 -0.82339504105E+03  0.84578776271E+03  0.00000000000E+00 0. -1.
          2    1    6    6  503    0  0.12053378530E+03  0.40750668155E+03 -0.43051454936E+03  0.60492385150E+03  0.00000000000E+00 0. -1.
         -2    1    6    6    0  503 -0.61964659707E+01  0.18675021554E+03 -0.21148979066E+03  0.28220909048E+03  0.00000000000E+00 0.  1.
<mgrwt>
<rscale>  0 0.18173243E+04</rscale>
<asrwt>0</asrwt>
<pdfrwt beam="1">  1        2 0.37793385E+00 0.18173243E+04</pdfrwt>
<pdfrwt beam="2">  1       -1 0.51708553E-01 0.18173243E+04</pdfrwt>
<totfact> 0.14916976E+01</totfact>
</mgrwt>
</event>
<event>
12    6  0.9491186E-008  0.1794565E+04  0.7818608E-02  0.8709195E-01
         -1   -1    0    0    0  501 -0.00000000000E+00  0.00000000000E+00  0.36139700997E+03  0.36139700997E+03  0.00000000000E+00 0.  1.
          2   -1    0    0  501    0  0.00000000000E+00 -0.00000000000E+00 -0.22277868427E+04  0.22277868427E+04  0.00000000000E+00 0. -1.
         24    2    1    2    0    0  0.21659649210E+03  0.38221371485E+03 -0.14309979471E+04  0.14991329491E+04  0.81505277389E+02 0.  0.
        254    2    1    2    0    0 -0.21659649210E+03 -0.38221371485E+03 -0.43539188567E+03  0.10900509036E+04  0.89757646703E+03 0.  0.
         23    2    4    4    0    0 -0.54486768176E+03 -0.22449181059E+03 -0.38715054256E+03  0.71098679806E+03  0.91319881529E+02 0.  0.
         23    2    4    4    0    0  0.32827118966E+03 -0.15772190426E+03 -0.48241343102E+02  0.37906410556E+03  0.93403404087E+02 0.  0.
          4    1    3    3  502    0  0.19755697025E+03  0.30224898682E+03 -0.12320244302E+04  0.12838486684E+04  0.00000000000E+00 0. -1.
         -3    1    3    3    0  502  0.19039521854E+02  0.79964728027E+02 -0.19897351683E+03  0.21528428071E+03  0.00000000000E+00 0.  1.
         11    1    5    5    0    0 -0.56535830362E+01 -0.20331074893E+01 -0.22031279100E+02  0.22835800533E+02  0.00000000000E+00 0. -1.
        -11    1    5    5    0    0 -0.53921409872E+03 -0.22245870310E+03 -0.36511926347E+03  0.68815099753E+03  0.00000000000E+00 0.  1.
          3    1    6    6  503    0  0.43492473876E+02 -0.16782242902E+02 -0.39653246063E+02  0.61201461453E+02  0.00000000000E+00 0. -1.
         -3    1    6    6    0  503  0.28477871578E+03 -0.14093966136E+03 -0.85880970387E+01  0.31786264410E+03  0.00000000000E+00 0.  1.
<mgrwt>
<rscale>  0 0.17945646E+04</rscale>
<asrwt>0</asrwt>
<pdfrwt beam="1">  1        2 0.34273644E+00 0.17945646E+04</pdfrwt>
<pdfrwt beam="2">  1       -1 0.55599539E-01 0.17945646E+04</pdfrwt>
<totfact> 0.17530869E+01</totfact>
</mgrwt>
</event>
<event>
12    6  0.9491186E-008  0.2888338E+04  0.7818608E-02  0.8276356E-01
         -1   -1    0    0    0  501 -0.00000000000E+00  0.00000000000E+00  0.10281491356E+04  0.10281491356E+04  0.00000000000E+00 0.  1.
          2   -1    0    0  501    0  0.00000000000E+00 -0.00000000000E+00 -0.20285232724E+04  0.20285232724E+04  0.00000000000E+00 0. -1.
         24    2    1    2    0    0 -0.61588047008E+03 -0.77230277134E+03  0.44720375999E+03  0.10871554843E+04  0.78457122496E+02 0.  0.
        254    2    1    2    0    0  0.61588047008E+03  0.77230277134E+03 -0.14475778968E+04  0.19695169237E+04  0.89875181307E+03 0.  0.
         23    2    4    4    0    0 -0.10608306157E+03 -0.10145490966E+03 -0.34508619521E+03  0.38569893420E+03  0.90180214397E+02 0.  0.
         23    2    4    4    0    0  0.72196353165E+03  0.87375768100E+03 -0.11024917016E+04  0.15838179895E+04  0.91146287558E+02 0.  0.
          2    1    3    3  502    0 -0.24822673467E+02 -0.51696871340E+02  0.40924665029E+02  0.70452536023E+02  0.00000000000E+00 0. -1.
         -1    1    3    3    0  502 -0.59105779662E+03 -0.72060590000E+03  0.40627909496E+03  0.10167029483E+04  0.00000000000E+00 0.  1.
         11    1    5    5    0    0 -0.44639052307E+02 -0.10116341135E+03 -0.23177684166E+03  0.25680184017E+03  0.00000000000E+00 0. -1.
        -11    1    5    5    0    0 -0.61444009262E+02 -0.29149831372E+00 -0.11330935356E+03  0.12889709403E+03  0.00000000000E+00 0.  1.
          3    1    6    6  503    0  0.15276188480E+03  0.18923475932E+03 -0.29061974954E+03  0.37895359400E+03  0.00000000000E+00 0. -1.
         -3    1    6    6    0  503  0.56920164685E+03  0.68452292169E+03 -0.81187195204E+03  0.12048643955E+04  0.00000000000E+00 0.  1.
<mgrwt>
<rscale>  0 0.28883382E+04</rscale>
<asrwt>0</asrwt>
<pdfrwt beam="1">  1        2 0.31208050E+00 0.28883382E+04</pdfrwt>
<pdfrwt beam="2">  1       -1 0.15817679E+00 0.28883382E+04</pdfrwt>
<totfact> 0.19098047E+00</totfact>
</mgrwt>
</event>
<event>
12    6  0.9491186E-008  0.1143152E+04  0.7818608E-02  0.9164125E-01
         -1   -1    0    0    0  501 -0.00000000000E+00  0.00000000000E+00  0.24853405611E+03  0.24853405611E+03  0.00000000000E+00 0.  1.
          2   -1    0    0  501    0  0.00000000000E+00 -0.00000000000E+00 -0.13145041106E+04  0.13145041106E+04  0.00000000000E+00 0. -1.
         24    2    1    2    0    0  0.17325112760E+03  0.77019131067E+02 -0.11795938355E+03  0.23719262235E+03  0.79987650080E+02 0.  0.
        254    2    1    2    0    0 -0.17325112760E+03 -0.77019131067E+02 -0.94801067089E+03  0.13258455443E+04  0.90730054310E+03 0.  0.
         23    2    4    4    0    0 -0.14320616739E+02 -0.44254722142E+03 -0.24956067511E+03  0.51645342603E+03  0.91599603977E+02 0.  0.
         23    2    4    4    0    0 -0.15893051086E+03  0.36552809036E+03 -0.69844999578E+03  0.80939211829E+03  0.91725200533E+02 0.  0.
          4    1    3    3  502    0 -0.34516054693E+01  0.58020476651E+01  0.67053209170E+01  0.95151808193E+01  0.00000000000E+00 0. -1.
         -3    1    3    3    0  502  0.17670273307E+03  0.71217083402E+02 -0.12466470447E+03  0.22767744153E+03  0.00000000000E+00 0.  1.
         11    1    5    5    0    0 -0.15168444657E+01 -0.71603925419E+01  0.76639719368E+01  0.10597570681E+02  0.00000000000E+00 0.  1.
        -11    1    5    5    0    0 -0.12803772273E+02 -0.43538682888E+03 -0.25722464705E+03  0.50585585535E+03  0.00000000000E+00 0. -1.
          2    1    6    6  503    0 -0.14972522971E+03  0.30454490588E+03 -0.52334038679E+03  0.62373905165E+03  0.00000000000E+00 0. -1.
         -2    1    6    6    0  503 -0.92052811526E+01  0.60983184481E+02 -0.17510960899E+03  0.18565306663E+03  0.00000000000E+00 0.  1.
<mgrwt>
<rscale>  0 0.11431519E+04</rscale>
<asrwt>0</asrwt>
<pdfrwt beam="1">  1        2 0.20223140E+00 0.11431519E+04</pdfrwt>
<pdfrwt beam="2">  1       -1 0.38236009E-01 0.11431519E+04</pdfrwt>
<totfact> 0.12092782E+02</totfact>
</mgrwt>
</event>
<event>
12    6  0.9491186E-008  0.2300573E+04  0.7818608E-02  0.8477695E-01
         -1   -1    0    0    0  501 -0.00000000000E+00  0.00000000000E+00  0.91129504189E+03  0.91129504189E+03  0.00000000000E+00 0.  1.
          2   -1    0    0  501    0  0.00000000000E+00 -0.00000000000E+00 -0.14519544146E+04  0.14519544146E+04  0.00000000000E+00 0. -1.
         24    2    1    2    0    0 -0.28378121129E+03  0.68371944776E+03 -0.87483739126E+03  0.11488971253E+04  0.81363899863E+02 0.  0.
        254    2    1    2    0    0  0.28378121129E+03 -0.68371944776E+03  0.33417801855E+03  0.12143523312E+04  0.90275831600E+03 0.  0.
         23    2    4    4    0    0  0.35905451950E+03 -0.32316221680E+03  0.58099709769E+03  0.76110518969E+03  0.91485058416E+02 0.  0.
         23    2    4    4    0    0 -0.75273308205E+02 -0.36055723096E+03 -0.24681907914E+03  0.45324714152E+03  0.94051718448E+02 0.  0.
          2    1    3    3  502    0 -0.17221772648E+03  0.41473631273E+03 -0.46825507605E+03  0.64878961972E+03  0.00000000000E+00 0. -1.
         -1    1    3    3    0  502 -0.11156348482E+03  0.26898313503E+03 -0.40658231522E+03  0.50010750556E+03  0.00000000000E+00 0.  1.
         11    1    5    5    0    0  0.31820984518E+03 -0.24084979592E+03  0.48741058262E+03  0.62994857394E+03  0.00000000000E+00 0. -1.
        -11    1    5    5    0    0  0.40844674320E+02 -0.82312420887E+02  0.93586515068E+02  0.13115661575E+03  0.00000000000E+00 0.  1.
          3    1    6    6  503    0 -0.67198738522E+02 -0.17827114414E+03 -0.82181289710E+02  0.20748502517E+03  0.00000000000E+00 0. -1.
         -3    1    6    6    0  503 -0.80745696830E+01 -0.18228608681E+03 -0.16463778943E+03  0.24576211634E+03  0.00000000000E+00 0.  1.
<mgrwt>
<rscale>  0 0.23005728E+04</rscale>
<asrwt>0</asrwt>
<pdfrwt beam="1">  1        2 0.22337760E+00 0.23005728E+04</pdfrwt>
<pdfrwt beam="2">  1       -1 0.14019924E+00 0.23005728E+04</pdfrwt>
<totfact> 0.58296240E+00</totfact>
</mgrwt>
</event>
<event>
12    6  0.9491186E-008  0.1469755E+04  0.7818608E-02  0.8904818E-01
         -1   -1    0    0    0  501 -0.00000000000E+00  0.00000000000E+00  0.29327822661E+03  0.29327822661E+03  0.00000000000E+00 0.  1.
          2   -1    0    0  501    0  0.00000000000E+00 -0.00000000000E+00 -0.18414093082E+04  0.18414093082E+04  0.00000000000E+00 0. -1.
         24    2    1    2    0    0 -0.26157416123E+02  0.43162639903E+03 -0.28214812809E+03  0.52242102402E+03  0.79565076476E+02 0.  0.
        254    2    1    2    0    0  0.26157416123E+02 -0.43162639903E+03 -0.12659829535E+04  0.16122665108E+04  0.89983604311E+03 0.  0.
         23    2    4    4    0    0 -0.17530985539E+03  0.91517157537E+02 -0.92375346103E+03  0.94932049466E+03  0.93701703810E+02 0.  0.
         23    2    4    4    0    0  0.20146727151E+03 -0.52314355656E+03 -0.34222949244E+03  0.66294601610E+03  0.90045280269E+02 0.  0.
          2    1    3    3  502    0 -0.41254373926E+02  0.21370947433E+03 -0.17410460149E+03  0.27872221843E+03  0.00000000000E+00 0. -1.
         -1    1    3    3    0  502  0.15096957803E+02  0.21791692470E+03 -0.10804352660E+03  0.24369880559E+03  0.00000000000E+00 0.  1.
         11    1    5    5    0    0 -0.17859738877E+03  0.93064704568E+02 -0.78185655048E+03  0.80737706931E+03  0.00000000000E+00 0. -1.
        -11    1    5    5    0    0  0.32875333846E+01 -0.15475470316E+01 -0.14189691055E+03  0.14194342535E+03  0.00000000000E+00 0.  1.
          1    1    6    6  503    0  0.15606696054E+03 -0.29759827272E+03 -0.17796435846E+03  0.38025378497E+03  0.00000000000E+00 0. -1.
         -1    1    6    6    0  503  0.45400310970E+02 -0.22554528384E+03 -0.16426513398E+03  0.28269223113E+03  0.00000000000E+00 0.  1.
<mgrwt>
<rscale>  0 0.14697554E+04</rscale>
<asrwt>0</asrwt>
<pdfrwt beam="1">  1        2 0.28329373E+00 0.14697554E+04</pdfrwt>
<pdfrwt beam="2">  1       -1 0.45119728E-01 0.14697554E+04</pdfrwt>
<totfact> 0.43999240E+01</totfact>
</mgrwt>
</event>
<event>
12    6  0.9491186E-008  0.1324861E+04  0.7818608E-02  0.9010079E-01
          4   -1    0    0  501    0  0.00000000000E+00  0.00000000000E+00  0.34419081786E+03  0.34419081786E+03  0.00000000000E+00 0. -1.
         -3   -1    0    0    0  501 -0.00000000000E+00 -0.00000000000E+00 -0.12749151500E+04  0.12749151500E+04  0.00000000000E+00 0.  1.
         24    2    1    2    0    0  0.10965226162E+03 -0.32170457450E+03 -0.24317769143E+03  0.42610878820E+03  0.83161638031E+02 0.  0.
        254    2    1    2    0    0 -0.10965226162E+03  0.32170457450E+03 -0.68754664073E+03  0.11929971797E+04  0.91378577129E+03 0.  0.
         23    2    4    4    0    0 -0.19598485792E+03 -0.18180729466E+03 -0.60462245388E+03  0.66754404611E+03  0.92643320524E+02 0.  0.
         23    2    4    4    0    0  0.86332596297E+02  0.50351186916E+03 -0.82924186844E+02  0.52545313356E+03  0.90813298822E+02 0.  0.
          4    1    3    3  502    0 -0.58192425086E+01 -0.28216821894E+02 -0.16409578945E+01  0.28857327734E+02  0.00000000000E+00 0. -1.
         -3    1    3    3    0  502  0.11547150413E+03 -0.29348775261E+03 -0.24153673353E+03  0.39725146047E+03  0.00000000000E+00 0.  1.
         11    1    5    5    0    0  0.48324242930E+01 -0.28541460607E+02 -0.44472913605E+02  0.53064181353E+02  0.00000000000E+00 0.  1.
        -11    1    5    5    0    0 -0.20081728221E+03 -0.15326583405E+03 -0.56014954028E+03  0.61447986476E+03  0.00000000000E+00 0. -1.
          4    1    6    6  503    0  0.46642864653E+02  0.33426901726E+03 -0.12040683702E+02  0.33772223910E+03  0.00000000000E+00 0. -1.
         -4    1    6    6    0  503  0.39689731644E+02  0.16924285190E+03 -0.70883503142E+02  0.18773089446E+03  0.00000000000E+00 0.  1.
<mgrwt>
<rscale>  0 0.13248609E+04</rscale>
<asrwt>0</asrwt>
<pdfrwt beam="1">  1        4 0.52952433E-01 0.13248609E+04</pdfrwt>
<pdfrwt beam="2">  1       -3 0.19614079E+00 0.13248609E+04</pdfrwt>
<totfact> 0.11884103E+00</totfact>
</mgrwt>
</event>
<event>
12    6  0.9491186E-008  0.1576997E+04  0.7818608E-02  0.8834805E-01
         -1   -1    0    0    0  501 -0.00000000000E+00  0.00000000000E+00  0.14142644256E+04  0.14142644256E+04  0.00000000000E+00 0.  1.
          2   -1    0    0  501    0  0.00000000000E+00 -0.00000000000E+00 -0.43961369847E+03  0.43961369847E+03  0.00000000000E+00 0. -1.
         24    2    1    2    0    0  0.79914658487E+02  0.14914544645E+03  0.90832338632E+03  0.92756171908E+03  0.81784177752E+02 0.  0.
        254    2    1    2    0    0 -0.79914658487E+02 -0.14914544645E+03  0.66327340850E+02  0.92631640503E+03  0.90831274858E+03 0.  0.
         23    2    4    4    0    0 -0.10975103574E+02  0.32849945032E+03  0.22626016959E+03  0.40978280683E+03  0.93252038422E+02 0.  0.
         23    2    4    4    0    0 -0.68939554913E+02 -0.47764489677E+03 -0.15993282874E+03  0.51653359819E+03  0.91275071662E+02 0.  0.
          4    1    3    3  502    0 -0.11164387845E+02  0.38344517833E+02  0.12530944161E+03  0.13151958698E+03  0.00000000000E+00 0. -1.
         -3    1    3    3    0  502  0.91079046332E+02  0.11080092861E+03  0.78301394471E+03  0.79604213210E+03  0.00000000000E+00 0.  1.
         11    1    5    5    0    0 -0.13440735844E+02  0.92386354294E+01 -0.31851967393E+01  0.16617798979E+02  0.00000000000E+00 0. -1.
        -11    1    5    5    0    0  0.24656322699E+01  0.31926081490E+03  0.22944536633E+03  0.39316500786E+03  0.00000000000E+00 0.  1.
          4    1    6    6  503    0  0.11646552105E+02 -0.20834245721E+03 -0.87349458613E+02  0.22621262028E+03  0.00000000000E+00 0. -1.
         -4    1    6    6    0  503 -0.80586107018E+02 -0.26930243956E+03 -0.72583370132E+02  0.29032097791E+03  0.00000000000E+00 0.  1.
<mgrwt>
<rscale>  0 0.15769972E+04</rscale>
<asrwt>0</asrwt>
<pdfrwt beam="1">  1        2 0.67632877E-01 0.15769972E+04</pdfrwt>
<pdfrwt beam="2">  1       -1 0.21757914E+00 0.15769972E+04</pdfrwt>
<totfact> 0.89642470E+00</totfact>
</mgrwt>
</event>
<event>
12    6  0.9491186E-008  0.1582190E+04  0.7818608E-02  0.8831565E-01
          2   -1    0    0  501    0  0.00000000000E+00  0.00000000000E+00  0.10592532856E+04  0.10592532856E+04  0.00000000000E+00 0. -1.
         -1   -1    0    0    0  501 -0.00000000000E+00 -0.00000000000E+00 -0.59082323272E+03  0.59082323272E+03  0.00000000000E+00 0.  1.
         24    2    1    2    0    0  0.12068642770E+03  0.12875667579E+03 -0.41004604982E+03  0.45395525909E+03  0.82426445291E+02 0.  0.
        254    2    1    2    0    0 -0.12068642770E+03 -0.12875667579E+03  0.87847610270E+03  0.11961212592E+04  0.79236500954E+03 0.  0.
         23    2    4    4    0    0  0.21297840200E+03  0.11935895452E+03  0.67720604826E+03  0.72558238502E+03  0.90859264236E+02 0.  0.
         23    2    4    4    0    0 -0.33366482971E+03 -0.24811563031E+03  0.20127005443E+03  0.47053887420E+03  0.89462912609E+02 0.  0.
          4    1    3    3  502    0  0.57001058904E+02  0.91889035816E+02 -0.31935540936E+03  0.33716552775E+03  0.00000000000E+00 0. -1.
         -3    1    3    3    0  502  0.63685368801E+02  0.36867639973E+02 -0.90690640466E+02  0.11678973133E+03  0.00000000000E+00 0.  1.
         11    1    5    5    0    0  0.29968166369E+02  0.10040624187E+02  0.27831575257E+02  0.42112963691E+02  0.00000000000E+00 0. -1.
        -11    1    5    5    0    0  0.18301023563E+03  0.10931833034E+03  0.64937447301E+03  0.68346942132E+03  0.00000000000E+00 0.  1.
          1    1    6    6  503    0 -0.14066623500E+03 -0.51509177414E+02  0.72808734168E+02  0.16655718777E+03  0.00000000000E+00 0. -1.
         -1    1    6    6    0  503 -0.19299859471E+03 -0.19660645290E+03  0.12846132027E+03  0.30398168643E+03  0.00000000000E+00 0.  1.
<mgrwt>
<rscale>  0 0.15821902E+04</rscale>
<asrwt>0</asrwt>
<pdfrwt beam="1">  1        2 0.16296204E+00 0.15821902E+04</pdfrwt>
<pdfrwt beam="2">  1       -1 0.90895882E-01 0.15821902E+04</pdfrwt>
<totfact> 0.29903358E+01</totfact>
</mgrwt>
</event>
<event>
12    6  0.9491186E-008  0.1306455E+04  0.7818608E-02  0.9024462E-01
          2   -1    0    0  501    0  0.00000000000E+00  0.00000000000E+00  0.11052151881E+04  0.11052151881E+04  0.00000000000E+00 0. -1.
         -1   -1    0    0    0  501 -0.00000000000E+00 -0.00000000000E+00 -0.38608436097E+03  0.38608436097E+03  0.00000000000E+00 0.  1.
         24    2    1    2    0    0 -0.32733783341E+02 -0.10572406564E+03  0.55655089122E+03  0.57305437302E+03  0.79958372227E+02 0.  0.
        254    2    1    2    0    0  0.32733783341E+02  0.10572406564E+03  0.16257993596E+03  0.91824517609E+03  0.89693527593E+03 0.  0.
         23    2    4    4    0    0 -0.34623825289E+03 -0.18118852321E+03 -0.11083969943E+02  0.40323203776E+03  0.98807961092E+02 0.  0.
         23    2    4    4    0    0  0.37897203623E+03  0.28691258886E+03  0.17366390590E+03  0.51501313834E+03  0.95607230686E+02 0.  0.
          2    1    3    3  502    0 -0.92749409859E+01 -0.52625334115E+02  0.43591768513E+03  0.43918069007E+03  0.00000000000E+00 0. -1.
         -1    1    3    3    0  502 -0.23458842356E+02 -0.53098731529E+02  0.12063320609E+03  0.13387368295E+03  0.00000000000E+00 0.  1.
         11    1    5    5    0    0 -0.34329801438E+03 -0.17077917958E+03 -0.26561362500E+02  0.38434952951E+03  0.00000000000E+00 0. -1.
        -11    1    5    5    0    0 -0.29402385094E+01 -0.10409343632E+02  0.15477392557E+02  0.18882508247E+02  0.00000000000E+00 0.  1.
          1    1    6    6  503    0  0.13832305567E+03  0.12305127779E+03  0.21133666047E+02  0.18633710456E+03  0.00000000000E+00 0. -1.
         -1    1    6    6    0  503  0.24064898056E+03  0.16386131106E+03  0.15253023986E+03  0.32867603378E+03  0.00000000000E+00 0.  1.
<mgrwt>
<rscale>  0 0.13064552E+04</rscale>
<asrwt>0</asrwt>
<pdfrwt beam="1">  1        2 0.17003310E+00 0.13064552E+04</pdfrwt>
<pdfrwt beam="2">  1       -1 0.59397595E-01 0.13064552E+04</pdfrwt>
<totfact> 0.69426013E+01</totfact>
</mgrwt>
</event>
<event>
12    6  0.9491186E-008  0.2336325E+04  0.7818608E-02  0.8463735E-01
          2   -1    0    0  501    0  0.00000000000E+00  0.00000000000E+00  0.16270799144E+04  0.16270799144E+04  0.00000000000E+00 0. -1.
         -1   -1    0    0    0  501 -0.00000000000E+00 -0.00000000000E+00 -0.83868243138E+03  0.83868243138E+03  0.00000000000E+00 0.  1.
         24    2    1    2    0    0  0.15615415060E+03  0.87113937377E+03 -0.14159630366E+03  0.90121908226E+03  0.94225228752E+02 0.  0.
        254    2    1    2    0    0 -0.15615415060E+03 -0.87113937377E+03  0.92999378663E+03  0.15645432635E+04  0.89422550447E+03 0.  0.
         23    2    4    4    0    0  0.29058419145E+03 -0.66637290781E+03  0.70110960260E+03  0.10147741521E+04  0.98589453306E+02 0.  0.
         23    2    4    4    0    0 -0.44673834205E+03 -0.20476646596E+03  0.22888418404E+03  0.54976911140E+03  0.91398327694E+02 0.  0.
          2    1    3    3  502    0  0.36294973602E+02  0.22578353938E+03 -0.78591963595E+02  0.24181031513E+03  0.00000000000E+00 0. -1.
         -1    1    3    3    0  502  0.11985917700E+03  0.64535583439E+03 -0.63004340061E+02  0.65940876712E+03  0.00000000000E+00 0.  1.
         11    1    5    5    0    0  0.18157017989E+03 -0.36963888576E+03  0.45839692806E+03  0.61622104780E+03  0.00000000000E+00 0. -1.
        -11    1    5    5    0    0  0.10901401155E+03 -0.29673402205E+03  0.24271267454E+03  0.39855310429E+03  0.00000000000E+00 0.  1.
          2    1    6    6  503    0 -0.18998126737E+03 -0.48018187562E+02  0.12037023917E+03  0.22997309139E+03  0.00000000000E+00 0.  1.
         -2    1    6    6    0  503 -0.25675707468E+03 -0.15674827840E+03  0.10851394487E+03  0.31979602001E+03  0.00000000000E+00 0. -1.
<mgrwt>
<rscale>  0 0.23363248E+04</rscale>
<asrwt>0</asrwt>
<pdfrwt beam="1">  1        2 0.25031999E+00 0.23363248E+04</pdfrwt>
<pdfrwt beam="2">  1       -1 0.12902807E+00 0.23363248E+04</pdfrwt>
<totfact> 0.57300451E+00</totfact>
</mgrwt>
</event>
<event>
12    6  0.1256701E-007  0.2452922E+04  0.7818608E-02  0.8419952E-01
         -1   -1    0    0    0  501 -0.00000000000E+00  0.00000000000E+00  0.59399032617E+03  0.59399032617E+03  0.00000000000E+00 0.  1.
          2   -1    0    0  501    0  0.00000000000E+00 -0.00000000000E+00 -0.25323764491E+04  0.25323764491E+04  0.00000000000E+00 0. -1.
         24    2    1    2    0    0 -0.55309867710E+03 -0.19763530256E+02  0.31151546920E+03  0.64056061290E+03  0.83470159427E+02 0.  0.
        254    2    1    2    0    0  0.55309867710E+03  0.19763530256E+02 -0.22499015921E+04  0.24858061624E+04  0.90048118184E+03 0.  0.
         23    2    4    4    0    0  0.67233088604E+03 -0.57352472701E+02 -0.91607209448E+03  0.11412244212E+04  0.88808619492E+02 0.  0.
         23    2    4    4    0    0 -0.11923220894E+03  0.77116002958E+02 -0.13338294977E+04  0.13445817411E+04  0.92928640417E+02 0.  0.
          2    1    3    3  502    0 -0.35026285280E+02 -0.10908355394E+02  0.44456805766E+02  0.57638879733E+02  0.00000000000E+00 0. -1.
         -1    1    3    3    0  502 -0.51807239182E+03 -0.88551748629E+01  0.26705866343E+03  0.58292173317E+03  0.00000000000E+00 0.  1.
         11    1    5    5    0    0  0.25317216838E+03 -0.43384407511E+02 -0.41181217923E+03  0.48535309273E+03  0.00000000000E+00 0. -1.
        -11    1    5    5    0    0  0.41915871766E+03 -0.13968065190E+02 -0.50425991526E+03  0.65587132852E+03  0.00000000000E+00 0.  1.
          1    1    6    6  503    0 -0.74498329174E+02  0.19629000744E+02 -0.36629339510E+03  0.37430756072E+03  0.00000000000E+00 0. -1.
         -1    1    6    6    0  503 -0.44733879768E+02  0.57487002214E+02 -0.96753610255E+03  0.97027418041E+03  0.00000000000E+00 0.  1.
<mgrwt>
<rscale>  0 0.24529224E+04</rscale>
<asrwt>0</asrwt>
<pdfrwt beam="1">  1        2 0.38959638E+00 0.24529224E+04</pdfrwt>
<pdfrwt beam="2">  1       -1 0.91383127E-01 0.24529224E+04</pdfrwt>
<totfact> 0.39639374E+00</totfact>
</mgrwt>
</event>
<event>
12    6  0.9491186E-008  0.2763756E+04  0.7818608E-02  0.8314610E-01
          2   -1    0    0  501    0  0.00000000000E+00  0.00000000000E+00  0.22871696292E+04  0.22871696292E+04  0.00000000000E+00 0. -1.
         -1   -1    0    0    0  501 -0.00000000000E+00 -0.00000000000E+00 -0.83491251390E+03  0.83491251390E+03  0.00000000000E+00 0.  1.
         24    2    1    2    0    0 -0.67903132892E+03  0.35765659783E+03  0.17412882357E+04  0.19045732289E+04  0.79452356066E+02 0.  0.
        254    2    1    2    0    0  0.67903132892E+03 -0.35765659783E+03 -0.28903112045E+03  0.12175089141E+04  0.89988175879E+03 0.  0.
         23    2    4    4    0    0  0.62657610638E+03  0.11609660752E+03  0.16403281027E+02  0.64397661082E+03  0.91437236839E+02 0.  0.
         23    2    4    4    0    0  0.52455222535E+02 -0.47375320534E+03 -0.30543440147E+03  0.57353230333E+03  0.91953680797E+02 0.  0.
          4    1    3    3  502    0 -0.61835253167E+03  0.32255382012E+03  0.15181477540E+04  0.16706805270E+04  0.00000000000E+00 0. -1.
         -1    1    3    3    0  502 -0.60678797245E+02  0.35102777704E+02  0.22314048170E+03  0.23389270192E+03  0.00000000000E+00 0.  1.
         11    1    5    5    0    0  0.57404051164E+03  0.79703353419E+02  0.20754863098E+02  0.57991887182E+03  0.00000000000E+00 0. -1.
        -11    1    5    5    0    0  0.52535594747E+02  0.36393254096E+02 -0.43515820718E+01  0.64057738999E+02  0.00000000000E+00 0.  1.
          2    1    6    6  503    0 -0.18594313401E+02 -0.77170585832E+02 -0.75961692867E+02  0.10986913394E+03  0.00000000000E+00 0. -1.
         -2    1    6    6    0  503  0.71049535936E+02 -0.39658261951E+03 -0.22947270861E+03  0.46366316939E+03  0.00000000000E+00 0.  1.
<mgrwt>
<rscale>  0 0.27637558E+04</rscale>
<asrwt>0</asrwt>
<pdfrwt beam="1">  1        2 0.35187225E+00 0.27637558E+04</pdfrwt>
<pdfrwt beam="2">  1       -1 0.12844808E+00 0.27637558E+04</pdfrwt>
<totfact> 0.23914336E+00</totfact>
</mgrwt>
</event>
<event>
12    6  0.9491186E-008  0.1212236E+04  0.7818608E-02  0.9102213E-01
         -1   -1    0    0    0  501 -0.00000000000E+00  0.00000000000E+00  0.21400936033E+03  0.21400936033E+03  0.00000000000E+00 0.  1.
          2   -1    0    0  501    0  0.00000000000E+00 -0.00000000000E+00 -0.17166487396E+04  0.17166487396E+04  0.00000000000E+00 0. -1.
         24    2    1    2    0    0  0.61969941046E+02 -0.19836332768E+03 -0.59749788287E+03  0.63772508131E+03  0.80630490135E+02 0.  0.
        254    2    1    2    0    0 -0.61969941046E+02  0.19836332768E+03 -0.90514149644E+03  0.12929330186E+04  0.89955899127E+03 0.  0.
         23    2    4    4    0    0 -0.16016049510E+03 -0.29412028154E+03 -0.61374558286E+03  0.70524042323E+03  0.92316249251E+02 0.  0.
         23    2    4    4    0    0  0.98190554056E+02  0.49248360922E+03 -0.29139591358E+03  0.58769259541E+03  0.91046790160E+02 0.  0.
          2    1    3    3  502    0  0.66664084739E+02 -0.17723524042E+03 -0.57925162325E+03  0.60941683082E+03  0.00000000000E+00 0. -1.
         -1    1    3    3    0  502 -0.46941436934E+01 -0.21128087253E+02 -0.18246259614E+02  0.28308250491E+02  0.00000000000E+00 0.  1.
         11    1    5    5    0    0  0.11673913104E+02 -0.29803273273E+02 -0.51373496461E+02  0.60528930963E+02  0.00000000000E+00 0.  1.
        -11    1    5    5    0    0 -0.17183440821E+03 -0.26431700827E+03 -0.56237208640E+03  0.64471149227E+03  0.00000000000E+00 0. -1.
          3    1    6    6  503    0  0.10825733291E+03  0.46869847081E+03 -0.29028871578E+03  0.56184112094E+03  0.00000000000E+00 0. -1.
         -3    1    6    6    0  503 -0.10066778849E+02  0.23785138407E+02 -0.11071977952E+01  0.25851474472E+02  0.00000000000E+00 0.  1.
<mgrwt>
<rscale>  0 0.12122358E+04</rscale>
<asrwt>0</asrwt>
<pdfrwt beam="1">  1        2 0.26409982E+00 0.12122358E+04</pdfrwt>
<pdfrwt beam="2">  1       -1 0.32924515E-01 0.12122358E+04</pdfrwt>
<totfact> 0.93331781E+01</totfact>
</mgrwt>
</event>
<event>
12    6  0.9491186E-008  0.1546150E+04  0.7818608E-02  0.8854331E-01
          2   -1    0    0  501    0  0.00000000000E+00  0.00000000000E+00  0.71274360973E+03  0.71274360973E+03  0.00000000000E+00 0. -1.
         -1   -1    0    0    0  501 -0.00000000000E+00 -0.00000000000E+00 -0.83851308767E+03  0.83851308767E+03  0.00000000000E+00 0.  1.
         24    2    1    2    0    0  0.27161207048E+03  0.43101176323E+03 -0.80377850453E+02  0.52188760962E+03  0.79761026548E+02 0.  0.
        254    2    1    2    0    0 -0.27161207048E+03 -0.43101176323E+03 -0.45391627484E+02  0.10293690878E+04  0.89330625329E+03 0.  0.
         23    2    4    4    0    0  0.27440020205E+03 -0.32577010321E+03 -0.14471602313E+03  0.45738767694E+03  0.82699024411E+02 0.  0.
         23    2    4    4    0    0 -0.54601227253E+03 -0.10524166002E+03  0.99324395649E+02  0.57198141084E+03  0.89956600737E+02 0.  0.
          4    1    3    3  502    0  0.75213396273E+02  0.97916740730E+02 -0.52599832338E+02  0.13420687559E+03  0.00000000000E+00 0. -1.
         -3    1    3    3    0  502  0.19639867421E+03  0.33309502250E+03 -0.27778018115E+02  0.38768073403E+03  0.00000000000E+00 0.  1.
         11    1    5    5    0    0  0.27508281417E+03 -0.30614911978E+03 -0.12643637147E+03  0.43056241618E+03  0.00000000000E+00 0. -1.
        -11    1    5    5    0    0 -0.68261212561E+00 -0.19620983427E+02 -0.18279651665E+02  0.26825260762E+02  0.00000000000E+00 0.  1.
          3    1    6    6  503    0 -0.26878787429E+03 -0.24197321402E+02  0.11594938872E+02  0.27012381297E+03  0.00000000000E+00 0. -1.
         -3    1    6    6    0  503 -0.27722439824E+03 -0.81044338623E+02  0.87729456777E+02  0.30185759787E+03  0.00000000000E+00 0.  1.
<mgrwt>
<rscale>  0 0.15461499E+04</rscale>
<asrwt>0</asrwt>
<pdfrwt beam="1">  1        2 0.10965286E+00 0.15461499E+04</pdfrwt>
<pdfrwt beam="2">  1       -1 0.12900201E+00 0.15461499E+04</pdfrwt>
<totfact> 0.22775427E+01</totfact>
</mgrwt>
</event>
<event>
12    6  0.9491186E-008  0.2519558E+04  0.7818608E-02  0.8396051E-01
         -1   -1    0    0    0  501 -0.00000000000E+00  0.00000000000E+00  0.78955217111E+03  0.78955217111E+03  0.00000000000E+00 0.  1.
          2   -1    0    0  501    0  0.00000000000E+00 -0.00000000000E+00 -0.20100541508E+04  0.20100541508E+04  0.00000000000E+00 0. -1.
         24    2    1    2    0    0 -0.90393118935E+03 -0.15904353643E+03 -0.11963214017E+04  0.15099569751E+04  0.79992055606E+02 0.  0.
        254    2    1    2    0    0  0.90393118935E+03  0.15904353643E+03 -0.24180577938E+02  0.12896493468E+04  0.90566235193E+03 0.  0.
         23    2    4    4    0    0  0.23939231101E+03  0.35411184227E+03 -0.30863233239E+03  0.53535886412E+03  0.93012479742E+02 0.  0.
         23    2    4    4    0    0  0.66453887834E+03 -0.19506830584E+03  0.28445175446E+03  0.75429048264E+03  0.91530141599E+02 0.  0.
          4    1    3    3  502    0 -0.83938652573E+03 -0.13245850359E+03 -0.10791018975E+04  0.13735268108E+04  0.00000000000E+00 0. -1.
         -3    1    3    3    0  502 -0.64544663623E+02 -0.26585032839E+02 -0.11721950425E+03  0.13643016437E+03  0.00000000000E+00 0.  1.
         11    1    5    5    0    0  0.13759365633E+03  0.26561198278E+03 -0.24275377628E+03  0.38524165865E+03  0.00000000000E+00 0. -1.
        -11    1    5    5    0    0  0.10179865467E+03  0.88499859485E+02 -0.65878556118E+02  0.15011720547E+03  0.00000000000E+00 0.  1.
          4    1    6    6  503    0  0.57243856228E+03 -0.15503622817E+03  0.27408183128E+03  0.65333222013E+03  0.00000000000E+00 0. -1.
         -4    1    6    6    0  503  0.92100316064E+02 -0.40032077675E+02  0.10369923173E+02  0.10095826251E+03  0.00000000000E+00 0.  1.
<mgrwt>
<rscale>  0 0.25195576E+04</rscale>
<asrwt>0</asrwt>
<pdfrwt beam="1">  1        2 0.30923910E+00 0.25195576E+04</pdfrwt>
<pdfrwt beam="2">  1       -1 0.12146957E+00 0.25195576E+04</pdfrwt>
<totfact> 0.40148616E+00</totfact>
</mgrwt>
</event>
<event>
12    6  0.9491186E-008  0.1312790E+04  0.7818608E-02  0.9019484E-01
          2   -1    0    0  501    0  0.00000000000E+00  0.00000000000E+00  0.25231545667E+04  0.25231545667E+04  0.00000000000E+00 0. -1.
         -1   -1    0    0    0  501 -0.00000000000E+00 -0.00000000000E+00 -0.17076007832E+03  0.17076007832E+03  0.00000000000E+00 0.  1.
         24    2    1    2    0    0  0.69621795139E+02 -0.28889493362E+03  0.27699889487E+03  0.41397147874E+03  0.79602263929E+02 0.  0.
        254    2    1    2    0    0 -0.69621795139E+02  0.28889493362E+03  0.20753955935E+04  0.22799431663E+04  0.89586075639E+03 0.  0.
         23    2    4    4    0    0 -0.43797113814E+03  0.55216983375E+02  0.68531265537E+03  0.82028155115E+03  0.91327730971E+02 0.  0.
         23    2    4    4    0    0  0.36834934300E+03  0.23367795024E+03  0.13900829381E+04  0.14596616151E+04  0.89413829175E+02 0.  0.
          2    1    3    3  502    0  0.67117756637E+02 -0.14212515114E+03  0.11123793787E+03  0.19255708417E+03  0.00000000000E+00 0. -1.
         -1    1    3    3    0  502  0.25040385017E+01 -0.14676978247E+03  0.16576095699E+03  0.22141439456E+03  0.00000000000E+00 0.  1.
         11    1    5    5    0    0 -0.11983271378E+03  0.56809531828E+02  0.20575122614E+03  0.24478719177E+03  0.00000000000E+00 0. -1.
        -11    1    5    5    0    0 -0.31813842436E+03 -0.15925484534E+01  0.47956142923E+03  0.57549435937E+03  0.00000000000E+00 0.  1.
          3    1    6    6  503    0  0.10756238004E+03  0.22956910788E+02  0.33709139127E+03  0.35458044422E+03  0.00000000000E+00 0. -1.
         -3    1    6    6    0  503  0.26078696296E+03  0.21072103945E+03  0.10529915469E+04  0.11050811709E+04  0.00000000000E+00 0.  1.
<mgrwt>
<rscale>  0 0.13127895E+04</rscale>
<asrwt>0</asrwt>
<pdfrwt beam="1">  1        2 0.38817760E+00 0.13127895E+04</pdfrwt>
<pdfrwt beam="2">  1       -1 0.26270783E-01 0.13127895E+04</pdfrwt>
<totfact> 0.48646830E+01</totfact>
</mgrwt>
</event>
<event>
12    6  0.9491186E-008  0.1167301E+04  0.7818608E-02  0.9141969E-01
         -1   -1    0    0    0  501 -0.00000000000E+00  0.00000000000E+00  0.34164254848E+03  0.34164254848E+03  0.00000000000E+00 0.  1.
          2   -1    0    0  501    0  0.00000000000E+00 -0.00000000000E+00 -0.99708942621E+03  0.99708942621E+03  0.00000000000E+00 0. -1.
         24    2    1    2    0    0 -0.16024972898E+03 -0.93729633774E+02  0.16679557821E+02  0.20253160874E+03  0.79218842478E+02 0.  0.
        254    2    1    2    0    0  0.16024972898E+03  0.93729633774E+02 -0.67212643555E+03  0.11362003660E+04  0.89706861853E+03 0.  0.
         23    2    4    4    0    0  0.31403132504E+03 -0.20769452341E+03 -0.68341894992E+03  0.78567262043E+03  0.92018026587E+02 0.  0.
         23    2    4    4    0    0 -0.15378159606E+03  0.30142415719E+03  0.11292514368E+02  0.35052774553E+03  0.90757245891E+02 0.  0.
          4    1    3    3  502    0 -0.48190547870E+01 -0.24051048974E+01  0.21528511521E+02  0.22191994659E+02  0.00000000000E+00 0. -1.
         -3    1    3    3    0  502 -0.15543067419E+03 -0.91324528877E+02 -0.48489536999E+01  0.18033961408E+03  0.00000000000E+00 0.  1.
         11    1    5    5    0    0  0.30917582403E+03 -0.20404348876E+03 -0.68555234169E+03  0.77923388573E+03  0.00000000000E+00 0. -1.
        -11    1    5    5    0    0  0.48555010064E+01 -0.36510346475E+01  0.21333917716E+01  0.64387346949E+01  0.00000000000E+00 0.  1.
          3    1    6    6  503    0 -0.11086864893E+03  0.15935901945E+03  0.42850058807E+02  0.19880463258E+03  0.00000000000E+00 0. -1.
         -3    1    6    6    0  503 -0.42912947131E+02  0.14206513774E+03 -0.31557544438E+02  0.15172311295E+03  0.00000000000E+00 0.  1.
<mgrwt>
<rscale>  0 0.11673015E+04</rscale>
<asrwt>0</asrwt>
<pdfrwt beam="1">  1        2 0.15339837E+00 0.11673015E+04</pdfrwt>
<pdfrwt beam="2">  1       -1 0.52560393E-01 0.11673015E+04</pdfrwt>
<totfact> 0.10405108E+02</totfact>
</mgrwt>
</event>
<event>
12    6  0.9491186E-008  0.1534362E+04  0.7818608E-02  0.8861919E-01
         -1   -1    0    0    0  501 -0.00000000000E+00  0.00000000000E+00  0.51562357838E+03  0.51562357838E+03  0.00000000000E+00 0.  1.
          2   -1    0    0  501    0  0.00000000000E+00 -0.00000000000E+00 -0.11414662775E+04  0.11414662775E+04  0.00000000000E+00 0. -1.
         24    2    1    2    0    0 -0.27476059772E+03  0.32686093775E+03  0.77748785896E+02  0.44143838197E+03  0.80569924161E+02 0.  0.
        254    2    1    2    0    0  0.27476059772E+03 -0.32686093775E+03 -0.70359148505E+03  0.12156514739E+04  0.89467092810E+03 0.  0.
         23    2    4    4    0    0  0.23042247898E+03 -0.96417195508E+02 -0.87304801756E+03  0.91244875810E+03  0.89213792557E+02 0.  0.
         23    2    4    4    0    0  0.44338118740E+02 -0.23044374224E+03  0.16945653251E+03  0.30320271584E+03  0.90256209599E+02 0.  0.
          2    1    3    3  502    0 -0.25534110264E+03  0.28222308659E+03  0.46092013225E+02  0.38337112957E+03  0.00000000000E+00 0. -1.
         -1    1    3    3    0  502 -0.19419495078E+02  0.44637851164E+02  0.31656772672E+02  0.58067252403E+02  0.00000000000E+00 0.  1.
         11    1    5    5    0    0  0.23603650472E+03 -0.95825864363E+02 -0.86881643954E+03  0.90539374498E+03  0.00000000000E+00 0. -1.
        -11    1    5    5    0    0 -0.56140257413E+01 -0.59133114562E+00 -0.42315780271E+01  0.70550131217E+01  0.00000000000E+00 0.  1.
          2    1    6    6  503    0  0.52235771593E+01 -0.19315474642E+03  0.15373323289E+03  0.24692093616E+03  0.00000000000E+00 0. -1.
         -2    1    6    6    0  503  0.39114541581E+02 -0.37288995826E+02  0.15723299623E+02  0.56281779679E+02  0.00000000000E+00 0.  1.
<mgrwt>
<rscale>  0 0.15343623E+04</rscale>
<asrwt>0</asrwt>
<pdfrwt beam="1">  1        2 0.17561020E+00 0.15343623E+04</pdfrwt>
<pdfrwt beam="2">  1       -1 0.79326705E-01 0.15343623E+04</pdfrwt>
<totfact> 0.35870331E+01</totfact>
</mgrwt>
</event>
<event>
12    6  0.9491186E-008  0.2009497E+04  0.7818608E-02  0.8602193E-01
         -1   -1    0    0    0  501 -0.00000000000E+00  0.00000000000E+00  0.64375872738E+03  0.64375872738E+03  0.00000000000E+00 0.  1.
          2   -1    0    0  501    0  0.00000000000E+00 -0.00000000000E+00 -0.15681647923E+04  0.15681647923E+04  0.00000000000E+00 0. -1.
         24    2    1    2    0    0  0.62329585179E+03  0.17706206617E+03  0.14473756223E+03  0.66867318312E+03  0.79537222509E+02 0.  0.
        254    2    1    2    0    0 -0.62329585179E+03 -0.17706206617E+03 -0.10691436271E+04  0.15432503365E+04  0.90482308308E+03 0.  0.
         23    2    4    4    0    0  0.16461744585E+03 -0.25304898151E+03 -0.32093575533E+03  0.45013280844E+03  0.92125434379E+02 0.  0.
         23    2    4    4    0    0 -0.78791329764E+03  0.75986915340E+02 -0.74820787178E+03  0.10931175281E+04  0.92247140547E+02 0.  0.
          4    1    3    3  502    0  0.30805420744E+03  0.11839586439E+03  0.46332647222E+02  0.33325919286E+03  0.00000000000E+00 0. -1.
         -3    1    3    3    0  502  0.31524164435E+03  0.58666201785E+02  0.98404915005E+02  0.33541399026E+03  0.00000000000E+00 0.  1.
         11    1    5    5    0    0  0.14261613199E+03 -0.17249576834E+03 -0.18398454095E+03  0.28973170781E+03  0.00000000000E+00 0.  1.
        -11    1    5    5    0    0  0.22001313857E+02 -0.80553213176E+02 -0.13695121438E+03  0.16040110063E+03  0.00000000000E+00 0. -1.
          3    1    6    6  503    0 -0.59378064516E+02  0.24994272610E+02 -0.40152379078E+02  0.75912329398E+02  0.00000000000E+00 0. -1.
         -3    1    6    6    0  503 -0.72853523312E+03  0.50992642730E+02 -0.70805549270E+03  0.10172051987E+04  0.00000000000E+00 0.  1.
<mgrwt>
<rscale>  0 0.20094972E+04</rscale>
<asrwt>0</asrwt>
<pdfrwt beam="1">  1        2 0.24125612E+00 0.20094972E+04</pdfrwt>
<pdfrwt beam="2">  1       -1 0.99039806E-01 0.20094972E+04</pdfrwt>
<totfact> 0.11973998E+01</totfact>
</mgrwt>
</event>
<event>
12    6  0.9491186E-008  0.1221701E+04  0.7818608E-02  0.9094071E-01
         -1   -1    0    0    0  501 -0.00000000000E+00  0.00000000000E+00  0.23270089961E+03  0.23270089961E+03  0.00000000000E+00 0.  1.
          4   -1    0    0  501    0  0.00000000000E+00 -0.00000000000E+00 -0.16035111109E+04  0.16035111109E+04  0.00000000000E+00 0. -1.
         24    2    1    2    0    0 -0.11244524161E+03  0.21651308841E+03 -0.47787970818E+03  0.54452566715E+03  0.92829612116E+02 0.  0.
        254    2    1    2    0    0  0.11244524161E+03 -0.21651308841E+03 -0.89293050311E+03  0.12916863434E+04  0.90089226682E+03 0.  0.
         23    2    4    4    0    0  0.31087291195E+02 -0.42391689648E+03 -0.94686639912E+03  0.10419391526E+04  0.91702045183E+02 0.  0.
         23    2    4    4    0    0  0.81357950413E+02  0.20740380807E+03  0.53935896011E+02  0.24974719078E+03  0.99141932235E+02 0.  0.
          2    1    3    3  502    0 -0.50920401033E+02  0.14933726155E+03 -0.21772659946E+03  0.26888543478E+03  0.00000000000E+00 0. -1.
         -1    1    3    3    0  502 -0.61524840575E+02  0.67175826864E+02 -0.26015310872E+03  0.27564023237E+03  0.00000000000E+00 0.  1.
         11    1    5    5    0    0  0.35696773062E+02 -0.14692040685E+03 -0.25191649923E+03  0.29380569794E+03  0.00000000000E+00 0. -1.
        -11    1    5    5    0    0 -0.46094818669E+01 -0.27699648962E+03 -0.69494989989E+03  0.74813345463E+03  0.00000000000E+00 0.  1.
          2    1    6    6  503    0  0.57104747507E+02  0.19162006729E+03  0.14010651023E+02  0.20043827159E+03  0.00000000000E+00 0. -1.
         -2    1    6    6    0  503  0.24253202906E+02  0.15783740776E+02  0.39925244988E+02  0.49308919188E+02  0.00000000000E+00 0.  1.
<mgrwt>
<rscale>  0 0.12217012E+04</rscale>
<asrwt>0</asrwt>
<pdfrwt beam="1">  1        4 0.24669402E+00 0.12217012E+04</pdfrwt>
<pdfrwt beam="2">  1       -1 0.35800138E-01 0.12217012E+04</pdfrwt>
<totfact> 0.19767713E+00</totfact>
</mgrwt>
</event>
<event>
12    6  0.1026705E-007  0.1608977E+04  0.7818608E-02  0.8815052E-01
         -1   -1    0    0    0  501 -0.00000000000E+00  0.00000000000E+00  0.65303615911E+03  0.65303615911E+03  0.00000000000E+00 0.  1.
          2   -1    0    0  501    0  0.00000000000E+00 -0.00000000000E+00 -0.99106548077E+03  0.99106548077E+03  0.00000000000E+00 0. -1.
         24    2    1    2    0    0  0.17280476419E+03 -0.11546338000E+03 -0.63579455743E+03  0.67370185874E+03  0.80288209378E+02 0.  0.
        254    2    1    2    0    0 -0.17280476419E+03  0.11546338000E+03  0.29776523577E+03  0.97039978113E+03  0.89989906153E+03 0.  0.
         23    2    4    4    0    0  0.94544819636E+02  0.16971465298E+03 -0.26246307321E+03  0.34040139777E+03  0.96148117223E+02 0.  0.
         23    2    4    4    0    0 -0.26734958382E+03 -0.54251272988E+02  0.56022830898E+03  0.62999838336E+03  0.92861209691E+02 0.  0.
          4    1    3    3  502    0  0.13800047863E+03 -0.12548673171E+03 -0.53791304135E+03  0.56933425331E+03  0.00000000000E+00 0. -1.
         -3    1    3    3    0  502  0.34804285559E+02  0.10023351717E+02 -0.97881516080E+02  0.10436760543E+03  0.00000000000E+00 0.  1.
         11    1    5    5    0    0  0.90755562390E+02  0.16863476075E+03 -0.19672390437E+03  0.27454425725E+03  0.00000000000E+00 0. -1.
        -11    1    5    5    0    0  0.37892572462E+01  0.10798922391E+01 -0.65739168844E+02  0.65857140524E+02  0.00000000000E+00 0.  1.
          1    1    6    6  503    0 -0.20084525876E+03 -0.79028533528E+02  0.39377411456E+03  0.44904607823E+03  0.00000000000E+00 0. -1.
         -1    1    6    6    0  503 -0.66504325062E+02  0.24777260540E+02  0.16645419442E+03  0.18095230513E+03  0.00000000000E+00 0.  1.
<mgrwt>
<rscale>  0 0.16089768E+04</rscale>
<asrwt>0</asrwt>
<pdfrwt beam="1">  1        2 0.15247161E+00 0.16089768E+04</pdfrwt>
<pdfrwt beam="2">  1       -1 0.10046710E+00 0.16089768E+04</pdfrwt>
<totfact> 0.26322236E+01</totfact>
</mgrwt>
</event>
<event>
12    6  0.9491186E-008  0.2551088E+04  0.7818608E-02  0.8385008E-01
         -1   -1    0    0    0  501 -0.00000000000E+00  0.00000000000E+00  0.85252651352E+03  0.85252651352E+03  0.00000000000E+00 0.  1.
          2   -1    0    0  501    0  0.00000000000E+00 -0.00000000000E+00 -0.19084593225E+04  0.19084593225E+04  0.00000000000E+00 0. -1.
         24    2    1    2    0    0  0.77543653106E+03 -0.80077731938E+03 -0.44691048127E+03  0.12034842628E+04  0.78097782236E+02 0.  0.
        254    2    1    2    0    0 -0.77543653106E+03  0.80077731938E+03 -0.60902232768E+03  0.15575015732E+04  0.90130839670E+03 0.  0.
         23    2    4    4    0    0 -0.61468302293E+03  0.43955896108E+03  0.71239561716E+02  0.76563432802E+03  0.10036707697E+03 0.  0.
         23    2    4    4    0    0 -0.16075350814E+03  0.36121835829E+03 -0.68026188940E+03  0.79186724518E+03  0.89314629684E+02 0.  0.
          4    1    3    3  502    0  0.34422849977E+03 -0.36585134810E+03 -0.16036286256E+03  0.52731083494E+03  0.00000000000E+00 0. -1.
         -3    1    3    3    0  502  0.43120803129E+03 -0.43492597128E+03 -0.28654761872E+03  0.67617342785E+03  0.00000000000E+00 0.  1.
         11    1    5    5    0    0 -0.50124794549E+02  0.75087520054E+02  0.57284082150E+01  0.90462397476E+02  0.00000000000E+00 0.  1.
        -11    1    5    5    0    0 -0.56455822838E+03  0.36447144103E+03  0.65511153501E+02  0.67517193054E+03  0.00000000000E+00 0. -1.
          2    1    6    6  503    0 -0.11238251869E+03  0.29857580634E+03 -0.47811617268E+03  0.57478032083E+03  0.00000000000E+00 0. -1.
         -2    1    6    6    0  503 -0.48370989448E+02  0.62642551957E+02 -0.20214571672E+03  0.21708692435E+03  0.00000000000E+00 0.  1.
<mgrwt>
<rscale>  0 0.25510877E+04</rscale>
<asrwt>0</asrwt>
<pdfrwt beam="1">  1        2 0.29360912E+00 0.25510877E+04</pdfrwt>
<pdfrwt beam="2">  1       -1 0.13115793E+00 0.25510877E+04</pdfrwt>
<totfact> 0.37647063E+00</totfact>
</mgrwt>
</event>
<event>
12    6  0.9491186E-008  0.1960670E+04  0.7818608E-02  0.8625233E-01
          2   -1    0    0  501    0  0.00000000000E+00  0.00000000000E+00  0.15800712019E+04  0.15800712019E+04  0.00000000000E+00 0. -1.
         -1   -1    0    0    0  501 -0.00000000000E+00 -0.00000000000E+00 -0.60823650073E+03  0.60823650073E+03  0.00000000000E+00 0.  1.
         24    2    1    2    0    0 -0.36114498231E+03 -0.11744340449E+03  0.11294334778E+04  0.11942556568E+04  0.80049618704E+02 0.  0.
        254    2    1    2    0    0  0.36114498231E+03  0.11744340449E+03 -0.15759877663E+03  0.99405204585E+03  0.90503228891E+03 0.  0.
         23    2    4    4    0    0  0.43331882215E+03  0.91428605416E+02  0.28587406843E+03  0.53488745317E+03  0.90863705814E+02 0.  0.
         23    2    4    4    0    0 -0.72173839840E+02  0.26014799074E+02 -0.44347284505E+03  0.45916459269E+03  0.90984207148E+02 0.  0.
          4    1    3    3  502    0 -0.24905383381E+03 -0.43483762638E+02  0.69610144108E+03  0.74059156492E+03  0.00000000000E+00 0. -1.
         -3    1    3    3    0  502 -0.11209114851E+03 -0.73959641852E+02  0.43333203676E+03  0.45366409190E+03  0.00000000000E+00 0.  1.
         11    1    5    5    0    0  0.42942522045E+02  0.18445836308E+02  0.66215805409E+02  0.81048392721E+02  0.00000000000E+00 0. -1.
        -11    1    5    5    0    0  0.39037630011E+03  0.72982769108E+02  0.21965826302E+03  0.45383906044E+03  0.00000000000E+00 0.  1.
          2    1    6    6  503    0 -0.82856698963E+02  0.44003093729E+02 -0.40087343174E+03  0.41170500737E+03  0.00000000000E+00 0.  1.
         -2    1    6    6    0  503  0.10682859123E+02 -0.17988294655E+02 -0.42599413315E+02  0.47459585317E+02  0.00000000000E+00 0. -1.
<mgrwt>
<rscale>  0 0.19606703E+04</rscale>
<asrwt>0</asrwt>
<pdfrwt beam="1">  1        2 0.24308787E+00 0.19606703E+04</pdfrwt>
<pdfrwt beam="2">  1       -1 0.93574847E-01 0.19606703E+04</pdfrwt>
<totfact> 0.13457465E+01</totfact>
</mgrwt>
</event>
<event>
12    6  0.9491186E-008  0.1478460E+04  0.7818608E-02  0.8898904E-01
         -1   -1    0    0    0  501 -0.00000000000E+00  0.00000000000E+00  0.55147383331E+03  0.55147383331E+03  0.00000000000E+00 0.  1.
          2   -1    0    0  501    0  0.00000000000E+00 -0.00000000000E+00 -0.99091059008E+03  0.99091059008E+03  0.00000000000E+00 0. -1.
         24    2    1    2    0    0 -0.15300277291E+03 -0.36711785997E+02  0.30925808033E+03  0.35580307381E+03  0.78725239492E+02 0.  0.
        254    2    1    2    0    0  0.15300277291E+03  0.36711785997E+02 -0.74869483710E+03  0.11865813496E+04  0.90701363624E+03 0.  0.
         23    2    4    4    0    0  0.44522117851E+03 -0.23369197119E+03 -0.39145270282E+03  0.64373539418E+03  0.91248035481E+02 0.  0.
         23    2    4    4    0    0 -0.29221840561E+03  0.27040375718E+03 -0.35724213428E+03  0.54284595540E+03  0.92466211753E+02 0.  0.
          4    1    3    3  502    0 -0.69420002679E+02  0.22176677006E+02  0.14585797867E+03  0.16305058024E+03  0.00000000000E+00 0. -1.
         -3    1    3    3    0  502 -0.83582770226E+02 -0.58888463003E+02  0.16340010166E+03  0.19275249357E+03  0.00000000000E+00 0.  1.
         11    1    5    5    0    0  0.30933728875E+03 -0.20773014515E+03 -0.28030790422E+03  0.46627662667E+03  0.00000000000E+00 0. -1.
        -11    1    5    5    0    0  0.13588388976E+03 -0.25961826040E+02 -0.11114479860E+03  0.17745876750E+03  0.00000000000E+00 0.  1.
          2    1    6    6  503    0 -0.13823165033E+02  0.97179210468E+01 -0.50977076155E+02  0.53704563813E+02  0.00000000000E+00 0.  1.
         -2    1    6    6    0  503 -0.27839524058E+03  0.26068583614E+03 -0.30626505813E+03  0.48914139159E+03  0.00000000000E+00 0. -1.
<mgrwt>
<rscale>  0 0.14784604E+04</rscale>
<asrwt>0</asrwt>
<pdfrwt beam="1">  1        2 0.15244778E+00 0.14784604E+04</pdfrwt>
<pdfrwt beam="2">  1       -1 0.84842129E-01 0.14784604E+04</pdfrwt>
<totfact> 0.38760149E+01</totfact>
</mgrwt>
</event>
<event>
12    6  0.9491186E-008  0.1533804E+04  0.7818608E-02  0.8862280E-01
          2   -1    0    0  501    0  0.00000000000E+00  0.00000000000E+00  0.42937296161E+04  0.42937296161E+04  0.00000000000E+00 0. -1.
         -1   -1    0    0    0  501 -0.00000000000E+00 -0.00000000000E+00 -0.13697609232E+03  0.13697609232E+03  0.00000000000E+00 0.  1.
         24    2    1    2    0    0 -0.19914559032E+03  0.34177724446E+03  0.49240897803E+03  0.63671560466E+03  0.80433255576E+02 0.  0.
        254    2    1    2    0    0  0.19914559032E+03 -0.34177724446E+03  0.36643445457E+04  0.37939901037E+04  0.90026068807E+03 0.  0.
         23    2    4    4    0    0  0.24061253030E+03  0.20723876293E+03  0.22421031598E+04  0.22663288141E+04  0.91528246510E+02 0.  0.
         23    2    4    4    0    0 -0.41466939976E+02 -0.54901600739E+03  0.14222413859E+04  0.15276612896E+04  0.88545877827E+02 0.  0.
          2    1    3    3  502    0 -0.75585414137E+02  0.13524260853E+03  0.25678404391E+03  0.29990292296E+03  0.00000000000E+00 0. -1.
         -1    1    3    3    0  502 -0.12356017618E+03  0.20653463593E+03  0.23562493411E+03  0.33681268170E+03  0.00000000000E+00 0.  1.
         11    1    5    5    0    0  0.23559794767E+03  0.20282865256E+03  0.22352318618E+04  0.22567470686E+04  0.00000000000E+00 0. -1.
        -11    1    5    5    0    0  0.50145826233E+01  0.44101103647E+01  0.68712979584E+01  0.95817455585E+01  0.00000000000E+00 0.  1.
          1    1    6    6  503    0 -0.22975518569E+02 -0.33100308575E+03  0.97203674311E+03  0.10271058111E+04  0.00000000000E+00 0. -1.
         -1    1    6    6    0  503 -0.18491421407E+02 -0.21801292164E+03  0.45020464280E+03  0.50055547851E+03  0.00000000000E+00 0.  1.
<mgrwt>
<rscale>  0 0.15338035E+04</rscale>
<asrwt>0</asrwt>
<pdfrwt beam="1">  1        2 0.66057369E+00 0.15338035E+04</pdfrwt>
<pdfrwt beam="2">  1       -1 0.21073248E-01 0.15338035E+04</pdfrwt>
<totfact> 0.40660415E+00</totfact>
</mgrwt>
</event>
<event>
12    6  0.9491186E-008  0.1573579E+04  0.7818608E-02  0.8836946E-01
          2   -1    0    0  501    0  0.00000000000E+00  0.00000000000E+00  0.16746678014E+04  0.16746678014E+04  0.00000000000E+00 0. -1.
         -1   -1    0    0    0  501 -0.00000000000E+00 -0.00000000000E+00 -0.36964807332E+03  0.36964807332E+03  0.00000000000E+00 0.  1.
         24    2    1    2    0    0 -0.20627844976E+03 -0.47998242575E+03  0.49505072166E+03  0.72424743555E+03  0.80778728790E+02 0.  0.
        254    2    1    2    0    0  0.20627844976E+03  0.47998242575E+03  0.80996900640E+03  0.13200684391E+04  0.90199610023E+03 0.  0.
         23    2    4    4    0    0 -0.28355830901E+03  0.37670705313E+03  0.18600996246E+03  0.51479362566E+03  0.89995846568E+02 0.  0.
         23    2    4    4    0    0  0.48983675876E+03  0.10327537262E+03  0.62395904394E+03  0.80527481348E+03  0.92394717861E+02 0.  0.
          2    1    3    3  502    0 -0.19740446875E+02 -0.10404319091E+03  0.70120212821E+02  0.12700990144E+03  0.00000000000E+00 0. -1.
         -1    1    3    3    0  502 -0.18653800288E+03 -0.37593923484E+03  0.42493050884E+03  0.59723753411E+03  0.00000000000E+00 0.  1.
         11    1    5    5    0    0 -0.12835756423E+03  0.19718916341E+03  0.47530553098E+02  0.24003829682E+03  0.00000000000E+00 0.  1.
        -11    1    5    5    0    0 -0.15520074478E+03  0.17951788972E+03  0.13847940936E+03  0.27475532884E+03  0.00000000000E+00 0. -1.
          4    1    6    6  503    0  0.35542937661E+03  0.11547413810E+03  0.47199874887E+03  0.60203582722E+03  0.00000000000E+00 0. -1.
         -4    1    6    6    0  503  0.13440738216E+03 -0.12198765486E+02  0.15196029507E+03  0.20323898626E+03  0.00000000000E+00 0.  1.
<mgrwt>
<rscale>  0 0.15735790E+04</rscale>
<asrwt>0</asrwt>
<pdfrwt beam="1">  1        2 0.25764120E+00 0.15735790E+04</pdfrwt>
<pdfrwt beam="2">  1       -1 0.56868935E-01 0.15735790E+04</pdfrwt>
<totfact> 0.34712438E+01</totfact>
</mgrwt>
</event>
<event>
12    6  0.9491186E-008  0.1743748E+04  0.7818608E-02  0.8736799E-01
          2   -1    0    0  501    0  0.00000000000E+00  0.00000000000E+00  0.26229784289E+03  0.26229784289E+03  0.00000000000E+00 0. -1.
         -1   -1    0    0    0  501 -0.00000000000E+00 -0.00000000000E+00 -0.28980967439E+04  0.28980967439E+04  0.00000000000E+00 0.  1.
         24    2    1    2    0    0 -0.42296860989E+03 -0.47579372492E+03 -0.10266822403E+04  0.12106709375E+04  0.79784602400E+02 0.  0.
        254    2    1    2    0    0  0.42296860989E+03  0.47579372492E+03 -0.16091166607E+04  0.19497236493E+04  0.89826709121E+03 0.  0.
         23    2    4    4    0    0  0.93687324086E+02  0.40016208694E+03 -0.15359557967E+04  0.15924112618E+04  0.87786142213E+02 0.  0.
         23    2    4    4    0    0  0.32928128581E+03  0.75631637973E+02 -0.73160864007E+02  0.35731238747E+03  0.90406417758E+02 0.  0.
          4    1    3    3  502    0 -0.25742140752E+03 -0.32208012487E+03 -0.60233041159E+03  0.72993377276E+03  0.00000000000E+00 0. -1.
         -3    1    3    3    0  502 -0.16554720237E+03 -0.15371360005E+03 -0.42435182872E+03  0.48073716477E+03  0.00000000000E+00 0.  1.
         11    1    5    5    0    0  0.98859146017E+02  0.40222708107E+03 -0.15228004537E+04  0.15781257799E+04  0.00000000000E+00 0. -1.
        -11    1    5    5    0    0 -0.51718219316E+01 -0.20649941247E+01 -0.13155343087E+02  0.14285481951E+02  0.00000000000E+00 0.  1.
          2    1    6    6  503    0  0.22160361461E+03  0.70258307643E+01 -0.54113401554E+02  0.22822310254E+03  0.00000000000E+00 0. -1.
         -2    1    6    6    0  503  0.10767767120E+03  0.68605807209E+02 -0.19047462453E+02  0.12908928493E+03  0.00000000000E+00 0.  1.
<mgrwt>
<rscale>  0 0.17437483E+04</rscale>
<asrwt>0</asrwt>
<pdfrwt beam="1">  1        2 0.40353515E-01 0.17437483E+04</pdfrwt>
<pdfrwt beam="2">  1       -1 0.44586103E+00 0.17437483E+04</pdfrwt>
<totfact> 0.47984988E-01</totfact>
</mgrwt>
</event>
<event>
12    6  0.9491186E-008  0.1180767E+04  0.7818608E-02  0.9129860E-01
         -1   -1    0    0    0  501 -0.00000000000E+00  0.00000000000E+00  0.11839425280E+03  0.11839425280E+03  0.00000000000E+00 0.  1.
          2   -1    0    0  501    0  0.00000000000E+00 -0.00000000000E+00 -0.29439992788E+04  0.29439992788E+04  0.00000000000E+00 0. -1.
         24    2    1    2    0    0 -0.14172552142E+03  0.87585284303E+02 -0.12827087249E+04  0.12961761535E+04  0.83508338975E+02 0.  0.
        254    2    1    2    0    0  0.14172552142E+03 -0.87585284303E+02 -0.15428963012E+04  0.17662173781E+04  0.84334899369E+03 0.  0.
         23    2    4    4    0    0  0.11981885996E+02  0.10729002539E+02  0.85270870331E+02  0.12737136618E+03  0.93239833264E+02 0.  0.
         23    2    4    4    0    0  0.12974363542E+03 -0.98314286841E+02 -0.16281671715E+04  0.16388460120E+04  0.91590406552E+02 0.  0.
          2    1    3    3  502    0 -0.15220606639E+03  0.82054178257E+02 -0.12334867104E+04  0.12455476866E+04  0.00000000000E+00 0. -1.
         -1    1    3    3    0  502  0.10480544976E+02  0.55311060458E+01 -0.49222014421E+02  0.50628466901E+02  0.00000000000E+00 0.  1.
         11    1    5    5    0    0 -0.25839415043E+01 -0.11889959293E+01 -0.20116557152E+02  0.20316651709E+02  0.00000000000E+00 0.  1.
        -11    1    5    5    0    0  0.14565827501E+02  0.11917998468E+02  0.10538742748E+03  0.10705471447E+03  0.00000000000E+00 0. -1.
          3    1    6    6  503    0  0.20382808722E+02  0.99245656872E+01 -0.46412931002E+03  0.46468265764E+03  0.00000000000E+00 0. -1.
         -3    1    6    6    0  503  0.10936082670E+03 -0.10823885253E+03 -0.11640378615E+04  0.11741633543E+04  0.00000000000E+00 0.  1.
<mgrwt>
<rscale>  0 0.11807669E+04</rscale>
<asrwt>0</asrwt>
<pdfrwt beam="1">  1        2 0.45292301E+00 0.11807669E+04</pdfrwt>
<pdfrwt beam="2">  1       -1 0.18214499E-01 0.11807669E+04</pdfrwt>
<totfact> 0.51492638E+01</totfact>
</mgrwt>
</event>
<event>
12    6  0.9491186E-008  0.2197974E+04  0.7818608E-02  0.8519272E-01
          2   -1    0    0  501    0  0.00000000000E+00  0.00000000000E+00  0.27813277505E+04  0.27813277505E+04  0.00000000000E+00 0. -1.
         -1   -1    0    0    0  501 -0.00000000000E+00 -0.00000000000E+00 -0.43424304367E+03  0.43424304367E+03  0.00000000000E+00 0.  1.
         24    2    1    2    0    0 -0.45615045223E+03 -0.38565357136E+02  0.21455310759E+04  0.21953858321E+04  0.82793913378E+02 0.  0.
        254    2    1    2    0    0  0.45615045223E+03  0.38565357136E+02  0.20155363092E+03  0.10201849621E+04  0.88915295026E+03 0.  0.
         23    2    4    4    0    0  0.40585792105E+03 -0.88206760131E+02 -0.28149369356E+03  0.50999157838E+03  0.91387230469E+02 0.  0.
         23    2    4    4    0    0  0.50292531178E+02  0.12677211727E+03  0.48304732449E+03  0.51019338373E+03  0.91444314768E+02 0.  0.
          4    1    3    3  502    0 -0.77156181694E+02  0.26187777105E+01  0.24057998573E+03  0.25266314315E+03  0.00000000000E+00 0. -1.
         -3    1    3    3    0  502 -0.37899427053E+03 -0.41184134847E+02  0.19049510902E+04  0.19427226889E+04  0.00000000000E+00 0.  1.
         11    1    5    5    0    0  0.32559716190E+03 -0.10619461757E+03 -0.21661502470E+03  0.40523188123E+03  0.00000000000E+00 0. -1.
        -11    1    5    5    0    0  0.80260759148E+02  0.17987857436E+02 -0.64878668861E+02  0.10475969715E+03  0.00000000000E+00 0.  1.
          2    1    6    6  503    0 -0.97992618717E+01  0.72958737144E+02  0.14452158509E+03  0.16218967727E+03  0.00000000000E+00 0. -1.
         -2    1    6    6    0  503  0.60091793050E+02  0.53813380123E+02  0.33852573940E+03  0.34800370646E+03  0.00000000000E+00 0.  1.
<mgrwt>
<rscale>  0 0.21979738E+04</rscale>
<asrwt>0</asrwt>
<pdfrwt beam="1">  1        2 0.42789657E+00 0.21979738E+04</pdfrwt>
<pdfrwt beam="2">  1       -1 0.66806624E-01 0.21979738E+04</pdfrwt>
<totfact> 0.56077880E+00</totfact>
</mgrwt>
</event>
<event>
12    6  0.9491186E-008  0.3476742E+04  0.7818608E-02  0.8119324E-01
          2   -1    0    0  501    0  0.00000000000E+00  0.00000000000E+00  0.21347739673E+04  0.21347739673E+04  0.00000000000E+00 0. -1.
         -1   -1    0    0    0  501 -0.00000000000E+00 -0.00000000000E+00 -0.14155752065E+04  0.14155752065E+04  0.00000000000E+00 0.  1.
         24    2    1    2    0    0  0.60765551399E+03  0.14782777388E+04  0.67141144480E+02  0.16013631728E+04  0.72840794218E+02 0.  0.
        254    2    1    2    0    0 -0.60765551399E+03 -0.14782777388E+04  0.65205761634E+03  0.19489860010E+04  0.90488507585E+03 0.  0.
         23    2    4    4    0    0 -0.75476015189E+03 -0.83721862383E+03  0.60349713665E+03  0.12824826660E+04  0.99775166036E+02 0.  0.
         23    2    4    4    0    0  0.14710463790E+03 -0.64105911492E+03  0.48560479687E+02  0.66650333497E+03  0.96291287340E+02 0.  0.
          4    1    3    3  502    0  0.13879359919E+03  0.40785818611E+03 -0.12855273989E+00  0.43082708791E+03  0.00000000000E+00 0. -1.
         -3    1    3    3    0  502  0.46886191480E+03  0.10704195526E+04  0.67269697220E+02  0.11705360849E+04  0.00000000000E+00 0.  1.
         11    1    5    5    0    0 -0.64998203464E+03 -0.68663921101E+03  0.53707094944E+03  0.10873799962E+04  0.00000000000E+00 0. -1.
        -11    1    5    5    0    0 -0.10477811725E+03 -0.15057941282E+03  0.66426187214E+02  0.19510266981E+03  0.00000000000E+00 0.  1.
          1    1    6    6  503    0  0.72484797595E+02 -0.16283337256E+03 -0.12391803423E+02  0.17866815579E+03  0.00000000000E+00 0.  1.
         -1    1    6    6    0  503  0.74619840309E+02 -0.47822574237E+03  0.60952283110E+02  0.48783517918E+03  0.00000000000E+00 0. -1.
<mgrwt>
<rscale>  0 0.34767416E+04</rscale>
<asrwt>0</asrwt>
<pdfrwt beam="1">  1        2 0.32842676E+00 0.34767416E+04</pdfrwt>
<pdfrwt beam="2">  1       -1 0.21778080E+00 0.34767416E+04</pdfrwt>
<totfact> 0.59906478E-01</totfact>
</mgrwt>
</event>
<event>
12    6  0.9491186E-008  0.3412410E+04  0.7818608E-02  0.8134867E-01
         -1   -1    0    0    0  501 -0.00000000000E+00  0.00000000000E+00  0.14055770910E+04  0.14055770910E+04  0.00000000000E+00 0.  1.
          2   -1    0    0  501    0  0.00000000000E+00 -0.00000000000E+00 -0.20711315186E+04  0.20711315186E+04  0.00000000000E+00 0. -1.
         24    2    1    2    0    0  0.78100564688E+03  0.13423691929E+04 -0.64432968067E+03  0.16833393357E+04  0.80905569481E+02 0.  0.
        254    2    1    2    0    0 -0.78100564688E+03 -0.13423691929E+04 -0.21224746941E+02  0.17933692740E+04  0.89654781939E+03 0.  0.
         23    2    4    4    0    0  0.66728336838E+02 -0.67616322839E+03  0.13878859603E+03  0.69960423940E+03  0.92382006050E+02 0.  0.
         23    2    4    4    0    0 -0.84773398371E+03 -0.66620596452E+03 -0.16001334297E+03  0.10937650346E+04  0.90743521159E+02 0.  0.
          2    1    3    3  502    0  0.42970437781E+03  0.75255304760E+03 -0.31660092565E+03  0.92261481014E+03  0.00000000000E+00 0. -1.
         -1    1    3    3    0  502  0.35130126906E+03  0.58981614531E+03 -0.32772875502E+03  0.76072452555E+03  0.00000000000E+00 0.  1.
         11    1    5    5    0    0  0.35780850743E+02 -0.61429377168E+03  0.13700895290E+03  0.63040349014E+03  0.00000000000E+00 0. -1.
        -11    1    5    5    0    0  0.30947486096E+02 -0.61869456714E+02  0.17796431244E+01  0.69200749268E+02  0.00000000000E+00 0.  1.
          2    1    6    6  503    0 -0.62734643568E+03 -0.53376186423E+03 -0.14364781073E+03  0.83612198368E+03  0.00000000000E+00 0. -1.
         -2    1    6    6    0  503 -0.22038754804E+03 -0.13244410029E+03 -0.16365532239E+02  0.25764305090E+03  0.00000000000E+00 0.  1.
<mgrwt>
<rscale>  0 0.34124097E+04</rscale>
<asrwt>0</asrwt>
<pdfrwt beam="1">  1        2 0.31863562E+00 0.34124097E+04</pdfrwt>
<pdfrwt beam="2">  1       -1 0.21624263E+00 0.34124097E+04</pdfrwt>
<totfact> 0.66950809E-01</totfact>
</mgrwt>
</event>
<event>
12    6  0.9491186E-008  0.1186429E+04  0.7818608E-02  0.9124819E-01
          2   -1    0    0  501    0  0.00000000000E+00  0.00000000000E+00  0.98741777196E+03  0.98741777196E+03  0.00000000000E+00 0. -1.
         -1   -1    0    0    0  501 -0.00000000000E+00 -0.00000000000E+00 -0.35638758244E+03  0.35638758244E+03  0.00000000000E+00 0.  1.
         24    2    1    2    0    0 -0.45436374481E+02  0.17184150899E+03  0.30891176046E+03  0.36529449289E+03  0.80122546438E+02 0.  0.
        254    2    1    2    0    0  0.45436374481E+02 -0.17184150899E+03  0.32211842907E+03  0.97851086151E+03  0.90671343621E+03 0.  0.
         23    2    4    4    0    0 -0.37447126628E+03 -0.13388975300E+03  0.36081371297E+03  0.54506638786E+03  0.93571558043E+02 0.  0.
         23    2    4    4    0    0  0.41990764076E+03 -0.37951755989E+02 -0.38695283901E+02  0.43344447365E+03  0.92811767531E+02 0.  0.
          2    1    3    3  502    0 -0.48709806395E+01  0.13788998654E+03  0.25394816348E+03  0.28901045756E+03  0.00000000000E+00 0. -1.
         -1    1    3    3    0  502 -0.40565393841E+02  0.33951522449E+02  0.54963596973E+02  0.76284035330E+02  0.00000000000E+00 0.  1.
         11    1    5    5    0    0 -0.17026039454E+03 -0.31361427538E+02  0.20584807320E+03  0.26897131878E+03  0.00000000000E+00 0.  1.
        -11    1    5    5    0    0 -0.20421087174E+03 -0.10252832547E+03  0.15496563978E+03  0.27609506908E+03  0.00000000000E+00 0. -1.
          1    1    6    6  503    0  0.35903599240E+03 -0.35413240989E+02 -0.65856388345E+02  0.36673969701E+03  0.00000000000E+00 0. -1.
         -1    1    6    6    0  503  0.60871648361E+02 -0.25385149999E+01  0.27161104444E+02  0.66704776645E+02  0.00000000000E+00 0.  1.
<mgrwt>
<rscale>  0 0.11864290E+04</rscale>
<asrwt>0</asrwt>
<pdfrwt beam="1">  1        2 0.15191042E+00 0.11864290E+04</pdfrwt>
<pdfrwt beam="2">  1       -1 0.54828859E-01 0.11864290E+04</pdfrwt>
<totfact> 0.97172319E+01</totfact>
</mgrwt>
</event>
<event>
12    6  0.9491186E-008  0.1351935E+04  0.7818608E-02  0.8989364E-01
         -1   -1    0    0    0  501 -0.00000000000E+00  0.00000000000E+00  0.87100075205E+03  0.87100075205E+03  0.00000000000E+00 0.  1.
          2   -1    0    0  501    0  0.00000000000E+00 -0.00000000000E+00 -0.52460608740E+03  0.52460608740E+03  0.00000000000E+00 0. -1.
         24    2    1    2    0    0 -0.50205263682E+02  0.10143297706E+03 -0.26118929371E+03  0.29569965840E+03  0.80057626077E+02 0.  0.
        254    2    1    2    0    0  0.50205263682E+02 -0.10143297706E+03  0.60758395835E+03  0.10999071811E+04  0.90985071476E+03 0.  0.
         23    2    4    4    0    0 -0.17011781513E+03  0.21118297350E+03  0.64266011739E+03  0.70355459801E+03  0.91862541747E+02 0.  0.
         23    2    4    4    0    0  0.22032307881E+03 -0.31261595056E+03 -0.35076159040E+02  0.39635258304E+03  0.97949178397E+02 0.  0.
          4    1    3    3  502    0 -0.59915011352E+02  0.84308891304E+02 -0.25481768266E+03  0.27500881646E+03  0.00000000000E+00 0. -1.
         -3    1    3    3    0  502  0.97097476699E+01  0.17124085752E+02 -0.63716110549E+01  0.20690841937E+02  0.00000000000E+00 0.  1.
         11    1    5    5    0    0 -0.11688123964E+03  0.95613645144E+02  0.42988265144E+03  0.45563394005E+03  0.00000000000E+00 0. -1.
        -11    1    5    5    0    0 -0.53236575485E+02  0.11556932836E+03  0.21277746596E+03  0.24792065796E+03  0.00000000000E+00 0.  1.
          3    1    6    6  503    0  0.27721466416E+02 -0.20795278955E+02 -0.31278432274E+02  0.46682584040E+02  0.00000000000E+00 0. -1.
         -3    1    6    6    0  503  0.19260161239E+03 -0.29182067160E+03 -0.37977267660E+01  0.34966999900E+03  0.00000000000E+00 0.  1.
<mgrwt>
<rscale>  0 0.13519353E+04</rscale>
<asrwt>0</asrwt>
<pdfrwt beam="1">  1        2 0.80708629E-01 0.13519353E+04</pdfrwt>
<pdfrwt beam="2">  1       -1 0.13400012E+00 0.13519353E+04</pdfrwt>
<totfact> 0.30525566E+01</totfact>
</mgrwt>
</event>
<event>
12    6  0.9491186E-008  0.1948217E+04  0.7818608E-02  0.8631221E-01
          2   -1    0    0  501    0  0.00000000000E+00  0.00000000000E+00  0.28652686259E+04  0.28652686259E+04  0.00000000000E+00 0. -1.
         -3   -1    0    0    0  501 -0.00000000000E+00 -0.00000000000E+00 -0.33116877600E+03  0.33116877600E+03  0.00000000000E+00 0.  1.
         24    2    1    2    0    0 -0.15099944232E+03  0.44623832183E+03  0.82664794763E+01  0.47761952945E+03  0.78247100781E+02 0.  0.
        254    2    1    2    0    0  0.15099944232E+03 -0.44623832183E+03  0.25258333704E+04  0.27188178724E+04  0.88893584524E+03 0.  0.
         23    2    4    4    0    0 -0.17564805708E+03 -0.37947514459E+03  0.47789627382E+03  0.64199262366E+03  0.94424864261E+02 0.  0.
         23    2    4    4    0    0  0.32664749940E+03 -0.66763177240E+02  0.20479370966E+04  0.20768252488E+04  0.89447479874E+02 0.  0.
          2    1    3    3  502    0 -0.66985389617E+02  0.14112804412E+03 -0.29265139422E+02  0.15893588533E+03  0.00000000000E+00 0. -1.
         -1    1    3    3    0  502 -0.84014052701E+02  0.30511027770E+03  0.37531618899E+02  0.31868364412E+03  0.00000000000E+00 0.  1.
         11    1    5    5    0    0 -0.17044933082E+03 -0.36506825223E+03  0.41958683409E+03  0.58170517833E+03  0.00000000000E+00 0. -1.
        -11    1    5    5    0    0 -0.51987262545E+01 -0.14406892360E+02  0.58309439731E+02  0.60287445326E+02  0.00000000000E+00 0.  1.
          1    1    6    6  503    0  0.26536326794E+03 -0.71746068137E+02  0.18241020976E+04  0.18446987898E+04  0.00000000000E+00 0. -1.
         -1    1    6    6    0  503  0.61284231459E+02  0.49828908968E+01  0.22383499896E+03  0.23212645904E+03  0.00000000000E+00 0.  1.
<mgrwt>
<rscale>  0 0.19482171E+04</rscale>
<asrwt>0</asrwt>
<pdfrwt beam="1">  1        2 0.44081054E+00 0.19482171E+04</pdfrwt>
<pdfrwt beam="2">  1       -3 0.50949044E-01 0.19482171E+04</pdfrwt>
<totfact> 0.48564510E+00</totfact>
</mgrwt>
</event>
<event>
12    6  0.9491186E-008  0.2643980E+04  0.7818608E-02  0.8353414E-01
         -1   -1    0    0    0  501 -0.00000000000E+00  0.00000000000E+00  0.58983837181E+03  0.58983837181E+03  0.00000000000E+00 0.  1.
          2   -1    0    0  501    0  0.00000000000E+00 -0.00000000000E+00 -0.29629430749E+04  0.29629430749E+04  0.00000000000E+00 0. -1.
         24    2    1    2    0    0  0.80773446728E+03  0.84220501904E+03 -0.90684805958E+03  0.14800324444E+04  0.79864694796E+02 0.  0.
        254    2    1    2    0    0 -0.80773446728E+03 -0.84220501904E+03 -0.14662566435E+04  0.20727490023E+04  0.88579660098E+03 0.  0.
         23    2    4    4    0    0 -0.93796435647E+03 -0.87853004688E+03 -0.13703306540E+04  0.18806062484E+04  0.85332191601E+02 0.  0.
         23    2    4    4    0    0  0.13022988919E+03  0.36325027839E+02 -0.95925989464E+02  0.19214275391E+03  0.97147880768E+02 0.  0.
          4    1    3    3  502    0  0.12675070492E+03  0.92958096188E+02 -0.12022322166E+03  0.19789030262E+03  0.00000000000E+00 0. -1.
         -3    1    3    3    0  502  0.68098376236E+03  0.74924692285E+03 -0.78662483792E+03  0.12821421417E+04  0.00000000000E+00 0.  1.
         11    1    5    5    0    0 -0.71151585074E+03 -0.68571989626E+03 -0.10035528552E+04  0.14083979960E+04  0.00000000000E+00 0. -1.
        -11    1    5    5    0    0 -0.22644850573E+03 -0.19281015062E+03 -0.36677779876E+03  0.47220825235E+03  0.00000000000E+00 0.  1.
          2    1    6    6  503    0  0.82147959672E+01  0.43312210845E+02 -0.21480721030E+02  0.49039288913E+02  0.00000000000E+00 0. -1.
         -2    1    6    6    0  503  0.12201509323E+03 -0.69871830067E+01 -0.74445268434E+02  0.14310346499E+03  0.00000000000E+00 0.  1.
<mgrwt>
<rscale>  0 0.26439800E+04</rscale>
<asrwt>0</asrwt>
<pdfrwt beam="1">  1        2 0.45583740E+00 0.26439800E+04</pdfrwt>
<pdfrwt beam="2">  1       -1 0.90744365E-01 0.26439800E+04</pdfrwt>
<totfact> 0.21823239E+00</totfact>
</mgrwt>
</event>
<event>
12    6  0.9491186E-008  0.1707762E+04  0.7818608E-02  0.8756950E-01
          2   -1    0    0  501    0  0.00000000000E+00  0.00000000000E+00  0.10714938564E+04  0.10714938564E+04  0.00000000000E+00 0. -1.
         -1   -1    0    0    0  501 -0.00000000000E+00 -0.00000000000E+00 -0.68046399830E+03  0.68046399830E+03  0.00000000000E+00 0.  1.
         24    2    1    2    0    0 -0.39135687742E+03 -0.59169413835E+02 -0.33909600977E+03  0.52736112284E+03  0.80389209498E+02 0.  0.
        254    2    1    2    0    0  0.39135687742E+03  0.59169413835E+02  0.73012586787E+03  0.12245967319E+04  0.89994008009E+03 0.  0.
         23    2    4    4    0    0  0.78141329789E+02  0.26105110562E+03  0.78532402300E+03  0.83703895529E+03  0.98217332563E+02 0.  0.
         23    2    4    4    0    0  0.31321554763E+03 -0.20188169179E+03 -0.55198155131E+02  0.38755777658E+03  0.91071384625E+02 0.  0.
          4    1    3    3  502    0 -0.57166308616E+01  0.67133391417E+01  0.11300053975E+01  0.88896402086E+01  0.00000000000E+00 0. -1.
         -3    1    3    3    0  502 -0.38564024656E+03 -0.65882752977E+02 -0.34022601516E+03  0.51847148263E+03  0.00000000000E+00 0.  1.
         11    1    5    5    0    0 -0.17753869367E+02  0.28866375785E+02  0.53801642014E+02  0.63585251528E+02  0.00000000000E+00 0. -1.
        -11    1    5    5    0    0  0.95895199155E+02  0.23218472984E+03  0.73152238098E+03  0.77345370377E+03  0.00000000000E+00 0.  1.
          1    1    6    6  503    0  0.10608112811E+03 -0.22054468870E+02 -0.33772693027E+01  0.10840208156E+03  0.00000000000E+00 0. -1.
         -1    1    6    6    0  503  0.20713441952E+03 -0.17982722292E+03 -0.51820885829E+02  0.27915569502E+03  0.00000000000E+00 0.  1.
<mgrwt>
<rscale>  0 0.17077623E+04</rscale>
<asrwt>0</asrwt>
<pdfrwt beam="1">  1        2 0.16484521E+00 0.17077623E+04</pdfrwt>
<pdfrwt beam="2">  1       -1 0.10468677E+00 0.17077623E+04</pdfrwt>
<totfact> 0.21107160E+01</totfact>
</mgrwt>
</event>
<event>
12    6  0.9491186E-008  0.1733787E+04  0.7818608E-02  0.8742326E-01
          2   -1    0    0  501    0  0.00000000000E+00  0.00000000000E+00  0.13862342420E+04  0.13862342420E+04  0.00000000000E+00 0. -1.
         -1   -1    0    0    0  501 -0.00000000000E+00 -0.00000000000E+00 -0.54211924722E+03  0.54211924722E+03  0.00000000000E+00 0.  1.
         24    2    1    2    0    0 -0.38497628496E+03 -0.15106651432E+03 -0.22673243593E+03  0.47809290382E+03  0.78341530813E+02 0.  0.
        254    2    1    2    0    0  0.38497628496E+03  0.15106651432E+03  0.10708474307E+04  0.14502605854E+04  0.88629211550E+03 0.  0.
         23    2    4    4    0    0 -0.20935126983E+03  0.12312354554E+03  0.69208234083E+03  0.73893190964E+03  0.89749868788E+02 0.  0.
         23    2    4    4    0    0  0.59432755479E+03  0.27942968777E+02  0.37876508987E+03  0.71132867576E+03  0.92300811319E+02 0.  0.
          2    1    3    3  502    0 -0.74290803605E+02 -0.60568240209E+02 -0.68969915308E+02  0.11808676657E+03  0.00000000000E+00 0. -1.
         -1    1    3    3    0  502 -0.31068548135E+03 -0.90498274108E+02 -0.15776252062E+03  0.36000613724E+03  0.00000000000E+00 0.  1.
         11    1    5    5    0    0 -0.17105091629E+02  0.50169316010E+02  0.15660247342E+03  0.16532960748E+03  0.00000000000E+00 0.  1.
        -11    1    5    5    0    0 -0.19224617820E+03  0.72954229530E+02  0.53547986741E+03  0.57360230216E+03  0.00000000000E+00 0. -1.
          4    1    6    6  503    0  0.43433698071E+03 -0.20827010529E+02  0.27211050236E+03  0.51295857793E+03  0.00000000000E+00 0. -1.
         -4    1    6    6    0  503  0.15999057408E+03  0.48769979306E+02  0.10665458751E+03  0.19837009783E+03  0.00000000000E+00 0.  1.
<mgrwt>
<rscale>  0 0.17337869E+04</rscale>
<asrwt>0</asrwt>
<pdfrwt beam="1">  1        2 0.21326681E+00 0.17337869E+04</pdfrwt>
<pdfrwt beam="2">  1       -1 0.83402962E-01 0.17337869E+04</pdfrwt>
<totfact> 0.22738711E+01</totfact>
</mgrwt>
</event>
<event>
12    6  0.9491186E-008  0.2230875E+04  0.7818608E-02  0.8505686E-01
         -1   -1    0    0    0  501 -0.00000000000E+00  0.00000000000E+00  0.65044392452E+03  0.65044392452E+03  0.00000000000E+00 0.  1.
          2   -1    0    0  501    0  0.00000000000E+00 -0.00000000000E+00 -0.19128483879E+04  0.19128483879E+04  0.00000000000E+00 0. -1.
         24    2    1    2    0    0  0.64478853054E+03 -0.67011337671E+03 -0.63186874190E+03  0.11258102819E+04  0.58193616315E+02 0.  0.
        254    2    1    2    0    0 -0.64478853054E+03  0.67011337671E+03 -0.63053572149E+03  0.14374820306E+04  0.89664658890E+03 0.  0.
         23    2    4    4    0    0  0.18233195949E+03  0.33552193998E+03 -0.23085379210E+03  0.45554721909E+03  0.91705396966E+02 0.  0.
         23    2    4    4    0    0 -0.82712049003E+03  0.33459143673E+03 -0.39968192939E+03  0.98193481148E+03  0.91490954529E+02 0.  0.
          2    1    3    3  502    0  0.57153760996E+03 -0.60070108374E+03 -0.54121583604E+03  0.99015736769E+03  0.00000000000E+00 0. -1.
         -1    1    3    3    0  502  0.73250920575E+02 -0.69412292963E+02 -0.90652905862E+02  0.13565291416E+03  0.00000000000E+00 0.  1.
         11    1    5    5    0    0  0.63572503856E+02  0.15236010346E+03 -0.51246020831E+02  0.17286184953E+03  0.00000000000E+00 0. -1.
        -11    1    5    5    0    0  0.11875945564E+03  0.18316183652E+03 -0.17960777127E+03  0.28268536956E+03  0.00000000000E+00 0.  1.
          1    1    6    6  503    0 -0.53726583893E+02 -0.77087968610E+00 -0.19044370505E+02  0.57007263750E+02  0.00000000000E+00 0. -1.
         -1    1    6    6    0  503 -0.77339390614E+03  0.33536231642E+03 -0.38063755888E+03  0.92492754773E+03  0.00000000000E+00 0.  1.
<mgrwt>
<rscale>  0 0.22308748E+04</rscale>
<asrwt>0</asrwt>
<pdfrwt beam="1">  1        2 0.29428437E+00 0.22308748E+04</pdfrwt>
<pdfrwt beam="2">  1       -1 0.10006830E+00 0.22308748E+04</pdfrwt>
<totfact> 0.73770907E+00</totfact>
</mgrwt>
</event>
<event>
12    6  0.9491186E-008  0.1239068E+04  0.7818608E-02  0.9079331E-01
         -1   -1    0    0    0  501 -0.00000000000E+00  0.00000000000E+00  0.39240392906E+03  0.39240392906E+03  0.00000000000E+00 0.  1.
          2   -1    0    0  501    0  0.00000000000E+00 -0.00000000000E+00 -0.97813075808E+03  0.97813075808E+03  0.00000000000E+00 0. -1.
         24    2    1    2    0    0 -0.13016493838E+03  0.14637721544E+03  0.93319596702E+02  0.23153676257E+03  0.80817850195E+02 0.  0.
        254    2    1    2    0    0  0.13016493838E+03 -0.14637721544E+03 -0.67904642572E+03  0.11389979246E+04  0.89322059062E+03 0.  0.
         23    2    4    4    0    0 -0.29543683342E+03 -0.17135199667E+03 -0.25192666300E+02  0.35414078697E+03  0.90203088930E+02 0.  0.
         23    2    4    4    0    0  0.42560177180E+03  0.24974781236E+02 -0.65385375942E+03  0.78485713760E+03  0.81947421398E+02 0.  0.
          4    1    3    3  502    0  0.47596392804E+01 -0.23786422833E+01  0.15102023944E+02  0.16011971534E+02  0.00000000000E+00 0. -1.
         -3    1    3    3    0  502 -0.13492457766E+03  0.14875585772E+03  0.78217572759E+02  0.21552479104E+03  0.00000000000E+00 0.  1.
         11    1    5    5    0    0 -0.39116115893E+02  0.73752165632E+01  0.53866134005E+01  0.40168145910E+02  0.00000000000E+00 0.  1.
        -11    1    5    5    0    0 -0.25632071753E+03 -0.17872721324E+03 -0.30579279700E+02  0.31397264106E+03  0.00000000000E+00 0. -1.
          3    1    6    6  503    0  0.37152824019E+03  0.36198189330E+01 -0.52171459269E+03  0.64049391299E+03  0.00000000000E+00 0. -1.
         -3    1    6    6    0  503  0.54073531610E+02  0.21354962303E+02 -0.13213916674E+03  0.14436322462E+03  0.00000000000E+00 0.  1.
<mgrwt>
<rscale>  0 0.12390680E+04</rscale>
<asrwt>0</asrwt>
<pdfrwt beam="1">  1        2 0.15048166E+00 0.12390680E+04</pdfrwt>
<pdfrwt beam="2">  1       -1 0.60369835E-01 0.12390680E+04</pdfrwt>
<totfact> 0.81300473E+01</totfact>
</mgrwt>
</event>
<event>
12    6  0.9491186E-008  0.1268168E+04  0.7818608E-02  0.9055196E-01
          2   -1    0    0  501    0  0.00000000000E+00  0.00000000000E+00  0.16249747884E+04  0.16249747884E+04  0.00000000000E+00 0. -1.
         -1   -1    0    0    0  501 -0.00000000000E+00 -0.00000000000E+00 -0.24742709838E+03  0.24742709838E+03  0.00000000000E+00 0.  1.
         24    2    1    2    0    0 -0.70311577469E+02 -0.28162419634E+03  0.51323613313E+03  0.59498113881E+03  0.79594731586E+02 0.  0.
        254    2    1    2    0    0  0.70311577469E+02  0.28162419634E+03  0.86431155691E+03  0.12774207480E+04  0.89471414100E+03 0.  0.
         23    2    4    4    0    0  0.10488529721E+02  0.18923948871E+03  0.10348465393E+04  0.10557256098E+04  0.87906825908E+02 0.  0.
         23    2    4    4    0    0  0.59823047748E+02  0.92384707631E+02 -0.17053498234E+03  0.22169513819E+03  0.89178600859E+02 0.  0.
          2    1    3    3  502    0 -0.81290698531E+01 -0.11379251848E+03  0.26894488762E+03  0.29214067094E+03  0.00000000000E+00 0. -1.
         -1    1    3    3    0  502 -0.62182507616E+02 -0.16783167786E+03  0.24429124551E+03  0.30284046787E+03  0.00000000000E+00 0.  1.
         11    1    5    5    0    0 -0.35909875780E+02  0.11802801175E+03  0.57422662871E+03  0.58732984928E+03  0.00000000000E+00 0.  1.
        -11    1    5    5    0    0  0.46398405501E+02  0.71211476951E+02  0.46061991054E+03  0.46839576052E+03  0.00000000000E+00 0. -1.
          3    1    6    6  503    0  0.15212841585E+02  0.95285030014E+02 -0.12464914559E+03  0.15763272817E+03  0.00000000000E+00 0. -1.
         -3    1    6    6    0  503  0.44610206163E+02 -0.29003223826E+01 -0.45885836746E+02  0.64062410022E+02  0.00000000000E+00 0.  1.
<mgrwt>
<rscale>  0 0.12681684E+04</rscale>
<asrwt>0</asrwt>
<pdfrwt beam="1">  1        2 0.24999611E+00 0.12681684E+04</pdfrwt>
<pdfrwt beam="2">  1       -1 0.38065709E-01 0.12681684E+04</pdfrwt>
<totfact> 0.80563372E+01</totfact>
</mgrwt>
</event>
<event>
12    6  0.9491186E-008  0.1240097E+04  0.7818608E-02  0.9078466E-01
          2   -1    0    0  501    0  0.00000000000E+00  0.00000000000E+00  0.11290744523E+04  0.11290744523E+04  0.00000000000E+00 0. -1.
         -1   -1    0    0    0  501 -0.00000000000E+00 -0.00000000000E+00 -0.34050890278E+03  0.34050890278E+03  0.00000000000E+00 0.  1.
         24    2    1    2    0    0  0.11135405325E+03  0.71122300801E+02 -0.11774151299E+03  0.19454766862E+03  0.80793716584E+02 0.  0.
        254    2    1    2    0    0 -0.11135405325E+03 -0.71122300801E+02  0.90630706247E+03  0.12750356864E+04  0.88705434067E+03 0.  0.
         23    2    4    4    0    0  0.25741971983E+02  0.19571594946E+03 -0.82835439052E+02  0.23730686303E+03  0.10239851212E+03 0.  0.
         23    2    4    4    0    0 -0.13709602524E+03 -0.26683825026E+03  0.98914250153E+03  0.10377288234E+04  0.92088276273E+02 0.  0.
          4    1    3    3  502    0 -0.91364071737E+01  0.86997506528E+00  0.34210119032E+01  0.97945962194E+01  0.00000000000E+00 0. -1.
         -3    1    3    3    0  502  0.12049046043E+03  0.70252325736E+02 -0.12116252489E+03  0.18475307241E+03  0.00000000000E+00 0.  1.
         11    1    5    5    0    0 -0.21873691512E+02  0.86652534616E+01 -0.28162318075E+02  0.36696882119E+02  0.00000000000E+00 0.  1.
        -11    1    5    5    0    0  0.47615663495E+02  0.18705069600E+03 -0.54673120978E+02  0.20060998091E+03  0.00000000000E+00 0. -1.
          1    1    6    6  503    0 -0.10150966840E+03 -0.19010459228E+03  0.55398286628E+03  0.59442491950E+03  0.00000000000E+00 0. -1.
         -1    1    6    6    0  503 -0.35586356841E+02 -0.76733657982E+02  0.43515963524E+03  0.44330390389E+03  0.00000000000E+00 0.  1.
<mgrwt>
<rscale>  0 0.12400966E+04</rscale>
<asrwt>0</asrwt>
<pdfrwt beam="1">  1        2 0.17370376E+00 0.12400966E+04</pdfrwt>
<pdfrwt beam="2">  1       -1 0.52385986E-01 0.12400966E+04</pdfrwt>
<totfact> 0.86112499E+01</totfact>
</mgrwt>
</event>
<event>
12    6  0.9491186E-008  0.1756276E+04  0.7818608E-02  0.8729903E-01
         -1   -1    0    0    0  501 -0.00000000000E+00  0.00000000000E+00  0.19277438105E+04  0.19277438105E+04  0.00000000000E+00 0.  1.
          2   -1    0    0  501    0  0.00000000000E+00 -0.00000000000E+00 -0.40001487608E+03  0.40001487608E+03  0.00000000000E+00 0. -1.
         24    2    1    2    0    0  0.28382642376E+03  0.47508767102E+02  0.13191002296E+04  0.13531976083E+04  0.91125351219E+02 0.  0.
        254    2    1    2    0    0 -0.28382642376E+03 -0.47508767102E+02  0.20862870482E+03  0.97456107826E+03  0.90742979729E+03 0.  0.
         23    2    4    4    0    0  0.15639304392E+03  0.29938925888E+03  0.20653417433E+03  0.40593778885E+03  0.89646030208E+02 0.  0.
         23    2    4    4    0    0 -0.44021946768E+03 -0.34689802598E+03  0.20945304947E+01  0.56862328941E+03  0.95899103518E+02 0.  0.
          2    1    3    3  502    0  0.92892856593E+01  0.17881092435E+02  0.41964994403E+02  0.46551960753E+02  0.00000000000E+00 0. -1.
         -1    1    3    3    0  502  0.27453713810E+03  0.29627674667E+02  0.12771352352E+04  0.13066456475E+04  0.00000000000E+00 0.  1.
         11    1    5    5    0    0 -0.55780294376E+01 -0.25052292782E+01  0.76520540933E+01  0.97951272574E+01  0.00000000000E+00 0. -1.
        -11    1    5    5    0    0  0.16197107335E+03  0.30189448816E+03  0.19888212023E+03  0.39614266159E+03  0.00000000000E+00 0.  1.
          1    1    6    6  503    0 -0.36179410373E+03 -0.28335311283E+03 -0.35487638542E+02  0.46091575427E+03  0.00000000000E+00 0. -1.
         -1    1    6    6    0  503 -0.78425363943E+02 -0.63544913150E+02  0.37582169037E+02  0.10770753514E+03  0.00000000000E+00 0.  1.
<mgrwt>
<rscale>  0 0.17562758E+04</rscale>
<asrwt>0</asrwt>
<pdfrwt beam="1">  1        2 0.61540751E-01 0.17562758E+04</pdfrwt>
<pdfrwt beam="2">  1       -1 0.29657597E+00 0.17562758E+04</pdfrwt>
<totfact> 0.29975368E+00</totfact>
</mgrwt>
</event>
<event>
12    6  0.9491186E-008  0.1849349E+04  0.7818608E-02  0.8680488E-01
          2   -1    0    0  501    0  0.00000000000E+00  0.00000000000E+00  0.13297092634E+04  0.13297092634E+04  0.00000000000E+00 0. -1.
         -1   -1    0    0    0  501 -0.00000000000E+00 -0.00000000000E+00 -0.64301491834E+03  0.64301491834E+03  0.00000000000E+00 0.  1.
         24    2    1    2    0    0 -0.44066324712E+03  0.53048276490E+03  0.11954247064E+03  0.70448882565E+03  0.80112682842E+02 0.  0.
        254    2    1    2    0    0  0.44066324712E+03 -0.53048276490E+03  0.56715187444E+03  0.12682353561E+04  0.90064621723E+03 0.  0.
         23    2    4    4    0    0 -0.11434177181E+03  0.17878625344E+03  0.14676617451E+03  0.27021909764E+03  0.80246405207E+02 0.  0.
         23    2    4    4    0    0  0.55500501893E+03 -0.70926901834E+03  0.42038569993E+03  0.99801625849E+03  0.90659826177E+02 0.  0.
          2    1    3    3  502    0 -0.30894266193E+03  0.36169458562E+03  0.45083294460E+02  0.47780858622E+03  0.00000000000E+00 0. -1.
         -1    1    3    3    0  502 -0.13172058519E+03  0.16878817929E+03  0.74459176181E+02  0.22668023943E+03  0.00000000000E+00 0.  1.
         11    1    5    5    0    0 -0.30469022939E+01 -0.70492703234E+01  0.14523299894E+02  0.16428696403E+02  0.00000000000E+00 0. -1.
        -11    1    5    5    0    0 -0.11129486951E+03  0.18583552376E+03  0.13224287462E+03  0.25379040124E+03  0.00000000000E+00 0.  1.
          1    1    6    6  503    0  0.96294572087E+02 -0.17879748543E+03  0.77262782708E+02  0.21728028673E+03  0.00000000000E+00 0. -1.
         -1    1    6    6    0  503  0.45871044684E+03 -0.53047153291E+03  0.34312291722E+03  0.78073597175E+03  0.00000000000E+00 0.  1.
<mgrwt>
<rscale>  0 0.18493490E+04</rscale>
<asrwt>0</asrwt>
<pdfrwt beam="1">  1        2 0.20457066E+00 0.18493490E+04</pdfrwt>
<pdfrwt beam="2">  1       -1 0.98925372E-01 0.18493490E+04</pdfrwt>
<totfact> 0.16636499E+01</totfact>
</mgrwt>
</event>
<event>
12    6  0.9491186E-008  0.1661991E+04  0.7818608E-02  0.8783344E-01
          2   -1    0    0  501    0  0.00000000000E+00  0.00000000000E+00  0.96385584579E+03  0.96385584579E+03  0.00000000000E+00 0. -1.
         -1   -1    0    0    0  501 -0.00000000000E+00 -0.00000000000E+00 -0.71644888215E+03  0.71644888215E+03  0.00000000000E+00 0.  1.
         24    2    1    2    0    0 -0.11396505815E+03 -0.33241580041E+03  0.55443780866E+03  0.66143954832E+03  0.81318470061E+02 0.  0.
        254    2    1    2    0    0  0.11396505815E+03  0.33241580041E+03 -0.30703084502E+03  0.10188651796E+04  0.90572071611E+03 0.  0.
         23    2    4    4    0    0  0.18558563369E+03  0.62290331946E+03 -0.17666467687E+03  0.67987482708E+03  0.92567810902E+02 0.  0.
         23    2    4    4    0    0 -0.71620575547E+02 -0.29048751905E+03 -0.13036616815E+03  0.33899035254E+03  0.91687598682E+02 0.  0.
          4    1    3    3  502    0 -0.11664553143E+03 -0.27549131800E+03  0.42224833303E+03  0.51748942119E+03  0.00000000000E+00 0. -1.
         -3    1    3    3    0  502  0.26804732802E+01 -0.56924482410E+02  0.13218947563E+03  0.14395012713E+03  0.00000000000E+00 0.  1.
         11    1    5    5    0    0  0.15636953002E+03  0.57560887344E+03 -0.13819247946E+03  0.61226968443E+03  0.00000000000E+00 0. -1.
        -11    1    5    5    0    0  0.29216103674E+02  0.47294446020E+02 -0.38472197409E+02  0.67605142642E+02  0.00000000000E+00 0.  1.
          4    1    6    6  503    0 -0.35411039663E+02 -0.26329743757E+03 -0.12428446657E+03  0.29330208146E+03  0.00000000000E+00 0. -1.
         -4    1    6    6    0  503 -0.36209535884E+02 -0.27190081478E+02 -0.60817015823E+01  0.45688271075E+02  0.00000000000E+00 0.  1.
<mgrwt>
<rscale>  0 0.16619909E+04</rscale>
<asrwt>0</asrwt>
<pdfrwt beam="1">  1        2 0.14828552E+00 0.16619909E+04</pdfrwt>
<pdfrwt beam="2">  1       -1 0.11022290E+00 0.16619909E+04</pdfrwt>
<totfact> 0.21994618E+01</totfact>
</mgrwt>
</event>
<event>
12    6  0.9491186E-008  0.2984770E+04  0.7818608E-02  0.8248093E-01
          2   -1    0    0  501    0  0.00000000000E+00  0.00000000000E+00  0.38249485831E+04  0.38249485831E+04  0.00000000000E+00 0. -1.
         -1   -1    0    0    0  501 -0.00000000000E+00 -0.00000000000E+00 -0.58228558397E+03  0.58228558397E+03  0.00000000000E+00 0.  1.
         24    2    1    2    0    0 -0.10068996834E+04 -0.10600048624E+03  0.27984261168E+04  0.29770430457E+04  0.80706191118E+02 0.  0.
        254    2    1    2    0    0  0.10068996834E+04  0.10600048624E+03  0.44423688227E+03  0.14301911213E+04  0.90720293230E+03 0.  0.
         23    2    4    4    0    0  0.74047097364E+03  0.39862698273E+03  0.24692455630E+02  0.84632149477E+03  0.91921819971E+02 0.  0.
         23    2    4    4    0    0  0.26642870976E+03 -0.29262649650E+03  0.41954442664E+03  0.58386962653E+03  0.90948837407E+02 0.  0.
          4    1    3    3  502    0 -0.58776361722E+03 -0.97440653170E+02  0.15892081352E+04  0.16972163231E+04  0.00000000000E+00 0. -1.
         -3    1    3    3    0  502 -0.41913606618E+03 -0.85598330658E+01  0.12092179817E+04  0.12798267226E+04  0.00000000000E+00 0.  1.
         11    1    5    5    0    0  0.39651538476E+03  0.26306784238E+03  0.81652370685E+00  0.47584641089E+03  0.00000000000E+00 0. -1.
        -11    1    5    5    0    0  0.34395558887E+03  0.13555914036E+03  0.23875931923E+02  0.37047508388E+03  0.00000000000E+00 0.  1.
          4    1    6    6  503    0  0.24666029909E+03 -0.24510840836E+03  0.32369441097E+03  0.47507631670E+03  0.00000000000E+00 0. -1.
         -4    1    6    6    0  503  0.19768410673E+02 -0.47518088140E+02  0.95850015668E+02  0.10879330983E+03  0.00000000000E+00 0.  1.
<mgrwt>
<rscale>  0 0.29847696E+04</rscale>
<asrwt>0</asrwt>
<pdfrwt beam="1">  1        2 0.58845361E+00 0.29847696E+04</pdfrwt>
<pdfrwt beam="2">  1       -1 0.89582400E-01 0.29847696E+04</pdfrwt>
<totfact> 0.55820684E-01</totfact>
</mgrwt>
</event>
<event>
12    6  0.9491186E-008  0.1357618E+04  0.7818608E-02  0.8985081E-01
          2   -1    0    0  501    0  0.00000000000E+00  0.00000000000E+00  0.33307609287E+04  0.33307609287E+04  0.00000000000E+00 0. -1.
         -1   -1    0    0    0  501 -0.00000000000E+00 -0.00000000000E+00 -0.13834126756E+03  0.13834126756E+03  0.00000000000E+00 0.  1.
         24    2    1    2    0    0 -0.27934333927E+03  0.47877761695E+02  0.15329044917E+04  0.15609968307E+04  0.81178468034E+02 0.  0.
        254    2    1    2    0    0  0.27934333927E+03 -0.47877761695E+02  0.16595151695E+04  0.19081053656E+04  0.89808157038E+03 0.  0.
         23    2    4    4    0    0  0.42179108698E+03 -0.33414844670E+03  0.66826953816E+03  0.86262790530E+03  0.89329848809E+02 0.  0.
         23    2    4    4    0    0 -0.14244774771E+03  0.28627068500E+03  0.99124563132E+03  0.10454774603E+04  0.90625340609E+02 0.  0.
          2    1    3    3  502    0 -0.15003888000E+03  0.55122729726E+02  0.99260885433E+03  0.10053966971E+04  0.00000000000E+00 0. -1.
         -1    1    3    3    0  502 -0.12930445927E+03 -0.72449680305E+01  0.54029563733E+03  0.55560013361E+03  0.00000000000E+00 0.  1.
         11    1    5    5    0    0  0.39987802495E+03 -0.33454626491E+03  0.65437441784E+03  0.83667766608E+03  0.00000000000E+00 0.  1.
        -11    1    5    5    0    0  0.21913062028E+02  0.39781820978E+00  0.13895120325E+02  0.25950239221E+02  0.00000000000E+00 0. -1.
          1    1    6    6  503    0 -0.23625379478E+02  0.83968776418E+01  0.38461499016E+02  0.45912449468E+02  0.00000000000E+00 0. -1.
         -1    1    6    6    0  503 -0.11882236823E+03  0.27787380736E+03  0.95278413231E+03  0.99956501079E+03  0.00000000000E+00 0.  1.
<mgrwt>
<rscale>  0 0.13576180E+04</rscale>
<asrwt>0</asrwt>
<pdfrwt beam="1">  1        2 0.51242469E+00 0.13576180E+04</pdfrwt>
<pdfrwt beam="2">  1       -1 0.21283275E-01 0.13576180E+04</pdfrwt>
<totfact> 0.22096213E+01</totfact>
</mgrwt>
</event>
<event>
12    6  0.9491186E-008  0.2662567E+04  0.7818608E-02  0.8347254E-01
          2   -1    0    0  501    0  0.00000000000E+00  0.00000000000E+00  0.23461755454E+04  0.23461755454E+04  0.00000000000E+00 0. -1.
         -1   -1    0    0    0  501 -0.00000000000E+00 -0.00000000000E+00 -0.75540623989E+03  0.75540623989E+03  0.00000000000E+00 0.  1.
         24    2    1    2    0    0  0.25522602837E+02  0.11750422139E+04  0.77449856779E+03  0.14097797712E+04  0.79090860376E+02 0.  0.
        254    2    1    2    0    0 -0.25522602837E+02 -0.11750422139E+04  0.81627073771E+03  0.16918020141E+04  0.90250791130E+03 0.  0.
         23    2    4    4    0    0  0.12290357445E+03 -0.17364310204E+03 -0.15882757583E+03  0.28329137083E+03  0.98846276841E+02 0.  0.
         23    2    4    4    0    0 -0.14842617729E+03 -0.10013991118E+04  0.97509831354E+03  0.14085106432E+04  0.90857029377E+02 0.  0.
          4    1    3    3  502    0  0.17757953731E+02  0.11453279262E+04  0.74056497322E+03  0.13640116873E+04  0.00000000000E+00 0. -1.
         -3    1    3    3    0  502  0.77646491061E+01  0.29714287660E+02  0.33933594571E+02  0.45768083938E+02  0.00000000000E+00 0.  1.
         11    1    5    5    0    0  0.54536624978E+02 -0.52344263913E+02 -0.49286057068E+01  0.75752601162E+02  0.00000000000E+00 0.  1.
        -11    1    5    5    0    0  0.68366949470E+02 -0.12129883813E+03 -0.15389897012E+03  0.20753876967E+03  0.00000000000E+00 0. -1.
          4    1    6    6  503    0 -0.53165153915E+01 -0.13443628195E+03  0.16957610450E+03  0.21646578126E+03  0.00000000000E+00 0.  1.
         -4    1    6    6    0  503 -0.14310966189E+03 -0.86696282987E+03  0.80552220904E+03  0.11920448620E+04  0.00000000000E+00 0. -1.
<mgrwt>
<rscale>  0 0.26625669E+04</rscale>
<asrwt>0</asrwt>
<pdfrwt beam="1">  1        2 0.36095008E+00 0.26625669E+04</pdfrwt>
<pdfrwt beam="2">  1       -1 0.11621635E+00 0.26625669E+04</pdfrwt>
<totfact> 0.28575388E+00</totfact>
</mgrwt>
</event>
<event>
12    6  0.9491186E-008  0.1202891E+04  0.7818608E-02  0.9110330E-01
         -1   -1    0    0    0  501 -0.00000000000E+00  0.00000000000E+00  0.10841339399E+03  0.10841339399E+03  0.00000000000E+00 0.  1.
          2   -1    0    0  501    0  0.00000000000E+00 -0.00000000000E+00 -0.33366436021E+04  0.33366436021E+04  0.00000000000E+00 0. -1.
         24    2    1    2    0    0 -0.13414229020E+03 -0.21066611914E+03 -0.67197504860E+03  0.72175774863E+03  0.83722243181E+02 0.  0.
        254    2    1    2    0    0  0.13414229020E+03  0.21066611914E+03 -0.25562551595E+04  0.27232992474E+04  0.90528668548E+03 0.  0.
         23    2    4    4    0    0  0.35666855517E+03  0.19021018803E+03 -0.24017402992E+04  0.24370944541E+04  0.87638686275E+02 0.  0.
         23    2    4    4    0    0 -0.22252626497E+03  0.20455931111E+02 -0.15451486026E+03  0.28620479335E+03  0.90010876989E+02 0.  0.
          2    1    3    3  502    0 -0.12960560830E+03 -0.13582078633E+03 -0.50300824847E+03  0.53690054733E+03  0.00000000000E+00 0. -1.
         -1    1    3    3    0  502 -0.45366818969E+01 -0.74845332811E+02 -0.16896680013E+03  0.18485720130E+03  0.00000000000E+00 0.  1.
         11    1    5    5    0    0  0.29930421472E+03  0.12207190894E+03 -0.17990879397E+04  0.18278955054E+04  0.00000000000E+00 0. -1.
        -11    1    5    5    0    0  0.57364340448E+02  0.68138279089E+02 -0.60265235958E+03  0.60919894873E+03  0.00000000000E+00 0.  1.
          2    1    6    6  503    0 -0.85705067734E+02 -0.14937235800E+02 -0.10522473600E+03  0.13653103938E+03  0.00000000000E+00 0. -1.
         -2    1    6    6    0  503 -0.13682119724E+03  0.35393166912E+02 -0.49290124262E+02  0.14967375397E+03  0.00000000000E+00 0.  1.
<mgrwt>
<rscale>  0 0.12028913E+04</rscale>
<asrwt>0</asrwt>
<pdfrwt beam="1">  1        2 0.51332980E+00 0.12028913E+04</pdfrwt>
<pdfrwt beam="2">  1       -1 0.16678983E-01 0.12028913E+04</pdfrwt>
<totfact> 0.33422260E+01</totfact>
</mgrwt>
</event>
<event>
12    6  0.9491186E-008  0.1954116E+04  0.7818608E-02  0.8628378E-01
          2   -1    0    0  501    0  0.00000000000E+00  0.00000000000E+00  0.13768004150E+04  0.13768004150E+04  0.00000000000E+00 0. -1.
         -1   -1    0    0    0  501 -0.00000000000E+00 -0.00000000000E+00 -0.69337765338E+03  0.69337765338E+03  0.00000000000E+00 0.  1.
         24    2    1    2    0    0  0.39302742931E+03 -0.11474127583E+03 -0.41967662454E+03  0.59182464752E+03  0.80571854018E+02 0.  0.
        254    2    1    2    0    0 -0.39302742931E+03  0.11474127583E+03  0.11030993862E+04  0.14783534209E+04  0.89502204479E+03 0.  0.
         23    2    4    4    0    0  0.12971258268E+03  0.31157551160E+03  0.17405916729E+03  0.39038388913E+03  0.90544649974E+02 0.  0.
         23    2    4    4    0    0 -0.52274001198E+03 -0.19683423577E+03  0.92904021889E+03  0.10879695318E+04  0.92526413539E+02 0.  0.
          4    1    3    3  502    0  0.53741294966E+02 -0.27375824250E+02 -0.28554979450E+02  0.66730423267E+02  0.00000000000E+00 0. -1.
         -3    1    3    3    0  502  0.33928613434E+03 -0.87365451580E+02 -0.39112164509E+03  0.52509422425E+03  0.00000000000E+00 0.  1.
         11    1    5    5    0    0  0.22219290621E+02  0.12387692754E+03  0.10325432692E+03  0.16279019036E+03  0.00000000000E+00 0. -1.
        -11    1    5    5    0    0  0.10749329205E+03  0.18769858406E+03  0.70804840370E+02  0.22759369876E+03  0.00000000000E+00 0.  1.
          4    1    6    6  503    0 -0.14836078663E+03 -0.10179036240E+03  0.29711292800E+03  0.34734463127E+03  0.00000000000E+00 0. -1.
         -4    1    6    6    0  503 -0.37437922536E+03 -0.95043873374E+02  0.63192729090E+03  0.74062490049E+03  0.00000000000E+00 0.  1.
<mgrwt>
<rscale>  0 0.19541163E+04</rscale>
<asrwt>0</asrwt>
<pdfrwt beam="1">  1        2 0.21181545E+00 0.19541163E+04</pdfrwt>
<pdfrwt beam="2">  1       -1 0.10667349E+00 0.19541163E+04</pdfrwt>
<totfact> 0.13011480E+01</totfact>
</mgrwt>
</event>
<event>
12    6  0.9491186E-008  0.1743438E+04  0.7818608E-02  0.8736971E-01
          2   -1    0    0  501    0  0.00000000000E+00  0.00000000000E+00  0.27757497942E+03  0.27757497942E+03  0.00000000000E+00 0. -1.
         -1   -1    0    0    0  501 -0.00000000000E+00 -0.00000000000E+00 -0.27376174793E+04  0.27376174793E+04  0.00000000000E+00 0.  1.
         24    2    1    2    0    0  0.15475031561E+03 -0.32436872958E+03 -0.18366487397E+04  0.18731871828E+04  0.79930567929E+02 0.  0.
        254    2    1    2    0    0 -0.15475031561E+03  0.32436872958E+03 -0.62339376017E+03  0.11420052760E+04  0.88678832716E+03 0.  0.
         23    2    4    4    0    0 -0.45699155822E+03  0.17955852320E+03 -0.91986599915E+02  0.50785003024E+03  0.91474428740E+02 0.  0.
         23    2    4    4    0    0  0.30224124261E+03  0.14481020638E+03 -0.53140716026E+03  0.63415524572E+03  0.86252774440E+02 0.  0.
          2    1    3    3  502    0  0.71793369667E+02 -0.75517941650E+02 -0.60598282267E+03  0.61487594588E+03  0.00000000000E+00 0. -1.
         -1    1    3    3    0  502  0.82956945946E+02 -0.24885078793E+03 -0.12306659171E+04  0.12583112369E+04  0.00000000000E+00 0.  1.
         11    1    5    5    0    0 -0.18024125237E+02  0.13768080655E+02  0.14191224696E+02  0.26754812536E+02  0.00000000000E+00 0.  1.
        -11    1    5    5    0    0 -0.43896743298E+03  0.16579044254E+03 -0.10617782461E+03  0.48109521770E+03  0.00000000000E+00 0. -1.
          1    1    6    6  503    0  0.17699646971E+03  0.83695493657E+02 -0.22971194789E+03  0.30182820436E+03  0.00000000000E+00 0. -1.
         -1    1    6    6    0  503  0.12524477290E+03  0.61114712720E+02 -0.30169521237E+03  0.33232704135E+03  0.00000000000E+00 0.  1.
<mgrwt>
<rscale>  0 0.17434381E+04</rscale>
<asrwt>0</asrwt>
<pdfrwt beam="1">  1        2 0.42703842E-01 0.17434381E+04</pdfrwt>
<pdfrwt beam="2">  1       -1 0.42117193E+00 0.17434381E+04</pdfrwt>
<totfact> 0.66749231E-01</totfact>
</mgrwt>
</event>
<event>
12    6  0.9491186E-008  0.1348158E+04  0.7818608E-02  0.8992224E-01
          2   -1    0    0  501    0  0.00000000000E+00  0.00000000000E+00  0.20809945238E+04  0.20809945238E+04  0.00000000000E+00 0. -1.
         -1   -1    0    0    0  501 -0.00000000000E+00 -0.00000000000E+00 -0.21834867370E+03  0.21834867370E+03  0.00000000000E+00 0.  1.
         24    2    1    2    0    0  0.27882707809E+03  0.18990914502E+02  0.92648474964E+03  0.97105492744E+03  0.80426901490E+02 0.  0.
        254    2    1    2    0    0 -0.27882707809E+03 -0.18990914502E+02  0.93616110051E+03  0.13282882701E+04  0.89991495602E+03 0.  0.
         23    2    4    4    0    0 -0.32608005011E+03 -0.25818133106E+03  0.81565651776E+02  0.43378932450E+03  0.92381944738E+02 0.  0.
         23    2    4    4    0    0  0.47252972016E+02  0.23919041656E+03  0.85459544873E+03  0.89449894560E+03  0.10173536232E+03 0.  0.
          2    1    3    3  502    0  0.23986374710E+03  0.14920834299E+02  0.86804458403E+03  0.90069897765E+03  0.00000000000E+00 0. -1.
         -1    1    3    3    0  502  0.38963330997E+02  0.40700802026E+01  0.58440165604E+02  0.70355949792E+02  0.00000000000E+00 0.  1.
         11    1    5    5    0    0 -0.12205536349E+03 -0.13051112315E+03 -0.29150975700E+01  0.17871531221E+03  0.00000000000E+00 0. -1.
        -11    1    5    5    0    0 -0.20402468662E+03 -0.12767020790E+03  0.84480749346E+02  0.25507401229E+03  0.00000000000E+00 0.  1.
          3    1    6    6  503    0 -0.14677711876E+02  0.11216836730E+03  0.26370328418E+03  0.28694354834E+03  0.00000000000E+00 0. -1.
         -3    1    6    6    0  503  0.61930683891E+02  0.12702204926E+03  0.59089216455E+03  0.60755539725E+03  0.00000000000E+00 0.  1.
<mgrwt>
<rscale>  0 0.13481578E+04</rscale>
<asrwt>0</asrwt>
<pdfrwt beam="1">  1        2 0.32015299E+00 0.13481578E+04</pdfrwt>
<pdfrwt beam="2">  1       -1 0.33592105E-01 0.13481578E+04</pdfrwt>
<totfact> 0.56022538E+01</totfact>
</mgrwt>
</event>
<event>
12    6  0.9491186E-008  0.2955934E+04  0.7818608E-02  0.8256427E-01
          2   -1    0    0  501    0  0.00000000000E+00  0.00000000000E+00  0.10285742308E+04  0.10285742308E+04  0.00000000000E+00 0. -1.
         -1   -1    0    0    0  501 -0.00000000000E+00 -0.00000000000E+00 -0.21237038968E+04  0.21237038968E+04  0.00000000000E+00 0.  1.
         24    2    1    2    0    0  0.49990606329E+03  0.96365769385E+03 -0.13636077292E+04  0.17456557947E+04  0.96674149826E+02 0.  0.
        254    2    1    2    0    0 -0.49990606329E+03 -0.96365769385E+03  0.26847806321E+03  0.14066223328E+04  0.85320788428E+03 0.  0.
         23    2    4    4    0    0 -0.14156965683E+03 -0.78489573931E+03  0.48986541773E+03  0.94039326031E+03  0.90928913016E+02 0.  0.
         23    2    4    4    0    0 -0.35833640646E+03 -0.17876195455E+03 -0.22138735452E+03  0.46622907254E+03  0.89422428653E+02 0.  0.
          2    1    3    3  502    0  0.25351040661E+03  0.42738834311E+03 -0.68611982884E+03  0.84716512063E+03  0.00000000000E+00 0. -1.
         -1    1    3    3    0  502  0.24639565668E+03  0.53626935075E+03 -0.67748790040E+03  0.89849067406E+03  0.00000000000E+00 0.  1.
         11    1    5    5    0    0 -0.15071262951E+03 -0.77262883538E+03  0.47725014132E+03  0.92056358354E+03  0.00000000000E+00 0.  1.
        -11    1    5    5    0    0  0.91429726891E+01 -0.12266903928E+02  0.12615276413E+02  0.19829676764E+02  0.00000000000E+00 0. -1.
          4    1    6    6  503    0 -0.17398882393E+03 -0.40831343215E+02 -0.78018020879E+02  0.19500287440E+03  0.00000000000E+00 0.  1.
         -4    1    6    6    0  503 -0.18434758253E+03 -0.13793061133E+03 -0.14336933364E+03  0.27122619814E+03  0.00000000000E+00 0. -1.
<mgrwt>
<rscale>  0 0.29559344E+04</rscale>
<asrwt>0</asrwt>
<pdfrwt beam="1">  1        2 0.15824219E+00 0.29559344E+04</pdfrwt>
<pdfrwt beam="2">  1       -1 0.32672367E+00 0.29559344E+04</pdfrwt>
<totfact> 0.52290847E-01</totfact>
</mgrwt>
</event>
<event>
12    6  0.9491186E-008  0.1363546E+04  0.7818608E-02  0.8980637E-01
          2   -1    0    0  501    0  0.00000000000E+00  0.00000000000E+00  0.79697729150E+03  0.79697729150E+03  0.00000000000E+00 0. -1.
         -1   -1    0    0    0  501 -0.00000000000E+00 -0.00000000000E+00 -0.58322150310E+03  0.58322150310E+03  0.00000000000E+00 0.  1.
         24    2    1    2    0    0  0.22059180541E+02  0.17418025880E+03 -0.27513063284E+03  0.33649017519E+03  0.81874311429E+02 0.  0.
        254    2    1    2    0    0 -0.22059180541E+02 -0.17418025880E+03  0.48888642124E+03  0.10437086194E+04  0.90525818381E+03 0.  0.
         23    2    4    4    0    0  0.35343463084E+02 -0.37625718513E+03 -0.10876096247E+03  0.40360977124E+03  0.90847513683E+02 0.  0.
         23    2    4    4    0    0 -0.57402643625E+02  0.20207692632E+03  0.59764738370E+03  0.64009884817E+03  0.91727817657E+02 0.  0.
          4    1    3    3  502    0  0.71077665142E+00 -0.91336486179E+01 -0.13726060768E+02  0.16502529646E+02  0.00000000000E+00 0. -1.
         -3    1    3    3    0  502  0.21348403889E+02  0.18331390742E+03 -0.26140457207E+03  0.31998764555E+03  0.00000000000E+00 0.  1.
         11    1    5    5    0    0 -0.17118700873E+02 -0.15063672260E+03 -0.10433617800E+02  0.15196490548E+03  0.00000000000E+00 0. -1.
        -11    1    5    5    0    0  0.52462163958E+02 -0.22562046252E+03 -0.98327344666E+02  0.25164486576E+03  0.00000000000E+00 0.  1.
          3    1    6    6  503    0  0.84477992211E-01  0.14453146333E+03  0.43242599352E+03  0.45594033700E+03  0.00000000000E+00 0. -1.
         -3    1    6    6    0  503 -0.57487121617E+02  0.57545462994E+02  0.16522139018E+03  0.18415851117E+03  0.00000000000E+00 0.  1.
<mgrwt>
<rscale>  0 0.13635458E+04</rscale>
<asrwt>0</asrwt>
<pdfrwt beam="1">  1        2 0.12261189E+00 0.13635458E+04</pdfrwt>
<pdfrwt beam="2">  1       -1 0.89726385E-01 0.13635458E+04</pdfrwt>
<totfact> 0.46927611E+01</totfact>
</mgrwt>
</event>
<event>
12    6  0.9491186E-008  0.1573685E+04  0.7818608E-02  0.8836879E-01
         -1   -1    0    0    0  501 -0.00000000000E+00  0.00000000000E+00  0.54945152921E+03  0.54945152921E+03  0.00000000000E+00 0.  1.
          2   -1    0    0  501    0  0.00000000000E+00 -0.00000000000E+00 -0.11267983300E+04  0.11267983300E+04  0.00000000000E+00 0. -1.
         24    2    1    2    0    0  0.11512046537E+03 -0.12413976507E+03 -0.72746703181E+03  0.75145325176E+03  0.82524568365E+02 0.  0.
        254    2    1    2    0    0 -0.11512046537E+03  0.12413976507E+03  0.15012023106E+03  0.92479660742E+03  0.89668794935E+03 0.  0.
         23    2    4    4    0    0 -0.29976886416E+03  0.20275078775E+03 -0.26336594775E+03  0.45602493110E+03  0.87337629294E+02 0.  0.
         23    2    4    4    0    0  0.18464839879E+03 -0.78611022678E+02  0.41348617881E+03  0.46877167632E+03  0.92202713594E+02 0.  0.
          4    1    3    3  502    0  0.11922245605E+03 -0.11362450830E+03 -0.71822222797E+03  0.73686341452E+03  0.00000000000E+00 0. -1.
         -3    1    3    3    0  502 -0.41019906764E+01 -0.10515256771E+02 -0.92448038443E+01  0.14589837236E+02  0.00000000000E+00 0.  1.
         11    1    5    5    0    0 -0.88556908745E+02  0.15259750212E+02 -0.63377206540E+02  0.10996297728E+03  0.00000000000E+00 0.  1.
        -11    1    5    5    0    0 -0.21121195542E+03  0.18749103754E+03 -0.19998874121E+03  0.34606195382E+03  0.00000000000E+00 0. -1.
          4    1    6    6  503    0  0.15036270245E+03 -0.59152291755E+02  0.22990777475E+03  0.28100804401E+03  0.00000000000E+00 0. -1.
         -4    1    6    6    0  503  0.34285696342E+02 -0.19458730923E+02  0.18357840406E+03  0.18776363231E+03  0.00000000000E+00 0.  1.
<mgrwt>
<rscale>  0 0.15736849E+04</rscale>
<asrwt>0</asrwt>
<pdfrwt beam="1">  1        2 0.17335359E+00 0.15736849E+04</pdfrwt>
<pdfrwt beam="2">  1       -1 0.84531006E-01 0.15736849E+04</pdfrwt>
<totfact> 0.31854068E+01</totfact>
</mgrwt>
</event>
<event>
12    6  0.9491186E-008  0.1700523E+04  0.7818608E-02  0.8761066E-01
          2   -1    0    0  501    0  0.00000000000E+00  0.00000000000E+00  0.16826824315E+04  0.16826824315E+04  0.00000000000E+00 0. -1.
         -3   -1    0    0    0  501 -0.00000000000E+00 -0.00000000000E+00 -0.42963832299E+03  0.42963832299E+03  0.00000000000E+00 0.  1.
         24    2    1    2    0    0 -0.20116404687E+03 -0.39788317835E+02  0.11649990836E+04  0.11855918927E+04  0.79719429305E+02 0.  0.
        254    2    1    2    0    0  0.20116404687E+03  0.39788317835E+02  0.88045024896E+02  0.92672886171E+03  0.89945782154E+03 0.  0.
         23    2    4    4    0    0 -0.17251314161E+03  0.26982208396E+03  0.28391256827E+03  0.43795205997E+03  0.92902741571E+02 0.  0.
         23    2    4    4    0    0  0.37367718848E+03 -0.23003376612E+03 -0.19586754337E+03  0.48877680174E+03  0.89378367793E+02 0.  0.
          2    1    3    3  502    0 -0.14526461277E+03  0.93666614290E+01  0.76600300105E+03  0.77971157467E+03  0.00000000000E+00 0. -1.
         -1    1    3    3    0  502 -0.55899434108E+02 -0.49154979264E+02  0.39899608254E+03  0.40588031807E+03  0.00000000000E+00 0.  1.
         11    1    5    5    0    0 -0.19952285534E+02  0.33256701308E+02  0.91152479727E+00  0.38793462817E+02  0.00000000000E+00 0. -1.
        -11    1    5    5    0    0 -0.15256085607E+03  0.23656538265E+03  0.28300104347E+03  0.39915859715E+03  0.00000000000E+00 0.  1.
          4    1    6    6  503    0  0.45446142411E+02 -0.35553753796E+02 -0.61387481154E+02  0.84248703915E+02  0.00000000000E+00 0. -1.
         -4    1    6    6    0  503  0.32823104607E+03 -0.19448001233E+03 -0.13448006222E+03  0.40452809783E+03  0.00000000000E+00 0.  1.
<mgrwt>
<rscale>  0 0.17005233E+04</rscale>
<asrwt>0</asrwt>
<pdfrwt beam="1">  1        2 0.25887422E+00 0.17005233E+04</pdfrwt>
<pdfrwt beam="2">  1       -3 0.66098204E-01 0.17005233E+04</pdfrwt>
<totfact> 0.13475885E+01</totfact>
</mgrwt>
</event>
<event>
12    6  0.9491186E-008  0.1461432E+04  0.7818608E-02  0.8910513E-01
          2   -1    0    0  501    0  0.00000000000E+00  0.00000000000E+00  0.10808374305E+04  0.10808374305E+04  0.00000000000E+00 0. -1.
         -1   -1    0    0    0  501 -0.00000000000E+00 -0.00000000000E+00 -0.49401116072E+03  0.49401116072E+03  0.00000000000E+00 0.  1.
         24    2    1    2    0    0 -0.22046620636E+03 -0.36917662133E+03  0.40923166258E+02  0.44127954322E+03  0.90311703803E+02 0.  0.
        254    2    1    2    0    0  0.22046620636E+03  0.36917662133E+03  0.54590310353E+03  0.11335690480E+04  0.89558464829E+03 0.  0.
         23    2    4    4    0    0 -0.61641029558E+02 -0.22255236212E+03 -0.38397427445E+02  0.25072774107E+03  0.89782332866E+02 0.  0.
         23    2    4    4    0    0  0.28210723592E+03  0.59172898345E+03  0.58430053098E+03  0.88284130693E+03  0.90961422109E+02 0.  0.
          2    1    3    3  502    0 -0.42847069901E+02 -0.21236665666E+02 -0.43110223701E+01  0.48015125550E+02  0.00000000000E+00 0. -1.
         -1    1    3    3    0  502 -0.17761913646E+03 -0.34793995567E+03  0.45234188628E+02  0.39326441767E+03  0.00000000000E+00 0.  1.
         11    1    5    5    0    0 -0.70298516031E+02 -0.89129219187E+02 -0.93148111185E+01  0.11389760654E+03  0.00000000000E+00 0. -1.
        -11    1    5    5    0    0  0.86574864725E+01 -0.13342314293E+03 -0.29082616327E+02  0.13683013453E+03  0.00000000000E+00 0.  1.
          2    1    6    6  503    0  0.24666004508E+03  0.51226231119E+03  0.46119938548E+03  0.73209202049E+03  0.00000000000E+00 0. -1.
         -2    1    6    6    0  503  0.35447190839E+02  0.79466672260E+02  0.12310114550E+03  0.15074928644E+03  0.00000000000E+00 0.  1.
<mgrwt>
<rscale>  0 0.14614318E+04</rscale>
<asrwt>0</asrwt>
<pdfrwt beam="1">  1        2 0.16628268E+00 0.14614318E+04</pdfrwt>
<pdfrwt beam="2">  1       -1 0.76001718E-01 0.14614318E+04</pdfrwt>
<totfact> 0.43036552E+01</totfact>
</mgrwt>
</event>
<event>
12    6  0.9491186E-008  0.4208285E+04  0.7818608E-02  0.7963798E-01
         -1   -1    0    0    0  501 -0.00000000000E+00  0.00000000000E+00  0.14242714353E+04  0.14242714353E+04  0.00000000000E+00 0.  1.
          2   -1    0    0  501    0  0.00000000000E+00 -0.00000000000E+00 -0.31085482003E+04  0.31085482003E+04  0.00000000000E+00 0. -1.
         24    2    1    2    0    0 -0.34214050333E+03  0.90714660416E+03 -0.26986517467E+04  0.28686695991E+04  0.81048954577E+02 0.  0.
        254    2    1    2    0    0  0.34214050333E+03 -0.90714660416E+03  0.10143749818E+04  0.16641500365E+04  0.89468634444E+03 0.  0.
         23    2    4    4    0    0  0.55450345805E+03 -0.57412353056E+03  0.96495955396E+03  0.12555271613E+04  0.90053309546E+02 0.  0.
         23    2    4    4    0    0 -0.21236295472E+03 -0.33302307361E+03  0.49415427804E+02  0.40862287525E+03  0.92349215365E+02 0.  0.
          2    1    3    3  502    0 -0.34532403853E+03  0.88044244340E+03 -0.26344307410E+04  0.27990450009E+04  0.00000000000E+00 0. -1.
         -1    1    3    3    0  502  0.31835352033E+01  0.26704160769E+02 -0.64221005698E+02  0.69624598179E+02  0.00000000000E+00 0.  1.
         11    1    5    5    0    0  0.46053944567E+03 -0.45164870152E+03  0.82429568446E+03  0.10466835749E+04  0.00000000000E+00 0. -1.
        -11    1    5    5    0    0  0.93964012382E+02 -0.12247482904E+03  0.14066386950E+03  0.20884358634E+03  0.00000000000E+00 0.  1.
          3    1    6    6  503    0 -0.81140678475E+02 -0.21084739330E+03  0.36657687647E+02  0.22887599051E+03  0.00000000000E+00 0. -1.
         -3    1    6    6    0  503 -0.13122227624E+03 -0.12217568030E+03  0.12757740157E+02  0.17974688474E+03  0.00000000000E+00 0.  1.
<mgrwt>
<rscale>  0 0.42082854E+04</rscale>
<asrwt>0</asrwt>
<pdfrwt beam="1">  1        2 0.47823817E+00 0.42082854E+04</pdfrwt>
<pdfrwt beam="2">  1       -1 0.21911869E+00 0.42082854E+04</pdfrwt>
<totfact> 0.14592450E-01</totfact>
</mgrwt>
</event>
<event>
12    6  0.9491186E-008  0.1360557E+04  0.7818608E-02  0.8982875E-01
          2   -1    0    0  501    0  0.00000000000E+00  0.00000000000E+00  0.74137739832E+03  0.74137739832E+03  0.00000000000E+00 0. -1.
         -1   -1    0    0    0  501 -0.00000000000E+00 -0.00000000000E+00 -0.62421529536E+03  0.62421529536E+03  0.00000000000E+00 0.  1.
         24    2    1    2    0    0 -0.14272048621E+03 -0.10564952495E+03  0.35782600447E+03  0.40731062260E+03  0.79570940076E+02 0.  0.
        254    2    1    2    0    0  0.14272048621E+03  0.10564952495E+03 -0.24066390150E+03  0.95828207107E+03  0.91041444131E+03 0.  0.
         23    2    4    4    0    0 -0.19276809026E+03  0.32060126276E+03 -0.36542775579E+03  0.53060147375E+03  0.89753957794E+02 0.  0.
         23    2    4    4    0    0  0.33548857647E+03 -0.21495173780E+03  0.12476385428E+03  0.42768059733E+03  0.92670596583E+02 0.  0.
          2    1    3    3  502    0 -0.12609839859E+03 -0.10508205145E+03  0.35405930289E+03  0.39025765031E+03  0.00000000000E+00 0. -1.
         -1    1    3    3    0  502 -0.16622087624E+02 -0.56747350494E+00  0.37667015743E+01  0.17052972289E+02  0.00000000000E+00 0.  1.
         11    1    5    5    0    0 -0.95353122346E+02  0.21825822170E+03 -0.27032154630E+03  0.36028128966E+03  0.00000000000E+00 0. -1.
        -11    1    5    5    0    0 -0.97414967911E+02  0.10234304106E+03 -0.95106209481E+02  0.17032018409E+03  0.00000000000E+00 0.  1.
          1    1    6    6  503    0  0.22394009431E+03 -0.13921458262E+03  0.12734604072E+03  0.29282568183E+03  0.00000000000E+00 0. -1.
         -1    1    6    6    0  503  0.11154848216E+03 -0.75737155187E+02 -0.25821864342E+01  0.13485491550E+03  0.00000000000E+00 0.  1.
<mgrwt>
<rscale>  0 0.13605574E+04</rscale>
<asrwt>0</asrwt>
<pdfrwt beam="1">  1        2 0.11405806E+00 0.13605574E+04</pdfrwt>
<pdfrwt beam="2">  1       -1 0.96033123E-01 0.13605574E+04</pdfrwt>
<totfact> 0.44359812E+01</totfact>
</mgrwt>
</event>
<event>
12    6  0.9491186E-008  0.1139161E+04  0.7818608E-02  0.9167842E-01
          2   -1    0    0  501    0  0.00000000000E+00  0.00000000000E+00  0.17707843417E+04  0.17707843417E+04  0.00000000000E+00 0. -1.
         -1   -1    0    0    0  501 -0.00000000000E+00 -0.00000000000E+00 -0.18320803920E+03  0.18320803920E+03  0.00000000000E+00 0.  1.
         24    2    1    2    0    0 -0.24156204034E+02 -0.21380647621E+03  0.20898263134E+03  0.31081566631E+03  0.81461075111E+02 0.  0.
        254    2    1    2    0    0  0.24156204034E+02  0.21380647621E+03  0.13785936712E+04  0.16431767146E+04  0.86787814452E+03 0.  0.
         23    2    4    4    0    0 -0.25370948543E+03  0.27780091722E+03  0.21627933261E+03  0.44282899065E+03  0.88198144189E+02 0.  0.
         23    2    4    4    0    0  0.27786568946E+03 -0.63994441007E+02  0.11623143386E+04  0.12003477239E+04  0.92495442576E+02 0.  0.
          4    1    3    3  502    0 -0.78993681007E+01 -0.71118485586E+02  0.21629334438E+02  0.74753375286E+02  0.00000000000E+00 0. -1.
         -3    1    3    3    0  502 -0.16256835933E+02 -0.14268799063E+03  0.18735329690E+03  0.23606229102E+03  0.00000000000E+00 0.  1.
         11    1    5    5    0    0  0.15331980795E+01  0.31932966033E+02  0.19881588806E+02  0.37647610674E+02  0.00000000000E+00 0.  1.
        -11    1    5    5    0    0 -0.25524268351E+03  0.24586795119E+03  0.19639774380E+03  0.40518137997E+03  0.00000000000E+00 0. -1.
          1    1    6    6  503    0  0.26487923746E+03 -0.45640789768E+02  0.96422391129E+03  0.10009854361E+04  0.00000000000E+00 0. -1.
         -1    1    6    6    0  503  0.12986452004E+02 -0.18353651239E+02  0.19809042727E+03  0.19936228787E+03  0.00000000000E+00 0.  1.
<mgrwt>
<rscale>  0 0.11391610E+04</rscale>
<asrwt>0</asrwt>
<pdfrwt beam="1">  1        2 0.27242835E+00 0.11391610E+04</pdfrwt>
<pdfrwt beam="2">  1       -1 0.28185853E-01 0.11391610E+04</pdfrwt>
<totfact> 0.11507156E+02</totfact>
</mgrwt>
</event>
<event>
12    6  0.9491186E-008  0.1201598E+04  0.7818608E-02  0.9111459E-01
          2   -1    0    0  501    0  0.00000000000E+00  0.00000000000E+00  0.63183416925E+03  0.63183416925E+03  0.00000000000E+00 0. -1.
         -1   -1    0    0    0  501 -0.00000000000E+00 -0.00000000000E+00 -0.57128829457E+03  0.57128829457E+03  0.00000000000E+00 0.  1.
         24    2    1    2    0    0  0.14467385205E+03 -0.15199049823E+03  0.16073776500E+03  0.27614100767E+03  0.79909899266E+02 0.  0.
        254    2    1    2    0    0 -0.14467385205E+03  0.15199049823E+03 -0.10019189032E+03  0.92698145616E+03  0.89734306157E+03 0.  0.
         23    2    4    4    0    0 -0.29108880574E+02  0.51385747519E+03 -0.11948719450E+03  0.53613464757E+03  0.90919409004E+02 0.  0.
         23    2    4    4    0    0 -0.11556497147E+03 -0.36186697696E+03  0.19295304175E+02  0.39084680859E+03  0.89921895962E+02 0.  0.
          2    1    3    3  502    0  0.13979521208E+03 -0.16077639500E+03  0.15922533567E+03  0.26597830368E+03  0.00000000000E+00 0. -1.
         -1    1    3    3    0  502  0.48786399613E+01  0.87858967646E+01  0.15124293262E+01  0.10162703986E+02  0.00000000000E+00 0.  1.
         11    1    5    5    0    0 -0.32116099575E+02  0.35128045922E+03 -0.39587702625E+02  0.35495998519E+03  0.00000000000E+00 0. -1.
        -11    1    5    5    0    0  0.30072190009E+01  0.16257701597E+03 -0.79899491872E+02  0.18117466238E+03  0.00000000000E+00 0.  1.
          4    1    6    6  503    0 -0.12665291049E+03 -0.35279769161E+03  0.24409129191E+02  0.37563676142E+03  0.00000000000E+00 0.  1.
         -4    1    6    6    0  503  0.11087939023E+02 -0.90692853515E+01 -0.51138250153E+01  0.15210047168E+02  0.00000000000E+00 0. -1.
<mgrwt>
<rscale>  0 0.12015980E+04</rscale>
<asrwt>0</asrwt>
<pdfrwt beam="1">  1        2 0.97205257E-01 0.12015980E+04</pdfrwt>
<pdfrwt beam="2">  1       -1 0.87890507E-01 0.12015980E+04</pdfrwt>
<totfact> 0.66846129E+01</totfact>
</mgrwt>
</event>
<event>
12    6  0.9491186E-008  0.1385180E+04  0.7818608E-02  0.8964617E-01
          2   -1    0    0  501    0  0.00000000000E+00  0.00000000000E+00  0.95336092149E+03  0.95336092149E+03  0.00000000000E+00 0. -1.
         -1   -1    0    0    0  501 -0.00000000000E+00 -0.00000000000E+00 -0.50314694030E+03  0.50314694030E+03  0.00000000000E+00 0.  1.
         24    2    1    2    0    0  0.45334360150E+02  0.36026340158E+03 -0.45546463585E+02  0.37508369806E+03  0.82270149394E+02 0.  0.
        254    2    1    2    0    0 -0.45334360150E+02 -0.36026340158E+03  0.49576044478E+03  0.10814241637E+04  0.88986228179E+03 0.  0.
         23    2    4    4    0    0  0.30993835708E+03 -0.17433069550E+03  0.55554855300E+03  0.66564716861E+03  0.89437026764E+02 0.  0.
         23    2    4    4    0    0 -0.35527271723E+03 -0.18593270607E+03 -0.59788108218E+02  0.41577699511E+03  0.92229154721E+02 0.  0.
          4    1    3    3  502    0  0.54297034425E+01  0.18745260162E+03 -0.60621059726E+02  0.19708595185E+03  0.00000000000E+00 0. -1.
         -3    1    3    3    0  502  0.39904656708E+02  0.17281079996E+03  0.15074596141E+02  0.17799774621E+03  0.00000000000E+00 0.  1.
         11    1    5    5    0    0  0.27787232534E+02 -0.15807173851E+02  0.11269558421E+03  0.11714218598E+03  0.00000000000E+00 0.  1.
        -11    1    5    5    0    0  0.28215112455E+03 -0.15852352165E+03  0.44285296879E+03  0.54850498263E+03  0.00000000000E+00 0. -1.
          4    1    6    6  503    0 -0.23736408577E+03 -0.12291750395E+03 -0.83412561238E+02  0.28001442349E+03  0.00000000000E+00 0. -1.
         -4    1    6    6    0  503 -0.11790863146E+03 -0.63015202123E+02  0.23624453020E+02  0.13576257162E+03  0.00000000000E+00 0.  1.
<mgrwt>
<rscale>  0 0.13851796E+04</rscale>
<asrwt>0</asrwt>
<pdfrwt beam="1">  1        2 0.14667091E+00 0.13851796E+04</pdfrwt>
<pdfrwt beam="2">  1       -1 0.77407222E-01 0.13851796E+04</pdfrwt>
<totfact> 0.50253399E+01</totfact>
</mgrwt>
</event>
<event>
12    6  0.9491186E-008  0.1048880E+04  0.7818608E-02  0.9256501E-01
          2   -1    0    0  501    0  0.00000000000E+00  0.00000000000E+00  0.68182936063E+03  0.68182936063E+03  0.00000000000E+00 0. -1.
         -1   -1    0    0    0  501 -0.00000000000E+00 -0.00000000000E+00 -0.40338135171E+03  0.40338135171E+03  0.00000000000E+00 0.  1.
         24    2    1    2    0    0 -0.10603612839E+03  0.13050928199E+02 -0.17737481280E+02  0.13467916046E+03  0.80061668538E+02 0.  0.
        254    2    1    2    0    0  0.10603612839E+03 -0.13050928199E+02  0.29618549020E+03  0.95053155188E+03  0.89686699084E+03 0.  0.
         23    2    4    4    0    0 -0.15576577851E+03 -0.28113872321E+03 -0.14597363317E+03  0.36394496449E+03  0.88575821486E+02 0.  0.
         23    2    4    4    0    0  0.26180190690E+03  0.26808779501E+03  0.44215912337E+03  0.58658658739E+03  0.90376046850E+02 0.  0.
          4    1    3    3  502    0  0.58386442114E+01 -0.73650285206E+01 -0.18726285237E+02  0.20952497945E+02  0.00000000000E+00 0. -1.
         -3    1    3    3    0  502 -0.11187477260E+03  0.20415956720E+02  0.98880395761E+00  0.11372666251E+03  0.00000000000E+00 0.  1.
         11    1    5    5    0    0 -0.26867866720E+02 -0.13602493407E+03 -0.71990612269E+02  0.15622840077E+03  0.00000000000E+00 0.  1.
        -11    1    5    5    0    0 -0.12889791179E+03 -0.14511378913E+03 -0.73983020898E+02  0.20771656372E+03  0.00000000000E+00 0. -1.
          4    1    6    6  503    0  0.21909303506E+03  0.16630316424E+03  0.31800693903E+03  0.42046035928E+03  0.00000000000E+00 0. -1.
         -4    1    6    6    0  503  0.42708871842E+02  0.10178463076E+03  0.12415218433E+03  0.16612622812E+03  0.00000000000E+00 0.  1.
<mgrwt>
<rscale>  0 0.10488799E+04</rscale>
<asrwt>0</asrwt>
<pdfrwt beam="1">  1        2 0.10489682E+00 0.10488799E+04</pdfrwt>
<pdfrwt beam="2">  1       -1 0.62058669E-01 0.10488799E+04</pdfrwt>
<totfact> 0.12689424E+02</totfact>
</mgrwt>
</event>
<event>
12    6  0.9491186E-008  0.3974148E+04  0.7818608E-02  0.8009782E-01
          2   -1    0    0  501    0  0.00000000000E+00  0.00000000000E+00  0.22708329394E+04  0.22708329394E+04  0.00000000000E+00 0. -1.
         -1   -1    0    0    0  501 -0.00000000000E+00 -0.00000000000E+00 -0.17387734646E+04  0.17387734646E+04  0.00000000000E+00 0.  1.
         24    2    1    2    0    0  0.45743644186E+03  0.17532705334E+04  0.77549680192E+03  0.19725711651E+04  0.80224994989E+02 0.  0.
        254    2    1    2    0    0 -0.45743644186E+03 -0.17532705334E+04 -0.24343732712E+03  0.20370352389E+04  0.89835692827E+03 0.  0.
         23    2    4    4    0    0 -0.33429340292E+03 -0.17733245319E+04 -0.36217335468E+03  0.18427856029E+04  0.90869492223E+02 0.  0.
         23    2    4    4    0    0 -0.12314303894E+03  0.20053998470E+02  0.11873602756E+03  0.19424963604E+03  0.89823749461E+02 0.  0.
          2    1    3    3  502    0  0.21145256547E+03  0.96579656433E+03  0.41445339533E+03  0.10720292944E+04  0.00000000000E+00 0. -1.
         -1    1    3    3    0  502  0.24598387639E+03  0.78747396909E+03  0.36104340658E+03  0.90054187069E+03  0.00000000000E+00 0.  1.
         11    1    5    5    0    0 -0.22278383594E+03 -0.13825089035E+04 -0.28830722962E+03  0.14297148543E+04  0.00000000000E+00 0. -1.
        -11    1    5    5    0    0 -0.11150956698E+03 -0.39081562835E+03 -0.73866125061E+02  0.41307074857E+03  0.00000000000E+00 0.  1.
          3    1    6    6  503    0 -0.13208493799E+03  0.20343243494E+02  0.12526742730E+03  0.18317261461E+03  0.00000000000E+00 0. -1.
         -3    1    6    6    0  503  0.89418990464E+01 -0.28924502490E+00 -0.65313997433E+01  0.11077021434E+02  0.00000000000E+00 0.  1.
<mgrwt>
<rscale>  0 0.39741485E+04</rscale>
<asrwt>0</asrwt>
<pdfrwt beam="1">  1        2 0.34935891E+00 0.39741485E+04</pdfrwt>
<pdfrwt beam="2">  1       -1 0.26750361E+00 0.39741485E+04</pdfrwt>
<totfact> 0.22706210E-01</totfact>
</mgrwt>
</event>
<event>
12    6  0.9491186E-008  0.1832475E+04  0.7818608E-02  0.8689218E-01
         -1   -1    0    0    0  501 -0.00000000000E+00  0.00000000000E+00  0.82830042232E+03  0.82830042232E+03  0.00000000000E+00 0.  1.
          2   -1    0    0  501    0  0.00000000000E+00 -0.00000000000E+00 -0.10135104124E+04  0.10135104124E+04  0.00000000000E+00 0. -1.
         24    2    1    2    0    0  0.22319760584E+03 -0.54819570071E+03 -0.42453894734E+03  0.73276554853E+03  0.79851949080E+02 0.  0.
        254    2    1    2    0    0 -0.22319760584E+03  0.54819570071E+03  0.23932895723E+03  0.11090452862E+04  0.90684474943E+03 0.  0.
         23    2    4    4    0    0 -0.21625702239E+03  0.56649794940E+02  0.49283540442E+03  0.54859685984E+03  0.89974884107E+02 0.  0.
         23    2    4    4    0    0 -0.69405834427E+01  0.49154590577E+03 -0.25350644719E+03  0.56044842637E+03  0.90395634190E+02 0.  0.
          2    1    3    3  502    0  0.93959256962E+02 -0.19700174020E+03 -0.11265807794E+03  0.24562139592E+03  0.00000000000E+00 0. -1.
         -1    1    3    3    0  502  0.12923834887E+03 -0.35119396051E+03 -0.31188086939E+03  0.48714415260E+03  0.00000000000E+00 0.  1.
         11    1    5    5    0    0 -0.18216931252E+03  0.22575838964E+02  0.31736761847E+03  0.36662996628E+03  0.00000000000E+00 0. -1.
        -11    1    5    5    0    0 -0.34087709877E+02  0.34073955976E+02  0.17546778596E+03  0.18196689355E+03  0.00000000000E+00 0.  1.
          2    1    6    6  503    0  0.21214882444E+02  0.44327006341E+03 -0.22973460523E+03  0.49971632872E+03  0.00000000000E+00 0. -1.
         -2    1    6    6    0  503 -0.28155465887E+02  0.48275842356E+02 -0.23771841964E+02  0.60732097649E+02  0.00000000000E+00 0.  1.
<mgrwt>
<rscale>  0 0.18324749E+04</rscale>
<asrwt>0</asrwt>
<pdfrwt beam="1">  1        2 0.15592468E+00 0.18324749E+04</pdfrwt>
<pdfrwt beam="2">  1       -1 0.12743083E+00 0.18324749E+04</pdfrwt>
<totfact> 0.14146428E+01</totfact>
</mgrwt>
</event>
<event>
12    6  0.9491186E-008  0.1280325E+04  0.7818608E-02  0.9045314E-01
          2   -1    0    0  501    0  0.00000000000E+00  0.00000000000E+00  0.19203289304E+04  0.19203289304E+04  0.00000000000E+00 0. -1.
         -1   -1    0    0    0  501 -0.00000000000E+00 -0.00000000000E+00 -0.21340522932E+03  0.21340522932E+03  0.00000000000E+00 0.  1.
         24    2    1    2    0    0 -0.27053429602E+03  0.12053567539E+03  0.60086787809E+03  0.67456673186E+03  0.79249065900E+02 0.  0.
        254    2    1    2    0    0  0.27053429602E+03 -0.12053567539E+03  0.11060558230E+04  0.14591674279E+04  0.90448462928E+03 0.  0.
         23    2    4    4    0    0 -0.98357641108E+02  0.31995255511E+03  0.26244143997E+03  0.43424570201E+03  0.87464033822E+02 0.  0.
         23    2    4    4    0    0  0.36889193712E+03 -0.44048823050E+03  0.84361438306E+03  0.10249217259E+04  0.93103031136E+02 0.  0.
          4    1    3    3  502    0 -0.81023333409E+02  0.61049400797E+02  0.14163568491E+03  0.17421962327E+03  0.00000000000E+00 0. -1.
         -1    1    3    3    0  502 -0.18951096261E+03  0.59486274596E+02  0.45923219318E+03  0.50034710858E+03  0.00000000000E+00 0.  1.
         11    1    5    5    0    0  0.15112063063E+02  0.64155346292E+02  0.56244427533E+02  0.86647091910E+02  0.00000000000E+00 0. -1.
        -11    1    5    5    0    0 -0.11346970417E+03  0.25579720882E+03  0.20619701244E+03  0.34759861010E+03  0.00000000000E+00 0.  1.
          2    1    6    6  503    0  0.54655259550E+02 -0.45000927636E+02  0.15970698449E+03  0.17469574059E+03  0.00000000000E+00 0. -1.
         -2    1    6    6    0  503  0.31423667757E+03 -0.39548730287E+03  0.68390739856E+03  0.85022598529E+03  0.00000000000E+00 0.  1.
<mgrwt>
<rscale>  0 0.12803253E+04</rscale>
<asrwt>0</asrwt>
<pdfrwt beam="1">  1        2 0.29543521E+00 0.12803253E+04</pdfrwt>
<pdfrwt beam="2">  1       -1 0.32831575E-01 0.12803253E+04</pdfrwt>
<totfact> 0.72005685E+01</totfact>
</mgrwt>
</event>
<event>
12    6  0.9491186E-008  0.2694807E+04  0.7818608E-02  0.8336692E-01
          2   -1    0    0  501    0  0.00000000000E+00  0.00000000000E+00  0.18676341084E+04  0.18676341084E+04  0.00000000000E+00 0. -1.
         -1   -1    0    0    0  501 -0.00000000000E+00 -0.00000000000E+00 -0.97208347871E+03  0.97208347871E+03  0.00000000000E+00 0.  1.
         24    2    1    2    0    0  0.11054764677E+04 -0.24441165778E+03  0.80918396337E+03  0.13939625406E+04  0.80855419824E+02 0.  0.
        254    2    1    2    0    0 -0.11054764677E+04  0.24441165778E+03  0.86366666311E+02  0.14457550465E+04  0.89494869921E+03 0.  0.
         23    2    4    4    0    0 -0.11530159831E+04  0.30319554708E+03 -0.12737773659E+03  0.12024618891E+04  0.91192706769E+02 0.  0.
         23    2    4    4    0    0  0.47539515393E+02 -0.58783889296E+02  0.21374440290E+03  0.24329315742E+03  0.88257234900E+02 0.  0.
          2    1    3    3  502    0  0.84672714447E+03 -0.21567181191E+03  0.59903568290E+03  0.10593889451E+04  0.00000000000E+00 0. -1.
         -1    1    3    3    0  502  0.25874932327E+03 -0.28739845870E+02  0.21014828047E+03  0.33457359552E+03  0.00000000000E+00 0.  1.
         11    1    5    5    0    0 -0.67494485935E+03  0.20570835354E+03 -0.39497473390E+02  0.70670116759E+03  0.00000000000E+00 0.  1.
        -11    1    5    5    0    0 -0.47807112378E+03  0.97487193537E+02 -0.87880263195E+02  0.49576072147E+03  0.00000000000E+00 0. -1.
          3    1    6    6  503    0  0.42657729648E+01 -0.53314858056E+02  0.18104205749E+03  0.18877737547E+03  0.00000000000E+00 0. -1.
         -3    1    6    6    0  503  0.43273742428E+02 -0.54690312395E+01  0.32702345407E+02  0.54515781949E+02  0.00000000000E+00 0.  1.
<mgrwt>
<rscale>  0 0.26948071E+04</rscale>
<asrwt>0</asrwt>
<pdfrwt beam="1">  1        2 0.28732832E+00 0.26948071E+04</pdfrwt>
<pdfrwt beam="2">  1       -1 0.14955130E+00 0.26948071E+04</pdfrwt>
<totfact> 0.27802884E+00</totfact>
</mgrwt>
</event>
<event>
12    6  0.9491186E-008  0.2335666E+04  0.7818608E-02  0.8463990E-01
          2   -1    0    0  501    0  0.00000000000E+00  0.00000000000E+00  0.14981406356E+04  0.14981406356E+04  0.00000000000E+00 0. -1.
         -1   -1    0    0    0  501 -0.00000000000E+00 -0.00000000000E+00 -0.91035107244E+03  0.91035107244E+03  0.00000000000E+00 0.  1.
         24    2    1    2    0    0 -0.15432810979E+03 -0.74049825070E+02 -0.75626771552E+03  0.77952015767E+03  0.80064203119E+02 0.  0.
        254    2    1    2    0    0  0.15432810979E+03  0.74049825070E+02  0.13440572787E+04  0.16289715504E+04  0.90429961933E+03 0.  0.
         23    2    4    4    0    0 -0.54980450809E+01  0.38061304466E+03  0.11640917990E+04  0.12281163754E+04  0.90904328624E+02 0.  0.
         23    2    4    4    0    0  0.15982615487E+03 -0.30656321959E+03  0.17996547973E+03  0.40085517495E+03  0.93658368578E+02 0.  0.
          2    1    3    3  502    0 -0.47890995232E+02  0.42933248106E+01 -0.32252901713E+03  0.32609346352E+03  0.00000000000E+00 0. -1.
         -1    1    3    3    0  502 -0.10643711456E+03 -0.78343149881E+02 -0.43373869839E+03  0.45342669415E+03  0.00000000000E+00 0.  1.
         11    1    5    5    0    0  0.32729938654E+02  0.25161248352E+03  0.68469053321E+03  0.73019258899E+03  0.00000000000E+00 0. -1.
        -11    1    5    5    0    0 -0.38227983735E+02  0.12900056114E+03  0.47940126575E+03  0.49792378645E+03  0.00000000000E+00 0.  1.
          2    1    6    6  503    0  0.16449602111E+03 -0.24003717122E+03  0.15453590053E+03  0.32948160659E+03  0.00000000000E+00 0. -1.
         -2    1    6    6    0  503 -0.46698662417E+01 -0.66526048366E+02  0.25429579208E+02  0.71373568361E+02  0.00000000000E+00 0.  1.
<mgrwt>
<rscale>  0 0.23356660E+04</rscale>
<asrwt>0</asrwt>
<pdfrwt beam="1">  1        2 0.23048317E+00 0.23356660E+04</pdfrwt>
<pdfrwt beam="2">  1       -1 0.14005401E+00 0.23356660E+04</pdfrwt>
<totfact> 0.54869580E+00</totfact>
</mgrwt>
</event>
<event>
12    6  0.9491186E-008  0.1947205E+04  0.7818608E-02  0.8631710E-01
         -1   -1    0    0    0  501 -0.00000000000E+00  0.00000000000E+00  0.97284822837E+03  0.97284822837E+03  0.00000000000E+00 0.  1.
          2   -1    0    0  501    0  0.00000000000E+00 -0.00000000000E+00 -0.97435686231E+03  0.97435686231E+03  0.00000000000E+00 0. -1.
         24    2    1    2    0    0 -0.38408449673E+03  0.49983048896E+03  0.43542264137E+03  0.77029059329E+03  0.80020642113E+02 0.  0.
        254    2    1    2    0    0  0.38408449673E+03 -0.49983048896E+03 -0.43693127532E+03  0.11769144974E+04  0.89267428354E+03 0.  0.
         23    2    4    4    0    0  0.45141375582E+03 -0.32139778504E+03  0.12612824184E+03  0.57564663819E+03  0.91595870552E+02 0.  0.
         23    2    4    4    0    0 -0.67329259093E+02 -0.17843270391E+03 -0.56305951715E+03  0.60126785920E+03  0.90086401239E+02 0.  0.
          2    1    3    3  502    0 -0.19901461324E+03  0.31915029230E+03  0.24070698745E+03  0.44654627886E+03  0.00000000000E+00 0. -1.
         -1    1    3    3    0  502 -0.18506988348E+03  0.18068019666E+03  0.19471565393E+03  0.32374431442E+03  0.00000000000E+00 0.  1.
         11    1    5    5    0    0  0.87229316614E+02 -0.10038625328E+03  0.54227947605E+02  0.14362111205E+03  0.00000000000E+00 0. -1.
        -11    1    5    5    0    0  0.36418443921E+03 -0.22101153177E+03  0.71900294230E+02  0.43202552615E+03  0.00000000000E+00 0.  1.
          2    1    6    6  503    0  0.49182604764E+01 -0.86295033622E+02 -0.32014330586E+03  0.33160633046E+03  0.00000000000E+00 0. -1.
         -2    1    6    6    0  503 -0.72247519570E+02 -0.92137670292E+02 -0.24291621129E+03  0.26966152873E+03  0.00000000000E+00 0.  1.
<mgrwt>
<rscale>  0 0.19472045E+04</rscale>
<asrwt>0</asrwt>
<pdfrwt beam="1">  1        2 0.14990106E+00 0.19472045E+04</pdfrwt>
<pdfrwt beam="2">  1       -1 0.14966896E+00 0.19472045E+04</pdfrwt>
<totfact> 0.97776164E+00</totfact>
</mgrwt>
</event>
<event>
12    6  0.9491186E-008  0.2522647E+04  0.7818608E-02  0.8394962E-01
          2   -1    0    0  501    0  0.00000000000E+00  0.00000000000E+00  0.16111567166E+04  0.16111567166E+04  0.00000000000E+00 0. -1.
         -1   -1    0    0    0  501 -0.00000000000E+00 -0.00000000000E+00 -0.98745011091E+03  0.98745011091E+03  0.00000000000E+00 0.  1.
         24    2    1    2    0    0 -0.78995979370E+03  0.75599428564E+03  0.41263268810E+03  0.11713837947E+04  0.79438175053E+02 0.  0.
        254    2    1    2    0    0  0.78995979370E+03 -0.75599428564E+03  0.21107391759E+03  0.14272230328E+04  0.89266429919E+03 0.  0.
         23    2    4    4    0    0  0.41778171426E+02 -0.52013158847E+03 -0.16082043941E+03  0.55389448383E+03  0.93024730881E+02 0.  0.
         23    2    4    4    0    0  0.74818162228E+03 -0.23586269717E+03  0.37189435700E+03  0.87332854896E+03  0.94817666212E+02 0.  0.
          4    1    3    3  502    0 -0.73674754368E+03  0.72270557148E+03  0.40277105431E+03  0.11078469246E+04  0.00000000000E+00 0. -1.
         -3    1    3    3    0  502 -0.53212250021E+02  0.33288714155E+02  0.98616337900E+01  0.63536870110E+02  0.00000000000E+00 0.  1.
         11    1    5    5    0    0  0.25098985676E+02 -0.37588324915E+03 -0.71596155399E+02  0.38346340835E+03  0.00000000000E+00 0. -1.
        -11    1    5    5    0    0  0.16679185750E+02 -0.14424833932E+03 -0.89224284008E+02  0.17043107549E+03  0.00000000000E+00 0.  1.
          2    1    6    6  503    0  0.32417205298E+03 -0.13907093623E+03  0.13196482902E+03  0.37662044732E+03  0.00000000000E+00 0. -1.
         -2    1    6    6    0  503  0.42400956930E+03 -0.96791760937E+02  0.23992952797E+03  0.49670810164E+03  0.00000000000E+00 0.  1.
<mgrwt>
<rscale>  0 0.25226469E+04</rscale>
<asrwt>0</asrwt>
<pdfrwt beam="1">  1        2 0.24787026E+00 0.25226469E+04</pdfrwt>
<pdfrwt beam="2">  1       -1 0.15191540E+00 0.25226469E+04</pdfrwt>
<totfact> 0.37567303E+00</totfact>
</mgrwt>
</event>
<event>
12    6  0.9491186E-008  0.2273880E+04  0.7818608E-02  0.8488292E-01
         -1   -1    0    0    0  501 -0.00000000000E+00  0.00000000000E+00  0.62399064108E+03  0.62399064108E+03  0.00000000000E+00 0.  1.
          2   -1    0    0  501    0  0.00000000000E+00 -0.00000000000E+00 -0.20715575809E+04  0.20715575809E+04  0.00000000000E+00 0. -1.
         24    2    1    2    0    0 -0.61706733929E+03 -0.39140942612E+03 -0.13543101411E+04  0.15410061091E+04  0.81058188888E+02 0.  0.
        254    2    1    2    0    0  0.61706733929E+03  0.39140942612E+03 -0.93256798750E+02  0.11545421129E+04  0.88898662524E+03 0.  0.
         23    2    4    4    0    0 -0.72553376197E+02  0.84843271096E+02 -0.32871959637E+03  0.35977321390E+03  0.94434206489E+02 0.  0.
         23    2    4    4    0    0  0.68962071549E+03  0.30656615502E+03  0.23546279762E+03  0.79476889899E+03  0.81580237167E+02 0.  0.
          2    1    3    3  502    0 -0.54473761324E+03 -0.36999465783E+03 -0.11856381263E+04  0.13562348177E+04  0.00000000000E+00 0. -1.
         -1    1    3    3    0  502 -0.72329726052E+02 -0.21414768287E+02 -0.16867201473E+03  0.18477129140E+03  0.00000000000E+00 0.  1.
         11    1    5    5    0    0  0.13985020984E+02 -0.10238610919E+02 -0.47324322924E+02  0.50398427611E+02  0.00000000000E+00 0.  1.
        -11    1    5    5    0    0 -0.86538397181E+02  0.95081882014E+02 -0.28139527345E+03  0.30937478629E+03  0.00000000000E+00 0. -1.
          4    1    6    6  503    0  0.57579496742E+03  0.27576200443E+03  0.17359333463E+03  0.66160348655E+03  0.00000000000E+00 0.  1.
         -4    1    6    6    0  503  0.11382574807E+03  0.30804150594E+02  0.61869462996E+02  0.13316541243E+03  0.00000000000E+00 0. -1.
<mgrwt>
<rscale>  0 0.22738800E+04</rscale>
<asrwt>0</asrwt>
<pdfrwt beam="1">  1        2 0.31870117E+00 0.22738800E+04</pdfrwt>
<pdfrwt beam="2">  1       -1 0.95998560E-01 0.22738800E+04</pdfrwt>
<totfact> 0.65902149E+00</totfact>
</mgrwt>
</event>
<event>
12    6  0.9491186E-008  0.1686264E+04  0.7818608E-02  0.8769237E-01
          2   -1    0    0  501    0  0.00000000000E+00  0.00000000000E+00  0.18629218444E+04  0.18629218444E+04  0.00000000000E+00 0. -1.
         -1   -1    0    0    0  501 -0.00000000000E+00 -0.00000000000E+00 -0.38158967892E+03  0.38158967892E+03  0.00000000000E+00 0.  1.
         24    2    1    2    0    0 -0.19486371695E+03  0.54387644307E+03  0.31280239914E+03  0.66173882027E+03  0.79243118522E+02 0.  0.
        254    2    1    2    0    0  0.19486371695E+03 -0.54387644307E+03  0.11685297663E+04  0.15827727030E+04  0.89773835896E+03 0.  0.
         23    2    4    4    0    0  0.38547182014E+03 -0.10391960481E+03  0.97317900885E+03  0.10558022600E+04  0.90847237394E+02 0.  0.
         23    2    4    4    0    0 -0.19060810319E+03 -0.43995683826E+03  0.19535075746E+03  0.52697044303E+03  0.98196032792E+02 0.  0.
          4    1    3    3  502    0 -0.25617109027E+02  0.17568040482E+03  0.84513770600E+02  0.19662761336E+03  0.00000000000E+00 0. -1.
         -3    1    3    3    0  502 -0.16924660792E+03  0.36819603825E+03  0.22828862854E+03  0.46511120691E+03  0.00000000000E+00 0.  1.
         11    1    5    5    0    0  0.14809926813E+03 -0.86272191301E+02  0.41217087059E+03  0.44638672782E+03  0.00000000000E+00 0. -1.
        -11    1    5    5    0    0  0.23737255200E+03 -0.17647413510E+02  0.56100813826E+03  0.60941553216E+03  0.00000000000E+00 0.  1.
          1    1    6    6  503    0 -0.54835348840E+02 -0.13607103718E+03  0.12556838784E+02  0.14724101617E+03  0.00000000000E+00 0. -1.
         -1    1    6    6    0  503 -0.13577275435E+03 -0.30388580107E+03  0.18279391868E+03  0.37972942686E+03  0.00000000000E+00 0.  1.
<mgrwt>
<rscale>  0 0.16862642E+04</rscale>
<asrwt>0</asrwt>
<pdfrwt beam="1">  1        2 0.28660335E+00 0.16862642E+04</pdfrwt>
<pdfrwt beam="2">  1       -1 0.58706106E-01 0.16862642E+04</pdfrwt>
<totfact> 0.25403677E+01</totfact>
</mgrwt>
</event>
<event>
12    6  0.9491186E-008  0.1401798E+04  0.7818608E-02  0.8952518E-01
          2   -1    0    0  501    0  0.00000000000E+00  0.00000000000E+00  0.10540698276E+04  0.10540698276E+04  0.00000000000E+00 0. -1.
         -1   -1    0    0    0  501 -0.00000000000E+00 -0.00000000000E+00 -0.46605936121E+03  0.46605936121E+03  0.00000000000E+00 0.  1.
         24    2    1    2    0    0  0.33796396689E+03  0.35578973737E+02 -0.67512714633E+02  0.35575624902E+03  0.80740546152E+02 0.  0.
        254    2    1    2    0    0 -0.33796396689E+03 -0.35578973737E+02  0.65552318106E+03  0.11643729398E+04  0.90031560900E+03 0.  0.
         23    2    4    4    0    0  0.12030834643E+03 -0.10966145785E+03  0.66529752548E+03  0.69106523605E+03  0.91927305536E+02 0.  0.
         23    2    4    4    0    0 -0.45827231332E+03  0.74082484111E+02 -0.97743444217E+01  0.47330770378E+03  0.91776451451E+02 0.  0.
          4    1    3    3  502    0  0.14327067314E+02 -0.17953855736E+01 -0.22696799293E+02  0.26900426861E+02  0.00000000000E+00 0. -1.
         -3    1    3    3    0  502  0.32363689958E+03  0.37374359310E+02 -0.44815915340E+02  0.32885582216E+03  0.00000000000E+00 0.  1.
         11    1    5    5    0    0  0.34292896369E+02  0.10027363909E+02  0.19384543661E+03  0.19711063914E+03  0.00000000000E+00 0. -1.
        -11    1    5    5    0    0  0.86015450060E+02 -0.11968882176E+03  0.47145208887E+03  0.49395459690E+03  0.00000000000E+00 0.  1.
          1    1    6    6  503    0  0.33419284001E+00 -0.71128535298E+01  0.20793898296E+01  0.74181016611E+01  0.00000000000E+00 0. -1.
         -1    1    6    6    0  503 -0.45860650616E+03  0.81195337641E+02 -0.11853734251E+02  0.46588960212E+03  0.00000000000E+00 0.  1.
<mgrwt>
<rscale>  0 0.14017976E+04</rscale>
<asrwt>0</asrwt>
<pdfrwt beam="1">  1        2 0.16216459E+00 0.14017976E+04</pdfrwt>
<pdfrwt beam="2">  1       -1 0.71701440E-01 0.14017976E+04</pdfrwt>
<totfact> 0.50729883E+01</totfact>
</mgrwt>
</event>
<event>
12    6  0.9491186E-008  0.1576071E+04  0.7818608E-02  0.8835385E-01
         -1   -1    0    0    0  501 -0.00000000000E+00  0.00000000000E+00  0.28207572933E+03  0.28207572933E+03  0.00000000000E+00 0.  1.
          2   -1    0    0  501    0  0.00000000000E+00 -0.00000000000E+00 -0.22015372433E+04  0.22015372433E+04  0.00000000000E+00 0. -1.
         24    2    1    2    0    0  0.28117151036E+03 -0.36694111305E+03 -0.26174716781E+03  0.53820830660E+03  0.86333091862E+02 0.  0.
        254    2    1    2    0    0 -0.28117151036E+03  0.36694111305E+03 -0.16577143461E+04  0.19454046660E+04  0.90712692740E+03 0.  0.
         23    2    4    4    0    0 -0.36576729051E+02  0.83555933656E+02 -0.15356780177E+04  0.15411198352E+04  0.91781923297E+02 0.  0.
         23    2    4    4    0    0 -0.24459478131E+03  0.28338517940E+03 -0.12203632847E+03  0.40428483076E+03  0.91758334633E+02 0.  0.
          2    1    3    3  502    0  0.16526180037E+02  0.12495339276E+01 -0.60139235310E+01  0.17630746947E+02  0.00000000000E+00 0. -1.
         -1    1    3    3    0  502  0.26464533033E+03 -0.36819064698E+03 -0.25573324428E+03  0.52057755965E+03  0.00000000000E+00 0.  1.
         11    1    5    5    0    0 -0.57658786427E+02  0.28616414488E+02 -0.56395521069E+03  0.56761687298E+03  0.00000000000E+00 0. -1.
        -11    1    5    5    0    0  0.21082057376E+02  0.54939519168E+02 -0.97172280698E+03  0.97350296225E+03  0.00000000000E+00 0.  1.
          4    1    6    6  503    0 -0.23124746715E+03  0.26490424330E+03 -0.13659352278E+03  0.37723658313E+03  0.00000000000E+00 0.  1.
         -4    1    6    6    0  503 -0.13347314158E+02  0.18480936093E+02  0.14557194310E+02  0.27048247638E+02  0.00000000000E+00 0. -1.
<mgrwt>
<rscale>  0 0.15760713E+04</rscale>
<asrwt>0</asrwt>
<pdfrwt beam="1">  1        2 0.33869803E+00 0.15760713E+04</pdfrwt>
<pdfrwt beam="2">  1       -1 0.43396267E-01 0.15760713E+04</pdfrwt>
<totfact> 0.29573204E+01</totfact>
</mgrwt>
</event>
<event>
12    6  0.9491186E-008  0.1904915E+04  0.7818608E-02  0.8652414E-01
         -1   -1    0    0    0  501 -0.00000000000E+00  0.00000000000E+00  0.56041070807E+03  0.56041070807E+03  0.00000000000E+00 0.  1.
          2   -1    0    0  501    0  0.00000000000E+00 -0.00000000000E+00 -0.16187682086E+04  0.16187682086E+04  0.00000000000E+00 0. -1.
         24    2    1    2    0    0 -0.52864752482E+03 -0.26418542377E+03  0.75975851914E+02  0.60122986773E+03  0.80267553526E+02 0.  0.
        254    2    1    2    0    0  0.52864752482E+03  0.26418542377E+03 -0.11343333524E+04  0.15779490489E+04  0.92409355747E+03 0.  0.
         23    2    4    4    0    0  0.61242088872E+03  0.17724282399E+03 -0.12371812185E+04  0.13948467195E+04  0.92226025965E+02 0.  0.
         23    2    4    4    0    0 -0.83773363905E+02  0.86942599785E+02  0.10284786609E+03  0.18310232942E+03  0.91497471665E+02 0.  0.
          2    1    3    3  502    0 -0.13023711857E+02 -0.64366714060E+01  0.16078803817E+02  0.21669696387E+02  0.00000000000E+00 0. -1.
         -1    1    3    3    0  502 -0.51562381296E+03 -0.25774875237E+03  0.59897048097E+02  0.57956017134E+03  0.00000000000E+00 0.  1.
         11    1    5    5    0    0  0.52657198001E+02 -0.84798767829E+01 -0.81947110745E+02  0.97775343370E+02  0.00000000000E+00 0. -1.
        -11    1    5    5    0    0  0.55976369072E+03  0.18572270077E+03 -0.11552341078E+04  0.12970713761E+04  0.00000000000E+00 0.  1.
          3    1    6    6  503    0 -0.97058704708E+01  0.38409852435E+02 -0.88180921331E+01  0.40586690362E+02  0.00000000000E+00 0. -1.
         -3    1    6    6    0  503 -0.74067493435E+02  0.48532747350E+02  0.11166595823E+03  0.14251563906E+03  0.00000000000E+00 0.  1.
<mgrwt>
<rscale>  0 0.19049147E+04</rscale>
<asrwt>0</asrwt>
<pdfrwt beam="1">  1        2 0.24904126E+00 0.19049147E+04</pdfrwt>
<pdfrwt beam="2">  1       -1 0.86217034E-01 0.19049147E+04</pdfrwt>
<totfact> 0.15409417E+01</totfact>
</mgrwt>
</event>
<event>
12    6  0.9491186E-008  0.2127436E+04  0.7818608E-02  0.8549253E-01
         -1   -1    0    0    0  501 -0.00000000000E+00  0.00000000000E+00  0.68301536465E+03  0.68301536465E+03  0.00000000000E+00 0.  1.
          2   -1    0    0  501    0  0.00000000000E+00 -0.00000000000E+00 -0.16566189692E+04  0.16566189692E+04  0.00000000000E+00 0. -1.
         24    2    1    2    0    0 -0.41060868727E+03  0.69022567422E+03 -0.81278649031E+03  0.11454412653E+04  0.80017735184E+02 0.  0.
        254    2    1    2    0    0  0.41060868727E+03 -0.69022567422E+03 -0.16081711421E+03  0.11941930685E+04  0.86903622786E+03 0.  0.
         23    2    4    4    0    0  0.10356235231E+03  0.18599942009E+03  0.51572106774E+02  0.23729389649E+03  0.91256594414E+02 0.  0.
         23    2    4    4    0    0  0.30704633495E+03 -0.87622509431E+03 -0.21238922099E+03  0.95689917206E+03  0.92189894202E+02 0.  0.
          4    1    3    3  502    0 -0.18173778947E+03  0.33038422808E+03 -0.43535554833E+03  0.57594862249E+03  0.00000000000E+00 0. -1.
         -3    1    3    3    0  502 -0.22887089779E+03  0.35984144614E+03 -0.37743094197E+03  0.56949264278E+03  0.00000000000E+00 0.  1.
         11    1    5    5    0    0  0.71658494265E+02  0.15813288349E+03  0.74735410876E+02  0.18901410074E+03  0.00000000000E+00 0.  1.
        -11    1    5    5    0    0  0.31903858049E+02  0.27866536601E+02 -0.23163304102E+02  0.48279795748E+02  0.00000000000E+00 0. -1.
          4    1    6    6  503    0  0.31912355869E+02 -0.15664624736E+03 -0.64835800691E+02  0.17251123535E+03  0.00000000000E+00 0. -1.
         -4    1    6    6    0  503  0.27513397908E+03 -0.71957884695E+03 -0.14755342030E+03  0.78438793671E+03  0.00000000000E+00 0.  1.
<mgrwt>
<rscale>  0 0.21274362E+04</rscale>
<asrwt>0</asrwt>
<pdfrwt beam="1">  1        2 0.25486445E+00 0.21274362E+04</pdfrwt>
<pdfrwt beam="2">  1       -1 0.10507929E+00 0.21274362E+04</pdfrwt>
<totfact> 0.92276263E+00</totfact>
</mgrwt>
</event>
<event>
12    6  0.9491186E-008  0.2321664E+04  0.7818608E-02  0.8469428E-01
          2   -1    0    0  501    0  0.00000000000E+00  0.00000000000E+00  0.21220276882E+04  0.21220276882E+04  0.00000000000E+00 0. -1.
         -1   -1    0    0    0  501 -0.00000000000E+00 -0.00000000000E+00 -0.63502034518E+03  0.63502034518E+03  0.00000000000E+00 0.  1.
         24    2    1    2    0    0  0.90874635107E+03  0.43514068595E+02  0.18416208234E+03  0.93165901367E+03  0.79746099795E+02 0.  0.
        254    2    1    2    0    0 -0.90874635107E+03 -0.43514068595E+02  0.13028452607E+04  0.18253890197E+04  0.89829054059E+03 0.  0.
         23    2    4    4    0    0  0.10272372989E+03 -0.93251828724E+02  0.50836558367E+03  0.53486929263E+03  0.91659834699E+02 0.  0.
         23    2    4    4    0    0 -0.10114700810E+04  0.49737760129E+02  0.79447967701E+03  0.12905197271E+04  0.93261135483E+02 0.  0.
          4    1    3    3  502    0  0.15293415496E+03 -0.11514497201E+02  0.54923288105E+02  0.16290490163E+03  0.00000000000E+00 0. -1.
         -3    1    3    3    0  502  0.75581219611E+03  0.55028565796E+02  0.12923879424E+03  0.76875411204E+03  0.00000000000E+00 0.  1.
         11    1    5    5    0    0  0.11062068805E+03 -0.64862565084E+02  0.46558840048E+03  0.48292509527E+03  0.00000000000E+00 0. -1.
        -11    1    5    5    0    0 -0.78969581666E+01 -0.28389263640E+02  0.42777183185E+02  0.51944197362E+02  0.00000000000E+00 0.  1.
          4    1    6    6  503    0 -0.46666826557E+01  0.25504705737E+01  0.16344207039E+02  0.17187667989E+02  0.00000000000E+00 0.  1.
         -4    1    6    6    0  503 -0.10068033983E+04  0.47187289555E+02  0.77813546997E+03  0.12733320591E+04  0.00000000000E+00 0. -1.
<mgrwt>
<rscale>  0 0.23216638E+04</rscale>
<asrwt>0</asrwt>
<pdfrwt beam="1">  1        2 0.32646580E+00 0.23216638E+04</pdfrwt>
<pdfrwt beam="2">  1       -1 0.97695439E-01 0.23216638E+04</pdfrwt>
<totfact> 0.59116601E+00</totfact>
</mgrwt>
</event>
<event>
12    6  0.9491186E-008  0.3235748E+04  0.7818608E-02  0.8179440E-01
          2   -1    0    0  501    0  0.00000000000E+00  0.00000000000E+00  0.27347114233E+04  0.27347114233E+04  0.00000000000E+00 0. -1.
         -1   -1    0    0    0  501 -0.00000000000E+00 -0.00000000000E+00 -0.95714527612E+03  0.95714527612E+03  0.00000000000E+00 0.  1.
         24    2    1    2    0    0  0.62488344552E+03  0.13539994531E+04  0.91472350465E+03  0.17513148798E+04  0.81184226886E+02 0.  0.
        254    2    1    2    0    0 -0.62488344552E+03 -0.13539994531E+04  0.86284264249E+03  0.19405418196E+04  0.89297888452E+03 0.  0.
         23    2    4    4    0    0 -0.74108936472E+03 -0.13946719830E+04  0.75180551887E+03  0.17515769098E+04  0.92123537706E+02 0.  0.
         23    2    4    4    0    0  0.11620591919E+03  0.40672529862E+02  0.11103712362E+03  0.18896490973E+03  0.90666553625E+02 0.  0.
          2    1    3    3  502    0  0.57392461374E+03  0.12086474655E+04  0.79623972679E+03  0.15569893579E+04  0.00000000000E+00 0. -1.
         -1    1    3    3    0  502  0.50958831780E+02  0.14535198767E+03  0.11848377786E+03  0.19432552192E+03  0.00000000000E+00 0.  1.
         11    1    5    5    0    0 -0.11910058262E+03 -0.29342184195E+03  0.16991336422E+03  0.35937706863E+03  0.00000000000E+00 0. -1.
        -11    1    5    5    0    0 -0.62198878210E+03 -0.11012501411E+04  0.58189215465E+03  0.13921998412E+04  0.00000000000E+00 0.  1.
          3    1    6    6  503    0  0.35268213048E+02  0.60081372285E+02  0.50679562621E+02  0.86151240355E+02  0.00000000000E+00 0. -1.
         -3    1    6    6    0  503  0.80937706147E+02 -0.19408842423E+02  0.60357560996E+02  0.10281366937E+03  0.00000000000E+00 0.  1.
<mgrwt>
<rscale>  0 0.32357479E+04</rscale>
<asrwt>0</asrwt>
<pdfrwt beam="1">  1        2 0.42072483E+00 0.32357479E+04</pdfrwt>
<pdfrwt beam="2">  1       -1 0.14725312E+00 0.32357479E+04</pdfrwt>
<totfact> 0.88508642E-01</totfact>
</mgrwt>
</event>
<event>
12    6  0.9491186E-008  0.1748454E+04  0.7818608E-02  0.8734202E-01
         -1   -1    0    0    0  501 -0.00000000000E+00  0.00000000000E+00  0.78369440836E+03  0.78369440836E+03  0.00000000000E+00 0.  1.
          2   -1    0    0  501    0  0.00000000000E+00 -0.00000000000E+00 -0.97521780828E+03  0.97521780828E+03  0.00000000000E+00 0. -1.
         24    2    1    2    0    0  0.24250198948E+03  0.49032599264E+03 -0.41080436899E+03  0.68863327445E+03  0.78922513423E+02 0.  0.
        254    2    1    2    0    0 -0.24250198948E+03 -0.49032599264E+03  0.21928096908E+03  0.10702789422E+04  0.89341260162E+03 0.  0.
         23    2    4    4    0    0  0.29284010992E+03 -0.14754377935E+03 -0.97957110131E+02  0.35397605151E+03  0.90437563075E+02 0.  0.
         23    2    4    4    0    0 -0.53534209940E+03 -0.34278221329E+03  0.31723807921E+03  0.71630289068E+03  0.91427693607E+02 0.  0.
          2    1    3    3  502    0  0.20909922501E+03  0.43445865859E+03 -0.39047376189E+03  0.62044062620E+03  0.00000000000E+00 0. -1.
         -1    1    3    3    0  502  0.33402764473E+02  0.55867334058E+02 -0.20330607106E+02  0.68192648244E+02  0.00000000000E+00 0.  1.
         11    1    5    5    0    0  0.23676157724E+03 -0.11259251583E+03 -0.11414893300E+03  0.28594247321E+03  0.00000000000E+00 0.  1.
        -11    1    5    5    0    0  0.56078532675E+02 -0.34951263524E+02  0.16191822867E+02  0.68033578302E+02  0.00000000000E+00 0. -1.
          3    1    6    6  503    0 -0.30895954110E+03 -0.14381159201E+03  0.16442919265E+03  0.37838436996E+03  0.00000000000E+00 0. -1.
         -3    1    6    6    0  503 -0.22638255830E+03 -0.19897062128E+03  0.15280888656E+03  0.33791852072E+03  0.00000000000E+00 0.  1.
<mgrwt>
<rscale>  0 0.17484539E+04</rscale>
<asrwt>0</asrwt>
<pdfrwt beam="1">  1        2 0.15003351E+00 0.17484539E+04</pdfrwt>
<pdfrwt beam="2">  1       -1 0.12056837E+00 0.17484539E+04</pdfrwt>
<totfact> 0.17301027E+01</totfact>
</mgrwt>
</event>
<event>
12    6  0.9491186E-008  0.1260161E+04  0.7818608E-02  0.9061769E-01
          2   -1    0    0  501    0  0.00000000000E+00  0.00000000000E+00  0.10783904730E+04  0.10783904730E+04  0.00000000000E+00 0. -1.
         -1   -1    0    0    0  501 -0.00000000000E+00 -0.00000000000E+00 -0.36814233735E+03  0.36814233735E+03  0.00000000000E+00 0.  1.
         24    2    1    2    0    0 -0.27900272390E+03 -0.25603594765E+02  0.18531689974E+03  0.35059753749E+03  0.10039031804E+03 0.  0.
        254    2    1    2    0    0  0.27900272390E+03  0.25603594765E+02  0.52493123588E+03  0.10959352728E+04  0.92033866366E+03 0.  0.
         23    2    4    4    0    0  0.19838265404E+03  0.39790251605E+03  0.53855750493E+03  0.70435956045E+03  0.91630314767E+02 0.  0.
         23    2    4    4    0    0  0.80620069867E+02 -0.37229892128E+03 -0.13626269048E+02  0.39157571238E+03  0.89664825140E+02 0.  0.
          2    1    3    3  502    0 -0.22547245903E+03 -0.43508783633E+02  0.18380056217E+03  0.29413175737E+03  0.00000000000E+00 0. -1.
         -1    1    3    3    0  502 -0.53530264870E+02  0.17905188868E+02  0.15163375626E+01  0.56465780124E+02  0.00000000000E+00 0.  1.
         11    1    5    5    0    0  0.20645018595E+03  0.36405464376E+03  0.50659307216E+03  0.65711034361E+03  0.00000000000E+00 0. -1.
        -11    1    5    5    0    0 -0.80675319135E+01  0.33847872290E+02  0.31964432766E+02  0.47249216838E+02  0.00000000000E+00 0.  1.
          4    1    6    6  503    0  0.86400226214E+02 -0.31170619328E+03 -0.38659638446E+02  0.32576113590E+03  0.00000000000E+00 0. -1.
         -4    1    6    6    0  503 -0.57801563474E+01 -0.60592728002E+02  0.25033369398E+02  0.65814576482E+02  0.00000000000E+00 0.  1.
<mgrwt>
<rscale>  0 0.12601606E+04</rscale>
<asrwt>0</asrwt>
<pdfrwt beam="1">  1        2 0.16590623E+00 0.12601606E+04</pdfrwt>
<pdfrwt beam="2">  1       -1 0.56637283E-01 0.12601606E+04</pdfrwt>
<totfact> 0.79462414E+01</totfact>
</mgrwt>
</event>
<event>
12    6  0.9491186E-008  0.2488496E+04  0.7818608E-02  0.8407095E-01
         -1   -1    0    0    0  501 -0.00000000000E+00  0.00000000000E+00  0.53407157477E+03  0.53407157477E+03  0.00000000000E+00 0.  1.
          2   -1    0    0  501    0  0.00000000000E+00 -0.00000000000E+00 -0.28987741255E+04  0.28987741255E+04  0.00000000000E+00 0. -1.
         24    2    1    2    0    0 -0.13947095541E+03 -0.95570101960E+03 -0.36137948870E+03  0.10346722146E+04  0.84468162370E+02 0.  0.
        254    2    1    2    0    0  0.13947095541E+03  0.95570101960E+03 -0.20033230620E+04  0.23981734857E+04  0.89728267033E+03 0.  0.
         23    2    4    4    0    0 -0.20089924228E+03  0.80176657625E+03 -0.87989017228E+03  0.12105485384E+04  0.89615289772E+02 0.  0.
         23    2    4    4    0    0  0.34037019769E+03  0.15393444335E+03 -0.11234328897E+04  0.11876249473E+04  0.93828958487E+02 0.  0.
          2    1    3    3  502    0 -0.99451067218E+02 -0.61558180693E+03 -0.19096689422E+03  0.65215015945E+03  0.00000000000E+00 0. -1.
         -1    1    3    3    0  502 -0.40019888189E+02 -0.34011921267E+03 -0.17041259448E+03  0.38252205510E+03  0.00000000000E+00 0.  1.
         11    1    5    5    0    0 -0.14387996400E+02  0.18117430037E+03 -0.16224771924E+03  0.24362976820E+03  0.00000000000E+00 0.  1.
        -11    1    5    5    0    0 -0.18651124588E+03  0.62059227588E+03 -0.71764245304E+03  0.96691877018E+03  0.00000000000E+00 0. -1.
          1    1    6    6  503    0  0.33188432902E+03  0.12485128359E+03 -0.10464725021E+04  0.11049161726E+04  0.00000000000E+00 0. -1.
         -1    1    6    6    0  503  0.84858686653E+01  0.29083159759E+02 -0.76960387630E+02  0.82708774703E+02  0.00000000000E+00 0.  1.
<mgrwt>
<rscale>  0 0.24884958E+04</rscale>
<asrwt>0</asrwt>
<pdfrwt beam="1">  1        2 0.44596525E+00 0.24884958E+04</pdfrwt>
<pdfrwt beam="2">  1       -1 0.82164858E-01 0.24884958E+04</pdfrwt>
<totfact> 0.30104086E+00</totfact>
</mgrwt>
</event>
<event>
12    6  0.9491186E-008  0.1260821E+04  0.7818608E-02  0.9061225E-01
         -1   -1    0    0    0  501 -0.00000000000E+00  0.00000000000E+00  0.82027733228E+03  0.82027733228E+03  0.00000000000E+00 0.  1.
          2   -1    0    0  501    0  0.00000000000E+00 -0.00000000000E+00 -0.48449145422E+03  0.48449145422E+03  0.00000000000E+00 0. -1.
         24    2    1    2    0    0  0.26256648520E+03  0.83189688688E+02 -0.29283039422E+02  0.28814098371E+03  0.79410620453E+02 0.  0.
        254    2    1    2    0    0 -0.26256648520E+03 -0.83189688688E+02  0.36506891748E+03  0.10166278028E+04  0.90796205396E+03 0.  0.
         23    2    4    4    0    0 -0.37245435371E+03  0.33202824266E+03  0.23030220335E+03  0.55728561221E+03  0.92537285387E+02 0.  0.
         23    2    4    4    0    0  0.10988786850E+03 -0.41521793134E+03  0.13476671413E+03  0.45934219058E+03  0.91388766572E+02 0.  0.
          4    1    3    3  502    0  0.25085580095E+03  0.77571883645E+02 -0.73836200841E+01  0.26267955354E+03  0.00000000000E+00 0. -1.
         -3    1    3    3    0  502  0.11710684258E+02  0.56178050434E+01 -0.21899419338E+02  0.25461430176E+02  0.00000000000E+00 0.  1.
         11    1    5    5    0    0 -0.43415487644E+02  0.19757853404E+02 -0.17845304037E+01  0.47733236715E+02  0.00000000000E+00 0.  1.
        -11    1    5    5    0    0 -0.32903886606E+03  0.31227038925E+03  0.23208673375E+03  0.50955237549E+03  0.00000000000E+00 0. -1.
          3    1    6    6  503    0  0.12629234403E+03 -0.37488702280E+03  0.12144993786E+03  0.41381170045E+03  0.00000000000E+00 0. -1.
         -3    1    6    6    0  503 -0.16404475524E+02 -0.40330908549E+02  0.13316776272E+02  0.45530490134E+02  0.00000000000E+00 0.  1.
<mgrwt>
<rscale>  0 0.12608209E+04</rscale>
<asrwt>0</asrwt>
<pdfrwt beam="1">  1        2 0.74537147E-01 0.12608209E+04</pdfrwt>
<pdfrwt beam="2">  1       -1 0.12619651E+00 0.12608209E+04</pdfrwt>
<totfact> 0.39247846E+01</totfact>
</mgrwt>
</event>
<event>
12    6  0.9491186E-008  0.2023336E+04  0.7818608E-02  0.8595788E-01
          2   -1    0    0  501    0  0.00000000000E+00  0.00000000000E+00  0.14328192464E+04  0.14328192464E+04  0.00000000000E+00 0. -1.
         -1   -1    0    0    0  501 -0.00000000000E+00 -0.00000000000E+00 -0.71430621798E+03  0.71430621798E+03  0.00000000000E+00 0.  1.
         24    2    1    2    0    0  0.20720071918E+02  0.39431232820E+03 -0.46014129642E+03  0.61260475977E+03  0.87424513002E+02 0.  0.
        254    2    1    2    0    0 -0.20720071918E+02 -0.39431232820E+03  0.11786543248E+04  0.15345207046E+04  0.89978677577E+03 0.  0.
         23    2    4    4    0    0 -0.31837278333E+03 -0.68471936381E+02  0.98963224530E+03  0.10457232731E+04  0.90086334330E+02 0.  0.
         23    2    4    4    0    0  0.29765271141E+03 -0.32584039182E+03  0.18902207951E+03  0.48879743153E+03  0.91784993186E+02 0.  0.
          4    1    3    3  502    0  0.15575926741E+02  0.19835738040E+02 -0.57099346061E+02  0.62421160819E+02  0.00000000000E+00 0. -1.
         -3    1    3    3    0  502  0.51441451771E+01  0.37447659016E+03 -0.40304195036E+03  0.55018359896E+03  0.00000000000E+00 0.  1.
         11    1    5    5    0    0 -0.17382916769E+03  0.82475930181E+01  0.52871906980E+03  0.55662236490E+03  0.00000000000E+00 0.  1.
        -11    1    5    5    0    0 -0.14454361564E+03 -0.76719529399E+02  0.46091317550E+03  0.48910090816E+03  0.00000000000E+00 0. -1.
          2    1    6    6  503    0  0.11277264997E+03 -0.10023993533E+03  0.21422978451E+02  0.15239638848E+03  0.00000000000E+00 0. -1.
         -2    1    6    6    0  503  0.18488006144E+03 -0.22560045649E+03  0.16759910106E+03  0.33640104305E+03  0.00000000000E+00 0.  1.
<mgrwt>
<rscale>  0 0.20233356E+04</rscale>
<asrwt>0</asrwt>
<pdfrwt beam="1">  1        2 0.22043373E+00 0.20233356E+04</pdfrwt>
<pdfrwt beam="2">  1       -1 0.10989326E+00 0.20233356E+04</pdfrwt>
<totfact> 0.11202546E+01</totfact>
</mgrwt>
</event>
<event>
12    6  0.9491186E-008  0.1844744E+04  0.7818608E-02  0.8682860E-01
         -1   -1    0    0    0  501 -0.00000000000E+00  0.00000000000E+00  0.39640364656E+03  0.39640364656E+03  0.00000000000E+00 0.  1.
          2   -1    0    0  501    0  0.00000000000E+00 -0.00000000000E+00 -0.21462216490E+04  0.21462216490E+04  0.00000000000E+00 0. -1.
         24    2    1    2    0    0 -0.55535992494E+03  0.31330373890E+03 -0.27932791023E+03  0.70056130324E+03  0.78601393909E+02 0.  0.
        254    2    1    2    0    0  0.55535992494E+03 -0.31330373890E+03 -0.14704900922E+04  0.18420639923E+04  0.90789578776E+03 0.  0.
         23    2    4    4    0    0  0.79683620387E+03 -0.19785211431E+03 -0.10783112549E+04  0.13584281747E+04  0.92079033853E+02 0.  0.
         23    2    4    4    0    0 -0.24147627893E+03 -0.11545162459E+03 -0.39217883728E+03  0.48363581757E+03  0.91975500660E+02 0.  0.
          2    1    3    3  502    0 -0.54108215450E+03  0.28739456507E+03 -0.27015638026E+03  0.66958942924E+03  0.00000000000E+00 0. -1.
         -1    1    3    3    0  502 -0.14277770440E+02  0.25909173828E+02 -0.91715299743E+01  0.30971874003E+02  0.00000000000E+00 0.  1.
         11    1    5    5    0    0  0.28041920041E+03 -0.37004428925E+02 -0.32168694641E+03  0.42835353064E+03  0.00000000000E+00 0. -1.
        -11    1    5    5    0    0  0.51641700347E+03 -0.16084768538E+03 -0.75662430849E+03  0.93007464408E+03  0.00000000000E+00 0.  1.
          2    1    6    6  503    0 -0.12481914695E+03 -0.38851262241E+02 -0.26193055033E+03  0.29274024872E+03  0.00000000000E+00 0. -1.
         -2    1    6    6    0  503 -0.11665713198E+03 -0.76600362350E+02 -0.13024828694E+03  0.19089556885E+03  0.00000000000E+00 0.  1.
<mgrwt>
<rscale>  0 0.18447440E+04</rscale>
<asrwt>0</asrwt>
<pdfrwt beam="1">  1        2 0.33018794E+00 0.18447440E+04</pdfrwt>
<pdfrwt beam="2">  1       -1 0.60985178E-01 0.18447440E+04</pdfrwt>
<totfact> 0.16172087E+01</totfact>
</mgrwt>
</event>
<event>
12    6  0.9491186E-008  0.2220063E+04  0.7818608E-02  0.8510123E-01
         -1   -1    0    0    0  501 -0.00000000000E+00  0.00000000000E+00  0.49026534395E+03  0.49026534395E+03  0.00000000000E+00 0.  1.
          2   -1    0    0  501    0  0.00000000000E+00 -0.00000000000E+00 -0.25132720561E+04  0.25132720561E+04  0.00000000000E+00 0. -1.
         24    2    1    2    0    0 -0.54934370150E+01 -0.45460390995E+03  0.24468900392E+03  0.52221366026E+03  0.78354996803E+02 0.  0.
        254    2    1    2    0    0  0.54934370150E+01  0.45460390995E+03 -0.22676957160E+04  0.24813237397E+04  0.89879293951E+03 0.  0.
         23    2    4    4    0    0 -0.19221379876E+03  0.50350092858E+02 -0.18434515184E+04  0.18560938561E+04  0.85379306604E+02 0.  0.
         23    2    4    4    0    0  0.19770723577E+03  0.40425381709E+03 -0.42424419767E+03  0.62522988360E+03  0.91760385650E+02 0.  0.
          2    1    3    3  502    0  0.16096353443E+02 -0.49811602348E+02  0.84319107072E+01  0.53022499383E+02  0.00000000000E+00 0. -1.
         -1    1    3    3    0  502 -0.21589790458E+02 -0.40479230760E+03  0.23625709321E+03  0.46919116087E+03  0.00000000000E+00 0.  1.
         11    1    5    5    0    0 -0.15980416354E+03  0.67559271091E+01 -0.14775513080E+04  0.14861833269E+04  0.00000000000E+00 0. -1.
        -11    1    5    5    0    0 -0.32409635217E+02  0.43594165749E+02 -0.36590021035E+03  0.36991052928E+03  0.00000000000E+00 0.  1.
          2    1    6    6  503    0  0.14228865842E+03  0.35292085010E+03 -0.32443449268E+03  0.50005692554E+03  0.00000000000E+00 0. -1.
         -2    1    6    6    0  503  0.55418577355E+02  0.51332966999E+02 -0.99809704994E+02  0.12517295805E+03  0.00000000000E+00 0.  1.
<mgrwt>
<rscale>  0 0.22200632E+04</rscale>
<asrwt>0</asrwt>
<pdfrwt beam="1">  1        2 0.38665725E+00 0.22200632E+04</pdfrwt>
<pdfrwt beam="2">  1       -1 0.75425436E-01 0.22200632E+04</pdfrwt>
<totfact> 0.62748703E+00</totfact>
</mgrwt>
</event>
<event>
12    6  0.9491186E-008  0.1812743E+04  0.7818608E-02  0.8699552E-01
          2   -1    0    0  501    0  0.00000000000E+00  0.00000000000E+00  0.10531128100E+04  0.10531128100E+04  0.00000000000E+00 0. -1.
         -3   -1    0    0    0  501 -0.00000000000E+00 -0.00000000000E+00 -0.78007706436E+03  0.78007706436E+03  0.00000000000E+00 0.  1.
         24    2    1    2    0    0 -0.23057047503E+03  0.29161835773E+03  0.67576706861E+03  0.77608886700E+03  0.86306361026E+02 0.  0.
        254    2    1    2    0    0  0.23057047503E+03 -0.29161835773E+03 -0.40273132292E+03  0.10571010074E+04  0.90391703761E+03 0.  0.
         23    2    4    4    0    0  0.33088711149E+03 -0.20279935622E+03 -0.64947578826E+03  0.76216013295E+03  0.91953299469E+02 0.  0.
         23    2    4    4    0    0 -0.10031663646E+03 -0.88819001508E+02  0.24674446534E+03  0.29494087446E+03  0.90305291504E+02 0.  0.
          2    1    3    3  502    0 -0.91904022321E+02  0.15530153290E+03  0.25316987942E+03  0.31090175825E+03  0.00000000000E+00 0. -1.
         -1    1    3    3    0  502 -0.13866645271E+03  0.13631682483E+03  0.42259718919E+03  0.46518710875E+03  0.00000000000E+00 0.  1.
         11    1    5    5    0    0  0.71086171947E+02 -0.30626836584E+02 -0.70851565619E+02  0.10493422374E+03  0.00000000000E+00 0. -1.
        -11    1    5    5    0    0  0.25980093955E+03 -0.17217251963E+03 -0.57862422264E+03  0.65722590921E+03  0.00000000000E+00 0.  1.
          4    1    6    6  503    0 -0.47999738588E+02  0.31274117457E+01  0.39436931643E+02  0.62201504694E+02  0.00000000000E+00 0. -1.
         -4    1    6    6    0  503 -0.52316897872E+02 -0.91946413254E+02  0.20730753369E+03  0.23273936977E+03  0.00000000000E+00 0.  1.
<mgrwt>
<rscale>  0 0.18127428E+04</rscale>
<asrwt>0</asrwt>
<pdfrwt beam="1">  1        2 0.16201735E+00 0.18127428E+04</pdfrwt>
<pdfrwt beam="2">  1       -3 0.12001186E+00 0.18127428E+04</pdfrwt>
<totfact> 0.78665175E+00</totfact>
</mgrwt>
</event>
<event>
12    6  0.9491186E-008  0.1444078E+04  0.7818608E-02  0.8922516E-01
          2   -1    0    0  501    0  0.00000000000E+00  0.00000000000E+00  0.11859024423E+04  0.11859024423E+04  0.00000000000E+00 0. -1.
         -1   -1    0    0    0  501 -0.00000000000E+00 -0.00000000000E+00 -0.43961506540E+03  0.43961506540E+03  0.00000000000E+00 0.  1.
         24    2    1    2    0    0  0.12694750206E+03 -0.41802202037E+03  0.26046198080E+03  0.51479420230E+03  0.79464139642E+02 0.  0.
        254    2    1    2    0    0 -0.12694750206E+03  0.41802202037E+03  0.48582539615E+03  0.11107233054E+04  0.89823263574E+03 0.  0.
         23    2    4    4    0    0  0.37698989177E+02  0.18434591178E+03  0.70685977198E+03  0.73832255825E+03  0.10032364524E+03 0.  0.
         23    2    4    4    0    0 -0.16464649124E+03  0.23367610859E+03 -0.22103437583E+03  0.37240074719E+03  0.90072917144E+02 0.  0.
          4    1    3    3  502    0  0.95859707792E+02 -0.35936193083E+03  0.24858137956E+03  0.44735085020E+03  0.00000000000E+00 0. -1.
         -3    1    3    3    0  502  0.31087794267E+02 -0.58660089544E+02  0.11880601236E+02  0.67443352107E+02  0.00000000000E+00 0.  1.
         11    1    5    5    0    0 -0.82952383824E+01  0.10236991893E+02  0.19980535937E+03  0.20023932834E+03  0.00000000000E+00 0.  1.
        -11    1    5    5    0    0  0.45994227559E+02  0.17410891989E+03  0.50705441262E+03  0.53808322991E+03  0.00000000000E+00 0. -1.
          1    1    6    6  503    0 -0.17114711880E+03  0.20114033837E+03 -0.21006606218E+03  0.33745595635E+03  0.00000000000E+00 0. -1.
         -1    1    6    6    0  503  0.65006275598E+01  0.32535770224E+02 -0.10968313649E+02  0.34944790843E+02  0.00000000000E+00 0.  1.
<mgrwt>
<rscale>  0 0.14440784E+04</rscale>
<asrwt>0</asrwt>
<pdfrwt beam="1">  1        2 0.18244653E+00 0.14440784E+04</pdfrwt>
<pdfrwt beam="2">  1       -1 0.67633088E-01 0.14440784E+04</pdfrwt>
<totfact> 0.47304357E+01</totfact>
</mgrwt>
</event>
<event>
12    6  0.9491186E-008  0.1428305E+04  0.7818608E-02  0.8933581E-01
          2   -1    0    0  501    0  0.00000000000E+00  0.00000000000E+00  0.25371898980E+04  0.25371898980E+04  0.00000000000E+00 0. -1.
         -1   -1    0    0    0  501 -0.00000000000E+00 -0.00000000000E+00 -0.20101512347E+03  0.20101512347E+03  0.00000000000E+00 0.  1.
         24    2    1    2    0    0  0.75783518654E+01  0.13129112885E+03  0.14807354547E+04  0.14887196337E+04  0.80086635360E+02 0.  0.
        254    2    1    2    0    0 -0.75783518654E+01 -0.13129112885E+03  0.85543931988E+03  0.12494853878E+04  0.90118949857E+03 0.  0.
         23    2    4    4    0    0 -0.33936479683E+03  0.19640016702E+03  0.56532744176E+03  0.69270397711E+03  0.80636174041E+02 0.  0.
         23    2    4    4    0    0  0.33178644497E+03 -0.32769129587E+03  0.29011187812E+03  0.55678141066E+03  0.91524898164E+02 0.  0.
          2    1    3    3  502    0  0.90521678747E+00  0.14061845324E+03  0.12905284024E+04  0.12981671411E+04  0.00000000000E+00 0. -1.
         -1    1    3    3    0  502  0.66731350779E+01 -0.93273243927E+01  0.19020705222E+03  0.19055249257E+03  0.00000000000E+00 0.  1.
         11    1    5    5    0    0 -0.34031659768E+03  0.18871617004E+03  0.53594708487E+03  0.66232050948E+03  0.00000000000E+00 0. -1.
        -11    1    5    5    0    0  0.95180085107E+00  0.76839969718E+01  0.29380356891E+02  0.30383467633E+02  0.00000000000E+00 0.  1.
          1    1    6    6  503    0  0.23361865069E+03 -0.26212738747E+03  0.25389252758E+03  0.43330111559E+03  0.00000000000E+00 0. -1.
         -1    1    6    6    0  503  0.98167794276E+02 -0.65563908399E+02  0.36219350537E+02  0.12348029507E+03  0.00000000000E+00 0.  1.
<mgrwt>
<rscale>  0 0.14283046E+04</rscale>
<asrwt>0</asrwt>
<pdfrwt beam="1">  1        2 0.39033688E+00 0.14283046E+04</pdfrwt>
<pdfrwt beam="2">  1       -1 0.30925405E-01 0.14283046E+04</pdfrwt>
<totfact> 0.35569048E+01</totfact>
</mgrwt>
</event>
<event>
12    6  0.9491186E-008  0.1347107E+04  0.7818608E-02  0.8993021E-01
          2   -1    0    0  501    0  0.00000000000E+00  0.00000000000E+00  0.17468270525E+04  0.17468270525E+04  0.00000000000E+00 0. -1.
         -1   -1    0    0    0  501 -0.00000000000E+00 -0.00000000000E+00 -0.25971354302E+03  0.25971354302E+03  0.00000000000E+00 0.  1.
         24    2    1    2    0    0 -0.21918966180E+03  0.74200387222E+02  0.44955413110E+00  0.24249462889E+03  0.72481981465E+02 0.  0.
        254    2    1    2    0    0  0.21918966180E+03 -0.74200387222E+02  0.14866639554E+04  0.17640459666E+04  0.92094443424E+03 0.  0.
         23    2    4    4    0    0  0.10717810352E+03 -0.26054828064E+03  0.14974185665E+04  0.15268908581E+04  0.98796643550E+02 0.  0.
         23    2    4    4    0    0  0.11201155828E+03  0.18634789342E+03 -0.10754611174E+02  0.23715510853E+03  0.94099719819E+02 0.  0.
          2    1    3    3  502    0 -0.94865943683E+02  0.28580617210E+02  0.35935237710E+02  0.10539326478E+03  0.00000000000E+00 0. -1.
         -1    1    3    3    0  502 -0.12432371812E+03  0.45619770012E+02 -0.35485683579E+02  0.13710136412E+03  0.00000000000E+00 0.  1.
         11    1    5    5    0    0  0.33444688194E+02 -0.14499765627E+03  0.55695887984E+03  0.57649463252E+03  0.00000000000E+00 0. -1.
        -11    1    5    5    0    0  0.73733415330E+02 -0.11555062437E+03  0.94045968669E+03  0.95039622559E+03  0.00000000000E+00 0.  1.
          4    1    6    6  503    0  0.58940107652E+02  0.82396821012E+02  0.41243600499E+02  0.10938101748E+03  0.00000000000E+00 0. -1.
         -4    1    6    6    0  503  0.53071450628E+02  0.10395107241E+03 -0.51998211672E+02  0.12777409105E+03  0.00000000000E+00 0.  1.
<mgrwt>
<rscale>  0 0.13471075E+04</rscale>
<asrwt>0</asrwt>
<pdfrwt beam="1">  1        2 0.26874262E+00 0.13471075E+04</pdfrwt>
<pdfrwt beam="2">  1       -1 0.39955931E-01 0.13471075E+04</pdfrwt>
<totfact> 0.62740507E+01</totfact>
</mgrwt>
</event>
<event>
12    6  0.9491186E-008  0.1604566E+04  0.7818608E-02  0.8817748E-01
         -1   -1    0    0    0  501 -0.00000000000E+00  0.00000000000E+00  0.23450954530E+03  0.23450954530E+03  0.00000000000E+00 0.  1.
          2   -1    0    0  501    0  0.00000000000E+00 -0.00000000000E+00 -0.27446984103E+04  0.27446984103E+04  0.00000000000E+00 0. -1.
         24    2    1    2    0    0  0.17344017971E+03 -0.45250582175E+03 -0.13541860577E+04  0.14405566413E+04  0.80873625399E+02 0.  0.
        254    2    1    2    0    0 -0.17344017971E+03  0.45250582175E+03 -0.11560028073E+04  0.15386513143E+04  0.89233534157E+03 0.  0.
         23    2    4    4    0    0 -0.44132081654E+03  0.42339880673E+03 -0.10798024156E+04  0.12440700620E+04  0.87786387360E+02 0.  0.
         23    2    4    4    0    0  0.26788063683E+03  0.29107015027E+02 -0.76200391700E+02  0.29458125228E+03  0.91456878307E+02 0.  0.
          2    1    3    3  502    0  0.18096719011E+03 -0.41592746803E+03 -0.12651979355E+04  0.13440500729E+04  0.00000000000E+00 0. -1.
         -1    1    3    3    0  502 -0.75270104029E+01 -0.36578353722E+02 -0.88988122261E+02  0.96506568430E+02  0.00000000000E+00 0.  1.
         11    1    5    5    0    0 -0.36460560479E+01  0.26869236356E+02 -0.53152006261E+02  0.59668964769E+02  0.00000000000E+00 0.  1.
        -11    1    5    5    0    0 -0.43767476049E+03  0.39652957037E+03 -0.10266504093E+04  0.11844010972E+04  0.00000000000E+00 0. -1.
          2    1    6    6  503    0  0.26931981334E+03  0.14631469787E+02 -0.75179461114E+02  0.27999855917E+03  0.00000000000E+00 0. -1.
         -2    1    6    6    0  503 -0.14391765125E+01  0.14475545240E+02 -0.10209305860E+01  0.14582693108E+02  0.00000000000E+00 0.  1.
<mgrwt>
<rscale>  0 0.16045660E+04</rscale>
<asrwt>0</asrwt>
<pdfrwt beam="1">  1        2 0.42226127E+00 0.16045660E+04</pdfrwt>
<pdfrwt beam="2">  1       -1 0.36078393E-01 0.16045660E+04</pdfrwt>
<totfact> 0.20101337E+01</totfact>
</mgrwt>
</event>
<event>
12    6  0.9491186E-008  0.2151468E+04  0.7818608E-02  0.8538904E-01
          2   -1    0    0  501    0  0.00000000000E+00  0.00000000000E+00  0.65453219419E+03  0.65453219419E+03  0.00000000000E+00 0. -1.
         -1   -1    0    0    0  501 -0.00000000000E+00 -0.00000000000E+00 -0.17679852005E+04  0.17679852005E+04  0.00000000000E+00 0.  1.
         24    2    1    2    0    0  0.28147283557E+03 -0.58401361353E+03  0.21980940417E+03  0.68963285526E+03  0.83537075229E+02 0.  0.
        254    2    1    2    0    0 -0.28147283557E+03  0.58401361353E+03 -0.13332624105E+04  0.17328845395E+04  0.89721865443E+03 0.  0.
         23    2    4    4    0    0  0.18785809033E+03  0.26065982969E+02 -0.79493786293E+03  0.82223022216E+03  0.90367221635E+02 0.  0.
         23    2    4    4    0    0 -0.46933092590E+03  0.55794763057E+03 -0.53832454758E+03  0.91065431730E+03  0.88999385537E+02 0.  0.
          2    1    3    3  502    0  0.28249051517E+03 -0.55907099621E+03  0.22202271670E+03  0.66457155874E+03  0.00000000000E+00 0. -1.
         -1    1    3    3    0  502 -0.10176795964E+01 -0.24942617327E+02 -0.22133125285E+01  0.25061296519E+02  0.00000000000E+00 0.  1.
         11    1    5    5    0    0  0.10470795028E+03  0.59086636737E+02 -0.43076648041E+03  0.44723008188E+03  0.00000000000E+00 0. -1.
        -11    1    5    5    0    0  0.83150140044E+02 -0.33020653767E+02 -0.36417138252E+03  0.37500014028E+03  0.00000000000E+00 0.  1.
          3    1    6    6  503    0 -0.35659031704E+03  0.36560041208E+03 -0.39460033227E+03  0.64539115097E+03  0.00000000000E+00 0. -1.
         -3    1    6    6    0  503 -0.11274060886E+03  0.19234721848E+03 -0.14372421531E+03  0.26526316633E+03  0.00000000000E+00 0.  1.
<mgrwt>
<rscale>  0 0.21514676E+04</rscale>
<asrwt>0</asrwt>
<pdfrwt beam="1">  1        2 0.10069726E+00 0.21514676E+04</pdfrwt>
<pdfrwt beam="2">  1       -1 0.27199772E+00 0.21514676E+04</pdfrwt>
<totfact> 0.23420306E+00</totfact>
</mgrwt>
</event>
<event>
12    6  0.9491186E-008  0.2231988E+04  0.7818608E-02  0.8505231E-01
          2   -1    0    0  501    0  0.00000000000E+00  0.00000000000E+00  0.19015209281E+04  0.19015209281E+04  0.00000000000E+00 0. -1.
         -1   -1    0    0    0  501 -0.00000000000E+00 -0.00000000000E+00 -0.65497173608E+03  0.65497173608E+03  0.00000000000E+00 0.  1.
         24    2    1    2    0    0  0.22755445542E+03 -0.14392284849E+03 -0.50089533863E+03  0.57431744687E+03  0.80309233674E+02 0.  0.
        254    2    1    2    0    0 -0.22755445542E+03  0.14392284849E+03  0.17474445307E+04  0.19821752173E+04  0.89608112798E+03 0.  0.
         23    2    4    4    0    0 -0.43946123265E+03  0.18422555782E+03  0.44570115677E+03  0.65947682550E+03  0.95890203203E+02 0.  0.
         23    2    4    4    0    0  0.21190677723E+03 -0.40302709334E+02  0.13017433739E+04  0.13226983918E+04  0.92013225361E+02 0.  0.
          2    1    3    3  502    0  0.30868067064E+02 -0.70175837616E+01 -0.12165792296E+03  0.12570892675E+03  0.00000000000E+00 0. -1.
         -1    1    3    3    0  502  0.19668638836E+03 -0.13690526472E+03 -0.37923741568E+03  0.44860852012E+03  0.00000000000E+00 0.  1.
         11    1    5    5    0    0 -0.16460944053E+03  0.11371168336E+03  0.15346632239E+03  0.25214782758E+03  0.00000000000E+00 0. -1.
        -11    1    5    5    0    0 -0.27485179212E+03  0.70513874455E+02  0.29223483438E+03  0.40732899792E+03  0.00000000000E+00 0.  1.
          1    1    6    6  503    0  0.13907888119E+03 -0.65717066271E+02  0.75212407160E+03  0.76769283380E+03  0.00000000000E+00 0. -1.
         -1    1    6    6    0  503  0.72827896041E+02  0.25414356937E+02  0.54961930231E+03  0.55500555803E+03  0.00000000000E+00 0.  1.
<mgrwt>
<rscale>  0 0.22319879E+04</rscale>
<asrwt>0</asrwt>
<pdfrwt beam="1">  1        2 0.29254168E+00 0.22319879E+04</pdfrwt>
<pdfrwt beam="2">  1       -1 0.10076488E+00 0.22319879E+04</pdfrwt>
<totfact> 0.73657589E+00</totfact>
</mgrwt>
</event>
<event>
12    6  0.9491186E-008  0.2056183E+04  0.7818608E-02  0.8580795E-01
          2   -1    0    0  501    0  0.00000000000E+00  0.00000000000E+00  0.38527196449E+04  0.38527196449E+04  0.00000000000E+00 0. -1.
         -1   -1    0    0    0  501 -0.00000000000E+00 -0.00000000000E+00 -0.27434435615E+03  0.27434435615E+03  0.00000000000E+00 0.  1.
         24    2    1    2    0    0  0.41922601669E+03  0.32266029987E+03  0.26922704432E+04  0.27450071883E+04  0.82971093596E+02 0.  0.
        254    2    1    2    0    0 -0.41922601669E+03 -0.32266029987E+03  0.88610484563E+03  0.13820568128E+04  0.91926009062E+03 0.  0.
         23    2    4    4    0    0 -0.21606848122E+03 -0.23206675432E+03 -0.11849724828E+03  0.34850147863E+03  0.82892193380E+02 0.  0.
         23    2    4    4    0    0 -0.20315753548E+03 -0.90593545556E+02  0.10046020939E+04  0.10335553342E+04  0.97627286238E+02 0.  0.
          4    1    3    3  502    0  0.37148657903E+03  0.27489934968E+03  0.21909611206E+04  0.22391700612E+04  0.00000000000E+00 0. -1.
         -3    1    3    3    0  502  0.47739437662E+02  0.47760950193E+02  0.50130932255E+03  0.50583712710E+03  0.00000000000E+00 0.  1.
         11    1    5    5    0    0 -0.70259029314E+01 -0.48881975701E+02 -0.11778942296E+02  0.50769620267E+02  0.00000000000E+00 0. -1.
        -11    1    5    5    0    0 -0.20904257828E+03 -0.18318477862E+03 -0.10671830598E+03  0.29773185836E+03  0.00000000000E+00 0.  1.
          1    1    6    6  503    0 -0.88486253200E+02 -0.51195911255E+02  0.26416179864E+03  0.28325305682E+03  0.00000000000E+00 0. -1.
         -1    1    6    6    0  503 -0.11467128228E+03 -0.39397634301E+02  0.74044029527E+03  0.75030227737E+03  0.00000000000E+00 0.  1.
<mgrwt>
<rscale>  0 0.20561828E+04</rscale>
<asrwt>0</asrwt>
<pdfrwt beam="1">  1        2 0.59272606E+00 0.20561828E+04</pdfrwt>
<pdfrwt beam="2">  1       -1 0.42206827E-01 0.20561828E+04</pdfrwt>
<totfact> 0.26195189E+00</totfact>
</mgrwt>
</event>
<event>
12    6  0.9491186E-008  0.1356273E+04  0.7818608E-02  0.8986093E-01
         -1   -1    0    0    0  501 -0.00000000000E+00  0.00000000000E+00  0.35841902322E+03  0.35841902322E+03  0.00000000000E+00 0.  1.
          2   -1    0    0  501    0  0.00000000000E+00 -0.00000000000E+00 -0.12830485471E+04  0.12830485471E+04  0.00000000000E+00 0. -1.
         24    2    1    2    0    0  0.85988883885E+02 -0.36015031174E+03 -0.33444548106E+03  0.50236476644E+03  0.58431528850E+02 0.  0.
        254    2    1    2    0    0 -0.85988883885E+02  0.36015031174E+03 -0.59018404285E+03  0.11391028039E+04  0.90118569577E+03 0.  0.
         23    2    4    4    0    0  0.18446575721E+03 -0.53418970357E+02  0.13874071070E+03  0.25383604223E+03  0.91118327230E+02 0.  0.
         23    2    4    4    0    0 -0.27045464109E+03  0.41356928210E+03 -0.72892475355E+03  0.88526676168E+03  0.90447106213E+02 0.  0.
          2    1    3    3  502    0  0.93393251831E+02 -0.30168658540E+03 -0.27729397415E+03  0.42027258226E+03  0.00000000000E+00 0. -1.
         -1    1    3    3    0  502 -0.74043679459E+01 -0.58463726341E+02 -0.57151506906E+02  0.82092184183E+02  0.00000000000E+00 0.  1.
         11    1    5    5    0    0  0.18842881692E+03 -0.32423699807E+02  0.12461883808E+03  0.22822482372E+03  0.00000000000E+00 0. -1.
        -11    1    5    5    0    0 -0.39630597167E+01 -0.20995270550E+02  0.14121872617E+02  0.25611218518E+02  0.00000000000E+00 0.  1.
          1    1    6    6  503    0 -0.26433668344E+03  0.38094252354E+03 -0.70700813903E+03  0.84548896924E+03  0.00000000000E+00 0. -1.
         -1    1    6    6    0  503 -0.61179576519E+01  0.32626758557E+02 -0.21916614525E+02  0.39777792447E+02  0.00000000000E+00 0.  1.
<mgrwt>
<rscale>  0 0.13562728E+04</rscale>
<asrwt>0</asrwt>
<pdfrwt beam="1">  1        2 0.19739209E+00 0.13562728E+04</pdfrwt>
<pdfrwt beam="2">  1       -1 0.55141388E-01 0.13562728E+04</pdfrwt>
<totfact> 0.62571909E+01</totfact>
</mgrwt>
</event>
<event>
12    6  0.9491186E-008  0.2220786E+04  0.7818608E-02  0.8509826E-01
         -1   -1    0    0    0  501 -0.00000000000E+00  0.00000000000E+00  0.46023725287E+03  0.46023725287E+03  0.00000000000E+00 0.  1.
          2   -1    0    0  501    0  0.00000000000E+00 -0.00000000000E+00 -0.26789944229E+04  0.26789944229E+04  0.00000000000E+00 0. -1.
         24    2    1    2    0    0  0.43215663434E+03 -0.48113376184E+03 -0.18702541693E+04  0.19804669496E+04  0.78419560407E+02 0.  0.
        254    2    1    2    0    0 -0.43215663434E+03  0.48113376184E+03 -0.34850300076E+03  0.11587647262E+04  0.89612069259E+03 0.  0.
         23    2    4    4    0    0 -0.24294498036E+03 -0.23793047715E+03 -0.66272930808E+02  0.35831227347E+03  0.91446205646E+02 0.  0.
         23    2    4    4    0    0 -0.18921165398E+03  0.71906423899E+03 -0.28223006995E+03  0.80045245269E+03  0.90641529392E+02 0.  0.
          2    1    3    3  502    0  0.36214921784E+03 -0.38686315479E+03 -0.16095260376E+04  0.16945174010E+04  0.00000000000E+00 0. -1.
         -1    1    3    3    0  502  0.70007416497E+02 -0.94270607052E+02 -0.26072813166E+03  0.28594954862E+03  0.00000000000E+00 0.  1.
         11    1    5    5    0    0 -0.15598961837E+03 -0.15101887120E+03 -0.86507627839E+02  0.23371570373E+03  0.00000000000E+00 0. -1.
        -11    1    5    5    0    0 -0.86955361990E+02 -0.86911605946E+02  0.20234697031E+02  0.12459656974E+03  0.00000000000E+00 0.  1.
          1    1    6    6  503    0 -0.85319166807E+02  0.41207351864E+03 -0.11757253359E+03  0.43692933713E+03  0.00000000000E+00 0. -1.
         -1    1    6    6    0  503 -0.10389248717E+03  0.30699072034E+03 -0.16465753637E+03  0.36352311556E+03  0.00000000000E+00 0.  1.
<mgrwt>
<rscale>  0 0.22207864E+04</rscale>
<asrwt>0</asrwt>
<pdfrwt beam="1">  1        2 0.41215299E+00 0.22207864E+04</pdfrwt>
<pdfrwt beam="2">  1       -1 0.70805732E-01 0.22207864E+04</pdfrwt>
<totfact> 0.57203198E+00</totfact>
</mgrwt>
</event>
<event>
12    6  0.9491186E-008  0.1976953E+04  0.7818608E-02  0.8617472E-01
          2   -1    0    0  501    0  0.00000000000E+00  0.00000000000E+00  0.14389081775E+04  0.14389081775E+04  0.00000000000E+00 0. -1.
         -1   -1    0    0    0  501 -0.00000000000E+00 -0.00000000000E+00 -0.67904643424E+03  0.67904643424E+03  0.00000000000E+00 0.  1.
         24    2    1    2    0    0 -0.51868697329E+03 -0.42593521044E+03  0.73113961183E+03  0.99571789667E+03  0.80199862886E+02 0.  0.
        254    2    1    2    0    0  0.51868697329E+03  0.42593521044E+03  0.28722131467E+02  0.11222367151E+04  0.89896234857E+03 0.  0.
         23    2    4    4    0    0  0.60802298608E+03 -0.33352851744E+02  0.13759001444E+03  0.63142184343E+03  0.94647598832E+02 0.  0.
         23    2    4    4    0    0 -0.89336012790E+02  0.45928806218E+03 -0.10886788297E+03  0.49081487168E+03  0.10060106892E+03 0.  0.
          2    1    3    3  502    0 -0.35022004060E+03 -0.28306330930E+03  0.43345366273E+03  0.62502879265E+03  0.00000000000E+00 0. -1.
         -1    1    3    3    0  502 -0.16846693269E+03 -0.14287190115E+03  0.29768594910E+03  0.37068910402E+03  0.00000000000E+00 0.  1.
         11    1    5    5    0    0  0.40240757390E+02 -0.99203728403E+01 -0.13188572872E+02  0.43493342100E+02  0.00000000000E+00 0.  1.
        -11    1    5    5    0    0  0.56778222869E+03 -0.23432478903E+02  0.15077858731E+03  0.58792850133E+03  0.00000000000E+00 0. -1.
          4    1    6    6  503    0 -0.10411354723E+03  0.41611324575E+03 -0.11665782048E+03  0.44452099060E+03  0.00000000000E+00 0. -1.
         -4    1    6    6    0  503  0.14777534443E+02  0.43174816439E+02  0.77899375123E+01  0.46293881077E+02  0.00000000000E+00 0.  1.
<mgrwt>
<rscale>  0 0.19769527E+04</rscale>
<asrwt>0</asrwt>
<pdfrwt beam="1">  1        2 0.22137049E+00 0.19769527E+04</pdfrwt>
<pdfrwt beam="2">  1       -1 0.10446868E+00 0.19769527E+04</pdfrwt>
<totfact> 0.12563218E+01</totfact>
</mgrwt>
</event>
<event>
12    6  0.9491186E-008  0.4310227E+04  0.7818608E-02  0.7944730E-01
          2   -1    0    0  501    0  0.00000000000E+00  0.00000000000E+00  0.28011013422E+04  0.28011013422E+04  0.00000000000E+00 0. -1.
         -1   -1    0    0    0  501 -0.00000000000E+00 -0.00000000000E+00 -0.16581027037E+04  0.16581027037E+04  0.00000000000E+00 0.  1.
         24    2    1    2    0    0 -0.24157944499E+03 -0.19974394294E+04  0.10033977595E+04  0.22497836417E+04  0.81206333113E+02 0.  0.
        254    2    1    2    0    0  0.24157944499E+03  0.19974394294E+04  0.13960087909E+03  0.22094204042E+04  0.90217803932E+03 0.  0.
         23    2    4    4    0    0  0.71770267533E+02 -0.27410632163E+02  0.12026046525E+03  0.17508453531E+03  0.10143816315E+03 0.  0.
         23    2    4    4    0    0  0.16980917746E+03  0.20248500616E+04  0.19340413845E+02  0.20343358689E+04  0.96412899767E+02 0.  0.
          2    1    3    3  502    0 -0.22624233503E+03 -0.17714854658E+04  0.91540196807E+03  0.20068151666E+04  0.00000000000E+00 0. -1.
         -1    1    3    3    0  502 -0.15337109958E+02 -0.22595396364E+03  0.87995791376E+02  0.24296847517E+03  0.00000000000E+00 0.  1.
         11    1    5    5    0    0  0.54144785605E+02  0.28809584233E+02  0.89832729577E+02  0.10877301713E+03  0.00000000000E+00 0. -1.
        -11    1    5    5    0    0  0.17625481927E+02 -0.56220216397E+02  0.30427735671E+02  0.66311518177E+02  0.00000000000E+00 0.  1.
          3    1    6    6  503    0 -0.94574647481E+01  0.24795934183E+03 -0.68247602845E+01  0.24823347114E+03  0.00000000000E+00 0. -1.
         -3    1    6    6    0  503  0.17926664221E+03  0.17768907198E+04  0.26165174129E+02  0.17861023978E+04  0.00000000000E+00 0.  1.
<mgrwt>
<rscale>  0 0.43102268E+04</rscale>
<asrwt>0</asrwt>
<pdfrwt beam="1">  1        2 0.43093867E+00 0.43102268E+04</pdfrwt>
<pdfrwt beam="2">  1       -1 0.25509272E+00 0.43102268E+04</pdfrwt>
<totfact> 0.13032623E-01</totfact>
</mgrwt>
</event>
<event>
12    6  0.9491186E-008  0.3182954E+04  0.7818608E-02  0.8193333E-01
         -1   -1    0    0    0  501 -0.00000000000E+00  0.00000000000E+00  0.75569023394E+03  0.75569023394E+03  0.00000000000E+00 0.  1.
          2   -1    0    0  501    0  0.00000000000E+00 -0.00000000000E+00 -0.33516372674E+04  0.33516372674E+04  0.00000000000E+00 0. -1.
         24    2    1    2    0    0  0.91116739063E+03 -0.22465929756E+02 -0.26785836358E+04  0.28303441922E+04  0.72850675242E+02 0.  0.
        254    2    1    2    0    0 -0.91116739063E+03  0.22465929756E+02  0.82636602313E+02  0.12769833091E+04  0.89057668504E+03 0.  0.
         23    2    4    4    0    0  0.44733159413E+02 -0.22748725082E+03  0.13541460228E+03  0.28329904524E+03  0.90386557018E+02 0.  0.
         23    2    4    4    0    0 -0.95590055005E+03  0.24995318057E+03 -0.52777999964E+02  0.99368426387E+03  0.91653941090E+02 0.  0.
          4    1    3    3  502    0  0.67902229329E+03 -0.45756978527E+02 -0.20339778023E+04  0.21448148349E+04  0.00000000000E+00 0. -1.
         -3    1    3    3    0  502  0.23214509734E+03  0.23291048771E+02 -0.64460583350E+03  0.68552935733E+03  0.00000000000E+00 0.  1.
         11    1    5    5    0    0  0.72581203065E+02 -0.17380961244E+03  0.10127273619E+03  0.21385504321E+03  0.00000000000E+00 0. -1.
        -11    1    5    5    0    0 -0.27848043652E+02 -0.53677638380E+02  0.34141866091E+02  0.69444002026E+02  0.00000000000E+00 0.  1.
          3    1    6    6  503    0 -0.74144643260E+03  0.22842887641E+03 -0.58866254507E+02  0.77806670660E+03  0.00000000000E+00 0. -1.
         -3    1    6    6    0  503 -0.21445411744E+03  0.21524304157E+02  0.60882545430E+01  0.21561755727E+03  0.00000000000E+00 0.  1.
<mgrwt>
<rscale>  0 0.31829543E+04</rscale>
<asrwt>0</asrwt>
<pdfrwt beam="1">  1        2 0.51563650E+00 0.31829543E+04</pdfrwt>
<pdfrwt beam="2">  1       -1 0.11626004E+00 0.31829543E+04</pdfrwt>
<totfact> 0.65776621E-01</totfact>
</mgrwt>
</event>
<event>
12    6  0.9491186E-008  0.2210645E+04  0.7818608E-02  0.8514011E-01
          2   -1    0    0  501    0  0.00000000000E+00  0.00000000000E+00  0.90912544823E+03  0.90912544823E+03  0.00000000000E+00 0. -1.
         -1   -1    0    0    0  501 -0.00000000000E+00 -0.00000000000E+00 -0.13438602520E+04  0.13438602520E+04  0.00000000000E+00 0.  1.
         24    2    1    2    0    0 -0.38009529071E+03  0.50698372294E+03 -0.86037980826E+03  0.10716094749E+04  0.81169741322E+02 0.  0.
        254    2    1    2    0    0  0.38009529071E+03 -0.50698372294E+03  0.42564500444E+03  0.11813762254E+04  0.90164915057E+03 0.  0.
         23    2    4    4    0    0  0.26497982917E+03  0.23660283115E+02  0.54849538694E+03  0.61697596695E+03  0.95068582796E+02 0.  0.
         23    2    4    4    0    0  0.11511546153E+03 -0.53064400606E+03 -0.12285038251E+03  0.56440025841E+03  0.92848287904E+02 0.  0.
          4    1    3    3  502    0 -0.97101457952E+02  0.14669506801E+03 -0.18298643220E+03  0.25383492763E+03  0.00000000000E+00 0. -1.
         -3    1    3    3    0  502 -0.28299383275E+03  0.36028865493E+03 -0.67739337605E+03  0.81777454728E+03  0.00000000000E+00 0.  1.
         11    1    5    5    0    0  0.21762717625E+03  0.56110136631E+02  0.42390884228E+03  0.47980062718E+03  0.00000000000E+00 0.  1.
        -11    1    5    5    0    0  0.47352652923E+02 -0.32449853516E+02  0.12458654466E+03  0.13717533978E+03  0.00000000000E+00 0. -1.
          4    1    6    6  503    0  0.11970141031E+03 -0.34979790161E+03 -0.74457213158E+02  0.37713509011E+03  0.00000000000E+00 0.  1.
         -4    1    6    6    0  503 -0.45859487791E+01 -0.18084610445E+03 -0.48393169347E+02  0.18726516830E+03  0.00000000000E+00 0. -1.
<mgrwt>
<rscale>  0 0.22106448E+04</rscale>
<asrwt>0</asrwt>
<pdfrwt beam="1">  1        2 0.13986545E+00 0.22106448E+04</pdfrwt>
<pdfrwt beam="2">  1       -1 0.20674773E+00 0.22106448E+04</pdfrwt>
<totfact> 0.40735483E+00</totfact>
</mgrwt>
</event>
<event>
12    6  0.9491186E-008  0.2126198E+04  0.7818608E-02  0.8549790E-01
          2   -1    0    0  501    0  0.00000000000E+00  0.00000000000E+00  0.17122089242E+04  0.17122089242E+04  0.00000000000E+00 0. -1.
         -1   -1    0    0    0  501 -0.00000000000E+00 -0.00000000000E+00 -0.66007098074E+03  0.66007098074E+03  0.00000000000E+00 0.  1.
         24    2    1    2    0    0  0.65499336793E+03 -0.37029557414E+03  0.91692742279E+03  0.11888867399E+04  0.80997885663E+02 0.  0.
        254    2    1    2    0    0 -0.65499336793E+03  0.37029557414E+03  0.13521052065E+03  0.11833931650E+04  0.90332849716E+03 0.  0.
         23    2    4    4    0    0 -0.73944226601E+02  0.37655226339E+03 -0.26202665282E+03  0.47364484244E+03  0.91772077814E+02 0.  0.
         23    2    4    4    0    0 -0.58104914133E+03 -0.62566892557E+01  0.39723717348E+03  0.70974832255E+03  0.91038775096E+02 0.  0.
          2    1    3    3  502    0  0.45641659745E+03 -0.21763924279E+03  0.58986458354E+03  0.77693190007E+03  0.00000000000E+00 0. -1.
         -1    1    3    3    0  502  0.19857677048E+03 -0.15265633134E+03  0.32706283925E+03  0.41195483987E+03  0.00000000000E+00 0.  1.
         11    1    5    5    0    0 -0.59511834264E+02  0.11596937110E+03 -0.11654869344E+03  0.17485465792E+03  0.00000000000E+00 0. -1.
        -11    1    5    5    0    0 -0.14432392337E+02  0.26058289229E+03 -0.14547795938E+03  0.29879018452E+03  0.00000000000E+00 0.  1.
          3    1    6    6  503    0 -0.99690408438E+02  0.21594871836E+02  0.10266223367E+03  0.14472059372E+03  0.00000000000E+00 0. -1.
         -3    1    6    6    0  503 -0.48135873289E+03 -0.27851561092E+02  0.29457493980E+03  0.56502772883E+03  0.00000000000E+00 0.  1.
<mgrwt>
<rscale>  0 0.21261979E+04</rscale>
<asrwt>0</asrwt>
<pdfrwt beam="1">  1        2 0.26341676E+00 0.21261979E+04</pdfrwt>
<pdfrwt beam="2">  1       -1 0.10154938E+00 0.21261979E+04</pdfrwt>
<totfact> 0.93014546E+00</totfact>
</mgrwt>
</event>
<event>
12    6  0.9491186E-008  0.1724483E+04  0.7818608E-02  0.8747522E-01
          2   -1    0    0  501    0  0.00000000000E+00  0.00000000000E+00  0.29891719740E+04  0.29891719740E+04  0.00000000000E+00 0. -1.
         -1   -1    0    0    0  501 -0.00000000000E+00 -0.00000000000E+00 -0.24871796309E+03  0.24871796309E+03  0.00000000000E+00 0.  1.
         24    2    1    2    0    0 -0.21459776000E+03 -0.31957459595E+03  0.18727267319E+04  0.19135810282E+04  0.80664851627E+02 0.  0.
        254    2    1    2    0    0  0.21459776000E+03  0.31957459595E+03  0.86772727898E+03  0.13243089088E+04  0.92339771188E+03 0.  0.
         23    2    4    4    0    0  0.11172779563E+03 -0.29295620939E+02  0.93296913482E+03  0.94439147728E+03  0.90014010617E+02 0.  0.
         23    2    4    4    0    0  0.10286996437E+03  0.34887021689E+03 -0.65241855837E+02  0.37991743154E+03  0.88250196761E+02 0.  0.
          2    1    3    3  502    0 -0.17207696236E+03 -0.18743849399E+03  0.11976960737E+04  0.12244262146E+04  0.00000000000E+00 0. -1.
         -1    1    3    3    0  502 -0.42520797639E+02 -0.13213610196E+03  0.67503065817E+03  0.68915481362E+03  0.00000000000E+00 0.  1.
         11    1    5    5    0    0  0.75780086025E+02  0.25653086831E+02  0.46380130196E+03  0.47065098534E+03  0.00000000000E+00 0.  1.
        -11    1    5    5    0    0  0.35947709601E+02 -0.54948707770E+02  0.46916783286E+03  0.47374049194E+03  0.00000000000E+00 0. -1.
          3    1    6    6  503    0  0.97327072487E+02  0.32439307134E+03 -0.34796976254E+02  0.34046182360E+03  0.00000000000E+00 0. -1.
         -3    1    6    6    0  503  0.55428918851E+01  0.24477145550E+02 -0.30444879583E+02  0.39455607935E+02  0.00000000000E+00 0.  1.
<mgrwt>
<rscale>  0 0.17244834E+04</rscale>
<asrwt>0</asrwt>
<pdfrwt beam="1">  1        2 0.45987259E+00 0.17244834E+04</pdfrwt>
<pdfrwt beam="2">  1       -1 0.38264304E-01 0.17244834E+04</pdfrwt>
<totfact> 0.12688382E+01</totfact>
</mgrwt>
</event>
<event>
12    6  0.9491186E-008  0.3398736E+04  0.7818608E-02  0.8138217E-01
         -1   -1    0    0    0  501 -0.00000000000E+00  0.00000000000E+00  0.10331010702E+04  0.10331010702E+04  0.00000000000E+00 0.  1.
          2   -1    0    0  501    0  0.00000000000E+00 -0.00000000000E+00 -0.27953240526E+04  0.27953240526E+04  0.00000000000E+00 0. -1.
         24    2    1    2    0    0 -0.22135687879E+03  0.52338719351E+03  0.84030313073E+03  0.10176133015E+04  0.80588198302E+02 0.  0.
        254    2    1    2    0    0  0.22135687879E+03 -0.52338719351E+03 -0.26025261131E+04  0.28108118213E+04  0.89698824052E+03 0.  0.
         23    2    4    4    0    0  0.33969010700E+03 -0.54280514576E+03 -0.25788358052E+04  0.26586661706E+04  0.89916077717E+02 0.  0.
         23    2    4    4    0    0 -0.11833322821E+03  0.19417952250E+02 -0.23690307817E+02  0.15214565076E+03  0.90593921397E+02 0.  0.
          4    1    3    3  502    0 -0.54932794226E+01  0.27344827107E+02  0.78195479276E+02  0.83020772506E+02  0.00000000000E+00 0. -1.
         -3    1    3    3    0  502 -0.21586359937E+03  0.49604236641E+03  0.76210765145E+03  0.93459252897E+03  0.00000000000E+00 0.  1.
         11    1    5    5    0    0  0.10104972267E+03 -0.97722624249E+02 -0.50215777599E+03  0.52146254873E+03  0.00000000000E+00 0.  1.
        -11    1    5    5    0    0  0.23864038434E+03 -0.44508252151E+03 -0.20766780293E+04  0.21372036218E+04  0.00000000000E+00 0. -1.
          3    1    6    6  503    0 -0.85599208176E+02  0.54382971274E+02 -0.24139740202E+02  0.10424710577E+03  0.00000000000E+00 0. -1.
         -3    1    6    6    0  503 -0.32734020033E+02 -0.34965019024E+02  0.44943238508E+00  0.47898544992E+02  0.00000000000E+00 0.  1.
<mgrwt>
<rscale>  0 0.33987364E+04</rscale>
<asrwt>0</asrwt>
<pdfrwt beam="1">  1        2 0.43004985E+00 0.33987364E+04</pdfrwt>
<pdfrwt beam="2">  1       -1 0.15893863E+00 0.33987364E+04</pdfrwt>
<totfact> 0.65187510E-01</totfact>
</mgrwt>
</event>
<event>
12    6  0.9491186E-008  0.2064921E+04  0.7818608E-02  0.8576856E-01
         -1   -1    0    0    0  501 -0.00000000000E+00  0.00000000000E+00  0.89670670086E+03  0.89670670086E+03  0.00000000000E+00 0.  1.
          2   -1    0    0  501    0  0.00000000000E+00 -0.00000000000E+00 -0.11887657114E+04  0.11887657114E+04  0.00000000000E+00 0. -1.
         24    2    1    2    0    0 -0.46714659199E+03  0.31350816749E+03  0.51525632090E+03  0.76712847659E+03  0.80521511831E+02 0.  0.
        254    2    1    2    0    0  0.46714659199E+03 -0.31350816749E+03 -0.80731533143E+03  0.13183439357E+04  0.87735932141E+03 0.  0.
         23    2    4    4    0    0  0.65375592838E+03 -0.95813763076E+02 -0.30445042735E+03  0.73321648884E+03  0.91319580062E+02 0.  0.
         23    2    4    4    0    0 -0.18660933640E+03 -0.21769440441E+03 -0.50286490408E+03  0.58512744683E+03  0.85364624588E+02 0.  0.
          2    1    3    3  502    0 -0.40044412148E+02  0.85569599553E+01  0.20129707359E+02  0.45628736848E+02  0.00000000000E+00 0. -1.
         -1    1    3    3    0  502 -0.42710217984E+03  0.30495120753E+03  0.49512661354E+03  0.72149973974E+03  0.00000000000E+00 0.  1.
         11    1    5    5    0    0  0.38062725798E+03 -0.57544091106E+02 -0.12742469552E+03  0.40549412445E+03  0.00000000000E+00 0. -1.
        -11    1    5    5    0    0  0.27312867041E+03 -0.38269671970E+02 -0.17702573183E+03  0.32772236439E+03  0.00000000000E+00 0.  1.
          4    1    6    6  503    0 -0.26623997888E+01 -0.50320991863E+02 -0.89831428351E+02  0.10299988405E+03  0.00000000000E+00 0. -1.
         -4    1    6    6    0  503 -0.18394693661E+03 -0.16737341255E+03 -0.41303347573E+03  0.48212756278E+03  0.00000000000E+00 0.  1.
<mgrwt>
<rscale>  0 0.20649205E+04</rscale>
<asrwt>0</asrwt>
<pdfrwt beam="1">  1        2 0.18288703E+00 0.20649205E+04</pdfrwt>
<pdfrwt beam="2">  1       -1 0.13795488E+00 0.20649205E+04</pdfrwt>
<totfact> 0.88297992E+00</totfact>
</mgrwt>
</event>
<event>
12    6  0.9491186E-008  0.2242043E+04  0.7818608E-02  0.8501130E-01
          2   -1    0    0  501    0  0.00000000000E+00  0.00000000000E+00  0.28159444903E+04  0.28159444903E+04  0.00000000000E+00 0. -1.
         -1   -1    0    0    0  501 -0.00000000000E+00 -0.00000000000E+00 -0.44627621754E+03  0.44627621754E+03  0.00000000000E+00 0.  1.
         24    2    1    2    0    0 -0.42684659036E+03 -0.65418080195E+03  0.23854401975E+03  0.82028718206E+03  0.76271084652E+02 0.  0.
        254    2    1    2    0    0  0.42684659036E+03  0.65418080195E+03  0.21311242530E+04  0.24419335258E+04  0.90066543690E+03 0.  0.
         23    2    4    4    0    0  0.16104318704E+02  0.23872450862E+03  0.16770618256E+04  0.16964736299E+04  0.90761610825E+02 0.  0.
         23    2    4    4    0    0  0.41074227166E+03  0.41545629333E+03  0.45406242743E+03  0.74545989589E+03  0.90689707127E+02 0.  0.
          2    1    3    3  502    0 -0.79979522953E+02 -0.18283565629E+03  0.56549031005E+02  0.20742081431E+03  0.00000000000E+00 0. -1.
         -1    1    3    3    0  502 -0.34686706741E+03 -0.47134514566E+03  0.18199498874E+03  0.61286636775E+03  0.00000000000E+00 0.  1.
         11    1    5    5    0    0  0.27878236951E+02  0.13584905511E+03  0.67650586566E+03  0.69057392663E+03  0.00000000000E+00 0.  1.
        -11    1    5    5    0    0 -0.11773918247E+02  0.10287545351E+03  0.10005559600E+04  0.10058997033E+04  0.00000000000E+00 0. -1.
          4    1    6    6  503    0  0.19243761620E+03  0.25885845009E+03  0.24676550478E+03  0.40611962236E+03  0.00000000000E+00 0. -1.
         -4    1    6    6    0  503  0.21830465545E+03  0.15659784324E+03  0.20729692265E+03  0.33934027353E+03  0.00000000000E+00 0.  1.
<mgrwt>
<rscale>  0 0.22420429E+04</rscale>
<asrwt>0</asrwt>
<pdfrwt beam="1">  1        2 0.43322222E+00 0.22420429E+04</pdfrwt>
<pdfrwt beam="2">  1       -1 0.68657881E-01 0.22420429E+04</pdfrwt>
<totfact> 0.50347968E+00</totfact>
</mgrwt>
</event>
<event>
12    6  0.9491186E-008  0.3157885E+04  0.7818608E-02  0.8200029E-01
         -1   -1    0    0    0  501 -0.00000000000E+00  0.00000000000E+00  0.15048099651E+04  0.15048099651E+04  0.00000000000E+00 0.  1.
          2   -1    0    0  501    0  0.00000000000E+00 -0.00000000000E+00 -0.16567267656E+04  0.16567267656E+04  0.00000000000E+00 0. -1.
         24    2    1    2    0    0 -0.93932860064E+03 -0.51716739857E+03 -0.10448213684E+04  0.14993109445E+04  0.80506386865E+02 0.  0.
        254    2    1    2    0    0  0.93932860064E+03  0.51716739857E+03  0.89290456796E+03  0.16622257861E+04  0.90328049823E+03 0.  0.
         23    2    4    4    0    0  0.10809770541E+04  0.38540079521E+03  0.87764234703E+03  0.14477024168E+04  0.92417713955E+02 0.  0.
         23    2    4    4    0    0 -0.14164845351E+03  0.13176660337E+03  0.15262220934E+02  0.21452336931E+03  0.91436417523E+02 0.  0.
          4    1    3    3  502    0 -0.81075107874E+03 -0.41474291019E+03 -0.87340360097E+03  0.12618093530E+04  0.00000000000E+00 0. -1.
         -3    1    3    3    0  502 -0.12857752190E+03 -0.10242448839E+03 -0.17141776746E+03  0.23750159149E+03  0.00000000000E+00 0.  1.
         11    1    5    5    0    0  0.14896298676E+03  0.82295239408E+02  0.15286657732E+03  0.22875897428E+03  0.00000000000E+00 0.  1.
        -11    1    5    5    0    0  0.93201406739E+03  0.30310555580E+03  0.72477576970E+03  0.12189434425E+04  0.00000000000E+00 0. -1.
          2    1    6    6  503    0 -0.86884194902E+02  0.24405405107E+02 -0.11758244249E+02  0.91009578782E+02  0.00000000000E+00 0. -1.
         -2    1    6    6    0  503 -0.54764258604E+02  0.10736119826E+03  0.27020465183E+02  0.12351379053E+03  0.00000000000E+00 0.  1.
<mgrwt>
<rscale>  0 0.31578847E+04</rscale>
<asrwt>0</asrwt>
<pdfrwt beam="1">  1        2 0.25488104E+00 0.31578847E+04</pdfrwt>
<pdfrwt beam="2">  1       -1 0.23150923E+00 0.31578847E+04</pdfrwt>
<totfact> 0.91973374E-01</totfact>
</mgrwt>
</event>
<event>
12    6  0.9491186E-008  0.2344478E+04  0.7818608E-02  0.8460588E-01
         -1   -1    0    0    0  501 -0.00000000000E+00  0.00000000000E+00  0.12797895006E+04  0.12797895006E+04  0.00000000000E+00 0.  1.
          2   -1    0    0  501    0  0.00000000000E+00 -0.00000000000E+00 -0.10737267489E+04  0.10737267489E+04  0.00000000000E+00 0. -1.
         24    2    1    2    0    0 -0.43944682654E+03 -0.31486204534E+02  0.98557932962E+03  0.10825730803E+04  0.80578934911E+02 0.  0.
        254    2    1    2    0    0  0.43944682654E+03  0.31486204534E+02 -0.77951657786E+03  0.12709431692E+04  0.90196759908E+03 0.  0.
         23    2    4    4    0    0 -0.74301158559E+02 -0.31442387680E+03 -0.45619681622E+03  0.56632585907E+03  0.90699542740E+02 0.  0.
         23    2    4    4    0    0  0.51374798510E+03  0.34591008134E+03 -0.32331976164E+03  0.70461731015E+03  0.91428162694E+02 0.  0.
          4    1    3    3  502    0 -0.15225665800E+03 -0.27067174134E+02  0.43331440021E+03  0.46008270045E+03  0.00000000000E+00 0. -1.
         -3    1    3    3    0  502 -0.28719016853E+03 -0.44190304003E+01  0.55226492941E+03  0.62249037983E+03  0.00000000000E+00 0.  1.
         11    1    5    5    0    0 -0.33425422640E+02 -0.20351185074E+03 -0.21616242388E+03  0.29876500091E+03  0.00000000000E+00 0.  1.
        -11    1    5    5    0    0 -0.40875735919E+02 -0.11091202606E+03 -0.24003439234E+03  0.26756085816E+03  0.00000000000E+00 0. -1.
          1    1    6    6  503    0  0.30748741530E+03  0.19734610409E+03 -0.14025141557E+03  0.39136230649E+03  0.00000000000E+00 0. -1.
         -1    1    6    6    0  503  0.20626056979E+03  0.14856397725E+03 -0.18306834607E+03  0.31325500366E+03  0.00000000000E+00 0.  1.
<mgrwt>
<rscale>  0 0.23444780E+04</rscale>
<asrwt>0</asrwt>
<pdfrwt beam="1">  1        2 0.16518873E+00 0.23444780E+04</pdfrwt>
<pdfrwt beam="2">  1       -1 0.19689069E+00 0.23444780E+04</pdfrwt>
<totfact> 0.36844093E+00</totfact>
</mgrwt>
</event>
<event>
12    6  0.9491186E-008  0.4081158E+04  0.7818608E-02  0.7988371E-01
          2   -1    0    0  501    0  0.00000000000E+00  0.00000000000E+00  0.26193900264E+04  0.26193900264E+04  0.00000000000E+00 0. -1.
         -1   -1    0    0    0  501 -0.00000000000E+00 -0.00000000000E+00 -0.15896691999E+04  0.15896691999E+04  0.00000000000E+00 0.  1.
         24    2    1    2    0    0 -0.12487529755E+04 -0.70309390600E+03 -0.86178347971E+03  0.16748766089E+04  0.93892783019E+02 0.  0.
        254    2    1    2    0    0  0.12487529755E+04  0.70309390600E+03  0.18915043062E+04  0.25341826174E+04  0.88913888877E+03 0.  0.
         23    2    4    4    0    0  0.10481818699E+04  0.58148878789E+03  0.87439787668E+03  0.14864043695E+04  0.89508993422E+02 0.  0.
         23    2    4    4    0    0  0.20057110558E+03  0.12160511810E+03  0.10171064295E+04  0.10477782480E+04  0.91198655528E+02 0.  0.
          2    1    3    3  502    0 -0.31861969363E+03 -0.16864896284E+03 -0.26389914545E+03  0.44677034459E+03  0.00000000000E+00 0. -1.
         -1    1    3    3    0  502 -0.93013328187E+03 -0.53444494315E+03 -0.59788433426E+03  0.12281062643E+04  0.00000000000E+00 0.  1.
         11    1    5    5    0    0  0.60313681500E+02  0.30163140941E+02  0.76805976412E+02  0.10220916427E+03  0.00000000000E+00 0.  1.
        -11    1    5    5    0    0  0.98786818842E+03  0.55132564695E+03  0.79759190027E+03  0.13841952052E+04  0.00000000000E+00 0. -1.
          1    1    6    6  503    0  0.19244857278E+03  0.13563910091E+03  0.95253839876E+03  0.98120528942E+03  0.00000000000E+00 0. -1.
         -1    1    6    6    0  503  0.81225328021E+01 -0.14033982807E+02  0.64568030773E+02  0.66572958553E+02  0.00000000000E+00 0.  1.
<mgrwt>
<rscale>  0 0.40811585E+04</rscale>
<asrwt>0</asrwt>
<pdfrwt beam="1">  1        2 0.40298308E+00 0.40811585E+04</pdfrwt>
<pdfrwt beam="2">  1       -1 0.24456449E+00 0.40811585E+04</pdfrwt>
<totfact> 0.19976973E-01</totfact>
</mgrwt>
</event>
<event>
12    6  0.9491186E-008  0.1060721E+04  0.7818608E-02  0.9244345E-01
         -1   -1    0    0    0  501 -0.00000000000E+00  0.00000000000E+00  0.12412429752E+03  0.12412429752E+03  0.00000000000E+00 0.  1.
          2   -1    0    0  501    0  0.00000000000E+00 -0.00000000000E+00 -0.22661335381E+04  0.22661335381E+04  0.00000000000E+00 0. -1.
         24    2    1    2    0    0  0.86873479306E+01  0.88862557340E+02 -0.73643524369E+02  0.13940940576E+03  0.77714796681E+02 0.  0.
        254    2    1    2    0    0 -0.86873479306E+01 -0.88862557340E+02 -0.20683657162E+04  0.22508484298E+04  0.88329490776E+03 0.  0.
         23    2    4    4    0    0  0.40886985455E+03  0.70063244783E+02 -0.85512324679E+03  0.95475228233E+03  0.90734432240E+02 0.  0.
         23    2    4    4    0    0 -0.41755720248E+03 -0.15892580212E+03 -0.12132424694E+04  0.12960961475E+04  0.91085158457E+02 0.  0.
          4    1    3    3  502    0  0.62553114013E+01 -0.75421521220E+01  0.83150247781E+01  0.12851171792E+02  0.00000000000E+00 0. -1.
         -3    1    3    3    0  502  0.24320365293E+01  0.96404709462E+02 -0.81958549147E+02  0.12655823397E+03  0.00000000000E+00 0.  1.
         11    1    5    5    0    0  0.40231521226E+03  0.80604495274E+02 -0.84220327029E+03  0.93683561160E+03  0.00000000000E+00 0.  1.
        -11    1    5    5    0    0  0.65546422826E+01 -0.10541250491E+02 -0.12919976501E+02  0.17916670733E+02  0.00000000000E+00 0. -1.
          1    1    6    6  503    0 -0.61434437861E+01 -0.17176373144E+02 -0.82978044921E+02  0.84959552934E+02  0.00000000000E+00 0. -1.
         -1    1    6    6    0  503 -0.41141375869E+03 -0.14174942898E+03 -0.11302644245E+04  0.12111365946E+04  0.00000000000E+00 0.  1.
<mgrwt>
<rscale>  0 0.10607210E+04</rscale>
<asrwt>0</asrwt>
<pdfrwt beam="1">  1        2 0.34863592E+00 0.10607210E+04</pdfrwt>
<pdfrwt beam="2">  1       -1 0.19096046E-01 0.10607210E+04</pdfrwt>
<totfact> 0.11943277E+02</totfact>
</mgrwt>
</event>
<event>
12    6  0.9491186E-008  0.2227625E+04  0.7818608E-02  0.8507017E-01
         -1   -1    0    0    0  501 -0.00000000000E+00  0.00000000000E+00  0.46878721479E+03  0.46878721479E+03  0.00000000000E+00 0.  1.
          2   -1    0    0  501    0  0.00000000000E+00 -0.00000000000E+00 -0.26463574810E+04  0.26463574810E+04  0.00000000000E+00 0. -1.
         24    2    1    2    0    0 -0.56102954951E+02  0.86891920719E+03 -0.13653029566E+04  0.16219483496E+04  0.92174591426E+02 0.  0.
        254    2    1    2    0    0  0.56102954951E+02 -0.86891920719E+03 -0.81226730959E+03  0.14931963462E+04  0.90093785346E+03 0.  0.
         23    2    4    4    0    0 -0.24311536448E+03 -0.56224694566E+03 -0.85180948253E+03  0.10530899200E+04  0.90511196807E+02 0.  0.
         23    2    4    4    0    0  0.29921831944E+03 -0.30667226154E+03  0.39542172936E+02  0.44010642616E+03  0.92469477267E+02 0.  0.
          4    1    3    3  502    0 -0.16367159741E+02  0.53081190873E+03 -0.90704394051E+03  0.10510746293E+04  0.00000000000E+00 0. -1.
         -3    1    3    3    0  502 -0.39735795211E+02  0.33810729847E+03 -0.45825901611E+03  0.57087372031E+03  0.00000000000E+00 0.  1.
         11    1    5    5    0    0 -0.22013376589E+03 -0.50171646247E+03 -0.80256054945E+03  0.97174159072E+03  0.00000000000E+00 0. -1.
        -11    1    5    5    0    0 -0.22981598593E+02 -0.60530483183E+02 -0.49248933073E+02  0.81348329282E+02  0.00000000000E+00 0.  1.
          2    1    6    6  503    0  0.12705359066E+02 -0.40490164694E+02 -0.15488332013E+02  0.45174860426E+02  0.00000000000E+00 0.  1.
         -2    1    6    6    0  503  0.28651296037E+03 -0.26618209684E+03  0.55030504948E+02  0.39493156574E+03  0.00000000000E+00 0. -1.
<mgrwt>
<rscale>  0 0.22276252E+04</rscale>
<asrwt>0</asrwt>
<pdfrwt beam="1">  1        2 0.40713193E+00 0.22276252E+04</pdfrwt>
<pdfrwt beam="2">  1       -1 0.72121109E-01 0.22276252E+04</pdfrwt>
<totfact> 0.57538885E+00</totfact>
</mgrwt>
</event>
<event>
12    6  0.9491186E-008  0.1185006E+04  0.7818608E-02  0.9126083E-01
         -1   -1    0    0    0  501 -0.00000000000E+00  0.00000000000E+00  0.11179930872E+03  0.11179930872E+03  0.00000000000E+00 0.  1.
          2   -1    0    0  501    0  0.00000000000E+00 -0.00000000000E+00 -0.31400896741E+04  0.31400896741E+04  0.00000000000E+00 0. -1.
         24    2    1    2    0    0  0.18087489419E+03 -0.17712359502E+02 -0.26862516960E+03  0.33421151732E+03  0.80674664819E+02 0.  0.
        254    2    1    2    0    0 -0.18087489419E+03  0.17712359502E+02 -0.27596651958E+04  0.29176774655E+04  0.92954846287E+03 0.  0.
         23    2    4    4    0    0 -0.25119895587E+03 -0.62087063648E+02 -0.16496332936E+03  0.31916570920E+03  0.87738993555E+02 0.  0.
         23    2    4    4    0    0  0.70324061685E+02  0.79799423151E+02 -0.25947018665E+04  0.25985117563E+04  0.92044285053E+02 0.  0.
          2    1    3    3  502    0  0.14538961452E+03 -0.44780324306E+02 -0.22645192811E+03  0.27280742879E+03  0.00000000000E+00 0. -1.
         -3    1    3    3    0  502  0.35485279665E+02  0.27067964804E+02 -0.42173241486E+02  0.61404088536E+02  0.00000000000E+00 0.  1.
         11    1    5    5    0    0 -0.85870907612E+02  0.12291419272E+02 -0.25428977983E+02  0.90396486010E+02  0.00000000000E+00 0.  1.
        -11    1    5    5    0    0 -0.16532804826E+03 -0.74378482920E+02 -0.13953435138E+03  0.22876922319E+03  0.00000000000E+00 0. -1.
          4    1    6    6  503    0  0.57631308473E+02  0.96334481098E+02 -0.17758047130E+04  0.17793493414E+04  0.00000000000E+00 0. -1.
         -4    1    6    6    0  503  0.12692753212E+02 -0.16535057947E+02 -0.81889715347E+03  0.81916241496E+03  0.00000000000E+00 0.  1.
<mgrwt>
<rscale>  0 0.11850061E+04</rscale>
<asrwt>0</asrwt>
<pdfrwt beam="1">  1        2 0.48309060E+00 0.11850061E+04</pdfrwt>
<pdfrwt beam="2">  1       -1 0.17199898E-01 0.11850061E+04</pdfrwt>
<totfact> 0.42702473E+01</totfact>
</mgrwt>
</event>
<event>
12    6  0.9491186E-008  0.1661219E+04  0.7818608E-02  0.8783797E-01
         -1   -1    0    0    0  501 -0.00000000000E+00  0.00000000000E+00  0.53767873792E+03  0.53767873792E+03  0.00000000000E+00 0.  1.
          2   -1    0    0  501    0  0.00000000000E+00 -0.00000000000E+00 -0.12831308515E+04  0.12831308515E+04  0.00000000000E+00 0. -1.
         24    2    1    2    0    0  0.52863814390E+03 -0.11616287260E+03 -0.50500209531E+03  0.74450315772E+03  0.79408660956E+02 0.  0.
        254    2    1    2    0    0 -0.52863814390E+03  0.11616287260E+03 -0.24045001822E+03  0.10763064317E+04  0.89870307856E+03 0.  0.
         23    2    4    4    0    0 -0.59230592959E+03 -0.25219489685E+03 -0.65441650268E+02  0.65382521272E+03  0.93681476157E+02 0.  0.
         23    2    4    4    0    0  0.63667785691E+02  0.36835776945E+03 -0.17500836795E+03  0.42248121894E+03  0.90118911722E+02 0.  0.
          4    1    3    3  502    0  0.51699515652E+03 -0.12484241744E+03 -0.49697297814E+03  0.72790917157E+03  0.00000000000E+00 0. -1.
         -3    1    3    3    0  502  0.11642987379E+02  0.86795448431E+01 -0.80291171692E+01  0.16593986149E+02  0.00000000000E+00 0.  1.
         11    1    5    5    0    0 -0.39271805392E+03 -0.12588075207E+03 -0.65854611189E+02  0.41762454841E+03  0.00000000000E+00 0. -1.
        -11    1    5    5    0    0 -0.19958787566E+03 -0.12631414478E+03  0.41296092154E+00  0.23620066431E+03  0.00000000000E+00 0.  1.
          2    1    6    6  503    0 -0.71890827850E+01  0.17927385731E+03 -0.55332675159E+02  0.18775650126E+03  0.00000000000E+00 0.  1.
         -2    1    6    6    0  503  0.70856868476E+02  0.18908391214E+03 -0.11967569280E+03  0.23472471767E+03  0.00000000000E+00 0. -1.
<mgrwt>
<rscale>  0 0.16612190E+04</rscale>
<asrwt>0</asrwt>
<pdfrwt beam="1">  1        2 0.19740475E+00 0.16612190E+04</pdfrwt>
<pdfrwt beam="2">  1       -1 0.82719806E-01 0.16612190E+04</pdfrwt>
<totfact> 0.26720802E+01</totfact>
</mgrwt>
</event>
<event>
12    6  0.9491186E-008  0.1235848E+04  0.7818608E-02  0.9082045E-01
         -1   -1    0    0    0  501 -0.00000000000E+00  0.00000000000E+00  0.94054327934E+03  0.94054327934E+03  0.00000000000E+00 0.  1.
          2   -1    0    0  501    0  0.00000000000E+00 -0.00000000000E+00 -0.40596752505E+03  0.40596752505E+03  0.00000000000E+00 0. -1.
         24    2    1    2    0    0 -0.26794248109E+02  0.10617085576E+03 -0.23096967681E+03  0.26753735719E+03  0.78987742982E+02 0.  0.
        254    2    1    2    0    0  0.26794248109E+02 -0.10617085576E+03  0.76554543111E+03  0.10789734472E+04  0.75241857387E+03 0.  0.
         23    2    4    4    0    0 -0.26377897144E+03  0.92061096420E+02  0.82319144666E+02  0.30481925627E+03  0.89909655585E+02 0.  0.
         23    2    4    4    0    0  0.29057321955E+03 -0.19823195218E+03  0.68322628644E+03  0.77415419092E+03  0.93743533365E+02 0.  0.
          2    1    3    3  502    0 -0.36345299745E+02  0.11518413130E+03 -0.21710122386E+03  0.24843773127E+03  0.00000000000E+00 0. -1.
         -1    1    3    3    0  502  0.95510516365E+01 -0.90132755328E+01 -0.13868452958E+02  0.19099625930E+02  0.00000000000E+00 0.  1.
         11    1    5    5    0    0 -0.25306642259E+03  0.77224721555E+02  0.52367223891E+02  0.26971948020E+03  0.00000000000E+00 0. -1.
        -11    1    5    5    0    0 -0.10712548848E+02  0.14836374866E+02  0.29951920775E+02  0.35099776069E+02  0.00000000000E+00 0.  1.
          4    1    6    6  503    0  0.24677854502E+03 -0.13554790839E+03  0.58875087472E+03  0.65261051036E+03  0.00000000000E+00 0. -1.
         -4    1    6    6    0  503  0.43794674525E+02 -0.62684043795E+02  0.94475411722E+02  0.12154368056E+03  0.00000000000E+00 0.  1.
<mgrwt>
<rscale>  0 0.12358479E+04</rscale>
<asrwt>0</asrwt>
<pdfrwt beam="1">  1        2 0.62456543E-01 0.12358479E+04</pdfrwt>
<pdfrwt beam="2">  1       -1 0.14469897E+00 0.12358479E+04</pdfrwt>
<totfact> 0.33851886E+01</totfact>
</mgrwt>
</event>
<event>
12    6  0.9491186E-008  0.3115612E+04  0.7818608E-02  0.8211466E-01
         -1   -1    0    0    0  501 -0.00000000000E+00  0.00000000000E+00  0.15136799171E+04  0.15136799171E+04  0.00000000000E+00 0.  1.
          2   -1    0    0  501    0  0.00000000000E+00 -0.00000000000E+00 -0.16032186094E+04  0.16032186094E+04  0.00000000000E+00 0. -1.
         24    2    1    2    0    0 -0.22181080323E+03 -0.21994467331E+01 -0.14722744720E+04  0.14909345924E+04  0.78031839033E+02 0.  0.
        254    2    1    2    0    0  0.22181080323E+03  0.21994467331E+01  0.13827357797E+04  0.16259639341E+04  0.82619344487E+03 0.  0.
         23    2    4    4    0    0  0.23559752013E+03  0.38232328643E+03  0.65589755804E+03  0.80030577742E+03  0.92792477540E+02 0.  0.
         23    2    4    4    0    0 -0.13786716904E+02 -0.38012383969E+03  0.72683822167E+03  0.82565815663E+03  0.93452576555E+02 0.  0.
          2    1    3    3  502    0 -0.21907544649E+03 -0.16523197347E+02 -0.14071537264E+04  0.14242010662E+04  0.00000000000E+00 0. -1.
         -1    1    3    3    0  502 -0.27353567389E+01  0.14323750614E+02 -0.65120745648E+02  0.66733526221E+02  0.00000000000E+00 0.  1.
         11    1    5    5    0    0  0.18458236027E+03  0.23607284769E+03  0.48068561762E+03  0.56644479001E+03  0.00000000000E+00 0. -1.
        -11    1    5    5    0    0  0.51015159862E+02  0.14625043874E+03  0.17521194042E+03  0.23386098741E+03  0.00000000000E+00 0.  1.
          1    1    6    6  503    0 -0.45448789053E+02 -0.31442998617E+03  0.61362948374E+03  0.69099417649E+03  0.00000000000E+00 0. -1.
         -1    1    6    6    0  503  0.31662072149E+02 -0.65693853525E+02  0.11320873793E+03  0.13466398014E+03  0.00000000000E+00 0.  1.
<mgrwt>
<rscale>  0 0.31156122E+04</rscale>
<asrwt>0</asrwt>
<pdfrwt beam="1">  1        2 0.24664902E+00 0.31156122E+04</pdfrwt>
<pdfrwt beam="2">  1       -1 0.23287383E+00 0.31156122E+04</pdfrwt>
<totfact> 0.96846175E-01</totfact>
</mgrwt>
</event>
<event>
12    6  0.9491186E-008  0.1189242E+04  0.7818608E-02  0.9122325E-01
         -1   -1    0    0    0  501 -0.00000000000E+00  0.00000000000E+00  0.16704483927E+03  0.16704483927E+03  0.00000000000E+00 0.  1.
          2   -1    0    0  501    0  0.00000000000E+00 -0.00000000000E+00 -0.21166429894E+04  0.21166429894E+04  0.00000000000E+00 0. -1.
         24    2    1    2    0    0 -0.54711523616E+02 -0.13734705418E+03 -0.82964940189E+03  0.84634711974E+03  0.78279964984E+02 0.  0.
        254    2    1    2    0    0  0.54711523616E+02  0.13734705418E+03 -0.11199487483E+04  0.14373407090E+04  0.88871004878E+03 0.  0.
         23    2    4    4    0    0 -0.11119194295E+03 -0.22192691889E+03 -0.96782893939E+03  0.10033165044E+04  0.91301405497E+02 0.  0.
         23    2    4    4    0    0  0.16590346657E+03  0.35927397308E+03 -0.15211980887E+03  0.43402420452E+03  0.92923763987E+02 0.  0.
          2    1    3    3  502    0 -0.59438195159E+02 -0.52085410942E+02 -0.47724778784E+03  0.48374708275E+03  0.00000000000E+00 0. -1.
         -1    1    3    3    0  502  0.47266715425E+01 -0.85261643243E+02 -0.35240161405E+03  0.36260003698E+03  0.00000000000E+00 0.  1.
         11    1    5    5    0    0  0.10142972401E+02 -0.64535761157E+02 -0.26472562566E+03  0.27266719868E+03  0.00000000000E+00 0. -1.
        -11    1    5    5    0    0 -0.12133491535E+03 -0.15739115774E+03 -0.70310331373E+03  0.73064930575E+03  0.00000000000E+00 0.  1.
          4    1    6    6  503    0  0.87206882174E+00  0.15728779142E+02 -0.29870508950E+02  0.33769843089E+02  0.00000000000E+00 0. -1.
         -4    1    6    6    0  503  0.16503139774E+03  0.34354519393E+03 -0.12224929992E+03  0.40025436143E+03  0.00000000000E+00 0.  1.
<mgrwt>
<rscale>  0 0.11892423E+04</rscale>
<asrwt>0</asrwt>
<pdfrwt beam="1">  1        2 0.32563740E+00 0.11892423E+04</pdfrwt>
<pdfrwt beam="2">  1       -1 0.25699205E-01 0.11892423E+04</pdfrwt>
<totfact> 0.86613448E+01</totfact>
</mgrwt>
</event>
<event>
12    6  0.9491186E-008  0.2839820E+04  0.7818608E-02  0.8291011E-01
          2   -1    0    0  501    0  0.00000000000E+00  0.00000000000E+00  0.14373171412E+04  0.14373171412E+04  0.00000000000E+00 0. -1.
         -1   -1    0    0    0  501 -0.00000000000E+00 -0.00000000000E+00 -0.14027135449E+04  0.14027135449E+04  0.00000000000E+00 0.  1.
         24    2    1    2    0    0  0.50590423193E+03 -0.11695435764E+04  0.80996777232E+01  0.12766129866E+04  0.76836474189E+02 0.  0.
        254    2    1    2    0    0 -0.50590423193E+03  0.11695435764E+04  0.26503918550E+02  0.15634176995E+04  0.90542872517E+03 0.  0.
         23    2    4    4    0    0 -0.64325238105E+02  0.91568942698E+03 -0.27713948160E+03  0.96356328140E+03  0.94989694466E+02 0.  0.
         23    2    4    4    0    0 -0.44157899383E+03  0.25385414945E+03  0.30364340015E+03  0.59985441811E+03  0.90510062903E+02 0.  0.
          2    1    3    3  502    0  0.20087797242E+03 -0.39317294888E+03 -0.20361484786E+02  0.44198587941E+03  0.00000000000E+00 0. -1.
         -1    1    3    3    0  502  0.30502625951E+03 -0.77637062756E+03  0.28461162509E+02  0.83462710721E+03  0.00000000000E+00 0.  1.
         11    1    5    5    0    0 -0.18370584002E+02  0.93703657221E+02 -0.19123681024E+01  0.95506601264E+02  0.00000000000E+00 0.  1.
        -11    1    5    5    0    0 -0.45954654103E+02  0.82198576976E+03 -0.27522711350E+03  0.86805668013E+03  0.00000000000E+00 0. -1.
          2    1    6    6  503    0 -0.17816891053E+03  0.54196815123E+02  0.96009691166E+02  0.20952163670E+03  0.00000000000E+00 0. -1.
         -2    1    6    6    0  503 -0.26341008330E+03  0.19965733433E+03  0.20763370898E+03  0.39033278141E+03  0.00000000000E+00 0.  1.
<mgrwt>
<rscale>  0 0.28398199E+04</rscale>
<asrwt>0</asrwt>
<pdfrwt beam="1">  1        2 0.22112571E+00 0.28398199E+04</pdfrwt>
<pdfrwt beam="2">  1       -1 0.21580208E+00 0.28398199E+04</pdfrwt>
<totfact> 0.15982782E+00</totfact>
</mgrwt>
</event>
<event>
12    6  0.9491186E-008  0.1404899E+04  0.7818608E-02  0.8950280E-01
          2   -1    0    0  501    0  0.00000000000E+00  0.00000000000E+00  0.22614085119E+04  0.22614085119E+04  0.00000000000E+00 0. -1.
         -1   -1    0    0    0  501 -0.00000000000E+00 -0.00000000000E+00 -0.21819829037E+03  0.21819829037E+03  0.00000000000E+00 0.  1.
         24    2    1    2    0    0  0.95753089344E+02  0.34219518550E+03  0.23218947150E+03  0.43205417475E+03  0.80577044777E+02 0.  0.
        254    2    1    2    0    0 -0.95753089344E+02 -0.34219518550E+03  0.18110207501E+04  0.20475526275E+04  0.88679727464E+03 0.  0.
         23    2    4    4    0    0 -0.24520461135E+03 -0.46688485622E+03  0.17427040732E+04  0.18230411262E+04  0.91403995612E+02 0.  0.
         23    2    4    4    0    0  0.14945152201E+03  0.12468967072E+03  0.68316676823E+02  0.22451150138E+03  0.88628294048E+02 0.  0.
          2    1    3    3  502    0  0.66929451166E+02  0.21485903635E+03  0.19095334546E+03  0.29513918255E+03  0.00000000000E+00 0. -1.
         -1    1    3    3    0  502  0.28823638177E+02  0.12733614915E+03  0.41236126041E+02  0.13691499220E+03  0.00000000000E+00 0.  1.
         11    1    5    5    0    0 -0.91469414692E+02 -0.26334247919E+03  0.84475313222E+03  0.88956380860E+03  0.00000000000E+00 0. -1.
        -11    1    5    5    0    0 -0.15373519666E+03 -0.20354237703E+03  0.89795094102E+03  0.93347731757E+03  0.00000000000E+00 0.  1.
          4    1    6    6  503    0  0.55099257317E+02  0.81558837878E+02  0.69957939738E+02  0.12075547824E+03  0.00000000000E+00 0. -1.
         -4    1    6    6    0  503  0.94352264689E+02  0.43130832838E+02 -0.16412629148E+01  0.10375602314E+03  0.00000000000E+00 0.  1.
<mgrwt>
<rscale>  0 0.14048992E+04</rscale>
<asrwt>0</asrwt>
<pdfrwt beam="1">  1        2 0.34790899E+00 0.14048992E+04</pdfrwt>
<pdfrwt beam="2">  1       -1 0.33568969E-01 0.14048992E+04</pdfrwt>
<totfact> 0.44264030E+01</totfact>
</mgrwt>
</event>
<event>
12    6  0.9491186E-008  0.2804583E+04  0.7818608E-02  0.8301847E-01
         -1   -1    0    0    0  501 -0.00000000000E+00  0.00000000000E+00  0.17592487858E+04  0.17592487858E+04  0.00000000000E+00 0.  1.
          2   -1    0    0  501    0  0.00000000000E+00 -0.00000000000E+00 -0.11177621732E+04  0.11177621732E+04  0.00000000000E+00 0. -1.
         24    2    1    2    0    0  0.10944969323E+04 -0.60907022969E+03  0.32212894028E+03  0.12957768002E+04  0.79877294999E+02 0.  0.
        254    2    1    2    0    0 -0.10944969323E+04  0.60907022969E+03  0.31935767233E+03  0.15812341588E+04  0.91072611822E+03 0.  0.
         23    2    4    4    0    0 -0.79833538165E+03  0.55254906437E+03  0.61178685507E+03  0.11512299528E+04  0.91637317821E+02 0.  0.
         23    2    4    4    0    0 -0.29616155068E+03  0.56521165322E+02 -0.29242918274E+03  0.43000420599E+03  0.92100401846E+02 0.  0.
          2    1    3    3  502    0  0.19321236695E+03 -0.83274982342E+02  0.75976507502E+02  0.22369213468E+03  0.00000000000E+00 0. -1.
         -1    1    3    3    0  502  0.90128456539E+03 -0.52579524734E+03  0.24615243277E+03  0.10720846655E+04  0.00000000000E+00 0.  1.
         11    1    5    5    0    0 -0.16954893006E+03  0.73892561168E+02  0.11300471171E+03  0.21674181680E+03  0.00000000000E+00 0. -1.
        -11    1    5    5    0    0 -0.62878645159E+03  0.47865650320E+03  0.49878214336E+03  0.93448813598E+03  0.00000000000E+00 0.  1.
          1    1    6    6  503    0 -0.15821926502E+03  0.25333964048E+00 -0.10209660840E+03  0.18830060396E+03  0.00000000000E+00 0. -1.
         -1    1    6    6    0  503 -0.13794228566E+03  0.56267825681E+02 -0.19033257434E+03  0.24170360203E+03  0.00000000000E+00 0.  1.
<mgrwt>
<rscale>  0 0.28045832E+04</rscale>
<asrwt>0</asrwt>
<pdfrwt beam="1">  1        2 0.17196341E+00 0.28045832E+04</pdfrwt>
<pdfrwt beam="2">  1       -1 0.27065366E+00 0.28045832E+04</pdfrwt>
<totfact> 0.10774051E+00</totfact>
</mgrwt>
</event>
<event>
12    6  0.9491186E-008  0.1684803E+04  0.7818608E-02  0.8770080E-01
          2   -1    0    0  501    0  0.00000000000E+00  0.00000000000E+00  0.94164420752E+03  0.94164420752E+03  0.00000000000E+00 0. -1.
         -1   -1    0    0    0  501 -0.00000000000E+00 -0.00000000000E+00 -0.75361796252E+03  0.75361796252E+03  0.00000000000E+00 0.  1.
         24    2    1    2    0    0 -0.18441038252E+03 -0.49599959950E+03 -0.22676309077E+03  0.58121128719E+03  0.79763833473E+02 0.  0.
        254    2    1    2    0    0  0.18441038252E+03  0.49599959950E+03  0.41478933577E+03  0.11140508828E+04  0.88827720033E+03 0.  0.
         23    2    4    4    0    0 -0.29928942903E+03  0.42673730098E+02  0.29903575307E+03  0.43492561378E+03  0.91338372753E+02 0.  0.
         23    2    4    4    0    0  0.48369981155E+03  0.45332586940E+03  0.11575358270E+03  0.67912526907E+03  0.91336671819E+02 0.  0.
          4    1    3    3  502    0 -0.30170707604E+02 -0.92510817139E+02 -0.97354380886E+01  0.97792134857E+02  0.00000000000E+00 0. -1.
         -3    1    3    3    0  502 -0.15423967491E+03 -0.40348878236E+03 -0.21702765268E+03  0.48341915233E+03  0.00000000000E+00 0.  1.
         11    1    5    5    0    0 -0.11809623531E+03 -0.12356377072E+02  0.16343605823E+03  0.20201669727E+03  0.00000000000E+00 0. -1.
        -11    1    5    5    0    0 -0.18119319372E+03  0.55030107169E+02  0.13559969484E+03  0.23290891651E+03  0.00000000000E+00 0.  1.
          3    1    6    6  503    0  0.25818570234E+03  0.29327864205E+03  0.93049474529E+02  0.40165958657E+03  0.00000000000E+00 0. -1.
         -3    1    6    6    0  503  0.22551410921E+03  0.16004722735E+03  0.22704108168E+02  0.27746568250E+03  0.00000000000E+00 0.  1.
<mgrwt>
<rscale>  0 0.16848026E+04</rscale>
<asrwt>0</asrwt>
<pdfrwt beam="1">  1        2 0.14486834E+00 0.16848026E+04</pdfrwt>
<pdfrwt beam="2">  1       -1 0.11594122E+00 0.16848026E+04</pdfrwt>
<totfact> 0.20123808E+01</totfact>
</mgrwt>
</event>
<event>
12    6  0.1115746E-007  0.3253625E+04  0.7818608E-02  0.8174797E-01
          2   -1    0    0  501    0  0.00000000000E+00  0.00000000000E+00  0.19474042816E+04  0.19474042816E+04  0.00000000000E+00 0. -1.
         -1   -1    0    0    0  501 -0.00000000000E+00 -0.00000000000E+00 -0.13589982662E+04  0.13589982662E+04  0.00000000000E+00 0.  1.
         24    2    1    2    0    0  0.12300761890E+04  0.63206522950E+03 -0.33175954910E+03  0.14244938491E+04  0.80774020943E+02 0.  0.
        254    2    1    2    0    0 -0.12300761890E+04 -0.63206522950E+03  0.92016556459E+03  0.18819086988E+04  0.88446695759E+03 0.  0.
         23    2    4    4    0    0 -0.20649302844E+03 -0.20253054108E+03  0.67650724946E+03  0.74171646183E+03  0.93932211257E+02 0.  0.
         23    2    4    4    0    0 -0.10235831606E+04 -0.42953468841E+03  0.24365831513E+03  0.11401922369E+04  0.91904447403E+02 0.  0.
          4    1    3    3  502    0  0.65208989625E+03  0.34039825066E+03 -0.21757837566E+03  0.76709357408E+03  0.00000000000E+00 0. -1.
         -3    1    3    3    0  502  0.57798629276E+03  0.29166697884E+03 -0.11418117345E+03  0.65740027497E+03  0.00000000000E+00 0.  1.
         11    1    5    5    0    0 -0.16295253519E+03 -0.20316106926E+03  0.58683172234E+03  0.64202758440E+03  0.00000000000E+00 0. -1.
        -11    1    5    5    0    0 -0.43540493259E+02  0.63052817932E+00  0.89675527121E+02  0.99688877431E+02  0.00000000000E+00 0.  1.
          3    1    6    6  503    0 -0.84144482765E+03 -0.31582540934E+03  0.20823868815E+03  0.92257164405E+03  0.00000000000E+00 0. -1.
         -3    1    6    6    0  503 -0.18213833292E+03 -0.11370927907E+03  0.35419626978E+02  0.21762059287E+03  0.00000000000E+00 0.  1.
<mgrwt>
<rscale>  0 0.32536251E+04</rscale>
<asrwt>0</asrwt>
<pdfrwt beam="1">  1        2 0.29960066E+00 0.32536251E+04</pdfrwt>
<pdfrwt beam="2">  1       -1 0.20907666E+00 0.32536251E+04</pdfrwt>
<totfact> 0.88901049E-01</totfact>
</mgrwt>
</event>
<event>
12    6  0.9491186E-008  0.2639585E+04  0.7818608E-02  0.8354878E-01
         -1   -1    0    0    0  501 -0.00000000000E+00  0.00000000000E+00  0.85524549416E+03  0.85524549416E+03  0.00000000000E+00 0.  1.
          2   -1    0    0  501    0  0.00000000000E+00 -0.00000000000E+00 -0.20366696281E+04  0.20366696281E+04  0.00000000000E+00 0. -1.
         24    2    1    2    0    0 -0.16453484218E+03 -0.80783875948E+03 -0.14599464202E+04  0.16784989142E+04  0.78992907832E+02 0.  0.
        254    2    1    2    0    0  0.16453484218E+03  0.80783875948E+03  0.27852228630E+03  0.12134162080E+04  0.84565303425E+03 0.  0.
         23    2    4    4    0    0  0.45898306766E+03  0.47963245914E+03  0.35202071546E+03  0.75686510090E+03  0.90628056318E+02 0.  0.
         23    2    4    4    0    0 -0.29444822548E+03  0.32820630034E+03 -0.73498429157E+02  0.45655110713E+03  0.92831897868E+02 0.  0.
          2    1    3    3  502    0 -0.17152090070E+03 -0.77860289551E+03 -0.14199621097E+04  0.16284760610E+04  0.00000000000E+00 0. -1.
         -1    1    3    3    0  502  0.69860585279E+01 -0.29235863963E+02 -0.39984310569E+02  0.50022853248E+02  0.00000000000E+00 0.  1.
         11    1    5    5    0    0  0.11448180523E+03  0.78701019872E+02  0.47524642535E+02  0.14682821904E+03  0.00000000000E+00 0.  1.
        -11    1    5    5    0    0  0.34450126243E+03  0.40093143926E+03  0.30449607292E+03  0.61003688186E+03  0.00000000000E+00 0. -1.
          4    1    6    6  503    0 -0.27755415611E+03  0.31749317366E+03 -0.89298262772E+02  0.43105963002E+03  0.00000000000E+00 0. -1.
         -4    1    6    6    0  503 -0.16894069371E+02  0.10713126675E+02  0.15799833615E+02  0.25491477112E+02  0.00000000000E+00 0.  1.
<mgrwt>
<rscale>  0 0.26395852E+04</rscale>
<asrwt>0</asrwt>
<pdfrwt beam="1">  1        2 0.31333378E+00 0.26395852E+04</pdfrwt>
<pdfrwt beam="2">  1       -1 0.13157623E+00 0.26395852E+04</pdfrwt>
<totfact> 0.31448171E+00</totfact>
</mgrwt>
</event>
<event>
12    6  0.1015647E-007  0.1724805E+04  0.7818608E-02  0.8747343E-01
         -1   -1    0    0    0  501 -0.00000000000E+00  0.00000000000E+00  0.10866665577E+04  0.10866665577E+04  0.00000000000E+00 0.  1.
          2   -1    0    0  501    0  0.00000000000E+00 -0.00000000000E+00 -0.68442124506E+03  0.68442124506E+03  0.00000000000E+00 0. -1.
         24    2    1    2    0    0 -0.31848694265E+03 -0.14295527023E+03  0.67863690856E+03  0.76613830053E+03  0.67451463694E+02 0.  0.
        254    2    1    2    0    0  0.31848694265E+03  0.14295527023E+03 -0.27639159588E+03  0.10049495023E+04  0.90092233067E+03 0.  0.
         23    2    4    4    0    0 -0.22184709575E+03  0.16447378785E+03  0.13436835021E+03  0.32012740717E+03  0.90326864788E+02 0.  0.
         23    2    4    4    0    0  0.54033403840E+03 -0.21518517617E+02 -0.41075994609E+03  0.68482209509E+03  0.88507903366E+02 0.  0.
          2    1    3    3  502    0 -0.27346932696E+02 -0.56897650468E+00  0.91394938529E+02  0.95400279092E+02  0.00000000000E+00 0. -1.
         -1    1    3    3    0  502 -0.29114000995E+03 -0.14238629373E+03  0.58724197003E+03  0.67073802144E+03  0.00000000000E+00 0.  1.
         11    1    5    5    0    0 -0.70083848793E+02  0.10756139314E+03  0.55223373188E+02  0.13975271054E+03  0.00000000000E+00 0. -1.
        -11    1    5    5    0    0 -0.15176324696E+03  0.56912394706E+02  0.79144977019E+02  0.18037469663E+03  0.00000000000E+00 0.  1.
          3    1    6    6  503    0  0.11908599184E+03 -0.37065326990E+02 -0.11714386684E+03  0.17110814549E+03  0.00000000000E+00 0. -1.
         -3    1    6    6    0  503  0.42124804656E+03  0.15546809373E+02 -0.29361607925E+03  0.51371394959E+03  0.00000000000E+00 0.  1.
<mgrwt>
<rscale>  0 0.17248045E+04</rscale>
<asrwt>0</asrwt>
<pdfrwt beam="1">  1        2 0.10529558E+00 0.17248045E+04</pdfrwt>
<pdfrwt beam="2">  1       -1 0.16717947E+00 0.17248045E+04</pdfrwt>
<totfact> 0.11802718E+01</totfact>
</mgrwt>
</event>
<event>
12    6  0.9491186E-008  0.1052262E+04  0.7818608E-02  0.9253012E-01
         -1   -1    0    0    0  501 -0.00000000000E+00  0.00000000000E+00  0.12408306266E+03  0.12408306266E+03  0.00000000000E+00 0.  1.
          2   -1    0    0  501    0  0.00000000000E+00 -0.00000000000E+00 -0.22308749399E+04  0.22308749399E+04  0.00000000000E+00 0. -1.
         24    2    1    2    0    0 -0.57407184059E+01  0.28291937162E+02 -0.55552987734E+03  0.56207331404E+03  0.80495814673E+02 0.  0.
        254    2    1    2    0    0  0.57407184059E+01 -0.28291937162E+02 -0.15512619999E+04  0.17928846886E+04  0.89843660016E+03 0.  0.
         23    2    4    4    0    0 -0.39345521921E+03  0.10480184508E+03 -0.10620727511E+04  0.11410803849E+04  0.90969664846E+02 0.  0.
         23    2    4    4    0    0  0.39919593762E+03 -0.13309378224E+03 -0.48918924883E+03  0.65180430366E+03  0.92040087013E+02 0.  0.
          4    1    3    3  502    0 -0.43001861707E+02  0.11630077510E+02 -0.30660679177E+03  0.30982598918E+03  0.00000000000E+00 0. -1.
         -3    1    3    3    0  502  0.37261143301E+02  0.16661859652E+02 -0.24892308557E+03  0.25224732486E+03  0.00000000000E+00 0.  1.
         11    1    5    5    0    0 -0.87117046016E+02  0.62537592065E+02 -0.24480802031E+03  0.26726634082E+03  0.00000000000E+00 0. -1.
        -11    1    5    5    0    0 -0.30633817320E+03  0.42264253016E+02 -0.81726473080E+03  0.87381404409E+03  0.00000000000E+00 0.  1.
          3    1    6    6  503    0  0.10668860975E+03 -0.55099058671E+02 -0.19921112609E+03  0.23260145845E+03  0.00000000000E+00 0. -1.
         -3    1    6    6    0  503  0.29250732787E+03 -0.77994723571E+02 -0.28997812274E+03  0.41920284521E+03  0.00000000000E+00 0.  1.
<mgrwt>
<rscale>  0 0.10522619E+04</rscale>
<asrwt>0</asrwt>
<pdfrwt beam="1">  1        2 0.34321151E+00 0.10522619E+04</pdfrwt>
<pdfrwt beam="2">  1       -1 0.19089703E-01 0.10522619E+04</pdfrwt>
<totfact> 0.12512883E+02</totfact>
</mgrwt>
</event>
<event>
12    6  0.9491186E-008  0.2371868E+04  0.7818608E-02  0.8450111E-01
         -1   -1    0    0    0  501 -0.00000000000E+00  0.00000000000E+00  0.11154211684E+04  0.11154211684E+04  0.00000000000E+00 0.  1.
          2   -1    0    0  501    0  0.00000000000E+00 -0.00000000000E+00 -0.12609048216E+04  0.12609048216E+04  0.00000000000E+00 0. -1.
         24    2    1    2    0    0  0.83474822160E+03  0.50287171865E+03  0.22408643815E+03  0.10033177059E+04  0.82140905373E+02 0.  0.
        254    2    1    2    0    0 -0.83474822160E+03 -0.50287171865E+03 -0.36957009137E+03  0.13730082841E+04  0.89380374636E+03 0.  0.
         23    2    4    4    0    0 -0.80366320350E+03 -0.13361012085E+03  0.29527593211E+02  0.82074259758E+03  0.94975384543E+02 0.  0.
         23    2    4    4    0    0 -0.31085018099E+02 -0.36926159780E+03 -0.39909768458E+03  0.55226568656E+03  0.91640715600E+02 0.  0.
          4    1    3    3  502    0  0.19333740591E+03  0.97366591350E+02  0.19308189178E+02  0.21733019074E+03  0.00000000000E+00 0. -1.
         -3    1    3    3    0  502  0.64141081569E+03  0.40550512730E+03  0.20477824897E+03  0.78598751517E+03  0.00000000000E+00 0.  1.
         11    1    5    5    0    0 -0.48551649427E+03 -0.12685361693E+03  0.97353782120E+01  0.50190923874E+03  0.00000000000E+00 0. -1.
        -11    1    5    5    0    0 -0.31814670923E+03 -0.67565039170E+01  0.19792214999E+02  0.31883335885E+03  0.00000000000E+00 0.  1.
          2    1    6    6  503    0 -0.62270460888E+02 -0.19942059175E+03 -0.21120712301E+03  0.29707681081E+03  0.00000000000E+00 0.  1.
         -2    1    6    6    0  503  0.31185442789E+02 -0.16984100605E+03 -0.18789056157E+03  0.25518887575E+03  0.00000000000E+00 0. -1.
<mgrwt>
<rscale>  0 0.23718684E+04</rscale>
<asrwt>0</asrwt>
<pdfrwt beam="1">  1        2 0.19398536E+00 0.23718684E+04</pdfrwt>
<pdfrwt beam="2">  1       -1 0.17160326E+00 0.23718684E+04</pdfrwt>
<totfact> 0.42872991E+00</totfact>
</mgrwt>
</event>
<event>
12    6  0.9491186E-008  0.2067336E+04  0.7818608E-02  0.8575770E-01
          2   -1    0    0  501    0  0.00000000000E+00  0.00000000000E+00  0.72291015695E+03  0.72291015695E+03  0.00000000000E+00 0. -1.
         -1   -1    0    0    0  501 -0.00000000000E+00 -0.00000000000E+00 -0.14780110744E+04  0.14780110744E+04  0.00000000000E+00 0.  1.
         24    2    1    2    0    0 -0.77382296252E+03 -0.28647485710E+03 -0.23181796664E+03  0.86086692668E+03  0.80513817014E+02 0.  0.
        254    2    1    2    0    0  0.77382296252E+03  0.28647485710E+03 -0.52328295085E+03  0.13400543047E+04  0.91708814835E+03 0.  0.
         23    2    4    4    0    0 -0.78254328534E+02 -0.17175761973E+02  0.16107155920E+03  0.20162077752E+03  0.91039244360E+02 0.  0.
         23    2    4    4    0    0  0.85207729105E+03  0.30365061908E+03 -0.68435451005E+03  0.11384335272E+04  0.97213126726E+02 0.  0.
          2    1    3    3  502    0 -0.16402503047E+03 -0.52120951134E+02 -0.15947810794E+02  0.17284425601E+03  0.00000000000E+00 0. -1.
         -1    1    3    3    0  502 -0.60979793205E+03 -0.23435390597E+03 -0.21587015584E+03  0.68802267067E+03  0.00000000000E+00 0.  1.
         11    1    5    5    0    0 -0.34448819643E+02 -0.44092758541E+02  0.36369745341E+02  0.66735679413E+02  0.00000000000E+00 0.  1.
        -11    1    5    5    0    0 -0.43805508890E+02  0.26916996568E+02  0.12470181386E+03  0.13488509811E+03  0.00000000000E+00 0. -1.
          2    1    6    6  503    0  0.18782121337E+02 -0.38286437617E+01 -0.28382288910E+02  0.34248809012E+02  0.00000000000E+00 0. -1.
         -2    1    6    6    0  503  0.83329516971E+03  0.30747926284E+03 -0.65597222114E+03  0.11041847182E+04  0.00000000000E+00 0.  1.
<mgrwt>
<rscale>  0 0.20673357E+04</rscale>
<asrwt>0</asrwt>
<pdfrwt beam="1">  1        2 0.11121695E+00 0.20673357E+04</pdfrwt>
<pdfrwt beam="2">  1       -1 0.22738632E+00 0.20673357E+04</pdfrwt>
<totfact> 0.40739626E+00</totfact>
</mgrwt>
</event>
<event>
12    6  0.9491186E-008  0.1765385E+04  0.7818608E-02  0.8724927E-01
          2   -1    0    0  501    0  0.00000000000E+00  0.00000000000E+00  0.15895802988E+04  0.15895802988E+04  0.00000000000E+00 0. -1.
         -1   -1    0    0    0  501 -0.00000000000E+00 -0.00000000000E+00 -0.49015816320E+03  0.49015816320E+03  0.00000000000E+00 0.  1.
         24    2    1    2    0    0  0.32760946998E+03 -0.28683674720E+03  0.97748540473E+03  0.10729873144E+04  0.78871896241E+02 0.  0.
        254    2    1    2    0    0 -0.32760946998E+03  0.28683674720E+03  0.12193673083E+03  0.10067511476E+04  0.89948653266E+03 0.  0.
         23    2    4    4    0    0 -0.16597298153E+03  0.59309630840E+03 -0.17440932525E+02  0.62275265801E+03  0.90589322222E+02 0.  0.
         23    2    4    4    0    0 -0.16163648845E+03 -0.30625956119E+03  0.13937766336E+03  0.38399848956E+03  0.90041288988E+02 0.  0.
          4    1    3    3  502    0  0.29533326997E+02 -0.37933800927E+02  0.17495195131E+03  0.18143697507E+03  0.00000000000E+00 0. -1.
         -3    1    3    3    0  502  0.29807614298E+03 -0.24890294628E+03  0.80253345342E+03  0.89155033932E+03  0.00000000000E+00 0.  1.
         11    1    5    5    0    0 -0.48965058063E+01  0.67943803468E-01  0.60569457781E+01  0.77889009257E+01  0.00000000000E+00 0.  1.
        -11    1    5    5    0    0 -0.16107647573E+03  0.59302836459E+03 -0.23497878303E+02  0.61496375709E+03  0.00000000000E+00 0. -1.
          1    1    6    6  503    0 -0.15471570215E+03 -0.30671607826E+03  0.12076771692E+03  0.36413808178E+03  0.00000000000E+00 0. -1.
         -1    1    6    6    0  503 -0.69207862960E+01  0.45651706757E+00  0.18609946432E+02  0.19860407775E+02  0.00000000000E+00 0.  1.
<mgrwt>
<rscale>  0 0.17653847E+04</rscale>
<asrwt>0</asrwt>
<pdfrwt beam="1">  1        2 0.24455081E+00 0.17653847E+04</pdfrwt>
<pdfrwt beam="2">  1       -1 0.75408949E-01 0.17653847E+04</pdfrwt>
<totfact> 0.21547823E+01</totfact>
</mgrwt>
</event>
<event>
12    6  0.9491186E-008  0.1223576E+04  0.7818608E-02  0.9092467E-01
          2   -1    0    0  501    0  0.00000000000E+00  0.00000000000E+00  0.11494823028E+04  0.11494823028E+04  0.00000000000E+00 0. -1.
         -1   -1    0    0    0  501 -0.00000000000E+00 -0.00000000000E+00 -0.32561134609E+03  0.32561134609E+03  0.00000000000E+00 0.  1.
         24    2    1    2    0    0  0.11676618739E+03  0.19020084730E+03  0.74865803853E+01  0.23753080751E+03  0.80957586441E+02 0.  0.
        254    2    1    2    0    0 -0.11676618739E+03 -0.19020084730E+03  0.81638437635E+03  0.12375628414E+04  0.90292171956E+03 0.  0.
         23    2    4    4    0    0  0.20432505643E+03  0.64266180259E+01 -0.97480155407E+02  0.24499286961E+03  0.93429627842E+02 0.  0.
         23    2    4    4    0    0 -0.32109124382E+03 -0.19662746533E+03  0.91386453176E+03  0.99256997179E+03  0.91020983960E+02 0.  0.
          2    1    3    3  502    0  0.57343053178E+02  0.71055458515E+02 -0.34982516912E+02  0.97779754663E+02  0.00000000000E+00 0. -1.
         -1    1    3    3    0  502  0.59423134207E+02  0.11914538878E+03  0.42469097297E+02  0.13975105285E+03  0.00000000000E+00 0.  1.
         11    1    5    5    0    0  0.20421776194E+03  0.20788701736E+02 -0.75461694129E+02  0.21870421051E+03  0.00000000000E+00 0.  1.
        -11    1    5    5    0    0  0.10729448867E+00 -0.14362083710E+02 -0.22018461278E+02  0.26288659107E+02  0.00000000000E+00 0. -1.
          1    1    6    6  503    0 -0.58480529983E+01  0.90165179134E+01  0.20296819042E+02  0.22966457767E+02  0.00000000000E+00 0. -1.
         -1    1    6    6    0  503 -0.31524319082E+03 -0.20564398324E+03  0.89356771272E+03  0.96960351403E+03  0.00000000000E+00 0.  1.
<mgrwt>
<rscale>  0 0.12235759E+04</rscale>
<asrwt>0</asrwt>
<pdfrwt beam="1">  1        2 0.17684343E+00 0.12235759E+04</pdfrwt>
<pdfrwt beam="2">  1       -1 0.50094054E-01 0.12235759E+04</pdfrwt>
<totfact> 0.91254906E+01</totfact>
</mgrwt>
</event>
<event>
12    6  0.9491186E-008  0.1616005E+04  0.7818608E-02  0.8810775E-01
          2   -1    0    0  501    0  0.00000000000E+00  0.00000000000E+00  0.40529274800E+04  0.40529274800E+04  0.00000000000E+00 0. -1.
         -1   -1    0    0    0  501 -0.00000000000E+00 -0.00000000000E+00 -0.16108555637E+03  0.16108555637E+03  0.00000000000E+00 0.  1.
         24    2    1    2    0    0  0.12686143247E+02 -0.55921281039E+03  0.13556446546E+04  0.14686827883E+04  0.79854854267E+02 0.  0.
        254    2    1    2    0    0 -0.12686143247E+02  0.55921281039E+03  0.25361972691E+04  0.27453302480E+04  0.88975371743E+03 0.  0.
         23    2    4    4    0    0  0.43265253376E+02  0.27065218422E+03  0.12505986254E+03  0.31454165383E+03  0.90399091849E+02 0.  0.
         23    2    4    4    0    0 -0.55951396623E+02  0.28856062617E+03  0.24111374065E+04  0.24307885942E+04  0.93551070720E+02 0.  0.
          2    1    3    3  502    0  0.31306016553E+02 -0.51132083138E+03  0.12589017512E+04  0.13591404190E+04  0.00000000000E+00 0. -1.
         -1    1    3    3    0  502 -0.18619873306E+02 -0.47891979010E+02  0.96742903341E+02  0.10954236935E+03  0.00000000000E+00 0.  1.
         11    1    5    5    0    0 -0.15543452198E+02  0.16387331529E+02  0.28291566311E+02  0.36201605837E+02  0.00000000000E+00 0. -1.
        -11    1    5    5    0    0  0.58808705574E+02  0.25426485269E+03  0.96768296226E+02  0.27834004800E+03  0.00000000000E+00 0.  1.
          3    1    6    6  503    0 -0.64884848878E+02  0.23117503262E+03  0.16421172193E+04  0.16595785312E+04  0.00000000000E+00 0. -1.
         -3    1    6    6    0  503  0.89334522543E+01  0.57385593554E+02  0.76902018726E+03  0.77121006304E+03  0.00000000000E+00 0.  1.
<mgrwt>
<rscale>  0 0.16160050E+04</rscale>
<asrwt>0</asrwt>
<pdfrwt beam="1">  1        2 0.62352722E+00 0.16160050E+04</pdfrwt>
<pdfrwt beam="2">  1       -1 0.24782397E-01 0.16160050E+04</pdfrwt>
<totfact> 0.49024945E+00</totfact>
</mgrwt>
</event>
<event>
12    6  0.9491186E-008  0.1598532E+04  0.7818608E-02  0.8821451E-01
          2   -1    0    0  501    0  0.00000000000E+00  0.00000000000E+00  0.47158870898E+03  0.47158870898E+03  0.00000000000E+00 0. -1.
         -1   -1    0    0    0  501 -0.00000000000E+00 -0.00000000000E+00 -0.13546248326E+04  0.13546248326E+04  0.00000000000E+00 0.  1.
         24    2    1    2    0    0 -0.12741740698E+03 -0.16313721252E+03  0.27772628852E+03  0.35510518389E+03  0.78223107716E+02 0.  0.
        254    2    1    2    0    0  0.12741740698E+03  0.16313721252E+03 -0.11607624121E+04  0.14711083577E+04  0.87973943693E+03 0.  0.
         23    2    4    4    0    0 -0.17381390735E+03 -0.12244030016E+03 -0.98337025336E+03  0.10101778060E+04  0.90770276078E+02 0.  0.
         23    2    4    4    0    0  0.30123131433E+03  0.28557751268E+03 -0.17739215876E+03  0.46093055168E+03  0.93242560050E+02 0.  0.
          2    1    3    3  502    0 -0.11630720378E+03 -0.16975754032E+03  0.27171552725E+03  0.34084353579E+03  0.00000000000E+00 0. -1.
         -3    1    3    3    0  502 -0.11110203201E+02  0.66203278002E+01  0.60107612760E+01  0.14261648098E+02  0.00000000000E+00 0.  1.
         11    1    5    5    0    0 -0.92090041454E+02 -0.26799891028E+02 -0.28887295258E+03  0.30437869936E+03  0.00000000000E+00 0.  1.
        -11    1    5    5    0    0 -0.81723865895E+02 -0.95640409131E+02 -0.69449730078E+03  0.70579910662E+03  0.00000000000E+00 0. -1.
          3    1    6    6  503    0  0.19791140258E+03  0.18899688003E+03 -0.67595654178E+02  0.28188280614E+03  0.00000000000E+00 0. -1.
         -3    1    6    6    0  503  0.10331991175E+03  0.96580632648E+02 -0.10979650458E+03  0.17904774554E+03  0.00000000000E+00 0.  1.
<mgrwt>
<rscale>  0 0.15985315E+04</rscale>
<asrwt>0</asrwt>
<pdfrwt beam="1">  1        2 0.72552109E-01 0.15985315E+04</pdfrwt>
<pdfrwt beam="2">  1       -1 0.20840382E+00 0.15985315E+04</pdfrwt>
<totfact> 0.95230650E+00</totfact>
</mgrwt>
</event>
<event>
12    6  0.9491186E-008  0.2404591E+04  0.7818608E-02  0.8437787E-01
          2   -1    0    0  501    0  0.00000000000E+00  0.00000000000E+00  0.66503022130E+03  0.66503022130E+03  0.00000000000E+00 0. -1.
         -1   -1    0    0    0  501 -0.00000000000E+00 -0.00000000000E+00 -0.21736063494E+04  0.21736063494E+04  0.00000000000E+00 0.  1.
         24    2    1    2    0    0 -0.31400441511E+03 -0.64213853042E+03  0.22838597202E+03  0.75468881315E+03  0.80339202876E+02 0.  0.
        254    2    1    2    0    0  0.31400441511E+03  0.64213853042E+03 -0.17369621001E+04  0.20839477576E+04  0.90269610281E+03 0.  0.
         23    2    4    4    0    0  0.56810339231E+02 -0.17062680529E+03 -0.74415105397E+03  0.77214293414E+03  0.10051367213E+03 0.  0.
         23    2    4    4    0    0  0.25719407588E+03  0.81276533572E+03 -0.99281104616E+03  0.13118048234E+04  0.91770571509E+02 0.  0.
          4    1    3    3  502    0 -0.24134316612E+03 -0.55792095523E+03  0.18678402425E+03  0.63593284852E+03  0.00000000000E+00 0. -1.
         -3    1    3    3    0  502 -0.72661248990E+02 -0.84217575191E+02  0.41601947772E+02  0.11875596463E+03  0.00000000000E+00 0.  1.
         11    1    5    5    0    0  0.52276912873E+02 -0.14728199393E+03 -0.43759260103E+03  0.46466347590E+03  0.00000000000E+00 0. -1.
        -11    1    5    5    0    0  0.45334263581E+01 -0.23344811365E+02 -0.30655845293E+03  0.30747945824E+03  0.00000000000E+00 0.  1.
          2    1    6    6  503    0  0.13269085239E+03  0.30469436706E+03 -0.34281524499E+03  0.47745974890E+03  0.00000000000E+00 0.  1.
         -2    1    6    6    0  503  0.12450322348E+03  0.50807096866E+03 -0.64999580117E+03  0.83434507453E+03  0.00000000000E+00 0. -1.
<mgrwt>
<rscale>  0 0.24045905E+04</rscale>
<asrwt>0</asrwt>
<pdfrwt beam="1">  1        2 0.10231234E+00 0.24045905E+04</pdfrwt>
<pdfrwt beam="2">  1       -1 0.33440097E+00 0.24045905E+04</pdfrwt>
<totfact> 0.88319989E-01</totfact>
</mgrwt>
</event>
<event>
12    6  0.9491186E-008  0.2046366E+04  0.7818608E-02  0.8585245E-01
         -1   -1    0    0    0  501 -0.00000000000E+00  0.00000000000E+00  0.47069876379E+03  0.47069876379E+03  0.00000000000E+00 0.  1.
          2   -1    0    0  501    0  0.00000000000E+00 -0.00000000000E+00 -0.22241469030E+04  0.22241469030E+04  0.00000000000E+00 0. -1.
         24    2    1    2    0    0  0.52566814623E+03 -0.14135863638E+03 -0.14874411709E+04  0.15858855919E+04  0.79010187468E+02 0.  0.
        254    2    1    2    0    0 -0.52566814623E+03  0.14135863638E+03 -0.26600696829E+03  0.11089600748E+04  0.92882908890E+03 0.  0.
         23    2    4    4    0    0 -0.65685382422E+03  0.18874941454E+03 -0.47811939356E+03  0.83910706723E+03  0.91756350761E+02 0.  0.
         23    2    4    4    0    0  0.13118567799E+03 -0.47390778161E+02  0.21211242527E+03  0.26985300761E+03  0.91506266448E+02 0.  0.
          4    1    3    3  502    0  0.32115199803E+03 -0.12589626020E+03 -0.93356366994E+03  0.99525353554E+03  0.00000000000E+00 0. -1.
         -3    1    3    3    0  502  0.20451614820E+03 -0.15462376173E+02 -0.55387750099E+03  0.59063205641E+03  0.00000000000E+00 0.  1.
         11    1    5    5    0    0 -0.43510941585E+03  0.16601398762E+03 -0.30245315643E+03  0.55530060299E+03  0.00000000000E+00 0.  1.
        -11    1    5    5    0    0 -0.22174440837E+03  0.22735426922E+02 -0.17566623713E+03  0.28380646424E+03  0.00000000000E+00 0. -1.
          3    1    6    6  503    0  0.42736431935E+02  0.20439685599E+02  0.29185017480E+02  0.55641249152E+02  0.00000000000E+00 0. -1.
         -3    1    6    6    0  503  0.88449246050E+02 -0.67830463760E+02  0.18292740780E+03  0.21421175846E+03  0.00000000000E+00 0.  1.
<mgrwt>
<rscale>  0 0.20463658E+04</rscale>
<asrwt>0</asrwt>
<pdfrwt beam="1">  1        2 0.34217645E+00 0.20463658E+04</pdfrwt>
<pdfrwt beam="2">  1       -1 0.72415194E-01 0.20463658E+04</pdfrwt>
<totfact> 0.10143100E+01</totfact>
</mgrwt>
</event>
<event>
12    6  0.9491186E-008  0.1335180E+04  0.7818608E-02  0.9002123E-01
          2   -1    0    0  501    0  0.00000000000E+00  0.00000000000E+00  0.25811122703E+04  0.25811122703E+04  0.00000000000E+00 0. -1.
         -1   -1    0    0    0  501 -0.00000000000E+00 -0.00000000000E+00 -0.17266848292E+03  0.17266848292E+03  0.00000000000E+00 0.  1.
         24    2    1    2    0    0 -0.49052559072E+02  0.18939148843E+03  0.52146744922E+02  0.21752329857E+03  0.79509829411E+02 0.  0.
        254    2    1    2    0    0  0.49052559072E+02 -0.18939148843E+03  0.23562970424E+04  0.25362574546E+04  0.91770955892E+03 0.  0.
         23    2    4    4    0    0 -0.21558066166E+03 -0.62796576447E+02  0.10753591195E+03  0.26655448743E+03  0.95230723614E+02 0.  0.
         23    2    4    4    0    0  0.26463322073E+03 -0.12659491199E+03  0.22487611305E+04  0.22697029672E+04  0.92563081391E+02 0.  0.
          2    1    3    3  502    0  0.27040914682E+01  0.12028544321E+03  0.52282240698E+02  0.13118434606E+03  0.00000000000E+00 0. -1.
         -1    1    3    3    0  502 -0.51756650541E+02  0.69106045223E+02 -0.13549577609E+00  0.86338952511E+02  0.00000000000E+00 0.  1.
         11    1    5    5    0    0 -0.14495399233E+03 -0.31852636425E+00  0.39385786914E+02  0.15020985840E+03  0.00000000000E+00 0. -1.
        -11    1    5    5    0    0 -0.70626669329E+02 -0.62478050083E+02  0.68150125032E+02  0.11634462903E+03  0.00000000000E+00 0.  1.
          3    1    6    6  503    0  0.14413149472E+03 -0.66356449979E+02  0.86787554709E+03  0.88226131699E+03  0.00000000000E+00 0. -1.
         -3    1    6    6    0  503  0.12050172601E+03 -0.60238462008E+02  0.13808855834E+04  0.13874416502E+04  0.00000000000E+00 0.  1.
<mgrwt>
<rscale>  0 0.13351805E+04</rscale>
<asrwt>0</asrwt>
<pdfrwt beam="1">  1        2 0.39709417E+00 0.13351805E+04</pdfrwt>
<pdfrwt beam="2">  1       -1 0.26564384E-01 0.13351805E+04</pdfrwt>
<totfact> 0.44087706E+01</totfact>
</mgrwt>
</event>
<event>
12    6  0.9491186E-008  0.1586715E+04  0.7818608E-02  0.8828751E-01
          2   -1    0    0  501    0  0.00000000000E+00  0.00000000000E+00  0.76080619378E+03  0.76080619378E+03  0.00000000000E+00 0. -1.
         -1   -1    0    0    0  501 -0.00000000000E+00 -0.00000000000E+00 -0.82730189095E+03  0.82730189095E+03  0.00000000000E+00 0.  1.
         24    2    1    2    0    0  0.11018413466E+03 -0.25524124169E+03 -0.50857041709E+03  0.58505754800E+03  0.79748544471E+02 0.  0.
        254    2    1    2    0    0 -0.11018413466E+03  0.25524124169E+03  0.44207471992E+03  0.10030505367E+04  0.85638290866E+03 0.  0.
         23    2    4    4    0    0 -0.45504610729E+03  0.46714635760E+01  0.21844225797E+03  0.51301004304E+03  0.91506840496E+02 0.  0.
         23    2    4    4    0    0  0.34486197263E+03  0.25056977812E+03  0.22363246195E+03  0.49004049369E+03  0.91723571359E+02 0.  0.
          4    1    3    3  502    0  0.44501400221E+02 -0.92191707487E+02 -0.26973658654E+03  0.28850911887E+03  0.00000000000E+00 0. -1.
         -1    1    3    3    0  502  0.65682734436E+02 -0.16304953421E+03 -0.23883383055E+03  0.29654842913E+03  0.00000000000E+00 0.  1.
         11    1    5    5    0    0 -0.15245467679E+03 -0.36622977516E+02  0.51920355609E+02  0.16516474891E+03  0.00000000000E+00 0.  1.
        -11    1    5    5    0    0 -0.30259143050E+03  0.41294441092E+02  0.16652190236E+03  0.34784529413E+03  0.00000000000E+00 0. -1.
          1    1    6    6  503    0  0.28243520489E+03  0.16034827849E+03  0.14884561589E+03  0.35726213450E+03  0.00000000000E+00 0. -1.
         -1    1    6    6    0  503  0.62426767743E+02  0.90221499627E+02  0.74786846062E+02  0.13277835919E+03  0.00000000000E+00 0.  1.
<mgrwt>
<rscale>  0 0.15867154E+04</rscale>
<asrwt>0</asrwt>
<pdfrwt beam="1">  1        2 0.11704711E+00 0.15867154E+04</pdfrwt>
<pdfrwt beam="2">  1       -1 0.12727721E+00 0.15867154E+04</pdfrwt>
<totfact> 0.21585141E+01</totfact>
</mgrwt>
</event>
<event>
12    6  0.9491186E-008  0.1550637E+04  0.7818608E-02  0.8851461E-01
          2   -1    0    0  501    0  0.00000000000E+00  0.00000000000E+00  0.13346590427E+04  0.13346590427E+04  0.00000000000E+00 0. -1.
         -1   -1    0    0    0  501 -0.00000000000E+00 -0.00000000000E+00 -0.45039118916E+03  0.45039118916E+03  0.00000000000E+00 0.  1.
         24    2    1    2    0    0 -0.16793325830E+03 -0.21939300427E+03 -0.19731927591E+03  0.34898884407E+03  0.80767859183E+02 0.  0.
        254    2    1    2    0    0  0.16793325830E+03  0.21939300427E+03  0.10815871295E+04  0.14360613878E+04  0.90338625258E+03 0.  0.
         23    2    4    4    0    0  0.40165289680E+03  0.81937392638E+02  0.10705923339E+04  0.11499557897E+04  0.90507385995E+02 0.  0.
         23    2    4    4    0    0 -0.23371963850E+03  0.13745561163E+03  0.10994795582E+02  0.28610559817E+03  0.90645535932E+02 0.  0.
          2    1    3    3  502    0 -0.60909615252E+02 -0.47453848683E+02 -0.19889739496E+02  0.79733623536E+02  0.00000000000E+00 0. -1.
         -1    1    3    3    0  502 -0.10702364305E+03 -0.17193915558E+03 -0.17742953641E+03  0.26925522054E+03  0.00000000000E+00 0.  1.
         11    1    5    5    0    0  0.19792910582E+03  0.35342066552E+02  0.64862837338E+03  0.67907566541E+03  0.00000000000E+00 0. -1.
        -11    1    5    5    0    0  0.20372379098E+03  0.46595326086E+02  0.42196396053E+03  0.47088012424E+03  0.00000000000E+00 0.  1.
          2    1    6    6  503    0 -0.13790891912E+02  0.43061484566E+02 -0.84051065465E+01  0.45990498680E+02  0.00000000000E+00 0. -1.
         -2    1    6    6    0  503 -0.21992874659E+03  0.94394127064E+02  0.19399902129E+02  0.24011509949E+03  0.00000000000E+00 0.  1.
<mgrwt>
<rscale>  0 0.15506369E+04</rscale>
<asrwt>0</asrwt>
<pdfrwt beam="1">  1        2 0.20533216E+00 0.15506369E+04</pdfrwt>
<pdfrwt beam="2">  1       -1 0.69290953E-01 0.15506369E+04</pdfrwt>
<totfact> 0.36480473E+01</totfact>
</mgrwt>
</event>
<event>
12    6  0.9491186E-008  0.2699213E+04  0.7818608E-02  0.8335260E-01
         -1   -1    0    0    0  501 -0.00000000000E+00  0.00000000000E+00  0.24830426329E+04  0.24830426329E+04  0.00000000000E+00 0.  1.
          2   -1    0    0  501    0  0.00000000000E+00 -0.00000000000E+00 -0.73355068432E+03  0.73355068432E+03  0.00000000000E+00 0. -1.
         24    2    1    2    0    0  0.11815507417E+04  0.39113924079E+02  0.58661202242E+03  0.13221389657E+04  0.79660061899E+02 0.  0.
        254    2    1    2    0    0 -0.11815507417E+04 -0.39113924079E+02  0.11628799261E+04  0.18944543515E+04  0.91601065130E+03 0.  0.
         23    2    4    4    0    0 -0.46340508205E+03  0.37357011391E+03  0.23347826298E+03  0.64598440787E+03  0.92113277280E+02 0.  0.
         23    2    4    4    0    0 -0.71814565961E+03 -0.41268403799E+03  0.92940166316E+03  0.12484699437E+04  0.94066174256E+02 0.  0.
          4    1    3    3  502    0  0.30116933739E+03 -0.23857376971E+02  0.14090887644E+03  0.33335784928E+03  0.00000000000E+00 0. -1.
         -3    1    3    3    0  502  0.88038140428E+03  0.62971301050E+02  0.44570314598E+03  0.98878111637E+03  0.00000000000E+00 0.  1.
         11    1    5    5    0    0 -0.40036725403E+03  0.28022752272E+03  0.20394375180E+03  0.52954174196E+03  0.00000000000E+00 0. -1.
        -11    1    5    5    0    0 -0.63037828025E+02  0.93342591195E+02  0.29534511179E+02  0.11644266591E+03  0.00000000000E+00 0.  1.
          4    1    6    6  503    0 -0.17652265791E+03 -0.13775759184E+03  0.29249075601E+03  0.36835885386E+03  0.00000000000E+00 0. -1.
         -4    1    6    6    0  503 -0.54162300171E+03 -0.27492644615E+03  0.63691090714E+03  0.88011108981E+03  0.00000000000E+00 0.  1.
<mgrwt>
<rscale>  0 0.26992129E+04</rscale>
<asrwt>0</asrwt>
<pdfrwt beam="1">  1        2 0.11285395E+00 0.26992129E+04</pdfrwt>
<pdfrwt beam="2">  1       -1 0.38200655E+00 0.26992129E+04</pdfrwt>
<totfact> 0.36610550E-01</totfact>
</mgrwt>
</event>
<event>
12    6  0.9491186E-008  0.1715921E+04  0.7818608E-02  0.8752336E-01
          2   -1    0    0  501    0  0.00000000000E+00  0.00000000000E+00  0.20830119912E+04  0.20830119912E+04  0.00000000000E+00 0. -1.
         -1   -1    0    0    0  501 -0.00000000000E+00 -0.00000000000E+00 -0.35338058294E+03  0.35338058294E+03  0.00000000000E+00 0.  1.
         24    2    1    2    0    0  0.32723080674E+03  0.11458583716E+03 -0.10174824225E+03  0.36888365418E+03  0.74246417826E+02 0.  0.
        254    2    1    2    0    0 -0.32723080674E+03 -0.11458583716E+03  0.18313796505E+04  0.20675089200E+04  0.89466853910E+03 0.  0.
         23    2    4    4    0    0  0.29836893406E+03 -0.92453063825E+02  0.57346077016E+03  0.66005477473E+03  0.96142919208E+02 0.  0.
         23    2    4    4    0    0 -0.62559974080E+03 -0.22132773336E+02  0.12579188804E+04  0.14074541452E+04  0.81867979303E+02 0.  0.
          2    1    3    3  502    0  0.11508739233E+03  0.52812517153E+02 -0.72743419767E+02  0.14603381445E+03  0.00000000000E+00 0. -1.
         -1    1    3    3    0  502  0.21214341441E+03  0.61773320009E+02 -0.29004822483E+02  0.22284983973E+03  0.00000000000E+00 0.  1.
         11    1    5    5    0    0  0.16734903976E+03 -0.98102666643E+02  0.30858659045E+03  0.36449350902E+03  0.00000000000E+00 0.  1.
        -11    1    5    5    0    0  0.13101989430E+03  0.56496028174E+01  0.26487417971E+03  0.29556126571E+03  0.00000000000E+00 0. -1.
          2    1    6    6  503    0 -0.13967630449E+02 -0.35716654147E+01  0.98849284203E+01  0.17480369106E+02  0.00000000000E+00 0. -1.
         -2    1    6    6    0  503 -0.61163211035E+03 -0.18561107921E+02  0.12480339519E+04  0.13899737761E+04  0.00000000000E+00 0.  1.
<mgrwt>
<rscale>  0 0.17159207E+04</rscale>
<asrwt>0</asrwt>
<pdfrwt beam="1">  1        2 0.32046338E+00 0.17159207E+04</pdfrwt>
<pdfrwt beam="2">  1       -1 0.54366245E-01 0.17159207E+04</pdfrwt>
<totfact> 0.22217340E+01</totfact>
</mgrwt>
</event>
<event>
12    6  0.9491186E-008  0.1233202E+04  0.7818608E-02  0.9084282E-01
         -1   -1    0    0    0  501 -0.00000000000E+00  0.00000000000E+00  0.71266322564E+03  0.71266322564E+03  0.00000000000E+00 0.  1.
          2   -1    0    0  501    0  0.00000000000E+00 -0.00000000000E+00 -0.53348690116E+03  0.53348690116E+03  0.00000000000E+00 0. -1.
         24    2    1    2    0    0  0.37666373287E+02 -0.31805587211E+02 -0.23646380566E+03  0.25598661553E+03  0.84756503539E+02 0.  0.
        254    2    1    2    0    0 -0.37666373287E+02  0.31805587211E+02  0.41564013014E+03  0.99016351127E+03  0.89734982600E+03 0.  0.
         23    2    4    4    0    0  0.38449962820E+03  0.18253445754E+03  0.25688022524E+03  0.50599646035E+03  0.94266513079E+02 0.  0.
         23    2    4    4    0    0 -0.42216600148E+03 -0.15072887033E+03  0.15875990490E+03  0.48416705093E+03  0.90937894394E+02 0.  0.
          4    1    3    3  502    0  0.64060915890E+02 -0.26938339648E+02 -0.14729145744E+03  0.16286266767E+03  0.00000000000E+00 0. -1.
         -3    1    3    3    0  502 -0.26394542603E+02 -0.48672475632E+01 -0.89172348219E+02  0.93123947860E+02  0.00000000000E+00 0.  1.
         11    1    5    5    0    0  0.33225250722E+03  0.13392688216E+03  0.24412673369E+03  0.43350432573E+03  0.00000000000E+00 0. -1.
        -11    1    5    5    0    0  0.52247120972E+02  0.48607575385E+02  0.12753491549E+02  0.72492134618E+02  0.00000000000E+00 0.  1.
          4    1    6    6  503    0 -0.25160546716E+03 -0.95062637896E+02  0.14152391924E+03  0.30392636600E+03  0.00000000000E+00 0. -1.
         -4    1    6    6    0  503 -0.17056053432E+03 -0.55666232437E+02  0.17235985655E+02  0.18024068493E+03  0.00000000000E+00 0.  1.
<mgrwt>
<rscale>  0 0.12332015E+04</rscale>
<asrwt>0</asrwt>
<pdfrwt beam="1">  1        2 0.82074908E-01 0.12332015E+04</pdfrwt>
<pdfrwt beam="2">  1       -1 0.10964050E+00 0.12332015E+04</pdfrwt>
<totfact> 0.49439364E+01</totfact>
</mgrwt>
</event>
<event>
12    6  0.9491186E-008  0.1294734E+04  0.7818608E-02  0.9033752E-01
         -1   -1    0    0    0  501 -0.00000000000E+00  0.00000000000E+00  0.17507472246E+03  0.17507472246E+03  0.00000000000E+00 0.  1.
          2   -1    0    0  501    0  0.00000000000E+00 -0.00000000000E+00 -0.23937420448E+04  0.23937420448E+04  0.00000000000E+00 0. -1.
         24    2    1    2    0    0 -0.16456899429E+03  0.26051907541E+03 -0.82500001001E+03  0.88458534967E+03  0.83144944485E+02 0.  0.
        254    2    1    2    0    0  0.16456899429E+03 -0.26051907541E+03 -0.13936673123E+04  0.16842314176E+04  0.89407703696E+03 0.  0.
         23    2    4    4    0    0  0.51600522645E+03 -0.75630451047E+02 -0.68361493249E+03  0.86564862684E+03  0.10018388284E+03 0.  0.
         23    2    4    4    0    0 -0.35143623215E+03 -0.18488862436E+03 -0.71005237985E+03  0.81858279076E+03  0.90621048936E+02 0.  0.
          4    1    3    3  502    0 -0.13768441746E+03  0.19734833801E+03 -0.71987780434E+03  0.75903057811E+03  0.00000000000E+00 0. -1.
         -3    1    3    3    0  502 -0.26884576834E+02  0.63170737406E+02 -0.10512220568E+03  0.12555477156E+03  0.00000000000E+00 0.  1.
         11    1    5    5    0    0  0.60027669727E+01 -0.15074622216E+02 -0.12061961925E+02  0.20218020965E+02  0.00000000000E+00 0.  1.
        -11    1    5    5    0    0  0.51000245947E+03 -0.60555828832E+02 -0.67155297057E+03  0.84543060588E+03  0.00000000000E+00 0. -1.
          2    1    6    6  503    0 -0.16435793517E+03 -0.12564884257E+03 -0.30564794060E+03  0.36908241097E+03  0.00000000000E+00 0. -1.
         -2    1    6    6    0  503 -0.18707829699E+03 -0.59239781792E+02 -0.40440443925E+03  0.44950037979E+03  0.00000000000E+00 0.  1.
<mgrwt>
<rscale>  0 0.12947335E+04</rscale>
<asrwt>0</asrwt>
<pdfrwt beam="1">  1        2 0.36826797E+00 0.12947335E+04</pdfrwt>
<pdfrwt beam="2">  1       -1 0.26934575E-01 0.12947335E+04</pdfrwt>
<totfact> 0.55346623E+01</totfact>
</mgrwt>
</event>
<event>
12    6  0.9491186E-008  0.1490254E+04  0.7818608E-02  0.8890960E-01
          2   -1    0    0  501    0  0.00000000000E+00  0.00000000000E+00  0.17491522354E+04  0.17491522354E+04  0.00000000000E+00 0. -1.
         -1   -1    0    0    0  501 -0.00000000000E+00 -0.00000000000E+00 -0.31741902446E+03  0.31741902446E+03  0.00000000000E+00 0.  1.
         24    2    1    2    0    0  0.46602182487E+03 -0.30457086463E+01  0.39900485073E+03  0.61837264206E+03  0.77422451156E+02 0.  0.
        254    2    1    2    0    0 -0.46602182487E+03  0.30457086463E+01  0.10327283602E+04  0.14481986178E+04  0.90197879855E+03 0.  0.
         23    2    4    4    0    0 -0.62124451846E+03  0.27787014653E+03  0.68523994430E+03  0.97006533792E+03  0.91194344741E+02 0.  0.
         23    2    4    4    0    0  0.15522269360E+03 -0.27482443788E+03  0.34748841591E+03  0.47813327989E+03  0.90778179524E+02 0.  0.
          4    1    3    3  502    0  0.16406852708E+03 -0.76643824262E+01  0.18978888613E+03  0.25099212265E+03  0.00000000000E+00 0. -1.
         -3    1    3    3    0  502  0.30195329779E+03  0.46186737799E+01  0.20921596460E+03  0.36738051940E+03  0.00000000000E+00 0.  1.
         11    1    5    5    0    0 -0.79491846984E+02  0.25148636491E+02  0.12842447965E+03  0.15311516785E+03  0.00000000000E+00 0. -1.
        -11    1    5    5    0    0 -0.54175267148E+03  0.25272151004E+03  0.55681546465E+03  0.81695017006E+03  0.00000000000E+00 0.  1.
          3    1    6    6  503    0  0.37028498255E+02 -0.34150432498E+02  0.10568475248E+03  0.11707531179E+03  0.00000000000E+00 0. -1.
         -3    1    6    6    0  503  0.11819419534E+03 -0.24067400538E+03  0.24180366343E+03  0.36105796810E+03  0.00000000000E+00 0.  1.
<mgrwt>
<rscale>  0 0.14902539E+04</rscale>
<asrwt>0</asrwt>
<pdfrwt beam="1">  1        2 0.26910034E+00 0.14902539E+04</pdfrwt>
<pdfrwt beam="2">  1       -1 0.48833697E-01 0.14902539E+04</pdfrwt>
<totfact> 0.42583403E+01</totfact>
</mgrwt>
</event>
<event>
12    6  0.9491186E-008  0.2847706E+04  0.7818608E-02  0.8288609E-01
         -1   -1    0    0    0  501 -0.00000000000E+00  0.00000000000E+00  0.20541074442E+04  0.20541074442E+04  0.00000000000E+00 0.  1.
          2   -1    0    0  501    0  0.00000000000E+00 -0.00000000000E+00 -0.98697738129E+03  0.98697738129E+03  0.00000000000E+00 0. -1.
         24    2    1    2    0    0  0.41891060227E+03 -0.11670564066E+04  0.81982137281E+03  0.14885599231E+04  0.78719834004E+02 0.  0.
        254    2    1    2    0    0 -0.41891060227E+03  0.11670564066E+04  0.24730869010E+03  0.15525249024E+04  0.90092465587E+03 0.  0.
         23    2    4    4    0    0  0.53726868735E+02  0.17302986330E+03  0.38783095942E+03  0.43901766927E+03  0.97456404772E+02 0.  0.
         23    2    4    4    0    0 -0.47263747100E+03  0.99402654333E+03 -0.14052226932E+03  0.11135072332E+04  0.93149891564E+02 0.  0.
          4    1    3    3  502    0  0.17968473845E+03 -0.56213239888E+03  0.43000077614E+03  0.73019182862E+03  0.00000000000E+00 0. -1.
         -3    1    3    3    0  502  0.23922586382E+03 -0.60492400775E+03  0.38982059668E+03  0.75836809444E+03  0.00000000000E+00 0.  1.
         11    1    5    5    0    0  0.73248570174E+02  0.14061120459E+03  0.35547199646E+03  0.38922641760E+03  0.00000000000E+00 0. -1.
        -11    1    5    5    0    0 -0.19521701439E+02  0.32418658709E+02  0.32358962965E+02  0.49791251679E+02  0.00000000000E+00 0.  1.
          4    1    6    6  503    0 -0.28267209563E+03  0.56385498352E+03 -0.12495357462E+03  0.64300027364E+03  0.00000000000E+00 0. -1.
         -4    1    6    6    0  503 -0.18996537537E+03  0.43017155981E+03 -0.15568694701E+02  0.47050695953E+03  0.00000000000E+00 0.  1.
<mgrwt>
<rscale>  0 0.28477062E+04</rscale>
<asrwt>0</asrwt>
<pdfrwt beam="1">  1        2 0.15184267E+00 0.28477062E+04</pdfrwt>
<pdfrwt beam="2">  1       -1 0.31601653E+00 0.28477062E+04</pdfrwt>
<totfact> 0.65917740E-01</totfact>
</mgrwt>
</event>
<event>
12    6  0.9491186E-008  0.3288292E+04  0.7818608E-02  0.8165881E-01
          2   -1    0    0  501    0  0.00000000000E+00  0.00000000000E+00  0.42100123874E+04  0.42100123874E+04  0.00000000000E+00 0. -1.
         -1   -1    0    0    0  501 -0.00000000000E+00 -0.00000000000E+00 -0.64209229330E+03  0.64209229330E+03  0.00000000000E+00 0.  1.
         24    2    1    2    0    0  0.69243409172E+03 -0.93775992311E+03  0.30909791195E+04  0.33045938416E+04  0.85614811621E+02 0.  0.
        254    2    1    2    0    0 -0.69243409172E+03  0.93775992311E+03  0.47694097461E+03  0.15475108391E+04  0.89914318054E+03 0.  0.
         23    2    4    4    0    0 -0.71353944192E+03  0.24530634381E+03  0.34989590363E+03  0.83652356414E+03  0.89614689058E+02 0.  0.
         23    2    4    4    0    0  0.21105350201E+02  0.69245357930E+03  0.12704507098E+03  0.71098727496E+03  0.97082747198E+02 0.  0.
          4    1    3    3  502    0  0.44056372865E+03 -0.65368344664E+03  0.20247467187E+04  0.21727857056E+04  0.00000000000E+00 0. -1.
         -3    1    3    3    0  502  0.25187036307E+03 -0.28407647647E+03  0.10662324008E+04  0.11318081360E+04  0.00000000000E+00 0.  1.
         11    1    5    5    0    0 -0.70132873535E+03  0.24701171853E+03  0.33086499935E+03  0.81384791694E+03  0.00000000000E+00 0.  1.
        -11    1    5    5    0    0 -0.12210706571E+02 -0.17053747245E+01  0.19030904285E+02  0.22675647197E+02  0.00000000000E+00 0. -1.
          2    1    6    6  503    0 -0.16340325598E+02  0.59826897201E+02 -0.94127820851E+01  0.62728497001E+02  0.00000000000E+00 0. -1.
         -2    1    6    6    0  503  0.37445675799E+02  0.63262668210E+03  0.13645785306E+03  0.64825877796E+03  0.00000000000E+00 0.  1.
<mgrwt>
<rscale>  0 0.32882923E+04</rscale>
<asrwt>0</asrwt>
<pdfrwt beam="1">  1        2 0.64769420E+00 0.32882923E+04</pdfrwt>
<pdfrwt beam="2">  1       -1 0.98783432E-01 0.32882923E+04</pdfrwt>
<totfact> 0.21150639E-01</totfact>
</mgrwt>
</event>
<event>
12    6  0.9491186E-008  0.1395189E+04  0.7818608E-02  0.8957308E-01
         -1   -1    0    0    0  501 -0.00000000000E+00  0.00000000000E+00  0.38271074835E+03  0.38271074835E+03  0.00000000000E+00 0.  1.
          2   -1    0    0  501    0  0.00000000000E+00 -0.00000000000E+00 -0.12715565601E+04  0.12715565601E+04  0.00000000000E+00 0. -1.
         24    2    1    2    0    0  0.42765251751E+02  0.15180145707E+03  0.18370091221E+03  0.25547853857E+03  0.81551881614E+02 0.  0.
        254    2    1    2    0    0 -0.42765251751E+02 -0.15180145707E+03 -0.10725467239E+04  0.13987887698E+04  0.88395757733E+03 0.  0.
         23    2    4    4    0    0 -0.27806395088E+03  0.19088996285E+03 -0.84921115554E+03  0.91826143040E+03  0.91027079349E+02 0.  0.
         23    2    4    4    0    0  0.23529869913E+03 -0.34269141993E+03 -0.22333556838E+03  0.48052733944E+03  0.90691017988E+02 0.  0.
          2    1    3    3  502    0 -0.11578850848E+02  0.43208383902E+02  0.95302298387E+02  0.10527849877E+03  0.00000000000E+00 0. -1.
         -1    1    3    3    0  502  0.54344102598E+02  0.10859307317E+03  0.88398613824E+02  0.15020003979E+03  0.00000000000E+00 0.  1.
         11    1    5    5    0    0 -0.16443961768E+03  0.16058749261E+03 -0.51491162338E+03  0.56388182320E+03  0.00000000000E+00 0. -1.
        -11    1    5    5    0    0 -0.11362433320E+03  0.30302470246E+02 -0.33429953216E+03  0.35437960720E+03  0.00000000000E+00 0.  1.
          1    1    6    6  503    0  0.21978250623E+03 -0.32714126985E+03 -0.18284778442E+03  0.43446412137E+03  0.00000000000E+00 0. -1.
         -1    1    6    6    0  503  0.15516192893E+02 -0.15550150075E+02 -0.40487783963E+02  0.46063218075E+02  0.00000000000E+00 0.  1.
<mgrwt>
<rscale>  0 0.13951894E+04</rscale>
<asrwt>0</asrwt>
<pdfrwt beam="1">  1        2 0.19562408E+00 0.13951894E+04</pdfrwt>
<pdfrwt beam="2">  1       -1 0.58878577E-01 0.13951894E+04</pdfrwt>
<totfact> 0.55741102E+01</totfact>
</mgrwt>
</event>
<event>
12    6  0.9491186E-008  0.3485745E+04  0.7818608E-02  0.8117176E-01
          2   -1    0    0  501    0  0.00000000000E+00  0.00000000000E+00  0.13036659059E+04  0.13036659059E+04  0.00000000000E+00 0. -1.
         -1   -1    0    0    0  501 -0.00000000000E+00 -0.00000000000E+00 -0.23300487329E+04  0.23300487329E+04  0.00000000000E+00 0.  1.
         24    2    1    2    0    0  0.14140514805E+04  0.34308929110E+03 -0.12381229285E+04  0.19121909985E+04  0.79209707179E+02 0.  0.
        254    2    1    2    0    0 -0.14140514805E+04 -0.34308929110E+03  0.21174010148E+03  0.17215236403E+04  0.89529767250E+03 0.  0.
         23    2    4    4    0    0  0.90460462685E+02  0.10582070235E+02 -0.71692060389E+02  0.14759482322E+03  0.91375077557E+02 0.  0.
         23    2    4    4    0    0 -0.15045119432E+04 -0.35367136134E+03  0.28343216187E+03  0.15739288171E+04  0.90986327924E+02 0.  0.
          2    1    3    3  502    0  0.86830149781E+03  0.17088046537E+03 -0.75090526991E+03  0.11606060266E+04  0.00000000000E+00 0. -1.
         -1    1    3    3    0  502  0.54574998265E+03  0.17220882573E+03 -0.48721765861E+03  0.75158497197E+03  0.00000000000E+00 0.  1.
         11    1    5    5    0    0  0.10428078445E+03 -0.34268231956E+01 -0.43107631861E+02  0.11289151008E+03  0.00000000000E+00 0. -1.
        -11    1    5    5    0    0 -0.13820321764E+02  0.14008893431E+02 -0.28584428528E+02  0.34703313143E+02  0.00000000000E+00 0.  1.
          3    1    6    6  503    0 -0.47140033248E+03 -0.15411299887E+03  0.85726183744E+02  0.50330713134E+03  0.00000000000E+00 0.  1.
         -3    1    6    6    0  503 -0.10331116107E+04 -0.19955836247E+03  0.19770597812E+03  0.10706216857E+04  0.00000000000E+00 0. -1.
<mgrwt>
<rscale>  0 0.34857453E+04</rscale>
<asrwt>0</asrwt>
<pdfrwt beam="1">  1        2 0.20056399E+00 0.34857453E+04</pdfrwt>
<pdfrwt beam="2">  1       -1 0.35846903E+00 0.34857453E+04</pdfrwt>
<totfact> 0.21026328E-01</totfact>
</mgrwt>
</event>
<event>
12    6  0.9491186E-008  0.1996844E+04  0.7818608E-02  0.8608098E-01
          2   -1    0    0  501    0  0.00000000000E+00  0.00000000000E+00  0.25361447154E+04  0.25361447154E+04  0.00000000000E+00 0. -1.
         -1   -1    0    0    0  501 -0.00000000000E+00 -0.00000000000E+00 -0.39305577325E+03  0.39305577325E+03  0.00000000000E+00 0.  1.
         24    2    1    2    0    0 -0.18203507592E+03 -0.76046816692E+03  0.98297774719E+03  0.12585782968E+04  0.79532861462E+02 0.  0.
        254    2    1    2    0    0  0.18203507592E+03  0.76046816692E+03  0.11601111950E+04  0.16706221919E+04  0.91305636264E+03 0.  0.
         23    2    4    4    0    0  0.47529859638E+02  0.37710252432E+03 -0.47033851076E+02  0.39373711240E+03  0.91385606808E+02 0.  0.
         23    2    4    4    0    0  0.13450521629E+03  0.38336564260E+03  0.12071450461E+04  0.12768850795E+04  0.90418331684E+02 0.  0.
          4    1    3    3  502    0  0.39741380424E+01 -0.23923220568E+01  0.11259485460E+02  0.12177560955E+02  0.00000000000E+00 0. -1.
         -3    1    3    3    0  502 -0.18600921397E+03 -0.75807584486E+03  0.97171826173E+03  0.12464007359E+04  0.00000000000E+00 0.  1.
         11    1    5    5    0    0 -0.27345096538E+01  0.58047083992E+02  0.24259446060E+02  0.62971916171E+02  0.00000000000E+00 0. -1.
        -11    1    5    5    0    0  0.50264369291E+02  0.31905544032E+03 -0.71293297136E+02  0.33076519623E+03  0.00000000000E+00 0.  1.
          3    1    6    6  503    0  0.96505802845E+02  0.33425403212E+03  0.93195146985E+03  0.99477267258E+03  0.00000000000E+00 0. -1.
         -3    1    6    6    0  503  0.37999413441E+02  0.49111610482E+02  0.27519357624E+03  0.28211240687E+03  0.00000000000E+00 0.  1.
<mgrwt>
<rscale>  0 0.19968438E+04</rscale>
<asrwt>0</asrwt>
<pdfrwt beam="1">  1        2 0.39017610E+00 0.19968438E+04</pdfrwt>
<pdfrwt beam="2">  1       -1 0.60470121E-01 0.19968438E+04</pdfrwt>
<totfact> 0.97362807E+00</totfact>
</mgrwt>
</event>
<event>
12    6  0.9491186E-008  0.3735047E+04  0.7818608E-02  0.8060239E-01
         -1   -1    0    0    0  501 -0.00000000000E+00  0.00000000000E+00  0.14175000121E+04  0.14175000121E+04  0.00000000000E+00 0.  1.
          2   -1    0    0  501    0  0.00000000000E+00 -0.00000000000E+00 -0.24604187931E+04  0.24604187931E+04  0.00000000000E+00 0. -1.
         24    2    1    2    0    0 -0.49919485532E+02  0.54235040214E+03  0.12439185147E+04  0.13600778466E+04  0.76436666640E+02 0.  0.
        254    2    1    2    0    0  0.49919485532E+02 -0.54235040214E+03 -0.22868372957E+04  0.25178409585E+04  0.90181060200E+03 0.  0.
         23    2    4    4    0    0  0.29907360892E+03 -0.33954278156E+03 -0.20734249997E+04  0.21240853168E+04  0.88954367743E+02 0.  0.
         23    2    4    4    0    0 -0.24915412339E+03 -0.20280762058E+03 -0.21341229598E+03  0.39375564176E+03  0.79309451993E+02 0.  0.
          2    1    3    3  502    0 -0.22925308386E+02  0.16763259684E+03  0.47622720417E+03  0.50538955992E+03  0.00000000000E+00 0. -1.
         -1    1    3    3    0  502 -0.26994177146E+02  0.37471780531E+03  0.76769131049E+03  0.85468828670E+03  0.00000000000E+00 0.  1.
         11    1    5    5    0    0  0.19261159001E+03 -0.27122392564E+03 -0.14102460483E+04  0.14489498125E+04  0.00000000000E+00 0. -1.
        -11    1    5    5    0    0  0.10646201891E+03 -0.68318855922E+02 -0.66317895139E+03  0.67513550426E+03  0.00000000000E+00 0.  1.
          2    1    6    6  503    0 -0.81463362619E+01 -0.37780383214E+02 -0.28997296257E+02  0.48317319260E+02  0.00000000000E+00 0.  1.
         -2    1    6    6    0  503 -0.24100778713E+03 -0.16502723737E+03 -0.18441499973E+03  0.34543832250E+03  0.00000000000E+00 0. -1.
<mgrwt>
<rscale>  0 0.37350468E+04</rscale>
<asrwt>0</asrwt>
<pdfrwt beam="1">  1        2 0.37852597E+00 0.37350468E+04</pdfrwt>
<pdfrwt beam="2">  1       -1 0.21807693E+00 0.37350468E+04</pdfrwt>
<totfact> 0.38113790E-01</totfact>
</mgrwt>
</event>
<event>
12    6  0.9491186E-008  0.2099392E+04  0.7818608E-02  0.8561511E-01
          2   -1    0    0  501    0  0.00000000000E+00  0.00000000000E+00  0.19566672679E+04  0.19566672679E+04  0.00000000000E+00 0. -1.
         -1   -1    0    0    0  501 -0.00000000000E+00 -0.00000000000E+00 -0.56313196482E+03  0.56313196482E+03  0.00000000000E+00 0.  1.
         24    2    1    2    0    0 -0.65660072454E+03  0.17602048810E+03  0.11717694866E+04  0.13578393284E+04  0.92607711069E+02 0.  0.
        254    2    1    2    0    0  0.65660072454E+03 -0.17602048810E+03  0.22176581647E+03  0.11619599044E+04  0.91589465462E+03 0.  0.
         23    2    4    4    0    0 -0.27944373534E+02 -0.40056755228E+03  0.12321469813E+03  0.42910957294E+03  0.87851646538E+02 0.  0.
         23    2    4    4    0    0  0.68454509807E+03  0.22454706419E+03  0.98551118334E+02  0.73285033145E+03  0.91290251641E+02 0.  0.
          4    1    3    3  502    0 -0.44292760890E+03  0.79267478742E+02  0.81261241160E+03  0.92887412032E+03  0.00000000000E+00 0. -1.
         -3    1    3    3    0  502 -0.21367311564E+03  0.96753009356E+02  0.35915707505E+03  0.42896520806E+03  0.00000000000E+00 0.  1.
         11    1    5    5    0    0 -0.48851877992E+02 -0.36721053619E+03  0.10126986899E+03  0.38403863118E+03  0.00000000000E+00 0.  1.
        -11    1    5    5    0    0  0.20907504458E+02 -0.33357016096E+02  0.21944829143E+02  0.45070941765E+02  0.00000000000E+00 0. -1.
          4    1    6    6  503    0  0.24301206756E+03  0.12622088733E+03  0.38841070744E+02  0.27657766749E+03  0.00000000000E+00 0. -1.
         -4    1    6    6    0  503  0.44153303051E+03  0.98326176856E+02  0.59710047590E+02  0.45627266396E+03  0.00000000000E+00 0.  1.
<mgrwt>
<rscale>  0 0.20993922E+04</rscale>
<asrwt>0</asrwt>
<pdfrwt beam="1">  1        2 0.30102573E+00 0.20993922E+04</pdfrwt>
<pdfrwt beam="2">  1       -1 0.86635688E-01 0.20993922E+04</pdfrwt>
<totfact> 0.97317048E+00</totfact>
</mgrwt>
</event>
<event>
12    6  0.9491186E-008  0.1395359E+04  0.7818608E-02  0.8957185E-01
          2   -1    0    0  501    0  0.00000000000E+00  0.00000000000E+00  0.50479550197E+03  0.50479550197E+03  0.00000000000E+00 0. -1.
         -1   -1    0    0    0  501 -0.00000000000E+00 -0.00000000000E+00 -0.96426497005E+03  0.96426497005E+03  0.00000000000E+00 0.  1.
         24    2    1    2    0    0  0.37683566786E+03  0.15156235336E+03 -0.54863328839E+02  0.41878977064E+03  0.86015228984E+02 0.  0.
        254    2    1    2    0    0 -0.37683566786E+03 -0.15156235336E+03 -0.40460613924E+03  0.10502707014E+04  0.87999213107E+03 0.  0.
         23    2    4    4    0    0 -0.64350539894E+03 -0.19455325827E+03 -0.33341040141E+03  0.75603813299E+03  0.92092312358E+02 0.  0.
         23    2    4    4    0    0  0.26666973108E+03  0.42990904912E+02 -0.71195737823E+02  0.29423256840E+03  0.92428393047E+02 0.  0.
          2    1    3    3  502    0  0.10957900430E+03  0.58434898020E+02  0.20603059547E+02  0.12588360319E+03  0.00000000000E+00 0. -1.
         -1    1    3    3    0  502  0.26725666356E+03  0.93127455337E+02 -0.75466388385E+02  0.29290616745E+03  0.00000000000E+00 0.  1.
         11    1    5    5    0    0 -0.84512473586E+02 -0.58589613848E+02 -0.41104805060E+02  0.11074613330E+03  0.00000000000E+00 0. -1.
        -11    1    5    5    0    0 -0.55899292535E+03 -0.13596364442E+03 -0.29230559635E+03  0.64529199968E+03  0.00000000000E+00 0.  1.
          1    1    6    6  503    0  0.15568520989E+03  0.70182251522E+02 -0.34547861930E+02  0.17423256805E+03  0.00000000000E+00 0. -1.
         -1    1    6    6    0  503  0.11098452119E+03 -0.27191346610E+02 -0.36647875893E+02  0.12000000034E+03  0.00000000000E+00 0.  1.
<mgrwt>
<rscale>  0 0.13953589E+04</rscale>
<asrwt>0</asrwt>
<pdfrwt beam="1">  1        2 0.77660847E-01 0.13953589E+04</pdfrwt>
<pdfrwt beam="2">  1       -1 0.14834846E+00 0.13953589E+04</pdfrwt>
<totfact> 0.24371880E+01</totfact>
</mgrwt>
</event>
<event>
12    6  0.9491186E-008  0.1613446E+04  0.7818608E-02  0.8812330E-01
          2   -1    0    0  501    0  0.00000000000E+00  0.00000000000E+00  0.16205382972E+04  0.16205382972E+04  0.00000000000E+00 0. -1.
         -1   -1    0    0    0  501 -0.00000000000E+00 -0.00000000000E+00 -0.40159619854E+03  0.40159619854E+03  0.00000000000E+00 0.  1.
         24    2    1    2    0    0 -0.48161552196E+03  0.22849656679E+03  0.59024174605E+03  0.79921788121E+03  0.78738242559E+02 0.  0.
        254    2    1    2    0    0  0.48161552196E+03 -0.22849656679E+03  0.62870035262E+03  0.12229166145E+04  0.90338071748E+03 0.  0.
         23    2    4    4    0    0  0.40693675018E+03 -0.29334296213E+03  0.83362991727E+03  0.97718405528E+03  0.91116556361E+02 0.  0.
         23    2    4    4    0    0  0.74678771779E+02  0.64846395350E+02 -0.20492956465E+03  0.24573255926E+03  0.92770632578E+02 0.  0.
          2    1    3    3  502    0 -0.27894356979E+03  0.16349454592E+03  0.31631929387E+03  0.45232496874E+03  0.00000000000E+00 0. -1.
         -1    1    3    3    0  502 -0.20267195216E+03  0.65002020867E+02  0.27392245218E+03  0.34689291247E+03  0.00000000000E+00 0.  1.
         11    1    5    5    0    0  0.12554428481E+03 -0.46105058805E+02  0.18715119828E+03  0.23002742209E+03  0.00000000000E+00 0.  1.
        -11    1    5    5    0    0  0.28139246536E+03 -0.24723790333E+03  0.64647871899E+03  0.74715663319E+03  0.00000000000E+00 0. -1.
          4    1    6    6  503    0 -0.93913664749E+01  0.42626777783E+02 -0.39628210218E+02  0.58954516312E+02  0.00000000000E+00 0.  1.
         -4    1    6    6    0  503  0.84070138254E+02  0.22219617566E+02 -0.16530135443E+03  0.18677804295E+03  0.00000000000E+00 0. -1.
<mgrwt>
<rscale>  0 0.16134460E+04</rscale>
<asrwt>0</asrwt>
<pdfrwt beam="1">  1        2 0.24931358E+00 0.16134460E+04</pdfrwt>
<pdfrwt beam="2">  1       -1 0.61784031E-01 0.16134460E+04</pdfrwt>
<totfact> 0.31493601E+01</totfact>
</mgrwt>
</event>
<event>
12    6  0.9491186E-008  0.1929709E+04  0.7818608E-02  0.8640208E-01
          2   -1    0    0  501    0  0.00000000000E+00  0.00000000000E+00  0.41069633678E+03  0.41069633678E+03  0.00000000000E+00 0. -1.
         -1   -1    0    0    0  501 -0.00000000000E+00 -0.00000000000E+00 -0.22667450123E+04  0.22667450123E+04  0.00000000000E+00 0.  1.
         24    2    1    2    0    0 -0.69879208823E+03 -0.12167256732E+03 -0.11349810827E+04  0.13411221273E+04  0.85509683856E+02 0.  0.
        254    2    1    2    0    0  0.69879208823E+03  0.12167256732E+03 -0.72106759288E+03  0.13363192218E+04  0.87332467784E+03 0.  0.
         23    2    4    4    0    0 -0.73834359976E+02  0.30236326319E+03 -0.23528517471E+03  0.40086578328E+03  0.91973948087E+02 0.  0.
         23    2    4    4    0    0  0.77262644820E+03 -0.18069069587E+03 -0.48578241817E+03  0.93545343855E+03  0.97405450820E+02 0.  0.
          2    1    3    3  502    0 -0.59441300290E+03 -0.12608895180E+03 -0.92744521318E+03  0.11087740371E+04  0.00000000000E+00 0. -1.
         -1    1    3    3    0  502 -0.10437908532E+03  0.44163844858E+01 -0.20753586947E+03  0.23234809020E+03  0.00000000000E+00 0.  1.
         11    1    5    5    0    0 -0.60342391008E+02  0.30077384863E+03 -0.23632463188E+03  0.38724080855E+03  0.00000000000E+00 0. -1.
        -11    1    5    5    0    0 -0.13491968968E+02  0.15894145637E+01  0.10394571709E+01  0.13624974734E+02  0.00000000000E+00 0.  1.
          2    1    6    6  503    0  0.42348935715E+03 -0.14128141703E+03 -0.24197449058E+03  0.50779457313E+03  0.00000000000E+00 0. -1.
         -2    1    6    6    0  503  0.34913709106E+03 -0.39409278848E+02 -0.24380792759E+03  0.42765886542E+03  0.00000000000E+00 0.  1.
<mgrwt>
<rscale>  0 0.19297087E+04</rscale>
<asrwt>0</asrwt>
<pdfrwt beam="1">  1        2 0.63184053E-01 0.19297087E+04</pdfrwt>
<pdfrwt beam="2">  1       -1 0.34873000E+00 0.19297087E+04</pdfrwt>
<totfact> 0.13081461E+00</totfact>
</mgrwt>
</event>
<event>
12    6  0.9491186E-008  0.7386601E+04  0.7818608E-02  0.7538828E-01
          2   -1    0    0  501    0  0.00000000000E+00  0.00000000000E+00  0.42851212729E+04  0.42851212729E+04  0.00000000000E+00 0. -1.
         -1   -1    0    0    0  501 -0.00000000000E+00 -0.00000000000E+00 -0.31832165762E+04  0.31832165762E+04  0.00000000000E+00 0.  1.
         24    2    1    2    0    0 -0.11469907446E+04 -0.33902567051E+04  0.12029107878E+04  0.37766745334E+04  0.82751878313E+02 0.  0.
        254    2    1    2    0    0  0.11469907446E+04  0.33902567051E+04 -0.10100609105E+03  0.36916633157E+04  0.89930390364E+03 0.  0.
         23    2    4    4    0    0  0.84547982738E+03  0.13362030264E+04 -0.26988360986E+03  0.16066791286E+04  0.91137221773E+02 0.  0.
         23    2    4    4    0    0  0.30151091726E+03  0.20540536787E+04  0.16887751881E+03  0.20849841870E+04  0.92704345886E+02 0.  0.
          4    1    3    3  502    0 -0.52935916506E+03 -0.14432704013E+04  0.50304535409E+03  0.16174996770E+04  0.00000000000E+00 0. -1.
         -3    1    3    3    0  502 -0.61763157958E+03 -0.19469863038E+04  0.69986543367E+03  0.21591748564E+04  0.00000000000E+00 0.  1.
         11    1    5    5    0    0  0.55757544130E+03  0.84431311334E+03 -0.21216267527E+03  0.10338123654E+04  0.00000000000E+00 0.  1.
        -11    1    5    5    0    0  0.28790438608E+03  0.49188991310E+03 -0.57720934591E+02  0.57286676323E+03  0.00000000000E+00 0. -1.
          1    1    6    6  503    0 -0.22961948698E+01  0.19030778586E+02  0.90863657562E+01  0.21213323340E+02  0.00000000000E+00 0. -1.
         -1    1    6    6    0  503  0.30380711213E+03  0.20350229001E+04  0.15979115306E+03  0.20637708637E+04  0.00000000000E+00 0.  1.
<mgrwt>
<rscale>  0 0.73866011E+04</rscale>
<asrwt>0</asrwt>
<pdfrwt beam="1">  1        2 0.65924942E+00 0.73866011E+04</pdfrwt>
<pdfrwt beam="2">  1       -1 0.48972563E+00 0.73866011E+04</pdfrwt>
<totfact> 0.23529934E-04</totfact>
</mgrwt>
</event>
<event>
12    6  0.9491186E-008  0.2466157E+04  0.7818608E-02  0.8415142E-01
          2   -1    0    0  501    0  0.00000000000E+00  0.00000000000E+00  0.24769358840E+04  0.24769358840E+04  0.00000000000E+00 0. -1.
         -1   -1    0    0    0  501 -0.00000000000E+00 -0.00000000000E+00 -0.61385641582E+03  0.61385641582E+03  0.00000000000E+00 0.  1.
         24    2    1    2    0    0 -0.16030630683E+03 -0.80216601770E+03  0.16836984062E+04  0.18735596694E+04  0.78848459115E+02 0.  0.
        254    2    1    2    0    0  0.16030630683E+03  0.80216601770E+03  0.17938106193E+03  0.12172326305E+04  0.88335116422E+03 0.  0.
         23    2    4    4    0    0 -0.32553017370E+03  0.15370785520E+03 -0.33761939246E+02  0.37384560246E+03  0.94998248413E+02 0.  0.
         23    2    4    4    0    0  0.48583648053E+03  0.64845816250E+03  0.21314300117E+03  0.84338702800E+03  0.96626423472E+02 0.  0.
          4    1    3    3  502    0 -0.11158826424E+03 -0.42629328683E+03  0.83737233825E+03  0.94624010694E+03  0.00000000000E+00 0. -1.
         -3    1    3    3    0  502 -0.48718042596E+02 -0.37587273087E+03  0.84632606800E+03  0.92731956243E+03  0.00000000000E+00 0.  1.
         11    1    5    5    0    0 -0.93241579161E+02 -0.81795959985E+00 -0.11847669576E+02  0.93994831862E+02  0.00000000000E+00 0.  1.
        -11    1    5    5    0    0 -0.23228859454E+03  0.15452581480E+03 -0.21914269670E+02  0.27985077060E+03  0.00000000000E+00 0. -1.
          3    1    6    6  503    0  0.34386261185E+03  0.38323980199E+03  0.14535518358E+03  0.53501623438E+03  0.00000000000E+00 0. -1.
         -3    1    6    6    0  503  0.14197386868E+03  0.26521836051E+03  0.67787817595E+02  0.30837079361E+03  0.00000000000E+00 0.  1.
<mgrwt>
<rscale>  0 0.24661573E+04</rscale>
<asrwt>0</asrwt>
<pdfrwt beam="1">  1        2 0.38106705E+00 0.24661573E+04</pdfrwt>
<pdfrwt beam="2">  1       -1 0.94439450E-01 0.24661573E+04</pdfrwt>
<totfact> 0.39620873E+00</totfact>
</mgrwt>
</event>
<event>
12    6  0.9491186E-008  0.1837324E+04  0.7818608E-02  0.8686699E-01
         -3   -1    0    0    0  501 -0.00000000000E+00  0.00000000000E+00  0.12168450883E+04  0.12168450883E+04  0.00000000000E+00 0.  1.
          4   -1    0    0  501    0  0.00000000000E+00 -0.00000000000E+00 -0.69354738119E+03  0.69354738119E+03  0.00000000000E+00 0. -1.
         24    2    1    2    0    0  0.37034964334E+03 -0.51660731271E+03  0.49632735097E+03  0.81051723171E+03  0.80965237678E+02 0.  0.
        254    2    1    2    0    0 -0.37034964334E+03  0.51660731271E+03  0.26970356152E+02  0.10998752378E+04  0.89719349347E+03 0.  0.
         23    2    4    4    0    0 -0.52976045117E+01  0.63740565559E+03 -0.15762647937E+03  0.66287634722E+03  0.90801488478E+02 0.  0.
         23    2    4    4    0    0 -0.36505203883E+03 -0.12079834288E+03  0.18459683552E+03  0.43699889057E+03  0.95062126949E+02 0.  0.
          2    1    3    3  502    0  0.86412547205E+02 -0.11866926816E+03  0.16003066451E+03  0.21716200659E+03  0.00000000000E+00 0. -1.
         -1    1    3    3    0  502  0.28393709613E+03 -0.39793804454E+03  0.33629668646E+03  0.59335522512E+03  0.00000000000E+00 0.  1.
         11    1    5    5    0    0  0.32905500259E+02  0.50397776359E+03 -0.12591523731E+03  0.52051033143E+03  0.00000000000E+00 0. -1.
        -11    1    5    5    0    0 -0.38203104770E+02  0.13342789201E+03 -0.31711242057E+02  0.14236601579E+03  0.00000000000E+00 0.  1.
          1    1    6    6  503    0 -0.30041450248E+03 -0.12794643277E+03  0.12776081629E+03  0.35063084454E+03  0.00000000000E+00 0. -1.
         -1    1    6    6    0  503 -0.64637536344E+02  0.71480898858E+01  0.56836019235E+02  0.86368046036E+02  0.00000000000E+00 0.  1.
<mgrwt>
<rscale>  0 0.18373238E+04</rscale>
<asrwt>0</asrwt>
<pdfrwt beam="1">  1        4 0.10669960E+00 0.18373238E+04</pdfrwt>
<pdfrwt beam="2">  1       -3 0.18720694E+00 0.18373238E+04</pdfrwt>
<totfact> 0.26932491E-01</totfact>
</mgrwt>
</event>
<event>
12    6  0.9491186E-008  0.2542049E+04  0.7818608E-02  0.8388157E-01
         -1   -1    0    0    0  501 -0.00000000000E+00  0.00000000000E+00  0.18611271451E+04  0.18611271451E+04  0.00000000000E+00 0.  1.
          2   -1    0    0  501    0  0.00000000000E+00 -0.00000000000E+00 -0.86802388701E+03  0.86802388701E+03  0.00000000000E+00 0. -1.
         24    2    1    2    0    0 -0.30084635132E+02 -0.96747028487E+03 -0.15860796339E+03  0.98412283395E+03  0.80233589464E+02 0.  0.
        254    2    1    2    0    0  0.30084635132E+02  0.96747028487E+03  0.11517112215E+04  0.17450281982E+04  0.88418371244E+03 0.  0.
         23    2    4    4    0    0 -0.24051684176E+03 -0.29227804934E+01  0.77253681366E+02  0.26939661564E+03  0.93538823048E+02 0.  0.
         23    2    4    4    0    0  0.27060147689E+03  0.97039306536E+03  0.10744575401E+04  0.14756315825E+04  0.90231376302E+02 0.  0.
          2    1    3    3  502    0 -0.18712965657E+02 -0.75348950267E+03 -0.89740254404E+02  0.75904539982E+03  0.00000000000E+00 0. -1.
         -1    1    3    3    0  502 -0.11371669475E+02 -0.21398078219E+03 -0.68867708984E+02  0.22507743413E+03  0.00000000000E+00 0.  1.
         11    1    5    5    0    0 -0.18127814199E+03 -0.28860016679E+02  0.88460914210E+02  0.20376456677E+03  0.00000000000E+00 0. -1.
        -11    1    5    5    0    0 -0.59238699764E+02  0.25937236186E+02 -0.11207232844E+02  0.65632048868E+02  0.00000000000E+00 0.  1.
          3    1    6    6  503    0  0.31664988936E+02  0.11932776248E+03  0.91556673032E+02  0.15370234481E+03  0.00000000000E+00 0. -1.
         -3    1    6    6    0  503  0.23893648795E+03  0.85106530288E+03  0.98290086708E+03  0.13219292377E+04  0.00000000000E+00 0.  1.
<mgrwt>
<rscale>  0 0.25420486E+04</rscale>
<asrwt>0</asrwt>
<pdfrwt beam="1">  1        2 0.13354214E+00 0.25420486E+04</pdfrwt>
<pdfrwt beam="2">  1       -1 0.28632725E+00 0.25420486E+04</pdfrwt>
<totfact> 0.12658087E+00</totfact>
</mgrwt>
</event>
<event>
12    6  0.9491186E-008  0.2390146E+04  0.7818608E-02  0.8443202E-01
          2   -1    0    0  501    0  0.00000000000E+00  0.00000000000E+00  0.97836770427E+03  0.97836770427E+03  0.00000000000E+00 0. -1.
         -1   -1    0    0    0  501 -0.00000000000E+00 -0.00000000000E+00 -0.14597777864E+04  0.14597777864E+04  0.00000000000E+00 0.  1.
         24    2    1    2    0    0 -0.75361138319E+03 -0.22940042385E+03 -0.88935065210E+03  0.11909445308E+04  0.82762441727E+02 0.  0.
        254    2    1    2    0    0  0.75361138319E+03  0.22940042385E+03  0.40794057002E+03  0.12472009598E+04  0.87666416268E+03 0.  0.
         23    2    4    4    0    0  0.61487776218E+03  0.50775125091E+03  0.45046385589E+03  0.92018588868E+03  0.89097637569E+02 0.  0.
         23    2    4    4    0    0  0.13873362101E+03 -0.27835082707E+03 -0.42523285872E+02  0.32701507113E+03  0.91675658590E+02 0.  0.
          2    1    3    3  502    0 -0.43679963959E+03 -0.10852949310E+03 -0.55735156524E+03  0.71638910049E+03  0.00000000000E+00 0. -1.
         -1    1    3    3    0  502 -0.31681174360E+03 -0.12087093074E+03 -0.33199908686E+03  0.47455543033E+03  0.00000000000E+00 0.  1.
         11    1    5    5    0    0  0.45738093945E+02  0.13492158787E+02  0.37604033646E+02  0.60729522746E+02  0.00000000000E+00 0. -1.
        -11    1    5    5    0    0  0.56913966824E+03  0.49425909213E+03  0.41285982225E+03  0.85945636593E+03  0.00000000000E+00 0.  1.
          3    1    6    6  503    0  0.58974448323E+02 -0.40112492162E+02  0.43054511577E+01  0.71453022974E+02  0.00000000000E+00 0. -1.
         -3    1    6    6    0  503  0.79759172682E+02 -0.23823833490E+03 -0.46828737029E+02  0.25556204815E+03  0.00000000000E+00 0.  1.
<mgrwt>
<rscale>  0 0.23901460E+04</rscale>
<asrwt>0</asrwt>
<pdfrwt beam="1">  1        2 0.15051811E+00 0.23901460E+04</pdfrwt>
<pdfrwt beam="2">  1       -1 0.22458120E+00 0.23901460E+04</pdfrwt>
<totfact> 0.27376105E+00</totfact>
</mgrwt>
</event>
<event>
12    6  0.9491186E-008  0.2440492E+04  0.7818608E-02  0.8424498E-01
         -1   -1    0    0    0  501 -0.00000000000E+00  0.00000000000E+00  0.12518928135E+04  0.12518928135E+04  0.00000000000E+00 0.  1.
          2   -1    0    0  501    0  0.00000000000E+00 -0.00000000000E+00 -0.11893994101E+04  0.11893994101E+04  0.00000000000E+00 0. -1.
         24    2    1    2    0    0  0.50034432521E+03  0.84536464649E+03 -0.35524724786E+03  0.10471349082E+04  0.72835976606E+02 0.  0.
        254    2    1    2    0    0 -0.50034432521E+03 -0.84536464649E+03  0.41774065125E+03  0.13941573155E+04  0.89676169600E+03 0.  0.
         23    2    4    4    0    0  0.94909057326E+01 -0.22902557203E+03 -0.24749709281E+03  0.34947965724E+03  0.91315003918E+02 0.  0.
         23    2    4    4    0    0 -0.50983523094E+03 -0.61633907446E+03  0.66523774406E+03  0.10446776583E+04  0.94891180659E+02 0.  0.
          4    1    3    3  502    0  0.33964947663E+03  0.63344249191E+03 -0.24742461644E+03  0.76015136542E+03  0.00000000000E+00 0. -1.
         -3    1    3    3    0  502  0.16069484857E+03  0.21192215459E+03 -0.10782263142E+03  0.28698354275E+03  0.00000000000E+00 0.  1.
         11    1    5    5    0    0 -0.20659047430E+02 -0.33399512592E+02 -0.84086643823E+02  0.92805642886E+02  0.00000000000E+00 0. -1.
        -11    1    5    5    0    0  0.30149953163E+02 -0.19562605944E+03 -0.16341044899E+03  0.25667401435E+03  0.00000000000E+00 0.  1.
          4    1    6    6  503    0 -0.12070023824E+03 -0.10939987711E+03  0.17615458791E+03  0.23993190589E+03  0.00000000000E+00 0.  1.
         -4    1    6    6    0  503 -0.38913499269E+03 -0.50693919735E+03  0.48908315616E+03  0.80474575239E+03  0.00000000000E+00 0. -1.
<mgrwt>
<rscale>  0 0.24404922E+04</rscale>
<asrwt>0</asrwt>
<pdfrwt beam="1">  1        2 0.18298453E+00 0.24404922E+04</pdfrwt>
<pdfrwt beam="2">  1       -1 0.19259889E+00 0.24404922E+04</pdfrwt>
<totfact> 0.33267351E+00</totfact>
</mgrwt>
</event>
<event>
12    6  0.9491186E-008  0.2744505E+04  0.7818608E-02  0.8320707E-01
         -1   -1    0    0    0  501 -0.00000000000E+00  0.00000000000E+00  0.67089332426E+03  0.67089332426E+03  0.00000000000E+00 0.  1.
          2   -1    0    0  501    0  0.00000000000E+00 -0.00000000000E+00 -0.28068204288E+04  0.28068204288E+04  0.00000000000E+00 0. -1.
         24    2    1    2    0    0  0.26788107815E+03  0.87700696487E+03  0.63557367520E+02  0.92267715584E+03  0.79950650320E+02 0.  0.
        254    2    1    2    0    0 -0.26788107815E+03 -0.87700696487E+03 -0.21994844720E+04  0.25550365972E+04  0.92172587131E+03 0.  0.
         23    2    4    4    0    0 -0.37785104620E+03 -0.75060188170E+03 -0.22095168175E+04  0.23656929047E+04  0.91453564607E+02 0.  0.
         23    2    4    4    0    0  0.10996996805E+03 -0.12640508317E+03  0.10032345474E+02  0.18934369252E+03  0.87628460084E+02 0.  0.
          2    1    3    3  502    0  0.24323269687E+02  0.83450734739E+02  0.29835227545E+02  0.91900965063E+02  0.00000000000E+00 0. -1.
         -1    1    3    3    0  502  0.24355780846E+03  0.79355623013E+03  0.33722139975E+02  0.83077619078E+03  0.00000000000E+00 0.  1.
         11    1    5    5    0    0 -0.64219969292E+02 -0.15339578306E+03 -0.34708412976E+03  0.38486603363E+03  0.00000000000E+00 0. -1.
        -11    1    5    5    0    0 -0.31363107691E+03 -0.59720609864E+03 -0.18624326877E+04  0.19808268710E+04  0.00000000000E+00 0.  1.
          1    1    6    6  503    0 -0.13063468586E+00  0.30578503094E+00  0.21113326810E+02  0.21115945133E+02  0.00000000000E+00 0. -1.
         -1    1    6    6    0  503  0.11010060274E+03 -0.12671086820E+03 -0.11080981335E+02  0.16822774738E+03  0.00000000000E+00 0.  1.
<mgrwt>
<rscale>  0 0.27445051E+04</rscale>
<asrwt>0</asrwt>
<pdfrwt beam="1">  1        2 0.43181854E+00 0.27445051E+04</pdfrwt>
<pdfrwt beam="2">  1       -1 0.10321436E+00 0.27445051E+04</pdfrwt>
<totfact> 0.20158213E+00</totfact>
</mgrwt>
</event>
<event>
12    6  0.9491186E-008  0.2090213E+04  0.7818608E-02  0.8565567E-01
          2   -1    0    0  501    0  0.00000000000E+00  0.00000000000E+00  0.16169706357E+04  0.16169706357E+04  0.00000000000E+00 0. -1.
         -1   -1    0    0    0  501 -0.00000000000E+00 -0.00000000000E+00 -0.67548990567E+03  0.67548990567E+03  0.00000000000E+00 0.  1.
         24    2    1    2    0    0 -0.20781504952E+03 -0.79987392909E+03  0.62582232390E+03  0.10397071796E+04  0.79699691842E+02 0.  0.
        254    2    1    2    0    0  0.20781504952E+03  0.79987392909E+03  0.31565840615E+03  0.12527533618E+04  0.88699794757E+03 0.  0.
         23    2    4    4    0    0  0.12524849817E+03  0.44988908715E+03 -0.27887311184E+03  0.55160058007E+03  0.91682116004E+02 0.  0.
         23    2    4    4    0    0  0.82566551343E+02  0.34998484194E+03  0.59453151799E+03  0.70115278177E+03  0.94025914044E+02 0.  0.
          4    1    3    3  502    0 -0.16077962262E+03 -0.70159774170E+03  0.56404482077E+03  0.91445942394E+03  0.00000000000E+00 0. -1.
         -3    1    3    3    0  502 -0.47035426899E+02 -0.98276187395E+02  0.61777503130E+02  0.12524775561E+03  0.00000000000E+00 0.  1.
         11    1    5    5    0    0  0.55423479943E+02  0.31042553750E+03 -0.22176751029E+03  0.38550824256E+03  0.00000000000E+00 0. -1.
        -11    1    5    5    0    0  0.69825018230E+02  0.13946354965E+03 -0.57105601556E+02  0.16609233751E+03  0.00000000000E+00 0.  1.
          1    1    6    6  503    0  0.77483981344E+02  0.29922324513E+03  0.43477696271E+03  0.53345039610E+03  0.00000000000E+00 0. -1.
         -1    1    6    6    0  503  0.50825699992E+01  0.50761596811E+02  0.15975455528E+03  0.16770238567E+03  0.00000000000E+00 0.  1.
<mgrwt>
<rscale>  0 0.20902128E+04</rscale>
<asrwt>0</asrwt>
<pdfrwt beam="1">  1        2 0.24876471E+00 0.20902128E+04</pdfrwt>
<pdfrwt beam="2">  1       -1 0.10392152E+00 0.20902128E+04</pdfrwt>
<totfact> 0.99956083E+00</totfact>
</mgrwt>
</event>
<event>
12    6  0.9491186E-008  0.2337664E+04  0.7818608E-02  0.8463217E-01
         -1   -1    0    0    0  501 -0.00000000000E+00  0.00000000000E+00  0.18031023014E+04  0.18031023014E+04  0.00000000000E+00 0.  1.
          2   -1    0    0  501    0  0.00000000000E+00 -0.00000000000E+00 -0.75767632507E+03  0.75767632507E+03  0.00000000000E+00 0. -1.
         24    2    1    2    0    0 -0.26901511078E+02 -0.73787040604E+03 -0.28519289201E+03  0.79547647110E+03  0.79192190271E+02 0.  0.
        254    2    1    2    0    0  0.26901511078E+02  0.73787040604E+03  0.13306188684E+04  0.17653021554E+04  0.89474504725E+03 0.  0.
         23    2    4    4    0    0 -0.41126957776E+03  0.41021146097E+03  0.53200969942E+03  0.79298564452E+03  0.91519417747E+02 0.  0.
         23    2    4    4    0    0  0.43817108884E+03  0.32765894507E+03  0.79860916893E+03  0.97231651087E+03  0.90931321474E+02 0.  0.
          4    1    3    3  502    0  0.57700069114E+01 -0.59986383125E+03 -0.21519434502E+03  0.63732135940E+03  0.00000000000E+00 0. -1.
         -3    1    3    3    0  502 -0.32671517990E+02 -0.13800657480E+03 -0.69998546988E+02  0.15815511169E+03  0.00000000000E+00 0.  1.
         11    1    5    5    0    0 -0.28160459818E+03  0.25304681965E+03  0.29176404197E+03  0.47797499813E+03  0.00000000000E+00 0. -1.
        -11    1    5    5    0    0 -0.12966497958E+03  0.15716464133E+03  0.24024565745E+03  0.31501064639E+03  0.00000000000E+00 0.  1.
          3    1    6    6  503    0  0.33869957794E+03  0.28715179727E+03  0.59887561244E+03  0.74553709361E+03  0.00000000000E+00 0. -1.
         -3    1    6    6    0  503  0.99471510898E+02  0.40507147804E+02  0.19973355649E+03  0.22677941726E+03  0.00000000000E+00 0.  1.
<mgrwt>
<rscale>  0 0.23376637E+04</rscale>
<asrwt>0</asrwt>
<pdfrwt beam="1">  1        2 0.11656559E+00 0.23376637E+04</pdfrwt>
<pdfrwt beam="2">  1       -1 0.27740035E+00 0.23376637E+04</pdfrwt>
<totfact> 0.17655976E+00</totfact>
</mgrwt>
</event>
<event>
12    6  0.9491186E-008  0.1448605E+04  0.7818608E-02  0.8919368E-01
          2   -1    0    0  501    0  0.00000000000E+00  0.00000000000E+00  0.25776973560E+04  0.25776973560E+04  0.00000000000E+00 0. -1.
         -1   -1    0    0    0  501 -0.00000000000E+00 -0.00000000000E+00 -0.20352035961E+03  0.20352035961E+03  0.00000000000E+00 0.  1.
         24    2    1    2    0    0 -0.14329469541E+03 -0.18532296694E+03  0.18705383464E+02  0.24785165269E+03  0.78756450920E+02 0.  0.
        254    2    1    2    0    0  0.14329469541E+03  0.18532296694E+03  0.23554716129E+04  0.25333660629E+04  0.90267331721E+03 0.  0.
         23    2    4    4    0    0 -0.22701350500E+03  0.40924660656E+03  0.10071845445E+04  0.11143119944E+04  0.90843810118E+02 0.  0.
         23    2    4    4    0    0  0.37030820042E+03 -0.22392363961E+03  0.13482870684E+04  0.14190540685E+04  0.92555230502E+02 0.  0.
          4    1    3    3  502    0 -0.43712271307E+02 -0.94954302617E+02 -0.23051193036E+02  0.10704410189E+03  0.00000000000E+00 0. -1.
         -3    1    3    3    0  502 -0.99582424106E+02 -0.90368664328E+02  0.41756576500E+02  0.14080755081E+03  0.00000000000E+00 0.  1.
         11    1    5    5    0    0 -0.19126472842E+03  0.35548483634E+03  0.92902153575E+03  0.10129327120E+04  0.00000000000E+00 0. -1.
        -11    1    5    5    0    0 -0.35748776587E+02  0.53761770221E+02  0.78163008706E+02  0.10137928237E+03  0.00000000000E+00 0.  1.
          1    1    6    6  503    0  0.17699634295E+03 -0.15527435639E+03  0.65387203130E+03  0.69497227605E+03  0.00000000000E+00 0. -1.
         -1    1    6    6    0  503  0.19331185747E+03 -0.68649283225E+02  0.69441503714E+03  0.72408179243E+03  0.00000000000E+00 0.  1.
<mgrwt>
<rscale>  0 0.14486047E+04</rscale>
<asrwt>0</asrwt>
<pdfrwt beam="1">  1        2 0.39656880E+00 0.14486047E+04</pdfrwt>
<pdfrwt beam="2">  1       -1 0.31310826E-01 0.14486047E+04</pdfrwt>
<totfact> 0.32908425E+01</totfact>
</mgrwt>
</event>
<event>
12    6  0.9491186E-008  0.1448422E+04  0.7818608E-02  0.8919495E-01
          2   -1    0    0  501    0  0.00000000000E+00  0.00000000000E+00  0.10432061671E+04  0.10432061671E+04  0.00000000000E+00 0. -1.
         -1   -1    0    0    0  501 -0.00000000000E+00 -0.00000000000E+00 -0.50275941003E+03  0.50275941003E+03  0.00000000000E+00 0.  1.
         24    2    1    2    0    0 -0.23789569575E+03 -0.51283032703E+02 -0.22377087467E+03  0.34042912293E+03  0.81205122284E+02 0.  0.
        254    2    1    2    0    0  0.23789569575E+03  0.51283032703E+02  0.76421763178E+03  0.12055364542E+04  0.90003624497E+03 0.  0.
         23    2    4    4    0    0  0.53163721294E+03  0.21707875873E+03  0.46902997405E+03  0.74808228451E+03  0.99381457883E+02 0.  0.
         23    2    4    4    0    0 -0.29374151718E+03 -0.16579572602E+03  0.29518765772E+03  0.45745416972E+03  0.91412594495E+02 0.  0.
          4    1    3    3  502    0 -0.50592229920E+02  0.19745680879E+02 -0.65792098122E+02  0.85311580790E+02  0.00000000000E+00 0. -1.
         -3    1    3    3    0  502 -0.18730346583E+03 -0.71028713582E+02 -0.15797877655E+03  0.25511754214E+03  0.00000000000E+00 0.  1.
         11    1    5    5    0    0  0.53389041621E+03  0.21697140891E+03  0.45606447803E+03  0.73492202098E+03  0.00000000000E+00 0.  1.
        -11    1    5    5    0    0 -0.22532032746E+01  0.10734981684E+00  0.12965496025E+02  0.13160263529E+02  0.00000000000E+00 0. -1.
          4    1    6    6  503    0 -0.14490245337E+03 -0.64041152497E+02  0.19481992691E+03  0.25110315436E+03  0.00000000000E+00 0. -1.
         -4    1    6    6    0  503 -0.14883906382E+03 -0.10175457353E+03  0.10036773081E+03  0.20635101536E+03  0.00000000000E+00 0.  1.
<mgrwt>
<rscale>  0 0.14484222E+04</rscale>
<asrwt>0</asrwt>
<pdfrwt beam="1">  1        2 0.16049326E+00 0.14484222E+04</pdfrwt>
<pdfrwt beam="2">  1       -1 0.77347602E-01 0.14484222E+04</pdfrwt>
<totfact> 0.43836731E+01</totfact>
</mgrwt>
</event>
<event>
12    6  0.9491186E-008  0.1485357E+04  0.7818608E-02  0.8894249E-01
         -1   -1    0    0    0  501 -0.00000000000E+00  0.00000000000E+00  0.86645405154E+03  0.86645405154E+03  0.00000000000E+00 0.  1.
          2   -1    0    0  501    0  0.00000000000E+00 -0.00000000000E+00 -0.63658477231E+03  0.63658477231E+03  0.00000000000E+00 0. -1.
         24    2    1    2    0    0 -0.19371719020E+03  0.26489605798E+03  0.41182648720E+03  0.52931463185E+03  0.53634435014E+02 0.  0.
        254    2    1    2    0    0  0.19371719020E+03 -0.26489605798E+03 -0.18195720797E+03  0.97372419200E+03  0.89851772673E+03 0.  0.
         23    2    4    4    0    0  0.52041811052E+01 -0.44297649679E+03  0.20616672556E+03  0.49730192809E+03  0.92462039495E+02 0.  0.
         23    2    4    4    0    0  0.18851300909E+03  0.17808043881E+03 -0.38812393353E+03  0.47642226391E+03  0.95331990867E+02 0.  0.
          2    1    3    3  502    0 -0.61596311435E+02  0.62410598189E+02  0.79630774668E+02  0.11844935045E+03  0.00000000000E+00 0. -1.
         -1    1    3    3    0  502 -0.13212087876E+03  0.20248545979E+03  0.33219571253E+03  0.41086528139E+03  0.00000000000E+00 0.  1.
         11    1    5    5    0    0 -0.26292073647E+02 -0.36678971110E+03  0.14794753888E+03  0.39637663852E+03  0.00000000000E+00 0. -1.
        -11    1    5    5    0    0  0.31496254752E+02 -0.76186785688E+02  0.58219186682E+02  0.10092528957E+03  0.00000000000E+00 0.  1.
          2    1    6    6  503    0  0.79365897276E+02  0.40179941033E+02 -0.20002094452E+03  0.21891037335E+03  0.00000000000E+00 0.  1.
         -2    1    6    6    0  503  0.10914711182E+03  0.13790049778E+03 -0.18810298901E+03  0.25751189056E+03  0.00000000000E+00 0. -1.
<mgrwt>
<rscale>  0 0.14853571E+04</rscale>
<asrwt>0</asrwt>
<pdfrwt beam="1">  1        2 0.97936119E-01 0.14853571E+04</pdfrwt>
<pdfrwt beam="2">  1       -1 0.13330062E+00 0.14853571E+04</pdfrwt>
<totfact> 0.24265007E+01</totfact>
</mgrwt>
</event>
<event>
12    6  0.9491186E-008  0.1448084E+04  0.7818608E-02  0.8919730E-01
         -1   -1    0    0    0  501 -0.00000000000E+00  0.00000000000E+00  0.25719582188E+03  0.25719582188E+03  0.00000000000E+00 0.  1.
          2   -1    0    0  501    0  0.00000000000E+00 -0.00000000000E+00 -0.20382778642E+04  0.20382778642E+04  0.00000000000E+00 0. -1.
         24    2    1    2    0    0  0.22706330789E+00 -0.43462908206E+03 -0.50883148770E+03  0.67427920182E+03  0.82707125458E+02 0.  0.
        254    2    1    2    0    0 -0.22706330789E+00  0.43462908206E+03 -0.12722505546E+04  0.16211944842E+04  0.90595120812E+03 0.  0.
         23    2    4    4    0    0 -0.23047588848E+03  0.46459420060E+03 -0.12660391050E+04  0.13711743949E+04  0.91089513850E+02 0.  0.
         23    2    4    4    0    0  0.23024882517E+03 -0.29965118537E+02 -0.62114496317E+01  0.25002008933E+03  0.92515042769E+02 0.  0.
          2    1    3    3  502    0  0.21097214425E+02 -0.33387596492E+03 -0.34308267273E+03  0.47919095644E+03  0.00000000000E+00 0. -1.
         -1    1    3    3    0  502 -0.20870151117E+02 -0.10075311715E+03 -0.16574881497E+03  0.19508824539E+03  0.00000000000E+00 0.  1.
         11    1    5    5    0    0 -0.19240979545E+03  0.29535468631E+03 -0.87856095878E+03  0.94663893772E+03  0.00000000000E+00 0. -1.
        -11    1    5    5    0    0 -0.38066093029E+02  0.16923951430E+03 -0.38747814618E+03  0.42453545718E+03  0.00000000000E+00 0.  1.
          2    1    6    6  503    0  0.63079215062E+02  0.28336883994E+02 -0.21236168407E+02  0.72339071158E+02  0.00000000000E+00 0. -1.
         -2    1    6    6    0  503  0.16716961011E+03 -0.58302002531E+02  0.15024718776E+02  0.17768101817E+03  0.00000000000E+00 0.  1.
<mgrwt>
<rscale>  0 0.14480836E+04</rscale>
<asrwt>0</asrwt>
<pdfrwt beam="1">  1        2 0.31358122E+00 0.14480836E+04</pdfrwt>
<pdfrwt beam="2">  1       -1 0.39568587E-01 0.14480836E+04</pdfrwt>
<totfact> 0.43692198E+01</totfact>
</mgrwt>
</event>
<event>
12    6  0.9491186E-008  0.1689423E+04  0.7818608E-02  0.8767420E-01
          2   -1    0    0  501    0  0.00000000000E+00  0.00000000000E+00  0.96407268810E+03  0.96407268810E+03  0.00000000000E+00 0. -1.
         -1   -1    0    0    0  501 -0.00000000000E+00 -0.00000000000E+00 -0.74012839262E+03  0.74012839262E+03  0.00000000000E+00 0.  1.
         24    2    1    2    0    0 -0.26463602064E+03  0.15065681473E+03 -0.44310063130E+03  0.54350711407E+03  0.79574583510E+02 0.  0.
        254    2    1    2    0    0  0.26463602064E+03 -0.15065681473E+03  0.66704492678E+03  0.11606939667E+04  0.89973987944E+03 0.  0.
         23    2    4    4    0    0  0.24306515324E+02 -0.26171106276E+03  0.80123201365E+03  0.84860361314E+03  0.95246341010E+02 0.  0.
         23    2    4    4    0    0  0.24032950532E+03  0.11105424803E+03 -0.13418708687E+03  0.31209035352E+03  0.96451528478E+02 0.  0.
          2    1    3    3  502    0 -0.54301792703E+02  0.16159650066E+02 -0.13866622903E+03  0.14979366493E+03  0.00000000000E+00 0. -1.
         -1    1    3    3    0  502 -0.21033422794E+03  0.13449716466E+03 -0.30443440227E+03  0.39371344914E+03  0.00000000000E+00 0.  1.
         11    1    5    5    0    0  0.20524156659E+01 -0.85582778145E+02  0.14129818798E+03  0.16520836011E+03  0.00000000000E+00 0.  1.
        -11    1    5    5    0    0  0.22254099658E+02 -0.17612828462E+03  0.65993382567E+03  0.68339525303E+03  0.00000000000E+00 0. -1.
          3    1    6    6  503    0  0.10361007254E+03  0.78894837697E+02 -0.10807566466E+03  0.16923295139E+03  0.00000000000E+00 0. -1.
         -3    1    6    6    0  503  0.13671943278E+03  0.32159410335E+02 -0.26111422216E+02  0.14285740213E+03  0.00000000000E+00 0.  1.
<mgrwt>
<rscale>  0 0.16894231E+04</rscale>
<asrwt>0</asrwt>
<pdfrwt beam="1">  1        2 0.14831887E+00 0.16894231E+04</pdfrwt>
<pdfrwt beam="2">  1       -1 0.11386591E+00 0.16894231E+04</pdfrwt>
<totfact> 0.20304717E+01</totfact>
</mgrwt>
</event>
<event>
12    6  0.9491186E-008  0.1220877E+04  0.7818608E-02  0.9094777E-01
         -1   -1    0    0    0  501 -0.00000000000E+00  0.00000000000E+00  0.22480538929E+03  0.22480538929E+03  0.00000000000E+00 0.  1.
          2   -1    0    0  501    0  0.00000000000E+00 -0.00000000000E+00 -0.16575891298E+04  0.16575891298E+04  0.00000000000E+00 0. -1.
         24    2    1    2    0    0  0.35242889229E+02 -0.73305487395E+02  0.59314709930E+02  0.13464790248E+03  0.89420730844E+02 0.  0.
        254    2    1    2    0    0 -0.35242889229E+02  0.73305487395E+02 -0.14920984504E+04  0.17477466166E+04  0.90644618943E+03 0.  0.
         23    2    4    4    0    0 -0.17955127985E+03 -0.31322619190E+03 -0.28666829780E+03  0.47014693216E+03  0.92250287109E+02 0.  0.
         23    2    4    4    0    0  0.14430839062E+03  0.38653167929E+03 -0.12054301526E+04  0.12775996844E+04  0.94696621434E+02 0.  0.
          2    1    3    3  502    0  0.20795587151E+02 -0.31053842124E+02 -0.20915671943E+02  0.42828295418E+02  0.00000000000E+00 0. -1.
         -1    1    3    3    0  502  0.14447302078E+02 -0.42251645270E+02  0.80230381873E+02  0.91819607061E+02  0.00000000000E+00 0.  1.
         11    1    5    5    0    0 -0.83834270252E+02 -0.23234435630E+03 -0.18092344642E+03  0.30617867045E+03  0.00000000000E+00 0.  1.
        -11    1    5    5    0    0 -0.95717009594E+02 -0.80881835593E+02 -0.10574485138E+03  0.16396826171E+03  0.00000000000E+00 0. -1.
          4    1    6    6  503    0  0.28824261123E+02  0.21010131466E+03 -0.57721348690E+03  0.61493805371E+03  0.00000000000E+00 0.  1.
         -4    1    6    6    0  503  0.11548412949E+03  0.17643036463E+03 -0.62821666572E+03  0.66266163071E+03  0.00000000000E+00 0. -1.
<mgrwt>
<rscale>  0 0.12208767E+04</rscale>
<asrwt>0</asrwt>
<pdfrwt beam="1">  1        2 0.25501373E+00 0.12208767E+04</pdfrwt>
<pdfrwt beam="2">  1       -1 0.34585443E-01 0.12208767E+04</pdfrwt>
<totfact> 0.92141284E+01</totfact>
</mgrwt>
</event>
<event>
12    6  0.9491186E-008  0.2553790E+04  0.7818608E-02  0.8384069E-01
         -1   -1    0    0    0  501 -0.00000000000E+00  0.00000000000E+00  0.56802384603E+03  0.56802384603E+03  0.00000000000E+00 0.  1.
          2   -1    0    0  501    0  0.00000000000E+00 -0.00000000000E+00 -0.28704097506E+04  0.28704097506E+04  0.00000000000E+00 0. -1.
         24    2    1    2    0    0 -0.59989545469E+03  0.61580115208E+03 -0.19730097450E+04  0.21537218213E+04  0.81637088518E+02 0.  0.
        254    2    1    2    0    0  0.59989545469E+03 -0.61580115208E+03 -0.32937615954E+03  0.12847117753E+04  0.89605249604E+03 0.  0.
         23    2    4    4    0    0  0.66505972046E+03 -0.61625169025E+02 -0.13984449688E+03  0.68840681951E+03  0.90804034012E+02 0.  0.
         23    2    4    4    0    0 -0.65164265770E+02 -0.55417598305E+03 -0.18953166265E+03  0.59630495580E+03  0.91104047283E+02 0.  0.
          4    1    3    3  502    0 -0.36433964851E+03  0.42695982498E+03 -0.13131110416E+04  0.14280401533E+04  0.00000000000E+00 0. -1.
         -3    1    3    3    0  502 -0.23555580618E+03  0.18884132709E+03 -0.65989870340E+03  0.72568166809E+03  0.00000000000E+00 0.  1.
         11    1    5    5    0    0  0.48144422433E+03 -0.76607073225E+02 -0.75756659905E+02  0.49335206124E+03  0.00000000000E+00 0. -1.
        -11    1    5    5    0    0  0.18361549613E+03  0.14981904200E+02 -0.64087836979E+02  0.19505475827E+03  0.00000000000E+00 0.  1.
          1    1    6    6  503    0 -0.51845847008E+02 -0.39129480464E+03 -0.89627490852E+02  0.40476252681E+03  0.00000000000E+00 0. -1.
         -1    1    6    6    0  503 -0.13318418762E+02 -0.16288117841E+03 -0.99904171802E+02  0.19154242899E+03  0.00000000000E+00 0.  1.
<mgrwt>
<rscale>  0 0.25537903E+04</rscale>
<asrwt>0</asrwt>
<pdfrwt beam="1">  1        2 0.44160150E+00 0.25537903E+04</pdfrwt>
<pdfrwt beam="2">  1       -1 0.87388285E-01 0.25537903E+04</pdfrwt>
<totfact> 0.27259204E+00</totfact>
</mgrwt>
</event>
<event>
12    6  0.9491186E-008  0.1716184E+04  0.7818608E-02  0.8752188E-01
         -1   -1    0    0    0  501 -0.00000000000E+00  0.00000000000E+00  0.34743967424E+03  0.34743967424E+03  0.00000000000E+00 0.  1.
          2   -1    0    0  501    0  0.00000000000E+00 -0.00000000000E+00 -0.21192791689E+04  0.21192791689E+04  0.00000000000E+00 0. -1.
         24    2    1    2    0    0 -0.36442590931E+02  0.73190868709E+02  0.24036147902E+03  0.26610057934E+03  0.79692609653E+02 0.  0.
        254    2    1    2    0    0  0.36442590931E+02 -0.73190868710E+02 -0.20122009736E+04  0.22006182638E+04  0.88717699408E+03 0.  0.
         23    2    4    4    0    0 -0.20196252602E+03 -0.37579620538E+03 -0.66328311335E+03  0.79488073892E+03  0.99394420154E+02 0.  0.
         23    2    4    4    0    0  0.23840511695E+03  0.30260533667E+03 -0.13489178603E+04  0.14057375249E+04  0.90064451381E+02 0.  0.
          2    1    3    3  502    0 -0.46251718689E+01  0.37284973552E+02  0.24224676330E+02  0.44703427284E+02  0.00000000000E+00 0. -1.
         -1    1    3    3    0  502 -0.31817419062E+02  0.35905895157E+02  0.21613680269E+03  0.22139715206E+03  0.00000000000E+00 0.  1.
         11    1    5    5    0    0 -0.28315681444E+02 -0.16636409122E+02 -0.21634984010E+02  0.39327095713E+02  0.00000000000E+00 0.  1.
        -11    1    5    5    0    0 -0.17364684457E+03 -0.35915979625E+03 -0.64164812934E+03  0.75555364321E+03  0.00000000000E+00 0. -1.
          3    1    6    6  503    0  0.13889147984E+03  0.16586643898E+03 -0.91009437738E+03  0.93545405793E+03  0.00000000000E+00 0. -1.
         -3    1    6    6    0  503  0.99513637104E+02  0.13673889769E+03 -0.43882348291E+03  0.47028346693E+03  0.00000000000E+00 0.  1.
<mgrwt>
<rscale>  0 0.17161837E+04</rscale>
<asrwt>0</asrwt>
<pdfrwt beam="1">  1        2 0.32604296E+00 0.17161837E+04</pdfrwt>
<pdfrwt beam="2">  1       -1 0.53452256E-01 0.17161837E+04</pdfrwt>
<totfact> 0.21911605E+01</totfact>
</mgrwt>
</event>
<event>
12    6  0.9491186E-008  0.1027940E+04  0.7818608E-02  0.9278420E-01
         -1   -1    0    0    0  501 -0.00000000000E+00  0.00000000000E+00  0.20565380206E+03  0.20565380206E+03  0.00000000000E+00 0.  1.
          2   -1    0    0  501    0  0.00000000000E+00 -0.00000000000E+00 -0.12845143680E+04  0.12845143680E+04  0.00000000000E+00 0. -1.
         24    2    1    2    0    0 -0.69447003736E+02  0.69542505242E+02 -0.18129757498E+03  0.22097703943E+03  0.79391403169E+02 0.  0.
        254    2    1    2    0    0  0.69447003736E+02 -0.69542505242E+02 -0.89756299096E+03  0.12691911306E+04  0.89194605049E+03 0.  0.
         23    2    4    4    0    0 -0.14262384128E+03 -0.17360581411E+03  0.83411111234E+02  0.25605597425E+03  0.90148264988E+02 0.  0.
         23    2    4    4    0    0  0.21207084502E+03  0.10406330886E+03 -0.98097410219E+03  0.10131351564E+04  0.91265767781E+02 0.  0.
          2    1    3    3  502    0 -0.42317814668E+02  0.80483461710E+02 -0.16248322414E+03  0.18619662503E+03  0.00000000000E+00 0. -1.
         -1    1    3    3    0  502 -0.27129189068E+02 -0.10940956469E+02 -0.18814350846E+02  0.34780414398E+02  0.00000000000E+00 0.  1.
         11    1    5    5    0    0 -0.59463683174E+02 -0.54801224777E+02 -0.13016153269E+02  0.81905580394E+02  0.00000000000E+00 0. -1.
        -11    1    5    5    0    0 -0.83160158106E+02 -0.11880458933E+03  0.96427264503E+02  0.17415039386E+03  0.00000000000E+00 0.  1.
          3    1    6    6  503    0  0.32797396075E+02  0.13867000644E+01 -0.52220961078E+02  0.61681609109E+02  0.00000000000E+00 0. -1.
         -3    1    6    6    0  503  0.17927344894E+03  0.10267660880E+03 -0.92875314111E+03  0.95145354727E+03  0.00000000000E+00 0.  1.
<mgrwt>
<rscale>  0 0.10279402E+04</rscale>
<asrwt>0</asrwt>
<pdfrwt beam="1">  1        2 0.19761760E+00 0.10279402E+04</pdfrwt>
<pdfrwt beam="2">  1       -1 0.31639046E-01 0.10279402E+04</pdfrwt>
<totfact> 0.17792818E+02</totfact>
</mgrwt>
</event>
<event>
12    6  0.9772590E-008  0.1920273E+04  0.7818608E-02  0.8644830E-01
         -1   -1    0    0    0  501 -0.00000000000E+00  0.00000000000E+00  0.91810533874E+03  0.91810533874E+03  0.00000000000E+00 0.  1.
          2   -1    0    0  501    0  0.00000000000E+00 -0.00000000000E+00 -0.10040921193E+04  0.10040921193E+04  0.00000000000E+00 0. -1.
         24    2    1    2    0    0 -0.16369223436E+01  0.18113973781E+03  0.66053484257E+03  0.68960098392E+03  0.80180762345E+02 0.  0.
        254    2    1    2    0    0  0.16369223436E+01 -0.18113973781E+03 -0.74652162318E+03  0.12325964742E+04  0.96394255540E+03 0.  0.
         23    2    4    4    0    0 -0.41127183088E+03 -0.23180978661E+03 -0.15778131590E+03  0.50597846548E+03  0.90768760255E+02 0.  0.
         23    2    4    4    0    0  0.41290875322E+03  0.50670048798E+02 -0.58874030728E+03  0.72661800869E+03  0.91090552740E+02 0.  0.
          2    1    3    3  502    0  0.19202171488E+02  0.62948521100E+01  0.44077024290E+02  0.48488479283E+02  0.00000000000E+00 0. -1.
         -1    1    3    3    0  502 -0.20839093831E+02  0.17484488570E+03  0.61645781828E+03  0.64111250464E+03  0.00000000000E+00 0.  1.
         11    1    5    5    0    0 -0.73298941070E+02 -0.70023105742E+02 -0.63435120037E+02  0.11958254285E+03  0.00000000000E+00 0. -1.
        -11    1    5    5    0    0 -0.33797288981E+03 -0.16178668087E+03 -0.94346195861E+02  0.38639592263E+03  0.00000000000E+00 0.  1.
          4    1    6    6  503    0  0.36219695736E+02  0.22681209771E+02 -0.10135582044E+03  0.10999684529E+03  0.00000000000E+00 0. -1.
         -4    1    6    6    0  503  0.37668905749E+03  0.27988839027E+02 -0.48738448684E+03  0.61662116340E+03  0.00000000000E+00 0.  1.
<mgrwt>
<rscale>  0 0.19202732E+04</rscale>
<asrwt>0</asrwt>
<pdfrwt beam="1">  1        2 0.15447571E+00 0.19202732E+04</pdfrwt>
<pdfrwt beam="2">  1       -1 0.14124698E+00 0.19202732E+04</pdfrwt>
<totfact> 0.10937193E+01</totfact>
</mgrwt>
</event>
<event>
12    6  0.9491186E-008  0.1171917E+04  0.7818608E-02  0.9137799E-01
         -1   -1    0    0    0  501 -0.00000000000E+00  0.00000000000E+00  0.21333715271E+03  0.21333715271E+03  0.00000000000E+00 0.  1.
          2   -1    0    0  501    0  0.00000000000E+00 -0.00000000000E+00 -0.16094125243E+04  0.16094125243E+04  0.00000000000E+00 0. -1.
         24    2    1    2    0    0  0.67104224183E+02 -0.21246447540E+03 -0.18825061331E+03  0.30333444027E+03  0.83242771666E+02 0.  0.
        254    2    1    2    0    0 -0.67104224183E+02  0.21246447540E+03 -0.12078247583E+04  0.15194152368E+04  0.89450426759E+03 0.  0.
         23    2    4    4    0    0  0.20930087094E+03 -0.26411139005E+03 -0.59562393243E+03  0.69093440536E+03  0.95188248677E+02 0.  0.
         23    2    4    4    0    0 -0.27640509513E+03  0.47657586545E+03 -0.61220082589E+03  0.82848083142E+03  0.89812608681E+02 0.  0.
          4    1    3    3  502    0  0.17815016651E+02 -0.80075333228E+02 -0.12270872461E+03  0.14760374285E+03  0.00000000000E+00 0. -1.
         -3    1    3    3    0  502  0.49289207532E+02 -0.13238914217E+03 -0.65541888703E+02  0.15573069742E+03  0.00000000000E+00 0.  1.
         11    1    5    5    0    0 -0.40604288646E+01 -0.11368080899E+02 -0.32953685367E+01  0.12513185034E+02  0.00000000000E+00 0.  1.
        -11    1    5    5    0    0  0.21336129981E+03 -0.25274330915E+03 -0.59232856390E+03  0.67842122032E+03  0.00000000000E+00 0. -1.
          2    1    6    6  503    0 -0.24546964408E+03  0.38149794421E+03 -0.53938251901E+03  0.70479041524E+03  0.00000000000E+00 0. -1.
         -2    1    6    6    0  503 -0.30935451044E+02  0.95077921244E+02 -0.72818306876E+02  0.12369041618E+03  0.00000000000E+00 0.  1.
<mgrwt>
<rscale>  0 0.11719172E+04</rscale>
<asrwt>0</asrwt>
<pdfrwt beam="1">  1        2 0.24760193E+00 0.11719172E+04</pdfrwt>
<pdfrwt beam="2">  1       -1 0.32821100E-01 0.11719172E+04</pdfrwt>
<totfact> 0.10796743E+02</totfact>
</mgrwt>
</event>
<event>
12    6  0.9491186E-008  0.1753361E+04  0.7818608E-02  0.8731503E-01
         -1   -1    0    0    0  501 -0.00000000000E+00  0.00000000000E+00  0.63158498268E+03  0.63158498268E+03  0.00000000000E+00 0.  1.
          2   -1    0    0  501    0  0.00000000000E+00 -0.00000000000E+00 -0.12168882901E+04  0.12168882901E+04  0.00000000000E+00 0. -1.
         24    2    1    2    0    0 -0.29791931987E+03  0.25529216014E+01 -0.81908482950E+03  0.87533323655E+03  0.80906603733E+02 0.  0.
        254    2    1    2    0    0  0.29791931987E+03 -0.25529216014E+01  0.23378152203E+03  0.97314003628E+03  0.89642918940E+03 0.  0.
         23    2    4    4    0    0  0.34826819717E+03  0.32206700887E+03  0.36672269076E+03  0.60647895974E+03  0.91177307081E+02 0.  0.
         23    2    4    4    0    0 -0.50348877292E+02 -0.32461993047E+03 -0.13294116873E+03  0.36666107654E+03  0.94095068968E+02 0.  0.
          2    1    3    3  502    0 -0.28144023808E+03 -0.17287563914E+02 -0.72910163127E+03  0.78172671452E+03  0.00000000000E+00 0. -1.
         -1    1    3    3    0  502 -0.16479081792E+02  0.19840485515E+02 -0.89983198231E+02  0.93606522027E+02  0.00000000000E+00 0.  1.
         11    1    5    5    0    0  0.30175647530E+03  0.22881647559E+03  0.28159051706E+03  0.47191860441E+03  0.00000000000E+00 0.  1.
        -11    1    5    5    0    0  0.46511721867E+02  0.93250533282E+02  0.85132173700E+02  0.13456035533E+03  0.00000000000E+00 0. -1.
          3    1    6    6  503    0  0.23769202143E+02 -0.15197599259E+03 -0.61007529921E+02  0.16547989607E+03  0.00000000000E+00 0. -1.
         -3    1    6    6    0  503 -0.74118079435E+02 -0.17264393788E+03 -0.71933638810E+02  0.20118118048E+03  0.00000000000E+00 0.  1.
<mgrwt>
<rscale>  0 0.17533606E+04</rscale>
<asrwt>0</asrwt>
<pdfrwt beam="1">  1        2 0.18721358E+00 0.17533606E+04</pdfrwt>
<pdfrwt beam="2">  1       -1 0.97166921E-01 0.17533606E+04</pdfrwt>
<totfact> 0.20348710E+01</totfact>
</mgrwt>
</event>
<event>
12    6  0.9491186E-008  0.3358118E+04  0.7818608E-02  0.8148263E-01
         -1   -1    0    0    0  501 -0.00000000000E+00  0.00000000000E+00  0.22003295112E+04  0.22003295112E+04  0.00000000000E+00 0.  1.
          2   -1    0    0  501    0  0.00000000000E+00 -0.00000000000E+00 -0.12812806693E+04  0.12812806693E+04  0.00000000000E+00 0. -1.
         24    2    1    2    0    0  0.12140199778E+04 -0.25065842790E+02  0.14341806402E+04  0.18813131462E+04  0.89399341838E+02 0.  0.
        254    2    1    2    0    0 -0.12140199778E+04  0.25065842790E+02 -0.51513179831E+03  0.16002970343E+04  0.90615507803E+03 0.  0.
         23    2    4    4    0    0 -0.73520699246E+03  0.28771094999E+03 -0.65405959676E+03  0.10292951727E+04  0.91365660461E+02 0.  0.
         23    2    4    4    0    0 -0.47881298533E+03 -0.26264510720E+03  0.13892779845E+03  0.57100186162E+03  0.92183868054E+02 0.  0.
          4    1    3    3  502    0  0.39740472632E+03 -0.34649859547E+02  0.42106491719E+03  0.58002309761E+03  0.00000000000E+00 0. -1.
         -3    1    3    3    0  502  0.81661525147E+03  0.95840167570E+01  0.10131157230E+04  0.13012900486E+04  0.00000000000E+00 0.  1.
         11    1    5    5    0    0 -0.23703870110E+03  0.10728448496E+03 -0.26955863269E+03  0.37464538299E+03  0.00000000000E+00 0.  1.
        -11    1    5    5    0    0 -0.49816829135E+03  0.18042646502E+03 -0.38450096407E+03  0.65464978971E+03  0.00000000000E+00 0. -1.
          1    1    6    6  503    0 -0.25862007878E+02 -0.31915170742E+02  0.30684956434E+02  0.51273659186E+02  0.00000000000E+00 0. -1.
         -1    1    6    6    0  503 -0.45295097745E+03 -0.23072993645E+03  0.10824284202E+03  0.51972820243E+03  0.00000000000E+00 0.  1.
<mgrwt>
<rscale>  0 0.33581183E+04</rscale>
<asrwt>0</asrwt>
<pdfrwt beam="1">  1        2 0.19712010E+00 0.33581183E+04</pdfrwt>
<pdfrwt beam="2">  1       -1 0.33851223E+00 0.33581183E+04</pdfrwt>
<totfact> 0.29697071E-01</totfact>
</mgrwt>
</event>
<event>
12    6  0.9491186E-008  0.2851641E+04  0.7818608E-02  0.8287413E-01
          2   -1    0    0  501    0  0.00000000000E+00  0.00000000000E+00  0.19807682613E+04  0.19807682613E+04  0.00000000000E+00 0. -1.
         -1   -1    0    0    0  501 -0.00000000000E+00 -0.00000000000E+00 -0.10263515593E+04  0.10263515593E+04  0.00000000000E+00 0.  1.
         24    2    1    2    0    0 -0.85333089468E+03 -0.10188676819E+03 -0.55970833990E+03  0.10287476884E+04  0.80584435692E+02 0.  0.
        254    2    1    2    0    0  0.85333089468E+03  0.10188676819E+03  0.15141250419E+04  0.19783721322E+04  0.93958880454E+03 0.  0.
         23    2    4    4    0    0  0.13316994533E+03 -0.43607627750E+02  0.11340026395E+04  0.11460747427E+04  0.88822687150E+02 0.  0.
         23    2    4    4    0    0  0.72016094935E+03  0.14549439593E+03  0.38012240239E+03  0.83229738956E+03  0.91790476965E+02 0.  0.
          2    1    3    3  502    0 -0.28342106637E+03 -0.67547296628E+02 -0.16758857395E+03  0.33611912809E+03  0.00000000000E+00 0. -1.
         -1    1    3    3    0  502 -0.56990982830E+03 -0.34339471557E+02 -0.39211976595E+03  0.69262856030E+03  0.00000000000E+00 0.  1.
         11    1    5    5    0    0  0.10799104822E+03 -0.56057957198E+02  0.10593134156E+04  0.10662783284E+04  0.00000000000E+00 0. -1.
        -11    1    5    5    0    0  0.25178897109E+02  0.12450329448E+02  0.74689223933E+02  0.79796414297E+02  0.00000000000E+00 0.  1.
          1    1    6    6  503    0  0.64855277410E+03  0.14514816984E+03  0.31485064684E+03  0.73540439339E+03  0.00000000000E+00 0. -1.
         -1    1    6    6    0  503  0.71608175248E+02  0.34622609262E+00  0.65271755553E+02  0.96892996175E+02  0.00000000000E+00 0.  1.
<mgrwt>
<rscale>  0 0.28516413E+04</rscale>
<asrwt>0</asrwt>
<pdfrwt beam="1">  1        2 0.30473358E+00 0.28516413E+04</pdfrwt>
<pdfrwt beam="2">  1       -1 0.15790024E+00 0.28516413E+04</pdfrwt>
<totfact> 0.20466449E+00</totfact>
</mgrwt>
</event>
<event>
12    6  0.9491186E-008  0.1927882E+04  0.7818608E-02  0.8641101E-01
          2   -1    0    0  501    0  0.00000000000E+00  0.00000000000E+00  0.14346245482E+04  0.14346245482E+04  0.00000000000E+00 0. -1.
         -1   -1    0    0    0  501 -0.00000000000E+00 -0.00000000000E+00 -0.64768327306E+03  0.64768327306E+03  0.00000000000E+00 0.  1.
         24    2    1    2    0    0  0.38857448084E+03  0.43137913776E+03  0.82006371955E+03  0.10076814193E+04  0.76414991844E+02 0.  0.
        254    2    1    2    0    0 -0.38857448084E+03 -0.43137913776E+03 -0.33122444356E+02  0.10746264020E+04  0.90368507787E+03 0.  0.
         23    2    4    4    0    0 -0.62043232561E+03 -0.26578912454E+03 -0.22770390010E+03  0.71767536181E+03  0.87342598111E+02 0.  0.
         23    2    4    4    0    0  0.23185784476E+03 -0.16559001322E+03  0.19458145575E+03  0.35695104022E+03  0.91509505167E+02 0.  0.
          4    1    3    3  502    0  0.36871260101E+03  0.40136008235E+03  0.73255098408E+03  0.91305522402E+03  0.00000000000E+00 0. -1.
         -3    1    3    3    0  502  0.19861879834E+02  0.30019055415E+02  0.87512735471E+02  0.94626195254E+02  0.00000000000E+00 0.  1.
         11    1    5    5    0    0 -0.58006363700E+03 -0.26999982008E+03 -0.21011538519E+03  0.67344056969E+03  0.00000000000E+00 0.  1.
        -11    1    5    5    0    0 -0.40368688608E+02  0.42106955422E+01 -0.17588514916E+02  0.44234792119E+02  0.00000000000E+00 0. -1.
          1    1    6    6  503    0  0.18613773003E+03 -0.17155906598E+03  0.16531565831E+03  0.30233927060E+03  0.00000000000E+00 0. -1.
         -1    1    6    6    0  503  0.45720114728E+02  0.59690527588E+01  0.29265797433E+02  0.54611769620E+02  0.00000000000E+00 0.  1.
<mgrwt>
<rscale>  0 0.19278821E+04</rscale>
<asrwt>0</asrwt>
<pdfrwt beam="1">  1        2 0.22071147E+00 0.19278821E+04</pdfrwt>
<pdfrwt beam="2">  1       -1 0.99643581E-01 0.19278821E+04</pdfrwt>
<totfact> 0.14148803E+01</totfact>
</mgrwt>
</event>
<event>
12    6  0.9491186E-008  0.1520869E+04  0.7818608E-02  0.8870693E-01
         -1   -1    0    0    0  501 -0.00000000000E+00  0.00000000000E+00  0.38977626982E+03  0.38977626982E+03  0.00000000000E+00 0.  1.
          2   -1    0    0  501    0  0.00000000000E+00 -0.00000000000E+00 -0.14835704776E+04  0.14835704776E+04  0.00000000000E+00 0. -1.
         24    2    1    2    0    0  0.48362319203E+03 -0.83434126583E+02 -0.22934886213E+03  0.54790980927E+03  0.82168200571E+02 0.  0.
        254    2    1    2    0    0 -0.48362319203E+03  0.83434126583E+02 -0.86444534570E+03  0.13254369382E+04  0.87673523716E+03 0.  0.
         23    2    4    4    0    0 -0.10560120738E+03 -0.23242190346E+03 -0.76911498292E+03  0.81553744461E+03  0.91607370929E+02 0.  0.
         23    2    4    4    0    0 -0.37802198466E+03  0.31585603004E+03 -0.95330362783E+02  0.50989949359E+03  0.90796271362E+02 0.  0.
          2    1    3    3  502    0  0.19625259374E+03 -0.30246026937E+02 -0.49123238790E+02  0.20455560438E+03  0.00000000000E+00 0. -1.
         -1    1    3    3    0  502  0.28737059830E+03 -0.53188099646E+02 -0.18022562334E+03  0.34335420489E+03  0.00000000000E+00 0.  1.
         11    1    5    5    0    0  0.14190957520E+02 -0.54596422526E+02 -0.14278031305E+03  0.15351993494E+03  0.00000000000E+00 0. -1.
        -11    1    5    5    0    0 -0.11979216490E+03 -0.17782548093E+03 -0.62633466986E+03  0.66201750967E+03  0.00000000000E+00 0.  1.
          2    1    6    6  503    0 -0.37195011070E+02  0.22011401319E+02  0.16401565077E+02  0.46227502350E+02  0.00000000000E+00 0. -1.
         -2    1    6    6    0  503 -0.34082697359E+03  0.29384462872E+03 -0.11173192786E+03  0.46367199124E+03  0.00000000000E+00 0.  1.
<mgrwt>
<rscale>  0 0.15208689E+04</rscale>
<asrwt>0</asrwt>
<pdfrwt beam="1">  1        2 0.22824161E+00 0.15208689E+04</pdfrwt>
<pdfrwt beam="2">  1       -1 0.59965581E-01 0.15208689E+04</pdfrwt>
<totfact> 0.40196246E+01</totfact>
</mgrwt>
</event>
<event>
12    6  0.9491186E-008  0.1414950E+04  0.7818608E-02  0.8943067E-01
         -1   -1    0    0    0  501 -0.00000000000E+00  0.00000000000E+00  0.56031497011E+03  0.56031497011E+03  0.00000000000E+00 0.  1.
          2   -1    0    0  501    0  0.00000000000E+00 -0.00000000000E+00 -0.89328523213E+03  0.89328523213E+03  0.00000000000E+00 0. -1.
         24    2    1    2    0    0  0.10705494378E+03 -0.18607968371E+03  0.26421875026E+03  0.34992514734E+03  0.80929914571E+02 0.  0.
        254    2    1    2    0    0 -0.10705494378E+03  0.18607968371E+03 -0.59718901228E+03  0.11036750549E+04  0.90298255838E+03 0.  0.
         23    2    4    4    0    0 -0.10667137695E+03 -0.34804950010E+03 -0.32807247580E+03  0.49860133509E+03  0.91948381155E+02 0.  0.
         23    2    4    4    0    0 -0.38356683054E+00  0.53412918381E+03 -0.26911653648E+03  0.60507371981E+03  0.91631676144E+02 0.  0.
          4    1    3    3  502    0  0.43160807527E+02 -0.86074316644E+02  0.59187427017E+02  0.11302563784E+03  0.00000000000E+00 0. -1.
         -3    1    3    3    0  502  0.63894136249E+02 -0.10000536707E+03  0.20503132324E+03  0.23689950950E+03  0.00000000000E+00 0.  1.
         11    1    5    5    0    0 -0.11521580392E+03 -0.34317938588E+03 -0.30443100529E+03  0.47299578153E+03  0.00000000000E+00 0. -1.
        -11    1    5    5    0    0  0.85444269782E+01 -0.48701142148E+01 -0.23641470512E+02  0.25605553554E+02  0.00000000000E+00 0.  1.
          3    1    6    6  503    0  0.44957978098E+02  0.22127437393E+03 -0.11003315452E+03  0.25117894706E+03  0.00000000000E+00 0. -1.
         -3    1    6    6    0  503 -0.45341544928E+02  0.31285480988E+03 -0.15908338196E+03  0.35389477275E+03  0.00000000000E+00 0.  1.
<mgrwt>
<rscale>  0 0.14149503E+04</rscale>
<asrwt>0</asrwt>
<pdfrwt beam="1">  1        2 0.13742850E+00 0.14149503E+04</pdfrwt>
<pdfrwt beam="2">  1       -1 0.86202303E-01 0.14149503E+04</pdfrwt>
<totfact> 0.43675524E+01</totfact>
</mgrwt>
</event>
<event>
12    6  0.9491186E-008  0.2304599E+04  0.7818608E-02  0.8476110E-01
         -1   -1    0    0    0  501 -0.00000000000E+00  0.00000000000E+00  0.60374887235E+03  0.60374887235E+03  0.00000000000E+00 0.  1.
          2   -1    0    0  501    0  0.00000000000E+00 -0.00000000000E+00 -0.21992499141E+04  0.21992499141E+04  0.00000000000E+00 0. -1.
         24    2    1    2    0    0  0.39315259904E+03  0.28864959462E+02  0.40724026349E+03  0.57223638222E+03  0.78788913654E+02 0.  0.
        254    2    1    2    0    0 -0.39315259904E+03 -0.28864959462E+02 -0.20027413052E+04  0.22307624042E+04  0.89995889706E+03 0.  0.
         23    2    4    4    0    0  0.94824850901E+02  0.92553379012E+02 -0.15173278911E+04  0.15257379498E+04  0.89635272736E+02 0.  0.
         23    2    4    4    0    0 -0.48797744994E+03 -0.12141833847E+03 -0.48541341419E+03  0.70502445445E+03  0.92568321451E+02 0.  0.
          4    1    3    3  502    0  0.69113224566E+02 -0.22512552072E+02  0.57363905386E+02  0.92596276663E+02  0.00000000000E+00 0. -1.
         -3    1    3    3    0  502  0.32403937447E+03  0.51377511534E+02  0.34987635810E+03  0.47964010556E+03  0.00000000000E+00 0.  1.
         11    1    5    5    0    0  0.88500728834E+02  0.11013019291E+03 -0.13338768368E+04  0.13413383071E+04  0.00000000000E+00 0. -1.
        -11    1    5    5    0    0  0.63241220671E+01 -0.17576813903E+02 -0.18345105427E+03  0.18439964268E+03  0.00000000000E+00 0.  1.
          3    1    6    6  503    0 -0.23078720622E+03 -0.61528829562E+02 -0.29443544104E+03  0.37913158713E+03  0.00000000000E+00 0. -1.
         -3    1    6    6    0  503 -0.25719024372E+03 -0.59889508912E+02 -0.19097797315E+03  0.32589286732E+03  0.00000000000E+00 0.  1.
<mgrwt>
<rscale>  0 0.23045994E+04</rscale>
<asrwt>0</asrwt>
<pdfrwt beam="1">  1        2 0.33834614E+00 0.23045994E+04</pdfrwt>
<pdfrwt beam="2">  1       -1 0.92884442E-01 0.23045994E+04</pdfrwt>
<totfact> 0.60022968E+00</totfact>
</mgrwt>
</event>
<event>
12    6  0.9491186E-008  0.3691158E+04  0.7818608E-02  0.8069924E-01
         -1   -1    0    0    0  501 -0.00000000000E+00  0.00000000000E+00  0.18814439230E+04  0.18814439230E+04  0.00000000000E+00 0.  1.
          2   -1    0    0  501    0  0.00000000000E+00 -0.00000000000E+00 -0.18103977659E+04  0.18103977659E+04  0.00000000000E+00 0. -1.
         24    2    1    2    0    0  0.14089848588E+04 -0.46954015895E+03 -0.86344107263E+03  0.17198123765E+04  0.80733087291E+02 0.  0.
        254    2    1    2    0    0 -0.14089848588E+04  0.46954015895E+03  0.93448722968E+03  0.19720293123E+04  0.89995940629E+03 0.  0.
         23    2    4    4    0    0 -0.33812505811E+03  0.37575145561E+03 -0.43627668012E+02  0.51583075726E+03  0.93060654472E+02 0.  0.
         23    2    4    4    0    0 -0.10708598007E+04  0.93788703340E+02  0.97811489769E+03  0.14561985551E+04  0.90930990365E+02 0.  0.
          4    1    3    3  502    0  0.73636285431E+03 -0.24028176637E+03 -0.40396301677E+03  0.87358554210E+03  0.00000000000E+00 0. -1.
         -1    1    3    3    0  502  0.67262200451E+03 -0.22925839257E+03 -0.45947805586E+03  0.84622683444E+03  0.00000000000E+00 0.  1.
         11    1    5    5    0    0 -0.41775234644E+02  0.94996658753E+01 -0.45545659771E+01  0.43083151609E+02  0.00000000000E+00 0. -1.
        -11    1    5    5    0    0 -0.29634982346E+03  0.36625178973E+03 -0.39073102035E+02  0.47274760566E+03  0.00000000000E+00 0.  1.
          1    1    6    6  503    0 -0.73397043474E+02  0.29906614375E+02  0.74981896512E+02  0.10910461209E+03  0.00000000000E+00 0. -1.
         -1    1    6    6    0  503 -0.99746275724E+03  0.63882088965E+02  0.90313300118E+03  0.13470939430E+04  0.00000000000E+00 0.  1.
<mgrwt>
<rscale>  0 0.36911580E+04</rscale>
<asrwt>0</asrwt>
<pdfrwt beam="1">  1        2 0.27852273E+00 0.36911580E+04</pdfrwt>
<pdfrwt beam="2">  1       -1 0.28945291E+00 0.36911580E+04</pdfrwt>
<totfact> 0.30298658E-01</totfact>
</mgrwt>
</event>
<event>
12    6  0.9491186E-008  0.1878630E+04  0.7818608E-02  0.8665567E-01
         -1   -1    0    0    0  501 -0.00000000000E+00  0.00000000000E+00  0.32212278623E+03  0.32212278623E+03  0.00000000000E+00 0.  1.
          2   -1    0    0  501    0  0.00000000000E+00 -0.00000000000E+00 -0.27390559880E+04  0.27390559880E+04  0.00000000000E+00 0. -1.
         24    2    1    2    0    0  0.33597289136E+03 -0.32768980319E+03 -0.40313731999E+02  0.47782368774E+03  0.80199056951E+02 0.  0.
        254    2    1    2    0    0 -0.33597289136E+03  0.32768980319E+03 -0.23766194698E+04  0.25833550865E+04  0.89729872836E+03 0.  0.
         23    2    4    4    0    0 -0.16613502979E+03 -0.22278432819E+03 -0.27261071695E+03  0.40015038331E+03  0.92574409300E+02 0.  0.
         23    2    4    4    0    0 -0.16983786157E+03  0.55047413138E+03 -0.21040087528E+04  0.21832047032E+04  0.87540136188E+02 0.  0.
          2    1    3    3  502    0  0.15935821556E+02  0.24911061951E+00  0.65083523585E+01  0.17215432472E+02  0.00000000000E+00 0. -1.
         -1    1    3    3    0  502  0.32003706981E+03 -0.32793891380E+03 -0.46822084357E+02  0.46060825527E+03  0.00000000000E+00 0.  1.
         11    1    5    5    0    0 -0.31619734019E+02 -0.57011964245E+02 -0.17502628528E+02  0.67501952949E+02  0.00000000000E+00 0. -1.
        -11    1    5    5    0    0 -0.13451529577E+03 -0.16577236395E+03 -0.25510808842E+03  0.33264843036E+03  0.00000000000E+00 0.  1.
          4    1    6    6  503    0 -0.14671650727E+03  0.42015057173E+03 -0.17353585408E+04  0.17915137458E+04  0.00000000000E+00 0. -1.
         -4    1    6    6    0  503 -0.23121354300E+02  0.13032355964E+03 -0.36865021205E+03  0.39169095734E+03  0.00000000000E+00 0.  1.
<mgrwt>
<rscale>  0 0.18786297E+04</rscale>
<asrwt>0</asrwt>
<pdfrwt beam="1">  1        2 0.42139323E+00 0.18786297E+04</pdfrwt>
<pdfrwt beam="2">  1       -1 0.49557351E-01 0.18786297E+04</pdfrwt>
<totfact> 0.10992489E+01</totfact>
</mgrwt>
</event>
<event>
12    6  0.1384252E-007  0.1634512E+04  0.7818608E-02  0.8799622E-01
         -1   -1    0    0    0  501 -0.00000000000E+00  0.00000000000E+00  0.47242065949E+03  0.47242065949E+03  0.00000000000E+00 0.  1.
          2   -1    0    0  501    0  0.00000000000E+00 -0.00000000000E+00 -0.14137973702E+04  0.14137973702E+04  0.00000000000E+00 0. -1.
         24    2    1    2    0    0  0.23518844732E+03 -0.19271180041E+02  0.25776411882E+03  0.35822132288E+03  0.78709536163E+02 0.  0.
        254    2    1    2    0    0 -0.23518844732E+03  0.19271180041E+02 -0.11991408296E+04  0.15279967068E+04  0.91714242234E+03 0.  0.
         23    2    4    4    0    0  0.23619918131E+03 -0.22429988821E+03 -0.76536251448E+03  0.83667534995E+03  0.90251701055E+02 0.  0.
         23    2    4    4    0    0 -0.47138762864E+03  0.24357106825E+03 -0.43377831509E+03  0.69132135689E+03  0.90710694702E+02 0.  0.
          4    1    3    3  502    0  0.23796828153E+02 -0.28394448429E+02  0.42478256647E+02  0.56364315124E+02  0.00000000000E+00 0. -1.
         -3    1    3    3    0  502  0.21139161917E+03  0.91232683883E+01  0.21528586217E+03  0.30185700776E+03  0.00000000000E+00 0.  1.
         11    1    5    5    0    0  0.22710139569E+02  0.64562895405E+01 -0.50836386579E+02  0.56051514826E+02  0.00000000000E+00 0. -1.
        -11    1    5    5    0    0  0.21348904174E+03 -0.23075617775E+03 -0.71452612790E+03  0.78062383512E+03  0.00000000000E+00 0.  1.
          4    1    6    6  503    0 -0.16839257073E+02 -0.26154968391E+01 -0.33297034783E+02  0.37404464009E+02  0.00000000000E+00 0. -1.
         -4    1    6    6    0  503 -0.45454837157E+03  0.24618656509E+03 -0.40048128030E+03  0.65391689288E+03  0.00000000000E+00 0.  1.
<mgrwt>
<rscale>  0 0.16345117E+04</rscale>
<asrwt>0</asrwt>
<pdfrwt beam="1">  1        2 0.21750728E+00 0.16345117E+04</pdfrwt>
<pdfrwt beam="2">  1       -1 0.72680102E-01 0.16345117E+04</pdfrwt>
<totfact> 0.29568933E+01</totfact>
</mgrwt>
</event>
<event>
12    6  0.9491186E-008  0.1956936E+04  0.7818608E-02  0.8627023E-01
          2   -1    0    0  501    0  0.00000000000E+00  0.00000000000E+00  0.30115059610E+04  0.30115059610E+04  0.00000000000E+00 0. -1.
         -1   -1    0    0    0  501 -0.00000000000E+00 -0.00000000000E+00 -0.31791396778E+03  0.31791396778E+03  0.00000000000E+00 0.  1.
         24    2    1    2    0    0 -0.76175769626E+03  0.36738450751E+02  0.12380539406E+04  0.14560693383E+04  0.75735436517E+02 0.  0.
        254    2    1    2    0    0  0.76175769626E+03 -0.36738450751E+02  0.14555380525E+04  0.18733505905E+04  0.89957040350E+03 0.  0.
         23    2    4    4    0    0  0.95769555598E+03 -0.14146658080E+02  0.11910766242E+04  0.15311234631E+04  0.91074852327E+02 0.  0.
         23    2    4    4    0    0 -0.19593785972E+03 -0.22591792671E+02  0.26446142834E+03  0.34222712735E+03  0.90980908140E+02 0.  0.
          2    1    3    3  502    0 -0.72788554755E+03  0.30953619918E+02  0.11477718400E+04  0.13594689013E+04  0.00000000000E+00 0. -1.
         -1    1    3    3    0  502 -0.33872148704E+02  0.57848308339E+01  0.90282100634E+02  0.96600436958E+02  0.00000000000E+00 0.  1.
         11    1    5    5    0    0  0.56488505850E+03 -0.52189659766E+02  0.71699351761E+03  0.91427490078E+03  0.00000000000E+00 0. -1.
        -11    1    5    5    0    0  0.39281049747E+03  0.38043001686E+02  0.47408310660E+03  0.61684856234E+03  0.00000000000E+00 0.  1.
          3    1    6    6  503    0 -0.16223146651E+03  0.58233529048E+01  0.15597287628E+03  0.22512329578E+03  0.00000000000E+00 0. -1.
         -3    1    6    6    0  503 -0.33706393207E+02 -0.28415145576E+02  0.10848855205E+03  0.11710383157E+03  0.00000000000E+00 0.  1.
<mgrwt>
<rscale>  0 0.19569362E+04</rscale>
<asrwt>0</asrwt>
<pdfrwt beam="1">  1        2 0.46330859E+00 0.19569362E+04</pdfrwt>
<pdfrwt beam="2">  1       -1 0.48909843E-01 0.19569362E+04</pdfrwt>
<totfact> 0.76275470E+00</totfact>
</mgrwt>
</event>
<event>
12    6  0.9491186E-008  0.2099739E+04  0.7818608E-02  0.8561358E-01
          2   -1    0    0  501    0  0.00000000000E+00  0.00000000000E+00  0.30761463520E+04  0.30761463520E+04  0.00000000000E+00 0. -1.
         -1   -1    0    0    0  501 -0.00000000000E+00 -0.00000000000E+00 -0.35831388394E+03  0.35831388394E+03  0.00000000000E+00 0.  1.
         24    2    1    2    0    0  0.45851485700E+03 -0.49423621031E+03  0.24797650829E+03  0.72280932332E+03  0.80347143983E+02 0.  0.
        254    2    1    2    0    0 -0.45851485700E+03  0.49423621031E+03  0.24698559598E+04  0.27116509126E+04  0.89350820044E+03 0.  0.
         23    2    4    4    0    0  0.25821480606E+03  0.20165438674E+03  0.75048182615E+03  0.82389024484E+03  0.90734703336E+02 0.  0.
         23    2    4    4    0    0 -0.71672966306E+03  0.29258182357E+03  0.17193741336E+04  0.18877606678E+04  0.89929939930E+02 0.  0.
          4    1    3    3  502    0  0.18923044103E+03 -0.23972892675E+03  0.78356676583E+02  0.31530602103E+03  0.00000000000E+00 0. -1.
         -3    1    3    3    0  502  0.26928441597E+03 -0.25450728356E+03  0.16961983171E+03  0.40750330229E+03  0.00000000000E+00 0.  1.
         11    1    5    5    0    0  0.26506237285E+03  0.20175401818E+03  0.73543272904E+03  0.80735620658E+03  0.00000000000E+00 0.  1.
        -11    1    5    5    0    0 -0.68475667857E+01 -0.99631441710E-01  0.15049097111E+02  0.16534038259E+02  0.00000000000E+00 0. -1.
          1    1    6    6  503    0 -0.33631626259E+03  0.89328418224E+02  0.78028284825E+03  0.85435912710E+03  0.00000000000E+00 0. -1.
         -1    1    6    6    0  503 -0.38041340047E+03  0.20325340534E+03  0.93909128536E+03  0.10334015407E+04  0.00000000000E+00 0.  1.
<mgrwt>
<rscale>  0 0.20997390E+04</rscale>
<asrwt>0</asrwt>
<pdfrwt beam="1">  1        2 0.47325327E+00 0.20997390E+04</pdfrwt>
<pdfrwt beam="2">  1       -1 0.55125215E-01 0.20997390E+04</pdfrwt>
<totfact> 0.54486853E+00</totfact>
</mgrwt>
</event>
<event>
12    6  0.9491186E-008  0.1608255E+04  0.7818608E-02  0.8815493E-01
         -1   -1    0    0    0  501 -0.00000000000E+00  0.00000000000E+00  0.98613138481E+03  0.98613138481E+03  0.00000000000E+00 0.  1.
          2   -1    0    0  501    0  0.00000000000E+00 -0.00000000000E+00 -0.65571486466E+03  0.65571486466E+03  0.00000000000E+00 0. -1.
         24    2    1    2    0    0  0.10825908276E+03 -0.93811207772E+02 -0.43225070348E+03  0.46215396027E+03  0.78898926665E+02 0.  0.
        254    2    1    2    0    0 -0.10825908276E+03  0.93811207772E+02  0.76266722364E+03  0.11796922892E+04  0.88853364116E+03 0.  0.
         23    2    4    4    0    0 -0.47578622148E+03  0.17078614036E+03  0.42367118793E+03  0.66577541266E+03  0.90659750301E+02 0.  0.
         23    2    4    4    0    0  0.36752713873E+03 -0.76974932587E+02  0.33899603571E+03  0.51391687654E+03  0.90503623245E+02 0.  0.
          4    1    3    3  502    0  0.10590982533E+03 -0.10101953158E+03 -0.43002833909E+03  0.45425346370E+03  0.00000000000E+00 0. -1.
         -3    1    3    3    0  502  0.23492574271E+01  0.72083238048E+01 -0.22223643878E+01  0.79004965671E+01  0.00000000000E+00 0.  1.
         11    1    5    5    0    0 -0.15400317673E+03  0.44027332867E+02  0.18940702219E+03  0.24805322924E+03  0.00000000000E+00 0. -1.
        -11    1    5    5    0    0 -0.32178304476E+03  0.12675880749E+03  0.23426416574E+03  0.41772218342E+03  0.00000000000E+00 0.  1.
          1    1    6    6  503    0  0.13035451239E+03 -0.43434611490E+02  0.71648211132E+02  0.15495912537E+03  0.00000000000E+00 0. -1.
         -1    1    6    6    0  503  0.23717262633E+03 -0.33540321097E+02  0.26734782458E+03  0.35895775117E+03  0.00000000000E+00 0.  1.
<mgrwt>
<rscale>  0 0.16082550E+04</rscale>
<asrwt>0</asrwt>
<pdfrwt beam="1">  1        2 0.10087921E+00 0.16082550E+04</pdfrwt>
<pdfrwt beam="2">  1       -1 0.15171252E+00 0.16082550E+04</pdfrwt>
<totfact> 0.16473904E+01</totfact>
</mgrwt>
</event>
<event>
12    6  0.9491186E-008  0.1454034E+04  0.7818608E-02  0.8915608E-01
          2   -1    0    0  501    0  0.00000000000E+00  0.00000000000E+00  0.82700897920E+03  0.82700897920E+03  0.00000000000E+00 0. -1.
         -1   -1    0    0    0  501 -0.00000000000E+00 -0.00000000000E+00 -0.63911526559E+03  0.63911526559E+03  0.00000000000E+00 0.  1.
         24    2    1    2    0    0 -0.41905089952E+01 -0.44142585294E+03  0.14073888594E+02  0.44932714562E+03  0.82598216908E+02 0.  0.
        254    2    1    2    0    0  0.41905089952E+01  0.44142585294E+03  0.17381982502E+03  0.10167970992E+04  0.89932678448E+03 0.  0.
         23    2    4    4    0    0 -0.82823875783E+02 -0.20355360970E+03 -0.15265057760E+03  0.28286068260E+03  0.91728406155E+02 0.  0.
         23    2    4    4    0    0  0.87014384778E+02  0.64497946264E+03  0.32647040262E+03  0.73393641657E+03  0.92248194496E+02 0.  0.
          4    1    3    3  502    0  0.19329409850E+02 -0.29625996937E+02  0.10284378903E+02  0.36838759875E+02  0.00000000000E+00 0. -1.
         -3    1    3    3    0  502 -0.23519918845E+02 -0.41179985601E+03  0.37895096904E+01  0.41248838574E+03  0.00000000000E+00 0.  1.
         11    1    5    5    0    0 -0.48447541795E+02 -0.30249974813E+02 -0.15461109556E+02  0.59171540380E+02  0.00000000000E+00 0. -1.
        -11    1    5    5    0    0 -0.34376333988E+02 -0.17330363488E+03 -0.13718946805E+03  0.22368914222E+03  0.00000000000E+00 0.  1.
          3    1    6    6  503    0  0.55412888604E+02  0.16800295341E+03  0.11658051877E+03  0.21186457452E+03  0.00000000000E+00 0. -1.
         -3    1    6    6    0  503  0.31601496175E+02  0.47697650923E+03  0.20988988385E+03  0.52207184205E+03  0.00000000000E+00 0.  1.
<mgrwt>
<rscale>  0 0.14540345E+04</rscale>
<asrwt>0</asrwt>
<pdfrwt beam="1">  1        2 0.12723215E+00 0.14540345E+04</pdfrwt>
<pdfrwt beam="2">  1       -1 0.98325425E-01 0.14540345E+04</pdfrwt>
<totfact> 0.36131911E+01</totfact>
</mgrwt>
</event>
<event>
12    6  0.9491186E-008  0.2261896E+04  0.7818608E-02  0.8493098E-01
         -1   -1    0    0    0  501 -0.00000000000E+00  0.00000000000E+00  0.55545274359E+03  0.55545274359E+03  0.00000000000E+00 0.  1.
          2   -1    0    0  501    0  0.00000000000E+00 -0.00000000000E+00 -0.23027039332E+04  0.23027039332E+04  0.00000000000E+00 0. -1.
         24    2    1    2    0    0  0.12171778573E+03 -0.47719251719E+03 -0.17701075627E+04  0.18389938178E+04  0.78035636398E+02 0.  0.
        254    2    1    2    0    0 -0.12171778573E+03  0.47719251719E+03  0.22856373043E+02  0.10191628590E+04  0.89198800533E+03 0.  0.
         23    2    4    4    0    0 -0.11093754019E+03 -0.19776335829E+03 -0.18539014214E+03  0.30688980907E+03  0.91620774965E+02 0.  0.
         23    2    4    4    0    0 -0.10780245539E+02  0.67495587548E+03  0.20824651518E+03  0.71227304998E+03  0.91019992865E+02 0.  0.
          2    1    3    3  502    0  0.12383785439E+03 -0.47948620484E+03 -0.17531634842E+04  0.18217642650E+04  0.00000000000E+00 0. -1.
         -1    1    3    3    0  502 -0.21200686662E+01  0.22936876537E+01 -0.16944078490E+02  0.17229552811E+02  0.00000000000E+00 0.  1.
         11    1    5    5    0    0 -0.68858022134E+02 -0.51546154398E+02 -0.34712238444E+02  0.92754367786E+02  0.00000000000E+00 0.  1.
        -11    1    5    5    0    0 -0.42079518055E+02 -0.14621720389E+03 -0.15067790369E+03  0.21413544128E+03  0.00000000000E+00 0. -1.
          1    1    6    6  503    0  0.24696680418E+02  0.47815011671E+03  0.11942371578E+03  0.49345666884E+03  0.00000000000E+00 0. -1.
         -1    1    6    6    0  503 -0.35476925957E+02  0.19680575877E+03  0.88822799400E+02  0.21881638114E+03  0.00000000000E+00 0.  1.
<mgrwt>
<rscale>  0 0.22618959E+04</rscale>
<asrwt>0</asrwt>
<pdfrwt beam="1">  1        2 0.35426215E+00 0.22618959E+04</pdfrwt>
<pdfrwt beam="2">  1       -1 0.85454268E-01 0.22618959E+04</pdfrwt>
<totfact> 0.63262673E+00</totfact>
</mgrwt>
</event>
<event>
12    6  0.9491186E-008  0.2110622E+04  0.7818608E-02  0.8556579E-01
         -1   -1    0    0    0  501 -0.00000000000E+00  0.00000000000E+00  0.87990055446E+03  0.87990055446E+03  0.00000000000E+00 0.  1.
          2   -1    0    0  501    0  0.00000000000E+00 -0.00000000000E+00 -0.12656904189E+04  0.12656904189E+04  0.00000000000E+00 0. -1.
         24    2    1    2    0    0  0.62308345962E+03 -0.56195010321E+03 -0.35131622096E+03  0.91360472197E+03  0.85026964895E+02 0.  0.
        254    2    1    2    0    0 -0.62308345962E+03  0.56195010321E+03 -0.34473643521E+02  0.12319862514E+04  0.90143262392E+03 0.  0.
         23    2    4    4    0    0 -0.23980300470E+03 -0.13729379687E+03  0.24464146890E+03  0.38228369545E+03  0.99681030177E+02 0.  0.
         23    2    4    4    0    0 -0.38328045491E+03  0.69924390008E+03 -0.27911511242E+03  0.84970255598E+03  0.90792338539E+02 0.  0.
          2    1    3    3  502    0  0.55244912658E+03 -0.48669326180E+03 -0.27794688478E+03  0.78697194315E+03  0.00000000000E+00 0. -1.
         -1    1    3    3    0  502  0.70634333036E+02 -0.75256841406E+02 -0.73369336175E+02  0.12663277882E+03  0.00000000000E+00 0.  1.
         11    1    5    5    0    0 -0.17475309039E+03 -0.92322080931E+02  0.22750862274E+03  0.30136718907E+03  0.00000000000E+00 0.  1.
        -11    1    5    5    0    0 -0.65049914312E+02 -0.44971715940E+02  0.17132846160E+02  0.80916506376E+02  0.00000000000E+00 0. -1.
          1    1    6    6  503    0 -0.17968216228E+03  0.42054931607E+03 -0.15299901011E+03  0.48224071145E+03  0.00000000000E+00 0. -1.
         -1    1    6    6    0  503 -0.20359829264E+03  0.27869458401E+03 -0.12611610231E+03  0.36746184453E+03  0.00000000000E+00 0.  1.
<mgrwt>
<rscale>  0 0.21106224E+04</rscale>
<asrwt>0</asrwt>
<pdfrwt beam="1">  1        2 0.19472160E+00 0.21106224E+04</pdfrwt>
<pdfrwt beam="2">  1       -1 0.13536932E+00 0.21106224E+04</pdfrwt>
<totfact> 0.83133348E+00</totfact>
</mgrwt>
</event>
<event>
12    6  0.9491186E-008  0.1153417E+04  0.7818608E-02  0.9154637E-01
         -1   -1    0    0    0  501 -0.00000000000E+00  0.00000000000E+00  0.33534209923E+03  0.33534209923E+03  0.00000000000E+00 0.  1.
          2   -1    0    0  501    0  0.00000000000E+00 -0.00000000000E+00 -0.99180194427E+03  0.99180194427E+03  0.00000000000E+00 0. -1.
         24    2    1    2    0    0 -0.13020985131E+02  0.21351852918E+03 -0.86284373548E+02  0.24369557022E+03  0.78630970162E+02 0.  0.
        254    2    1    2    0    0  0.13020985131E+02 -0.21351852918E+03 -0.57017547149E+03  0.10834484733E+04  0.89610312890E+03 0.  0.
         23    2    4    4    0    0 -0.19943428647E+03 -0.50360236861E+03 -0.35651704849E+03  0.65509934910E+03  0.93066487158E+02 0.  0.
         23    2    4    4    0    0  0.21245527160E+03  0.29008383944E+03 -0.21365842300E+03  0.42834912419E+03  0.92450928295E+02 0.  0.
          2    1    3    3  502    0 -0.24181084408E+02  0.92049844554E+02 -0.75040658499E+02  0.12119818131E+03  0.00000000000E+00 0. -1.
         -1    1    3    3    0  502  0.11160099277E+02  0.12146868463E+03 -0.11243715049E+02  0.12249738891E+03  0.00000000000E+00 0.  1.
         11    1    5    5    0    0 -0.64958242443E+02 -0.20687723636E+03 -0.19437887924E+03  0.29120596299E+03  0.00000000000E+00 0. -1.
        -11    1    5    5    0    0 -0.13447604402E+03 -0.29672513225E+03 -0.16213816926E+03  0.36389338611E+03  0.00000000000E+00 0.  1.
          2    1    6    6  503    0  0.28184625828E+02  0.21096789666E+02  0.52953491172E+01  0.35601803178E+02  0.00000000000E+00 0. -1.
         -2    1    6    6    0  503  0.18427064577E+03  0.26898704977E+03 -0.21895377212E+03  0.39274732101E+03  0.00000000000E+00 0.  1.
<mgrwt>
<rscale>  0 0.11534174E+04</rscale>
<asrwt>0</asrwt>
<pdfrwt beam="1">  1        2 0.15258491E+00 0.11534174E+04</pdfrwt>
<pdfrwt beam="2">  1       -1 0.51591093E-01 0.11534174E+04</pdfrwt>
<totfact> 0.10878140E+02</totfact>
</mgrwt>
</event>
<event>
12    6  0.9491186E-008  0.1565058E+04  0.7818608E-02  0.8842307E-01
         -1   -1    0    0    0  501 -0.00000000000E+00  0.00000000000E+00  0.39126895167E+03  0.39126895167E+03  0.00000000000E+00 0.  1.
          2   -1    0    0  501    0  0.00000000000E+00 -0.00000000000E+00 -0.15650394537E+04  0.15650394537E+04  0.00000000000E+00 0. -1.
         24    2    1    2    0    0  0.21422546113E+03  0.35904189344E+03 -0.93870406768E+01  0.42562608037E+03  0.79156896852E+02 0.  0.
        254    2    1    2    0    0 -0.21422546113E+03 -0.35904189344E+03 -0.11643834613E+04  0.15306823250E+04  0.90133007579E+03 0.  0.
         23    2    4    4    0    0  0.22750509803E+03  0.75080003447E+02 -0.71794843315E+03  0.76200093098E+03  0.88316983615E+02 0.  0.
         23    2    4    4    0    0 -0.44173055916E+03 -0.43412189689E+03 -0.44643502816E+03  0.76868139399E+03  0.89326047932E+02 0.  0.
          4    1    3    3  502    0  0.12758853086E+03  0.18255951343E+03 -0.41092439397E+02  0.22648487307E+03  0.00000000000E+00 0. -1.
         -3    1    3    3    0  502  0.86636930269E+02  0.17648238001E+03  0.31705398721E+02  0.19914120731E+03  0.00000000000E+00 0.  1.
         11    1    5    5    0    0  0.11975527633E+03  0.19063794081E+02 -0.24039122431E+03  0.26924467530E+03  0.00000000000E+00 0. -1.
        -11    1    5    5    0    0  0.10774982170E+03  0.56016209366E+02 -0.47755720884E+03  0.49275625567E+03  0.00000000000E+00 0.  1.
          2    1    6    6  503    0 -0.17583877034E+03 -0.19797875299E+03 -0.24069687141E+03  0.35784052830E+03  0.00000000000E+00 0. -1.
         -2    1    6    6    0  503 -0.26589178881E+03 -0.23614314390E+03 -0.20573815675E+03  0.41084086568E+03  0.00000000000E+00 0.  1.
<mgrwt>
<rscale>  0 0.15650576E+04</rscale>
<asrwt>0</asrwt>
<pdfrwt beam="1">  1        2 0.24077530E+00 0.15650576E+04</pdfrwt>
<pdfrwt beam="2">  1       -1 0.60195223E-01 0.15650576E+04</pdfrwt>
<totfact> 0.35765458E+01</totfact>
</mgrwt>
</event>
<event>
12    6  0.9491186E-008  0.1901438E+04  0.7818608E-02  0.8654141E-01
          2   -1    0    0  501    0  0.00000000000E+00  0.00000000000E+00  0.15238131118E+04  0.15238131118E+04  0.00000000000E+00 0. -1.
         -1   -1    0    0    0  501 -0.00000000000E+00 -0.00000000000E+00 -0.59316130417E+03  0.59316130417E+03  0.00000000000E+00 0.  1.
         24    2    1    2    0    0 -0.45815639170E+03 -0.54617162315E+03  0.55900153305E+03  0.91181591770E+03  0.10351247573E+03 0.  0.
        254    2    1    2    0    0  0.45815639170E+03  0.54617162315E+03  0.37165027458E+03  0.12051584983E+04  0.89781532520E+03 0.  0.
         23    2    4    4    0    0  0.56953114840E+03  0.15944101716E+03 -0.67896910238E+02  0.60196986304E+03  0.89277985186E+02 0.  0.
         23    2    4    4    0    0 -0.11137475670E+03  0.38673060599E+03  0.43954718482E+03  0.60318863522E+03  0.93112318943E+02 0.  0.
          2    1    3    3  502    0 -0.29341846438E+03 -0.36143626059E+03  0.42495034140E+03  0.63032797682E+03  0.00000000000E+00 0. -1.
         -1    1    3    3    0  502 -0.16473792732E+03 -0.18473536257E+03  0.13405119165E+03  0.28148794088E+03  0.00000000000E+00 0.  1.
         11    1    5    5    0    0  0.27872650502E+03  0.12343777795E+03 -0.25627108758E+02  0.30591191270E+03  0.00000000000E+00 0.  1.
        -11    1    5    5    0    0  0.29080464338E+03  0.36003239208E+02 -0.42269801480E+02  0.29605795034E+03  0.00000000000E+00 0. -1.
          1    1    6    6  503    0 -0.24238770545E+01  0.17338891504E+03  0.19183263231E+03  0.25859108619E+03  0.00000000000E+00 0. -1.
         -1    1    6    6    0  503 -0.10895087965E+03  0.21334169095E+03  0.24771455251E+03  0.34459754904E+03  0.00000000000E+00 0.  1.
<mgrwt>
<rscale>  0 0.19014384E+04</rscale>
<asrwt>0</asrwt>
<pdfrwt beam="1">  1        2 0.23443278E+00 0.19014384E+04</pdfrwt>
<pdfrwt beam="2">  1       -1 0.91255586E-01 0.19014384E+04</pdfrwt>
<totfact> 0.15382256E+01</totfact>
</mgrwt>
</event>
<event>
12    6  0.9491186E-008  0.2151897E+04  0.7818608E-02  0.8538721E-01
          2   -1    0    0  501    0  0.00000000000E+00  0.00000000000E+00  0.18024356817E+04  0.18024356817E+04  0.00000000000E+00 0. -1.
         -1   -1    0    0    0  501 -0.00000000000E+00 -0.00000000000E+00 -0.64227846051E+03  0.64227846051E+03  0.00000000000E+00 0.  1.
         24    2    1    2    0    0  0.47550070283E+03  0.57397641621E+03 -0.58328351784E+02  0.75148003036E+03  0.75961797245E+02 0.  0.
        254    2    1    2    0    0 -0.47550070283E+03 -0.57397641621E+03  0.12184855729E+04  0.16932341118E+04  0.90927708714E+03 0.  0.
         23    2    4    4    0    0 -0.70485509678E+03 -0.40681808268E+03  0.11029130441E+04  0.13735929774E+04  0.89547891109E+02 0.  0.
         23    2    4    4    0    0  0.22935439395E+03 -0.16715833354E+03  0.11557252885E+03  0.31964113445E+03  0.90929087282E+02 0.  0.
          4    1    3    3  502    0  0.91911987175E+02  0.69423549943E+02 -0.15545648356E+02  0.11622869635E+03  0.00000000000E+00 0. -1.
         -3    1    3    3    0  502  0.38358871565E+03  0.50455286627E+03 -0.42782703428E+02  0.63525133400E+03  0.00000000000E+00 0.  1.
         11    1    5    5    0    0 -0.27031304681E+03 -0.11570248727E+03  0.43955111818E+03  0.52883021314E+03  0.00000000000E+00 0. -1.
        -11    1    5    5    0    0 -0.43454204997E+03 -0.29111559540E+03  0.66336192591E+03  0.84476276423E+03  0.00000000000E+00 0.  1.
          4    1    6    6  503    0  0.19285870481E+03 -0.11297858410E+03  0.54162567187E+02  0.22998309540E+03  0.00000000000E+00 0.  1.
         -4    1    6    6    0  503  0.36495689138E+02 -0.54179749436E+02  0.61409961663E+02  0.89658039049E+02  0.00000000000E+00 0. -1.
<mgrwt>
<rscale>  0 0.21518974E+04</rscale>
<asrwt>0</asrwt>
<pdfrwt beam="1">  1        2 0.27729780E+00 0.21518974E+04</pdfrwt>
<pdfrwt beam="2">  1       -1 0.98812071E-01 0.21518974E+04</pdfrwt>
<totfact> 0.88031696E+00</totfact>
</mgrwt>
</event>
<event>
12    6  0.9491186E-008  0.1105225E+04  0.7818608E-02  0.9200114E-01
         -1   -1    0    0    0  501 -0.00000000000E+00  0.00000000000E+00  0.19860845095E+03  0.19860845095E+03  0.00000000000E+00 0.  1.
          2   -1    0    0  501    0  0.00000000000E+00 -0.00000000000E+00 -0.15376021735E+04  0.15376021735E+04  0.00000000000E+00 0. -1.
         24    2    1    2    0    0 -0.31458167515E+01  0.14145743057E+03 -0.47788128644E+03  0.50480824134E+03  0.80254194703E+02 0.  0.
        254    2    1    2    0    0  0.31458167515E+01 -0.14145743057E+03 -0.86111243612E+03  0.12314023831E+04  0.86880210676E+03 0.  0.
         23    2    4    4    0    0  0.22308826352E+03  0.73880790193E+01  0.75504902837E+02  0.25365940133E+03  0.93910300282E+02 0.  0.
         23    2    4    4    0    0 -0.21994244676E+03 -0.14884550959E+03 -0.93661733895E+03  0.97774298180E+03  0.90551826133E+02 0.  0.
          4    1    3    3  502    0  0.10022648225E+01 -0.96676261810E+01 -0.15090824672E+02  0.17949944848E+02  0.00000000000E+00 0. -1.
         -3    1    3    3    0  502 -0.41480815740E+01  0.15112505675E+03 -0.46279046176E+03  0.48685829649E+03  0.00000000000E+00 0.  1.
         11    1    5    5    0    0  0.13876149193E+03  0.48404818091E+02  0.59405943121E+02  0.15851449188E+03  0.00000000000E+00 0. -1.
        -11    1    5    5    0    0  0.84326771584E+02 -0.41016739072E+02  0.16098959716E+02  0.95144909448E+02  0.00000000000E+00 0.  1.
          1    1    6    6  503    0 -0.64068631781E+02  0.91410401789E+00 -0.19417908042E+03  0.20447772602E+03  0.00000000000E+00 0. -1.
         -1    1    6    6    0  503 -0.15587381498E+03 -0.14975961361E+03 -0.74243825853E+03  0.77326525578E+03  0.00000000000E+00 0.  1.
<mgrwt>
<rscale>  0 0.11052254E+04</rscale>
<asrwt>0</asrwt>
<pdfrwt beam="1">  1        2 0.23655418E+00 0.11052254E+04</pdfrwt>
<pdfrwt beam="2">  1       -1 0.30555146E-01 0.11052254E+04</pdfrwt>
<totfact> 0.13498329E+02</totfact>
</mgrwt>
</event>
<event>
12    6  0.9491186E-008  0.1495771E+04  0.7818608E-02  0.8887270E-01
          2   -1    0    0  501    0  0.00000000000E+00  0.00000000000E+00  0.51705992841E+03  0.51705992841E+03  0.00000000000E+00 0. -1.
         -1   -1    0    0    0  501 -0.00000000000E+00 -0.00000000000E+00 -0.10817562579E+04  0.10817562579E+04  0.00000000000E+00 0.  1.
         24    2    1    2    0    0 -0.26007537174E+03 -0.28841399835E+03  0.72715096154E+02  0.40344474578E+03  0.81598678033E+02 0.  0.
        254    2    1    2    0    0  0.26007537174E+03  0.28841399835E+03 -0.63741142564E+03  0.11953714405E+04  0.93370108808E+03 0.  0.
         23    2    4    4    0    0 -0.84972950867E+02  0.55279093111E+03 -0.36381439026E+03  0.67344716554E+03  0.91498406069E+02 0.  0.
         23    2    4    4    0    0  0.34504832260E+03 -0.26437693275E+03 -0.27359703538E+03  0.52192427500E+03  0.92715174390E+02 0.  0.
          4    1    3    3  502    0 -0.23700760245E+03 -0.24607484009E+03  0.88112723479E+02  0.35283038783E+03  0.00000000000E+00 0. -1.
         -3    1    3    3    0  502 -0.23067769291E+02 -0.42339158265E+02 -0.15397627324E+02  0.50614357942E+02  0.00000000000E+00 0.  1.
         11    1    5    5    0    0 -0.27702951322E+02  0.17095188207E+03 -0.16481048442E+03  0.23907006352E+03  0.00000000000E+00 0.  1.
        -11    1    5    5    0    0 -0.57269999544E+02  0.38183904904E+03 -0.19900390584E+03  0.43437710202E+03  0.00000000000E+00 0. -1.
          4    1    6    6  503    0  0.89513331990E+02 -0.23868311556E+02 -0.71036416548E+02  0.11674118972E+03  0.00000000000E+00 0.  1.
         -4    1    6    6    0  503  0.25553499061E+03 -0.24050862120E+03 -0.20256061883E+03  0.40518308528E+03  0.00000000000E+00 0. -1.
<mgrwt>
<rscale>  0 0.14957711E+04</rscale>
<asrwt>0</asrwt>
<pdfrwt beam="1">  1        2 0.79547681E-01 0.14957711E+04</pdfrwt>
<pdfrwt beam="2">  1       -1 0.16642404E+00 0.14957711E+04</pdfrwt>
<totfact> 0.17107942E+01</totfact>
</mgrwt>
</event>
<event>
12    6  0.9491186E-008  0.1218529E+04  0.7818608E-02  0.9096791E-01
          2   -1    0    0  501    0  0.00000000000E+00  0.00000000000E+00  0.11079132043E+04  0.11079132043E+04  0.00000000000E+00 0. -1.
         -1   -1    0    0    0  501 -0.00000000000E+00 -0.00000000000E+00 -0.33504743839E+03  0.33504743839E+03  0.00000000000E+00 0.  1.
         24    2    1    2    0    0  0.17893075502E+03 -0.97912575394E+02  0.39482287607E+03  0.45036377988E+03  0.73070809778E+02 0.  0.
        254    2    1    2    0    0 -0.17893075502E+03  0.97912575394E+02  0.37804288981E+03  0.99259686279E+03  0.89483463163E+03 0.  0.
         23    2    4    4    0    0  0.11478796936E+03 -0.17983727762E+03 -0.18253098819E+03  0.29535222672E+03  0.91638702778E+02 0.  0.
         23    2    4    4    0    0 -0.29371872439E+03  0.27774985301E+03  0.56057387800E+03  0.69724463606E+03  0.92148466746E+02 0.  0.
          4    1    3    3  502    0  0.13821450902E+03 -0.90421168922E+02  0.24915543300E+03  0.29892752983E+03  0.00000000000E+00 0. -1.
         -3    1    3    3    0  502  0.40716246007E+02 -0.74914064721E+01  0.14566744307E+03  0.15143625005E+03  0.00000000000E+00 0.  1.
         11    1    5    5    0    0  0.21380819039E+02 -0.81176788258E+02 -0.11833491125E+03  0.14508604893E+03  0.00000000000E+00 0. -1.
        -11    1    5    5    0    0  0.93407150323E+02 -0.98660489360E+02 -0.64196076947E+02  0.15026617779E+03  0.00000000000E+00 0.  1.
          3    1    6    6  503    0 -0.28679236305E+02  0.24114142254E+01  0.67676483939E+02  0.73541960757E+02  0.00000000000E+00 0. -1.
         -3    1    6    6    0  503 -0.26503948808E+03  0.27533843879E+03  0.49289739406E+03  0.62370267531E+03  0.00000000000E+00 0.  1.
<mgrwt>
<rscale>  0 0.12185294E+04</rscale>
<asrwt>0</asrwt>
<pdfrwt beam="1">  1        2 0.17044818E+00 0.12185294E+04</pdfrwt>
<pdfrwt beam="2">  1       -1 0.51545760E-01 0.12185294E+04</pdfrwt>
<totfact> 0.91658142E+01</totfact>
</mgrwt>
</event>
<event>
12    6  0.9491186E-008  0.2140366E+04  0.7818608E-02  0.8543668E-01
          2   -1    0    0  501    0  0.00000000000E+00  0.00000000000E+00  0.18636711411E+04  0.18636711411E+04  0.00000000000E+00 0. -1.
         -1   -1    0    0    0  501 -0.00000000000E+00 -0.00000000000E+00 -0.61453506481E+03  0.61453506481E+03  0.00000000000E+00 0.  1.
         24    2    1    2    0    0  0.12524152373E+03 -0.45240630396E+03  0.13758615914E+04  0.14559349955E+04  0.79966801283E+02 0.  0.
        254    2    1    2    0    0 -0.12524152373E+03  0.45240630396E+03 -0.12672551513E+03  0.10222712104E+04  0.89923421213E+03 0.  0.
         23    2    4    4    0    0 -0.39681251591E+03  0.16752602599E+03 -0.34815744167E+03  0.56132323541E+03  0.91351126184E+02 0.  0.
         23    2    4    4    0    0  0.27157099218E+03  0.28488027797E+03  0.22143192654E+03  0.46094797497E+03  0.92376192653E+02 0.  0.
          2    1    3    3  502    0  0.72032269978E+02 -0.35672220051E+03  0.11197426561E+04  0.11773967013E+04  0.00000000000E+00 0. -1.
         -1    1    3    3    0  502  0.53209253751E+02 -0.95684103441E+02  0.25611893527E+03  0.27853829420E+03  0.00000000000E+00 0.  1.
         11    1    5    5    0    0 -0.38931524612E+03  0.17746132548E+03 -0.33780753071E+03  0.54513558928E+03  0.00000000000E+00 0. -1.
        -11    1    5    5    0    0 -0.74972697933E+01 -0.99352994876E+01 -0.10349910960E+02  0.16187646127E+02  0.00000000000E+00 0.  1.
          3    1    6    6  503    0  0.19411681769E+03  0.17381128660E+03  0.18848980674E+03  0.32158997109E+03  0.00000000000E+00 0. -1.
         -3    1    6    6    0  503  0.77454174494E+02  0.11106899136E+03  0.32942119798E+02  0.13935800388E+03  0.00000000000E+00 0.  1.
<mgrwt>
<rscale>  0 0.21403656E+04</rscale>
<asrwt>0</asrwt>
<pdfrwt beam="1">  1        2 0.28671864E+00 0.21403656E+04</pdfrwt>
<pdfrwt beam="2">  1       -1 0.94543857E-01 0.21403656E+04</pdfrwt>
<totfact> 0.90033274E+00</totfact>
</mgrwt>
</event>
<event>
12    6  0.9491186E-008  0.2502622E+04  0.7818608E-02  0.8402052E-01
         -1   -1    0    0    0  501 -0.00000000000E+00  0.00000000000E+00  0.56398691242E+03  0.56398691242E+03  0.00000000000E+00 0.  1.
          2   -1    0    0  501    0  0.00000000000E+00 -0.00000000000E+00 -0.27762697778E+04  0.27762697778E+04  0.00000000000E+00 0. -1.
         24    2    1    2    0    0  0.47313563560E+03  0.81834399692E+03 -0.20534326641E+03  0.97055903366E+03  0.79213343530E+02 0.  0.
        254    2    1    2    0    0 -0.47313563560E+03 -0.81834399692E+03 -0.20069395990E+04  0.23696976566E+04  0.83313636497E+03 0.  0.
         23    2    4    4    0    0  0.49703870254E+02 -0.62000358586E+03 -0.67126003452E+03  0.91892401401E+03  0.83404966142E+02 0.  0.
         23    2    4    4    0    0 -0.52283950585E+03 -0.19834041107E+03 -0.13356795645E+04  0.14507736426E+04  0.89466169615E+02 0.  0.
          4    1    3    3  502    0  0.11628492395E+01  0.37750222665E+00  0.32131671639E+01  0.34379019050E+01  0.00000000000E+00 0. -1.
         -3    1    3    3    0  502  0.47197278636E+03  0.81796649470E+03 -0.20855643357E+03  0.96712113176E+03  0.00000000000E+00 0.  1.
         11    1    5    5    0    0 -0.13443638334E+02 -0.98699314265E+02 -0.14115064382E+03  0.17275934215E+03  0.00000000000E+00 0.  1.
        -11    1    5    5    0    0  0.63147508588E+02 -0.52130427159E+03 -0.53010939070E+03  0.74616467186E+03  0.00000000000E+00 0. -1.
          3    1    6    6  503    0 -0.36067472271E+03 -0.14986384056E+03 -0.10265777976E+04  0.10983657864E+04  0.00000000000E+00 0. -1.
         -3    1    6    6    0  503 -0.16216478314E+03 -0.48476570505E+02 -0.30910176688E+03  0.35240785614E+03  0.00000000000E+00 0.  1.
<mgrwt>
<rscale>  0 0.25026225E+04</rscale>
<asrwt>0</asrwt>
<pdfrwt beam="1">  1        2 0.42711843E+00 0.25026225E+04</pdfrwt>
<pdfrwt beam="2">  1       -1 0.86767218E-01 0.25026225E+04</pdfrwt>
<totfact> 0.31725939E+00</totfact>
</mgrwt>
</event>
<event>
12    6  0.9491186E-008  0.2149638E+04  0.7818608E-02  0.8539687E-01
          2   -1    0    0  501    0  0.00000000000E+00  0.00000000000E+00  0.21999775748E+04  0.21999775748E+04  0.00000000000E+00 0. -1.
         -1   -1    0    0    0  501 -0.00000000000E+00 -0.00000000000E+00 -0.52511265796E+03  0.52511265796E+03  0.00000000000E+00 0.  1.
         24    2    1    2    0    0  0.87442169558E+03  0.11260896680E+03  0.64269891314E+03  0.10939976731E+04  0.80466978467E+02 0.  0.
        254    2    1    2    0    0 -0.87442169558E+03 -0.11260896680E+03  0.10321660037E+04  0.16310925597E+04  0.90432416646E+03 0.  0.
         23    2    4    4    0    0 -0.80556124362E+03  0.12605522961E+02  0.11623527659E+04  0.14167321684E+04  0.83536029781E+02 0.  0.
         23    2    4    4    0    0 -0.68860451961E+02 -0.12521448976E+03 -0.13018676217E+03  0.21436039129E+03  0.92635598028E+02 0.  0.
          2    1    3    3  502    0  0.83147569622E+02 -0.12759212047E+02  0.57958986198E+02  0.10215458828E+03  0.00000000000E+00 0. -1.
         -1    1    3    3    0  502  0.79127412596E+03  0.12536817884E+03  0.58473992695E+03  0.99184308479E+03  0.00000000000E+00 0.  1.
         11    1    5    5    0    0 -0.18641972106E+03  0.29399077488E+02  0.31381855725E+03  0.36619490034E+03  0.00000000000E+00 0. -1.
        -11    1    5    5    0    0 -0.61914152255E+03 -0.16793554527E+02  0.84853420864E+03  0.10505372681E+04  0.00000000000E+00 0.  1.
          3    1    6    6  503    0 -0.26114139919E+02 -0.76700300058E+02 -0.15195327475E+02  0.82436535042E+02  0.00000000000E+00 0. -1.
         -3    1    6    6    0  503 -0.42746312042E+02 -0.48514189700E+02 -0.11499143469E+03  0.13192385625E+03  0.00000000000E+00 0.  1.
<mgrwt>
<rscale>  0 0.21496382E+04</rscale>
<asrwt>0</asrwt>
<pdfrwt beam="1">  1        2 0.33845808E+00 0.21496382E+04</pdfrwt>
<pdfrwt beam="2">  1       -1 0.80786564E-01 0.21496382E+04</pdfrwt>
<totfact> 0.82403010E+00</totfact>
</mgrwt>
</event>
<event>
12    6  0.9491186E-008  0.2922638E+04  0.7818608E-02  0.8266174E-01
         -1   -1    0    0    0  501 -0.00000000000E+00  0.00000000000E+00  0.59962657263E+03  0.59962657263E+03  0.00000000000E+00 0.  1.
          2   -1    0    0  501    0  0.00000000000E+00 -0.00000000000E+00 -0.35613045045E+04  0.35613045045E+04  0.00000000000E+00 0. -1.
         24    2    1    2    0    0 -0.29422575604E+03  0.78313121271E+03  0.97451064049E+02  0.84525903259E+03  0.71434098654E+02 0.  0.
        254    2    1    2    0    0  0.29422575604E+03 -0.78313121271E+03 -0.30591289959E+04  0.33156720446E+04  0.96723709681E+03 0.  0.
         23    2    4    4    0    0  0.15943778727E+03 -0.99475300250E+03 -0.24510887855E+04  0.26516565271E+04  0.92152914550E+02 0.  0.
         23    2    4    4    0    0  0.13478796877E+03  0.21162178979E+03 -0.60804021046E+03  0.66401551741E+03  0.90841242786E+02 0.  0.
          2    1    3    3  502    0 -0.10001075342E+03  0.31763053227E+03  0.68926728302E+02  0.34006205273E+03  0.00000000000E+00 0. -1.
         -1    1    3    3    0  502 -0.19421500262E+03  0.46550068044E+03  0.28524335748E+02  0.50519697986E+03  0.00000000000E+00 0.  1.
         11    1    5    5    0    0  0.14015201238E+03 -0.96009038802E+03 -0.23206446364E+04  0.25153146261E+04  0.00000000000E+00 0.  1.
        -11    1    5    5    0    0  0.19285774889E+02 -0.34662614480E+02 -0.13044414911E+03  0.13634190109E+03  0.00000000000E+00 0. -1.
          4    1    6    6  503    0  0.14025162638E+03  0.19597061420E+03 -0.50386142934E+03  0.55852604264E+03  0.00000000000E+00 0.  1.
         -4    1    6    6    0  503 -0.54636576125E+01  0.15651175587E+02 -0.10417878112E+03  0.10548947477E+03  0.00000000000E+00 0. -1.
<mgrwt>
<rscale>  0 0.29226377E+04</rscale>
<asrwt>0</asrwt>
<pdfrwt beam="1">  1        2 0.54789299E+00 0.29226377E+04</pdfrwt>
<pdfrwt beam="2">  1       -1 0.92250244E-01 0.29226377E+04</pdfrwt>
<totfact> 0.82317645E-01</totfact>
</mgrwt>
</event>
<event>
12    6  0.9491186E-008  0.3631914E+04  0.7818608E-02  0.8083220E-01
         -1   -1    0    0    0  501 -0.00000000000E+00  0.00000000000E+00  0.16698231321E+04  0.16698231321E+04  0.00000000000E+00 0.  1.
          2   -1    0    0  501    0  0.00000000000E+00 -0.00000000000E+00 -0.19748799445E+04  0.19748799445E+04  0.00000000000E+00 0. -1.
         24    2    1    2    0    0 -0.41856906407E+02 -0.11682559052E+04 -0.13843492366E+04  0.18134805746E+04  0.75598446394E+02 0.  0.
        254    2    1    2    0    0  0.41856906407E+02  0.11682559052E+04  0.10792924242E+04  0.18312225020E+04  0.90660347132E+03 0.  0.
         23    2    4    4    0    0  0.17082247600E+03  0.45405920502E+03  0.97435696667E+03  0.10923353168E+04  0.92059034452E+02 0.  0.
         23    2    4    4    0    0 -0.12896556959E+03  0.71419670015E+03  0.10493545751E+03  0.73888718518E+03  0.90740164911E+02 0.  0.
          4    1    3    3  502    0 -0.40446547494E+02 -0.10715279613E+04 -0.12996479379E+04  0.16849014385E+04  0.00000000000E+00 0. -1.
         -3    1    3    3    0  502 -0.14103589132E+01 -0.96727943906E+02 -0.84701298663E+02  0.12857913610E+03  0.00000000000E+00 0.  1.
         11    1    5    5    0    0  0.13892049918E+03  0.42261718880E+03  0.91991273579E+03  0.10218334673E+04  0.00000000000E+00 0. -1.
        -11    1    5    5    0    0  0.31901976818E+02  0.31442016226E+02  0.54444230881E+02  0.70501849518E+02  0.00000000000E+00 0.  1.
          3    1    6    6  503    0 -0.10355391552E+03  0.65688625040E+03  0.11653324018E+03  0.67513180599E+03  0.00000000000E+00 0. -1.
         -3    1    6    6    0  503 -0.25411654068E+02  0.57310449748E+02 -0.11597782667E+02  0.63755379190E+02  0.00000000000E+00 0.  1.
<mgrwt>
<rscale>  0 0.36319142E+04</rscale>
<asrwt>0</asrwt>
<pdfrwt beam="1">  1        2 0.30382768E+00 0.36319142E+04</pdfrwt>
<pdfrwt beam="2">  1       -1 0.25689587E+00 0.36319142E+04</pdfrwt>
<totfact> 0.40107126E-01</totfact>
</mgrwt>
</event>
<event>
12    6  0.9491186E-008  0.1888893E+04  0.7818608E-02  0.8660405E-01
         -1   -1    0    0    0  501 -0.00000000000E+00  0.00000000000E+00  0.50134716373E+03  0.50134716373E+03  0.00000000000E+00 0.  1.
          2   -1    0    0  501    0  0.00000000000E+00 -0.00000000000E+00 -0.17791643002E+04  0.17791643002E+04  0.00000000000E+00 0. -1.
         24    2    1    2    0    0  0.54530584489E+03  0.49167756615E+03 -0.28832144907E+03  0.79291761159E+03  0.80521967496E+02 0.  0.
        254    2    1    2    0    0 -0.54530584489E+03 -0.49167756615E+03 -0.98949568739E+03  0.14875938523E+04  0.83350372559E+03 0.  0.
         23    2    4    4    0    0 -0.74550190625E+03 -0.29630583807E+03 -0.63902071404E+03  0.10299002031E+04  0.93684115337E+02 0.  0.
         23    2    4    4    0    0  0.20019606135E+03 -0.19537172807E+03 -0.35047497335E+03  0.45769364922E+03  0.91663485023E+02 0.  0.
          2    1    3    3  502    0  0.29198583279E+02  0.55216539952E+02 -0.18606859654E+02  0.65173911775E+02  0.00000000000E+00 0. -1.
         -1    1    3    3    0  502  0.51610726162E+03  0.43646102619E+03 -0.26971458942E+03  0.72774369982E+03  0.00000000000E+00 0.  1.
         11    1    5    5    0    0 -0.29468924636E+03 -0.13392387574E+03 -0.20324612824E+03  0.38221243446E+03  0.00000000000E+00 0. -1.
        -11    1    5    5    0    0 -0.45081265989E+03 -0.16238196234E+03 -0.43577458580E+03  0.64768776863E+03  0.00000000000E+00 0.  1.
          4    1    6    6  503    0  0.34844380715E+02 -0.55544570233E+01 -0.15170175793E+02  0.38407253141E+02  0.00000000000E+00 0.  1.
         -4    1    6    6    0  503  0.16535168064E+03 -0.18981727105E+03 -0.33530479755E+03  0.41928639608E+03  0.00000000000E+00 0. -1.
<mgrwt>
<rscale>  0 0.18888928E+04</rscale>
<asrwt>0</asrwt>
<pdfrwt beam="1">  1        2 0.27371759E+00 0.18888928E+04</pdfrwt>
<pdfrwt beam="2">  1       -1 0.77130332E-01 0.18888928E+04</pdfrwt>
<totfact> 0.15946882E+01</totfact>
</mgrwt>
</event>
<event>
12    6  0.9491186E-008  0.3984835E+04  0.7818608E-02  0.8007613E-01
         -1   -1    0    0    0  501 -0.00000000000E+00  0.00000000000E+00  0.19693378850E+04  0.19693378850E+04  0.00000000000E+00 0.  1.
          2   -1    0    0  501    0  0.00000000000E+00 -0.00000000000E+00 -0.20157671732E+04  0.20157671732E+04  0.00000000000E+00 0. -1.
         24    2    1    2    0    0 -0.58694287913E+03 -0.16933870166E+04 -0.67334749168E+03  0.19161935066E+04  0.79618961811E+02 0.  0.
        254    2    1    2    0    0  0.58694287913E+03  0.16933870166E+04  0.62691820347E+03  0.20689115516E+04  0.82177067559E+03 0.  0.
         23    2    4    4    0    0 -0.18153651174E+03  0.45142113488E+03  0.26513657669E+03  0.56148993986E+03  0.90757931604E+02 0.  0.
         23    2    4    4    0    0  0.76847939087E+03  0.12419658817E+04  0.36178162678E+03  0.15074216117E+04  0.91619564541E+02 0.  0.
          4    1    3    3  502    0 -0.12775881149E+03 -0.43967472384E+03 -0.14460731560E+03  0.48015357170E+03  0.00000000000E+00 0. -1.
         -1    1    3    3    0  502 -0.45918406764E+03 -0.12537122927E+04 -0.52874017608E+03  0.14360399349E+04  0.00000000000E+00 0.  1.
         11    1    5    5    0    0 -0.14299814949E+03  0.29234490519E+03  0.21597566066E+03  0.39058865875E+03  0.00000000000E+00 0.  1.
        -11    1    5    5    0    0 -0.38538362252E+02  0.15907622970E+03  0.49160916026E+02  0.17090128111E+03  0.00000000000E+00 0. -1.
          4    1    6    6  503    0  0.30630356965E+03  0.48140645338E+03  0.18694169967E+03  0.60043421722E+03  0.00000000000E+00 0. -1.
         -4    1    6    6    0  503  0.46217582122E+03  0.76055942829E+03  0.17483992711E+03  0.90698739451E+03  0.00000000000E+00 0.  1.
<mgrwt>
<rscale>  0 0.39848346E+04</rscale>
<asrwt>0</asrwt>
<pdfrwt beam="1">  1        2 0.31011803E+00 0.39848346E+04</pdfrwt>
<pdfrwt beam="2">  1       -1 0.30297506E+00 0.39848346E+04</pdfrwt>
<totfact> 0.18585286E-01</totfact>
</mgrwt>
</event>
<event>
12    6  0.9491186E-008  0.2631872E+04  0.7818608E-02  0.8357455E-01
          2   -1    0    0  501    0  0.00000000000E+00  0.00000000000E+00  0.90922985850E+03  0.90922985850E+03  0.00000000000E+00 0. -1.
         -1   -1    0    0    0  501 -0.00000000000E+00 -0.00000000000E+00 -0.19045655167E+04  0.19045655167E+04  0.00000000000E+00 0.  1.
         24    2    1    2    0    0  0.85027338287E+03  0.72975203998E+03 -0.76183011644E+03  0.13572680747E+04  0.79300912847E+02 0.  0.
        254    2    1    2    0    0 -0.85027338287E+03 -0.72975203998E+03 -0.23350554177E+03  0.14565273005E+04  0.90080190591E+03 0.  0.
         23    2    4    4    0    0 -0.28098981441E+02  0.13582053934E+03 -0.19769659380E+03  0.25874068452E+03  0.92876406900E+02 0.  0.
         23    2    4    4    0    0 -0.82217440143E+03 -0.86557257932E+03 -0.35808947965E+02  0.11977866160E+04  0.90685502203E+02 0.  0.
          2    1    3    3  502    0  0.64825241239E+03  0.59176755330E+03 -0.61801069264E+03  0.10734790373E+04  0.00000000000E+00 0. -1.
         -1    1    3    3    0  502  0.20202097048E+03  0.13798448668E+03 -0.14381942380E+03  0.28378903738E+03  0.00000000000E+00 0.  1.
         11    1    5    5    0    0 -0.59626145589E+01  0.13855283263E+03 -0.14080092950E+03  0.19762930438E+03  0.00000000000E+00 0.  1.
        -11    1    5    5    0    0 -0.22136366882E+02 -0.27322932921E+01 -0.56895664306E+02  0.61111380137E+02  0.00000000000E+00 0. -1.
          4    1    6    6  503    0 -0.31731314949E+03 -0.37939563048E+03  0.17127953551E+02  0.49489599520E+03  0.00000000000E+00 0. -1.
         -4    1    6    6    0  503 -0.50486125194E+03 -0.48617694884E+03 -0.52936901516E+02  0.70289062082E+03  0.00000000000E+00 0.  1.
<mgrwt>
<rscale>  0 0.26318722E+04</rscale>
<asrwt>0</asrwt>
<pdfrwt beam="1">  1        2 0.13988152E+00 0.26318722E+04</pdfrwt>
<pdfrwt beam="2">  1       -1 0.29301007E+00 0.26318722E+04</pdfrwt>
<totfact> 0.10657272E+00</totfact>
</mgrwt>
</event>
<event>
12    6  0.9491186E-008  0.2620214E+04  0.7818608E-02  0.8361367E-01
          2   -1    0    0  501    0  0.00000000000E+00  0.00000000000E+00  0.16654941015E+04  0.16654941015E+04  0.00000000000E+00 0. -1.
         -1   -1    0    0    0  501 -0.00000000000E+00 -0.00000000000E+00 -0.10305530457E+04  0.10305530457E+04  0.00000000000E+00 0.  1.
         24    2    1    2    0    0 -0.94831903694E+03 -0.64760458783E+03  0.20467021037E+03  0.11692174577E+04  0.80491429959E+02 0.  0.
        254    2    1    2    0    0  0.94831903694E+03  0.64760458783E+03  0.43027084546E+03  0.15268296895E+04  0.90960167236E+03 0.  0.
         23    2    4    4    0    0  0.19880284435E+03 -0.20617871945E+03  0.20831888847E+03  0.36566443010E+03  0.91002642097E+02 0.  0.
         23    2    4    4    0    0  0.74951619259E+03  0.85378330729E+03  0.22195195700E+03  0.11611652594E+04  0.91222967192E+02 0.  0.
          2    1    3    3  502    0 -0.82034693736E+03 -0.53719735431E+03  0.19596931716E+03  0.99997703393E+03  0.00000000000E+00 0. -1.
         -1    1    3    3    0  502 -0.12797209958E+03 -0.11040723353E+03  0.87008932124E+01  0.16924042374E+03  0.00000000000E+00 0.  1.
         11    1    5    5    0    0  0.33734292259E+02 -0.90725138347E+02  0.47045257454E+02  0.10762113850E+03  0.00000000000E+00 0. -1.
        -11    1    5    5    0    0  0.16506855209E+03 -0.11545358110E+03  0.16127363102E+03  0.25804329160E+03  0.00000000000E+00 0.  1.
          1    1    6    6  503    0  0.11726938573E+03  0.92504377189E+02  0.43974347359E+02  0.15570135470E+03  0.00000000000E+00 0. -1.
         -1    1    6    6    0  503  0.63224680686E+03  0.76127893010E+03  0.17797760964E+03  0.10054639047E+04  0.00000000000E+00 0.  1.
<mgrwt>
<rscale>  0 0.26202137E+04</rscale>
<asrwt>0</asrwt>
<pdfrwt beam="1">  1        2 0.25622986E+00 0.26202137E+04</pdfrwt>
<pdfrwt beam="2">  1       -1 0.15854662E+00 0.26202137E+04</pdfrwt>
<totfact> 0.30895828E+00</totfact>
</mgrwt>
</event>
<event>
12    6  0.9491186E-008  0.2142510E+04  0.7818608E-02  0.8542745E-01
          2   -1    0    0  501    0  0.00000000000E+00  0.00000000000E+00  0.10564014332E+04  0.10564014332E+04  0.00000000000E+00 0. -1.
         -1   -1    0    0    0  501 -0.00000000000E+00 -0.00000000000E+00 -0.10863178151E+04  0.10863178151E+04  0.00000000000E+00 0.  1.
         24    2    1    2    0    0  0.32842068936E+03 -0.28151956148E+03  0.74558163559E+03  0.86560880403E+03  0.79203621040E+02 0.  0.
        254    2    1    2    0    0 -0.32842068936E+03  0.28151956148E+03 -0.77549801744E+03  0.12771104443E+04  0.91787825942E+03 0.  0.
         23    2    4    4    0    0  0.21243107073E+03 -0.18385069762E+03 -0.23718075575E+03  0.37880696977E+03  0.91170009432E+02 0.  0.
         23    2    4    4    0    0 -0.54085176009E+03  0.46537025910E+03 -0.53831726169E+03  0.89830347451E+03  0.89852955572E+02 0.  0.
          2    1    3    3  502    0  0.31521038978E+03 -0.25764610538E+03  0.65689185984E+03  0.77281693884E+03  0.00000000000E+00 0. -1.
         -1    1    3    3    0  502  0.13210299577E+02 -0.23873456103E+02  0.88689775757E+02  0.92791865188E+02  0.00000000000E+00 0.  1.
         11    1    5    5    0    0  0.31528611320E+02 -0.42119537032E+02 -0.94921074866E+02  0.10852704357E+03  0.00000000000E+00 0. -1.
        -11    1    5    5    0    0  0.18090245941E+03 -0.14173116059E+03 -0.14225968088E+03  0.27027992620E+03  0.00000000000E+00 0.  1.
          1    1    6    6  503    0 -0.23438401009E+03  0.20252620497E+03 -0.17862679850E+03  0.35757553192E+03  0.00000000000E+00 0. -1.
         -1    1    6    6    0  503 -0.30646775000E+03  0.26284405413E+03 -0.35969046319E+03  0.54072794258E+03  0.00000000000E+00 0.  1.
<mgrwt>
<rscale>  0 0.21425104E+04</rscale>
<asrwt>0</asrwt>
<pdfrwt beam="1">  1        2 0.16252330E+00 0.21425104E+04</pdfrwt>
<pdfrwt beam="2">  1       -1 0.16712582E+00 0.21425104E+04</pdfrwt>
<totfact> 0.62764211E+00</totfact>
</mgrwt>
</event>
<event>
12    6  0.9491186E-008  0.1395570E+04  0.7818608E-02  0.8957032E-01
          2   -1    0    0  501    0  0.00000000000E+00  0.00000000000E+00  0.14621930155E+04  0.14621930155E+04  0.00000000000E+00 0. -1.
         -1   -1    0    0    0  501 -0.00000000000E+00 -0.00000000000E+00 -0.33299542748E+03  0.33299542748E+03  0.00000000000E+00 0.  1.
         24    2    1    2    0    0  0.11905010787E+03  0.36609923518E+03  0.23978515789E+03  0.46055347883E+03  0.80068762515E+02 0.  0.
        254    2    1    2    0    0 -0.11905010787E+03 -0.36609923518E+03  0.88941243010E+03  0.13346349641E+04  0.91760254929E+03 0.  0.
         23    2    4    4    0    0 -0.23835801014E+03 -0.47531422551E+03  0.98661427921E+03  0.11243401115E+04  0.89413624833E+02 0.  0.
         23    2    4    4    0    0  0.11930790227E+03  0.10921499033E+03 -0.97201849109E+02  0.21029485268E+03  0.92808598394E+02 0.  0.
          2    1    3    3  502    0  0.24667129990E+02  0.43630852193E+02  0.64187406374E+02  0.81437962290E+02  0.00000000000E+00 0. -1.
         -1    1    3    3    0  502  0.94382977882E+02  0.32246838299E+03  0.17559775151E+03  0.37911551654E+03  0.00000000000E+00 0.  1.
         11    1    5    5    0    0 -0.22579595993E+03 -0.46458543121E+03  0.97720236625E+03  0.11053270570E+04  0.00000000000E+00 0.  1.
        -11    1    5    5    0    0 -0.12562050205E+02 -0.10728794301E+02  0.94119129575E+01  0.19013054411E+02  0.00000000000E+00 0. -1.
          4    1    6    6  503    0  0.62912067457E+02  0.51735814940E+02 -0.10091285618E+03  0.12968395167E+03  0.00000000000E+00 0.  1.
         -4    1    6    6    0  503  0.56395834810E+02  0.57479175388E+02  0.37110070683E+01  0.80610901004E+02  0.00000000000E+00 0. -1.
<mgrwt>
<rscale>  0 0.13955695E+04</rscale>
<asrwt>0</asrwt>
<pdfrwt beam="1">  1        2 0.22495277E+00 0.13955695E+04</pdfrwt>
<pdfrwt beam="2">  1       -1 0.51230067E-01 0.13955695E+04</pdfrwt>
<totfact> 0.56684849E+01</totfact>
</mgrwt>
</event>
<event>
12    6  0.9491186E-008  0.2689548E+04  0.7818608E-02  0.8338404E-01
          2   -1    0    0  501    0  0.00000000000E+00  0.00000000000E+00  0.19584626206E+04  0.19584626206E+04  0.00000000000E+00 0. -1.
         -1   -1    0    0    0  501 -0.00000000000E+00 -0.00000000000E+00 -0.92338580614E+03  0.92338580614E+03  0.00000000000E+00 0.  1.
         24    2    1    2    0    0 -0.10296923099E+03  0.10429644010E+04  0.10630185161E+04  0.14950079087E+04  0.81626449126E+02 0.  0.
        254    2    1    2    0    0  0.10296923099E+03 -0.10429644010E+04 -0.27941701672E+02  0.13868405180E+04  0.90783725389E+03 0.  0.
         23    2    4    4    0    0 -0.19378833010E+03 -0.31702699900E+03 -0.36459546078E+03  0.52843232778E+03  0.90834134791E+02 0.  0.
         23    2    4    4    0    0  0.29675756109E+03 -0.72593740198E+03  0.33665375911E+03  0.85840819026E+03  0.92079888870E+02 0.  0.
          4    1    3    3  502    0 -0.11015619373E+03  0.10019702327E+04  0.10355299543E+04  0.14451301050E+04  0.00000000000E+00 0. -1.
         -3    1    3    3    0  502  0.71869627387E+01  0.40994168274E+02  0.27488561808E+02  0.49877803642E+02  0.00000000000E+00 0.  1.
         11    1    5    5    0    0 -0.70246962688E+02 -0.16470826163E+03 -0.12292411795E+03  0.21719527157E+03  0.00000000000E+00 0.  1.
        -11    1    5    5    0    0 -0.12354136741E+03 -0.15231873737E+03 -0.24167134283E+03  0.31123705621E+03  0.00000000000E+00 0. -1.
          4    1    6    6  503    0  0.26848198326E+03 -0.58990196867E+03  0.30296057657E+03  0.71543834041E+03  0.00000000000E+00 0.  1.
         -4    1    6    6    0  503  0.28275577829E+02 -0.13603543330E+03  0.33693182537E+02  0.14296984985E+03  0.00000000000E+00 0. -1.
<mgrwt>
<rscale>  0 0.26895476E+04</rscale>
<asrwt>0</asrwt>
<pdfrwt beam="1">  1        2 0.30130194E+00 0.26895476E+04</pdfrwt>
<pdfrwt beam="2">  1       -1 0.14205935E+00 0.26895476E+04</pdfrwt>
<totfact> 0.28395441E+00</totfact>
</mgrwt>
</event>
<event>
12    6  0.9491186E-008  0.2200895E+04  0.7818608E-02  0.8518055E-01
         -1   -1    0    0    0  501 -0.00000000000E+00  0.00000000000E+00  0.45921574732E+03  0.45921574732E+03  0.00000000000E+00 0.  1.
          2   -1    0    0  501    0  0.00000000000E+00 -0.00000000000E+00 -0.26370725620E+04  0.26370725620E+04  0.00000000000E+00 0. -1.
         24    2    1    2    0    0  0.68070683227E+03  0.20120818877E+02 -0.49020886248E+02  0.68720761627E+03  0.78003985268E+02 0.  0.
        254    2    1    2    0    0 -0.68070683227E+03 -0.20120818877E+02 -0.21288359284E+04  0.24090806930E+04  0.89886636192E+03 0.  0.
         23    2    4    4    0    0 -0.98803165821E+02 -0.30949618038E+03 -0.13429122289E+04  0.13845677631E+04  0.89803590414E+02 0.  0.
         23    2    4    4    0    0 -0.58190366645E+03  0.28937536150E+03 -0.78592369955E+03  0.10245129300E+04  0.97983188784E+02 0.  0.
          2    1    3    3  502    0  0.52479293927E+03  0.10683731160E+02 -0.50064860414E+01  0.52492555293E+03  0.00000000000E+00 0. -1.
         -1    1    3    3    0  502  0.15591389300E+03  0.94370877166E+01 -0.44014400207E+02  0.16228206333E+03  0.00000000000E+00 0.  1.
         11    1    5    5    0    0 -0.18493186851E+01 -0.79608489434E+02 -0.47007761506E+03  0.47677447053E+03  0.00000000000E+00 0.  1.
        -11    1    5    5    0    0 -0.96953847136E+02 -0.22988769094E+03 -0.87283461381E+03  0.90779329254E+03  0.00000000000E+00 0. -1.
          1    1    6    6  503    0 -0.24216057959E+03  0.17351347313E+03 -0.33944999827E+03  0.45163588541E+03  0.00000000000E+00 0. -1.
         -1    1    6    6    0  503 -0.33974308686E+03  0.11586188837E+03 -0.44647370128E+03  0.57287704456E+03  0.00000000000E+00 0.  1.
<mgrwt>
<rscale>  0 0.22008955E+04</rscale>
<asrwt>0</asrwt>
<pdfrwt beam="1">  1        2 0.40570347E+00 0.22008955E+04</pdfrwt>
<pdfrwt beam="2">  1       -1 0.70648576E-01 0.22008955E+04</pdfrwt>
<totfact> 0.60949613E+00</totfact>
</mgrwt>
</event>
<event>
12    6  0.9491186E-008  0.3089363E+04  0.7818608E-02  0.8218663E-01
          2   -1    0    0  501    0  0.00000000000E+00  0.00000000000E+00  0.17939446888E+04  0.17939446888E+04  0.00000000000E+00 0. -1.
         -1   -1    0    0    0  501 -0.00000000000E+00 -0.00000000000E+00 -0.13300523072E+04  0.13300523072E+04  0.00000000000E+00 0.  1.
         24    2    1    2    0    0 -0.54306724883E+03  0.24474058019E+03  0.15067863697E+04  0.16233553293E+04  0.10028645299E+03 0.  0.
        254    2    1    2    0    0  0.54306724883E+03 -0.24474058019E+03 -0.10428939881E+04  0.15006416667E+04  0.89970970487E+03 0.  0.
         23    2    4    4    0    0  0.29123651119E+03  0.18566897761E+03 -0.90826518108E+03  0.97595386335E+03  0.90821966179E+02 0.  0.
         23    2    4    4    0    0  0.25183073765E+03 -0.43040955780E+03 -0.13462880704E+03  0.52468780335E+03  0.92202317902E+02 0.  0.
          2    1    3    3  502    0 -0.29514751179E+03  0.94304809585E+02  0.68235417956E+03  0.74940821798E+03  0.00000000000E+00 0. -1.
         -1    1    3    3    0  502 -0.24791973705E+03  0.15043577061E+03  0.82443219019E+03  0.87394711128E+03  0.00000000000E+00 0.  1.
         11    1    5    5    0    0  0.29800538377E+03  0.18166522175E+03 -0.89305403293E+03  0.95882999915E+03  0.00000000000E+00 0. -1.
        -11    1    5    5    0    0 -0.67688725847E+01  0.40037558552E+01 -0.15211148150E+02  0.17123864198E+02  0.00000000000E+00 0.  1.
          3    1    6    6  503    0  0.97540310339E+02 -0.21393124065E+03 -0.22569628423E+02  0.23619922945E+03  0.00000000000E+00 0. -1.
         -3    1    6    6    0  503  0.15429042731E+03 -0.21647831715E+03 -0.11205917861E+03  0.28848857389E+03  0.00000000000E+00 0.  1.
<mgrwt>
<rscale>  0 0.30893626E+04</rscale>
<asrwt>0</asrwt>
<pdfrwt beam="1">  1        2 0.27599149E+00 0.30893626E+04</pdfrwt>
<pdfrwt beam="2">  1       -1 0.20462343E+00 0.30893626E+04</pdfrwt>
<totfact> 0.11762695E+00</totfact>
</mgrwt>
</event>
<event>
12    6  0.9491186E-008  0.1082244E+04  0.7818608E-02  0.9222673E-01
          2   -1    0    0  501    0  0.00000000000E+00  0.00000000000E+00  0.72716959322E+03  0.72716959322E+03  0.00000000000E+00 0. -1.
         -1   -1    0    0    0  501 -0.00000000000E+00 -0.00000000000E+00 -0.40267490210E+03  0.40267490210E+03  0.00000000000E+00 0.  1.
         24    2    1    2    0    0 -0.54422903303E+02 -0.23184091128E+02 -0.76549995666E+02  0.12533512406E+03  0.79684609566E+02 0.  0.
        254    2    1    2    0    0  0.54422903303E+02  0.23184091128E+02  0.40104468679E+03  0.10045093713E+04  0.91907719026E+03 0.  0.
         23    2    4    4    0    0  0.37586695677E+03  0.29694585951E+03  0.23465162882E+03  0.54141937363E+03  0.92847932490E+02 0.  0.
         23    2    4    4    0    0 -0.32144405347E+03 -0.27376176838E+03  0.16639305797E+03  0.46308999762E+03  0.92162415440E+02 0.  0.
          2    1    3    3  502    0 -0.15541376057E+02  0.11495252737E+02 -0.70243280899E+02  0.72854606695E+02  0.00000000000E+00 0. -1.
         -1    1    3    3    0  502 -0.38881527246E+02 -0.34679343865E+02 -0.63067147670E+01  0.52480517366E+02  0.00000000000E+00 0.  1.
         11    1    5    5    0    0  0.26722287363E+03  0.15446517008E+03  0.15364980798E+03  0.34478372417E+03  0.00000000000E+00 0. -1.
        -11    1    5    5    0    0  0.10864408314E+03  0.14248068943E+03  0.81001820839E+02  0.19663564946E+03  0.00000000000E+00 0.  1.
          3    1    6    6  503    0 -0.20307720694E+03 -0.12335435685E+03  0.64237227742E+02  0.24613628493E+03  0.00000000000E+00 0. -1.
         -3    1    6    6    0  503 -0.11836684653E+03 -0.15040741153E+03  0.10215583023E+03  0.21695371269E+03  0.00000000000E+00 0.  1.
<mgrwt>
<rscale>  0 0.10822439E+04</rscale>
<asrwt>0</asrwt>
<pdfrwt beam="1">  1        2 0.11187225E+00 0.10822439E+04</pdfrwt>
<pdfrwt beam="2">  1       -1 0.61949985E-01 0.10822439E+04</pdfrwt>
<totfact> 0.11708367E+02</totfact>
</mgrwt>
</event>
<event>
12    6  0.9491186E-008  0.1510725E+04  0.7818608E-02  0.8877352E-01
         -1   -1    0    0    0  501 -0.00000000000E+00  0.00000000000E+00  0.31848152949E+03  0.31848152949E+03  0.00000000000E+00 0.  1.
          2   -1    0    0  501    0  0.00000000000E+00 -0.00000000000E+00 -0.17915412473E+04  0.17915412473E+04  0.00000000000E+00 0. -1.
         24    2    1    2    0    0 -0.43226209928E+03  0.17926958282E+03 -0.32902690193E+03  0.57756975642E+03  0.79624214539E+02 0.  0.
        254    2    1    2    0    0  0.43226209928E+03 -0.17926958282E+03 -0.11440328159E+04  0.15324530203E+04  0.90587696184E+03 0.  0.
         23    2    4    4    0    0 -0.90895481665E+02  0.28579794717E+03 -0.35360311999E+03  0.47273896925E+03  0.92219907759E+02 0.  0.
         23    2    4    4    0    0  0.52315758095E+03 -0.46506752999E+03 -0.79042969588E+03  0.10597140511E+04  0.90736453614E+02 0.  0.
          2    1    3    3  502    0 -0.24972538437E+03  0.10461771852E+03 -0.14179870351E+03  0.30563786896E+03  0.00000000000E+00 0. -1.
         -1    1    3    3    0  502 -0.18253671491E+03  0.74651864301E+02 -0.18722819842E+03  0.27193188746E+03  0.00000000000E+00 0.  1.
         11    1    5    5    0    0 -0.89957074680E+01  0.93587901602E+02 -0.57039556961E+02  0.10996876437E+03  0.00000000000E+00 0.  1.
        -11    1    5    5    0    0 -0.81899774197E+02  0.19221004557E+03 -0.29656356303E+03  0.36277020488E+03  0.00000000000E+00 0. -1.
          3    1    6    6  503    0  0.33075778902E+03 -0.31993964016E+03 -0.45928549013E+03  0.65015786528E+03  0.00000000000E+00 0. -1.
         -3    1    6    6    0  503  0.19239979192E+03 -0.14512788983E+03 -0.33114420575E+03  0.40955618582E+03  0.00000000000E+00 0.  1.
<mgrwt>
<rscale>  0 0.15107254E+04</rscale>
<asrwt>0</asrwt>
<pdfrwt beam="1">  1        2 0.27562172E+00 0.15107254E+04</pdfrwt>
<pdfrwt beam="2">  1       -1 0.48997159E-01 0.15107254E+04</pdfrwt>
<totfact> 0.40019473E+01</totfact>
</mgrwt>
</event>
<event>
12    6  0.9491186E-008  0.2268731E+04  0.7818608E-02  0.8490353E-01
          2   -1    0    0  501    0  0.00000000000E+00  0.00000000000E+00  0.14760856935E+04  0.14760856935E+04  0.00000000000E+00 0. -1.
         -1   -1    0    0    0  501 -0.00000000000E+00 -0.00000000000E+00 -0.87175467689E+03  0.87175467689E+03  0.00000000000E+00 0.  1.
         24    2    1    2    0    0 -0.93195398561E+03 -0.31370429279E+02  0.92454892158E+02  0.94039783190E+03  0.79232821706E+02 0.  0.
        254    2    1    2    0    0  0.93195398561E+03  0.31370429279E+02  0.51187612446E+03  0.14074425385E+04  0.92160457750E+03 0.  0.
         23    2    4    4    0    0 -0.35937438129E+02 -0.23368993472E+03  0.27098759700E+03  0.37128299217E+03  0.92272951077E+02 0.  0.
         23    2    4    4    0    0  0.96789142374E+03  0.26506036400E+03  0.24088852746E+03  0.10361595463E+04  0.92349976073E+02 0.  0.
          4    1    3    3  502    0 -0.89655602297E+02  0.17957547255E+02 -0.14415449004E+01  0.91447682193E+02  0.00000000000E+00 0. -1.
         -3    1    3    3    0  502 -0.84229838331E+03 -0.49327976534E+02  0.93896437059E+02  0.84895014971E+03  0.00000000000E+00 0.  1.
         11    1    5    5    0    0 -0.30587159054E+02 -0.15542963073E+02  0.50657829491E+02  0.61183116043E+02  0.00000000000E+00 0.  1.
        -11    1    5    5    0    0 -0.53502790755E+01 -0.21814697165E+03  0.22032976751E+03  0.31009987613E+03  0.00000000000E+00 0. -1.
          2    1    6    6  503    0  0.87429670491E+03  0.21269567609E+03  0.20296037375E+03  0.92240289037E+03  0.00000000000E+00 0. -1.
         -2    1    6    6    0  503  0.93594718826E+02  0.52364687905E+02  0.37928153713E+02  0.11375665596E+03  0.00000000000E+00 0.  1.
<mgrwt>
<rscale>  0 0.22687306E+04</rscale>
<asrwt>0</asrwt>
<pdfrwt beam="1">  1        2 0.22709011E+00 0.22687306E+04</pdfrwt>
<pdfrwt beam="2">  1       -1 0.13411610E+00 0.22687306E+04</pdfrwt>
<totfact> 0.63528186E+00</totfact>
</mgrwt>
</event>
<event>
12    6  0.9491186E-008  0.1215478E+04  0.7818608E-02  0.9099416E-01
         -1   -1    0    0    0  501 -0.00000000000E+00  0.00000000000E+00  0.21361659522E+03  0.21361659522E+03  0.00000000000E+00 0.  1.
          2   -1    0    0  501    0  0.00000000000E+00 -0.00000000000E+00 -0.17290167427E+04  0.17290167427E+04  0.00000000000E+00 0. -1.
         24    2    1    2    0    0  0.19875797453E+03 -0.11281154317E+03 -0.57126445707E+03  0.62079975085E+03  0.82571629647E+02 0.  0.
        254    2    1    2    0    0 -0.19875797453E+03  0.11281154317E+03 -0.94413569044E+03  0.13218335871E+04  0.89644891283E+03 0.  0.
         23    2    4    4    0    0  0.18715725031E+03 -0.27399444647E+03 -0.21342148319E+03  0.40479393648E+03  0.90601371314E+02 0.  0.
         23    2    4    4    0    0 -0.38591522484E+03  0.38680598964E+03 -0.73071420725E+03  0.91703965062E+03  0.92027353301E+02 0.  0.
          4    1    3    3  502    0  0.12129681299E+03 -0.30813911349E+02 -0.23697009518E+03  0.26798738774E+03  0.00000000000E+00 0. -1.
         -3    1    3    3    0  502  0.77461161538E+02 -0.81997631822E+02 -0.33429436189E+03  0.35281236311E+03  0.00000000000E+00 0.  1.
         11    1    5    5    0    0  0.13075183496E+03 -0.15754098049E+03 -0.82529380301E+02  0.22074034858E+03  0.00000000000E+00 0.  1.
        -11    1    5    5    0    0  0.56405415350E+02 -0.11645346597E+03 -0.13089210289E+03  0.18405358789E+03  0.00000000000E+00 0. -1.
          1    1    6    6  503    0 -0.17835809251E+03  0.22032800846E+03 -0.31813682722E+03  0.42610688953E+03  0.00000000000E+00 0. -1.
         -1    1    6    6    0  503 -0.20755713233E+03  0.16647798118E+03 -0.41257738003E+03  0.49093276109E+03  0.00000000000E+00 0.  1.
<mgrwt>
<rscale>  0 0.12154780E+04</rscale>
<asrwt>0</asrwt>
<pdfrwt beam="1">  1        2 0.26600256E+00 0.12154780E+04</pdfrwt>
<pdfrwt beam="2">  1       -1 0.32864093E-01 0.12154780E+04</pdfrwt>
<totfact> 0.92149141E+01</totfact>
</mgrwt>
</event>
<event>
12    6  0.9491186E-008  0.1450995E+04  0.7818608E-02  0.8917711E-01
         -1   -1    0    0    0  501 -0.00000000000E+00  0.00000000000E+00  0.54593321133E+03  0.54593321133E+03  0.00000000000E+00 0.  1.
          2   -1    0    0  501    0  0.00000000000E+00 -0.00000000000E+00 -0.96412318132E+03  0.96412318132E+03  0.00000000000E+00 0. -1.
         24    2    1    2    0    0 -0.64694241154E+02 -0.19887724914E+03 -0.53779568084E+03  0.58321731294E+03  0.84739215998E+02 0.  0.
        254    2    1    2    0    0  0.64694241154E+02  0.19887724914E+03  0.11960571085E+03  0.92683907970E+03  0.89497913301E+03 0.  0.
         23    2    4    4    0    0  0.19441560811E+03 -0.29466712834E+02  0.44753132960E+03  0.49684927209E+03  0.88933640182E+02 0.  0.
         23    2    4    4    0    0 -0.12972136696E+03  0.22834396197E+03 -0.32792561875E+03  0.42998980762E+03  0.91582887079E+02 0.  0.
          2    1    3    3  502    0  0.62868046681E+01 -0.11733444050E+03 -0.27467067574E+03  0.29874884929E+03  0.00000000000E+00 0. -1.
         -1    1    3    3    0  502 -0.70981045822E+02 -0.81542808634E+02 -0.26312500509E+03  0.28446846365E+03  0.00000000000E+00 0.  1.
         11    1    5    5    0    0  0.18920467581E+03 -0.32908461262E+02  0.35089067741E+03  0.40000705451E+03  0.00000000000E+00 0. -1.
        -11    1    5    5    0    0  0.52109323020E+01  0.34417484287E+01  0.96640652193E+02  0.96842217571E+02  0.00000000000E+00 0.  1.
          3    1    6    6  503    0 -0.12496732811E+03  0.17977189933E+03 -0.21447409227E+03  0.30648638655E+03  0.00000000000E+00 0. -1.
         -3    1    6    6    0  503 -0.47540388440E+01  0.48572062645E+02 -0.11345152648E+03  0.12350342107E+03  0.00000000000E+00 0.  1.
<mgrwt>
<rscale>  0 0.14509953E+04</rscale>
<asrwt>0</asrwt>
<pdfrwt beam="1">  1        2 0.14832664E+00 0.14509953E+04</pdfrwt>
<pdfrwt beam="2">  1       -1 0.83989726E-01 0.14509953E+04</pdfrwt>
<totfact> 0.41327622E+01</totfact>
</mgrwt>
</event>
<event>
12    6  0.9491186E-008  0.1521539E+04  0.7818608E-02  0.8870255E-01
         -1   -1    0    0    0  501 -0.00000000000E+00  0.00000000000E+00  0.22745386744E+03  0.22745386744E+03  0.00000000000E+00 0.  1.
          2   -1    0    0  501    0  0.00000000000E+00 -0.00000000000E+00 -0.25445596172E+04  0.25445596172E+04  0.00000000000E+00 0. -1.
         24    2    1    2    0    0 -0.15752346707E+03  0.14227941312E+03  0.49590101648E+02  0.23202205232E+03  0.79485725160E+02 0.  0.
        254    2    1    2    0    0  0.15752346707E+03 -0.14227941312E+03 -0.23666958514E+04  0.25399914323E+04  0.89735731408E+03 0.  0.
         23    2    4    4    0    0  0.74298256685E+00 -0.81675846767E+02 -0.23411248737E+04  0.23442856227E+04  0.90210370307E+02 0.  0.
         23    2    4    4    0    0  0.15678048451E+03 -0.60603566355E+02 -0.25570977688E+02  0.19570580954E+03  0.96922527873E+02 0.  0.
          4    1    3    3  502    0  0.71640364766E+01  0.14026765576E+01  0.89048267305E+01  0.11514636740E+02  0.00000000000E+00 0. -1.
         -1    1    3    3    0  502 -0.16468750355E+03  0.14087673656E+03  0.40685274918E+02  0.22050741558E+03  0.00000000000E+00 0.  1.
         11    1    5    5    0    0  0.24811846636E+02 -0.13014744587E+02 -0.20313821855E+03  0.20506132533E+03  0.00000000000E+00 0.  1.
        -11    1    5    5    0    0 -0.24068864069E+02 -0.68661102180E+02 -0.21379866551E+04  0.21392242974E+04  0.00000000000E+00 0. -1.
          2    1    6    6  503    0  0.76920785663E+02 -0.51039719857E+02  0.30992345176E+02  0.97377542224E+02  0.00000000000E+00 0. -1.
         -2    1    6    6    0  503  0.79859698843E+02 -0.95638464988E+01 -0.56563322864E+02  0.98328267312E+02  0.00000000000E+00 0.  1.
<mgrwt>
<rscale>  0 0.15215386E+04</rscale>
<asrwt>0</asrwt>
<pdfrwt beam="1">  1        2 0.39147070E+00 0.15215386E+04</pdfrwt>
<pdfrwt beam="2">  1       -1 0.34992904E-01 0.15215386E+04</pdfrwt>
<totfact> 0.28047840E+01</totfact>
</mgrwt>
</event>
<event>
12    6  0.9491186E-008  0.1667987E+04  0.7818608E-02  0.8779836E-01
         -1   -1    0    0    0  501 -0.00000000000E+00  0.00000000000E+00  0.18856494830E+03  0.18856494830E+03  0.00000000000E+00 0.  1.
          2   -1    0    0  501    0  0.00000000000E+00 -0.00000000000E+00 -0.36886226849E+04  0.36886226849E+04  0.00000000000E+00 0. -1.
         24    2    1    2    0    0 -0.14729547333E+03 -0.45867118983E+03 -0.46308862843E+03  0.67279970515E+03  0.78314421550E+02 0.  0.
        254    2    1    2    0    0  0.14729547333E+03  0.45867118983E+03 -0.30369691081E+04  0.32043879280E+04  0.90157939892E+03 0.  0.
         23    2    4    4    0    0  0.56308620006E+02  0.34215904771E+03 -0.31751124378E+03  0.47939687039E+03  0.93618880525E+02 0.  0.
         23    2    4    4    0    0  0.90986853322E+02  0.11651214212E+03 -0.27194578644E+04  0.27249910576E+04  0.90947794767E+02 0.  0.
          2    1    3    3  502    0 -0.39956879652E+01  0.13203505630E+01  0.43822359851E+00  0.42309440845E+01  0.00000000000E+00 0. -1.
         -1    1    3    3    0  502 -0.14329978536E+03 -0.45999154039E+03 -0.46352685203E+03  0.66856876106E+03  0.00000000000E+00 0.  1.
         11    1    5    5    0    0  0.27216074070E+02  0.24812483565E+02 -0.14264825406E+02  0.39495053770E+02  0.00000000000E+00 0.  1.
        -11    1    5    5    0    0  0.29092545936E+02  0.31734656415E+03 -0.30324641837E+03  0.43990181662E+03  0.00000000000E+00 0. -1.
          3    1    6    6  503    0  0.10807298047E+03  0.90896852346E+02 -0.23576136723E+04  0.23618391636E+04  0.00000000000E+00 0. -1.
         -3    1    6    6    0  503 -0.17086127146E+02  0.25615289769E+02 -0.36184419206E+03  0.36315189403E+03  0.00000000000E+00 0.  1.
<mgrwt>
<rscale>  0 0.16679867E+04</rscale>
<asrwt>0</asrwt>
<pdfrwt beam="1">  1        2 0.56748041E+00 0.16679867E+04</pdfrwt>
<pdfrwt beam="2">  1       -1 0.29009992E-01 0.16679867E+04</pdfrwt>
<totfact> 0.70875148E+00</totfact>
</mgrwt>
</event>
<event>
12    6  0.9491186E-008  0.1836671E+04  0.7818608E-02  0.8687038E-01
          2   -1    0    0  501    0  0.00000000000E+00  0.00000000000E+00  0.20710886719E+04  0.20710886719E+04  0.00000000000E+00 0. -1.
         -1   -1    0    0    0  501 -0.00000000000E+00 -0.00000000000E+00 -0.40719643124E+03  0.40719643124E+03  0.00000000000E+00 0.  1.
         24    2    1    2    0    0  0.50494976016E+01  0.18111732990E+03 -0.23406596639E+03  0.30843101757E+03  0.86682358987E+02 0.  0.
        254    2    1    2    0    0 -0.50494976016E+01 -0.18111732990E+03  0.18979582070E+04  0.21698540856E+04  0.10359500048E+04 0.  0.
         23    2    4    4    0    0 -0.43796596623E+03 -0.17903691968E+03  0.14958282093E+04  0.15717081492E+04  0.94318970196E+02 0.  0.
         23    2    4    4    0    0  0.43291646863E+03 -0.20804102193E+01  0.40212999773E+03  0.59814593642E+03  0.93000157328E+02 0.  0.
          2    1    3    3  502    0  0.24732412310E+02  0.46667874392E+02 -0.23456319249E+02  0.57790843839E+02  0.00000000000E+00 0. -1.
         -1    1    3    3    0  502 -0.19682914708E+02  0.13444945551E+03 -0.21060964714E+03  0.25064017373E+03  0.00000000000E+00 0.  1.
         11    1    5    5    0    0 -0.97320814647E+02 -0.37158947946E+01  0.24988782080E+03  0.26819595788E+03  0.00000000000E+00 0. -1.
        -11    1    5    5    0    0 -0.34064515158E+03 -0.17532102489E+03  0.12459403885E+04  0.13035121913E+04  0.00000000000E+00 0.  1.
          1    1    6    6  503    0  0.16027051122E+03 -0.41477767677E+02  0.12547466042E+03  0.20772802504E+03  0.00000000000E+00 0. -1.
         -1    1    6    6    0  503  0.27264595741E+03  0.39397357458E+02  0.27665533730E+03  0.39041791138E+03  0.00000000000E+00 0.  1.
<mgrwt>
<rscale>  0 0.18366708E+04</rscale>
<asrwt>0</asrwt>
<pdfrwt beam="1">  1        2 0.31862902E+00 0.18366708E+04</pdfrwt>
<pdfrwt beam="2">  1       -1 0.62645606E-01 0.18366708E+04</pdfrwt>
<totfact> 0.16895957E+01</totfact>
</mgrwt>
</event>
<event>
12    6  0.9491186E-008  0.1929052E+04  0.7818608E-02  0.8640529E-01
         -1   -1    0    0    0  501 -0.00000000000E+00  0.00000000000E+00  0.12972959624E+04  0.12972959624E+04  0.00000000000E+00 0.  1.
          2   -1    0    0  501    0  0.00000000000E+00 -0.00000000000E+00 -0.71711479661E+03  0.71711479661E+03  0.00000000000E+00 0. -1.
         24    2    1    2    0    0  0.18852216502E+03  0.33908250457E+03 -0.44684329894E+03  0.59635378647E+03  0.73833279918E+02 0.  0.
        254    2    1    2    0    0 -0.18852216502E+03 -0.33908250457E+03  0.10270244647E+04  0.14180569725E+04  0.89754597354E+03 0.  0.
         23    2    4    4    0    0  0.16202506064E+03  0.23619017255E+03  0.32236530035E+03  0.43883913589E+03  0.81378636219E+02 0.  0.
         23    2    4    4    0    0 -0.35054722566E+03 -0.57527267712E+03  0.70465916439E+03  0.97921783666E+03  0.92200993556E+02 0.  0.
          4    1    3    3  502    0  0.13101288481E+03  0.18792248377E+03 -0.30343247059E+03  0.38019797488E+03  0.00000000000E+00 0. -1.
         -3    1    3    3    0  502  0.57509280216E+02  0.15116002080E+03 -0.14341082834E+03  0.21615581159E+03  0.00000000000E+00 0.  1.
         11    1    5    5    0    0  0.14701550661E+03  0.22147674724E+03  0.25534700857E+03  0.36860222943E+03  0.00000000000E+00 0. -1.
        -11    1    5    5    0    0  0.15009554029E+02  0.14713425313E+02  0.67018291779E+02  0.70236906463E+02  0.00000000000E+00 0.  1.
          4    1    6    6  503    0 -0.31328129831E+03 -0.55550814391E+03  0.66020852804E+03  0.91793778129E+03  0.00000000000E+00 0. -1.
         -4    1    6    6    0  503 -0.37265927352E+02 -0.19764533215E+02  0.44450636345E+02  0.61280055370E+02  0.00000000000E+00 0.  1.
<mgrwt>
<rscale>  0 0.19290517E+04</rscale>
<asrwt>0</asrwt>
<pdfrwt beam="1">  1        2 0.11032535E+00 0.19290517E+04</pdfrwt>
<pdfrwt beam="2">  1       -1 0.19958399E+00 0.19290517E+04</pdfrwt>
<totfact> 0.64201599E+00</totfact>
</mgrwt>
</event>
<event>
12    6  0.9491186E-008  0.2494848E+04  0.7818608E-02  0.8404823E-01
         -1   -1    0    0    0  501 -0.00000000000E+00  0.00000000000E+00  0.60134226404E+03  0.60134226404E+03  0.00000000000E+00 0.  1.
          2   -1    0    0  501    0  0.00000000000E+00 -0.00000000000E+00 -0.25876562491E+04  0.25876562491E+04  0.00000000000E+00 0. -1.
         24    2    1    2    0    0 -0.84076454218E+03 -0.32127344813E+03 -0.16348494837E+04  0.18678109694E+04  0.76702927311E+02 0.  0.
        254    2    1    2    0    0  0.84076454218E+03  0.32127344813E+03 -0.35146450135E+03  0.13211875438E+04  0.90105914691E+03 0.  0.
         23    2    4    4    0    0  0.40450706841E+03 -0.27719760576E+03 -0.43318309623E+01  0.49837517056E+03  0.88851363782E+02 0.  0.
         23    2    4    4    0    0  0.43625747377E+03  0.59847105388E+03 -0.34713267039E+03  0.82281237320E+03  0.89615427750E+02 0.  0.
          4    1    3    3  502    0 -0.80963327252E+03 -0.30361181352E+03 -0.15945490916E+04  0.18139109611E+04  0.00000000000E+00 0. -1.
         -3    1    3    3    0  502 -0.31131269661E+02 -0.17661634605E+02 -0.40300392132E+02  0.53900008290E+02  0.00000000000E+00 0.  1.
         11    1    5    5    0    0  0.12811393306E+03 -0.49891470409E+02  0.23330114434E+02  0.13945118466E+03  0.00000000000E+00 0.  1.
        -11    1    5    5    0    0  0.27639313535E+03 -0.22730613535E+03 -0.27661945396E+02  0.35892398591E+03  0.00000000000E+00 0. -1.
          1    1    6    6  503    0  0.37060218299E+03  0.48589252487E+03 -0.24992434391E+03  0.66022700751E+03  0.00000000000E+00 0. -1.
         -1    1    6    6    0  503  0.65655290782E+02  0.11257852901E+03 -0.97208326484E+02  0.16258536570E+03  0.00000000000E+00 0.  1.
<mgrwt>
<rscale>  0 0.24948483E+04</rscale>
<asrwt>0</asrwt>
<pdfrwt beam="1">  1        2 0.39810095E+00 0.24948483E+04</pdfrwt>
<pdfrwt beam="2">  1       -1 0.92514198E-01 0.24948483E+04</pdfrwt>
<totfact> 0.35676102E+00</totfact>
</mgrwt>
</event>
<event>
12    6  0.9491186E-008  0.1493550E+04  0.7818608E-02  0.8888753E-01
         -1   -1    0    0    0  501 -0.00000000000E+00  0.00000000000E+00  0.16873437311E+04  0.16873437311E+04  0.00000000000E+00 0.  1.
          2   -1    0    0  501    0  0.00000000000E+00 -0.00000000000E+00 -0.33050348054E+03  0.33050348054E+03  0.00000000000E+00 0. -1.
         24    2    1    2    0    0 -0.24780627585E+03 -0.34903911290E+03  0.17009963181E+03  0.46776561447E+03  0.81452640547E+02 0.  0.
        254    2    1    2    0    0  0.24780627585E+03  0.34903911290E+03  0.11867406187E+04  0.15500815972E+04  0.90064610641E+03 0.  0.
         23    2    4    4    0    0  0.77922316680E+02 -0.19383300805E+03  0.85437564118E+03  0.88440947674E+03  0.92624315738E+02 0.  0.
         23    2    4    4    0    0  0.16988395917E+03  0.54287212095E+03  0.33236497755E+03  0.66567212041E+03  0.95300547238E+02 0.  0.
          4    1    3    3  502    0 -0.16245212200E+03 -0.19913312706E+03  0.14001818498E+03  0.29265984753E+03  0.00000000000E+00 0. -1.
         -3    1    3    3    0  502 -0.85354153856E+02 -0.14990598584E+03  0.30081446839E+02  0.17510576694E+03  0.00000000000E+00 0.  1.
         11    1    5    5    0    0  0.25593192779E+02 -0.12827121369E+03  0.36126390788E+03  0.38421364749E+03  0.00000000000E+00 0. -1.
        -11    1    5    5    0    0  0.52329123901E+02 -0.65561794356E+02  0.49311173329E+03  0.50019582925E+03  0.00000000000E+00 0.  1.
          3    1    6    6  503    0  0.14414932332E+03  0.44045309947E+03  0.22535107086E+03  0.51532617378E+03  0.00000000000E+00 0. -1.
         -3    1    6    6    0  503  0.25734635852E+02  0.10241902148E+03  0.10701390669E+03  0.15034594663E+03  0.00000000000E+00 0.  1.
<mgrwt>
<rscale>  0 0.14935501E+04</rscale>
<asrwt>0</asrwt>
<pdfrwt beam="1">  1        2 0.50846690E-01 0.14935501E+04</pdfrwt>
<pdfrwt beam="2">  1       -1 0.25959134E+00 0.14935501E+04</pdfrwt>
<totfact> 0.65887376E+00</totfact>
</mgrwt>
</event>
<event>
12    6  0.9491186E-008  0.2850816E+04  0.7818608E-02  0.8287663E-01
         -1   -1    0    0    0  501 -0.00000000000E+00  0.00000000000E+00  0.15414087327E+04  0.15414087327E+04  0.00000000000E+00 0.  1.
          2   -1    0    0  501    0  0.00000000000E+00 -0.00000000000E+00 -0.13181370650E+04  0.13181370650E+04  0.00000000000E+00 0. -1.
         24    2    1    2    0    0 -0.81938548899E+03 -0.86009103401E+03 -0.38245275427E+03  0.12504511400E+04  0.78795799212E+02 0.  0.
        254    2    1    2    0    0  0.81938548899E+03  0.86009103401E+03  0.60572442201E+03  0.16090946577E+04  0.90062998824E+03 0.  0.
         23    2    4    4    0    0  0.27740065947E+03 -0.87157047489E+02  0.38620199403E+03  0.49196017497E+03  0.91243392963E+02 0.  0.
         23    2    4    4    0    0  0.54198482952E+03  0.94724808150E+03  0.21952242798E+03  0.11171344827E+04  0.93663615293E+02 0.  0.
          2    1    3    3  502    0 -0.21746325211E+03 -0.22745864033E+03 -0.65168365957E+02  0.32136368028E+03  0.00000000000E+00 0. -1.
         -1    1    3    3    0  502 -0.60192223688E+03 -0.63263239368E+03 -0.31728438831E+03  0.92908745974E+03  0.00000000000E+00 0.  1.
         11    1    5    5    0    0  0.98913859839E+02 -0.82262832071E+01  0.74104834840E+02  0.12386746930E+03  0.00000000000E+00 0.  1.
        -11    1    5    5    0    0  0.17848679964E+03 -0.78930764282E+02  0.31209715919E+03  0.36809270567E+03  0.00000000000E+00 0. -1.
          1    1    6    6  503    0  0.43145174160E+03  0.81150337439E+03  0.20364965476E+03  0.94136152134E+03  0.00000000000E+00 0. -1.
         -1    1    6    6    0  503  0.11053308792E+03  0.13574470711E+03  0.15872773216E+02  0.17577296141E+03  0.00000000000E+00 0.  1.
<mgrwt>
<rscale>  0 0.28508160E+04</rscale>
<asrwt>0</asrwt>
<pdfrwt beam="1">  1        2 0.20279032E+00 0.28508160E+04</pdfrwt>
<pdfrwt beam="2">  1       -1 0.23713980E+00 0.28508160E+04</pdfrwt>
<totfact> 0.13483757E+00</totfact>
</mgrwt>
</event>
<event>
12    6  0.9491186E-008  0.1642370E+04  0.7818608E-02  0.8794933E-01
          2   -1    0    0  501    0  0.00000000000E+00  0.00000000000E+00  0.12651316814E+04  0.12651316814E+04  0.00000000000E+00 0. -1.
         -1   -1    0    0    0  501 -0.00000000000E+00 -0.00000000000E+00 -0.53302343173E+03  0.53302343173E+03  0.00000000000E+00 0.  1.
         24    2    1    2    0    0 -0.51405586727E+03  0.84686188730E+02  0.32523135539E+01  0.52745880954E+03  0.82322736685E+02 0.  0.
        254    2    1    2    0    0  0.51405586727E+03 -0.84686188730E+02  0.72885593614E+03  0.12706963036E+04  0.90111760339E+03 0.  0.
         23    2    4    4    0    0  0.16551449422E+03  0.39465368848E+03  0.36462546796E+03  0.56955654666E+03  0.91084281485E+02 0.  0.
         23    2    4    4    0    0  0.34854137305E+03 -0.47933987721E+03  0.36423046818E+03  0.70113975696E+03  0.87665946722E+02 0.  0.
          4    1    3    3  502    0 -0.37868183010E+02 -0.83073263279E+00 -0.20502857556E+02  0.43070367646E+02  0.00000000000E+00 0. -1.
         -3    1    3    3    0  502 -0.47618768426E+03  0.85516921363E+02  0.23755171110E+02  0.48438844189E+03  0.00000000000E+00 0.  1.
         11    1    5    5    0    0  0.15145367899E+02  0.12487377887E+03  0.76823326216E+02  0.14739289762E+03  0.00000000000E+00 0. -1.
        -11    1    5    5    0    0  0.15036912632E+03  0.26977990961E+03  0.28780214174E+03  0.42216364904E+03  0.00000000000E+00 0.  1.
          4    1    6    6  503    0  0.29661509571E+03 -0.36050580686E+03  0.25729430285E+03  0.53305282108E+03  0.00000000000E+00 0. -1.
         -4    1    6    6    0  503  0.51926277340E+02 -0.11883407035E+03  0.10693616534E+03  0.16808693587E+03  0.00000000000E+00 0.  1.
<mgrwt>
<rscale>  0 0.16423700E+04</rscale>
<asrwt>0</asrwt>
<pdfrwt beam="1">  1        2 0.19463564E+00 0.16423700E+04</pdfrwt>
<pdfrwt beam="2">  1       -1 0.82003606E-01 0.16423700E+04</pdfrwt>
<totfact> 0.27938269E+01</totfact>
</mgrwt>
</event>
<event>
12    6  0.9491186E-008  0.1265306E+04  0.7818608E-02  0.9057540E-01
         -1   -1    0    0    0  501 -0.00000000000E+00  0.00000000000E+00  0.19352023871E+03  0.19352023871E+03  0.00000000000E+00 0.  1.
          2   -1    0    0  501    0  0.00000000000E+00 -0.00000000000E+00 -0.20682571061E+04  0.20682571061E+04  0.00000000000E+00 0. -1.
         24    2    1    2    0    0 -0.59544825449E+02 -0.22767423998E+03 -0.12171639220E+03  0.27716566694E+03  0.81392757715E+02 0.  0.
        254    2    1    2    0    0  0.59544825449E+02  0.22767423998E+03 -0.17530204752E+04  0.19846116779E+04  0.90012309145E+03 0.  0.
         23    2    4    4    0    0 -0.11022270491E+02  0.54746338489E+03 -0.80892105299E+03  0.98139829643E+03  0.94613413525E+02 0.  0.
         23    2    4    4    0    0  0.70567095939E+02 -0.31978914491E+03 -0.94409942219E+03  0.10032133814E+04  0.88704889942E+02 0.  0.
          2    1    3    3  502    0 -0.40947229139E+02 -0.55468939823E+02 -0.67464375260E+01  0.69274766536E+02  0.00000000000E+00 0. -1.
         -1    1    3    3    0  502 -0.18597596309E+02 -0.17220530016E+03 -0.11496995467E+03  0.20789090040E+03  0.00000000000E+00 0.  1.
         11    1    5    5    0    0  0.30632593864E+02  0.42445490937E+03 -0.60688695605E+03  0.74122338287E+03  0.00000000000E+00 0. -1.
        -11    1    5    5    0    0 -0.41654864355E+02  0.12300847552E+03 -0.20203409695E+03  0.24017491356E+03  0.00000000000E+00 0.  1.
          3    1    6    6  503    0  0.71283096870E+02 -0.28606537436E+03 -0.90375843558E+03  0.95062820713E+03  0.00000000000E+00 0. -1.
         -3    1    6    6    0  503 -0.71600093086E+00 -0.33723770544E+02 -0.40340986611E+02  0.52585174316E+02  0.00000000000E+00 0.  1.
<mgrwt>
<rscale>  0 0.12653057E+04</rscale>
<asrwt>0</asrwt>
<pdfrwt beam="1">  1        2 0.31819341E+00 0.12653057E+04</pdfrwt>
<pdfrwt beam="2">  1       -1 0.29772344E-01 0.12653057E+04</pdfrwt>
<totfact> 0.70940076E+01</totfact>
</mgrwt>
</event>
<event>
12    6  0.9491186E-008  0.1503265E+04  0.7818608E-02  0.8882285E-01
         -1   -1    0    0    0  501 -0.00000000000E+00  0.00000000000E+00  0.18668014643E+03  0.18668014643E+03  0.00000000000E+00 0.  1.
          2   -1    0    0  501    0  0.00000000000E+00 -0.00000000000E+00 -0.30263056440E+04  0.30263056440E+04  0.00000000000E+00 0. -1.
         24    2    1    2    0    0  0.37175783199E+03  0.12815184114E+03 -0.15050108494E+04  0.15568607240E+04  0.64271899978E+02 0.  0.
        254    2    1    2    0    0 -0.37175783199E+03 -0.12815184114E+03 -0.13346146481E+04  0.16561250664E+04  0.89829126481E+03 0.  0.
         23    2    4    4    0    0 -0.22407769389E+03 -0.21392564848E+03 -0.15861169132E+02  0.32364684370E+03  0.92307674526E+02 0.  0.
         23    2    4    4    0    0 -0.14768013810E+03  0.85773807340E+02 -0.13187534790E+04  0.13324782227E+04  0.84975916063E+02 0.  0.
          2    1    3    3  502    0  0.14587599495E+03  0.18425720429E+02 -0.52757010917E+03  0.54767648586E+03  0.00000000000E+00 0. -1.
         -1    1    3    3    0  502  0.22588183704E+03  0.10972612071E+03 -0.97744074022E+03  0.10091842381E+04  0.00000000000E+00 0.  1.
         11    1    5    5    0    0 -0.91008627073E+02 -0.37757124198E+02 -0.28316413322E+02  0.10251824176E+03  0.00000000000E+00 0. -1.
        -11    1    5    5    0    0 -0.13306906681E+03 -0.17616852428E+03  0.12455244190E+02  0.22112860194E+03  0.00000000000E+00 0.  1.
          2    1    6    6  503    0 -0.23206284293E+02 -0.16972004858E+02 -0.16425068030E+03  0.16674791321E+03  0.00000000000E+00 0. -1.
         -2    1    6    6    0  503 -0.12447385381E+03  0.10274581220E+03 -0.11545027987E+04  0.11657303095E+04  0.00000000000E+00 0.  1.
<mgrwt>
<rscale>  0 0.15032647E+04</rscale>
<asrwt>0</asrwt>
<pdfrwt beam="1">  1        2 0.46558546E+00 0.15032647E+04</pdfrwt>
<pdfrwt beam="2">  1       -1 0.28720024E-01 0.15032647E+04</pdfrwt>
<totfact> 0.20461459E+01</totfact>
</mgrwt>
</event>
<event>
12    6  0.9491186E-008  0.1385385E+04  0.7818608E-02  0.8964466E-01
         -1   -1    0    0    0  501 -0.00000000000E+00  0.00000000000E+00  0.35166089838E+03  0.35166089838E+03  0.00000000000E+00 0.  1.
          2   -1    0    0  501    0  0.00000000000E+00 -0.00000000000E+00 -0.13644477179E+04  0.13644477179E+04  0.00000000000E+00 0. -1.
         24    2    1    2    0    0  0.97545498559E+02 -0.75729521262E+02 -0.74564648680E+03  0.75979764512E+03  0.77805485516E+02 0.  0.
        254    2    1    2    0    0 -0.97545498559E+02  0.75729521262E+02 -0.26714033272E+03  0.95631097116E+03  0.90989924251E+03 0.  0.
         23    2    4    4    0    0 -0.37771149187E+03 -0.20489236131E+03 -0.32254189931E+03  0.54597808640E+03  0.97015169924E+02 0.  0.
         23    2    4    4    0    0  0.28016599332E+03  0.28062188258E+03  0.55401566597E+02  0.41033288476E+03  0.89789297488E+02 0.  0.
          4    1    3    3  502    0  0.97445659382E+02 -0.83011067611E+02 -0.73878149634E+03  0.74978969932E+03  0.00000000000E+00 0. -1.
         -3    1    3    3    0  502  0.99839177037E-01  0.72815463486E+01 -0.68649904613E+01  0.10007945799E+02  0.00000000000E+00 0.  1.
         11    1    5    5    0    0 -0.73864970327E+02 -0.44311273589E+02 -0.11783402709E+03  0.14596020262E+03  0.00000000000E+00 0. -1.
        -11    1    5    5    0    0 -0.30384652155E+03 -0.16058108772E+03 -0.20470787222E+03  0.40001788377E+03  0.00000000000E+00 0.  1.
          4    1    6    6  503    0  0.69083558601E+02  0.22845499480E+02  0.11541077962E+01  0.72772157315E+02  0.00000000000E+00 0. -1.
         -4    1    6    6    0  503  0.21108243471E+03  0.25777638310E+03  0.54247458801E+02  0.33756072744E+03  0.00000000000E+00 0.  1.
<mgrwt>
<rscale>  0 0.13853850E+04</rscale>
<asrwt>0</asrwt>
<pdfrwt beam="1">  1        2 0.20991503E+00 0.13853850E+04</pdfrwt>
<pdfrwt beam="2">  1       -1 0.54101676E-01 0.13853850E+04</pdfrwt>
<totfact> 0.58096367E+01</totfact>
</mgrwt>
</event>
<event>
12    6  0.1008414E-007  0.1779727E+04  0.7818608E-02  0.8717155E-01
          2   -1    0    0  501    0  0.00000000000E+00  0.00000000000E+00  0.12945156809E+04  0.12945156809E+04  0.00000000000E+00 0. -1.
         -1   -1    0    0    0  501 -0.00000000000E+00 -0.00000000000E+00 -0.61170146165E+03  0.61170146165E+03  0.00000000000E+00 0.  1.
         24    2    1    2    0    0 -0.70658197859E+02 -0.34298333752E+03 -0.34662511917E+03  0.49963022021E+03  0.82772175043E+02 0.  0.
        254    2    1    2    0    0  0.70658197859E+02  0.34298333752E+03  0.10294393384E+04  0.14065869223E+04  0.89225067546E+03 0.  0.
         23    2    4    4    0    0  0.26340800130E+03  0.13762351999E+03 -0.26142576892E+02  0.31032983700E+03  0.85423445261E+02 0.  0.
         23    2    4    4    0    0 -0.19274980344E+03  0.20535981754E+03  0.10555819153E+04  0.10962570853E+04  0.90560895773E+02 0.  0.
          2    1    3    3  502    0  0.12019920957E+02 -0.84362999067E+01 -0.20094869308E+02  0.24888821355E+02  0.00000000000E+00 0. -1.
         -1    1    3    3    0  502 -0.82678118817E+02 -0.33454703762E+03 -0.32653024987E+03  0.47474139886E+03  0.00000000000E+00 0.  1.
         11    1    5    5    0    0  0.82715007992E+02  0.17452877540E+02 -0.38676513213E+02  0.92963692676E+02  0.00000000000E+00 0.  1.
        -11    1    5    5    0    0  0.18069299331E+03  0.12017064245E+03  0.12533936321E+02  0.21736614432E+03  0.00000000000E+00 0. -1.
          3    1    6    6  503    0 -0.14545381262E+03  0.19775580522E+03  0.82487486072E+03  0.86062925000E+03  0.00000000000E+00 0.  1.
         -3    1    6    6    0  503 -0.47295990826E+02  0.76040123236E+01  0.23070705458E+03  0.23562783534E+03  0.00000000000E+00 0. -1.
<mgrwt>
<rscale>  0 0.17797271E+04</rscale>
<asrwt>0</asrwt>
<pdfrwt beam="1">  1        2 0.19915626E+00 0.17797271E+04</pdfrwt>
<pdfrwt beam="2">  1       -1 0.94107917E-01 0.17797271E+04</pdfrwt>
<totfact> 0.19635706E+01</totfact>
</mgrwt>
</event>
<event>
12    6  0.9491186E-008  0.1663217E+04  0.7818608E-02  0.8782625E-01
         -1   -1    0    0    0  501 -0.00000000000E+00  0.00000000000E+00  0.37605498981E+03  0.37605498981E+03  0.00000000000E+00 0.  1.
          2   -1    0    0  501    0  0.00000000000E+00 -0.00000000000E+00 -0.18390206600E+04  0.18390206600E+04  0.00000000000E+00 0. -1.
         24    2    1    2    0    0 -0.21082850144E+03 -0.54841969308E+03 -0.50712956197E+03  0.78016343994E+03  0.79131432575E+02 0.  0.
        254    2    1    2    0    0  0.21082850144E+03  0.54841969308E+03 -0.95583610825E+03  0.14349122099E+04  0.89450409026E+03 0.  0.
         23    2    4    4    0    0  0.15816649899E+03  0.75836056773E+03 -0.90338107197E+03  0.11933660458E+04  0.88869375721E+02 0.  0.
         23    2    4    4    0    0  0.52662002458E+02 -0.20994087465E+03 -0.52455036281E+02  0.24154616411E+03  0.93512358610E+02 0.  0.
          4    1    3    3  502    0 -0.21393847957E+03 -0.49842854575E+03 -0.47159876707E+03  0.71875314633E+03  0.00000000000E+00 0. -1.
         -3    1    3    3    0  502  0.31099781266E+01 -0.49991147327E+02 -0.35530794898E+02  0.61410293609E+02  0.00000000000E+00 0.  1.
         11    1    5    5    0    0 -0.29706943546E+01 -0.12589894719E+01 -0.33470038282E+01  0.46489261196E+01  0.00000000000E+00 0. -1.
        -11    1    5    5    0    0  0.16113719334E+03  0.75961955721E+03 -0.90003406814E+03  0.11887171197E+04  0.00000000000E+00 0.  1.
          1    1    6    6  503    0 -0.16499201760E+02 -0.55924265344E+01 -0.14135151483E+02  0.22434379882E+02  0.00000000000E+00 0. -1.
         -1    1    6    6    0  503  0.69161204218E+02 -0.20434844812E+03 -0.38319884798E+02  0.21911178423E+03  0.00000000000E+00 0.  1.
<mgrwt>
<rscale>  0 0.16632172E+04</rscale>
<asrwt>0</asrwt>
<pdfrwt beam="1">  1        2 0.28292625E+00 0.16632172E+04</pdfrwt>
<pdfrwt beam="2">  1       -1 0.57854615E-01 0.16632172E+04</pdfrwt>
<totfact> 0.27005410E+01</totfact>
</mgrwt>
</event>
<event>
12    6  0.9491186E-008  0.1709283E+04  0.7818608E-02  0.8756087E-01
         -1   -1    0    0    0  501 -0.00000000000E+00  0.00000000000E+00  0.66035982447E+03  0.66035982447E+03  0.00000000000E+00 0.  1.
          2   -1    0    0  501    0  0.00000000000E+00 -0.00000000000E+00 -0.11060824587E+04  0.11060824587E+04  0.00000000000E+00 0. -1.
         24    2    1    2    0    0  0.38560626127E+03 -0.44780021638E+03 -0.33373741142E+03  0.68299713075E+03  0.76728080348E+02 0.  0.
        254    2    1    2    0    0 -0.38560626127E+03  0.44780021638E+03 -0.11198522286E+03  0.10834451525E+04  0.90116340679E+03 0.  0.
         23    2    4    4    0    0  0.81685874461E+02  0.38219541643E+03 -0.36316462136E+03  0.54106897351E+03  0.90117553563E+02 0.  0.
         23    2    4    4    0    0 -0.46729213573E+03  0.65604799947E+02  0.25117939850E+03  0.54237617895E+03  0.91732760649E+02 0.  0.
          4    1    3    3  502    0  0.28079685556E+03 -0.35397645103E+03 -0.22238160988E+03  0.50358691642E+03  0.00000000000E+00 0. -1.
         -3    1    3    3    0  502  0.10480940571E+03 -0.93823765345E+02 -0.11135580154E+03  0.17941021433E+03  0.00000000000E+00 0.  1.
         11    1    5    5    0    0  0.40091966931E+02  0.85147093847E+02 -0.46767791097E+02  0.10509338555E+03  0.00000000000E+00 0. -1.
        -11    1    5    5    0    0  0.41593907530E+02  0.29704832258E+03 -0.31639683026E+03  0.43597558796E+03  0.00000000000E+00 0.  1.
          1    1    6    6  503    0 -0.86744412771E+02  0.48353125154E+02  0.42476112743E+02  0.10801313815E+03  0.00000000000E+00 0. -1.
         -1    1    6    6    0  503 -0.38054772296E+03  0.17251674793E+02  0.20870328576E+03  0.43436304080E+03  0.00000000000E+00 0.  1.
<mgrwt>
<rscale>  0 0.17092834E+04</rscale>
<asrwt>0</asrwt>
<pdfrwt beam="1">  1        2 0.17016653E+00 0.17092834E+04</pdfrwt>
<pdfrwt beam="2">  1       -1 0.10159382E+00 0.17092834E+04</pdfrwt>
<totfact> 0.21531488E+01</totfact>
</mgrwt>
</event>
<event>
12    6  0.9491186E-008  0.1591824E+04  0.7818608E-02  0.8825587E-01
          2   -1    0    0  501    0  0.00000000000E+00  0.00000000000E+00  0.21220833014E+04  0.21220833014E+04  0.00000000000E+00 0. -1.
         -1   -1    0    0    0  501 -0.00000000000E+00 -0.00000000000E+00 -0.29851594725E+03  0.29851594725E+03  0.00000000000E+00 0.  1.
         24    2    1    2    0    0  0.21547364278E+03 -0.32702595943E+03  0.11958731671E+04  0.12609921826E+04  0.81325173742E+02 0.  0.
        254    2    1    2    0    0 -0.21547364278E+03  0.32702595943E+03  0.62769418705E+03  0.11596070661E+04  0.89292423325E+03 0.  0.
         23    2    4    4    0    0 -0.40198130645E+03 -0.15563560859E+03  0.21060941568E+03  0.48854510184E+03  0.92241949034E+02 0.  0.
         23    2    4    4    0    0  0.18650766367E+03  0.48266156802E+03  0.41708477136E+03  0.67106196421E+03  0.92828634889E+02 0.  0.
          4    1    3    3  502    0  0.13039272009E+03 -0.25503390533E+03  0.91615452460E+03  0.95988732009E+03  0.00000000000E+00 0. -1.
         -3    1    3    3    0  502  0.85080922686E+02 -0.71992054103E+02  0.27971864248E+03  0.30110486248E+03  0.00000000000E+00 0.  1.
         11    1    5    5    0    0 -0.10221952714E+03 -0.80176716324E+02  0.42567865129E+02  0.13670830520E+03  0.00000000000E+00 0.  1.
        -11    1    5    5    0    0 -0.29976177931E+03 -0.75458892265E+02  0.16804155055E+03  0.35183679664E+03  0.00000000000E+00 0. -1.
          2    1    6    6  503    0  0.82603673518E+02  0.10274640907E+03  0.10372348185E+03  0.16774609427E+03  0.00000000000E+00 0. -1.
         -2    1    6    6    0  503  0.10390399016E+03  0.37991515895E+03  0.31336128951E+03  0.50331586994E+03  0.00000000000E+00 0.  1.
<mgrwt>
<rscale>  0 0.15918237E+04</rscale>
<asrwt>0</asrwt>
<pdfrwt beam="1">  1        2 0.32647435E+00 0.15918237E+04</pdfrwt>
<pdfrwt beam="2">  1       -1 0.45925532E-01 0.15918237E+04</pdfrwt>
<totfact> 0.29438753E+01</totfact>
</mgrwt>
</event>
<event>
12    6  0.9491186E-008  0.2038226E+04  0.7818608E-02  0.8588954E-01
          2   -1    0    0  501    0  0.00000000000E+00  0.00000000000E+00  0.27850031887E+04  0.27850031887E+04  0.00000000000E+00 0. -1.
         -1   -1    0    0    0  501 -0.00000000000E+00 -0.00000000000E+00 -0.37292300727E+03  0.37292300727E+03  0.00000000000E+00 0.  1.
         24    2    1    2    0    0 -0.57090809350E+03 -0.36447381964E+03  0.16704908874E+04  0.18042306955E+04  0.77015459970E+02 0.  0.
        254    2    1    2    0    0  0.57090809350E+03  0.36447381964E+03  0.74158929402E+03  0.13536955005E+04  0.90761203753E+03 0.  0.
         23    2    4    4    0    0  0.48566821162E+03 -0.17001985634E+03  0.14673866234E+03  0.54457761212E+03  0.10125303591E+03 0.  0.
         23    2    4    4    0    0  0.85239881883E+02  0.53449367598E+03  0.59485063168E+03  0.80911788838E+03  0.88742076623E+02 0.  0.
          2    1    3    3  502    0 -0.44489229261E+03 -0.26574423866E+03  0.11953812685E+04  0.13028758688E+04  0.00000000000E+00 0. -1.
         -1    1    3    3    0  502 -0.12601580089E+03 -0.98729580986E+02  0.47510961895E+03  0.50135482670E+03  0.00000000000E+00 0.  1.
         11    1    5    5    0    0  0.23211658845E+03 -0.13350137776E+03  0.63135513349E+02  0.27511237985E+03  0.00000000000E+00 0. -1.
        -11    1    5    5    0    0  0.25355162316E+03 -0.36518478573E+02  0.83603148986E+02  0.26946523228E+03  0.00000000000E+00 0.  1.
          3    1    6    6  503    0  0.79821609959E+02  0.34457505787E+03  0.43628544074E+03  0.56164797313E+03  0.00000000000E+00 0. -1.
         -3    1    6    6    0  503  0.54182719246E+01  0.18991861811E+03  0.15856519094E+03  0.24746991525E+03  0.00000000000E+00 0.  1.
<mgrwt>
<rscale>  0 0.20382264E+04</rscale>
<asrwt>0</asrwt>
<pdfrwt beam="1">  1        2 0.42846202E+00 0.20382264E+04</pdfrwt>
<pdfrwt beam="2">  1       -1 0.57372772E-01 0.20382264E+04</pdfrwt>
<totfact> 0.76679401E+00</totfact>
</mgrwt>
</event>
<event>
12    6  0.9491186E-008  0.2555364E+04  0.7818608E-02  0.8383523E-01
          2   -1    0    0  501    0  0.00000000000E+00  0.00000000000E+00  0.31835727644E+04  0.31835727644E+04  0.00000000000E+00 0. -1.
         -1   -1    0    0    0  501 -0.00000000000E+00 -0.00000000000E+00 -0.51277961700E+03  0.51277961700E+03  0.00000000000E+00 0.  1.
         24    2    1    2    0    0  0.35214437408E+02 -0.91462379501E+03  0.20936264294E+04  0.22864064438E+04  0.81277655780E+02 0.  0.
        254    2    1    2    0    0 -0.35214437408E+02  0.91462379501E+03  0.57716671803E+03  0.14099459376E+04  0.90390784025E+03 0.  0.
         23    2    4    4    0    0  0.28396348112E+03  0.74304905011E+03  0.64708176830E+03  0.10290818139E+04  0.86818288933E+02 0.  0.
         23    2    4    4    0    0 -0.31917791853E+03  0.17157474490E+03 -0.69915050276E+02  0.38086412376E+03  0.94111262625E+02 0.  0.
          4    1    3    3  502    0  0.33212579024E+02 -0.54679034479E+03  0.13455295405E+04  0.14527671874E+04  0.00000000000E+00 0. -1.
         -3    1    3    3    0  502  0.20018583840E+01 -0.36783345023E+03  0.74809688888E+03  0.83363925633E+03  0.00000000000E+00 0.  1.
         11    1    5    5    0    0 -0.47794773049E+01  0.37733979630E+02  0.29271010590E+02  0.47994673486E+02  0.00000000000E+00 0. -1.
        -11    1    5    5    0    0  0.28874295842E+03  0.70531507048E+03  0.61781075771E+03  0.98108714039E+03  0.00000000000E+00 0.  1.
          4    1    6    6  503    0  0.28094825361E+01  0.46590439032E+01  0.82253765119E+01  0.98618812088E+01  0.00000000000E+00 0. -1.
         -4    1    6    6    0  503 -0.32198740106E+03  0.16691570100E+03 -0.78140426788E+02  0.37100224256E+03  0.00000000000E+00 0.  1.
<mgrwt>
<rscale>  0 0.25553639E+04</rscale>
<asrwt>0</asrwt>
<pdfrwt beam="1">  1        2 0.48978041E+00 0.25553639E+04</pdfrwt>
<pdfrwt beam="2">  1       -1 0.78889174E-01 0.25553639E+04</pdfrwt>
<totfact> 0.21569329E+00</totfact>
</mgrwt>
</event>
<event>
12    6  0.9491186E-008  0.1180592E+04  0.7818608E-02  0.9130016E-01
          2   -1    0    0  501    0  0.00000000000E+00  0.00000000000E+00  0.84745101532E+03  0.84745101532E+03  0.00000000000E+00 0. -1.
         -1   -1    0    0    0  501 -0.00000000000E+00 -0.00000000000E+00 -0.41117321782E+03  0.41117321782E+03  0.00000000000E+00 0.  1.
         24    2    1    2    0    0  0.36153469890E+02  0.15602160467E+03 -0.95335661861E+02  0.20371029095E+03  0.82214230566E+02 0.  0.
        254    2    1    2    0    0 -0.36153469890E+02 -0.15602160467E+03  0.53161345936E+03  0.10549139422E+04  0.89698424776E+03 0.  0.
         23    2    4    4    0    0  0.21412510215E+03 -0.44950365409E+03  0.22423122272E+03  0.55344296358E+03  0.90090944528E+02 0.  0.
         23    2    4    4    0    0 -0.25027857204E+03  0.29348204942E+03  0.30738223664E+03  0.50147097860E+03  0.90654431890E+02 0.  0.
          4    1    3    3  502    0  0.92300523984E-01  0.23488413581E+02  0.14707508824E+02  0.27713262308E+02  0.00000000000E+00 0. -1.
         -3    1    3    3    0  502  0.36061169366E+02  0.13253319109E+03 -0.11004317069E+03  0.17599702864E+03  0.00000000000E+00 0.  1.
         11    1    5    5    0    0  0.16041695867E+03 -0.23284339806E+03  0.12720596100E+03  0.31005000430E+03  0.00000000000E+00 0.  1.
        -11    1    5    5    0    0  0.53708143479E+02 -0.21666025603E+03  0.97025261722E+02  0.24339295929E+03  0.00000000000E+00 0. -1.
          2    1    6    6  503    0 -0.24864236620E+03  0.29991427115E+03  0.30247932359E+03  0.49321936043E+03  0.00000000000E+00 0. -1.
         -2    1    6    6    0  503 -0.16362058421E+01 -0.64322217308E+01  0.49029130504E+01  0.82516181644E+01  0.00000000000E+00 0.  1.
<mgrwt>
<rscale>  0 0.11805916E+04</rscale>
<asrwt>0</asrwt>
<pdfrwt beam="1">  1        2 0.13037708E+00 0.11805916E+04</pdfrwt>
<pdfrwt beam="2">  1       -1 0.63257418E-01 0.11805916E+04</pdfrwt>
<totfact> 0.91100411E+01</totfact>
</mgrwt>
</event>
<event>
12    6  0.9491186E-008  0.1605263E+04  0.7818608E-02  0.8817321E-01
         -3   -1    0    0    0  501 -0.00000000000E+00  0.00000000000E+00  0.54478217734E+03  0.54478217734E+03  0.00000000000E+00 0.  1.
          2   -1    0    0  501    0  0.00000000000E+00 -0.00000000000E+00 -0.11825227951E+04  0.11825227951E+04  0.00000000000E+00 0. -1.
         24    2    1    2    0    0 -0.25546974884E+03  0.43048752028E+03 -0.52418729352E+03  0.72917899094E+03  0.79657921405E+02 0.  0.
        254    2    1    2    0    0  0.25546974884E+03 -0.43048752028E+03 -0.11355332423E+03  0.99812598150E+03  0.85602384302E+03 0.  0.
         23    2    4    4    0    0  0.14792583692E+03  0.19383371111E+03 -0.23175723916E+03  0.34796810896E+03  0.88976548366E+02 0.  0.
         23    2    4    4    0    0  0.10754391192E+03 -0.62432123139E+03  0.11820391493E+03  0.65015787254E+03  0.85967440168E+02 0.  0.
          4    1    3    3  502    0 -0.17020739676E+03  0.27559811245E+03 -0.28303198631E+03  0.43015344096E+03  0.00000000000E+00 0. -1.
         -3    1    3    3    0  502 -0.85262352079E+02  0.15488940783E+03 -0.24115530721E+03  0.29902554997E+03  0.00000000000E+00 0.  1.
         11    1    5    5    0    0  0.28569775588E+02  0.76483130489E+01 -0.29079735998E+01  0.29718429973E+02  0.00000000000E+00 0. -1.
        -11    1    5    5    0    0  0.11935606134E+03  0.18618539806E+03 -0.22884926556E+03  0.31824967899E+03  0.00000000000E+00 0.  1.
          1    1    6    6  503    0  0.18057832354E+01 -0.40482361767E+02  0.29735228640E+02  0.50261976579E+02  0.00000000000E+00 0. -1.
         -1    1    6    6    0  503  0.10573812868E+03 -0.58383886962E+03  0.88468686288E+02  0.59989589596E+03  0.00000000000E+00 0.  1.
<mgrwt>
<rscale>  0 0.16052630E+04</rscale>
<asrwt>0</asrwt>
<pdfrwt beam="1">  1        2 0.18192658E+00 0.16052630E+04</pdfrwt>
<pdfrwt beam="2">  1       -3 0.83812644E-01 0.16052630E+04</pdfrwt>
<totfact> 0.15494922E+01</totfact>
</mgrwt>
</event>
<event>
12    6  0.9491186E-008  0.2502535E+04  0.7818608E-02  0.8402083E-01
          2   -1    0    0  501    0  0.00000000000E+00  0.00000000000E+00  0.28649932580E+04  0.28649932580E+04  0.00000000000E+00 0. -1.
         -1   -1    0    0    0  501 -0.00000000000E+00 -0.00000000000E+00 -0.54648295457E+03  0.54648295457E+03  0.00000000000E+00 0.  1.
         24    2    1    2    0    0  0.25022871442E+03  0.73179318863E+03  0.20522273265E+04  0.21945660319E+04  0.79670498493E+02 0.  0.
        254    2    1    2    0    0 -0.25022871442E+03 -0.73179318863E+03  0.26628297699E+03  0.12169101807E+04  0.90101502965E+03 0.  0.
         23    2    4    4    0    0  0.42617438670E+02  0.82353816645E+01 -0.24551103607E+03  0.26620342387E+03  0.93298051732E+02 0.  0.
         23    2    4    4    0    0 -0.29284615309E+03 -0.74002857029E+03  0.51179401306E+03  0.95070675685E+03  0.92244628452E+02 0.  0.
          2    1    3    3  502    0  0.11944286010E+03  0.33653432967E+03  0.10598518156E+04  0.11183951998E+04  0.00000000000E+00 0. -1.
         -1    1    3    3    0  502  0.13078585433E+03  0.39525885896E+03  0.99237551088E+03  0.10761708321E+04  0.00000000000E+00 0.  1.
         11    1    5    5    0    0 -0.29256109698E+02 -0.21571479822E+01 -0.87913939811E+02  0.92679199690E+02  0.00000000000E+00 0. -1.
        -11    1    5    5    0    0  0.71873548367E+02  0.10392529647E+02 -0.15759709626E+03  0.17352422418E+03  0.00000000000E+00 0.  1.
          4    1    6    6  503    0 -0.16100901870E+02 -0.13341478432E+03  0.81873630182E+02  0.15735957243E+03  0.00000000000E+00 0. -1.
         -4    1    6    6    0  503 -0.27674525122E+03 -0.60661378597E+03  0.42992038288E+03  0.79334718441E+03  0.00000000000E+00 0.  1.
<mgrwt>
<rscale>  0 0.25025347E+04</rscale>
<asrwt>0</asrwt>
<pdfrwt beam="1">  1        2 0.44076819E+00 0.25025347E+04</pdfrwt>
<pdfrwt beam="2">  1       -1 0.84074302E-01 0.25025347E+04</pdfrwt>
<totfact> 0.30012805E+00</totfact>
</mgrwt>
</event>
<event>
12    6  0.9491186E-008  0.2230616E+04  0.7818608E-02  0.8505792E-01
         -1   -1    0    0    0  501 -0.00000000000E+00  0.00000000000E+00  0.42083478621E+03  0.42083478621E+03  0.00000000000E+00 0.  1.
          2   -1    0    0  501    0  0.00000000000E+00 -0.00000000000E+00 -0.29558202269E+04  0.29558202269E+04  0.00000000000E+00 0. -1.
         24    2    1    2    0    0  0.77777226325E+03  0.61570070061E+02 -0.29937550156E+03  0.84009162824E+03  0.86067914381E+02 0.  0.
        254    2    1    2    0    0 -0.77777226325E+03 -0.61570070061E+02 -0.22356099391E+04  0.25365633849E+04  0.90966006755E+03 0.  0.
         23    2    4    4    0    0 -0.51674481956E+03  0.34865440058E+03 -0.16713937632E+04  0.17861942914E+04  0.91366489745E+02 0.  0.
         23    2    4    4    0    0 -0.26102744370E+03 -0.41022447064E+03 -0.56421617591E+03  0.75036909343E+03  0.91073819193E+02 0.  0.
          4    1    3    3  502    0  0.42040410958E+03  0.44572517937E+01 -0.12669708152E+03  0.43910321442E+03  0.00000000000E+00 0. -1.
         -3    1    3    3    0  502  0.35736815367E+03  0.57112818267E+02 -0.17267842004E+03  0.40098841382E+03  0.00000000000E+00 0.  1.
         11    1    5    5    0    0 -0.21524843511E+03  0.19917916840E+03 -0.75347729995E+03  0.80853711818E+03  0.00000000000E+00 0. -1.
        -11    1    5    5    0    0 -0.30149638445E+03  0.14947523218E+03 -0.91791646328E+03  0.97765717326E+03  0.00000000000E+00 0.  1.
          1    1    6    6  503    0 -0.19103912194E+03 -0.22049779068E+03 -0.35293754825E+03  0.45790843492E+03  0.00000000000E+00 0. -1.
         -1    1    6    6    0  503 -0.69988321757E+02 -0.18972667995E+03 -0.21127862766E+03  0.29246065851E+03  0.00000000000E+00 0.  1.
<mgrwt>
<rscale>  0 0.22306160E+04</rscale>
<asrwt>0</asrwt>
<pdfrwt beam="1">  1        2 0.45474156E+00 0.22306160E+04</pdfrwt>
<pdfrwt beam="2">  1       -1 0.64743816E-01 0.22306160E+04</pdfrwt>
<totfact> 0.46603046E+00</totfact>
</mgrwt>
</event>
<event>
12    6  0.9491186E-008  0.1695077E+04  0.7818608E-02  0.8764177E-01
         -1   -1    0    0    0  501 -0.00000000000E+00  0.00000000000E+00  0.62016987606E+03  0.62016987606E+03  0.00000000000E+00 0.  1.
          2   -1    0    0  501    0  0.00000000000E+00 -0.00000000000E+00 -0.11582657027E+04  0.11582657027E+04  0.00000000000E+00 0. -1.
         24    2    1    2    0    0 -0.36549427617E+03  0.90663677348E+01 -0.69908272160E+03  0.79253470132E+03  0.75672559181E+02 0.  0.
        254    2    1    2    0    0  0.36549427617E+03 -0.90663677348E+01  0.16098689501E+03  0.98590087740E+03  0.90134094257E+03 0.  0.
         23    2    4    4    0    0  0.30001944850E+01  0.13490234998E+03  0.45877374292E+03  0.48696578798E+03  0.91949367978E+02 0.  0.
         23    2    4    4    0    0  0.36249408168E+03 -0.14396871772E+03 -0.29778684791E+03  0.49893508942E+03  0.90167986156E+02 0.  0.
          4    1    3    3  502    0 -0.21311962857E+03 -0.20566522553E+02 -0.34682701456E+03  0.40759285563E+03  0.00000000000E+00 0. -1.
         -3    1    3    3    0  502 -0.15237464760E+03  0.29632890288E+02 -0.35225570704E+03  0.38494184569E+03  0.00000000000E+00 0.  1.
         11    1    5    5    0    0 -0.11388191136E+01 -0.19495529793E+01  0.14018400250E+03  0.14020218338E+03  0.00000000000E+00 0. -1.
        -11    1    5    5    0    0  0.41390135985E+01  0.13685190296E+03  0.31858974042E+03  0.34676360460E+03  0.00000000000E+00 0.  1.
          3    1    6    6  503    0  0.27661048224E+03 -0.66835379573E+02 -0.22074849700E+03  0.36015305881E+03  0.00000000000E+00 0. -1.
         -3    1    6    6    0  503  0.85883599446E+02 -0.77133338146E+02 -0.77038350910E+02  0.13878203060E+03  0.00000000000E+00 0.  1.
<mgrwt>
<rscale>  0 0.16950770E+04</rscale>
<asrwt>0</asrwt>
<pdfrwt beam="1">  1        2 0.17819472E+00 0.16950770E+04</pdfrwt>
<pdfrwt beam="2">  1       -1 0.95410750E-01 0.16950770E+04</pdfrwt>
<totfact> 0.23105912E+01</totfact>
</mgrwt>
</event>
<event>
12    6  0.9491186E-008  0.1847425E+04  0.7818608E-02  0.8681478E-01
         -1   -1    0    0    0  501 -0.00000000000E+00  0.00000000000E+00  0.39091414016E+03  0.39091414016E+03  0.00000000000E+00 0.  1.
          2   -1    0    0  501    0  0.00000000000E+00 -0.00000000000E+00 -0.21826913360E+04  0.21826913360E+04  0.00000000000E+00 0. -1.
         24    2    1    2    0    0  0.26706945049E+03  0.63941995424E+03 -0.85177286061E+03  0.11009367102E+04  0.79753773642E+02 0.  0.
        254    2    1    2    0    0 -0.26706945049E+03 -0.63941995424E+03 -0.94000433522E+03  0.14726687660E+04  0.89719628557E+03 0.  0.
         23    2    4    4    0    0 -0.21038504619E+03 -0.67293245201E+03 -0.22081160451E+03  0.74451833339E+03  0.91922964721E+02 0.  0.
         23    2    4    4    0    0 -0.56684404291E+02  0.33512497763E+02 -0.71919273070E+03  0.72815043260E+03  0.92890577597E+02 0.  0.
          4    1    3    3  502    0  0.13972116338E+03  0.23551620633E+03 -0.32230211386E+03  0.42292852769E+03  0.00000000000E+00 0. -1.
         -3    1    3    3    0  502  0.12734828711E+03  0.40390374792E+03 -0.52947074675E+03  0.67800818246E+03  0.00000000000E+00 0.  1.
         11    1    5    5    0    0 -0.19124834225E+03 -0.65120921063E+03 -0.22549782561E+03  0.71519132670E+03  0.00000000000E+00 0. -1.
        -11    1    5    5    0    0 -0.19136703944E+02 -0.21723241374E+02  0.46862210945E+01  0.29327006697E+02  0.00000000000E+00 0.  1.
          4    1    6    6  503    0  0.27563223615E+01  0.45790228015E+02 -0.44291158079E+03  0.44528082229E+03  0.00000000000E+00 0. -1.
         -4    1    6    6    0  503 -0.59440726652E+02 -0.12277730251E+02 -0.27628114991E+03  0.28286961032E+03  0.00000000000E+00 0.  1.
<mgrwt>
<rscale>  0 0.18474251E+04</rscale>
<asrwt>0</asrwt>
<pdfrwt beam="1">  1        2 0.33579866E+00 0.18474251E+04</pdfrwt>
<pdfrwt beam="2">  1       -1 0.60140638E-01 0.18474251E+04</pdfrwt>
<totfact> 0.15857737E+01</totfact>
</mgrwt>
</event>
<event>
12    6  0.9491186E-008  0.1868041E+04  0.7818608E-02  0.8670930E-01
         -1   -1    0    0    0  501 -0.00000000000E+00  0.00000000000E+00  0.44138434556E+03  0.44138434556E+03  0.00000000000E+00 0.  1.
          2   -1    0    0  501    0  0.00000000000E+00 -0.00000000000E+00 -0.19764958804E+04  0.19764958804E+04  0.00000000000E+00 0. -1.
         24    2    1    2    0    0 -0.43621300581E+03  0.55160266819E+03 -0.65431105479E+03  0.96375675930E+03  0.78465563718E+02 0.  0.
        254    2    1    2    0    0  0.43621300581E+03 -0.55160266819E+03 -0.88080048004E+03  0.14541234666E+04  0.91875909824E+03 0.  0.
         23    2    4    4    0    0 -0.28088944339E+03 -0.14917726711E+03 -0.26938127470E+03  0.42533444138E+03  0.84796105032E+02 0.  0.
         23    2    4    4    0    0  0.71710244920E+03 -0.40242540108E+03 -0.61141920534E+03  0.10287890253E+04  0.91603972437E+02 0.  0.
          2    1    3    3  502    0 -0.24984278638E+03  0.31630103561E+03 -0.32157346790E+03  0.51563287162E+03  0.00000000000E+00 0. -1.
         -1    1    3    3    0  502 -0.18637021942E+03  0.23530163258E+03 -0.33273758689E+03  0.44812388769E+03  0.00000000000E+00 0.  1.
         11    1    5    5    0    0 -0.26485799659E+02 -0.47309424942E+02 -0.56653675320E+02  0.78417588583E+02  0.00000000000E+00 0.  1.
        -11    1    5    5    0    0 -0.25440364373E+03 -0.10186784217E+03 -0.21272759938E+03  0.34691685279E+03  0.00000000000E+00 0. -1.
          1    1    6    6  503    0  0.37536579090E+03 -0.18032091773E+03 -0.26247728391E+03  0.49224936254E+03  0.00000000000E+00 0. -1.
         -1    1    6    6    0  503  0.34173665830E+03 -0.22210448335E+03 -0.34894192143E+03  0.53653966273E+03  0.00000000000E+00 0.  1.
<mgrwt>
<rscale>  0 0.18680410E+04</rscale>
<asrwt>0</asrwt>
<pdfrwt beam="1">  1        2 0.30407629E+00 0.18680410E+04</pdfrwt>
<pdfrwt beam="2">  1       -1 0.67905284E-01 0.18680410E+04</pdfrwt>
<totfact> 0.16165428E+01</totfact>
</mgrwt>
</event>
<event>
12    6  0.9491186E-008  0.1425175E+04  0.7818608E-02  0.8935794E-01
         -1   -1    0    0    0  501 -0.00000000000E+00  0.00000000000E+00  0.12368414358E+04  0.12368414358E+04  0.00000000000E+00 0.  1.
          2   -1    0    0  501    0  0.00000000000E+00 -0.00000000000E+00 -0.41054675019E+03  0.41054675019E+03  0.00000000000E+00 0. -1.
         24    2    1    2    0    0  0.22818132813E+03  0.10909004171E+03  0.65802731618E+03  0.70946367945E+03  0.79821099376E+02 0.  0.
        254    2    1    2    0    0 -0.22818132813E+03 -0.10909004171E+03  0.16826736938E+03  0.93792450651E+03  0.88736752059E+03 0.  0.
         23    2    4    4    0    0 -0.21874001446E+03 -0.24907609226E+03 -0.29036198239E+03  0.44956810168E+03  0.88967991845E+02 0.  0.
         23    2    4    4    0    0 -0.94413136762E+01  0.13998605055E+03  0.45862935177E+03  0.48835640483E+03  0.92010124859E+02 0.  0.
          2    1    3    3  502    0  0.42656379985E+02  0.15786253992E+01  0.18878120950E+03  0.19354690354E+03  0.00000000000E+00 0. -1.
         -3    1    3    3    0  502  0.18552494815E+03  0.10751141631E+03  0.46924610668E+03  0.51591677590E+03  0.00000000000E+00 0.  1.
         11    1    5    5    0    0 -0.76061763204E+01 -0.58546463836E+01  0.64645924519E+01  0.11572456872E+02  0.00000000000E+00 0.  1.
        -11    1    5    5    0    0 -0.21113383814E+03 -0.24322144588E+03 -0.29682657484E+03  0.43799564481E+03  0.00000000000E+00 0. -1.
          2    1    6    6  503    0  0.60197134225E+01  0.11373004607E+03  0.43538007502E+03  0.45002952131E+03  0.00000000000E+00 0. -1.
         -2    1    6    6    0  503 -0.15461027099E+02  0.26256004485E+02  0.23249276749E+02  0.38326883513E+02  0.00000000000E+00 0.  1.
<mgrwt>
<rscale>  0 0.14251754E+04</rscale>
<asrwt>0</asrwt>
<pdfrwt beam="1">  1        2 0.63161039E-01 0.14251754E+04</pdfrwt>
<pdfrwt beam="2">  1       -1 0.19028330E+00 0.14251754E+04</pdfrwt>
<totfact> 0.15093564E+01</totfact>
</mgrwt>
</event>
<event>
12    6  0.9491186E-008  0.2487894E+04  0.7818608E-02  0.8407311E-01
          2   -1    0    0  501    0  0.00000000000E+00  0.00000000000E+00  0.11220081652E+04  0.11220081652E+04  0.00000000000E+00 0. -1.
         -1   -1    0    0    0  501 -0.00000000000E+00 -0.00000000000E+00 -0.13791385689E+04  0.13791385689E+04  0.00000000000E+00 0.  1.
         24    2    1    2    0    0  0.61253173504E+03  0.55532091720E+03 -0.80888110184E+03  0.11609711078E+04  0.99944128023E+02 0.  0.
        254    2    1    2    0    0 -0.61253173504E+03 -0.55532091720E+03  0.55175069810E+03  0.13401756263E+04  0.89892459577E+03 0.  0.
         23    2    4    4    0    0 -0.77181556158E+03 -0.49636993250E+03  0.64580216133E+03  0.11256639563E+04  0.89311477221E+02 0.  0.
         23    2    4    4    0    0  0.15928382654E+03 -0.58950984707E+02 -0.94051463235E+02  0.21451166996E+03  0.91230602430E+02 0.  0.
          4    1    3    3  502    0  0.30802947685E+03  0.23708336221E+03 -0.43361254699E+03  0.58233196730E+03  0.00000000000E+00 0. -1.
         -3    1    3    3    0  502  0.30450225819E+03  0.31823755500E+03 -0.37526855486E+03  0.57863914050E+03  0.00000000000E+00 0.  1.
         11    1    5    5    0    0 -0.55213216888E+03 -0.40107918304E+03  0.48505795977E+03  0.83725484013E+03  0.00000000000E+00 0. -1.
        -11    1    5    5    0    0 -0.21968339269E+03 -0.95290749459E+02  0.16074420156E+03  0.28840911617E+03  0.00000000000E+00 0.  1.
          2    1    6    6  503    0  0.87098902776E+02 -0.45248464634E+02 -0.39230956685E+01  0.98229491988E+02  0.00000000000E+00 0.  1.
         -2    1    6    6    0  503  0.72184923762E+02 -0.13702520073E+02 -0.90128367566E+02  0.11628217798E+03  0.00000000000E+00 0. -1.
<mgrwt>
<rscale>  0 0.24878945E+04</rscale>
<asrwt>0</asrwt>
<pdfrwt beam="1">  1        2 0.17261664E+00 0.24878945E+04</pdfrwt>
<pdfrwt beam="2">  1       -1 0.21217516E+00 0.24878945E+04</pdfrwt>
<totfact> 0.26702840E+00</totfact>
</mgrwt>
</event>
<event>
12    6  0.9491186E-008  0.1260515E+04  0.7818608E-02  0.9061477E-01
         -1   -1    0    0    0  501 -0.00000000000E+00  0.00000000000E+00  0.21062085288E+03  0.21062085288E+03  0.00000000000E+00 0.  1.
          2   -1    0    0  501    0  0.00000000000E+00 -0.00000000000E+00 -0.18859687081E+04  0.18859687081E+04  0.00000000000E+00 0. -1.
         24    2    1    2    0    0  0.21186492008E+02 -0.16294591624E+03  0.67970360904E+01  0.18267501795E+03  0.79521842413E+02 0.  0.
        254    2    1    2    0    0 -0.21186492008E+02  0.16294591624E+03 -0.16821448913E+04  0.19139145430E+04  0.89802962290E+03 0.  0.
         23    2    4    4    0    0 -0.32033780540E+03  0.22686920897E+03 -0.14861079234E+04  0.15397519885E+04  0.90738516800E+02 0.  0.
         23    2    4    4    0    0  0.29915131340E+03 -0.63923292728E+02 -0.19603696789E+03  0.37416255455E+03  0.89383604689E+02 0.  0.
          2    1    3    3  502    0 -0.30481005774E+02 -0.60982828020E+02  0.16946284868E+00  0.68176431001E+02  0.00000000000E+00 0. -1.
         -1    1    3    3    0  502  0.51667497782E+02 -0.10196308822E+03  0.66275732417E+01  0.11449858695E+03  0.00000000000E+00 0.  1.
         11    1    5    5    0    0 -0.17802488959E+02  0.48466554426E+02 -0.19751687810E+03  0.20415399248E+03  0.00000000000E+00 0. -1.
        -11    1    5    5    0    0 -0.30253531645E+03  0.17840265455E+03 -0.12885910453E+04  0.13355979960E+04  0.00000000000E+00 0.  1.
          4    1    6    6  503    0  0.19146196048E+03 -0.80411215244E+02 -0.10784596561E+03  0.23399657721E+03  0.00000000000E+00 0. -1.
         -4    1    6    6    0  503  0.10768935292E+03  0.16487922516E+02 -0.88191002274E+02  0.14016597733E+03  0.00000000000E+00 0.  1.
<mgrwt>
<rscale>  0 0.12605147E+04</rscale>
<asrwt>0</asrwt>
<pdfrwt beam="1">  1        2 0.29014904E+00 0.12605147E+04</pdfrwt>
<pdfrwt beam="2">  1       -1 0.32403208E-01 0.12605147E+04</pdfrwt>
<totfact> 0.77113010E+01</totfact>
</mgrwt>
</event>
<event>
12    6  0.9491186E-008  0.1173033E+04  0.7818608E-02  0.9136794E-01
          2   -1    0    0  501    0  0.00000000000E+00  0.00000000000E+00  0.21708651638E+04  0.21708651638E+04  0.00000000000E+00 0. -1.
         -1   -1    0    0    0  501 -0.00000000000E+00 -0.00000000000E+00 -0.15846296784E+03  0.15846296784E+03  0.00000000000E+00 0.  1.
         24    2    1    2    0    0  0.10953309994E+03  0.18686141066E+03  0.30759591828E+03  0.38881255061E+03  0.98210303879E+02 0.  0.
        254    2    1    2    0    0 -0.10953309994E+03 -0.18686141066E+03  0.17048062777E+04  0.19405155810E+04  0.90128884884E+03 0.  0.
         23    2    4    4    0    0 -0.83257469702E+02  0.35387854591E+03  0.74124254264E+03  0.83117297413E+03  0.96157029853E+02 0.  0.
         23    2    4    4    0    0 -0.26275630241E+02 -0.54073995657E+03  0.96356373505E+03  0.11093426069E+04  0.95372106177E+02 0.  0.
          4    1    3    3  502    0  0.24591192214E+02  0.26124620008E+02  0.12925619356E+03  0.13414315517E+03  0.00000000000E+00 0. -1.
         -3    1    3    3    0  502  0.84941907730E+02  0.16073679065E+03  0.17833972472E+03  0.25466939544E+03  0.00000000000E+00 0.  1.
         11    1    5    5    0    0 -0.48945767029E+02  0.29842306311E+03  0.66702587544E+03  0.73237663207E+03  0.00000000000E+00 0.  1.
        -11    1    5    5    0    0 -0.34311702674E+02  0.55455482803E+02  0.74216667201E+02  0.98796342056E+02  0.00000000000E+00 0. -1.
          1    1    6    6  503    0  0.32839390769E+02 -0.22843688599E+03  0.43994837753E+03  0.49680621107E+03  0.00000000000E+00 0. -1.
         -1    1    6    6    0  503 -0.59115021010E+02 -0.31230307058E+03  0.52361535752E+03  0.61253639585E+03  0.00000000000E+00 0.  1.
<mgrwt>
<rscale>  0 0.11730332E+04</rscale>
<asrwt>0</asrwt>
<pdfrwt beam="1">  1        2 0.33397924E+00 0.11730332E+04</pdfrwt>
<pdfrwt beam="2">  1       -1 0.24378920E-01 0.11730332E+04</pdfrwt>
<totfact> 0.88567527E+01</totfact>
</mgrwt>
</event>
<event>
12    6  0.1447245E-007  0.2055431E+04  0.7818608E-02  0.8581135E-01
         -1   -1    0    0    0  501 -0.00000000000E+00  0.00000000000E+00  0.55528798923E+03  0.55528798923E+03  0.00000000000E+00 0.  1.
          2   -1    0    0  501    0  0.00000000000E+00 -0.00000000000E+00 -0.19020740091E+04  0.19020740091E+04  0.00000000000E+00 0. -1.
         24    2    1    2    0    0  0.24826380137E+03  0.45497579930E+03 -0.13098057827E+04  0.14111515509E+04  0.84377830977E+02 0.  0.
        254    2    1    2    0    0 -0.24826380137E+03 -0.45497579930E+03 -0.36980237190E+02  0.10462104474E+04  0.90804783424E+03 0.  0.
         23    2    4    4    0    0 -0.58226791202E+02  0.17037167051E+03 -0.27754731477E+03  0.34372784528E+03  0.93270865536E+02 0.  0.
         23    2    4    4    0    0 -0.19003701017E+03 -0.62534746981E+03  0.24056707758E+03  0.70248260212E+03  0.91846416568E+02 0.  0.
          2    1    3    3  502    0  0.24652321361E+03  0.45876932132E+03 -0.13019860831E+04  0.14022876829E+04  0.00000000000E+00 0. -1.
         -1    1    3    3    0  502  0.17405877654E+01 -0.37935220200E+01 -0.78196995667E+01  0.88638680269E+01  0.00000000000E+00 0.  1.
         11    1    5    5    0    0 -0.85651886888E+01  0.93045459065E+02 -0.20945107045E+03  0.22934814327E+03  0.00000000000E+00 0. -1.
        -11    1    5    5    0    0 -0.49661602513E+02  0.77326211442E+02 -0.68096244319E+02  0.11437970200E+03  0.00000000000E+00 0.  1.
          2    1    6    6  503    0 -0.15855790925E+03 -0.49709081652E+03  0.22933524932E+03  0.56994258223E+03  0.00000000000E+00 0. -1.
         -2    1    6    6    0  503 -0.31479100920E+02 -0.12825665329E+03  0.11231828260E+02  0.13254001989E+03  0.00000000000E+00 0.  1.
<mgrwt>
<rscale>  0 0.20554307E+04</rscale>
<asrwt>0</asrwt>
<pdfrwt beam="1">  1        2 0.29262677E+00 0.20554307E+04</pdfrwt>
<pdfrwt beam="2">  1       -1 0.85428921E-01 0.20554307E+04</pdfrwt>
<totfact> 0.10799435E+01</totfact>
</mgrwt>
</event>
<event>
12    6  0.9491186E-008  0.2375510E+04  0.7818608E-02  0.8448729E-01
         -1   -1    0    0    0  501 -0.00000000000E+00  0.00000000000E+00  0.93104414727E+03  0.93104414727E+03  0.00000000000E+00 0.  1.
          2   -1    0    0  501    0  0.00000000000E+00 -0.00000000000E+00 -0.15152473179E+04  0.15152473179E+04  0.00000000000E+00 0. -1.
         24    2    1    2    0    0  0.88141993061E+03  0.50679307103E+03 -0.13089460477E+03  0.10284180609E+04  0.82280007034E+02 0.  0.
        254    2    1    2    0    0 -0.88141993061E+03 -0.50679307103E+03 -0.45330856590E+03  0.14178734043E+04  0.87814350979E+03 0.  0.
         23    2    4    4    0    0 -0.68349778831E+03 -0.54379064859E+03  0.37132442648E+02  0.87914019261E+03  0.92904057230E+02 0.  0.
         23    2    4    4    0    0 -0.19792214229E+03  0.36997577562E+02 -0.49044100855E+03  0.53873321168E+03  0.95703162680E+02 0.  0.
          4    1    3    3  502    0  0.68421368657E+03  0.39919971292E+03 -0.67652599836E+02  0.79503814623E+03  0.00000000000E+00 0. -1.
         -3    1    3    3    0  502  0.19720624403E+03  0.10759335810E+03 -0.63242004936E+02  0.23337991469E+03  0.00000000000E+00 0.  1.
         11    1    5    5    0    0 -0.29781850721E+02 -0.41949876746E+02 -0.14332655855E+02  0.53405765749E+02  0.00000000000E+00 0. -1.
        -11    1    5    5    0    0 -0.65371593759E+03 -0.50184077184E+03  0.51465098503E+02  0.82573442687E+03  0.00000000000E+00 0.  1.
          4    1    6    6  503    0 -0.83510970653E+02  0.45611079954E+02 -0.13449532036E+03  0.16475267534E+03  0.00000000000E+00 0. -1.
         -4    1    6    6    0  503 -0.11441117164E+03 -0.86135023920E+01 -0.35594568819E+03  0.37398053634E+03  0.00000000000E+00 0.  1.
<mgrwt>
<rscale>  0 0.23755102E+04</rscale>
<asrwt>0</asrwt>
<pdfrwt beam="1">  1        2 0.23311497E+00 0.23755102E+04</pdfrwt>
<pdfrwt beam="2">  1       -1 0.14323756E+00 0.23755102E+04</pdfrwt>
<totfact> 0.50411266E+00</totfact>
</mgrwt>
</event>
<event>
12    6  0.9491186E-008  0.1259951E+04  0.7818608E-02  0.9061942E-01
          2   -1    0    0  501    0  0.00000000000E+00  0.00000000000E+00  0.72885358369E+03  0.72885358369E+03  0.00000000000E+00 0. -1.
         -1   -1    0    0    0  501 -0.00000000000E+00 -0.00000000000E+00 -0.54451115361E+03  0.54451115361E+03  0.00000000000E+00 0.  1.
         24    2    1    2    0    0  0.67743698082E+02  0.27398695869E+03  0.20328965511E+01  0.29359465043E+03  0.80843205852E+02 0.  0.
        254    2    1    2    0    0 -0.67743698082E+02 -0.27398695869E+03  0.18230953354E+03  0.97977008687E+03  0.92035568937E+03 0.  0.
         23    2    4    4    0    0  0.15625405794E+03 -0.52858437987E+03 -0.46106468679E+02  0.56057421059E+03  0.91109065745E+02 0.  0.
         23    2    4    4    0    0 -0.22399775602E+03  0.25459742118E+03  0.22841600222E+03  0.41919587628E+03  0.92501194851E+02 0.  0.
          4    1    3    3  502    0 -0.16911302191E+02  0.26254364191E+02  0.58330700661E+01  0.31769615787E+02  0.00000000000E+00 0. -1.
         -3    1    3    3    0  502  0.84655000273E+02  0.24773259450E+03 -0.38001735150E+01  0.26182503464E+03  0.00000000000E+00 0.  1.
         11    1    5    5    0    0  0.12162193099E+03 -0.47592969709E+03 -0.63203482436E+02  0.49527330926E+03  0.00000000000E+00 0.  1.
        -11    1    5    5    0    0  0.34632126948E+02 -0.52654682779E+02  0.17097013757E+02  0.65300901333E+02  0.00000000000E+00 0. -1.
          1    1    6    6  503    0 -0.95925905034E+02  0.45204735559E+02  0.68453356761E+02  0.12621849874E+03  0.00000000000E+00 0. -1.
         -1    1    6    6    0  503 -0.12807185098E+03  0.20939268562E+03  0.15996264545E+03  0.29297737754E+03  0.00000000000E+00 0.  1.
<mgrwt>
<rscale>  0 0.12599506E+04</rscale>
<asrwt>0</asrwt>
<pdfrwt beam="1">  1        2 0.11213132E+00 0.12599506E+04</pdfrwt>
<pdfrwt beam="2">  1       -1 0.83770946E-01 0.12599506E+04</pdfrwt>
<totfact> 0.61745956E+01</totfact>
</mgrwt>
</event>
<event>
12    6  0.9491186E-008  0.1172320E+04  0.7818608E-02  0.9137436E-01
          2   -1    0    0  501    0  0.00000000000E+00  0.00000000000E+00  0.71646975256E+03  0.71646975256E+03  0.00000000000E+00 0. -1.
         -1   -1    0    0    0  501 -0.00000000000E+00 -0.00000000000E+00 -0.47955055696E+03  0.47955055696E+03  0.00000000000E+00 0.  1.
         24    2    1    2    0    0  0.55402626000E+02  0.23934476146E+03  0.11433286307E+03  0.28244769265E+03  0.79682681298E+02 0.  0.
        254    2    1    2    0    0 -0.55402626000E+02 -0.23934476146E+03  0.12258633253E+03  0.91357261687E+03  0.87133928614E+03 0.  0.
         23    2    4    4    0    0 -0.18421050023E+03 -0.53117045321E+03  0.12225276481E+03  0.58247629570E+03  0.90869894865E+02 0.  0.
         23    2    4    4    0    0  0.12880787423E+03  0.29182569175E+03  0.33356771421E+00  0.33109632117E+03  0.88718429847E+02 0.  0.
          4    1    3    3  502    0  0.68743798933E+02  0.21748211354E+03  0.11761395392E+03  0.25662661935E+03  0.00000000000E+00 0. -1.
         -3    1    3    3    0  502 -0.13341172933E+02  0.21862647918E+02 -0.32810908470E+01  0.25821073300E+02  0.00000000000E+00 0.  1.
         11    1    5    5    0    0 -0.35795477822E+02 -0.64489679242E+02 -0.11923034405E+02  0.74715418159E+02  0.00000000000E+00 0.  1.
        -11    1    5    5    0    0 -0.14841502240E+03 -0.46668077397E+03  0.13417579922E+03  0.50776087754E+03  0.00000000000E+00 0. -1.
          1    1    6    6  503    0 -0.34745231553E+01  0.23861982022E+02 -0.20338859823E+02  0.31545771762E+02  0.00000000000E+00 0.  1.
         -1    1    6    6    0  503  0.13228239738E+03  0.26796370973E+03  0.20672427537E+02  0.29955054940E+03  0.00000000000E+00 0. -1.
<mgrwt>
<rscale>  0 0.11723199E+04</rscale>
<asrwt>0</asrwt>
<pdfrwt beam="1">  1        2 0.11022612E+00 0.11723199E+04</pdfrwt>
<pdfrwt beam="2">  1       -1 0.73777009E-01 0.11723199E+04</pdfrwt>
<totfact> 0.83128732E+01</totfact>
</mgrwt>
</event>
<event>
12    6  0.1049253E-007  0.2909080E+04  0.7818608E-02  0.8270181E-01
          2   -1    0    0  501    0  0.00000000000E+00  0.00000000000E+00  0.14618832509E+04  0.14618832509E+04  0.00000000000E+00 0. -1.
         -1   -1    0    0    0  501 -0.00000000000E+00 -0.00000000000E+00 -0.14472338271E+04  0.14472338271E+04  0.00000000000E+00 0.  1.
         24    2    1    2    0    0  0.85914941604E+03 -0.60411276507E+03 -0.78486886628E+03  0.13136600786E+04  0.81201680368E+02 0.  0.
        254    2    1    2    0    0 -0.85914941604E+03  0.60411276507E+03  0.79951829015E+03  0.15954569994E+04  0.89619394589E+03 0.  0.
         23    2    4    4    0    0 -0.89801549438E+03  0.72709636835E+03  0.51028988983E+03  0.12664791736E+04  0.92047642175E+02 0.  0.
         23    2    4    4    0    0  0.38866078339E+02 -0.12298360328E+03  0.28922840033E+03  0.32897782582E+03  0.89094352272E+02 0.  0.
          2    1    3    3  502    0  0.11745231156E+03 -0.88550568585E+02 -0.14625727384E+03  0.20743056390E+03  0.00000000000E+00 0. -1.
         -1    1    3    3    0  502  0.74169710448E+03 -0.51556219649E+03 -0.63861159244E+03  0.11062295147E+04  0.00000000000E+00 0.  1.
         11    1    5    5    0    0 -0.24076981554E+02  0.73434317979E+01  0.22257964402E+02  0.33601250135E+02  0.00000000000E+00 0. -1.
        -11    1    5    5    0    0 -0.87393851283E+03  0.71975293656E+03  0.48803192543E+03  0.12328779234E+04  0.00000000000E+00 0.  1.
          2    1    6    6  503    0 -0.28540085201E+02 -0.43035968601E+02  0.83020511473E+02  0.97770324649E+02  0.00000000000E+00 0. -1.
         -2    1    6    6    0  503  0.67406163540E+02 -0.79947634681E+02  0.20620788885E+03  0.23120750117E+03  0.00000000000E+00 0.  1.
<mgrwt>
<rscale>  0 0.29090802E+04</rscale>
<asrwt>0</asrwt>
<pdfrwt beam="1">  1        2 0.22490512E+00 0.29090802E+04</pdfrwt>
<pdfrwt beam="2">  1       -1 0.22265136E+00 0.29090802E+04</pdfrwt>
<totfact> 0.13842046E+00</totfact>
</mgrwt>
</event>
<event>
12    6  0.9491186E-008  0.2472829E+04  0.7818608E-02  0.8412730E-01
         -1   -1    0    0    0  501 -0.00000000000E+00  0.00000000000E+00  0.98525887539E+03  0.98525887539E+03  0.00000000000E+00 0.  1.
          2   -1    0    0  501    0  0.00000000000E+00 -0.00000000000E+00 -0.15515932060E+04  0.15515932060E+04  0.00000000000E+00 0. -1.
         24    2    1    2    0    0 -0.20123186989E+03 -0.61512624789E+03  0.63104435503E+03  0.90747181672E+03  0.80084666658E+02 0.  0.
        254    2    1    2    0    0  0.20123186989E+03  0.61512624789E+03 -0.11973786856E+04  0.16293802647E+04  0.89570629326E+03 0.  0.
         23    2    4    4    0    0  0.26759559561E+03  0.48903218832E+03 -0.17202117605E+03  0.59004311379E+03  0.88315950557E+02 0.  0.
         23    2    4    4    0    0 -0.66363725716E+02  0.12609405957E+03 -0.10253575096E+04  0.10393371509E+04  0.92519375132E+02 0.  0.
          2    1    3    3  502    0 -0.22436802698E+02 -0.15991311918E+03  0.18483411760E+03  0.24543688971E+03  0.00000000000E+00 0. -1.
         -1    1    3    3    0  502 -0.17879506720E+03 -0.45521312870E+03  0.44621023743E+03  0.66203492701E+03  0.00000000000E+00 0.  1.
         11    1    5    5    0    0  0.86524963292E+02  0.17721926262E+03 -0.18274608225E+02  0.19805857119E+03  0.00000000000E+00 0. -1.
        -11    1    5    5    0    0  0.18107063232E+03  0.31181292570E+03 -0.15374656782E+03  0.39198454260E+03  0.00000000000E+00 0.  1.
          4    1    6    6  503    0  0.16267783625E+02  0.65291933840E+02 -0.41277276369E+03  0.41822127140E+03  0.00000000000E+00 0. -1.
         -4    1    6    6    0  503 -0.82631509341E+02  0.60802125728E+02 -0.61258474590E+03  0.62111587948E+03  0.00000000000E+00 0.  1.
<mgrwt>
<rscale>  0 0.24728291E+04</rscale>
<asrwt>0</asrwt>
<pdfrwt beam="1">  1        2 0.23870665E+00 0.24728291E+04</pdfrwt>
<pdfrwt beam="2">  1       -1 0.15157829E+00 0.24728291E+04</pdfrwt>
<totfact> 0.40990533E+00</totfact>
</mgrwt>
</event>
<event>
12    6  0.9491186E-008  0.2057587E+04  0.7818608E-02  0.8580160E-01
         -1   -1    0    0    0  501 -0.00000000000E+00  0.00000000000E+00  0.13323560533E+04  0.13323560533E+04  0.00000000000E+00 0.  1.
          2   -1    0    0  501    0  0.00000000000E+00 -0.00000000000E+00 -0.79439395746E+03  0.79439395746E+03  0.00000000000E+00 0. -1.
         24    2    1    2    0    0 -0.34459842402E+03  0.62654172115E+03  0.65599381376E+03  0.97349732091E+03  0.77888047616E+02 0.  0.
        254    2    1    2    0    0  0.34459842402E+03 -0.62654172115E+03 -0.11803171790E+03  0.11532526899E+04  0.89708287135E+03 0.  0.
         23    2    4    4    0    0  0.25652945851E+03 -0.78173207063E+03 -0.30184036030E+03  0.88119962690E+03  0.92156312914E+02 0.  0.
         23    2    4    4    0    0  0.88068965510E+02  0.15519034948E+03  0.18380864240E+03  0.27205306296E+03  0.91580919324E+02 0.  0.
          2    1    3    3  502    0 -0.76338750085E+01  0.38438778961E+02  0.55600742326E+02  0.68023954037E+02  0.00000000000E+00 0. -1.
         -1    1    3    3    0  502 -0.33696454901E+03  0.58810294219E+03  0.60039307143E+03  0.90547336687E+03  0.00000000000E+00 0.  1.
         11    1    5    5    0    0  0.16841998689E+03 -0.36582725651E+03 -0.15007517413E+03  0.42978765859E+03  0.00000000000E+00 0. -1.
        -11    1    5    5    0    0  0.88109471617E+02 -0.41590481412E+03 -0.15176518617E+03  0.45141196831E+03  0.00000000000E+00 0.  1.
          4    1    6    6  503    0  0.58408864013E+02  0.12539037148E+03  0.18376473170E+03  0.23000829827E+03  0.00000000000E+00 0.  1.
         -4    1    6    6    0  503  0.29660101497E+02  0.29799978002E+02  0.43910703444E-01  0.42044764691E+02  0.00000000000E+00 0. -1.
<mgrwt>
<rscale>  0 0.20575865E+04</rscale>
<asrwt>0</asrwt>
<pdfrwt beam="1">  1        2 0.12221445E+00 0.20575865E+04</pdfrwt>
<pdfrwt beam="2">  1       -1 0.20497785E+00 0.20575865E+04</pdfrwt>
<totfact> 0.51035287E+00</totfact>
</mgrwt>
</event>
<event>
12    6  0.9491186E-008  0.1436668E+04  0.7818608E-02  0.8927696E-01
         -1   -1    0    0    0  501 -0.00000000000E+00  0.00000000000E+00  0.43239111481E+03  0.43239111481E+03  0.00000000000E+00 0.  1.
          2   -1    0    0  501    0  0.00000000000E+00 -0.00000000000E+00 -0.11933725583E+04  0.11933725583E+04  0.00000000000E+00 0. -1.
         24    2    1    2    0    0  0.16913272890E+03 -0.21143663453E+03 -0.62580503139E+03  0.68981332658E+03  0.10439903167E+03 0.  0.
        254    2    1    2    0    0 -0.16913272890E+03  0.21143663453E+03 -0.13517641214E+03  0.93595034657E+03  0.88567435237E+03 0.  0.
         23    2    4    4    0    0 -0.10170458636E+03  0.27585753735E+03  0.33059635810E+03  0.45173000229E+03  0.91240556656E+02 0.  0.
         23    2    4    4    0    0 -0.67428142531E+02 -0.64420902829E+02 -0.46577277023E+03  0.48422034428E+03  0.93959891425E+02 0.  0.
          4    1    3    3  502    0  0.14838844121E+03 -0.22079015507E+03 -0.55539284118E+03  0.61581541885E+03  0.00000000000E+00 0. -1.
         -3    1    3    3    0  502  0.20744287682E+02  0.93535205467E+01 -0.70412190211E+02  0.73997907729E+02  0.00000000000E+00 0.  1.
         11    1    5    5    0    0 -0.15251427301E+02  0.14721464752E+03  0.20150488970E+03  0.25001795746E+03  0.00000000000E+00 0. -1.
        -11    1    5    5    0    0 -0.86453159064E+02  0.12864288983E+03  0.12909146840E+03  0.20171204483E+03  0.00000000000E+00 0.  1.
          4    1    6    6  503    0 -0.50873430200E+02 -0.76644504510E+02 -0.44699279747E+03  0.45636065449E+03  0.00000000000E+00 0. -1.
         -4    1    6    6    0  503 -0.16554712331E+02  0.12223601681E+02 -0.18779972762E+02  0.27859689793E+02  0.00000000000E+00 0.  1.
<mgrwt>
<rscale>  0 0.14366679E+04</rscale>
<asrwt>0</asrwt>
<pdfrwt beam="1">  1        2 0.18359578E+00 0.14366679E+04</pdfrwt>
<pdfrwt beam="2">  1       -1 0.66521710E-01 0.14366679E+04</pdfrwt>
<totfact> 0.48448837E+01</totfact>
</mgrwt>
</event>
<event>
12    6  0.9491186E-008  0.1625842E+04  0.7818608E-02  0.8804828E-01
          2   -1    0    0  501    0  0.00000000000E+00  0.00000000000E+00  0.99425039571E+03  0.99425039571E+03  0.00000000000E+00 0. -1.
         -1   -1    0    0    0  501 -0.00000000000E+00 -0.00000000000E+00 -0.66466225664E+03  0.66466225664E+03  0.00000000000E+00 0.  1.
         24    2    1    2    0    0 -0.30946452081E+03 -0.45486458047E+03  0.23285843903E+03  0.60253070107E+03  0.78422681048E+02 0.  0.
        254    2    1    2    0    0  0.30946452081E+03  0.45486458047E+03  0.96729700043E+02  0.10563819513E+04  0.89661369380E+03 0.  0.
         23    2    4    4    0    0  0.55433803428E+03  0.14206113332E+03  0.23161655090E+03  0.62509000172E+03  0.98077835181E+02 0.  0.
         23    2    4    4    0    0 -0.24487351347E+03  0.31280344715E+03 -0.13488685086E+03  0.43129194955E+03  0.10004623464E+03 0.  0.
          4    1    3    3  502    0 -0.32507986133E+02 -0.23250848056E+02  0.16817785768E+01  0.40002493384E+02  0.00000000000E+00 0. -1.
         -3    1    3    3    0  502 -0.27695653467E+03 -0.43161373241E+03  0.23117666045E+03  0.56252820769E+03  0.00000000000E+00 0.  1.
         11    1    5    5    0    0  0.32769431817E+03  0.44430383496E+02  0.10040985664E+03  0.34560058514E+03  0.00000000000E+00 0. -1.
        -11    1    5    5    0    0  0.22664371611E+03  0.97630749826E+02  0.13120669426E+03  0.27948941659E+03  0.00000000000E+00 0.  1.
          1    1    6    6  503    0 -0.19999276885E+03  0.28081734646E+03 -0.80849363207E+02  0.35410748255E+03  0.00000000000E+00 0. -1.
         -1    1    6    6    0  503 -0.44880744622E+02  0.31986100685E+02 -0.54037487649E+02  0.77184467001E+02  0.00000000000E+00 0.  1.
<mgrwt>
<rscale>  0 0.16258422E+04</rscale>
<asrwt>0</asrwt>
<pdfrwt beam="1">  1        2 0.15296160E+00 0.16258422E+04</pdfrwt>
<pdfrwt beam="2">  1       -1 0.10225573E+00 0.16258422E+04</pdfrwt>
<totfact> 0.25120228E+01</totfact>
</mgrwt>
</event>
<event>
12    6  0.9491186E-008  0.1871701E+04  0.7818608E-02  0.8669072E-01
         -1   -1    0    0    0  501 -0.00000000000E+00  0.00000000000E+00  0.31420850203E+03  0.31420850203E+03  0.00000000000E+00 0.  1.
          2   -1    0    0  501    0  0.00000000000E+00 -0.00000000000E+00 -0.27873719913E+04  0.27873719913E+04  0.00000000000E+00 0. -1.
         24    2    1    2    0    0 -0.19780939309E+03  0.24993452996E+03  0.11208047420E+03  0.34632223249E+03  0.76034405115E+02 0.  0.
        254    2    1    2    0    0  0.19780939309E+03 -0.24993452996E+03 -0.25852439635E+04  0.27552582609E+04  0.89797879040E+03 0.  0.
         23    2    4    4    0    0  0.25570132693E+03  0.15143141675E+03 -0.20705546098E+04  0.20937814418E+04  0.91704369694E+02 0.  0.
         23    2    4    4    0    0 -0.57891933842E+02 -0.40136594670E+03 -0.51468935372E+03  0.66147681905E+03  0.90555795717E+02 0.  0.
          4    1    3    3  502    0 -0.60056554248E+02  0.30686109433E+02  0.35977319779E+02  0.76438174748E+02  0.00000000000E+00 0. -1.
         -3    1    3    3    0  502 -0.13775283884E+03  0.21924842052E+03  0.76103154425E+02  0.26988405774E+03  0.00000000000E+00 0.  1.
         11    1    5    5    0    0  0.27208234602E+02 -0.96980852309E+01 -0.28633526384E+03  0.28778850603E+03  0.00000000000E+00 0.  1.
        -11    1    5    5    0    0  0.22849309233E+03  0.16112950198E+03 -0.17842193459E+04  0.18059929358E+04  0.00000000000E+00 0. -1.
          3    1    6    6  503    0  0.36971734957E+01 -0.26865757107E+03 -0.31722402621E+03  0.41571822475E+03  0.00000000000E+00 0. -1.
         -3    1    6    6    0  503 -0.61589107338E+02 -0.13270837563E+03 -0.19746532751E+03  0.24575859430E+03  0.00000000000E+00 0.  1.
<mgrwt>
<rscale>  0 0.18717008E+04</rscale>
<asrwt>0</asrwt>
<pdfrwt beam="1">  1        2 0.42882644E+00 0.18717008E+04</pdfrwt>
<pdfrwt beam="2">  1       -1 0.48339771E-01 0.18717008E+04</pdfrwt>
<totfact> 0.10786457E+01</totfact>
</mgrwt>
</event>
<event>
12    6  0.9696946E-008  0.2518420E+04  0.7818608E-02  0.8396453E-01
         -1   -1    0    0    0  501 -0.00000000000E+00  0.00000000000E+00  0.14237339047E+04  0.14237339047E+04  0.00000000000E+00 0.  1.
          2   -1    0    0  501    0  0.00000000000E+00 -0.00000000000E+00 -0.11136983093E+04  0.11136983093E+04  0.00000000000E+00 0. -1.
         24    2    1    2    0    0 -0.66055798314E+03 -0.55350437926E+03  0.81857226559E+03  0.11913161367E+04  0.80434051388E+02 0.  0.
        254    2    1    2    0    0  0.66055798314E+03  0.55350437926E+03 -0.50853667018E+03  0.13461160772E+04  0.90039713543E+03 0.  0.
         23    2    4    4    0    0 -0.19542097341E+03  0.93119333990E+02 -0.23373682011E+03  0.33234852784E+03  0.94668240031E+02 0.  0.
         23    2    4    4    0    0  0.85597895655E+03  0.46038504527E+03 -0.27479985007E+03  0.10137675494E+04  0.86921358775E+02 0.  0.
          4    1    3    3  502    0 -0.33009972876E+03 -0.27911201221E+03  0.46587384704E+03  0.63553740067E+03  0.00000000000E+00 0. -1.
         -3    1    3    3    0  502 -0.33045825438E+03 -0.27439236704E+03  0.35269841855E+03  0.55577873603E+03  0.00000000000E+00 0.  1.
         11    1    5    5    0    0  0.16352259808E+01  0.13845529971E+02 -0.48678978702E+02  0.50636109958E+02  0.00000000000E+00 0. -1.
        -11    1    5    5    0    0 -0.19705619939E+03  0.79273804019E+02 -0.18505784141E+03  0.28171241788E+03  0.00000000000E+00 0.  1.
          2    1    6    6  503    0  0.12977793614E+03  0.61026344023E+02 -0.10143874197E+02  0.14376865290E+03  0.00000000000E+00 0. -1.
         -2    1    6    6    0  503  0.72620102041E+03  0.39935870124E+03 -0.26465597587E+03  0.86999889648E+03  0.00000000000E+00 0.  1.
<mgrwt>
<rscale>  0 0.25184202E+04</rscale>
<asrwt>0</asrwt>
<pdfrwt beam="1">  1        2 0.17133820E+00 0.25184202E+04</pdfrwt>
<pdfrwt beam="2">  1       -1 0.21903599E+00 0.25184202E+04</pdfrwt>
<totfact> 0.24225975E+00</totfact>
</mgrwt>
</event>
<event>
12    6  0.9491186E-008  0.2176098E+04  0.7818608E-02  0.8528443E-01
          2   -1    0    0  501    0  0.00000000000E+00  0.00000000000E+00  0.98073927712E+03  0.98073927712E+03  0.00000000000E+00 0. -1.
         -1   -1    0    0    0  501 -0.00000000000E+00 -0.00000000000E+00 -0.12071001559E+04  0.12071001559E+04  0.00000000000E+00 0.  1.
         24    2    1    2    0    0  0.44311570426E+02 -0.89442882751E+03  0.30018957705E+01  0.89924630382E+03  0.81660644137E+02 0.  0.
        254    2    1    2    0    0 -0.44311570426E+02  0.89442882751E+03 -0.22936277450E+03  0.12885931292E+04  0.89771851236E+03 0.  0.
         23    2    4    4    0    0 -0.35135808352E+03  0.73726194254E+03 -0.37514595822E+03  0.90354694465E+03  0.93031803451E+02 0.  0.
         23    2    4    4    0    0  0.30704651309E+03  0.15716688497E+03  0.14578318372E+03  0.38504618451E+03  0.89603775662E+02 0.  0.
          2    1    3    3  502    0  0.18291769617E+02 -0.52659338960E+03 -0.37668461945E+02  0.52825571443E+03  0.00000000000E+00 0. -1.
         -1    1    3    3    0  502  0.26019800810E+02 -0.36783543791E+03  0.40670357716E+02  0.37099058939E+03  0.00000000000E+00 0.  1.
         11    1    5    5    0    0 -0.20011227612E+03  0.35747469807E+03 -0.22952111748E+03  0.46958814527E+03  0.00000000000E+00 0. -1.
        -11    1    5    5    0    0 -0.15124580740E+03  0.37978724447E+03 -0.14562484074E+03  0.43395879937E+03  0.00000000000E+00 0.  1.
          2    1    6    6  503    0  0.22623940481E+03  0.12490235798E+03  0.65368180153E+02  0.26656681394E+03  0.00000000000E+00 0. -1.
         -2    1    6    6    0  503  0.80807108285E+02  0.32264526992E+02  0.80415003567E+02  0.11847937057E+03  0.00000000000E+00 0.  1.
<mgrwt>
<rscale>  0 0.21760979E+04</rscale>
<asrwt>0</asrwt>
<pdfrwt beam="1">  1        2 0.15088297E+00 0.21760979E+04</pdfrwt>
<pdfrwt beam="2">  1       -1 0.18570772E+00 0.21760979E+04</pdfrwt>
<totfact> 0.51298847E+00</totfact>
</mgrwt>
</event>
<event>
12    6  0.9491186E-008  0.1617821E+04  0.7818608E-02  0.8809674E-01
          2   -1    0    0  501    0  0.00000000000E+00  0.00000000000E+00  0.20286279271E+04  0.20286279271E+04  0.00000000000E+00 0. -1.
         -1   -1    0    0    0  501 -0.00000000000E+00 -0.00000000000E+00 -0.32255112539E+03  0.32255112539E+03  0.00000000000E+00 0.  1.
         24    2    1    2    0    0  0.14298754898E+03  0.19319175308E+03  0.13292281030E+04  0.13530947802E+04  0.79054676390E+02 0.  0.
        254    2    1    2    0    0 -0.14298754898E+03 -0.19319175308E+03  0.37684869871E+03  0.99808427226E+03  0.89240617445E+03 0.  0.
         23    2    4    4    0    0 -0.48240876189E+03 -0.71826914399E+02  0.38117567121E+03  0.62579363205E+03  0.91899175250E+02 0.  0.
         23    2    4    4    0    0  0.33942121291E+03 -0.12136483868E+03 -0.43269725006E+01  0.37229064021E+03  0.92980719801E+02 0.  0.
          4    1    3    3  502    0  0.14659376175E+03  0.18227838744E+03  0.11527644652E+04  0.11762572226E+04  0.00000000000E+00 0. -1.
         -3    1    3    3    0  502 -0.36062127645E+01  0.10913365640E+02  0.17646363778E+03  0.17683755760E+03  0.00000000000E+00 0.  1.
         11    1    5    5    0    0 -0.13653455041E+03  0.13681551932E+02  0.13673846592E+03  0.19371700075E+03  0.00000000000E+00 0.  1.
        -11    1    5    5    0    0 -0.34587421149E+03 -0.85508466332E+02  0.24443720529E+03  0.43207663130E+03  0.00000000000E+00 0. -1.
          4    1    6    6  503    0  0.18281944630E+03 -0.38706187512E+02  0.36892057160E+02  0.19047872002E+03  0.00000000000E+00 0. -1.
         -4    1    6    6    0  503  0.15660176661E+03 -0.82658651168E+02 -0.41219029660E+02  0.18181192019E+03  0.00000000000E+00 0.  1.
<mgrwt>
<rscale>  0 0.16178210E+04</rscale>
<asrwt>0</asrwt>
<pdfrwt beam="1">  1        2 0.31209660E+00 0.16178210E+04</pdfrwt>
<pdfrwt beam="2">  1       -1 0.49623251E-01 0.16178210E+04</pdfrwt>
<totfact> 0.28613417E+01</totfact>
</mgrwt>
</event>
<event>
12    6  0.9491186E-008  0.1089561E+04  0.7818608E-02  0.9215426E-01
          2   -1    0    0  501    0  0.00000000000E+00  0.00000000000E+00  0.19928241238E+04  0.19928241238E+04  0.00000000000E+00 0. -1.
         -1   -1    0    0    0  501 -0.00000000000E+00 -0.00000000000E+00 -0.14892725283E+03  0.14892725283E+03  0.00000000000E+00 0.  1.
         24    2    1    2    0    0 -0.13036067852E+03 -0.67820296494E+02  0.43504589350E+03  0.46599886881E+03  0.79350596439E+02 0.  0.
        254    2    1    2    0    0  0.13036067852E+03  0.67820296494E+02  0.14088509775E+04  0.16757525079E+04  0.89537248766E+03 0.  0.
         23    2    4    4    0    0  0.18356998384E+03 -0.19871587855E+03  0.13542895685E+04  0.13840389321E+04  0.90981265465E+02 0.  0.
         23    2    4    4    0    0 -0.53209305315E+02  0.26653617504E+03  0.54561408973E+02  0.29171357580E+03  0.90813546227E+02 0.  0.
          2    1    3    3  502    0 -0.11325475843E+03 -0.46968272728E+02  0.24414536393E+03  0.27320252136E+03  0.00000000000E+00 0. -1.
         -1    1    3    3    0  502 -0.17105920092E+02 -0.20852023766E+02  0.19090052957E+03  0.19279634745E+03  0.00000000000E+00 0.  1.
         11    1    5    5    0    0  0.14787894664E+03 -0.15999505251E+03  0.86876641082E+03  0.89566828472E+03  0.00000000000E+00 0.  1.
        -11    1    5    5    0    0  0.35691037193E+02 -0.38720826041E+02  0.48552315772E+03  0.48837064734E+03  0.00000000000E+00 0. -1.
          2    1    6    6  503    0 -0.56339943121E+02  0.24810390740E+03  0.23557472035E+02  0.25550869368E+03  0.00000000000E+00 0.  1.
         -2    1    6    6    0  503  0.31306378059E+01  0.18432267641E+02  0.31003936938E+02  0.36204882117E+02  0.00000000000E+00 0. -1.
<mgrwt>
<rscale>  0 0.10895611E+04</rscale>
<asrwt>0</asrwt>
<pdfrwt beam="1">  1        2 0.30658831E+00 0.10895611E+04</pdfrwt>
<pdfrwt beam="2">  1       -1 0.22911886E-01 0.10895611E+04</pdfrwt>
<totfact> 0.12435664E+02</totfact>
</mgrwt>
</event>
<event>
12    6  0.9491186E-008  0.1577144E+04  0.7818608E-02  0.8834714E-01
         -1   -1    0    0    0  501 -0.00000000000E+00  0.00000000000E+00  0.27315210232E+03  0.27315210232E+03  0.00000000000E+00 0.  1.
          2   -1    0    0  501    0  0.00000000000E+00 -0.00000000000E+00 -0.22765536268E+04  0.22765536268E+04  0.00000000000E+00 0. -1.
         24    2    1    2    0    0 -0.36578653263E+03  0.39310864302E+03 -0.68772080411E+03  0.87631027728E+03  0.81397819290E+02 0.  0.
        254    2    1    2    0    0  0.36578653263E+03 -0.39310864302E+03 -0.13156807203E+04  0.16733954518E+04  0.88368681532E+03 0.  0.
         23    2    4    4    0    0 -0.83215916171E+02 -0.12983987968E+03  0.68945112894E+02  0.19137150106E+03  0.89924077779E+02 0.  0.
         23    2    4    4    0    0  0.44900244880E+03 -0.26326876334E+03 -0.13846258332E+04  0.14820239507E+04  0.91063998183E+02 0.  0.
          4    1    3    3  502    0 -0.10615971915E+03  0.10062172984E+03 -0.13378264335E+03  0.19822314231E+03  0.00000000000E+00 0. -1.
         -3    1    3    3    0  502 -0.25962681348E+03  0.29248691318E+03 -0.55393816076E+03  0.67808713497E+03  0.00000000000E+00 0.  1.
         11    1    5    5    0    0 -0.96299204755E+02 -0.13086228390E+03  0.72284608033E+02  0.17783008391E+03  0.00000000000E+00 0.  1.
        -11    1    5    5    0    0  0.13083288584E+02  0.10224042201E+01 -0.33394951396E+01  0.13541417147E+02  0.00000000000E+00 0. -1.
          1    1    6    6  503    0  0.79510794082E+02 -0.26208229650E+02 -0.15161513821E+03  0.17319349818E+03  0.00000000000E+00 0. -1.
         -1    1    6    6    0  503  0.36949165472E+03 -0.23706053369E+03 -0.12330106950E+04  0.13088304526E+04  0.00000000000E+00 0.  1.
<mgrwt>
<rscale>  0 0.15771435E+04</rscale>
<asrwt>0</asrwt>
<pdfrwt beam="1">  1        2 0.35023903E+00 0.15771435E+04</pdfrwt>
<pdfrwt beam="2">  1       -1 0.42023400E-01 0.15771435E+04</pdfrwt>
<totfact> 0.28476747E+01</totfact>
</mgrwt>
</event>
<event>
12    6  0.9491186E-008  0.1121845E+04  0.7818608E-02  0.9184158E-01
          2   -1    0    0  501    0  0.00000000000E+00  0.00000000000E+00  0.26440934205E+04  0.26440934205E+04  0.00000000000E+00 0. -1.
         -1   -1    0    0    0  501 -0.00000000000E+00 -0.00000000000E+00 -0.11899514749E+03  0.11899514749E+03  0.00000000000E+00 0.  1.
         24    2    1    2    0    0  0.20664225735E+02  0.46456704341E+02  0.12631456288E+02  0.96435281350E+02  0.80962795144E+02 0.  0.
        254    2    1    2    0    0 -0.20664225735E+02 -0.46456704341E+02  0.25124668167E+04  0.26666532866E+04  0.89216871188E+03 0.  0.
         23    2    4    4    0    0 -0.11120008757E+03  0.19084543568E+03  0.13662037325E+03  0.27553049435E+03  0.92002647407E+02 0.  0.
         23    2    4    4    0    0  0.90535861830E+02 -0.23730214003E+03  0.23758464434E+04  0.23911227923E+04  0.91174760698E+02 0.  0.
          2    1    3    3  502    0 -0.57626043160E+01  0.57443951068E+02  0.27763682758E+02  0.64061198889E+02  0.00000000000E+00 0. -1.
         -1    1    3    3    0  502  0.26426830051E+02 -0.10987246727E+02 -0.15132226470E+02  0.32374082461E+02  0.00000000000E+00 0.  1.
         11    1    5    5    0    0 -0.22917544213E+02  0.56576307064E+02  0.89016572085E+02  0.10793536241E+03  0.00000000000E+00 0. -1.
        -11    1    5    5    0    0 -0.88282543352E+02  0.13426912862E+03  0.47603801169E+02  0.16759513193E+03  0.00000000000E+00 0.  1.
          3    1    6    6  503    0  0.71047831279E+02 -0.21097114743E+03  0.17042129296E+04  0.17186908765E+04  0.00000000000E+00 0. -1.
         -3    1    6    6    0  503  0.19488030551E+02 -0.26330992595E+02  0.67163351381E+03  0.67243191580E+03  0.00000000000E+00 0.  1.
<mgrwt>
<rscale>  0 0.11218454E+04</rscale>
<asrwt>0</asrwt>
<pdfrwt beam="1">  1        2 0.40678356E+00 0.11218454E+04</pdfrwt>
<pdfrwt beam="2">  1       -1 0.18306948E-01 0.11218454E+04</pdfrwt>
<totfact> 0.77574619E+01</totfact>
</mgrwt>
</event>
<event>
12    6  0.9491186E-008  0.3239843E+04  0.7818608E-02  0.8178373E-01
         -1   -1    0    0    0  501 -0.00000000000E+00  0.00000000000E+00  0.13402430608E+04  0.13402430608E+04  0.00000000000E+00 0.  1.
          2   -1    0    0  501    0  0.00000000000E+00 -0.00000000000E+00 -0.19579626996E+04  0.19579626996E+04  0.00000000000E+00 0. -1.
         24    2    1    2    0    0 -0.12459803850E+04  0.76855678245E+03 -0.59132189876E+03  0.15807793628E+04  0.77814897470E+02 0.  0.
        254    2    1    2    0    0  0.12459803850E+04 -0.76855678245E+03 -0.26397740043E+02  0.17174263976E+04  0.89761347058E+03 0.  0.
         23    2    4    4    0    0  0.27106159687E+03 -0.32953353572E+03  0.37041882961E+03  0.57330482531E+03  0.96961708556E+02 0.  0.
         23    2    4    4    0    0  0.97491878817E+03 -0.43902324673E+03 -0.39681656965E+03  0.11441215722E+04  0.91338532069E+02 0.  0.
          2    1    3    3  502    0 -0.41721877932E+03  0.27217039354E+03 -0.16405333540E+03  0.52446327783E+03  0.00000000000E+00 0. -1.
         -1    1    3    3    0  502 -0.82876160572E+03  0.49638638891E+03 -0.42726856335E+03  0.10563160850E+04  0.00000000000E+00 0.  1.
         11    1    5    5    0    0  0.25895718723E+03 -0.30774699283E+03  0.30955135596E+03  0.50753234221E+03  0.00000000000E+00 0.  1.
        -11    1    5    5    0    0  0.12104409642E+02 -0.21786542891E+02  0.60867473648E+02  0.65772483093E+02  0.00000000000E+00 0. -1.
          2    1    6    6  503    0  0.62165920557E+03 -0.24226471351E+03 -0.21716523553E+03  0.70165026815E+03  0.00000000000E+00 0. -1.
         -2    1    6    6    0  503  0.35325958260E+03 -0.19675853322E+03 -0.17965133412E+03  0.44247130409E+03  0.00000000000E+00 0.  1.
<mgrwt>
<rscale>  0 0.32398432E+04</rscale>
<asrwt>0</asrwt>
<pdfrwt beam="1">  1        2 0.30122503E+00 0.32398432E+04</pdfrwt>
<pdfrwt beam="2">  1       -1 0.20619124E+00 0.32398432E+04</pdfrwt>
<totfact> 0.91870085E-01</totfact>
</mgrwt>
</event>
<event>
12    6  0.9491186E-008  0.1478410E+04  0.7818608E-02  0.8898939E-01
         -1   -1    0    0    0  501 -0.00000000000E+00  0.00000000000E+00  0.37437614173E+03  0.37437614173E+03  0.00000000000E+00 0.  1.
          2   -1    0    0  501    0  0.00000000000E+00 -0.00000000000E+00 -0.14595580667E+04  0.14595580667E+04  0.00000000000E+00 0. -1.
         24    2    1    2    0    0  0.30648030357E+02 -0.27226834060E+03 -0.80127304020E+03  0.85042202633E+03  0.78165125558E+02 0.  0.
        254    2    1    2    0    0 -0.30648030357E+02  0.27226834060E+03 -0.28390888481E+03  0.98351218214E+03  0.90090099706E+03 0.  0.
         23    2    4    4    0    0  0.18327706120E+03 -0.15914104421E+03 -0.40303884065E+03  0.47934910083E+03  0.91754565429E+02 0.  0.
         23    2    4    4    0    0 -0.21392509156E+03  0.43140938481E+03  0.11912995584E+03  0.50416308132E+03  0.90058115025E+02 0.  0.
          2    1    3    3  502    0 -0.17611099915E+02 -0.13749709542E+03 -0.45736275357E+03  0.47790824479E+03  0.00000000000E+00 0. -1.
         -1    1    3    3    0  502  0.48259130271E+02 -0.13477124519E+03 -0.34391028663E+03  0.37251378154E+03  0.00000000000E+00 0.  1.
         11    1    5    5    0    0  0.10293995589E+03 -0.13141196297E+03 -0.20876291170E+03  0.26729701052E+03  0.00000000000E+00 0. -1.
        -11    1    5    5    0    0  0.80337105312E+02 -0.27729081242E+02 -0.19427592895E+03  0.21205209031E+03  0.00000000000E+00 0.  1.
          1    1    6    6  503    0 -0.18316543381E+03  0.29862243395E+03  0.11153760241E+03  0.36764870590E+03  0.00000000000E+00 0. -1.
         -1    1    6    6    0  503 -0.30759657751E+02  0.13278695086E+03  0.75923534300E+01  0.13651437541E+03  0.00000000000E+00 0.  1.
<mgrwt>
<rscale>  0 0.14784096E+04</rscale>
<asrwt>0</asrwt>
<pdfrwt beam="1">  1        2 0.22454740E+00 0.14784096E+04</pdfrwt>
<pdfrwt beam="2">  1       -1 0.57596329E-01 0.14784096E+04</pdfrwt>
<totfact> 0.45055123E+01</totfact>
</mgrwt>
</event>
<event>
12    6  0.9491186E-008  0.1479197E+04  0.7818608E-02  0.8898406E-01
         -1   -1    0    0    0  501 -0.00000000000E+00  0.00000000000E+00  0.14040609448E+04  0.14040609448E+04  0.00000000000E+00 0.  1.
          2   -1    0    0  501    0  0.00000000000E+00 -0.00000000000E+00 -0.38958850806E+03  0.38958850806E+03  0.00000000000E+00 0. -1.
         24    2    1    2    0    0 -0.11198217226E+03  0.44238753946E+03  0.26206140218E+03  0.53237386636E+03  0.80616456753E+02 0.  0.
        254    2    1    2    0    0  0.11198217226E+03 -0.44238753946E+03  0.75241103456E+03  0.12612755865E+04  0.90357456704E+03 0.  0.
         23    2    4    4    0    0 -0.27115903831E+03 -0.32287377980E+03  0.72996793741E+03  0.84814339587E+03  0.93377345049E+02 0.  0.
         23    2    4    4    0    0  0.38314121058E+03 -0.11951375966E+03  0.22443097149E+02  0.41313219063E+03  0.95361356600E+02 0.  0.
          4    1    3    3  502    0 -0.58886533555E+02  0.22780937199E+03  0.18126317456E+03  0.29702032296E+03  0.00000000000E+00 0. -1.
         -3    1    3    3    0  502 -0.53095638708E+02  0.21457816747E+03  0.80798227618E+02  0.23535354340E+03  0.00000000000E+00 0.  1.
         11    1    5    5    0    0 -0.46503895372E+02 -0.11606225526E+02  0.85045495666E+02  0.97621990805E+02  0.00000000000E+00 0.  1.
        -11    1    5    5    0    0 -0.22465514294E+03 -0.31126755427E+03  0.64492244175E+03  0.75052140507E+03  0.00000000000E+00 0. -1.
          3    1    6    6  503    0  0.22672373484E+03 -0.24531975867E+02 -0.49224369876E+01  0.22810019765E+03  0.00000000000E+00 0. -1.
         -3    1    6    6    0  503  0.15641747573E+03 -0.94981783792E+02  0.27365534136E+02  0.18503199298E+03  0.00000000000E+00 0.  1.
<mgrwt>
<rscale>  0 0.14791971E+04</rscale>
<asrwt>0</asrwt>
<pdfrwt beam="1">  1        2 0.59936694E-01 0.14791971E+04</pdfrwt>
<pdfrwt beam="2">  1       -1 0.21600937E+00 0.14791971E+04</pdfrwt>
<totfact> 0.10618249E+01</totfact>
</mgrwt>
</event>
<event>
12    6  0.9491186E-008  0.1457847E+04  0.7818608E-02  0.8912978E-01
         -1   -1    0    0    0  501 -0.00000000000E+00  0.00000000000E+00  0.32429480769E+03  0.32429480769E+03  0.00000000000E+00 0.  1.
          2   -1    0    0  501    0  0.00000000000E+00 -0.00000000000E+00 -0.16384158362E+04  0.16384158362E+04  0.00000000000E+00 0. -1.
         24    2    1    2    0    0  0.61178479858E+02  0.42732283501E+03 -0.26872412449E+03  0.51471271821E+03  0.79805485292E+02 0.  0.
        254    2    1    2    0    0 -0.61178479858E+02 -0.42732283501E+03 -0.10453969040E+04  0.14479979257E+04  0.90415468484E+03 0.  0.
         23    2    4    4    0    0 -0.11660840844E+02  0.26135664121E+03 -0.46579586152E+03  0.54214385063E+03  0.92254544883E+02 0.  0.
         23    2    4    4    0    0 -0.49517639014E+02 -0.68867947622E+03 -0.57960104248E+03  0.90585407504E+03  0.88897802438E+02 0.  0.
          2    1    3    3  502    0  0.23340322528E+02  0.10737906388E+03 -0.30532137365E+02  0.11404931139E+03  0.00000000000E+00 0. -1.
         -1    1    3    3    0  502  0.37838157330E+02  0.31994377112E+03 -0.23819198712E+03  0.40066340682E+03  0.00000000000E+00 0.  1.
         11    1    5    5    0    0  0.53662317426E+00 -0.70248443784E+01 -0.24579558821E+02  0.25569339350E+02  0.00000000000E+00 0.  1.
        -11    1    5    5    0    0 -0.12197464019E+02  0.26838148559E+03 -0.44121630270E+03  0.51657451128E+03  0.00000000000E+00 0. -1.
          4    1    6    6  503    0 -0.15196687042E+02 -0.56171106945E+03 -0.49967702350E+03  0.75194906254E+03  0.00000000000E+00 0. -1.
         -4    1    6    6    0  503 -0.34320951971E+02 -0.12696840677E+03 -0.79924018976E+02  0.15390501250E+03  0.00000000000E+00 0.  1.
<mgrwt>
<rscale>  0 0.14578474E+04</rscale>
<asrwt>0</asrwt>
<pdfrwt beam="1">  1        2 0.25206397E+00 0.14578474E+04</pdfrwt>
<pdfrwt beam="2">  1       -1 0.49891509E-01 0.14578474E+04</pdfrwt>
<totfact> 0.47235045E+01</totfact>
</mgrwt>
</event>
<event>
12    6  0.9491186E-008  0.1414829E+04  0.7818608E-02  0.8943154E-01
         -1   -1    0    0    0  501 -0.00000000000E+00  0.00000000000E+00  0.13466726397E+03  0.13466726397E+03  0.00000000000E+00 0.  1.
          2   -1    0    0  501    0  0.00000000000E+00 -0.00000000000E+00 -0.37160875934E+04  0.37160875934E+04  0.00000000000E+00 0. -1.
         24    2    1    2    0    0 -0.34328908517E+03 -0.44264191584E+02 -0.17264914790E+04  0.17626266100E+04  0.79202428219E+02 0.  0.
        254    2    1    2    0    0  0.34328908517E+03  0.44264191584E+02 -0.18549288504E+04  0.20881282473E+04  0.89426608040E+03 0.  0.
         23    2    4    4    0    0 -0.23899551934E+03 -0.12237512380E+03 -0.98016433069E+03  0.10202441463E+04  0.89897017114E+02 0.  0.
         23    2    4    4    0    0  0.58228460451E+03  0.16663931538E+03 -0.87476451971E+03  0.10678841010E+04  0.91320677922E+02 0.  0.
          4    1    3    3  502    0 -0.14124198609E+03  0.22107737164E+01 -0.87043047133E+03  0.88181823046E+03  0.00000000000E+00 0. -1.
         -3    1    3    3    0  502 -0.20204709908E+03 -0.46474965300E+02 -0.85606100767E+03  0.88080837956E+03  0.00000000000E+00 0.  1.
         11    1    5    5    0    0 -0.50307854003E+02  0.10326733862E+02 -0.21598146408E+03  0.22200341086E+03  0.00000000000E+00 0.  1.
        -11    1    5    5    0    0 -0.18868766534E+03 -0.13270185766E+03 -0.76418286660E+03  0.79824073542E+03  0.00000000000E+00 0. -1.
          4    1    6    6  503    0  0.34752255095E+02  0.34842449574E+02 -0.64611159531E+02  0.81217716432E+02  0.00000000000E+00 0. -1.
         -4    1    6    6    0  503  0.54753234942E+03  0.13179686581E+03 -0.81015336018E+03  0.98666638460E+03  0.00000000000E+00 0.  1.
<mgrwt>
<rscale>  0 0.14148291E+04</rscale>
<asrwt>0</asrwt>
<pdfrwt beam="1">  1        2 0.57170583E+00 0.14148291E+04</pdfrwt>
<pdfrwt beam="2">  1       -1 0.20718039E-01 0.14148291E+04</pdfrwt>
<totfact> 0.12379246E+01</totfact>
</mgrwt>
</event>
<event>
12    6  0.9491186E-008  0.1924892E+04  0.7818608E-02  0.8642564E-01
          2   -1    0    0  501    0  0.00000000000E+00  0.00000000000E+00  0.28323270747E+04  0.28323270747E+04  0.00000000000E+00 0. -1.
         -1   -1    0    0    0  501 -0.00000000000E+00 -0.00000000000E+00 -0.32704649208E+03  0.32704649208E+03  0.00000000000E+00 0.  1.
         24    2    1    2    0    0 -0.40366645471E+03  0.62645868489E+03  0.98382102307E+03  0.12367901497E+04  0.79680477538E+02 0.  0.
        254    2    1    2    0    0  0.40366645471E+03 -0.62645868489E+03  0.15214595595E+04  0.19225834171E+04  0.90889532602E+03 0.  0.
         23    2    4    4    0    0 -0.20391264169E+03 -0.42824016502E+03  0.92604913773E+03  0.10444812531E+04  0.91673759876E+02 0.  0.
         23    2    4    4    0    0  0.60757909640E+03 -0.19821851986E+03  0.59541042181E+03  0.87810216393E+03  0.90038324602E+02 0.  0.
          2    1    3    3  502    0 -0.29268774929E+02  0.76502823364E+02  0.14048522180E+03  0.16262054210E+03  0.00000000000E+00 0. -1.
         -3    1    3    3    0  502 -0.37439767978E+03  0.54995586152E+03  0.84333580127E+03  0.10741696076E+04  0.00000000000E+00 0.  1.
         11    1    5    5    0    0  0.28279443797E+01 -0.65069823870E+02  0.11914857859E+03  0.13578830225E+03  0.00000000000E+00 0. -1.
        -11    1    5    5    0    0 -0.20674058607E+03 -0.36317034115E+03  0.80690055914E+03  0.90869295087E+03  0.00000000000E+00 0.  1.
          2    1    6    6  503    0 -0.96152505809E+00  0.82599504155E+00 -0.20264994450E+01  0.23902925023E+01  0.00000000000E+00 0. -1.
         -2    1    6    6    0  503  0.60854062146E+03 -0.19904451490E+03  0.59743692126E+03  0.87571187143E+03  0.00000000000E+00 0.  1.
<mgrwt>
<rscale>  0 0.19248923E+04</rscale>
<asrwt>0</asrwt>
<pdfrwt beam="1">  1        2 0.43574261E+00 0.19248923E+04</pdfrwt>
<pdfrwt beam="2">  1       -1 0.50314847E-01 0.19248923E+04</pdfrwt>
<totfact> 0.93459880E+00</totfact>
</mgrwt>
</event>
<event>
12    6  0.9491186E-008  0.1509816E+04  0.7818608E-02  0.8877951E-01
          2   -1    0    0  501    0  0.00000000000E+00  0.00000000000E+00  0.22372216491E+04  0.22372216491E+04  0.00000000000E+00 0. -1.
         -1   -1    0    0    0  501 -0.00000000000E+00 -0.00000000000E+00 -0.25472943081E+03  0.25472943081E+03  0.00000000000E+00 0.  1.
         24    2    1    2    0    0 -0.18391950110E+03 -0.13936402506E+03  0.13716108794E+04  0.13931422405E+04  0.79247609061E+02 0.  0.
        254    2    1    2    0    0  0.18391950110E+03  0.13936402506E+03  0.61088133892E+03  0.10988088394E+04  0.88371722905E+03 0.  0.
         23    2    4    4    0    0 -0.25192383047E+03  0.29825003750E+02  0.58055775133E+03  0.63911828133E+03  0.84081672786E+02 0.  0.
         23    2    4    4    0    0  0.43584333157E+03  0.10953902131E+03  0.30323587590E+02  0.45969055806E+03  0.91856857899E+02 0.  0.
          4    1    3    3  502    0 -0.95367946963E+02 -0.33769116888E+02  0.44615351313E+03  0.45748044312E+03  0.00000000000E+00 0. -1.
         -3    1    3    3    0  502 -0.88551554137E+02 -0.10559490817E+03  0.92545736626E+03  0.93566179741E+03  0.00000000000E+00 0.  1.
         11    1    5    5    0    0 -0.10930911234E+03 -0.23877309095E+02  0.29379129799E+03  0.31437546772E+03  0.00000000000E+00 0. -1.
        -11    1    5    5    0    0 -0.14261471813E+03  0.53702312844E+02  0.28676645334E+03  0.32474281361E+03  0.00000000000E+00 0.  1.
          3    1    6    6  503    0  0.93320223097E+02  0.55308653182E+02  0.31282904706E+02  0.11289965138E+03  0.00000000000E+00 0. -1.
         -3    1    6    6    0  503  0.34252310847E+03  0.54230368129E+02 -0.95931711666E+00  0.34679090667E+03  0.00000000000E+00 0.  1.
<mgrwt>
<rscale>  0 0.15098161E+04</rscale>
<asrwt>0</asrwt>
<pdfrwt beam="1">  1        2 0.34418793E+00 0.15098161E+04</pdfrwt>
<pdfrwt beam="2">  1       -1 0.39189145E-01 0.15098161E+04</pdfrwt>
<totfact> 0.34254964E+01</totfact>
</mgrwt>
</event>
<event>
12    6  0.9491186E-008  0.1822827E+04  0.7818608E-02  0.8694254E-01
          2   -1    0    0  501    0  0.00000000000E+00  0.00000000000E+00  0.96211171089E+03  0.96211171089E+03  0.00000000000E+00 0. -1.
         -1   -1    0    0    0  501 -0.00000000000E+00 -0.00000000000E+00 -0.86338638078E+03  0.86338638078E+03  0.00000000000E+00 0.  1.
         24    2    1    2    0    0  0.43390896832E+03  0.98899035572E+02  0.61530753449E+03  0.76360127296E+03  0.80159403892E+02 0.  0.
        254    2    1    2    0    0 -0.43390896832E+03 -0.98899035572E+02 -0.51658220439E+03  0.10618968187E+04  0.81406981745E+03 0.  0.
         23    2    4    4    0    0 -0.49915382353E+03  0.23707102699E+03 -0.22776511112E+03  0.60532432489E+03  0.95829959190E+02 0.  0.
         23    2    4    4    0    0  0.65244855209E+02 -0.33597006256E+03 -0.28881709326E+03  0.45657249382E+03  0.88940174753E+02 0.  0.
          2    1    3    3  502    0  0.31570422247E+03  0.37193920475E+02  0.45575550329E+03  0.55566682696E+03  0.00000000000E+00 0. -1.
         -1    1    3    3    0  502  0.11820474585E+03  0.61705115098E+02  0.15955203120E+03  0.20793444600E+03  0.00000000000E+00 0.  1.
         11    1    5    5    0    0 -0.39286405798E+03  0.14154904682E+03 -0.17891130275E+03  0.45429897090E+03  0.00000000000E+00 0. -1.
        -11    1    5    5    0    0 -0.10628976555E+03  0.95521980170E+02 -0.48853808372E+02  0.15102535400E+03  0.00000000000E+00 0.  1.
          1    1    6    6  503    0  0.65867178325E+01 -0.39694243024E+01  0.51598236150E+01  0.92609373626E+01  0.00000000000E+00 0. -1.
         -1    1    6    6    0  503  0.58658137376E+02 -0.33200063826E+03 -0.29397691688E+03  0.44731155646E+03  0.00000000000E+00 0.  1.
<mgrwt>
<rscale>  0 0.18228265E+04</rscale>
<asrwt>0</asrwt>
<pdfrwt beam="1">  1        2 0.14801719E+00 0.18228265E+04</pdfrwt>
<pdfrwt beam="2">  1       -1 0.13282867E+00 0.18228265E+04</pdfrwt>
<totfact> 0.13763311E+01</totfact>
</mgrwt>
</event>
<event>
12    6  0.9491186E-008  0.1469421E+04  0.7818608E-02  0.8905046E-01
         -1   -1    0    0    0  501 -0.00000000000E+00  0.00000000000E+00  0.55456059443E+03  0.55456059443E+03  0.00000000000E+00 0.  1.
          2   -1    0    0  501    0  0.00000000000E+00 -0.00000000000E+00 -0.97338260659E+03  0.97338260659E+03  0.00000000000E+00 0. -1.
         24    2    1    2    0    0  0.45569290076E+02 -0.39536888664E+03  0.10846183400E+03  0.42018029771E+03  0.79964970005E+02 0.  0.
        254    2    1    2    0    0 -0.45569290076E+02  0.39536888664E+03 -0.52728384616E+03  0.11077629033E+04  0.88922285105E+03 0.  0.
         23    2    4    4    0    0 -0.30690424649E+03 -0.10137527420E+03 -0.40636917504E+03  0.52651573890E+03  0.87268288350E+02 0.  0.
         23    2    4    4    0    0  0.26133495641E+03  0.49674416084E+03 -0.12091467112E+03  0.58124716442E+03  0.90427803746E+02 0.  0.
          2    1    3    3  502    0  0.16065195606E+02 -0.16797402690E+03  0.87079138708E+02  0.18988454550E+03  0.00000000000E+00 0. -1.
         -1    1    3    3    0  502  0.29504094470E+02 -0.22739485974E+03  0.21382695294E+02  0.23029575220E+03  0.00000000000E+00 0.  1.
         11    1    5    5    0    0 -0.21857404772E+02  0.11927101395E+02 -0.53183725650E+02  0.58724020342E+02  0.00000000000E+00 0.  1.
        -11    1    5    5    0    0 -0.28504684172E+03 -0.11330237560E+03 -0.35318544939E+03  0.46779171855E+03  0.00000000000E+00 0. -1.
          3    1    6    6  503    0  0.26543944910E+03  0.46062641725E+03 -0.10681657477E+03  0.54225877407E+03  0.00000000000E+00 0. -1.
         -3    1    6    6    0  503 -0.41044926860E+01  0.36117743587E+02 -0.14098096348E+02  0.38988390357E+02  0.00000000000E+00 0.  1.
<mgrwt>
<rscale>  0 0.14694212E+04</rscale>
<asrwt>0</asrwt>
<pdfrwt beam="1">  1        2 0.14975117E+00 0.14694212E+04</pdfrwt>
<pdfrwt beam="2">  1       -1 0.85317015E-01 0.14694212E+04</pdfrwt>
<totfact> 0.39338390E+01</totfact>
</mgrwt>
</event>
<event>
12    6  0.9491186E-008  0.2822953E+04  0.7818608E-02  0.8296178E-01
         -1   -1    0    0    0  501 -0.00000000000E+00  0.00000000000E+00  0.76636696508E+03  0.76636696508E+03  0.00000000000E+00 0.  1.
          2   -1    0    0  501    0  0.00000000000E+00 -0.00000000000E+00 -0.25996233060E+04  0.25996233060E+04  0.00000000000E+00 0. -1.
         24    2    1    2    0    0 -0.68286269169E+03  0.41939596306E+03 -0.19977966483E+04  0.21539926134E+04  0.79361836151E+02 0.  0.
        254    2    1    2    0    0  0.68286269169E+03 -0.41939596306E+03  0.16454030735E+03  0.12119976577E+04  0.89424290885E+03 0.  0.
         23    2    4    4    0    0  0.11370256838E+03 -0.57066714869E+03 -0.17049272506E+02  0.58905225347E+03  0.90014504290E+02 0.  0.
         23    2    4    4    0    0  0.56916012331E+03  0.15127118563E+03  0.18158957986E+03  0.62294540424E+03  0.90884451810E+02 0.  0.
          2    1    3    3  502    0 -0.67079384734E+03  0.41945200358E+03 -0.19431985585E+04  0.20980765016E+04  0.00000000000E+00 0. -1.
         -1    1    3    3    0  502 -0.12068844348E+02 -0.56040517227E-01 -0.54598089770E+02  0.55916111730E+02  0.00000000000E+00 0.  1.
         11    1    5    5    0    0  0.11260988104E+03 -0.35817978392E+03 -0.26087928224E+02  0.37636992828E+03  0.00000000000E+00 0. -1.
        -11    1    5    5    0    0  0.10926873393E+01 -0.21248736477E+03  0.90386557176E+01  0.21268232520E+03  0.00000000000E+00 0.  1.
          2    1    6    6  503    0  0.41446535419E+03  0.14936706620E+03  0.12178182011E+03  0.45708080467E+03  0.00000000000E+00 0. -1.
         -2    1    6    6    0  503  0.15469476912E+03  0.19041194314E+01  0.59807759750E+02  0.16586459957E+03  0.00000000000E+00 0.  1.
<mgrwt>
<rscale>  0 0.28229527E+04</rscale>
<asrwt>0</asrwt>
<pdfrwt beam="1">  1        2 0.39994204E+00 0.28229527E+04</pdfrwt>
<pdfrwt beam="2">  1       -1 0.11790261E+00 0.28229527E+04</pdfrwt>
<totfact> 0.19423466E+00</totfact>
</mgrwt>
</event>
<event>
12    6  0.9491186E-008  0.2040478E+04  0.7818608E-02  0.8587926E-01
         -1   -1    0    0    0  501 -0.00000000000E+00  0.00000000000E+00  0.66636888410E+03  0.66636888410E+03  0.00000000000E+00 0.  1.
          2   -1    0    0  501    0  0.00000000000E+00 -0.00000000000E+00 -0.15620287293E+04  0.15620287293E+04  0.00000000000E+00 0. -1.
         24    2    1    2    0    0  0.71342032523E+03 -0.32344462051E+02 -0.71158664842E+03  0.10113519304E+04  0.80389329599E+02 0.  0.
        254    2    1    2    0    0 -0.71342032523E+03  0.32344462051E+02 -0.18407319675E+03  0.12170456829E+04  0.96814385703E+03 0.  0.
         23    2    4    4    0    0  0.12779059597E+03 -0.29132303556E+02 -0.31854110178E+03  0.35760452803E+03  0.96090776980E+02 0.  0.
         23    2    4    4    0    0 -0.84121092120E+03  0.61476765606E+02  0.13446790502E+03  0.85944115490E+03  0.95615242470E+02 0.  0.
          2    1    3    3  502    0  0.61671060281E+03 -0.11181034664E+02 -0.64234790936E+03  0.89054355301E+03  0.00000000000E+00 0. -1.
         -1    1    3    3    0  502  0.96709722418E+02 -0.21163427386E+02 -0.69238739059E+02  0.12080837742E+03  0.00000000000E+00 0.  1.
         11    1    5    5    0    0  0.92427066695E+02 -0.44389970345E+02 -0.29536166504E+03  0.31265275514E+03  0.00000000000E+00 0. -1.
        -11    1    5    5    0    0  0.35363529274E+02  0.15257666789E+02 -0.23179436742E+02  0.44951772893E+02  0.00000000000E+00 0.  1.
          1    1    6    6  503    0 -0.83778426339E+03  0.58304499323E+02  0.14084282094E+03  0.85153895204E+03  0.00000000000E+00 0. -1.
         -1    1    6    6    0  503 -0.34266578045E+01  0.31722662829E+01 -0.63749159119E+01  0.79022028551E+01  0.00000000000E+00 0.  1.
<mgrwt>
<rscale>  0 0.20404777E+04</rscale>
<asrwt>0</asrwt>
<pdfrwt beam="1">  1        2 0.24031211E+00 0.20404777E+04</pdfrwt>
<pdfrwt beam="2">  1       -1 0.10251829E+00 0.20404777E+04</pdfrwt>
<totfact> 0.11120395E+01</totfact>
</mgrwt>
</event>
<event>
12    6  0.9491186E-008  0.1442853E+04  0.7818608E-02  0.8923370E-01
          2   -1    0    0  501    0  0.00000000000E+00  0.00000000000E+00  0.75244433815E+03  0.75244433815E+03  0.00000000000E+00 0. -1.
         -1   -1    0    0    0  501 -0.00000000000E+00 -0.00000000000E+00 -0.69168732271E+03  0.69168732271E+03  0.00000000000E+00 0.  1.
         24    2    1    2    0    0  0.46965326783E+01  0.29753372347E+03  0.33019994523E+03  0.45112741889E+03  0.77042651965E+02 0.  0.
        254    2    1    2    0    0 -0.46965326783E+01 -0.29753372347E+03 -0.26944292979E+03  0.99300424197E+03  0.90824531826E+03 0.  0.
         23    2    4    4    0    0  0.29735976045E+03 -0.47872691733E+03 -0.62061522224E+02  0.57422280503E+03  0.90983013589E+02 0.  0.
         23    2    4    4    0    0 -0.30205629313E+03  0.18119319385E+03 -0.20738140756E+03  0.41878143694E+03  0.91114576260E+02 0.  0.
          4    1    3    3  502    0  0.31438382962E+02  0.13349368725E+03  0.11344796847E+03  0.17798701641E+03  0.00000000000E+00 0. -1.
         -3    1    3    3    0  502 -0.26741850283E+02  0.16404003622E+03  0.21675197676E+03  0.27314040249E+03  0.00000000000E+00 0.  1.
         11    1    5    5    0    0  0.28347126167E+03 -0.43516662467E+03 -0.79279015334E+02  0.52536759483E+03  0.00000000000E+00 0.  1.
        -11    1    5    5    0    0  0.13888498780E+02 -0.43560292655E+02  0.17217493110E+02  0.48855210198E+02  0.00000000000E+00 0. -1.
          2    1    6    6  503    0 -0.17233893742E+03  0.13214220211E+03 -0.82987591272E+02  0.23248486237E+03  0.00000000000E+00 0.  1.
         -2    1    6    6    0  503 -0.12971735572E+03  0.49050991742E+02 -0.12439381629E+03  0.18629657457E+03  0.00000000000E+00 0. -1.
<mgrwt>
<rscale>  0 0.14428530E+04</rscale>
<asrwt>0</asrwt>
<pdfrwt beam="1">  1        2 0.11576067E+00 0.14428530E+04</pdfrwt>
<pdfrwt beam="2">  1       -1 0.10641343E+00 0.14428530E+04</pdfrwt>
<totfact> 0.34154256E+01</totfact>
</mgrwt>
</event>
<event>
12    6  0.9491186E-008  0.1751259E+04  0.7818608E-02  0.8732657E-01
         -1   -1    0    0    0  501 -0.00000000000E+00  0.00000000000E+00  0.14173817046E+04  0.14173817046E+04  0.00000000000E+00 0.  1.
          2   -1    0    0  501    0  0.00000000000E+00 -0.00000000000E+00 -0.54094626378E+03  0.54094626378E+03  0.00000000000E+00 0. -1.
         24    2    1    2    0    0  0.19446314930E+03  0.59885806335E+03  0.18090682559E+03  0.66154597274E+03  0.92026615840E+02 0.  0.
        254    2    1    2    0    0 -0.19446314930E+03 -0.59885806335E+03  0.69552861522E+03  0.12967819956E+04  0.89522991077E+03 0.  0.
         23    2    4    4    0    0 -0.51259892080E+03 -0.18232298199E+03  0.44600616940E+03  0.70941047093E+03  0.91336683505E+02 0.  0.
         23    2    4    4    0    0  0.31813577150E+03 -0.41653508136E+03  0.24952244582E+03  0.58737152471E+03  0.89621503874E+02 0.  0.
          2    1    3    3  502    0  0.12129017699E+03  0.41848183427E+03  0.82554462389E+02  0.44345641489E+03  0.00000000000E+00 0. -1.
         -1    1    3    3    0  502  0.73172972311E+02  0.18037622908E+03  0.98352363196E+02  0.21808955785E+03  0.00000000000E+00 0.  1.
         11    1    5    5    0    0 -0.38386718273E+00 -0.83150478510E+01  0.47468954487E-01  0.83240391686E+01  0.00000000000E+00 0.  1.
        -11    1    5    5    0    0 -0.51221505361E+03 -0.17400793414E+03  0.44595870044E+03  0.70108643176E+03  0.00000000000E+00 0. -1.
          3    1    6    6  503    0  0.23167649103E+03 -0.25312977658E+03  0.12851995808E+03  0.36642333429E+03  0.00000000000E+00 0. -1.
         -3    1    6    6    0  503  0.86459280471E+02 -0.16340530478E+03  0.12100248773E+03  0.22094819041E+03  0.00000000000E+00 0.  1.
<mgrwt>
<rscale>  0 0.17512594E+04</rscale>
<asrwt>0</asrwt>
<pdfrwt beam="1">  1        2 0.83222502E-01 0.17512594E+04</pdfrwt>
<pdfrwt beam="2">  1       -1 0.21805872E+00 0.17512594E+04</pdfrwt>
<totfact> 0.68938987E+00</totfact>
</mgrwt>
</event>
<event>
12    6  0.9491186E-008  0.1224081E+04  0.7818608E-02  0.9092036E-01
         -1   -1    0    0    0  501 -0.00000000000E+00  0.00000000000E+00  0.16510121159E+03  0.16510121159E+03  0.00000000000E+00 0.  1.
          2   -1    0    0  501    0  0.00000000000E+00 -0.00000000000E+00 -0.22688726297E+04  0.22688726297E+04  0.00000000000E+00 0. -1.
         24    2    1    2    0    0  0.21521442143E+03 -0.15593799912E+03 -0.34934591943E+03  0.44657871826E+03  0.82195336927E+02 0.  0.
        254    2    1    2    0    0 -0.21521442143E+03  0.15593799912E+03 -0.17544254986E+04  0.19873951230E+04  0.89504002026E+03 0.  0.
         23    2    4    4    0    0 -0.14551749834E+03 -0.36312056103E+03 -0.80277057780E+03  0.89732657564E+03  0.87877748068E+02 0.  0.
         23    2    4    4    0    0 -0.69696923094E+02  0.51905856015E+03 -0.95165492084E+03  0.10900685474E+04  0.91229927200E+02 0.  0.
          2    1    3    3  502    0  0.73953480339E+02 -0.24625062111E+02 -0.15094912835E+03  0.16988569771E+03  0.00000000000E+00 0. -1.
         -1    1    3    3    0  502  0.14126094109E+03 -0.13131293701E+03 -0.19839679109E+03  0.27669302055E+03  0.00000000000E+00 0.  1.
         11    1    5    5    0    0 -0.64150299324E+02 -0.26481893460E+03 -0.57342263201E+03  0.63486836741E+03  0.00000000000E+00 0. -1.
        -11    1    5    5    0    0 -0.81367199014E+02 -0.98301626428E+02 -0.22934794579E+03  0.26245820824E+03  0.00000000000E+00 0.  1.
          3    1    6    6  503    0 -0.68197566202E+02  0.52235962724E+03 -0.94951435875E+03  0.10858581886E+04  0.00000000000E+00 0. -1.
         -3    1    6    6    0  503 -0.14993568928E+01 -0.33010670917E+01 -0.21405620882E+01  0.42103587839E+01  0.00000000000E+00 0.  1.
<mgrwt>
<rscale>  0 0.12240811E+04</rscale>
<asrwt>0</asrwt>
<pdfrwt beam="1">  1        2 0.34905736E+00 0.12240811E+04</pdfrwt>
<pdfrwt beam="2">  1       -1 0.25400184E-01 0.12240811E+04</pdfrwt>
<totfact> 0.72462476E+01</totfact>
</mgrwt>
</event>
<event>
12    6  0.9491186E-008  0.2037657E+04  0.7818608E-02  0.8589215E-01
          2   -1    0    0  501    0  0.00000000000E+00  0.00000000000E+00  0.34256972380E+04  0.34256972380E+04  0.00000000000E+00 0. -1.
         -1   -1    0    0    0  501 -0.00000000000E+00 -0.00000000000E+00 -0.30300727143E+03  0.30300727143E+03  0.00000000000E+00 0.  1.
         24    2    1    2    0    0 -0.70855721121E+03 -0.26193029861E+03  0.18488399569E+04  0.19987993006E+04  0.79552843646E+02 0.  0.
        254    2    1    2    0    0  0.70855721121E+03  0.26193029861E+03  0.12738500097E+04  0.17299052089E+04  0.89398958696E+03 0.  0.
         23    2    4    4    0    0  0.13064253101E+03 -0.30240169521E+03  0.25574543956E+03  0.42700276649E+03  0.91713557108E+02 0.  0.
         23    2    4    4    0    0  0.57791468019E+03  0.56433199381E+03  0.10181045702E+04  0.13029024424E+04  0.92530437235E+02 0.  0.
          2    1    3    3  502    0 -0.12507140448E+03 -0.14861979907E+02  0.30319672658E+03  0.32831690434E+03  0.00000000000E+00 0. -1.
         -1    1    3    3    0  502 -0.58348580672E+03 -0.24706831870E+03  0.15456432303E+04  0.16704823962E+04  0.00000000000E+00 0.  1.
         11    1    5    5    0    0 -0.13235981737E+02 -0.46652423102E+02  0.35298772856E+02  0.59980356442E+02  0.00000000000E+00 0.  1.
        -11    1    5    5    0    0  0.14387851275E+03 -0.25574927210E+03  0.22044666670E+03  0.36702241004E+03  0.00000000000E+00 0. -1.
          3    1    6    6  503    0  0.52050119407E+03  0.52950647279E+03  0.89707136301E+03  0.11644894281E+04  0.00000000000E+00 0. -1.
         -3    1    6    6    0  503  0.57413486123E+02  0.34825521021E+02  0.12103320715E+03  0.13841301434E+03  0.00000000000E+00 0.  1.
<mgrwt>
<rscale>  0 0.20376567E+04</rscale>
<asrwt>0</asrwt>
<pdfrwt beam="1">  1        2 0.52703032E+00 0.20376567E+04</pdfrwt>
<pdfrwt beam="2">  1       -1 0.46616506E-01 0.20376567E+04</pdfrwt>
<totfact> 0.44443319E+00</totfact>
</mgrwt>
</event>
<event>
12    6  0.9491186E-008  0.1891401E+04  0.7818608E-02  0.8659149E-01
          2   -1    0    0  501    0  0.00000000000E+00  0.00000000000E+00  0.20730009529E+04  0.20730009529E+04  0.00000000000E+00 0. -1.
         -1   -1    0    0    0  501 -0.00000000000E+00 -0.00000000000E+00 -0.43142720233E+03  0.43142720233E+03  0.00000000000E+00 0.  1.
         24    2    1    2    0    0 -0.43890667380E+03  0.22882575339E+03  0.13456876465E+04  0.14354934574E+04  0.69035718432E+02 0.  0.
        254    2    1    2    0    0  0.43890667380E+03 -0.22882575339E+03  0.29588610404E+03  0.10689346979E+04  0.90004028133E+03 0.  0.
         23    2    4    4    0    0 -0.23243195677E+03 -0.95750276012E+02  0.26627957267E+03  0.37764968507E+03  0.92313292229E+02 0.  0.
         23    2    4    4    0    0  0.67133863057E+03 -0.13307547738E+03  0.29606531370E+02  0.69128501280E+03  0.92702657161E+02 0.  0.
          4    1    3    3  502    0 -0.30739596515E+03  0.12350647627E+03  0.89371863520E+03  0.95314171453E+03  0.00000000000E+00 0. -1.
         -3    1    3    3    0  502 -0.13151070864E+03  0.10531927712E+03  0.45196901135E+03  0.48235174286E+03  0.00000000000E+00 0.  1.
         11    1    5    5    0    0 -0.22144834104E+03 -0.65570289508E+02  0.25391029712E+03  0.34323354964E+03  0.00000000000E+00 0. -1.
        -11    1    5    5    0    0 -0.10983615735E+02 -0.30179986504E+02  0.12369275552E+02  0.34416135426E+02  0.00000000000E+00 0.  1.
          4    1    6    6  503    0  0.62161934292E+03 -0.14733449238E+03  0.30257901684E+02  0.63955734750E+03  0.00000000000E+00 0. -1.
         -4    1    6    6    0  503  0.49719287653E+02  0.14259014999E+02 -0.65137031409E+00  0.51727665293E+02  0.00000000000E+00 0.  1.
<mgrwt>
<rscale>  0 0.18914005E+04</rscale>
<asrwt>0</asrwt>
<pdfrwt beam="1">  1        2 0.31892322E+00 0.18914005E+04</pdfrwt>
<pdfrwt beam="2">  1       -1 0.66373417E-01 0.18914005E+04</pdfrwt>
<totfact> 0.14933636E+01</totfact>
</mgrwt>
</event>
<event>
12    6  0.9491186E-008  0.2320847E+04  0.7818608E-02  0.8469747E-01
         -1   -1    0    0    0  501 -0.00000000000E+00  0.00000000000E+00  0.57830442382E+03  0.57830442382E+03  0.00000000000E+00 0.  1.
          2   -1    0    0  501    0  0.00000000000E+00 -0.00000000000E+00 -0.23285011593E+04  0.23285011593E+04  0.00000000000E+00 0. -1.
         24    2    1    2    0    0 -0.61573422856E+03  0.75416453791E+03 -0.91997939884E+03  0.13415905741E+04  0.74902495217E+02 0.  0.
        254    2    1    2    0    0  0.61573422856E+03 -0.75416453791E+03 -0.83021733668E+03  0.15652150091E+04  0.90152338183E+03 0.  0.
         23    2    4    4    0    0  0.34189755099E+03 -0.46373159167E+03 -0.97116460507E+03  0.11330457886E+04  0.93226307685E+02 0.  0.
         23    2    4    4    0    0  0.27383667758E+03 -0.29043294624E+03  0.14094726839E+03  0.43216922045E+03  0.86984368668E+02 0.  0.
          2    1    3    3  502    0 -0.17312759207E+03  0.24430196842E+03 -0.24499223962E+03  0.38688216861E+03  0.00000000000E+00 0. -1.
         -1    1    3    3    0  502 -0.44260663649E+03  0.50986256949E+03 -0.67498715921E+03  0.95470840550E+03  0.00000000000E+00 0.  1.
         11    1    5    5    0    0  0.25799945672E+03 -0.40797656842E+03 -0.81427649043E+03  0.94660171292E+03  0.00000000000E+00 0. -1.
        -11    1    5    5    0    0  0.83898094270E+02 -0.55755023251E+02 -0.15688811464E+03  0.18644407568E+03  0.00000000000E+00 0.  1.
          2    1    6    6  503    0  0.20778588136E+03 -0.17755825198E+03  0.12457695729E+03  0.30036864621E+03  0.00000000000E+00 0. -1.
         -2    1    6    6    0  503  0.66050796220E+02 -0.11287469426E+03  0.16370311094E+02  0.13180057424E+03  0.00000000000E+00 0.  1.
<mgrwt>
<rscale>  0 0.23208468E+04</rscale>
<asrwt>0</asrwt>
<pdfrwt beam="1">  1        2 0.35823095E+00 0.23208468E+04</pdfrwt>
<pdfrwt beam="2">  1       -1 0.88969912E-01 0.23208468E+04</pdfrwt>
<totfact> 0.55720451E+00</totfact>
</mgrwt>
</event>
<event>
12    6  0.9491186E-008  0.3678679E+04  0.7818608E-02  0.8072703E-01
         -1   -1    0    0    0  501 -0.00000000000E+00  0.00000000000E+00  0.11951535598E+04  0.11951535598E+04  0.00000000000E+00 0.  1.
          2   -1    0    0  501    0  0.00000000000E+00 -0.00000000000E+00 -0.28307409382E+04  0.28307409382E+04  0.00000000000E+00 0. -1.
         24    2    1    2    0    0  0.35872350600E+03 -0.11761779848E+04  0.55957678561E+03  0.13533616904E+04  0.79902943422E+02 0.  0.
        254    2    1    2    0    0 -0.35872350600E+03  0.11761779848E+04 -0.21951641640E+04  0.26725328076E+04  0.90089327641E+03 0.  0.
         23    2    4    4    0    0 -0.46802964572E+03  0.18587495584E+03 -0.90377386821E+03  0.10388867639E+04  0.94219184751E+02 0.  0.
         23    2    4    4    0    0  0.10930613972E+03  0.99030302897E+03 -0.12913902958E+04  0.16336460438E+04  0.91992277098E+02 0.  0.
          2    1    3    3  502    0  0.20245507104E+03 -0.62110524011E+03  0.33875265562E+03  0.73587576178E+03  0.00000000000E+00 0. -1.
         -3    1    3    3    0  502  0.15626843496E+03 -0.55507274469E+03  0.22082412999E+03  0.61748592863E+03  0.00000000000E+00 0.  1.
         11    1    5    5    0    0 -0.57350964989E+02  0.41666153465E+02 -0.19089946647E+03  0.20363645997E+03  0.00000000000E+00 0.  1.
        -11    1    5    5    0    0 -0.41067868073E+03  0.14420880237E+03 -0.71287440174E+03  0.83525030389E+03  0.00000000000E+00 0. -1.
          3    1    6    6  503    0  0.57135599929E+02  0.22799087978E+03 -0.34166807707E+03  0.41470639365E+03  0.00000000000E+00 0. -1.
         -3    1    6    6    0  503  0.52170539793E+02  0.76231214918E+03 -0.94972221868E+03  0.12189396501E+04  0.00000000000E+00 0.  1.
<mgrwt>
<rscale>  0 0.36786792E+04</rscale>
<asrwt>0</asrwt>
<pdfrwt beam="1">  1        2 0.43549860E+00 0.36786792E+04</pdfrwt>
<pdfrwt beam="2">  1       -1 0.18386978E+00 0.36786792E+04</pdfrwt>
<totfact> 0.39766858E-01</totfact>
</mgrwt>
</event>
<event>
12    6  0.9491186E-008  0.2657606E+04  0.7818608E-02  0.8348893E-01
         -1   -1    0    0    0  501 -0.00000000000E+00  0.00000000000E+00  0.22400720866E+04  0.22400720866E+04  0.00000000000E+00 0.  1.
          2   -1    0    0  501    0  0.00000000000E+00 -0.00000000000E+00 -0.78824138371E+03  0.78824138371E+03  0.00000000000E+00 0. -1.
         24    2    1    2    0    0 -0.40142683520E+03  0.69236095866E+02 -0.61331916974E+03  0.74055730946E+03  0.79546110145E+02 0.  0.
        254    2    1    2    0    0  0.40142683520E+03 -0.69236095866E+02  0.20651498727E+04  0.22877561609E+04  0.89612896067E+03 0.  0.
         23    2    4    4    0    0  0.27121057909E+03  0.17899634477E+03  0.19379587777E+04  0.19671470852E+04  0.91589087873E+02 0.  0.
         23    2    4    4    0    0  0.13021625611E+03 -0.24823244064E+03  0.12719109498E+03  0.32060907572E+03  0.89649243465E+02 0.  0.
          2    1    3    3  502    0 -0.34127533463E+03  0.67915314138E+02 -0.56425685128E+03  0.66292317665E+03  0.00000000000E+00 0. -1.
         -1    1    3    3    0  502 -0.60151500567E+02  0.13207817283E+01 -0.49062318457E+02  0.77634132810E+02  0.00000000000E+00 0.  1.
         11    1    5    5    0    0  0.17428727160E+03  0.79637498235E+02  0.91789999734E+03  0.93768789545E+03  0.00000000000E+00 0.  1.
        -11    1    5    5    0    0  0.96923307489E+02  0.99358846538E+02  0.10200587803E+04  0.10294591897E+04  0.00000000000E+00 0. -1.
          3    1    6    6  503    0  0.10797624447E+03 -0.24563570301E+03  0.12979949090E+03  0.29806656270E+03  0.00000000000E+00 0. -1.
         -3    1    6    6    0  503  0.22240011642E+02 -0.25967376327E+01 -0.26083959241E+01  0.22542513025E+02  0.00000000000E+00 0.  1.
<mgrwt>
<rscale>  0 0.26576061E+04</rscale>
<asrwt>0</asrwt>
<pdfrwt beam="1">  1        2 0.12126791E+00 0.26576061E+04</pdfrwt>
<pdfrwt beam="2">  1       -1 0.34462647E+00 0.26576061E+04</pdfrwt>
<totfact> 0.59482215E-01</totfact>
</mgrwt>
</event>
<event>
12    6  0.9491186E-008  0.2735169E+04  0.7818608E-02  0.8323683E-01
          2   -1    0    0  501    0  0.00000000000E+00  0.00000000000E+00  0.26597891186E+04  0.26597891186E+04  0.00000000000E+00 0. -1.
         -1   -1    0    0    0  501 -0.00000000000E+00 -0.00000000000E+00 -0.70317143330E+03  0.70317143330E+03  0.00000000000E+00 0.  1.
         24    2    1    2    0    0 -0.40181334978E+02  0.11444877698E+04  0.36403073666E+03  0.12042644915E+04  0.79169396191E+02 0.  0.
        254    2    1    2    0    0  0.40181334978E+02 -0.11444877698E+04  0.15925869486E+04  0.21586960604E+04  0.90120402636E+03 0.  0.
         23    2    4    4    0    0 -0.27781384237E+03 -0.24210601693E+03  0.88777411113E+03  0.96674603847E+03  0.10324328584E+03 0.  0.
         23    2    4    4    0    0  0.31799517735E+03 -0.90238175291E+03  0.70481283749E+03  0.11919500219E+04  0.92574067575E+02 0.  0.
          2    1    3    3  502    0 -0.34427824087E+02  0.49570380765E+03  0.12088414060E+03  0.51139076589E+03  0.00000000000E+00 0. -1.
         -1    1    3    3    0  502 -0.57535108910E+01  0.64878396218E+03  0.24314659606E+03  0.69287372562E+03  0.00000000000E+00 0.  1.
         11    1    5    5    0    0 -0.22127042133E+03 -0.13225841365E+03  0.63721498928E+03  0.68738332093E+03  0.00000000000E+00 0. -1.
        -11    1    5    5    0    0 -0.56543421038E+02 -0.10984760328E+03  0.25055912185E+03  0.27936271754E+03  0.00000000000E+00 0.  1.
          4    1    6    6  503    0  0.20636295792E+03 -0.69310240218E+03  0.55238963592E+03  0.91000600008E+03  0.00000000000E+00 0. -1.
         -4    1    6    6    0  503  0.11163221943E+03 -0.20927935073E+03  0.15242320157E+03  0.28194402181E+03  0.00000000000E+00 0.  1.
<mgrwt>
<rscale>  0 0.27351693E+04</rscale>
<asrwt>0</asrwt>
<pdfrwt beam="1">  1        2 0.40919832E+00 0.27351693E+04</pdfrwt>
<pdfrwt beam="2">  1       -1 0.10818022E+00 0.27351693E+04</pdfrwt>
<totfact> 0.22143477E+00</totfact>
</mgrwt>
</event>
<event>
12    6  0.9491186E-008  0.3183100E+04  0.7818608E-02  0.8193295E-01
         -1   -1    0    0    0  501 -0.00000000000E+00  0.00000000000E+00  0.24248377417E+04  0.24248377417E+04  0.00000000000E+00 0.  1.
          2   -1    0    0  501    0  0.00000000000E+00 -0.00000000000E+00 -0.10446191130E+04  0.10446191130E+04  0.00000000000E+00 0. -1.
         24    2    1    2    0    0 -0.53011506178E+02 -0.13745574126E+04  0.95696967110E+02  0.13811639388E+04  0.78978578923E+02 0.  0.
        254    2    1    2    0    0  0.53011506178E+02  0.13745574126E+04  0.12845216615E+04  0.20882929159E+04  0.90484976826E+03 0.  0.
         23    2    4    4    0    0 -0.40340004904E+03  0.67762208456E+03  0.76481518153E+03  0.11021220739E+04  0.88473243779E+02 0.  0.
         23    2    4    4    0    0  0.45641155522E+03  0.69693532808E+03  0.51970647998E+03  0.98617084195E+03  0.91693756107E+02 0.  0.
          4    1    3    3  502    0 -0.10463802153E+02 -0.39083682968E+03  0.62687433369E+02  0.39597049497E+03  0.00000000000E+00 0. -1.
         -3    1    3    3    0  502 -0.42547704025E+02 -0.98372058297E+03  0.33009533741E+02  0.98519344384E+03  0.00000000000E+00 0.  1.
         11    1    5    5    0    0 -0.26552514821E+03  0.45291177400E+03  0.56538263937E+03  0.77155052217E+03  0.00000000000E+00 0.  1.
        -11    1    5    5    0    0 -0.13787490083E+03  0.22471031056E+03  0.19943254215E+03  0.33057155174E+03  0.00000000000E+00 0. -1.
          3    1    6    6  503    0  0.40706968015E+03  0.61129527040E+03  0.42125410798E+03  0.84666561026E+03  0.00000000000E+00 0. -1.
         -3    1    6    6    0  503  0.49341875062E+02  0.85640057686E+02  0.98452372001E+02  0.13950523169E+03  0.00000000000E+00 0.  1.
<mgrwt>
<rscale>  0 0.31831003E+04</rscale>
<asrwt>0</asrwt>
<pdfrwt beam="1">  1        2 0.16071063E+00 0.31831003E+04</pdfrwt>
<pdfrwt beam="2">  1       -1 0.37305196E+00 0.31831003E+04</pdfrwt>
<totfact> 0.24691552E-01</totfact>
</mgrwt>
</event>
<event>
12    6  0.9491186E-008  0.2251961E+04  0.7818608E-02  0.8497107E-01
          2   -1    0    0  501    0  0.00000000000E+00  0.00000000000E+00  0.23563779927E+04  0.23563779927E+04  0.00000000000E+00 0. -1.
         -1   -1    0    0    0  501 -0.00000000000E+00 -0.00000000000E+00 -0.53804253385E+03  0.53804253385E+03  0.00000000000E+00 0.  1.
         24    2    1    2    0    0 -0.73332726890E+03  0.48840095979E+03  0.11855220869E+04  0.14791967098E+04  0.79094291432E+02 0.  0.
        254    2    1    2    0    0  0.73332726890E+03 -0.48840095979E+03  0.63281337202E+03  0.14152238168E+04  0.90890115361E+03 0.  0.
         23    2    4    4    0    0  0.37267599939E+03 -0.35690994812E+03  0.82441197108E+03  0.97658015624E+03  0.88213331876E+02 0.  0.
         23    2    4    4    0    0  0.36065126951E+03 -0.13149101166E+03 -0.19159859905E+03  0.43864366057E+03  0.91318198948E+02 0.  0.
          2    1    3    3  502    0 -0.35854117948E+03  0.28243262593E+03  0.58596278947E+03  0.74274649526E+03  0.00000000000E+00 0. -1.
         -1    1    3    3    0  502 -0.37478608943E+03  0.20596833386E+03  0.59955929740E+03  0.73645021453E+03  0.00000000000E+00 0.  1.
         11    1    5    5    0    0  0.15466560070E+03 -0.10585623869E+03  0.35351935360E+03  0.40012863517E+03  0.00000000000E+00 0. -1.
        -11    1    5    5    0    0  0.21801039869E+03 -0.25105370944E+03  0.47089261747E+03  0.57645152108E+03  0.00000000000E+00 0.  1.
          3    1    6    6  503    0  0.26170566077E+03 -0.12778252879E+03 -0.17026975762E+03  0.33735740380E+03  0.00000000000E+00 0. -1.
         -3    1    6    6    0  503  0.98945608738E+02 -0.37084828723E+01 -0.21328841435E+02  0.10128625677E+03  0.00000000000E+00 0.  1.
<mgrwt>
<rscale>  0 0.22519606E+04</rscale>
<asrwt>0</asrwt>
<pdfrwt beam="1">  1        2 0.36251969E+00 0.22519606E+04</pdfrwt>
<pdfrwt beam="2">  1       -1 0.82775775E-01 0.22519606E+04</pdfrwt>
<totfact> 0.63225265E+00</totfact>
</mgrwt>
</event>
<event>
12    6  0.9491186E-008  0.1044056E+04  0.7818608E-02  0.9261502E-01
         -1   -1    0    0    0  501 -0.00000000000E+00  0.00000000000E+00  0.14732766174E+03  0.14732766174E+03  0.00000000000E+00 0.  1.
          2   -1    0    0  501    0  0.00000000000E+00 -0.00000000000E+00 -0.18497099245E+04  0.18497099245E+04  0.00000000000E+00 0. -1.
         24    2    1    2    0    0  0.11516695161E+02  0.68866528810E+01 -0.15369884490E+02  0.79853060644E+02  0.77202446138E+02 0.  0.
        254    2    1    2    0    0 -0.11516695161E+02 -0.68866528810E+01 -0.16870123782E+04  0.19171845256E+04  0.91071712428E+03 0.  0.
         23    2    4    4    0    0  0.12993487882E+03 -0.19294657441E+01 -0.17346123405E+04  0.17418247627E+04  0.90480588081E+02 0.  0.
         23    2    4    4    0    0 -0.14145157398E+03 -0.49571871369E+01  0.47599962221E+02  0.17535976283E+03  0.91935676039E+02 0.  0.
          4    1    3    3  502    0  0.42154286421E+01 -0.92249726124E+01 -0.44571965488E+02  0.45711377859E+02  0.00000000000E+00 0. -1.
         -3    1    3    3    0  502  0.73012665190E+01  0.16111625493E+02  0.29202080997E+02  0.34141682785E+02  0.00000000000E+00 0.  1.
         11    1    5    5    0    0  0.60898621688E+02 -0.39831211401E+02 -0.58321979497E+03  0.58774186236E+03  0.00000000000E+00 0. -1.
        -11    1    5    5    0    0  0.69036257133E+02  0.37901745657E+02 -0.11513925455E+04  0.11540829004E+04  0.00000000000E+00 0.  1.
          3    1    6    6  503    0 -0.44706086765E+02  0.13710643218E+02 -0.24949861461E+02  0.53001052048E+02  0.00000000000E+00 0. -1.
         -3    1    6    6    0  503 -0.96745487218E+02 -0.18667830355E+02  0.72549823682E+02  0.12235871078E+03  0.00000000000E+00 0.  1.
<mgrwt>
<rscale>  0 0.10440564E+04</rscale>
<asrwt>0</asrwt>
<pdfrwt beam="1">  1        2 0.28457077E+00 0.10440564E+04</pdfrwt>
<pdfrwt beam="2">  1       -1 0.22665793E-01 0.10440564E+04</pdfrwt>
<totfact> 0.15237175E+02</totfact>
</mgrwt>
</event>
<event>
12    6  0.9491186E-008  0.1364962E+04  0.7818608E-02  0.8979579E-01
          2   -1    0    0  501    0  0.00000000000E+00  0.00000000000E+00  0.22913772041E+04  0.22913772041E+04  0.00000000000E+00 0. -1.
         -1   -1    0    0    0  501 -0.00000000000E+00 -0.00000000000E+00 -0.20327512317E+03  0.20327512317E+03  0.00000000000E+00 0.  1.
         24    2    1    2    0    0 -0.17846158996E+03  0.14474312626E+03  0.11582644170E+04  0.11835579198E+04  0.80210836553E+02 0.  0.
        254    2    1    2    0    0  0.17846158996E+03 -0.14474312626E+03  0.92983766397E+03  0.13110944074E+04  0.89530517267E+03 0.  0.
         23    2    4    4    0    0  0.50891086594E+03 -0.15531903135E+03  0.75266037834E+03  0.92526327757E+03  0.80623921483E+02 0.  0.
         23    2    4    4    0    0 -0.33044927598E+03  0.10575905096E+02  0.17717728563E+03  0.38583112988E+03  0.90362030054E+02 0.  0.
          2    1    3    3  502    0 -0.11684598886E+03  0.47209108032E+02  0.52884654648E+03  0.54365462815E+03  0.00000000000E+00 0. -1.
         -1    1    3    3    0  502 -0.61615601104E+02  0.97534018224E+02  0.62941787049E+03  0.63990329168E+03  0.00000000000E+00 0.  1.
         11    1    5    5    0    0  0.72512544636E+01 -0.63051822214E+01  0.39745242146E+02  0.40890344672E+02  0.00000000000E+00 0. -1.
        -11    1    5    5    0    0  0.50165961148E+03 -0.14901384913E+03  0.71291513620E+03  0.88437293290E+03  0.00000000000E+00 0.  1.
          3    1    6    6  503    0 -0.62717885991E+02  0.27082683548E+02  0.67492065476E+02  0.96032202274E+02  0.00000000000E+00 0. -1.
         -3    1    6    6    0  503 -0.26773138999E+03 -0.16506778451E+02  0.10968522015E+03  0.28979892760E+03  0.00000000000E+00 0.  1.
<mgrwt>
<rscale>  0 0.13649615E+04</rscale>
<asrwt>0</asrwt>
<pdfrwt beam="1">  1        2 0.35251955E+00 0.13649615E+04</pdfrwt>
<pdfrwt beam="2">  1       -1 0.31273097E-01 0.13649615E+04</pdfrwt>
<totfact> 0.48434415E+01</totfact>
</mgrwt>
</event>
<event>
12    6  0.9491186E-008  0.3480860E+04  0.7818608E-02  0.8118341E-01
          2   -1    0    0  501    0  0.00000000000E+00  0.00000000000E+00  0.54923775622E+04  0.54923775622E+04  0.00000000000E+00 0. -1.
         -1   -1    0    0    0  501 -0.00000000000E+00 -0.00000000000E+00 -0.55150908477E+03  0.55150908477E+03  0.00000000000E+00 0.  1.
         24    2    1    2    0    0  0.65119647556E+03 -0.92288146600E+03  0.42854944205E+04  0.44325763154E+04  0.80643123851E+02 0.  0.
        254    2    1    2    0    0 -0.65119647556E+03  0.92288146600E+03  0.65537405692E+03  0.16113103316E+04  0.94394850501E+03 0.  0.
         23    2    4    4    0    0 -0.56134193814E+03  0.14641203917E+03  0.57228492897E+03  0.81976719624E+03  0.89257825355E+02 0.  0.
         23    2    4    4    0    0 -0.89854537415E+02  0.77646942683E+03  0.83089127950E+02  0.79154313533E+03  0.93049036629E+02 0.  0.
          2    1    3    3  502    0  0.43410622293E+03 -0.67623899130E+03  0.30807105877E+04  0.31837909968E+04  0.00000000000E+00 0. -1.
         -1    1    3    3    0  502  0.21709025262E+03 -0.24664247470E+03  0.12047838328E+04  0.12487853186E+04  0.00000000000E+00 0.  1.
         11    1    5    5    0    0 -0.31557798766E+03  0.12671102211E+03  0.31814879861E+03  0.46568638317E+03  0.00000000000E+00 0.  1.
        -11    1    5    5    0    0 -0.24576395048E+03  0.19701017055E+02  0.25413613036E+03  0.35408081307E+03  0.00000000000E+00 0. -1.
          1    1    6    6  503    0 -0.92433368295E+02  0.57491911950E+03  0.93244532157E+02  0.58972066635E+03  0.00000000000E+00 0. -1.
         -1    1    6    6    0  503  0.25788308806E+01  0.20155030733E+03 -0.10155404207E+02  0.20182246899E+03  0.00000000000E+00 0.  1.
<mgrwt>
<rscale>  0 0.34808597E+04</rscale>
<asrwt>0</asrwt>
<pdfrwt beam="1">  1        2 0.84498113E+00 0.34808597E+04</pdfrwt>
<pdfrwt beam="2">  1       -1 0.84847555E-01 0.34808597E+04</pdfrwt>
<totfact> 0.78569258E-03</totfact>
</mgrwt>
</event>
<event>
12    6  0.9491186E-008  0.2360779E+04  0.7818608E-02  0.8454335E-01
         -1   -1    0    0    0  501 -0.00000000000E+00  0.00000000000E+00  0.84075910797E+03  0.84075910797E+03  0.00000000000E+00 0.  1.
          2   -1    0    0  501    0  0.00000000000E+00 -0.00000000000E+00 -0.16572161608E+04  0.16572161608E+04  0.00000000000E+00 0. -1.
         24    2    1    2    0    0 -0.95716212780E+03 -0.24041937477E+03 -0.56162653964E+03  0.11383420266E+04  0.80233315068E+02 0.  0.
        254    2    1    2    0    0  0.95716212780E+03  0.24041937477E+03 -0.25483051319E+03  0.13596332422E+04  0.89983506715E+03 0.  0.
         23    2    4    4    0    0  0.33042565913E+03  0.47857083548E+03 -0.33555193276E+03  0.67772614128E+03  0.92230484138E+02 0.  0.
         23    2    4    4    0    0  0.62673646867E+03 -0.23815146070E+03  0.80721419571E+02  0.68190710089E+03  0.94692276663E+02 0.  0.
          4    1    3    3  502    0 -0.18685078465E+03 -0.51863512700E+02 -0.14774358629E+03  0.24378516559E+03  0.00000000000E+00 0. -1.
         -3    1    3    3    0  502 -0.77031134316E+03 -0.18855586207E+03 -0.41388295335E+03  0.89455686102E+03  0.00000000000E+00 0.  1.
         11    1    5    5    0    0  0.17400235061E+03  0.27532033458E+03 -0.13681923491E+03  0.35326704869E+03  0.00000000000E+00 0.  1.
        -11    1    5    5    0    0  0.15642330852E+03  0.20325050090E+03 -0.19873269785E+03  0.32445909258E+03  0.00000000000E+00 0. -1.
          3    1    6    6  503    0  0.59036981944E+03 -0.22171820615E+03  0.98395911382E+02  0.63826110803E+03  0.00000000000E+00 0. -1.
         -3    1    6    6    0  503  0.36366649232E+02 -0.16433254560E+02 -0.17674491811E+02  0.43645992858E+02  0.00000000000E+00 0.  1.
<mgrwt>
<rscale>  0 0.23607792E+04</rscale>
<asrwt>0</asrwt>
<pdfrwt beam="1">  1        2 0.25495633E+00 0.23607792E+04</pdfrwt>
<pdfrwt beam="2">  1       -1 0.12934756E+00 0.23607792E+04</pdfrwt>
<totfact> 0.54665955E+00</totfact>
</mgrwt>
</event>
<event>
12    6  0.9491186E-008  0.2413951E+04  0.7818608E-02  0.8434299E-01
         -1   -1    0    0    0  501 -0.00000000000E+00  0.00000000000E+00  0.12339592542E+04  0.12339592542E+04  0.00000000000E+00 0.  1.
          2   -1    0    0  501    0  0.00000000000E+00 -0.00000000000E+00 -0.11805822210E+04  0.11805822210E+04  0.00000000000E+00 0. -1.
         24    2    1    2    0    0  0.29959335970E+03  0.86986794251E+03  0.46816954871E+03  0.10353635482E+04  0.79803082119E+02 0.  0.
        254    2    1    2    0    0 -0.29959335970E+03 -0.86986794251E+03 -0.41479251555E+03  0.13791779271E+04  0.94002792776E+03 0.  0.
         23    2    4    4    0    0  0.17702536788E+03  0.49556765198E+02 -0.25950516161E+03  0.32762967748E+03  0.78768158626E+02 0.  0.
         23    2    4    4    0    0 -0.47661872758E+03 -0.91942470771E+03 -0.15528735393E+03  0.10515482496E+04  0.95563352172E+02 0.  0.
          4    1    3    3  502    0  0.78919775690E+02  0.14352198963E+03  0.96945136148E+02  0.19032932492E+03  0.00000000000E+00 0. -1.
         -3    1    3    3    0  502  0.22067358401E+03  0.72634595289E+03  0.37122441256E+03  0.84503422323E+03  0.00000000000E+00 0.  1.
         11    1    5    5    0    0  0.61731384422E+02 -0.45835362090E+01 -0.13955301898E+03  0.15266570582E+03  0.00000000000E+00 0.  1.
        -11    1    5    5    0    0  0.11529398346E+03  0.54140301407E+02 -0.11995214264E+03  0.17496397167E+03  0.00000000000E+00 0. -1.
          3    1    6    6  503    0 -0.21551551475E+02 -0.97852045504E+02 -0.25920675091E+02  0.10349576599E+03  0.00000000000E+00 0. -1.
         -3    1    6    6    0  503 -0.45506717611E+03 -0.82157266221E+03 -0.12936667884E+03  0.94805248360E+03  0.00000000000E+00 0.  1.
<mgrwt>
<rscale>  0 0.24139514E+04</rscale>
<asrwt>0</asrwt>
<pdfrwt beam="1">  1        2 0.18162803E+00 0.24139514E+04</pdfrwt>
<pdfrwt beam="2">  1       -1 0.18983989E+00 0.24139514E+04</pdfrwt>
<totfact> 0.35288234E+00</totfact>
</mgrwt>
</event>
<event>
12    6  0.9491186E-008  0.1905612E+04  0.7818608E-02  0.8652068E-01
          2   -1    0    0  501    0  0.00000000000E+00  0.00000000000E+00  0.12504718841E+04  0.12504718841E+04  0.00000000000E+00 0. -1.
         -1   -1    0    0    0  501 -0.00000000000E+00 -0.00000000000E+00 -0.72599714483E+03  0.72599714483E+03  0.00000000000E+00 0.  1.
         24    2    1    2    0    0  0.37280507582E+03  0.48086242296E+03  0.64187607619E+03  0.88801399775E+03  0.79697356525E+02 0.  0.
        254    2    1    2    0    0 -0.37280507582E+03 -0.48086242296E+03 -0.11740133687E+03  0.10884550312E+04  0.89484020179E+03 0.  0.
         23    2    4    4    0    0 -0.49920873462E+03 -0.65822140054E+03 -0.74228009163E+01  0.83127034939E+03  0.92144033775E+02 0.  0.
         23    2    4    4    0    0  0.12640365879E+03  0.17735897758E+03 -0.10997853595E+03  0.25718468184E+03  0.81330131665E+02 0.  0.
          2    1    3    3  502    0  0.33723355258E+03  0.46347575207E+03  0.58790780635E+03  0.82107967367E+03  0.00000000000E+00 0. -1.
         -3    1    3    3    0  502  0.35571523242E+02  0.17386670886E+02  0.53968269839E+02  0.66934324077E+02  0.00000000000E+00 0.  1.
         11    1    5    5    0    0 -0.36980706847E+02 -0.80746810655E+02 -0.21794113789E+02  0.91447271724E+02  0.00000000000E+00 0.  1.
        -11    1    5    5    0    0 -0.46222802777E+03 -0.57747458989E+03  0.14371312873E+02  0.73982307767E+03  0.00000000000E+00 0. -1.
          2    1    6    6  503    0  0.83090754180E+02  0.16378399699E+03 -0.10492240347E+03  0.21151355004E+03  0.00000000000E+00 0. -1.
         -2    1    6    6    0  503  0.43312904612E+02  0.13574980594E+02 -0.50561324779E+01  0.45671131798E+02  0.00000000000E+00 0.  1.
<mgrwt>
<rscale>  0 0.19056117E+04</rscale>
<asrwt>0</asrwt>
<pdfrwt beam="1">  1        2 0.19238029E+00 0.19056117E+04</pdfrwt>
<pdfrwt beam="2">  1       -1 0.11169187E+00 0.19056117E+04</pdfrwt>
<totfact> 0.13886580E+01</totfact>
</mgrwt>
</event>
<event>
12    6  0.9491186E-008  0.1647489E+04  0.7818608E-02  0.8791893E-01
         -1   -1    0    0    0  501 -0.00000000000E+00  0.00000000000E+00  0.37633828374E+03  0.37633828374E+03  0.00000000000E+00 0.  1.
          2   -1    0    0  501    0  0.00000000000E+00 -0.00000000000E+00 -0.18030451578E+04  0.18030451578E+04  0.00000000000E+00 0. -1.
         24    2    1    2    0    0 -0.50446641095E+03 -0.26011156952E+03 -0.38264170595E+03  0.68925492135E+03  0.80704913769E+02 0.  0.
        254    2    1    2    0    0  0.50446641095E+03  0.26011156952E+03 -0.10440651681E+04  0.14901285201E+04  0.89903645253E+03 0.  0.
         23    2    4    4    0    0  0.20016899038E+03  0.24341771121E+03 -0.11161689574E+04  0.11640490651E+04  0.99283824800E+02 0.  0.
         23    2    4    4    0    0  0.30429742057E+03  0.16693858311E+02  0.72103789286E+02  0.32607945499E+03  0.90847396589E+02 0.  0.
          4    1    3    3  502    0 -0.16477891752E+03 -0.86819540152E+02 -0.17243951577E+03  0.25382102121E+03  0.00000000000E+00 0. -1.
         -3    1    3    3    0  502 -0.33968749343E+03 -0.17329202937E+03 -0.21020219017E+03  0.43543390014E+03  0.00000000000E+00 0.  1.
         11    1    5    5    0    0  0.39009329892E+01  0.57641758939E+02 -0.14821128557E+03  0.15907348874E+03  0.00000000000E+00 0. -1.
        -11    1    5    5    0    0  0.19626805739E+03  0.18577595227E+03 -0.96795767179E+03  0.10049755764E+04  0.00000000000E+00 0.  1.
          3    1    6    6  503    0  0.63621764426E+02  0.38723436706E+02  0.32128480858E+02  0.81113949117E+02  0.00000000000E+00 0. -1.
         -3    1    6    6    0  503  0.24067565614E+03 -0.22029578395E+02  0.39975308428E+02  0.24496550588E+03  0.00000000000E+00 0.  1.
<mgrwt>
<rscale>  0 0.16474889E+04</rscale>
<asrwt>0</asrwt>
<pdfrwt beam="1">  1        2 0.27739156E+00 0.16474889E+04</pdfrwt>
<pdfrwt beam="2">  1       -1 0.57898197E-01 0.16474889E+04</pdfrwt>
<totfact> 0.28269331E+01</totfact>
</mgrwt>
</event>
<event>
12    6  0.9491186E-008  0.1551065E+04  0.7818608E-02  0.8851188E-01
         -1   -1    0    0    0  501 -0.00000000000E+00  0.00000000000E+00  0.17286377325E+03  0.17286377325E+03  0.00000000000E+00 0.  1.
          2   -1    0    0  501    0  0.00000000000E+00 -0.00000000000E+00 -0.34793328016E+04  0.34793328016E+04  0.00000000000E+00 0. -1.
         24    2    1    2    0    0 -0.12596530967E+03 -0.73325762942E+02  0.50051082608E+02  0.17419638671E+03  0.81211720346E+02 0.  0.
        254    2    1    2    0    0  0.12596530967E+03  0.73325762942E+02 -0.33565201109E+04  0.34780001881E+04  0.89945212581E+03 0.  0.
         23    2    4    4    0    0  0.28087889737E+02  0.47190097428E+03 -0.20095059836E+04  0.20663983891E+04  0.91698120546E+02 0.  0.
         23    2    4    4    0    0  0.97877419935E+02 -0.39857521133E+03 -0.13470141274E+04  0.14116017990E+04  0.98642745705E+02 0.  0.
          2    1    3    3  502    0 -0.37666705846E+02 -0.68776901138E+02  0.22196290852E+02  0.81496737279E+02  0.00000000000E+00 0. -1.
         -1    1    3    3    0  502 -0.88298603825E+02 -0.45488618036E+01  0.27854791756E+02  0.92699649433E+02  0.00000000000E+00 0.  1.
         11    1    5    5    0    0  0.32341146986E+02  0.49674051307E+02 -0.24056574483E+03  0.24776064810E+03  0.00000000000E+00 0.  1.
        -11    1    5    5    0    0 -0.42532572490E+01  0.42222692297E+03 -0.17689402387E+04  0.18186377410E+04  0.00000000000E+00 0. -1.
          4    1    6    6  503    0  0.93335230518E+02 -0.34185655279E+03 -0.10232286028E+04  0.10828546262E+04  0.00000000000E+00 0. -1.
         -4    1    6    6    0  503  0.45421894172E+01 -0.56718658543E+02 -0.32378552456E+03  0.32874717281E+03  0.00000000000E+00 0.  1.
<mgrwt>
<rscale>  0 0.15510649E+04</rscale>
<asrwt>0</asrwt>
<pdfrwt beam="1">  1        2 0.53528194E+00 0.15510649E+04</pdfrwt>
<pdfrwt beam="2">  1       -1 0.26594428E-01 0.15510649E+04</pdfrwt>
<totfact> 0.11745179E+01</totfact>
</mgrwt>
</event>
<event>
12    6  0.9491186E-008  0.1695794E+04  0.7818608E-02  0.8763767E-01
          2   -1    0    0  501    0  0.00000000000E+00  0.00000000000E+00  0.71527837613E+03  0.71527837613E+03  0.00000000000E+00 0. -1.
         -1   -1    0    0    0  501 -0.00000000000E+00 -0.00000000000E+00 -0.10051043118E+04  0.10051043118E+04  0.00000000000E+00 0.  1.
         24    2    1    2    0    0 -0.11200968696E+03  0.22325914015E+03 -0.65579240305E+03  0.70619495191E+03  0.79100066880E+02 0.  0.
        254    2    1    2    0    0  0.11200968696E+03 -0.22325914015E+03  0.36596646734E+03  0.10141877361E+04  0.91227983378E+03 0.  0.
         23    2    4    4    0    0  0.21744294773E+03 -0.54562999473E+03  0.24360246880E+03  0.64249745433E+03  0.92017875158E+02 0.  0.
         23    2    4    4    0    0 -0.10543326076E+03  0.32237085458E+03  0.12236399854E+03  0.37169028173E+03  0.90230687897E+02 0.  0.
          2    1    3    3  502    0 -0.68215092232E+02  0.73446225070E+02 -0.18804255100E+03  0.21309070316E+03  0.00000000000E+00 0. -1.
         -3    1    3    3    0  502 -0.43794594730E+02  0.14981291508E+03 -0.46774985204E+03  0.49310424875E+03  0.00000000000E+00 0.  1.
         11    1    5    5    0    0  0.84765997035E+02 -0.27655963059E+03  0.76972714050E+02  0.29932474377E+03  0.00000000000E+00 0.  1.
        -11    1    5    5    0    0  0.13267695069E+03 -0.26907036414E+03  0.16662975475E+03  0.34317271056E+03  0.00000000000E+00 0. -1.
          4    1    6    6  503    0 -0.10724863138E+03  0.24116657160E+03  0.63758835025E+02  0.27153042782E+03  0.00000000000E+00 0. -1.
         -4    1    6    6    0  503  0.18153706183E+01  0.81204282983E+02  0.58605163511E+02  0.10015985391E+03  0.00000000000E+00 0.  1.
<mgrwt>
<rscale>  0 0.16957941E+04</rscale>
<asrwt>0</asrwt>
<pdfrwt beam="1">  1        2 0.11004283E+00 0.16957941E+04</pdfrwt>
<pdfrwt beam="2">  1       -1 0.15463143E+00 0.16957941E+04</pdfrwt>
<totfact> 0.13918090E+01</totfact>
</mgrwt>
</event>
<event>
12    6  0.9491186E-008  0.4174864E+04  0.7818608E-02  0.7970171E-01
         -1   -1    0    0    0  501 -0.00000000000E+00  0.00000000000E+00  0.41111788949E+04  0.41111788949E+04  0.00000000000E+00 0.  1.
          2   -1    0    0  501    0  0.00000000000E+00 -0.00000000000E+00 -0.10598837864E+04  0.10598837864E+04  0.00000000000E+00 0. -1.
         24    2    1    2    0    0 -0.10950320094E+04  0.12543993018E+02 -0.60275905666E+03  0.12524832558E+04  0.78379667091E+02 0.  0.
        254    2    1    2    0    0  0.10950320094E+04 -0.12543993018E+02  0.36540541652E+04  0.39185794255E+04  0.89660493980E+03 0.  0.
         23    2    4    4    0    0  0.45419633470E+03 -0.43963994820E+03  0.16424818598E+04  0.17626826567E+04  0.98619948338E+02 0.  0.
         23    2    4    4    0    0  0.64083567474E+03  0.42709595518E+03  0.20115723055E+04  0.21558967688E+04  0.91577401620E+02 0.  0.
          2    1    3    3  502    0 -0.94060714023E+03  0.30230814588E+01 -0.48667133788E+03  0.10590561469E+04  0.00000000000E+00 0. -1.
         -1    1    3    3    0  502 -0.15442486922E+03  0.95209115597E+01 -0.11608771878E+03  0.19342710886E+03  0.00000000000E+00 0.  1.
         11    1    5    5    0    0  0.13920546860E+03 -0.11935322494E+03  0.36406227702E+03  0.40763304127E+03  0.00000000000E+00 0. -1.
        -11    1    5    5    0    0  0.31499086610E+03 -0.32028672326E+03  0.12784195827E+04  0.13550496155E+04  0.00000000000E+00 0.  1.
          2    1    6    6  503    0  0.33532424035E+03  0.19913510666E+03  0.90300827203E+03  0.98362649223E+03  0.00000000000E+00 0. -1.
         -2    1    6    6    0  503  0.30551143439E+03  0.22796084852E+03  0.11085640334E+04  0.11722702765E+04  0.00000000000E+00 0.  1.
<mgrwt>
<rscale>  0 0.41748638E+04</rscale>
<asrwt>0</asrwt>
<pdfrwt beam="1">  1        2 0.16305905E+00 0.41748638E+04</pdfrwt>
<pdfrwt beam="2">  1       -1 0.63248905E+00 0.41748638E+04</pdfrwt>
<totfact> 0.68667036E-03</totfact>
</mgrwt>
</event>
<event>
12    6  0.9491186E-008  0.1345425E+04  0.7818608E-02  0.8994299E-01
         -1   -1    0    0    0  501 -0.00000000000E+00  0.00000000000E+00  0.66491449349E+03  0.66491449349E+03  0.00000000000E+00 0.  1.
          2   -1    0    0  501    0  0.00000000000E+00 -0.00000000000E+00 -0.68060160792E+03  0.68060160792E+03  0.00000000000E+00 0. -1.
         24    2    1    2    0    0  0.29094821668E+03 -0.18698638118E+03 -0.13868131964E+03  0.38018166909E+03  0.75437534153E+02 0.  0.
        254    2    1    2    0    0 -0.29094821668E+03  0.18698638118E+03  0.12299420520E+03  0.96533443232E+03  0.89282037397E+03 0.  0.
         23    2    4    4    0    0 -0.59808209710E+02 -0.26157484273E+01  0.47924505659E+03  0.49145435821E+03  0.90926881901E+02 0.  0.
         23    2    4    4    0    0 -0.23114000697E+03  0.18960212961E+03 -0.35625085138E+03  0.47388007411E+03  0.90955951745E+02 0.  0.
          2    1    3    3  502    0  0.17776691251E+03 -0.11515866146E+03 -0.44710652531E+02  0.21647548347E+03  0.00000000000E+00 0. -1.
         -1    1    3    3    0  502  0.11318130416E+03 -0.71827719716E+02 -0.93970667111E+02  0.16370618561E+03  0.00000000000E+00 0.  1.
         11    1    5    5    0    0 -0.52358136844E+02  0.26756532790E+02  0.42722337823E+03  0.43125062486E+03  0.00000000000E+00 0. -1.
        -11    1    5    5    0    0 -0.74500728658E+01 -0.29372281217E+02  0.52021678360E+02  0.60203733348E+02  0.00000000000E+00 0.  1.
          3    1    6    6  503    0 -0.11200457990E+03  0.10404731486E+03 -0.24897484206E+03  0.29216321060E+03  0.00000000000E+00 0. -1.
         -3    1    6    6    0  503 -0.11913542707E+03  0.85554814746E+02 -0.10727600932E+03  0.18171686351E+03  0.00000000000E+00 0.  1.
<mgrwt>
<rscale>  0 0.13454247E+04</rscale>
<asrwt>0</asrwt>
<pdfrwt beam="1">  1        2 0.10470794E+00 0.13454247E+04</pdfrwt>
<pdfrwt beam="2">  1       -1 0.10229454E+00 0.13454247E+04</pdfrwt>
<totfact> 0.42883724E+01</totfact>
</mgrwt>
</event>
<event>
12    6  0.9491186E-008  0.3579935E+04  0.7818608E-02  0.8095103E-01
          2   -1    0    0  501    0  0.00000000000E+00  0.00000000000E+00  0.17562422935E+04  0.17562422935E+04  0.00000000000E+00 0. -1.
         -1   -1    0    0    0  501 -0.00000000000E+00 -0.00000000000E+00 -0.18243405917E+04  0.18243405917E+04  0.00000000000E+00 0.  1.
         24    2    1    2    0    0 -0.66690947722E+03 -0.15283180200E+03  0.14953624865E+04  0.16461213964E+04  0.74032933780E+02 0.  0.
        254    2    1    2    0    0  0.66690947722E+03  0.15283180200E+03 -0.15634607848E+04  0.19344614888E+04  0.91082699542E+03 0.  0.
         23    2    4    4    0    0 -0.11144283780E+03  0.29536229593E+03 -0.59985104143E+03  0.68425618347E+03  0.93417668391E+02 0.  0.
         23    2    4    4    0    0  0.77835231502E+03 -0.14253049394E+03 -0.96360974333E+03  0.12502053053E+04  0.91226640659E+02 0.  0.
          4    1    3    3  502    0 -0.60119391577E+03 -0.11414742674E+03  0.13300465295E+04  0.14640654118E+04  0.00000000000E+00 0. -1.
         -3    1    3    3    0  502 -0.65715561454E+02 -0.38684375254E+02  0.16531595702E+03  0.18205598467E+03  0.00000000000E+00 0.  1.
         11    1    5    5    0    0  0.15066088058E+02  0.26889553236E+02 -0.38893575728E+02  0.49626054805E+02  0.00000000000E+00 0.  1.
        -11    1    5    5    0    0 -0.12650892585E+03  0.26847274270E+03 -0.56095746570E+03  0.63463012867E+03  0.00000000000E+00 0. -1.
          2    1    6    6  503    0  0.65582631475E+03 -0.10886410044E+03 -0.85501587421E+03  0.10830566433E+04  0.00000000000E+00 0. -1.
         -2    1    6    6    0  503  0.12252600027E+03 -0.33666393493E+02 -0.10859386913E+03  0.16714866199E+03  0.00000000000E+00 0.  1.
<mgrwt>
<rscale>  0 0.35799353E+04</rscale>
<asrwt>0</asrwt>
<pdfrwt beam="1">  1        2 0.27019112E+00 0.35799353E+04</pdfrwt>
<pdfrwt beam="2">  1       -1 0.28066778E+00 0.35799353E+04</pdfrwt>
<totfact> 0.37357654E-01</totfact>
</mgrwt>
</event>
<event>
12    6  0.9491186E-008  0.1638683E+04  0.7818608E-02  0.8797130E-01
         -1   -1    0    0    0  501 -0.00000000000E+00  0.00000000000E+00  0.61242685074E+03  0.61242685074E+03  0.00000000000E+00 0.  1.
          2   -1    0    0  501    0  0.00000000000E+00 -0.00000000000E+00 -0.10961646853E+04  0.10961646853E+04  0.00000000000E+00 0. -1.
         24    2    1    2    0    0  0.88042252445E+02 -0.14462925523E+03 -0.73610651108E+03  0.75967868499E+03  0.81177885399E+02 0.  0.
        254    2    1    2    0    0 -0.88042252445E+02  0.14462925523E+03  0.25236867651E+03  0.94891285108E+03  0.89893080400E+03 0.  0.
         23    2    4    4    0    0  0.21005154543E+03 -0.21943933499E+03  0.33601552677E+03  0.46232667445E+03  0.92543212593E+02 0.  0.
         23    2    4    4    0    0 -0.29809379788E+03  0.36406859022E+03 -0.83646850259E+02  0.48658617663E+03  0.91451960083E+02 0.  0.
          4    1    3    3  502    0  0.47838452949E+02 -0.13791079490E+03 -0.60620074218E+03  0.62352806252E+03  0.00000000000E+00 0. -1.
         -3    1    3    3    0  502  0.40203799496E+02 -0.67184603261E+01 -0.12990576890E+03  0.13615062246E+03  0.00000000000E+00 0.  1.
         11    1    5    5    0    0  0.20140855790E+03 -0.17078930797E+03  0.30730268281E+03  0.40517815066E+03  0.00000000000E+00 0. -1.
        -11    1    5    5    0    0  0.86429875363E+01 -0.48650027026E+02  0.28712843959E+02  0.57148523790E+02  0.00000000000E+00 0.  1.
          1    1    6    6  503    0 -0.23988944848E+03  0.34034619382E+03 -0.69352612956E+02  0.42212825547E+03  0.00000000000E+00 0. -1.
         -1    1    6    6    0  503 -0.58204349399E+02  0.23722396406E+02 -0.14294237303E+02  0.64457921160E+02  0.00000000000E+00 0.  1.
<mgrwt>
<rscale>  0 0.16386832E+04</rscale>
<asrwt>0</asrwt>
<pdfrwt beam="1">  1        2 0.16864072E+00 0.16386832E+04</pdfrwt>
<pdfrwt beam="2">  1       -1 0.94219516E-01 0.16386832E+04</pdfrwt>
<totfact> 0.26061556E+01</totfact>
</mgrwt>
</event>
<event>
12    6  0.9491186E-008  0.3273183E+04  0.7818608E-02  0.8169753E-01
         -3   -1    0    0    0  501 -0.00000000000E+00  0.00000000000E+00  0.16274600998E+04  0.16274600998E+04  0.00000000000E+00 0.  1.
          2   -1    0    0  501    0  0.00000000000E+00 -0.00000000000E+00 -0.16457742730E+04  0.16457742730E+04  0.00000000000E+00 0. -1.
         24    2    1    2    0    0 -0.71132535775E+03  0.11256117854E+04  0.70426460968E+03  0.15084087127E+04  0.79514451768E+02 0.  0.
        254    2    1    2    0    0  0.71132535775E+03 -0.11256117854E+04 -0.72257878288E+03  0.17648256602E+04  0.90526452357E+03 0.  0.
         23    2    4    4    0    0  0.84052609019E+03 -0.99073079647E+03 -0.36686806226E+03  0.13529925315E+04  0.89246825066E+02 0.  0.
         23    2    4    4    0    0 -0.12920073244E+03 -0.13488098889E+03 -0.35571072061E+03  0.41183312875E+03  0.90502479239E+02 0.  0.
          2    1    3    3  502    0 -0.29301521985E+03  0.44309873998E+03  0.23891929103E+03  0.58247475488E+03  0.00000000000E+00 0. -1.
         -1    1    3    3    0  502 -0.41831013790E+03  0.68251304538E+03  0.46534531865E+03  0.92593395778E+03  0.00000000000E+00 0.  1.
         11    1    5    5    0    0  0.43075719733E+03 -0.51983428247E+03 -0.23619140560E+03  0.71523829901E+03  0.00000000000E+00 0. -1.
        -11    1    5    5    0    0  0.40976889286E+03 -0.47089651400E+03 -0.13067665667E+03  0.63775423248E+03  0.00000000000E+00 0.  1.
          3    1    6    6  503    0 -0.10699214538E+03 -0.48342124656E+02 -0.18392643646E+03  0.21820452383E+03  0.00000000000E+00 0. -1.
         -3    1    6    6    0  503 -0.22208587061E+02 -0.86538864238E+02 -0.17178428415E+03  0.19362860492E+03  0.00000000000E+00 0.  1.
<mgrwt>
<rscale>  0 0.32731831E+04</rscale>
<asrwt>0</asrwt>
<pdfrwt beam="1">  1        2 0.25319604E+00 0.32731831E+04</pdfrwt>
<pdfrwt beam="2">  1       -3 0.25037848E+00 0.32731831E+04</pdfrwt>
<totfact> 0.40314457E-01</totfact>
</mgrwt>
</event>
<event>
12    6  0.9491186E-008  0.1828064E+04  0.7818608E-02  0.8691516E-01
          2   -1    0    0  501    0  0.00000000000E+00  0.00000000000E+00  0.13847803100E+04  0.13847803100E+04  0.00000000000E+00 0. -1.
         -1   -1    0    0    0  501 -0.00000000000E+00 -0.00000000000E+00 -0.60331174903E+03  0.60331174903E+03  0.00000000000E+00 0.  1.
         24    2    1    2    0    0 -0.39638780576E+03 -0.50723261928E+03  0.23290641753E+02  0.64904620053E+03  0.79437357820E+02 0.  0.
        254    2    1    2    0    0  0.39638780576E+03  0.50723261928E+03  0.75817791921E+03  0.13390458585E+04  0.89654996032E+03 0.  0.
         23    2    4    4    0    0  0.25220391450E+03 -0.19597362772E+03  0.66616568862E+02  0.33874614678E+03  0.91097241795E+02 0.  0.
         23    2    4    4    0    0  0.14418389126E+03  0.70320624700E+03  0.69156135035E+03  0.10002997117E+04  0.83990425914E+02 0.  0.
          2    1    3    3  502    0 -0.77151957154E+02 -0.56931046856E+02 -0.77302399176E+01  0.96194205636E+02  0.00000000000E+00 0. -1.
         -1    1    3    3    0  502 -0.31923584861E+03 -0.45030157242E+03  0.31020881671E+02  0.55285199490E+03  0.00000000000E+00 0.  1.
         11    1    5    5    0    0  0.20134280762E+02 -0.44164690277E+02 -0.12967048083E+02  0.50239958848E+02  0.00000000000E+00 0.  1.
        -11    1    5    5    0    0  0.23206963374E+03 -0.15180893744E+03  0.79583616945E+02  0.28850618793E+03  0.00000000000E+00 0. -1.
          1    1    6    6  503    0  0.59426269928E+02  0.47398937259E+03  0.43728018403E+03  0.64761976979E+03  0.00000000000E+00 0. -1.
         -1    1    6    6    0  503  0.84757621335E+02  0.22921687441E+03  0.25428116632E+03  0.35267994192E+03  0.00000000000E+00 0.  1.
<mgrwt>
<rscale>  0 0.18280637E+04</rscale>
<asrwt>0</asrwt>
<pdfrwt beam="1">  1        2 0.21304312E+00 0.18280637E+04</pdfrwt>
<pdfrwt beam="2">  1       -1 0.92817192E-01 0.18280637E+04</pdfrwt>
<totfact> 0.17880707E+01</totfact>
</mgrwt>
</event>
<event>
12    6  0.9491186E-008  0.1105648E+04  0.7818608E-02  0.9199704E-01
         -1   -1    0    0    0  501 -0.00000000000E+00  0.00000000000E+00  0.23794123861E+04  0.23794123861E+04  0.00000000000E+00 0.  1.
          2   -1    0    0  501    0  0.00000000000E+00 -0.00000000000E+00 -0.12844122572E+03  0.12844122572E+03  0.00000000000E+00 0. -1.
         24    2    1    2    0    0  0.10611428257E+03 -0.28282683001E+02  0.86433353630E+02  0.16081582644E+03  0.79566665707E+02 0.  0.
        254    2    1    2    0    0 -0.10611428257E+03  0.28282683001E+02  0.21645378067E+04  0.23470377853E+04  0.90072320834E+03 0.  0.
         23    2    4    4    0    0 -0.35124764662E+03 -0.22451470220E+03  0.57173369298E+03  0.71319041948E+03  0.89327476110E+02 0.  0.
         23    2    4    4    0    0  0.24513336405E+03  0.25279738520E+03  0.15928041137E+04  0.16338473659E+04  0.91844358048E+02 0.  0.
          2    1    3    3  502    0  0.40885301178E+02 -0.66056954578E+01 -0.97962186249E+01  0.42558300768E+02  0.00000000000E+00 0. -1.
         -1    1    3    3    0  502  0.65228981388E+02 -0.21676987543E+02  0.96229572255E+02  0.11825752567E+03  0.00000000000E+00 0.  1.
         11    1    5    5    0    0 -0.25652886991E+03 -0.17094407205E+03  0.35141087932E+03  0.46745966988E+03  0.00000000000E+00 0.  1.
        -11    1    5    5    0    0 -0.94718776712E+02 -0.53570630149E+02  0.22032281366E+03  0.24573074960E+03  0.00000000000E+00 0. -1.
          3    1    6    6  503    0  0.19177230477E+03  0.17845170188E+03  0.98704503815E+03  0.10212147346E+04  0.00000000000E+00 0. -1.
         -3    1    6    6    0  503  0.53361059282E+02  0.74345683322E+02  0.60575907558E+03  0.61263263129E+03  0.00000000000E+00 0.  1.
<mgrwt>
<rscale>  0 0.11056485E+04</rscale>
<asrwt>0</asrwt>
<pdfrwt beam="1">  1        2 0.19760190E-01 0.11056485E+04</pdfrwt>
<pdfrwt beam="2">  1       -1 0.36606341E+00 0.11056485E+04</pdfrwt>
<totfact> 0.40647983E+00</totfact>
</mgrwt>
</event>
<event>
12    6  0.9491186E-008  0.1475739E+04  0.7818608E-02  0.8900749E-01
          2   -1    0    0  501    0  0.00000000000E+00  0.00000000000E+00  0.50252215326E+03  0.50252215326E+03  0.00000000000E+00 0. -1.
         -1   -1    0    0    0  501 -0.00000000000E+00 -0.00000000000E+00 -0.10834371250E+04  0.10834371250E+04  0.00000000000E+00 0.  1.
         24    2    1    2    0    0 -0.60973160053E+02 -0.42746947995E+03 -0.33976345251E+03  0.55433418820E+03  0.73479970111E+02 0.  0.
        254    2    1    2    0    0  0.60973160053E+02  0.42746947995E+03 -0.24115151921E+03  0.10316250900E+04  0.90534434811E+03 0.  0.
         23    2    4    4    0    0  0.96032763747E+02  0.56805851159E+03 -0.46799952984E+03  0.74769832646E+03  0.90091415519E+02 0.  0.
         23    2    4    4    0    0 -0.35059603693E+02 -0.14058903164E+03  0.22684801063E+03  0.28392676359E+03  0.90332361472E+02 0.  0.
          2    1    3    3  502    0 -0.43169721366E+01 -0.96761547185E+01  0.29499870149E+01  0.10998483621E+02  0.00000000000E+00 0. -1.
         -1    1    3    3    0  502 -0.56656187917E+02 -0.41779332524E+03 -0.34271343952E+03  0.54333570458E+03  0.00000000000E+00 0.  1.
         11    1    5    5    0    0 -0.13926497730E+02  0.14308793853E+03 -0.12741227878E+03  0.19209891795E+03  0.00000000000E+00 0. -1.
        -11    1    5    5    0    0  0.10995926148E+03  0.42497057307E+03 -0.34058725105E+03  0.55559940851E+03  0.00000000000E+00 0.  1.
          1    1    6    6  503    0  0.16859451394E+02 -0.64960345897E+01  0.64835853685E+02  0.67306221776E+02  0.00000000000E+00 0. -1.
         -1    1    6    6    0  503 -0.51919055087E+02 -0.13409299705E+03  0.16201215694E+03  0.21662054181E+03  0.00000000000E+00 0.  1.
<mgrwt>
<rscale>  0 0.14757387E+04</rscale>
<asrwt>0</asrwt>
<pdfrwt beam="1">  1        2 0.77311101E-01 0.14757387E+04</pdfrwt>
<pdfrwt beam="2">  1       -1 0.16668263E+00 0.14757387E+04</pdfrwt>
<totfact> 0.17638077E+01</totfact>
</mgrwt>
</event>
<event>
12    6  0.9491186E-008  0.1189672E+04  0.7818608E-02  0.9121945E-01
          2   -1    0    0  501    0  0.00000000000E+00  0.00000000000E+00  0.44099389293E+04  0.44099389293E+04  0.00000000000E+00 0. -1.
         -1   -1    0    0    0  501 -0.00000000000E+00 -0.00000000000E+00 -0.80234596404E+02  0.80234596404E+02  0.00000000000E+00 0.  1.
         24    2    1    2    0    0 -0.41630883041E+02 -0.24235541322E+03  0.88913774372E+03  0.92592478953E+03  0.79382062335E+02 0.  0.
        254    2    1    2    0    0  0.41630883041E+02  0.24235541322E+03  0.34405665892E+04  0.35642487362E+04  0.89772006886E+03 0.  0.
         23    2    4    4    0    0  0.10825413485E+03  0.48129142748E+02  0.32929592972E+04  0.32964067650E+04  0.93173254898E+02 0.  0.
         23    2    4    4    0    0 -0.66623251812E+02  0.19422627047E+03  0.14760729202E+03  0.26784197119E+03  0.88254784858E+02 0.  0.
          2    1    3    3  502    0  0.10883489297E+02 -0.88274265495E+02  0.22063107777E+03  0.23788414988E+03  0.00000000000E+00 0. -1.
         -1    1    3    3    0  502 -0.52514372338E+02 -0.15408114772E+03  0.66850666595E+03  0.68804063965E+03  0.00000000000E+00 0.  1.
         11    1    5    5    0    0  0.74629670319E+02  0.35615923435E+01  0.26424775064E+04  0.26435335527E+04  0.00000000000E+00 0. -1.
        -11    1    5    5    0    0  0.33624464533E+02  0.44567550405E+02  0.65048179082E+03  0.65287321231E+03  0.00000000000E+00 0.  1.
          4    1    6    6  503    0 -0.81359971351E+02  0.17644670623E+03  0.14877736429E+03  0.24471940912E+03  0.00000000000E+00 0. -1.
         -4    1    6    6    0  503  0.14736719538E+02  0.17779564238E+02 -0.11700722692E+01  0.23122562063E+02  0.00000000000E+00 0.  1.
<mgrwt>
<rscale>  0 0.11896717E+04</rscale>
<asrwt>0</asrwt>
<pdfrwt beam="1">  1        2 0.67845195E+00 0.11896717E+04</pdfrwt>
<pdfrwt beam="2">  1       -1 0.12343788E-01 0.11896717E+04</pdfrwt>
<totfact> 0.80494116E+00</totfact>
</mgrwt>
</event>
<event>
12    6  0.9491186E-008  0.1773292E+04  0.7818608E-02  0.8720633E-01
          2   -1    0    0  501    0  0.00000000000E+00  0.00000000000E+00  0.33093863134E+04  0.33093863134E+04  0.00000000000E+00 0. -1.
         -1   -1    0    0    0  501 -0.00000000000E+00 -0.00000000000E+00 -0.23754892337E+03  0.23754892337E+03  0.00000000000E+00 0.  1.
         24    2    1    2    0    0 -0.64849767717E+03  0.13862494562E+03  0.10105204308E+04  0.12113764483E+04  0.80717072332E+02 0.  0.
        254    2    1    2    0    0  0.64849767717E+03 -0.13862494562E+03  0.20613169592E+04  0.23355587884E+04  0.87523775899E+03 0.  0.
         23    2    4    4    0    0  0.16293420244E+02 -0.34422611347E+03  0.36310189391E+03  0.50930000947E+03  0.93735913822E+02 0.  0.
         23    2    4    4    0    0  0.63220425693E+03  0.20560116786E+03  0.16982150653E+04  0.18262587789E+04  0.96605676905E+02 0.  0.
          4    1    3    3  502    0 -0.40095467435E+03  0.86684620133E+02  0.55224344099E+03  0.68793291270E+03  0.00000000000E+00 0. -1.
         -3    1    3    3    0  502 -0.24754300282E+03  0.51940325487E+02  0.45827698978E+03  0.52344353565E+03  0.00000000000E+00 0.  1.
         11    1    5    5    0    0  0.49054203771E+02 -0.14259935458E+03  0.18153354297E+03  0.23599855520E+03  0.00000000000E+00 0.  1.
        -11    1    5    5    0    0 -0.32760783527E+02 -0.20162675890E+03  0.18156835094E+03  0.27330145426E+03  0.00000000000E+00 0. -1.
          1    1    6    6  503    0  0.33749000547E+03  0.58974434725E+02  0.86684547863E+03  0.93209364956E+03  0.00000000000E+00 0. -1.
         -1    1    6    6    0  503  0.29471425146E+03  0.14662673313E+03  0.83136958668E+03  0.89416512935E+03  0.00000000000E+00 0.  1.
<mgrwt>
<rscale>  0 0.17732920E+04</rscale>
<asrwt>0</asrwt>
<pdfrwt beam="1">  1        2 0.50913632E+00 0.17732920E+04</pdfrwt>
<pdfrwt beam="2">  1       -1 0.36545991E-01 0.17732920E+04</pdfrwt>
<totfact> 0.85460755E+00</totfact>
</mgrwt>
</event>
<event>
12    6  0.9491186E-008  0.1877455E+04  0.7818608E-02  0.8666161E-01
         -1   -1    0    0    0  501 -0.00000000000E+00  0.00000000000E+00  0.57738405401E+03  0.57738405401E+03  0.00000000000E+00 0.  1.
          2   -1    0    0  501    0  0.00000000000E+00 -0.00000000000E+00 -0.15262093452E+04  0.15262093452E+04  0.00000000000E+00 0. -1.
         24    2    1    2    0    0  0.22071486725E+03 -0.33965470277E+03  0.29541305322E+03  0.50657414447E+03  0.72581830334E+02 0.  0.
        254    2    1    2    0    0 -0.22071486725E+03  0.33965470277E+03 -0.12442383444E+04  0.15970192547E+04  0.91556598480E+03 0.  0.
         23    2    4    4    0    0 -0.40055144934E+03  0.26755508453E+03 -0.12899941740E+04  0.13800122614E+04  0.91223274085E+02 0.  0.
         23    2    4    4    0    0  0.17983658209E+03  0.72099618247E+02  0.45755829631E+02  0.21700699333E+03  0.86364853962E+02 0.  0.
          2    1    3    3  502    0  0.42227714374E+02 -0.76736114119E+02  0.30149983851E+02  0.92631704063E+02  0.00000000000E+00 0. -1.
         -1    1    3    3    0  502  0.17848715288E+03 -0.26291858865E+03  0.26526306937E+03  0.41394244041E+03  0.00000000000E+00 0.  1.
         11    1    5    5    0    0 -0.34006694089E+03  0.23705815962E+03 -0.10062119849E+04  0.10882576229E+04  0.00000000000E+00 0. -1.
        -11    1    5    5    0    0 -0.60484508446E+02  0.30496924904E+02 -0.28378218910E+03  0.29175463842E+03  0.00000000000E+00 0.  1.
          3    1    6    6  503    0  0.17471784565E+03  0.39497542103E+02  0.38537992205E+02  0.18322543018E+03  0.00000000000E+00 0. -1.
         -3    1    6    6    0  503  0.51187364351E+01  0.32602076144E+02  0.72178374262E+01  0.33781563148E+02  0.00000000000E+00 0.  1.
<mgrwt>
<rscale>  0 0.18774546E+04</rscale>
<asrwt>0</asrwt>
<pdfrwt beam="1">  1        2 0.23480143E+00 0.18774546E+04</pdfrwt>
<pdfrwt beam="2">  1       -1 0.88828317E-01 0.18774546E+04</pdfrwt>
<totfact> 0.16307391E+01</totfact>
</mgrwt>
</event>
<event>
12    6  0.9491186E-008  0.1673291E+04  0.7818608E-02  0.8776746E-01
         -1   -1    0    0    0  501 -0.00000000000E+00  0.00000000000E+00  0.57844450190E+03  0.57844450190E+03  0.00000000000E+00 0.  1.
          2   -1    0    0  501    0  0.00000000000E+00 -0.00000000000E+00 -0.12101006271E+04  0.12101006271E+04  0.00000000000E+00 0. -1.
         24    2    1    2    0    0 -0.36681042071E+03  0.97345224061E+02  0.25791226960E+03  0.46523363589E+03  0.76795961934E+02 0.  0.
        254    2    1    2    0    0  0.36681042071E+03 -0.97345224061E+02 -0.88956839481E+03  0.13233114931E+04  0.90321392891E+03 0.  0.
         23    2    4    4    0    0  0.45795817770E+03 -0.37914342594E+03 -0.80045125845E+03  0.10013251995E+04  0.91948399181E+02 0.  0.
         23    2    4    4    0    0 -0.91147756996E+02  0.28179820188E+03 -0.89117136361E+02  0.32198629358E+03  0.89527476632E+02 0.  0.
          4    1    3    3  502    0 -0.25711977084E+02  0.14844910921E+02 -0.49067795285E-01  0.29689721343E+02  0.00000000000E+00 0. -1.
         -3    1    3    3    0  502 -0.34109844362E+03  0.82500313140E+02  0.25796133740E+03  0.43554391455E+03  0.00000000000E+00 0.  1.
         11    1    5    5    0    0  0.39211851454E+03 -0.27717903812E+03 -0.63431274527E+03  0.79557388559E+03  0.00000000000E+00 0.  1.
        -11    1    5    5    0    0  0.65839663160E+02 -0.10196438782E+03 -0.16613851318E+03  0.20575131395E+03  0.00000000000E+00 0. -1.
          1    1    6    6  503    0 -0.17029502167E+02  0.17738896998E+03 -0.29057489085E+02  0.18055799147E+03  0.00000000000E+00 0. -1.
         -1    1    6    6    0  503 -0.74118254829E+02  0.10440923190E+03 -0.60059647277E+02  0.14142830211E+03  0.00000000000E+00 0.  1.
<mgrwt>
<rscale>  0 0.16732914E+04</rscale>
<asrwt>0</asrwt>
<pdfrwt beam="1">  1        2 0.18616932E+00 0.16732914E+04</pdfrwt>
<pdfrwt beam="2">  1       -1 0.88991463E-01 0.16732914E+04</pdfrwt>
<totfact> 0.25153137E+01</totfact>
</mgrwt>
</event>
<event>
12    6  0.9491186E-008  0.4107074E+04  0.7818608E-02  0.7983288E-01
         -1   -1    0    0    0  501 -0.00000000000E+00  0.00000000000E+00  0.20206616508E+04  0.20206616508E+04  0.00000000000E+00 0.  1.
          2   -1    0    0  501    0  0.00000000000E+00 -0.00000000000E+00 -0.20869470293E+04  0.20869470293E+04  0.00000000000E+00 0. -1.
         24    2    1    2    0    0 -0.16095677640E+04 -0.81637807542E+03  0.71767673616E+03  0.19437999177E+04  0.78209165164E+02 0.  0.
        254    2    1    2    0    0  0.16095677640E+04  0.81637807542E+03 -0.78396211474E+03  0.21638087624E+04  0.90016121538E+03 0.  0.
         23    2    4    4    0    0  0.16026177962E+04  0.60430209363E+03 -0.86326331868E+03  0.19201582776E+04  0.90661086973E+02 0.  0.
         23    2    4    4    0    0  0.69499678190E+01  0.21207598180E+03  0.79301203943E+02  0.24365048472E+03  0.89734907651E+02 0.  0.
          2    1    3    3  502    0 -0.99996694824E+02 -0.47924228145E+02  0.24582588262E+02  0.11357981451E+03  0.00000000000E+00 0. -1.
         -1    1    3    3    0  502 -0.15095710692E+04 -0.76845384728E+03  0.69309414790E+03  0.18302201032E+04  0.00000000000E+00 0.  1.
         11    1    5    5    0    0  0.89137818283E+03  0.31967529210E+03 -0.52453425584E+03  0.10825357004E+04  0.00000000000E+00 0.  1.
        -11    1    5    5    0    0  0.71123961339E+03  0.28462680153E+03 -0.33872906284E+03  0.83762257718E+03  0.00000000000E+00 0. -1.
          1    1    6    6  503    0 -0.13220232089E+02  0.76363639450E+02 -0.12593733385E+02  0.78516126287E+02  0.00000000000E+00 0. -1.
         -1    1    6    6    0  503  0.20170199908E+02  0.13571234235E+03  0.91894937328E+02  0.16513435844E+03  0.00000000000E+00 0.  1.
<mgrwt>
<rscale>  0 0.41070738E+04</rscale>
<asrwt>0</asrwt>
<pdfrwt beam="1">  1        2 0.32106877E+00 0.41070738E+04</pdfrwt>
<pdfrwt beam="2">  1       -1 0.31087102E+00 0.41070738E+04</pdfrwt>
<totfact> 0.14922035E-01</totfact>
</mgrwt>
</event>
<event>
12    6  0.9491186E-008  0.3776991E+04  0.7818608E-02  0.8051111E-01
          2   -1    0    0  501    0  0.00000000000E+00  0.00000000000E+00  0.20521635942E+04  0.20521635942E+04  0.00000000000E+00 0. -1.
         -1   -1    0    0    0  501 -0.00000000000E+00 -0.00000000000E+00 -0.17378810013E+04  0.17378810013E+04  0.00000000000E+00 0.  1.
         24    2    1    2    0    0 -0.13860907378E+04 -0.79102351419E+03  0.93956923338E+03  0.18537359781E+04  0.81123356160E+02 0.  0.
        254    2    1    2    0    0  0.13860907378E+04  0.79102351419E+03 -0.62528664044E+03  0.19363086173E+04  0.90074521667E+03 0.  0.
         23    2    4    4    0    0  0.11209980156E+04  0.45455383515E+03 -0.51180993917E+02  0.12140410068E+04  0.89556306289E+02 0.  0.
         23    2    4    4    0    0  0.26509272218E+03  0.33646967903E+03 -0.57410564653E+03  0.72226761051E+03  0.92667208613E+02 0.  0.
          2    1    3    3  502    0 -0.88550709849E+03 -0.47133144300E+03  0.61991088404E+03  0.11792224789E+04  0.00000000000E+00 0. -1.
         -1    1    3    3    0  502 -0.50058363931E+03 -0.31969207119E+03  0.31965834934E+03  0.67451349922E+03  0.00000000000E+00 0.  1.
         11    1    5    5    0    0  0.10386227556E+04  0.39771744522E+03 -0.35452480179E+02  0.11127323456E+04  0.00000000000E+00 0.  1.
        -11    1    5    5    0    0  0.82375260044E+02  0.56836389929E+02 -0.15728513737E+02  0.10130866119E+03  0.00000000000E+00 0. -1.
          4    1    6    6  503    0  0.50641650487E+01 -0.22163862260E+01  0.13571045096E+01  0.56920882102E+01  0.00000000000E+00 0. -1.
         -4    1    6    6    0  503  0.26002855714E+03  0.33868606526E+03 -0.57546275104E+03  0.71657552230E+03  0.00000000000E+00 0.  1.
<mgrwt>
<rscale>  0 0.37769915E+04</rscale>
<asrwt>0</asrwt>
<pdfrwt beam="1">  1        2 0.31571748E+00 0.37769915E+04</pdfrwt>
<pdfrwt beam="2">  1       -1 0.26736631E+00 0.37769915E+04</pdfrwt>
<totfact> 0.30686709E-01</totfact>
</mgrwt>
</event>
<event>
12    6  0.9491186E-008  0.1154977E+04  0.7818608E-02  0.9153205E-01
          2   -1    0    0  501    0  0.00000000000E+00  0.00000000000E+00  0.18602643520E+04  0.18602643520E+04  0.00000000000E+00 0. -1.
         -1   -1    0    0    0  501 -0.00000000000E+00 -0.00000000000E+00 -0.17927166209E+03  0.17927166209E+03  0.00000000000E+00 0.  1.
         24    2    1    2    0    0 -0.72714229450E+02  0.19822653813E+03  0.38200910804E+03  0.44370609480E+03  0.79768542359E+02 0.  0.
        254    2    1    2    0    0  0.72714229450E+02 -0.19822653813E+03  0.12989835818E+04  0.15958299193E+04  0.90262598332E+03 0.  0.
         23    2    4    4    0    0 -0.16241720674E+02 -0.16433018360E+03 -0.83749779907E+02  0.20647593787E+03  0.91378797048E+02 0.  0.
         23    2    4    4    0    0  0.88955950124E+02 -0.33896354528E+02  0.13827333617E+04  0.13893539814E+04  0.96388858508E+02 0.  0.
          4    1    3    3  502    0 -0.13177279208E+02  0.52201803697E+01  0.74223756837E+02  0.75564919436E+02  0.00000000000E+00 0. -1.
         -3    1    3    3    0  502 -0.59536950242E+02  0.19300635776E+03  0.30778535120E+03  0.36814117536E+03  0.00000000000E+00 0.  1.
         11    1    5    5    0    0 -0.21346049215E+01 -0.84293521823E+02  0.70533171344E+01  0.84615032011E+02  0.00000000000E+00 0.  1.
        -11    1    5    5    0    0 -0.14107115753E+02 -0.80036661779E+02 -0.90803097042E+02  0.12186090586E+03  0.00000000000E+00 0. -1.
          2    1    6    6  503    0  0.52819207501E+02  0.16572935948E+02  0.10076177736E+04  0.10091373091E+04  0.00000000000E+00 0. -1.
         -2    1    6    6    0  503  0.36136742623E+02 -0.50469290476E+02  0.37511558812E+03  0.38021667231E+03  0.00000000000E+00 0.  1.
<mgrwt>
<rscale>  0 0.11549765E+04</rscale>
<asrwt>0</asrwt>
<pdfrwt beam="1">  1        2 0.28619450E+00 0.11549765E+04</pdfrwt>
<pdfrwt beam="2">  1       -1 0.27580257E-01 0.11549765E+04</pdfrwt>
<totfact> 0.10653050E+02</totfact>
</mgrwt>
</event>
<event>
12    6  0.9491186E-008  0.1876885E+04  0.7818608E-02  0.8666448E-01
         -1   -1    0    0    0  501 -0.00000000000E+00  0.00000000000E+00  0.43033964891E+03  0.43033964891E+03  0.00000000000E+00 0.  1.
          2   -1    0    0  501    0  0.00000000000E+00 -0.00000000000E+00 -0.20464637328E+04  0.20464637328E+04  0.00000000000E+00 0. -1.
         24    2    1    2    0    0 -0.25708978417E+03  0.33363131658E+03  0.14798406433E+03  0.45336572866E+03  0.78969539081E+02 0.  0.
        254    2    1    2    0    0  0.25708978417E+03 -0.33363131658E+03 -0.17641081482E+04  0.20234376530E+04  0.89711613775E+03 0.  0.
         23    2    4    4    0    0  0.17465461617E+03 -0.47364789931E+03 -0.41352807107E+03  0.65991891924E+03  0.98188323822E+02 0.  0.
         23    2    4    4    0    0  0.82435168000E+02  0.14001658273E+03 -0.13505800771E+04  0.13635187338E+04  0.93362692216E+02 0.  0.
          4    1    3    3  502    0 -0.12117626478E+03  0.95622832067E+02  0.48834033893E+02  0.16190174806E+03  0.00000000000E+00 0. -1.
         -3    1    3    3    0  502 -0.13591351939E+03  0.23800848451E+03  0.99150030432E+02  0.29146398060E+03  0.00000000000E+00 0.  1.
         11    1    5    5    0    0  0.12566930836E+03 -0.20020597291E+03 -0.18334101481E+03  0.29914734557E+03  0.00000000000E+00 0.  1.
        -11    1    5    5    0    0  0.48985307816E+02 -0.27344192640E+03 -0.23018705627E+03  0.36077157367E+03  0.00000000000E+00 0. -1.
          3    1    6    6  503    0  0.76308898109E+02  0.45386605627E+02 -0.51777726057E+03  0.52533444915E+03  0.00000000000E+00 0. -1.
         -3    1    6    6    0  503  0.61262698916E+01  0.94629977107E+02 -0.83280281653E+03  0.83818428462E+03  0.00000000000E+00 0.  1.
<mgrwt>
<rscale>  0 0.18768852E+04</rscale>
<asrwt>0</asrwt>
<pdfrwt beam="1">  1        2 0.31484058E+00 0.18768852E+04</pdfrwt>
<pdfrwt beam="2">  1       -1 0.66206100E-01 0.18768852E+04</pdfrwt>
<totfact> 0.15549310E+01</totfact>
</mgrwt>
</event>
<event>
12    6  0.9491186E-008  0.1297213E+04  0.7818608E-02  0.9031778E-01
          2   -1    0    0  501    0  0.00000000000E+00  0.00000000000E+00  0.10877890463E+04  0.10877890463E+04  0.00000000000E+00 0. -1.
         -1   -1    0    0    0  501 -0.00000000000E+00 -0.00000000000E+00 -0.38673917133E+03  0.38673917133E+03  0.00000000000E+00 0.  1.
         24    2    1    2    0    0 -0.77219195115E+02  0.21297294564E+03 -0.90875011238E+02  0.25692066485E+03  0.80185289766E+02 0.  0.
        254    2    1    2    0    0  0.77219195115E+02 -0.21297294564E+03  0.79192488618E+03  0.12176075527E+04  0.89671781931E+03 0.  0.
         23    2    4    4    0    0  0.11125886554E+03 -0.20716083305E+03  0.97701128677E+03  0.10085810120E+04  0.85967769071E+02 0.  0.
         23    2    4    4    0    0 -0.34039670425E+02 -0.58121125848E+01 -0.18508640059E+03  0.20902654077E+03  0.90788981965E+02 0.  0.
          2    1    3    3  502    0 -0.70805782667E+02  0.97330300167E+02 -0.22567905933E+02  0.12245797878E+03  0.00000000000E+00 0. -1.
         -1    1    3    3    0  502 -0.64134124488E+01  0.11564264547E+03 -0.68307105305E+02  0.13446268607E+03  0.00000000000E+00 0.  1.
         11    1    5    5    0    0  0.38748235789E+02 -0.13675160924E+03  0.44819352232E+03  0.47019130346E+03  0.00000000000E+00 0. -1.
        -11    1    5    5    0    0  0.72510629752E+02 -0.70409223815E+02  0.52881776446E+03  0.53838970851E+03  0.00000000000E+00 0.  1.
          1    1    6    6  503    0 -0.75338254973E+01  0.41890455072E+02 -0.81243046033E+02  0.91716962888E+02  0.00000000000E+00 0. -1.
         -1    1    6    6    0  503 -0.26505844928E+02 -0.47702567657E+02 -0.10384335456E+03  0.11730957788E+03  0.00000000000E+00 0.  1.
<mgrwt>
<rscale>  0 0.12972134E+04</rscale>
<asrwt>0</asrwt>
<pdfrwt beam="1">  1        2 0.16735216E+00 0.12972134E+04</pdfrwt>
<pdfrwt beam="2">  1       -1 0.59498334E-01 0.12972134E+04</pdfrwt>
<totfact> 0.70981661E+01</totfact>
</mgrwt>
</event>
<event>
12    6  0.9491186E-008  0.1714390E+04  0.7818608E-02  0.8753199E-01
         -1   -1    0    0    0  501 -0.00000000000E+00  0.00000000000E+00  0.11099641007E+04  0.11099641007E+04  0.00000000000E+00 0.  1.
          2   -1    0    0  501    0  0.00000000000E+00 -0.00000000000E+00 -0.66198855842E+03  0.66198855842E+03  0.00000000000E+00 0. -1.
         24    2    1    2    0    0 -0.36014840880E+03  0.70176186646E+02 -0.35307673180E+03  0.51518496248E+03  0.78235500260E+02 0.  0.
        254    2    1    2    0    0  0.36014840880E+03 -0.70176186646E+02  0.80105227413E+03  0.12567676967E+04  0.89618565264E+03 0.  0.
         23    2    4    4    0    0  0.24471045201E+03 -0.33134499350E+03  0.85308844320E+03  0.95203635433E+03  0.94554841307E+02 0.  0.
         23    2    4    4    0    0  0.11543795679E+03  0.26116880685E+03 -0.52036169071E+02  0.30473134235E+03  0.92835125789E+02 0.  0.
          2    1    3    3  502    0 -0.29990702271E+03  0.50551846505E+02 -0.24776862723E+03  0.39228689004E+03  0.00000000000E+00 0. -1.
         -1    1    3    3    0  502 -0.60241386091E+02  0.19624340141E+02 -0.10530810457E+03  0.12289807245E+03  0.00000000000E+00 0.  1.
         11    1    5    5    0    0  0.67473948320E+02 -0.36943656718E+02  0.19514665377E+03  0.20976125464E+03  0.00000000000E+00 0.  1.
        -11    1    5    5    0    0  0.17723650369E+03 -0.29440133678E+03  0.65794178943E+03  0.74227509969E+03  0.00000000000E+00 0. -1.
          4    1    6    6  503    0  0.12292566092E+02  0.27172860244E+02  0.23630358017E+02  0.38050825680E+02  0.00000000000E+00 0.  1.
         -4    1    6    6    0  503  0.10314539069E+03  0.23399594661E+03 -0.75666527088E+02  0.26668051667E+03  0.00000000000E+00 0. -1.
<mgrwt>
<rscale>  0 0.17143903E+04</rscale>
<asrwt>0</asrwt>
<pdfrwt beam="1">  1        2 0.10184439E+00 0.17143903E+04</pdfrwt>
<pdfrwt beam="2">  1       -1 0.17076371E+00 0.17143903E+04</pdfrwt>
<totfact> 0.11588898E+01</totfact>
</mgrwt>
</event>
<event>
12    6  0.9491186E-008  0.2221822E+04  0.7818608E-02  0.8509400E-01
         -1   -1    0    0    0  501 -0.00000000000E+00  0.00000000000E+00  0.65171557509E+03  0.65171557509E+03  0.00000000000E+00 0.  1.
          2   -1    0    0  501    0  0.00000000000E+00 -0.00000000000E+00 -0.18936529707E+04  0.18936529707E+04  0.00000000000E+00 0. -1.
         24    2    1    2    0    0 -0.33870853077E+03  0.79911251774E+03 -0.15098934029E+03  0.88456532634E+03  0.79710418740E+02 0.  0.
        254    2    1    2    0    0  0.33870853077E+03 -0.79911251774E+03 -0.10909480553E+04  0.16608032195E+04  0.90266017389E+03 0.  0.
         23    2    4    4    0    0  0.63310199030E+03 -0.53991269509E+03 -0.63066861697E+03  0.10489577514E+04  0.10122060743E+03 0.  0.
         23    2    4    4    0    0 -0.29439345953E+03 -0.25919982265E+03 -0.46027943838E+03  0.61184546806E+03  0.92982032260E+02 0.  0.
          4    1    3    3  502    0 -0.23981584018E+02  0.56607944867E+02 -0.32232464457E+02  0.69415470604E+02  0.00000000000E+00 0. -1.
         -3    1    3    3    0  502 -0.31472694675E+03  0.74250457287E+03 -0.11875687583E+03  0.81514985573E+03  0.00000000000E+00 0.  1.
         11    1    5    5    0    0  0.31345146036E+03 -0.25643707876E+03 -0.36948176972E+03  0.54820486274E+03  0.00000000000E+00 0. -1.
        -11    1    5    5    0    0  0.31965052994E+03 -0.28347561632E+03 -0.26118684725E+03  0.50075288867E+03  0.00000000000E+00 0.  1.
          4    1    6    6  503    0 -0.26369976211E+03 -0.24405824824E+03 -0.37212556146E+03  0.51728080050E+03  0.00000000000E+00 0. -1.
         -4    1    6    6    0  503 -0.30693697421E+02 -0.15141574412E+02 -0.88153876916E+02  0.94564667569E+02  0.00000000000E+00 0.  1.
<mgrwt>
<rscale>  0 0.22218219E+04</rscale>
<asrwt>0</asrwt>
<pdfrwt beam="1">  1        2 0.29133122E+00 0.22218219E+04</pdfrwt>
<pdfrwt beam="2">  1       -1 0.10026394E+00 0.22218219E+04</pdfrwt>
<totfact> 0.75323830E+00</totfact>
</mgrwt>
</event>
<event>
12    6  0.9491186E-008  0.3657668E+04  0.7818608E-02  0.8077408E-01
          2   -1    0    0  501    0  0.00000000000E+00  0.00000000000E+00  0.17042830392E+04  0.17042830392E+04  0.00000000000E+00 0. -1.
         -1   -1    0    0    0  501 -0.00000000000E+00 -0.00000000000E+00 -0.19624874381E+04  0.19624874381E+04  0.00000000000E+00 0.  1.
         24    2    1    2    0    0  0.74842296509E+03 -0.51112496936E+03 -0.15828656665E+04  0.18256721318E+04  0.78926205793E+02 0.  0.
        254    2    1    2    0    0 -0.74842296509E+03  0.51112496936E+03  0.13246612675E+04  0.18410983454E+04  0.90195896505E+03 0.  0.
         23    2    4    4    0    0 -0.30826831113E+03  0.58848910937E+02  0.11269181201E+04  0.11734921718E+04  0.92988611171E+02 0.  0.
         23    2    4    4    0    0 -0.44015465396E+03  0.45227605843E+03  0.19774314745E+03  0.66760617363E+03  0.91136700991E+02 0.  0.
          4    1    3    3  502    0  0.16082081734E+03 -0.75210782871E+02 -0.33495369807E+03  0.37909626350E+03  0.00000000000E+00 0. -1.
         -3    1    3    3    0  502  0.58760214775E+03 -0.43591418649E+03 -0.12479119684E+04  0.14465758683E+04  0.00000000000E+00 0.  1.
         11    1    5    5    0    0 -0.19557896227E+03 -0.59199829018E+01  0.73406664550E+03  0.75969731915E+03  0.00000000000E+00 0. -1.
        -11    1    5    5    0    0 -0.11268934886E+03  0.64768893838E+02  0.39285147459E+03  0.41379485260E+03  0.00000000000E+00 0.  1.
          1    1    6    6  503    0 -0.41297581330E+03  0.38431043716E+03  0.16821544631E+03  0.58867645686E+03  0.00000000000E+00 0. -1.
         -1    1    6    6    0  503 -0.27178840656E+02  0.67965621266E+02  0.29527701147E+02  0.78929716765E+02  0.00000000000E+00 0.  1.
<mgrwt>
<rscale>  0 0.36576681E+04</rscale>
<asrwt>0</asrwt>
<pdfrwt beam="1">  1        2 0.26219739E+00 0.36576681E+04</pdfrwt>
<pdfrwt beam="2">  1       -1 0.30192115E+00 0.36576681E+04</pdfrwt>
<totfact> 0.28894947E-01</totfact>
</mgrwt>
</event>
<event>
12    6  0.9491186E-008  0.2512438E+04  0.7818608E-02  0.8398568E-01
         -1   -1    0    0    0  501 -0.00000000000E+00  0.00000000000E+00  0.97379025080E+03  0.97379025080E+03  0.00000000000E+00 0.  1.
          2   -1    0    0  501    0  0.00000000000E+00 -0.00000000000E+00 -0.16205601035E+04  0.16205601035E+04  0.00000000000E+00 0. -1.
         24    2    1    2    0    0  0.42723816544E+02  0.43397323591E+03  0.75352137545E+03  0.87425016680E+03  0.79754604291E+02 0.  0.
        254    2    1    2    0    0 -0.42723816544E+02 -0.43397323591E+03 -0.14002912281E+04  0.17201001875E+04  0.89876083438E+03 0.  0.
         23    2    4    4    0    0  0.29387788197E+03 -0.54998182751E+03 -0.82824917076E+03  0.10400910295E+04  0.83357307088E+02 0.  0.
         23    2    4    4    0    0 -0.33660169851E+03  0.11600859160E+03 -0.57204205734E+03  0.68000915798E+03  0.91769509077E+02 0.  0.
          2    1    3    3  502    0  0.52409340555E+02  0.15130615473E+03  0.28913925182E+03  0.33051747062E+03  0.00000000000E+00 0. -1.
         -1    1    3    3    0  502 -0.96855240111E+01  0.28266708118E+03  0.46438212362E+03  0.54373269618E+03  0.00000000000E+00 0.  1.
         11    1    5    5    0    0  0.88110171721E+01 -0.13779342610E+02 -0.50099391718E+01  0.17105665637E+02  0.00000000000E+00 0.  1.
        -11    1    5    5    0    0  0.28506686480E+03 -0.53620248490E+03 -0.82323923159E+03  0.10229853638E+04  0.00000000000E+00 0. -1.
          4    1    6    6  503    0 -0.18897374784E+03  0.61709972841E+02 -0.23317668719E+03  0.30641567449E+03  0.00000000000E+00 0. -1.
         -4    1    6    6    0  503 -0.14762795067E+03  0.54298618758E+02 -0.33886537015E+03  0.37359348349E+03  0.00000000000E+00 0.  1.
<mgrwt>
<rscale>  0 0.25124376E+04</rscale>
<asrwt>0</asrwt>
<pdfrwt beam="1">  1        2 0.24931694E+00 0.25124376E+04</pdfrwt>
<pdfrwt beam="2">  1       -1 0.14981388E+00 0.25124376E+04</pdfrwt>
<totfact> 0.38573171E+00</totfact>
</mgrwt>
</event>
<event>
12    6  0.9586098E-008  0.1534193E+04  0.7818608E-02  0.8862028E-01
         -1   -1    0    0    0  501 -0.00000000000E+00  0.00000000000E+00  0.29800411269E+03  0.29800411269E+03  0.00000000000E+00 0.  1.
          2   -1    0    0  501    0  0.00000000000E+00 -0.00000000000E+00 -0.19745943875E+04  0.19745943875E+04  0.00000000000E+00 0. -1.
         24    2    1    2    0    0  0.17763119735E+03  0.15793397621E+03  0.91403261275E+02  0.26691419784E+03  0.79954047555E+02 0.  0.
        254    2    1    2    0    0 -0.17763119735E+03 -0.15793397621E+03 -0.17679935361E+04  0.20056843024E+04  0.91677281481E+03 0.  0.
         23    2    4    4    0    0  0.28083932626E+03 -0.28356466042E+02 -0.12931505087E+04  0.13268031395E+04  0.92160275096E+02 0.  0.
         23    2    4    4    0    0 -0.45847052362E+03 -0.12957751017E+03 -0.47484302738E+03  0.67888116292E+03  0.91750643316E+02 0.  0.
          4    1    3    3  502    0 -0.60967465075E+01  0.20346230847E+02  0.75367847750E+01  0.22537580891E+02  0.00000000000E+00 0. -1.
         -3    1    3    3    0  502  0.18372794386E+03  0.13758774536E+03  0.83866476500E+02  0.24437661695E+03  0.00000000000E+00 0.  1.
         11    1    5    5    0    0  0.74738257002E+02  0.20383760764E+02 -0.49532816531E+03  0.50134947503E+03  0.00000000000E+00 0. -1.
        -11    1    5    5    0    0  0.20610106926E+03 -0.48740226806E+02 -0.79782234342E+03  0.82545366443E+03  0.00000000000E+00 0.  1.
          4    1    6    6  503    0 -0.22464707178E+03 -0.10979238921E+03 -0.22979322473E+03  0.33959623337E+03  0.00000000000E+00 0. -1.
         -4    1    6    6    0  503 -0.23382345183E+03 -0.19785120958E+02 -0.24504980264E+03  0.33928492954E+03  0.00000000000E+00 0.  1.
<mgrwt>
<rscale>  0 0.15341933E+04</rscale>
<asrwt>0</asrwt>
<pdfrwt beam="1">  1        2 0.30378374E+00 0.15341933E+04</pdfrwt>
<pdfrwt beam="2">  1       -1 0.45846789E-01 0.15341933E+04</pdfrwt>
<totfact> 0.35843229E+01</totfact>
</mgrwt>
</event>
<event>
12    6  0.9491186E-008  0.1319938E+04  0.7818608E-02  0.9013902E-01
          2   -1    0    0  501    0  0.00000000000E+00  0.00000000000E+00  0.24044183438E+04  0.24044183438E+04  0.00000000000E+00 0. -1.
         -1   -1    0    0    0  501 -0.00000000000E+00 -0.00000000000E+00 -0.18114951464E+03  0.18114951464E+03  0.00000000000E+00 0.  1.
         24    2    1    2    0    0 -0.17008270166E+03 -0.16534527216E+03  0.95111439706E+02  0.26785730549E+03  0.80213251483E+02 0.  0.
        254    2    1    2    0    0  0.17008270166E+03  0.16534527216E+03  0.21281573895E+04  0.23177105530E+04  0.88682644783E+03 0.  0.
         23    2    4    4    0    0  0.42501250585E+03  0.35921480739E+02  0.18746602024E+04  0.19246345529E+04  0.89113998957E+02 0.  0.
         23    2    4    4    0    0 -0.25492980420E+03  0.12942379142E+03  0.25349718708E+03  0.39307600009E+03  0.92239878239E+02 0.  0.
          4    1    3    3  502    0 -0.38297936563E+02 -0.14635290727E+02  0.46197578301E+02  0.61766818929E+02  0.00000000000E+00 0. -1.
         -3    1    3    3    0  502 -0.13178476509E+03 -0.15070998143E+03  0.48913861405E+02  0.20609048656E+03  0.00000000000E+00 0.  1.
         11    1    5    5    0    0  0.33615733381E+03 -0.49040426666E+01  0.13757978206E+04  0.14162787317E+04  0.00000000000E+00 0. -1.
        -11    1    5    5    0    0  0.88855172039E+02  0.40825523405E+02  0.49886238175E+03  0.50835582114E+03  0.00000000000E+00 0.  1.
          2    1    6    6  503    0 -0.22283614023E+03  0.12120319050E+03  0.25530319721E+03  0.35989704262E+03  0.00000000000E+00 0. -1.
         -2    1    6    6    0  503 -0.32093663966E+02  0.82206009200E+01 -0.18060101331E+01  0.33178957471E+02  0.00000000000E+00 0.  1.
<mgrwt>
<rscale>  0 0.13199382E+04</rscale>
<asrwt>0</asrwt>
<pdfrwt beam="1">  1        2 0.36991049E+00 0.13199382E+04</pdfrwt>
<pdfrwt beam="2">  1       -1 0.27869158E-01 0.13199382E+04</pdfrwt>
<totfact> 0.51333407E+01</totfact>
</mgrwt>
</event>
<event>
12    6  0.9491186E-008  0.1335863E+04  0.7818608E-02  0.9001599E-01
         -1   -1    0    0    0  501 -0.00000000000E+00  0.00000000000E+00  0.56694126063E+03  0.56694126063E+03  0.00000000000E+00 0.  1.
          2   -1    0    0  501    0  0.00000000000E+00 -0.00000000000E+00 -0.78691141497E+03  0.78691141497E+03  0.00000000000E+00 0. -1.
         24    2    1    2    0    0  0.17746633210E+03  0.30368666823E+03 -0.27297318970E+02  0.36172929961E+03  0.79893999056E+02 0.  0.
        254    2    1    2    0    0 -0.17746633210E+03 -0.30368666823E+03 -0.19267283537E+03  0.99212337598E+03  0.90745031831E+03 0.  0.
         23    2    4    4    0    0 -0.37801333404E+03 -0.94240293022E+01  0.21265597150E+03  0.44319452454E+03  0.90641774758E+02 0.  0.
         23    2    4    4    0    0  0.20054700194E+03 -0.29426263893E+03 -0.40532880686E+03  0.54892885144E+03  0.10110312368E+03 0.  0.
          2    1    3    3  502    0  0.50351732494E+02  0.80307537513E+02 -0.43317601155E+02  0.10421617972E+03  0.00000000000E+00 0. -1.
         -1    1    3    3    0  502  0.12711459961E+03  0.22337913072E+03  0.16020282185E+02  0.25751311989E+03  0.00000000000E+00 0.  1.
         11    1    5    5    0    0 -0.30680889550E+02  0.25224741394E+02  0.24256364118E+02  0.46540044716E+02  0.00000000000E+00 0.  1.
        -11    1    5    5    0    0 -0.34733244449E+03 -0.34648770696E+02  0.18839960738E+03  0.39665447982E+03  0.00000000000E+00 0. -1.
          1    1    6    6  503    0  0.14794196774E+03 -0.17535535009E+03 -0.31869459025E+03  0.39268634619E+03  0.00000000000E+00 0. -1.
         -1    1    6    6    0  503  0.52605034196E+02 -0.11890728883E+03 -0.86634216614E+02  0.15624250526E+03  0.00000000000E+00 0.  1.
<mgrwt>
<rscale>  0 0.13358631E+04</rscale>
<asrwt>0</asrwt>
<pdfrwt beam="1">  1        2 0.12106330E+00 0.13358631E+04</pdfrwt>
<pdfrwt beam="2">  1       -1 0.87221732E-01 0.13358631E+04</pdfrwt>
<totfact> 0.50892762E+01</totfact>
</mgrwt>
</event>
<event>
12    6  0.9491186E-008  0.2027698E+04  0.7818608E-02  0.8593779E-01
          2   -1    0    0  501    0  0.00000000000E+00  0.00000000000E+00  0.74980657331E+03  0.74980657331E+03  0.00000000000E+00 0. -1.
         -1   -1    0    0    0  501 -0.00000000000E+00 -0.00000000000E+00 -0.13708734618E+04  0.13708734618E+04  0.00000000000E+00 0.  1.
         24    2    1    2    0    0  0.32709383560E+03 -0.60478033299E+03  0.19403602287E+03  0.71869416820E+03  0.78241298334E+02 0.  0.
        254    2    1    2    0    0 -0.32709383560E+03  0.60478033299E+03 -0.81510291134E+03  0.14019858669E+04  0.91017689841E+03 0.  0.
         23    2    4    4    0    0 -0.62833854526E+03  0.47103055424E+03 -0.64461148808E+03  0.10200961709E+04  0.91613955817E+02 0.  0.
         23    2    4    4    0    0  0.30124470966E+03  0.13374977875E+03 -0.17049142326E+03  0.38188969594E+03  0.90194434676E+02 0.  0.
          4    1    3    3  502    0  0.22051712940E+03 -0.44182018735E+03  0.10621270271E+03  0.50508813145E+03  0.00000000000E+00 0. -1.
         -3    1    3    3    0  502  0.10657670620E+03 -0.16296014564E+03  0.87823320165E+02  0.21360603675E+03  0.00000000000E+00 0.  1.
         11    1    5    5    0    0 -0.27235870677E+03  0.25445630679E+03 -0.27635460218E+03  0.46400338723E+03  0.00000000000E+00 0.  1.
        -11    1    5    5    0    0 -0.35597983849E+03  0.21657424745E+03 -0.36825688590E+03  0.55609278370E+03  0.00000000000E+00 0. -1.
          3    1    6    6  503    0  0.27995967002E+03  0.14716641800E+03 -0.15379723470E+03  0.35169441398E+03  0.00000000000E+00 0. -1.
         -3    1    6    6    0  503  0.21285039645E+02 -0.13416639244E+02 -0.16694188556E+02  0.30195281963E+02  0.00000000000E+00 0.  1.
<mgrwt>
<rscale>  0 0.20276981E+04</rscale>
<asrwt>0</asrwt>
<pdfrwt beam="1">  1        2 0.11535486E+00 0.20276981E+04</pdfrwt>
<pdfrwt beam="2">  1       -1 0.21090361E+00 0.20276981E+04</pdfrwt>
<totfact> 0.50302425E+00</totfact>
</mgrwt>
</event>
<event>
12    6  0.9491186E-008  0.2050006E+04  0.7818608E-02  0.8583592E-01
         -1   -1    0    0    0  501 -0.00000000000E+00  0.00000000000E+00  0.25569726842E+04  0.25569726842E+04  0.00000000000E+00 0.  1.
          2   -1    0    0  501    0  0.00000000000E+00 -0.00000000000E+00 -0.41088853310E+03  0.41088853310E+03  0.00000000000E+00 0. -1.
         24    2    1    2    0    0  0.65957686137E+03  0.48703336409E+03  0.10318427065E+04  0.13204688935E+04  0.81826609013E+02 0.  0.
        254    2    1    2    0    0 -0.65957686137E+03 -0.48703336409E+03  0.11142414446E+04  0.16473923238E+04  0.89449669528E+03 0.  0.
         23    2    4    4    0    0 -0.70121419942E+03 -0.50257361151E+03  0.12223015478E+04  0.14989771360E+04  0.92896673357E+02 0.  0.
         23    2    4    4    0    0  0.41637338052E+02  0.15540247418E+02 -0.10806010324E+03  0.14841518781E+03  0.91514560879E+02 0.  0.
          2    1    3    3  502    0  0.43341092970E+02  0.10544583698E+02  0.46940057705E+02  0.64753436994E+02  0.00000000000E+00 0. -1.
         -1    1    3    3    0  502  0.61623576840E+03  0.47648878039E+03  0.98490264880E+03  0.12557154565E+04  0.00000000000E+00 0.  1.
         11    1    5    5    0    0 -0.47658280138E+03 -0.38643720692E+03  0.82810431894E+03  0.10306413753E+04  0.00000000000E+00 0. -1.
        -11    1    5    5    0    0 -0.22463139804E+03 -0.11613640459E+03  0.39419722891E+03  0.46833576068E+03  0.00000000000E+00 0.  1.
          3    1    6    6  503    0 -0.19179735399E+02  0.31915341169E+02 -0.52912233500E+02  0.64700507771E+02  0.00000000000E+00 0. -1.
         -3    1    6    6    0  503  0.60817073451E+02 -0.16375093750E+02 -0.55147869736E+02  0.83714680044E+02  0.00000000000E+00 0.  1.
<mgrwt>
<rscale>  0 0.20500056E+04</rscale>
<asrwt>0</asrwt>
<pdfrwt beam="1">  1        2 0.63213622E-01 0.20500056E+04</pdfrwt>
<pdfrwt beam="2">  1       -1 0.39338040E+00 0.20500056E+04</pdfrwt>
<totfact> 0.64852036E-01</totfact>
</mgrwt>
</event>
<event>
12    6  0.9491186E-008  0.1558119E+04  0.7818608E-02  0.8846699E-01
          2   -1    0    0  501    0  0.00000000000E+00  0.00000000000E+00  0.39947615994E+04  0.39947615994E+04  0.00000000000E+00 0. -1.
         -1   -1    0    0    0  501 -0.00000000000E+00 -0.00000000000E+00 -0.15193234755E+03  0.15193234755E+03  0.00000000000E+00 0.  1.
         24    2    1    2    0    0  0.48073194888E+03  0.17257974102E+03  0.16017402773E+04  0.16831171292E+04  0.80152236755E+02 0.  0.
        254    2    1    2    0    0 -0.48073194888E+03 -0.17257974102E+03  0.22410889746E+04  0.24635768178E+04  0.88647840997E+03 0.  0.
         23    2    4    4    0    0 -0.56285173664E+02 -0.45267718593E+03  0.14113056626E+04  0.14859718588E+04  0.90796675229E+02 0.  0.
         23    2    4    4    0    0 -0.42444677522E+03  0.28009744491E+03  0.82978331195E+03  0.97760495900E+03  0.92528198007E+02 0.  0.
          4    1    3    3  502    0  0.35643686063E+03  0.10137663700E+03  0.12348301785E+04  0.12892362188E+04  0.00000000000E+00 0. -1.
         -3    1    3    3    0  502  0.12429508825E+03  0.71203104017E+02  0.36691009874E+03  0.39388091035E+03  0.00000000000E+00 0.  1.
         11    1    5    5    0    0  0.12507613640E+02 -0.16092441122E+03  0.58977604646E+03  0.61146454640E+03  0.00000000000E+00 0. -1.
        -11    1    5    5    0    0 -0.68792787304E+02 -0.29175277471E+03  0.82152961619E+03  0.87450731238E+03  0.00000000000E+00 0.  1.
          3    1    6    6  503    0 -0.24315560685E+03  0.10797509408E+03  0.45576604234E+03  0.52773663454E+03  0.00000000000E+00 0. -1.
         -3    1    6    6    0  503 -0.18129116837E+03  0.17212235083E+03  0.37401726961E+03  0.44986832446E+03  0.00000000000E+00 0.  1.
<mgrwt>
<rscale>  0 0.15581187E+04</rscale>
<asrwt>0</asrwt>
<pdfrwt beam="1">  1        2 0.61457863E+00 0.15581187E+04</pdfrwt>
<pdfrwt beam="2">  1       -1 0.23374210E-01 0.15581187E+04</pdfrwt>
<totfact> 0.60765235E+00</totfact>
</mgrwt>
</event>
<event>
12    6  0.9491186E-008  0.1299433E+04  0.7818608E-02  0.9030015E-01
          2   -1    0    0  501    0  0.00000000000E+00  0.00000000000E+00  0.59875562189E+03  0.59875562189E+03  0.00000000000E+00 0. -1.
         -1   -1    0    0    0  501 -0.00000000000E+00 -0.00000000000E+00 -0.70501470778E+03  0.70501470778E+03  0.00000000000E+00 0.  1.
         24    2    1    2    0    0  0.88950586835E+02 -0.18762410047E+03  0.22562383624E+03  0.31701931367E+03  0.80499191214E+02 0.  0.
        254    2    1    2    0    0 -0.88950586835E+02  0.18762410047E+03 -0.33188292214E+03  0.98675101600E+03  0.90576833881E+03 0.  0.
         23    2    4    4    0    0  0.42926928834E+02 -0.31304630981E+03 -0.32223570316E+03  0.46053774639E+03  0.91752134322E+02 0.  0.
         23    2    4    4    0    0 -0.13187751567E+03  0.50067041028E+03 -0.96472189710E+01  0.52621326961E+03  0.93513621517E+02 0.  0.
          2    1    3    3  502    0  0.71344183135E+02 -0.19175171953E+03  0.20849553300E+03  0.29211145423E+03  0.00000000000E+00 0. -1.
         -1    1    3    3    0  502  0.17606403701E+02  0.41276190568E+01  0.17128303240E+02  0.24907859447E+02  0.00000000000E+00 0.  1.
         11    1    5    5    0    0  0.26143748601E+02 -0.30856861282E+03 -0.31497969459E+03  0.44171290723E+03  0.00000000000E+00 0. -1.
        -11    1    5    5    0    0  0.16783180232E+02 -0.44776969867E+01 -0.72560085780E+01  0.18824839163E+02  0.00000000000E+00 0.  1.
          2    1    6    6  503    0 -0.10537182567E+03  0.38688729650E+03  0.31825262298E+02  0.40224103366E+03  0.00000000000E+00 0. -1.
         -2    1    6    6    0  503 -0.26505689994E+02  0.11378311378E+03 -0.41472481269E+02  0.12397223595E+03  0.00000000000E+00 0.  1.
<mgrwt>
<rscale>  0 0.12994330E+04</rscale>
<asrwt>0</asrwt>
<pdfrwt beam="1">  1        2 0.92116250E-01 0.12994330E+04</pdfrwt>
<pdfrwt beam="2">  1       -1 0.10846380E+00 0.12994330E+04</pdfrwt>
<totfact> 0.43965666E+01</totfact>
</mgrwt>
</event>
<event>
12    6  0.9491186E-008  0.1553368E+04  0.7818608E-02  0.8849719E-01
         -1   -1    0    0    0  501 -0.00000000000E+00  0.00000000000E+00  0.27732245095E+03  0.27732245095E+03  0.00000000000E+00 0.  1.
          2   -1    0    0  501    0  0.00000000000E+00 -0.00000000000E+00 -0.21752236298E+04  0.21752236298E+04  0.00000000000E+00 0. -1.
         24    2    1    2    0    0 -0.19999171388E+03  0.42948901571E+03 -0.44085842307E+03  0.65199358006E+03  0.79258936508E+02 0.  0.
        254    2    1    2    0    0  0.19999171388E+03 -0.42948901571E+03 -0.14570427558E+04  0.18005525007E+04  0.94581087712E+03 0.  0.
         23    2    4    4    0    0  0.25472077581E+03 -0.36459373651E+03 -0.13632165900E+03  0.47340702611E+03  0.87859839087E+02 0.  0.
         23    2    4    4    0    0 -0.54729061928E+02 -0.64895279200E+02 -0.13207210968E+04  0.13271454746E+04  0.99016300243E+02 0.  0.
          4    1    3    3  502    0  0.91186777364E+00  0.21694423542E+02 -0.51613729629E+01  0.22318586123E+02  0.00000000000E+00 0. -1.
         -3    1    3    3    0  502 -0.20090358165E+03  0.40779459217E+03 -0.43569705010E+03  0.62967499394E+03  0.00000000000E+00 0.  1.
         11    1    5    5    0    0  0.49849517579E+01 -0.26839228498E+02 -0.29066085897E+02  0.39875196298E+02  0.00000000000E+00 0.  1.
        -11    1    5    5    0    0  0.24973582405E+03 -0.33775450801E+03 -0.10725557311E+03  0.43353182981E+03  0.00000000000E+00 0. -1.
          2    1    6    6  503    0 -0.72045073268E+02 -0.52906269045E+02 -0.12539443668E+04  0.12571261038E+04  0.00000000000E+00 0. -1.
         -2    1    6    6    0  503  0.17316011340E+02 -0.11989010156E+02 -0.66776730010E+02  0.70019370777E+02  0.00000000000E+00 0.  1.
<mgrwt>
<rscale>  0 0.15533684E+04</rscale>
<asrwt>0</asrwt>
<pdfrwt beam="1">  1        2 0.33464980E+00 0.15533684E+04</pdfrwt>
<pdfrwt beam="2">  1       -1 0.42664991E-01 0.15533684E+04</pdfrwt>
<totfact> 0.31632872E+01</totfact>
</mgrwt>
</event>
<event>
12    6  0.9491186E-008  0.1558851E+04  0.7818608E-02  0.8846234E-01
         -1   -1    0    0    0  501 -0.00000000000E+00  0.00000000000E+00  0.12426983714E+04  0.12426983714E+04  0.00000000000E+00 0.  1.
          2   -1    0    0  501    0  0.00000000000E+00 -0.00000000000E+00 -0.48885915731E+03  0.48885915731E+03  0.00000000000E+00 0. -1.
         24    2    1    2    0    0 -0.22362943807E+03  0.44923643862E+03  0.43377754328E+03  0.66835495765E+03  0.81926119220E+02 0.  0.
        254    2    1    2    0    0  0.22362943807E+03 -0.44923643862E+03  0.32006167083E+03  0.10632025711E+04  0.88098622615E+03 0.  0.
         23    2    4    4    0    0 -0.13163716069E+03 -0.57969759908E+03  0.84686012146E+02  0.60830030713E+03  0.97364750073E+02 0.  0.
         23    2    4    4    0    0  0.35526659876E+03  0.13046116046E+03  0.23537565869E+03  0.45490226394E+03  0.91103778494E+02 0.  0.
          4    1    3    3  502    0 -0.52075237935E+02  0.18954077787E+03  0.15150635053E+03  0.24817677396E+03  0.00000000000E+00 0. -1.
         -3    1    3    3    0  502 -0.17155420013E+03  0.25969566075E+03  0.28227119275E+03  0.42017818369E+03  0.00000000000E+00 0.  1.
         11    1    5    5    0    0 -0.34115265134E+01 -0.12010559342E+03  0.49204483536E+02  0.12983864326E+03  0.00000000000E+00 0. -1.
        -11    1    5    5    0    0 -0.12822563418E+03 -0.45959200565E+03  0.35481528610E+02  0.47846166387E+03  0.00000000000E+00 0.  1.
          1    1    6    6  503    0  0.77293776606E+02  0.19108454779E+02  0.10267998117E+02  0.80280089258E+02  0.00000000000E+00 0. -1.
         -1    1    6    6    0  503  0.27797282216E+03  0.11135270568E+03  0.22510766057E+03  0.37462217469E+03  0.00000000000E+00 0.  1.
<mgrwt>
<rscale>  0 0.15588515E+04</rscale>
<asrwt>0</asrwt>
<pdfrwt beam="1">  1        2 0.75209102E-01 0.15588515E+04</pdfrwt>
<pdfrwt beam="2">  1       -1 0.19118436E+00 0.15588515E+04</pdfrwt>
<totfact> 0.12049067E+01</totfact>
</mgrwt>
</event>
<event>
12    6  0.9491186E-008  0.1806843E+04  0.7818608E-02  0.8702669E-01
          2   -1    0    0  501    0  0.00000000000E+00  0.00000000000E+00  0.99518819471E+03  0.99518819471E+03  0.00000000000E+00 0. -1.
         -1   -1    0    0    0  501 -0.00000000000E+00 -0.00000000000E+00 -0.82011660707E+03  0.82011660707E+03  0.00000000000E+00 0.  1.
         24    2    1    2    0    0 -0.11295096702E+03 -0.57072555309E+03  0.41529694403E+03  0.71919116507E+03  0.79238893815E+02 0.  0.
        254    2    1    2    0    0  0.11295096702E+03  0.57072555309E+03 -0.24022535639E+03  0.10961136367E+04  0.89736910178E+03 0.  0.
         23    2    4    4    0    0  0.85822457360E+02  0.54127093001E+03  0.24008137862E+03  0.60400774359E+03  0.82744015454E+02 0.  0.
         23    2    4    4    0    0  0.27128509661E+02  0.29454623081E+02 -0.48030673501E+03  0.49210589312E+03  0.99348475044E+02 0.  0.
          2    1    3    3  502    0 -0.14555462657E+02 -0.26676795961E+03  0.17416751720E+03  0.31892213754E+03  0.00000000000E+00 0. -1.
         -1    1    3    3    0  502 -0.98395504365E+02 -0.30395759348E+03  0.24112942683E+03  0.40026902753E+03  0.00000000000E+00 0.  1.
         11    1    5    5    0    0 -0.77606755127E+01  0.18900829344E+03  0.68841328068E+02  0.20130447467E+03  0.00000000000E+00 0. -1.
        -11    1    5    5    0    0  0.93583132873E+02  0.35226263657E+03  0.17124005055E+03  0.40270326891E+03  0.00000000000E+00 0.  1.
          3    1    6    6  503    0  0.16106279482E+02 -0.93621307087E+01 -0.12212580786E+02  0.22275745994E+02  0.00000000000E+00 0. -1.
         -3    1    6    6    0  503  0.11022230180E+02  0.38816753790E+02 -0.46809415422E+03  0.46983014713E+03  0.00000000000E+00 0.  1.
<mgrwt>
<rscale>  0 0.18068430E+04</rscale>
<asrwt>0</asrwt>
<pdfrwt beam="1">  1        2 0.15310588E+00 0.18068430E+04</pdfrwt>
<pdfrwt beam="2">  1       -1 0.12617179E+00 0.18068430E+04</pdfrwt>
<totfact> 0.14932881E+01</totfact>
</mgrwt>
</event>
<event>
12    6  0.9491186E-008  0.2012812E+04  0.7818608E-02  0.8600654E-01
         -1   -1    0    0    0  501 -0.00000000000E+00  0.00000000000E+00  0.42645299079E+03  0.42645299079E+03  0.00000000000E+00 0.  1.
          2   -1    0    0  501    0  0.00000000000E+00 -0.00000000000E+00 -0.23750645319E+04  0.23750645319E+04  0.00000000000E+00 0. -1.
         24    2    1    2    0    0 -0.39760563714E+03 -0.38454881432E+03 -0.15609781095E+04  0.16581792326E+04  0.83292712265E+02 0.  0.
        254    2    1    2    0    0  0.39760563714E+03  0.38454881432E+03 -0.38763343161E+03  0.11433382901E+04  0.92249375875E+03 0.  0.
         23    2    4    4    0    0  0.21064338666E+03  0.57314254019E+03  0.56277034130E+02  0.61965486605E+03  0.89118127896E+02 0.  0.
         23    2    4    4    0    0  0.18696225047E+03 -0.18859372587E+03 -0.44391046574E+03  0.52368342401E+03  0.81641597550E+02 0.  0.
          2    1    3    3  502    0 -0.37619112102E+03 -0.37496704727E+03 -0.14374560399E+04  0.15324489918E+04  0.00000000000E+00 0. -1.
         -1    1    3    3    0  502 -0.21414516112E+02 -0.95817670501E+01 -0.12352206966E+03  0.12573024080E+03  0.00000000000E+00 0.  1.
         11    1    5    5    0    0  0.12192604736E+03  0.43396732359E+03  0.58798138524E+02  0.45458862730E+03  0.00000000000E+00 0. -1.
        -11    1    5    5    0    0  0.88717339297E+02  0.13917521660E+03 -0.25211043942E+01  0.16506623875E+03  0.00000000000E+00 0.  1.
          1    1    6    6  503    0  0.13047279398E+03 -0.16665225055E+03 -0.38401082569E+03  0.43847512680E+03  0.00000000000E+00 0. -1.
         -1    1    6    6    0  503  0.56489456495E+02 -0.21941475325E+02 -0.59899640054E+02  0.85208297208E+02  0.00000000000E+00 0.  1.
<mgrwt>
<rscale>  0 0.20128123E+04</rscale>
<asrwt>0</asrwt>
<pdfrwt beam="1">  1        2 0.36539454E+00 0.20128123E+04</pdfrwt>
<pdfrwt beam="2">  1       -1 0.65608154E-01 0.20128123E+04</pdfrwt>
<totfact> 0.10224225E+01</totfact>
</mgrwt>
</event>
<event>
12    6  0.9491186E-008  0.1503955E+04  0.7818608E-02  0.8881827E-01
         -1   -1    0    0    0  501 -0.00000000000E+00  0.00000000000E+00  0.15541638548E+03  0.15541638548E+03  0.00000000000E+00 0.  1.
          2   -1    0    0  501    0  0.00000000000E+00 -0.00000000000E+00 -0.36384226755E+04  0.36384226755E+04  0.00000000000E+00 0. -1.
         24    2    1    2    0    0 -0.26059179895E+03  0.18187475729E+03 -0.20265098698E+04  0.20527776264E+04  0.78531636185E+02 0.  0.
        254    2    1    2    0    0  0.26059179895E+03 -0.18187475729E+03 -0.14564964202E+04  0.17410614346E+04  0.89940346006E+03 0.  0.
         23    2    4    4    0    0 -0.21630914526E+03 -0.19192870928E+03 -0.13249524318E+03  0.33075452363E+03  0.90649267340E+02 0.  0.
         23    2    4    4    0    0  0.47690094421E+03  0.10053951990E+02 -0.13240011770E+04  0.14103069109E+04  0.91928634476E+02 0.  0.
          4    1    3    3  502    0 -0.79711099807E+02  0.10185791054E+03 -0.83781623787E+03  0.84774108182E+03  0.00000000000E+00 0. -1.
         -3    1    3    3    0  502 -0.18088069914E+03  0.80016846744E+02 -0.11886936319E+04  0.12050365446E+04  0.00000000000E+00 0.  1.
         11    1    5    5    0    0 -0.20255011892E+03 -0.20195758880E+03 -0.12492012246E+03  0.31211929665E+03  0.00000000000E+00 0. -1.
        -11    1    5    5    0    0 -0.13759026345E+02  0.10028879528E+02 -0.75751207265E+01  0.18635226980E+02  0.00000000000E+00 0.  1.
          1    1    6    6  503    0  0.39944193918E+03  0.36370751407E+02 -0.11523342244E+04  0.12201437862E+04  0.00000000000E+00 0. -1.
         -1    1    6    6    0  503  0.77459005033E+02 -0.26316799416E+02 -0.17166695265E+03  0.19016312477E+03  0.00000000000E+00 0.  1.
<mgrwt>
<rscale>  0 0.15039555E+04</rscale>
<asrwt>0</asrwt>
<pdfrwt beam="1">  1        2 0.55975729E+00 0.15039555E+04</pdfrwt>
<pdfrwt beam="2">  1       -1 0.23910215E-01 0.15039555E+04</pdfrwt>
<totfact> 0.10948129E+01</totfact>
</mgrwt>
</event>
<event>
12    6  0.9491186E-008  0.2068062E+04  0.7818608E-02  0.8575444E-01
         -1   -1    0    0    0  501 -0.00000000000E+00  0.00000000000E+00  0.51170762425E+03  0.51170762425E+03  0.00000000000E+00 0.  1.
          2   -1    0    0  501    0  0.00000000000E+00 -0.00000000000E+00 -0.20895142817E+04  0.20895142817E+04  0.00000000000E+00 0. -1.
         24    2    1    2    0    0 -0.16539897029E+03 -0.63733812430E+02 -0.16646103523E+04  0.16765952001E+04  0.92870994093E+02 0.  0.
        254    2    1    2    0    0  0.16539897029E+03  0.63733812430E+02  0.86803694847E+02  0.92462670592E+03  0.90331658107E+03 0.  0.
         23    2    4    4    0    0  0.52201553855E+03  0.77344658444E+02  0.13779143611E+03  0.55305238913E+03  0.91640856500E+02 0.  0.
         23    2    4    4    0    0 -0.35661656827E+03 -0.13610846014E+02 -0.50987741258E+02  0.37157431679E+03  0.90039387190E+02 0.  0.
          4    1    3    3  502    0 -0.17725047280E+03 -0.58823462729E+02 -0.15238142009E+04  0.15352158313E+04  0.00000000000E+00 0. -1.
         -3    1    3    3    0  502  0.11851502512E+02 -0.49103497011E+01 -0.14079615144E+03  0.14137936875E+03  0.00000000000E+00 0.  1.
         11    1    5    5    0    0  0.51846758177E+03  0.64728291933E+02  0.13503450561E+03  0.53965980286E+03  0.00000000000E+00 0. -1.
        -11    1    5    5    0    0  0.35479567882E+01  0.12616366510E+02  0.27569304971E+01  0.13392586272E+02  0.00000000000E+00 0.  1.
          3    1    6    6  503    0 -0.20303777720E+03 -0.15660028444E+02 -0.73172287076E+02  0.21638798270E+03  0.00000000000E+00 0. -1.
         -3    1    6    6    0  503 -0.15357879106E+03  0.20491824300E+01  0.22184545818E+02  0.15518633408E+03  0.00000000000E+00 0.  1.
<mgrwt>
<rscale>  0 0.20680623E+04</rscale>
<asrwt>0</asrwt>
<pdfrwt beam="1">  1        2 0.32146373E+00 0.20680623E+04</pdfrwt>
<pdfrwt beam="2">  1       -1 0.78724251E-01 0.20680623E+04</pdfrwt>
<totfact> 0.10111206E+01</totfact>
</mgrwt>
</event>
<event>
12    6  0.9491186E-008  0.2328767E+04  0.7818608E-02  0.8466664E-01
          2   -1    0    0  501    0  0.00000000000E+00  0.00000000000E+00  0.11235372403E+04  0.11235372403E+04  0.00000000000E+00 0. -1.
         -1   -1    0    0    0  501 -0.00000000000E+00 -0.00000000000E+00 -0.12067151637E+04  0.12067151637E+04  0.00000000000E+00 0.  1.
         24    2    1    2    0    0 -0.10398137133E+03 -0.45943506824E+03 -0.91023215595E+03  0.10280368008E+04  0.80276887245E+02 0.  0.
        254    2    1    2    0    0  0.10398137133E+03  0.45943506824E+03  0.82705423261E+03  0.13022156032E+04  0.88873734359E+03 0.  0.
         23    2    4    4    0    0  0.34223707000E+03  0.57064389669E+03  0.36954167985E+03  0.76624384335E+03  0.88362352895E+02 0.  0.
         23    2    4    4    0    0 -0.23825569868E+03 -0.11120882845E+03  0.45751255276E+03  0.53597175980E+03  0.93887219016E+02 0.  0.
          2    1    3    3  502    0  0.44545067301E+01 -0.10773598197E+03 -0.24754105322E+03  0.27000640265E+03  0.00000000000E+00 0. -1.
         -1    1    3    3    0  502 -0.10843587806E+03 -0.35169908627E+03 -0.66269110273E+03  0.75803039818E+03  0.00000000000E+00 0.  1.
         11    1    5    5    0    0  0.49441150242E+02  0.12825919144E+03  0.46432135126E+02  0.14508890619E+03  0.00000000000E+00 0. -1.
        -11    1    5    5    0    0  0.29279591976E+03  0.44238470525E+03  0.32310954473E+03  0.62115493716E+03  0.00000000000E+00 0.  1.
          3    1    6    6  503    0  0.75450491934E+01  0.15362961380E+01  0.63945582332E+01  0.10008913435E+02  0.00000000000E+00 0. -1.
         -3    1    6    6    0  503 -0.24580074787E+03 -0.11274512459E+03  0.45111799453E+03  0.52596284637E+03  0.00000000000E+00 0.  1.
<mgrwt>
<rscale>  0 0.23287674E+04</rscale>
<asrwt>0</asrwt>
<pdfrwt beam="1">  1        2 0.17285188E+00 0.23287674E+04</pdfrwt>
<pdfrwt beam="2">  1       -1 0.18564849E+00 0.23287674E+04</pdfrwt>
<totfact> 0.41207323E+00</totfact>
</mgrwt>
</event>
<event>
12    6  0.9491186E-008  0.3775641E+04  0.7818608E-02  0.8051403E-01
          2   -1    0    0  501    0  0.00000000000E+00  0.00000000000E+00  0.18268751004E+04  0.18268751004E+04  0.00000000000E+00 0. -1.
         -1   -1    0    0    0  501 -0.00000000000E+00 -0.00000000000E+00 -0.19507991363E+04  0.19507991363E+04  0.00000000000E+00 0.  1.
         24    2    1    2    0    0 -0.15847915670E+04 -0.79302991050E+03  0.10215110064E+03  0.17768757907E+04  0.79949849340E+02 0.  0.
        254    2    1    2    0    0  0.15847915670E+04  0.79302991050E+03 -0.22607513652E+03  0.20007984461E+04  0.90090160661E+03 0.  0.
         23    2    4    4    0    0  0.75409661579E+02 -0.13610432790E+03 -0.13501345582E+03  0.22376773503E+03  0.87363383956E+02 0.  0.
         23    2    4    4    0    0  0.15093819054E+04  0.92913423840E+03 -0.91061680694E+02  0.17770307110E+04  0.89564217263E+02 0.  0.
          4    1    3    3  502    0 -0.18275634072E+03 -0.10184098301E+03 -0.12007022215E+02  0.20956057472E+03  0.00000000000E+00 0. -1.
         -3    1    3    3    0  502 -0.14020352262E+04 -0.69118892749E+03  0.11415812286E+03  0.15673152159E+04  0.00000000000E+00 0.  1.
         11    1    5    5    0    0  0.16164663707E+02  0.74550629963E+01  0.27211475324E+00  0.17803043657E+02  0.00000000000E+00 0. -1.
        -11    1    5    5    0    0  0.59244997872E+02 -0.14355939090E+03 -0.13528557058E+03  0.20596469138E+03  0.00000000000E+00 0.  1.
          3    1    6    6  503    0  0.36514872960E+03  0.18432180222E+03 -0.36357484922E+02  0.41064581845E+03  0.00000000000E+00 0. -1.
         -3    1    6    6    0  503  0.11442331758E+04  0.74481243618E+03 -0.54704195772E+02  0.13663848926E+04  0.00000000000E+00 0.  1.
<mgrwt>
<rscale>  0 0.37756411E+04</rscale>
<asrwt>0</asrwt>
<pdfrwt beam="1">  1        2 0.28105771E+00 0.37756411E+04</pdfrwt>
<pdfrwt beam="2">  1       -1 0.30012294E+00 0.37756411E+04</pdfrwt>
<totfact> 0.25125422E-01</totfact>
</mgrwt>
</event>
<event>
12    6  0.9491186E-008  0.1891735E+04  0.7818608E-02  0.8658982E-01
          2   -1    0    0  501    0  0.00000000000E+00  0.00000000000E+00  0.18475130098E+04  0.18475130098E+04  0.00000000000E+00 0. -1.
         -1   -1    0    0    0  501 -0.00000000000E+00 -0.00000000000E+00 -0.48425362342E+03  0.48425362342E+03  0.00000000000E+00 0.  1.
         24    2    1    2    0    0  0.22095025812E+03  0.43048567347E+02 -0.32748906464E+03  0.40524882477E+03  0.79406087991E+02 0.  0.
        254    2    1    2    0    0 -0.22095025812E+03 -0.43048567347E+02  0.16907484510E+04  0.19265178084E+04  0.89563851297E+03 0.  0.
         23    2    4    4    0    0  0.32598689374E+02 -0.23274211555E+02 -0.79018983623E+02  0.13573683975E+03  0.10284029570E+03 0.  0.
         23    2    4    4    0    0 -0.25354894749E+03 -0.19774355792E+02  0.17697674346E+04  0.17907809687E+04  0.10070556696E+03 0.  0.
          4    1    3    3  502    0 -0.23884766574E+01  0.96611725004E+01 -0.30979016902E+02  0.32538324528E+02  0.00000000000E+00 0. -1.
         -3    1    3    3    0  502  0.22333873477E+03  0.33387394847E+02 -0.29651004773E+03  0.37271050024E+03  0.00000000000E+00 0.  1.
         11    1    5    5    0    0 -0.19954001493E+01 -0.54512084170E+02 -0.15048107163E+02  0.56586168553E+02  0.00000000000E+00 0. -1.
        -11    1    5    5    0    0  0.34594089523E+02  0.31237872615E+02 -0.63970876460E+02  0.79150671194E+02  0.00000000000E+00 0.  1.
          3    1    6    6  503    0 -0.84792617327E+02 -0.44349570432E+02  0.45151670745E+03  0.46154524097E+03  0.00000000000E+00 0. -1.
         -3    1    6    6    0  503 -0.16875633016E+03  0.24575214640E+02  0.13182507272E+04  0.13292357277E+04  0.00000000000E+00 0.  1.
<mgrwt>
<rscale>  0 0.18917345E+04</rscale>
<asrwt>0</asrwt>
<pdfrwt beam="1">  1        2 0.28423277E+00 0.18917345E+04</pdfrwt>
<pdfrwt beam="2">  1       -1 0.74500559E-01 0.18917345E+04</pdfrwt>
<totfact> 0.15712847E+01</totfact>
</mgrwt>
</event>
<event>
12    6  0.9491186E-008  0.1400748E+04  0.7818608E-02  0.8953277E-01
         -1   -1    0    0    0  501 -0.00000000000E+00  0.00000000000E+00  0.20655929710E+03  0.20655929710E+03  0.00000000000E+00 0.  1.
          2   -1    0    0  501    0  0.00000000000E+00 -0.00000000000E+00 -0.23747372517E+04  0.23747372517E+04  0.00000000000E+00 0. -1.
         24    2    1    2    0    0 -0.16083711320E+03  0.16385964506E+03 -0.42901426827E+02  0.24750128675E+03  0.81840052890E+02 0.  0.
        254    2    1    2    0    0  0.16083711320E+03 -0.16385964506E+03 -0.21252765278E+04  0.23337952621E+04  0.93652626519E+03 0.  0.
         23    2    4    4    0    0  0.33244044656E+03 -0.47508785328E+03 -0.11437986470E+04  0.12859667884E+04  0.95969355665E+02 0.  0.
         23    2    4    4    0    0 -0.17160333335E+03  0.31122820821E+03 -0.98147788085E+03  0.10478284737E+04  0.91296101028E+02 0.  0.
          2    1    3    3  502    0  0.14554387806E+01  0.18525521445E+02  0.12890024586E+02  0.22615613648E+02  0.00000000000E+00 0. -1.
         -1    1    3    3    0  502 -0.16229255198E+03  0.14533412362E+03 -0.55791451412E+02  0.22488567311E+03  0.00000000000E+00 0.  1.
         11    1    5    5    0    0  0.57525866512E+02 -0.91653123478E+02 -0.30436941309E+03  0.32303290852E+03  0.00000000000E+00 0.  1.
        -11    1    5    5    0    0  0.27491458005E+03 -0.38343472980E+03 -0.83942923389E+03  0.96293387989E+03  0.00000000000E+00 0. -1.
          4    1    6    6  503    0 -0.10000476019E+03  0.11031826949E+03 -0.48850942626E+03  0.51069808321E+03  0.00000000000E+00 0. -1.
         -4    1    6    6    0  503 -0.71598573161E+02  0.20090993873E+03 -0.49296845459E+03  0.53713039048E+03  0.00000000000E+00 0.  1.
<mgrwt>
<rscale>  0 0.14007485E+04</rscale>
<asrwt>0</asrwt>
<pdfrwt beam="1">  1        2 0.36534417E+00 0.14007485E+04</pdfrwt>
<pdfrwt beam="2">  1       -1 0.31778355E-01 0.14007485E+04</pdfrwt>
<totfact> 0.42109707E+01</totfact>
</mgrwt>
</event>
<event>
12    6  0.9491186E-008  0.1169051E+04  0.7818608E-02  0.9140386E-01
          2   -1    0    0  501    0  0.00000000000E+00  0.00000000000E+00  0.27755484507E+03  0.27755484507E+03  0.00000000000E+00 0. -1.
         -1   -1    0    0    0  501 -0.00000000000E+00 -0.00000000000E+00 -0.12310002591E+04  0.12310002591E+04  0.00000000000E+00 0.  1.
         24    2    1    2    0    0 -0.18652099679E+03 -0.12725157618E+03 -0.19612951284E+03  0.30932287096E+03  0.78935459803E+02 0.  0.
        254    2    1    2    0    0  0.18652099679E+03  0.12725157618E+03 -0.75731590119E+03  0.11992322332E+04  0.90202412888E+03 0.  0.
         23    2    4    4    0    0  0.53371674973E+03  0.83967555807E+02 -0.57446250458E+03  0.79423630074E+03  0.94339879593E+02 0.  0.
         23    2    4    4    0    0 -0.34719575295E+03  0.43284020368E+02 -0.18285339661E+03  0.40499593247E+03  0.90376674961E+02 0.  0.
          4    1    3    3  502    0 -0.12110111892E+03 -0.92419396558E+02 -0.81360525202E+02  0.17270310050E+03  0.00000000000E+00 0. -1.
         -3    1    3    3    0  502 -0.65419877870E+02 -0.34832179618E+02 -0.11476898764E+03  0.13661977046E+03  0.00000000000E+00 0.  1.
         11    1    5    5    0    0  0.14468924623E+03 -0.18287504519E+02 -0.14008211325E+03  0.20221871636E+03  0.00000000000E+00 0.  1.
        -11    1    5    5    0    0  0.38902750350E+03  0.10225506033E+03 -0.43438039133E+03  0.59201758438E+03  0.00000000000E+00 0. -1.
          3    1    6    6  503    0 -0.22729548710E+02  0.70617281838E+01 -0.44384901908E+02  0.50363875019E+02  0.00000000000E+00 0. -1.
         -3    1    6    6    0  503 -0.32446620424E+03  0.36222292184E+02 -0.13846849471E+03  0.35463205745E+03  0.00000000000E+00 0.  1.
<mgrwt>
<rscale>  0 0.11690510E+04</rscale>
<asrwt>0</asrwt>
<pdfrwt beam="1">  1        2 0.42700746E-01 0.11690510E+04</pdfrwt>
<pdfrwt beam="2">  1       -1 0.18938465E+00 0.11690510E+04</pdfrwt>
<totfact> 0.24223662E+01</totfact>
</mgrwt>
</event>
<event>
12    6  0.9491186E-008  0.2149505E+04  0.7818608E-02  0.8539744E-01
          2   -1    0    0  501    0  0.00000000000E+00  0.00000000000E+00  0.14243539111E+04  0.14243539111E+04  0.00000000000E+00 0. -1.
         -1   -1    0    0    0  501 -0.00000000000E+00 -0.00000000000E+00 -0.81095907251E+03  0.81095907251E+03  0.00000000000E+00 0.  1.
         24    2    1    2    0    0 -0.29942457671E+03 -0.75036597759E+03  0.62307418062E+03  0.10233826616E+04  0.79915330805E+02 0.  0.
        254    2    1    2    0    0  0.29942457671E+03  0.75036597759E+03 -0.96793420029E+01  0.12119303220E+04  0.90331458435E+03 0.  0.
         23    2    4    4    0    0  0.15085436091E+03 -0.16946859771E+03 -0.11390164353E+03  0.26999054462E+03  0.91894863677E+02 0.  0.
         23    2    4    4    0    0  0.14857021580E+03  0.91983457530E+03  0.10422230153E+03  0.94193977740E+03  0.90661464636E+02 0.  0.
          4    1    3    3  502    0 -0.28105918307E+03 -0.63353885068E+03  0.54463736058E+03  0.88147353576E+03  0.00000000000E+00 0. -1.
         -3    1    3    3    0  502 -0.18365393641E+02 -0.11682712691E+03  0.78436820044E+02  0.14190912587E+03  0.00000000000E+00 0.  1.
         11    1    5    5    0    0  0.11359378659E+03 -0.12771724607E+03 -0.37000362566E+02  0.17488359021E+03  0.00000000000E+00 0. -1.
        -11    1    5    5    0    0  0.37260574323E+02 -0.41751351632E+02 -0.76901280966E+02  0.95106954405E+02  0.00000000000E+00 0.  1.
          3    1    6    6  503    0  0.80246034138E+02  0.48778871889E+03  0.97620054529E+01  0.49444166190E+03  0.00000000000E+00 0. -1.
         -3    1    6    6    0  503  0.68324181665E+02  0.43204585641E+03  0.94460296076E+02  0.44749811550E+03  0.00000000000E+00 0.  1.
<mgrwt>
<rscale>  0 0.21495048E+04</rscale>
<asrwt>0</asrwt>
<pdfrwt beam="1">  1        2 0.21913137E+00 0.21495048E+04</pdfrwt>
<pdfrwt beam="2">  1       -1 0.12476293E+00 0.21495048E+04</pdfrwt>
<totfact> 0.82412333E+00</totfact>
</mgrwt>
</event>
<event>
12    6  0.9491186E-008  0.2212604E+04  0.7818608E-02  0.8513200E-01
         -3   -1    0    0    0  501 -0.00000000000E+00  0.00000000000E+00  0.13490984863E+04  0.13490984863E+04  0.00000000000E+00 0.  1.
          4   -1    0    0  501    0  0.00000000000E+00 -0.00000000000E+00 -0.90720152891E+03  0.90720152891E+03  0.00000000000E+00 0. -1.
         24    2    1    2    0    0 -0.52199604814E+02 -0.79705046230E+03 -0.28711680483E+03  0.85235778243E+03  0.77868423993E+02 0.  0.
        254    2    1    2    0    0  0.52199604814E+02  0.79705046230E+03  0.72901376220E+03  0.14039422328E+04  0.89530915847E+03 0.  0.
         23    2    4    4    0    0  0.23698884339E+03  0.10471224349E+03  0.61319138619E+03  0.67185818047E+03  0.90892093931E+02 0.  0.
         23    2    4    4    0    0 -0.18478923858E+03  0.69233821881E+03  0.11582237601E+03  0.73208405229E+03  0.95147069910E+02 0.  0.
          4    1    3    3  502    0 -0.67407666408E+02 -0.72103138393E+03 -0.24753803719E+03  0.76531374609E+03  0.00000000000E+00 0. -1.
         -3    1    3    3    0  502  0.15208061594E+02 -0.76019078369E+02 -0.39578767641E+02  0.87044036334E+02  0.00000000000E+00 0.  1.
         11    1    5    5    0    0  0.28891105441E+02 -0.11939318643E+02  0.38330773078E+02  0.49462020461E+02  0.00000000000E+00 0.  1.
        -11    1    5    5    0    0  0.20809773795E+03  0.11665156213E+03  0.57486061311E+03  0.62239616001E+03  0.00000000000E+00 0. -1.
          2    1    6    6  503    0 -0.13604190481E+03  0.53347727942E+03  0.12876897266E+03  0.56540857426E+03  0.00000000000E+00 0. -1.
         -2    1    6    6    0  503 -0.48747333766E+02  0.15886093939E+03 -0.12946596645E+02  0.16667547803E+03  0.00000000000E+00 0.  1.
<mgrwt>
<rscale>  0 0.22126041E+04</rscale>
<asrwt>0</asrwt>
<pdfrwt beam="1">  1        4 0.13956947E+00 0.22126041E+04</pdfrwt>
<pdfrwt beam="2">  1       -3 0.20755361E+00 0.22126041E+04</pdfrwt>
<totfact> 0.98666906E-02</totfact>
</mgrwt>
</event>
<event>
12    6  0.9491186E-008  0.1429980E+04  0.7818608E-02  0.8932399E-01
         -1   -1    0    0    0  501 -0.00000000000E+00  0.00000000000E+00  0.18615133512E+03  0.18615133512E+03  0.00000000000E+00 0.  1.
          2   -1    0    0  501    0  0.00000000000E+00 -0.00000000000E+00 -0.27462098936E+04  0.27462098936E+04  0.00000000000E+00 0. -1.
         24    2    1    2    0    0  0.32555699672E+03  0.98439949403E+02 -0.13049888129E+04  0.13508956018E+04  0.79027485556E+02 0.  0.
        254    2    1    2    0    0 -0.32555699672E+03 -0.98439949403E+02 -0.12550697457E+04  0.15814656270E+04  0.90008648533E+03 0.  0.
         23    2    4    4    0    0 -0.22524629285E+03  0.25451836335E+02 -0.13526109081E+04  0.13744893549E+04  0.91000162689E+02 0.  0.
         23    2    4    4    0    0 -0.10031070387E+03 -0.12389178574E+03  0.97541162407E+02  0.20697627210E+03  0.88957781926E+02 0.  0.
          4    1    3    3  502    0  0.26564333064E+03  0.99547776908E+02 -0.97172949509E+03  0.10122916332E+04  0.00000000000E+00 0. -1.
         -3    1    3    3    0  502  0.59913666074E+02 -0.11078275051E+01 -0.33325931777E+03  0.33860396859E+03  0.00000000000E+00 0.  1.
         11    1    5    5    0    0 -0.86143133931E+02  0.27512896537E+02 -0.77983574374E+03  0.78506139010E+03  0.00000000000E+00 0. -1.
        -11    1    5    5    0    0 -0.13910315892E+03 -0.20610602022E+01 -0.57277516433E+03  0.58942796478E+03  0.00000000000E+00 0.  1.
          2    1    6    6  503    0 -0.97093383747E+02 -0.10909666981E+03  0.45789451441E+02  0.15305516128E+03  0.00000000000E+00 0. -1.
         -2    1    6    6    0  503 -0.32173201219E+01 -0.14795115923E+02  0.51751710966E+02  0.53921110818E+02  0.00000000000E+00 0.  1.
<mgrwt>
<rscale>  0 0.14299799E+04</rscale>
<asrwt>0</asrwt>
<pdfrwt beam="1">  1        2 0.42249384E+00 0.14299799E+04</pdfrwt>
<pdfrwt beam="2">  1       -1 0.28638666E-01 0.14299799E+04</pdfrwt>
<totfact> 0.30678905E+01</totfact>
</mgrwt>
</event>
<event>
12    6  0.9491186E-008  0.1860559E+04  0.7818608E-02  0.8674742E-01
          2   -1    0    0  501    0  0.00000000000E+00  0.00000000000E+00  0.54079015591E+03  0.54079015591E+03  0.00000000000E+00 0. -1.
         -1   -1    0    0    0  501 -0.00000000000E+00 -0.00000000000E+00 -0.16002875283E+04  0.16002875283E+04  0.00000000000E+00 0.  1.
         24    2    1    2    0    0 -0.36352626970E+03 -0.47510527324E+03  0.35809390880E+02  0.60434151320E+03  0.77910093542E+02 0.  0.
        254    2    1    2    0    0  0.36352626970E+03  0.47510527324E+03 -0.10953067633E+04  0.15367361710E+04  0.89665198612E+03 0.  0.
         23    2    4    4    0    0 -0.20268180505E+03  0.29796461588E+02 -0.48839465742E+01  0.22658170352E+03  0.96683360580E+02 0.  0.
         23    2    4    4    0    0  0.56620807475E+03  0.44530881165E+03 -0.10904228167E+04  0.13101544675E+04  0.92689200503E+02 0.  0.
          4    1    3    3  502    0 -0.26741219490E+03 -0.39550249886E+03  0.13823894073E+02  0.47762182595E+03  0.00000000000E+00 0. -1.
         -3    1    3    3    0  502 -0.96114074806E+02 -0.79602774384E+02  0.21985496807E+02  0.12671968724E+03  0.00000000000E+00 0.  1.
         11    1    5    5    0    0 -0.16600385326E+03 -0.16373617231E+02  0.45213845461E+01  0.16687066116E+03  0.00000000000E+00 0. -1.
        -11    1    5    5    0    0 -0.36677951790E+02  0.46170078819E+02 -0.94053311203E+01  0.59711042355E+02  0.00000000000E+00 0.  1.
          4    1    6    6  503    0  0.36885785054E+03  0.31414367777E+03 -0.80060272629E+03  0.93579222562E+03  0.00000000000E+00 0. -1.
         -4    1    6    6    0  503  0.19735022421E+03  0.13116513388E+03 -0.28982009041E+03  0.37436224188E+03  0.00000000000E+00 0.  1.
<mgrwt>
<rscale>  0 0.18605588E+04</rscale>
<asrwt>0</asrwt>
<pdfrwt beam="1">  1        2 0.83198487E-01 0.18605588E+04</pdfrwt>
<pdfrwt beam="2">  1       -1 0.24619808E+00 0.18605588E+04</pdfrwt>
<totfact> 0.44508041E+00</totfact>
</mgrwt>
</event>
<event>
12    6  0.1220802E-007  0.2474620E+04  0.7818608E-02  0.8412083E-01
          2   -1    0    0  501    0  0.00000000000E+00  0.00000000000E+00  0.10765292089E+04  0.10765292089E+04  0.00000000000E+00 0. -1.
         -1   -1    0    0    0  501 -0.00000000000E+00 -0.00000000000E+00 -0.14221035819E+04  0.14221035819E+04  0.00000000000E+00 0.  1.
         24    2    1    2    0    0  0.24876744528E+03  0.25495848655E+03 -0.11710873593E+04  0.12268194221E+04  0.82165805983E+02 0.  0.
        254    2    1    2    0    0 -0.24876744528E+03 -0.25495848655E+03  0.82551298625E+03  0.12718133686E+04  0.89952681033E+03 0.  0.
         23    2    4    4    0    0  0.29956366586E+03  0.44452915032E+02  0.40339962363E+03  0.51263329144E+03  0.91362922355E+02 0.  0.
         23    2    4    4    0    0 -0.54833111114E+03 -0.29941140158E+03  0.42211336261E+03  0.75918007721E+03  0.88659482789E+02 0.  0.
          2    1    3    3  502    0  0.12855659779E+02  0.54408486595E+02 -0.17395231783E+03  0.18271551735E+03  0.00000000000E+00 0. -1.
         -1    1    3    3    0  502  0.23591178550E+03  0.20054999996E+03 -0.99713504149E+03  0.10441039048E+04  0.00000000000E+00 0.  1.
         11    1    5    5    0    0  0.34889179856E+02  0.32322254365E+02  0.35932575814E+02  0.59608162217E+02  0.00000000000E+00 0.  1.
        -11    1    5    5    0    0  0.26467448601E+03  0.12130660668E+02  0.36746704782E+03  0.45302512922E+03  0.00000000000E+00 0. -1.
          3    1    6    6  503    0 -0.19502492874E+02 -0.31423418295E+02  0.36422266694E+02  0.51907224514E+02  0.00000000000E+00 0. -1.
         -3    1    6    6    0  503 -0.52882861827E+03 -0.26798798329E+03  0.38569109592E+03  0.70727285269E+03  0.00000000000E+00 0.  1.
<mgrwt>
<rscale>  0 0.24746200E+04</rscale>
<asrwt>0</asrwt>
<pdfrwt beam="1">  1        2 0.16561988E+00 0.24746200E+04</pdfrwt>
<pdfrwt beam="2">  1       -1 0.21878517E+00 0.24746200E+04</pdfrwt>
<totfact> 0.25738693E+00</totfact>
</mgrwt>
</event>
<event>
12    6  0.9491186E-008  0.3033139E+04  0.7818608E-02  0.8234331E-01
         -1   -1    0    0    0  501 -0.00000000000E+00  0.00000000000E+00  0.92962503347E+03  0.92962503347E+03  0.00000000000E+00 0.  1.
          2   -1    0    0  501    0  0.00000000000E+00 -0.00000000000E+00 -0.24740972145E+04  0.24740972145E+04  0.00000000000E+00 0. -1.
         24    2    1    2    0    0 -0.29398239374E+03 -0.29488181494E+03 -0.21807349701E+04  0.22211668176E+04  0.67794463925E+02 0.  0.
        254    2    1    2    0    0  0.29398239374E+03  0.29488181494E+03  0.63626278905E+03  0.11825554303E+04  0.90566333507E+03 0.  0.
         23    2    4    4    0    0  0.43249248976E+03  0.53017831733E+03  0.54937194237E+03  0.88212005673E+03  0.90484592981E+02 0.  0.
         23    2    4    4    0    0 -0.13851009602E+03 -0.23529650239E+03  0.86890846688E+02  0.30043537361E+03  0.90343255106E+02 0.  0.
          4    1    3    3  502    0 -0.29160087521E+03 -0.28764848244E+03 -0.21677952175E+04  0.22061524936E+04  0.00000000000E+00 0. -1.
         -3    1    3    3    0  502 -0.23815185290E+01 -0.72333324973E+01 -0.12939752531E+02  0.15014323997E+02  0.00000000000E+00 0.  1.
         11    1    5    5    0    0  0.34914744726E+03  0.38841295429E+03  0.45400622015E+03  0.69201893827E+03  0.00000000000E+00 0.  1.
        -11    1    5    5    0    0  0.83345042496E+02  0.14176536304E+03  0.95365722215E+02  0.19010111846E+03  0.00000000000E+00 0. -1.
          2    1    6    6  503    0 -0.34359934774E+02 -0.99357701100E+02  0.74273471540E+02  0.12872104125E+03  0.00000000000E+00 0. -1.
         -2    1    6    6    0  503 -0.10415016124E+03 -0.13593880129E+03  0.12617375148E+02  0.17171433236E+03  0.00000000000E+00 0.  1.
<mgrwt>
<rscale>  0 0.30331388E+04</rscale>
<asrwt>0</asrwt>
<pdfrwt beam="1">  1        2 0.38063033E+00 0.30331388E+04</pdfrwt>
<pdfrwt beam="2">  1       -1 0.14301924E+00 0.30331388E+04</pdfrwt>
<totfact> 0.13853068E+00</totfact>
</mgrwt>
</event>
<event>
12    6  0.9491186E-008  0.1777753E+04  0.7818608E-02  0.8718220E-01
          2   -1    0    0  501    0  0.00000000000E+00  0.00000000000E+00  0.80094408040E+03  0.80094408040E+03  0.00000000000E+00 0. -1.
         -1   -1    0    0    0  501 -0.00000000000E+00 -0.00000000000E+00 -0.98646260096E+03  0.98646260096E+03  0.00000000000E+00 0.  1.
         24    2    1    2    0    0 -0.65519871135E+03 -0.60763766873E+02 -0.58724264418E+02  0.66533280748E+03  0.79003916068E+02 0.  0.
        254    2    1    2    0    0  0.65519871135E+03  0.60763766873E+02 -0.12679425614E+03  0.11220738739E+04  0.89999744908E+03 0.  0.
         23    2    4    4    0    0  0.16400966567E+03 -0.39248813159E+03 -0.10176810021E+03  0.44677317262E+03  0.91123090793E+02 0.  0.
         23    2    4    4    0    0  0.49118904567E+03  0.45325189847E+03 -0.25026155933E+02  0.67530070127E+03  0.93277899856E+02 0.  0.
          2    1    3    3  502    0 -0.13003587920E+03  0.18225892416E+02 -0.29260239186E+01  0.13133953955E+03  0.00000000000E+00 0. -1.
         -3    1    3    3    0  502 -0.52516283215E+03 -0.78989659289E+02 -0.55798240500E+02  0.53399326793E+03  0.00000000000E+00 0.  1.
         11    1    5    5    0    0  0.14198258550E+03 -0.36034434696E+03 -0.64099427770E+02  0.39257590299E+03  0.00000000000E+00 0. -1.
        -11    1    5    5    0    0  0.22027080176E+02 -0.32143784635E+02 -0.37668672438E+02  0.54197269627E+02  0.00000000000E+00 0.  1.
          2    1    6    6  503    0  0.19196715961E+03  0.16570054747E+03  0.34979692327E+02  0.25599148555E+03  0.00000000000E+00 0.  1.
         -2    1    6    6    0  503  0.29922188607E+03  0.28755135100E+03 -0.60005848260E+02  0.41930921572E+03  0.00000000000E+00 0. -1.
<mgrwt>
<rscale>  0 0.17777529E+04</rscale>
<asrwt>0</asrwt>
<pdfrwt beam="1">  1        2 0.12322217E+00 0.17777529E+04</pdfrwt>
<pdfrwt beam="2">  1       -1 0.15176348E+00 0.17777529E+04</pdfrwt>
<totfact> 0.12551504E+01</totfact>
</mgrwt>
</event>
<event>
12    6  0.9491186E-008  0.2675768E+04  0.7818608E-02  0.8342910E-01
         -1   -1    0    0    0  501 -0.00000000000E+00  0.00000000000E+00  0.21279056855E+04  0.21279056855E+04  0.00000000000E+00 0.  1.
          2   -1    0    0  501    0  0.00000000000E+00 -0.00000000000E+00 -0.84117160468E+03  0.84117160468E+03  0.00000000000E+00 0. -1.
         24    2    1    2    0    0 -0.55610233604E+03 -0.78000359494E+03 -0.20421985760E+03  0.98261311850E+03  0.78532631095E+02 0.  0.
        254    2    1    2    0    0  0.55610233604E+03  0.78000359494E+03  0.14909539384E+04  0.19864641716E+04  0.89746356055E+03 0.  0.
         23    2    4    4    0    0  0.24006063375E+03  0.88466722497E+02 -0.39960986266E+02  0.27469449564E+03  0.91677241702E+02 0.  0.
         23    2    4    4    0    0  0.31604170229E+03  0.69153687244E+03  0.15309149246E+04  0.17117696760E+04  0.91374578388E+02 0.  0.
          4    1    3    3  502    0 -0.22040014275E+03 -0.35863638368E+03 -0.62702925749E+02  0.42559127755E+03  0.00000000000E+00 0. -1.
         -3    1    3    3    0  502 -0.33570219329E+03 -0.42136721126E+03 -0.14151693186E+03  0.55702184096E+03  0.00000000000E+00 0.  1.
         11    1    5    5    0    0  0.19869522391E+03  0.33855914196E+02 -0.16308105444E+02  0.20221762840E+03  0.00000000000E+00 0.  1.
        -11    1    5    5    0    0  0.41365409841E+02  0.54610808301E+02 -0.23652880822E+02  0.72476867246E+02  0.00000000000E+00 0. -1.
          3    1    6    6  503    0  0.43553943354E+02  0.18666023773E+03  0.35942702158E+03  0.40734110298E+03  0.00000000000E+00 0. -1.
         -3    1    6    6    0  503  0.27248775893E+03  0.50487663471E+03  0.11714879031E+04  0.13044285730E+04  0.00000000000E+00 0.  1.
<mgrwt>
<rscale>  0 0.26757682E+04</rscale>
<asrwt>0</asrwt>
<pdfrwt beam="1">  1        2 0.12941102E+00 0.26757682E+04</pdfrwt>
<pdfrwt beam="2">  1       -1 0.32737010E+00 0.26757682E+04</pdfrwt>
<totfact> 0.70682374E-01</totfact>
</mgrwt>
</event>
<event>
12    6  0.9491186E-008  0.2192814E+04  0.7818608E-02  0.8521425E-01
         -1   -1    0    0    0  501 -0.00000000000E+00  0.00000000000E+00  0.15032826348E+04  0.15032826348E+04  0.00000000000E+00 0.  1.
          2   -1    0    0  501    0  0.00000000000E+00 -0.00000000000E+00 -0.79965529427E+03  0.79965529427E+03  0.00000000000E+00 0. -1.
         24    2    1    2    0    0  0.41220684219E+03  0.46793635768E+03 -0.40373135096E+03  0.74721996262E+03  0.80372589877E+02 0.  0.
        254    2    1    2    0    0 -0.41220684219E+03 -0.46793635768E+03  0.11073586915E+04  0.15557179664E+04  0.89729382254E+03 0.  0.
         23    2    4    4    0    0 -0.24281755455E+03 -0.50310176441E+03  0.15977276686E+03  0.58810661270E+03  0.90941193790E+02 0.  0.
         23    2    4    4    0    0 -0.16938928764E+03  0.35165406734E+02  0.94758592462E+03  0.96761135375E+03  0.91778596441E+02 0.  0.
          4    1    3    3  502    0  0.32471344291E+03  0.41230833719E+03 -0.34497439053E+03  0.62804801969E+03  0.00000000000E+00 0. -1.
         -3    1    3    3    0  502  0.87493399283E+02  0.55628020491E+02 -0.58756960423E+02  0.11917194292E+03  0.00000000000E+00 0.  1.
         11    1    5    5    0    0 -0.27590457663E+02 -0.14151269404E+03  0.25560939668E+02  0.14642553590E+03  0.00000000000E+00 0. -1.
        -11    1    5    5    0    0 -0.21522709689E+03 -0.36158907037E+03  0.13421182719E+03  0.44168107680E+03  0.00000000000E+00 0.  1.
          1    1    6    6  503    0 -0.80115864640E+02 -0.13385373433E+02  0.25539506273E+03  0.26800066802E+03  0.00000000000E+00 0. -1.
         -1    1    6    6    0  503 -0.89273423004E+02  0.48550780168E+02  0.69219086189E+03  0.69961068573E+03  0.00000000000E+00 0.  1.
<mgrwt>
<rscale>  0 0.21928136E+04</rscale>
<asrwt>0</asrwt>
<pdfrwt beam="1">  1        2 0.12302389E+00 0.21928136E+04</pdfrwt>
<pdfrwt beam="2">  1       -1 0.23127425E+00 0.21928136E+04</pdfrwt>
<totfact> 0.33291727E+00</totfact>
</mgrwt>
</event>
<event>
12    6  0.9491186E-008  0.1662635E+04  0.7818608E-02  0.8782967E-01
          2   -1    0    0  501    0  0.00000000000E+00  0.00000000000E+00  0.16751024386E+04  0.16751024386E+04  0.00000000000E+00 0. -1.
         -1   -1    0    0    0  501 -0.00000000000E+00 -0.00000000000E+00 -0.41256493872E+03  0.41256493872E+03  0.00000000000E+00 0.  1.
         24    2    1    2    0    0  0.27640282720E+03  0.28719779329E+03  0.97512084677E+03  0.10564429267E+04  0.79560644721E+02 0.  0.
        254    2    1    2    0    0 -0.27640282720E+03 -0.28719779329E+03  0.28741665307E+03  0.10312244506E+04  0.90660600026E+03 0.  0.
         23    2    4    4    0    0 -0.59001443290E+03 -0.18845899515E+03  0.29103901994E+03  0.69041673448E+03  0.91311183609E+02 0.  0.
         23    2    4    4    0    0  0.31361160570E+03 -0.98738798141E+02 -0.36223668661E+01  0.34080771612E+03  0.89639212045E+02 0.  0.
          4    1    3    3  502    0  0.24100926717E+03  0.27368667721E+03  0.83239441725E+03  0.90877408085E+03  0.00000000000E+00 0. -1.
         -1    1    3    3    0  502  0.35393560026E+02  0.13511116079E+02  0.14272642952E+03  0.14766884584E+03  0.00000000000E+00 0.  1.
         11    1    5    5    0    0 -0.27823035102E+03 -0.11343215383E+03  0.18405991506E+03  0.35235924010E+03  0.00000000000E+00 0. -1.
        -11    1    5    5    0    0 -0.31178408188E+03 -0.75026841319E+02  0.10697910488E+03  0.33805749439E+03  0.00000000000E+00 0.  1.
          1    1    6    6  503    0  0.29032850663E+03 -0.11331497367E+03 -0.12587291687E+02  0.31191243151E+03  0.00000000000E+00 0. -1.
         -1    1    6    6    0  503  0.23283099067E+02  0.14576175530E+02  0.89649248209E+01  0.28895284603E+02  0.00000000000E+00 0.  1.
<mgrwt>
<rscale>  0 0.16626347E+04</rscale>
<asrwt>0</asrwt>
<pdfrwt beam="1">  1        2 0.25770806E+00 0.16626347E+04</pdfrwt>
<pdfrwt beam="2">  1       -1 0.63471530E-01 0.16626347E+04</pdfrwt>
<totfact> 0.27711203E+01</totfact>
</mgrwt>
</event>
<event>
12    6  0.9491186E-008  0.1261648E+04  0.7818608E-02  0.9060544E-01
         -1   -1    0    0    0  501 -0.00000000000E+00  0.00000000000E+00  0.39383490323E+03  0.39383490323E+03  0.00000000000E+00 0.  1.
          2   -1    0    0  501    0  0.00000000000E+00 -0.00000000000E+00 -0.10104211383E+04  0.10104211383E+04  0.00000000000E+00 0. -1.
         24    2    1    2    0    0 -0.20973441145E+02  0.59303068809E+02 -0.48178263422E+03  0.49187927645E+03  0.76641873441E+02 0.  0.
        254    2    1    2    0    0  0.20973441145E+02 -0.59303068809E+02 -0.13480360087E+03  0.91237676510E+03  0.90016810179E+03 0.  0.
         23    2    4    4    0    0  0.44180664085E+03 -0.96317029095E+02 -0.41831605521E+01  0.46084719603E+03  0.88840088159E+02 0.  0.
         23    2    4    4    0    0 -0.42083319970E+03  0.37013960286E+02 -0.13062044032E+03  0.45152956907E+03  0.91359931539E+02 0.  0.
          2    1    3    3  502    0  0.22665083924E+02  0.65503330761E+01 -0.22114334650E+03  0.22239827471E+03  0.00000000000E+00 0. -1.
         -1    1    3    3    0  502 -0.43638525069E+02  0.52752735733E+02 -0.26063928772E+03  0.26948100175E+03  0.00000000000E+00 0.  1.
         11    1    5    5    0    0  0.61416292343E+02  0.72387433168E+01  0.22263552252E+02  0.65726905669E+02  0.00000000000E+00 0.  1.
        -11    1    5    5    0    0  0.38039034851E+03 -0.10355577241E+03 -0.26446712804E+02  0.39512029036E+03  0.00000000000E+00 0. -1.
          2    1    6    6  503    0 -0.17962420511E+03  0.53621795535E+02 -0.30874785892E+02  0.18998264242E+03  0.00000000000E+00 0. -1.
         -2    1    6    6    0  503 -0.24120899460E+03 -0.16607835249E+02 -0.99745654424E+02  0.26154692665E+03  0.00000000000E+00 0.  1.
<mgrwt>
<rscale>  0 0.12616483E+04</rscale>
<asrwt>0</asrwt>
<pdfrwt beam="1">  1        2 0.15544941E+00 0.12616483E+04</pdfrwt>
<pdfrwt beam="2">  1       -1 0.60589985E-01 0.12616483E+04</pdfrwt>
<totfact> 0.76809573E+01</totfact>
</mgrwt>
</event>
<event>
12    6  0.9491186E-008  0.1614373E+04  0.7818608E-02  0.8811766E-01
          2   -1    0    0  501    0  0.00000000000E+00  0.00000000000E+00  0.13826169602E+04  0.13826169602E+04  0.00000000000E+00 0. -1.
         -1   -1    0    0    0  501 -0.00000000000E+00 -0.00000000000E+00 -0.47124422156E+03  0.47124422156E+03  0.00000000000E+00 0.  1.
         24    2    1    2    0    0  0.54984192812E+03  0.65121881774E+02  0.25991509376E+03  0.61682504183E+03  0.79688586773E+02 0.  0.
        254    2    1    2    0    0 -0.54984192812E+03 -0.65121881774E+02  0.65145764488E+03  0.12370361399E+04  0.89403262972E+03 0.  0.
         23    2    4    4    0    0 -0.35109446344E+03 -0.93711756273E+02  0.85656680157E+03  0.93469078242E+03  0.88831062428E+02 0.  0.
         23    2    4    4    0    0 -0.19874746467E+03  0.28589874499E+02 -0.20510915670E+03  0.30234535751E+03  0.95000070564E+02 0.  0.
          4    1    3    3  502    0  0.44211128759E+03  0.21409993465E+02  0.21629669854E+03  0.49265103291E+03  0.00000000000E+00 0. -1.
         -3    1    3    3    0  502  0.10773064053E+03  0.43711888309E+02  0.43618395226E+02  0.12417400892E+03  0.00000000000E+00 0.  1.
         11    1    5    5    0    0 -0.29005773644E+03 -0.76722576025E+02  0.77742653062E+03  0.83331377922E+03  0.00000000000E+00 0.  1.
        -11    1    5    5    0    0 -0.61036727004E+02 -0.16989180249E+02  0.79140270956E+02  0.10137700319E+03  0.00000000000E+00 0. -1.
          4    1    6    6  503    0 -0.19054225517E+03  0.34951729778E+02 -0.21401241315E+03  0.28866812675E+03  0.00000000000E+00 0.  1.
         -4    1    6    6    0  503 -0.82052095011E+01 -0.63618552796E+01  0.89032564552E+01  0.13677230753E+02  0.00000000000E+00 0. -1.
<mgrwt>
<rscale>  0 0.16143733E+04</rscale>
<asrwt>0</asrwt>
<pdfrwt beam="1">  1        2 0.21271030E+00 0.16143733E+04</pdfrwt>
<pdfrwt beam="2">  1       -1 0.72499112E-01 0.16143733E+04</pdfrwt>
<totfact> 0.31021470E+01</totfact>
</mgrwt>
</event>
<event>
12    6  0.9491186E-008  0.1533592E+04  0.7818608E-02  0.8862417E-01
          2   -1    0    0  501    0  0.00000000000E+00  0.00000000000E+00  0.27212326113E+04  0.27212326113E+04  0.00000000000E+00 0. -1.
         -1   -1    0    0    0  501 -0.00000000000E+00 -0.00000000000E+00 -0.21606984954E+03  0.21606984954E+03  0.00000000000E+00 0.  1.
         24    2    1    2    0    0 -0.15896626357E+03 -0.21063568662E+03  0.16292463752E+04  0.16523942314E+04  0.79531626192E+02 0.  0.
        254    2    1    2    0    0  0.15896626357E+03  0.21063568662E+03  0.87591638663E+03  0.12849082295E+04  0.90228708090E+03 0.  0.
         23    2    4    4    0    0  0.13204184114E+03  0.37763998278E+03  0.98318233612E+03  0.10652609660E+04  0.89924496799E+02 0.  0.
         23    2    4    4    0    0  0.26924422426E+02 -0.16700429616E+03 -0.10726594949E+03  0.21964726351E+03  0.90130888111E+02 0.  0.
          4    1    3    3  502    0 -0.14258244444E+03 -0.13140892468E+03  0.12053085292E+04  0.12208057624E+04  0.00000000000E+00 0. -1.
         -3    1    3    3    0  502 -0.16383819129E+02 -0.79226761943E+02  0.42393784595E+03  0.43158846899E+03  0.00000000000E+00 0.  1.
         11    1    5    5    0    0  0.14267509797E+03  0.36577036991E+03  0.95947967351E+03  0.10366992770E+04  0.00000000000E+00 0.  1.
        -11    1    5    5    0    0 -0.10633256825E+02  0.11869612863E+02  0.23702662611E+02  0.28561688940E+02  0.00000000000E+00 0. -1.
          2    1    6    6  503    0  0.56879582497E+02 -0.81809896136E+02 -0.41530159027E+02  0.10794859943E+03  0.00000000000E+00 0.  1.
         -2    1    6    6    0  503 -0.29955160071E+02 -0.85194400022E+02 -0.65735790462E+02  0.11169866408E+03  0.00000000000E+00 0. -1.
<mgrwt>
<rscale>  0 0.15335923E+04</rscale>
<asrwt>0</asrwt>
<pdfrwt beam="1">  1        2 0.41865115E+00 0.15335923E+04</pdfrwt>
<pdfrwt beam="2">  1       -1 0.33241517E-01 0.15335923E+04</pdfrwt>
<totfact> 0.24187372E+01</totfact>
</mgrwt>
</event>
<event>
12    6  0.9491186E-008  0.2181207E+04  0.7818608E-02  0.8526291E-01
         -1   -1    0    0    0  501 -0.00000000000E+00  0.00000000000E+00  0.50179929275E+03  0.50179929275E+03  0.00000000000E+00 0.  1.
          2   -1    0    0  501    0  0.00000000000E+00 -0.00000000000E+00 -0.23703026092E+04  0.23703026092E+04  0.00000000000E+00 0. -1.
         24    2    1    2    0    0 -0.84302359379E+03 -0.20613208519E+03 -0.45750239408E+03  0.98452191005E+03  0.82436245336E+02 0.  0.
        254    2    1    2    0    0  0.84302359379E+03  0.20613208519E+03 -0.14110009223E+04  0.18875799919E+04  0.90490629715E+03 0.  0.
         23    2    4    4    0    0  0.21730980302E+03 -0.32497033404E+02  0.80186929103E+02  0.25039371522E+03  0.89372598440E+02 0.  0.
         23    2    4    4    0    0  0.62571379076E+03  0.23862911859E+03 -0.14911878514E+04  0.16371862766E+04  0.90973028763E+02 0.  0.
          4    1    3    3  502    0 -0.65608660337E+03 -0.15916508221E+03 -0.39350801443E+03  0.78142927507E+03  0.00000000000E+00 0. -1.
         -1    1    3    3    0  502 -0.18693699042E+03 -0.46967002981E+02 -0.63994379659E+02  0.20309263498E+03  0.00000000000E+00 0.  1.
         11    1    5    5    0    0  0.24525673898E+02 -0.16223589061E+02 -0.16914640037E+02  0.33923716921E+02  0.00000000000E+00 0.  1.
        -11    1    5    5    0    0  0.19278412912E+03 -0.16273444343E+02  0.97101569140E+02  0.21646999830E+03  0.00000000000E+00 0. -1.
          2    1    6    6  503    0  0.44233880447E+03  0.12332146696E+03 -0.10141586467E+04  0.11132787444E+04  0.00000000000E+00 0. -1.
         -2    1    6    6    0  503  0.18337498630E+03  0.11530765163E+03 -0.47702920476E+03  0.52390753222E+03  0.00000000000E+00 0.  1.
<mgrwt>
<rscale>  0 0.21812072E+04</rscale>
<asrwt>0</asrwt>
<pdfrwt beam="1">  1        2 0.36466193E+00 0.21812072E+04</pdfrwt>
<pdfrwt beam="2">  1       -1 0.77199892E-01 0.21812072E+04</pdfrwt>
<totfact> 0.72464429E+00</totfact>
</mgrwt>
</event>
<event>
12    6  0.9491186E-008  0.1705445E+04  0.7818608E-02  0.8758265E-01
          2   -1    0    0  501    0  0.00000000000E+00  0.00000000000E+00  0.20326959372E+04  0.20326959372E+04  0.00000000000E+00 0. -1.
         -1   -1    0    0    0  501 -0.00000000000E+00 -0.00000000000E+00 -0.35771982485E+03  0.35771982485E+03  0.00000000000E+00 0.  1.
         24    2    1    2    0    0 -0.55304219089E+03 -0.25237286695E+03  0.65724477657E+03  0.89886080737E+03  0.80201781948E+02 0.  0.
        254    2    1    2    0    0  0.55304219089E+03  0.25237286695E+03  0.10177313358E+04  0.14915549547E+04  0.90521344563E+03 0.  0.
         23    2    4    4    0    0  0.32409674850E+03 -0.20955648608E+03  0.64170796340E+02  0.40346106166E+03  0.98540925152E+02 0.  0.
         23    2    4    4    0    0  0.22894544239E+03  0.46192935303E+03  0.95356053946E+03  0.10880938930E+04  0.94211861626E+02 0.  0.
          4    1    3    3  502    0 -0.47301715807E+03 -0.18979506046E+03  0.52018761503E+03  0.72825994785E+03  0.00000000000E+00 0. -1.
         -3    1    3    3    0  502 -0.80025032819E+02 -0.62577806486E+02  0.13705716154E+03  0.17060085953E+03  0.00000000000E+00 0.  1.
         11    1    5    5    0    0  0.13394595103E+03 -0.13988311051E+03  0.52253810629E+02  0.20059726600E+03  0.00000000000E+00 0. -1.
        -11    1    5    5    0    0  0.19015079747E+03 -0.69673375574E+02  0.11916985711E+02  0.20286379566E+03  0.00000000000E+00 0.  1.
          2    1    6    6  503    0  0.22431337524E+03  0.37619175516E+03  0.78488831209E+03  0.89882500489E+03  0.00000000000E+00 0. -1.
         -2    1    6    6    0  503  0.46320671492E+01  0.85737597866E+02  0.16867222738E+03  0.18926888815E+03  0.00000000000E+00 0.  1.
<mgrwt>
<rscale>  0 0.17054450E+04</rscale>
<asrwt>0</asrwt>
<pdfrwt beam="1">  1        2 0.31272245E+00 0.17054450E+04</pdfrwt>
<pdfrwt beam="2">  1       -1 0.55033820E-01 0.17054450E+04</pdfrwt>
<totfact> 0.23164414E+01</totfact>
</mgrwt>
</event>
<event>
12    6  0.9491186E-008  0.1687320E+04  0.7818608E-02  0.8768629E-01
          2   -1    0    0  501    0  0.00000000000E+00  0.00000000000E+00  0.11440841577E+04  0.11440841577E+04  0.00000000000E+00 0. -1.
         -1   -1    0    0    0  501 -0.00000000000E+00 -0.00000000000E+00 -0.62212407990E+03  0.62212407990E+03  0.00000000000E+00 0.  1.
         24    2    1    2    0    0  0.17778012467E+03  0.22334755774E+02  0.78648127870E+03  0.81044468083E+03  0.78505827123E+02 0.  0.
        254    2    1    2    0    0 -0.17778012467E+03 -0.22334755774E+02 -0.26452120093E+03  0.95576355674E+03  0.90078182519E+03 0.  0.
         23    2    4    4    0    0  0.20996719555E+03 -0.33893658849E+03 -0.10445124275E+03  0.42209394021E+03  0.91043934560E+02 0.  0.
         23    2    4    4    0    0 -0.38774732022E+03  0.31660183272E+03 -0.16006995818E+03  0.53366961653E+03  0.92715496419E+02 0.  0.
          2    1    3    3  502    0  0.16434314644E+03  0.94817918972E-01  0.73003973809E+03  0.74830922616E+03  0.00000000000E+00 0. -1.
         -1    1    3    3    0  502  0.13436978229E+02  0.22239937855E+02  0.56441540614E+02  0.62135454667E+02  0.00000000000E+00 0.  1.
         11    1    5    5    0    0  0.37499105944E+02 -0.86019436455E+02 -0.63355785550E+02  0.11322315115E+03  0.00000000000E+00 0. -1.
        -11    1    5    5    0    0  0.17246808960E+03 -0.25291715204E+03 -0.41095457203E+02  0.30887078905E+03  0.00000000000E+00 0.  1.
          2    1    6    6  503    0 -0.31660724145E+03  0.26396080963E+03 -0.92847725898E+02  0.42253538853E+03  0.00000000000E+00 0.  1.
         -2    1    6    6    0  503 -0.71140078772E+02  0.52641023087E+02 -0.67222232281E+02  0.11113422800E+03  0.00000000000E+00 0. -1.
<mgrwt>
<rscale>  0 0.16873201E+04</rscale>
<asrwt>0</asrwt>
<pdfrwt beam="1">  1        2 0.17601295E+00 0.16873201E+04</pdfrwt>
<pdfrwt beam="2">  1       -1 0.95711397E-01 0.16873201E+04</pdfrwt>
<totfact> 0.23417458E+01</totfact>
</mgrwt>
</event>
<event>
12    6  0.9491186E-008  0.1231786E+04  0.7818608E-02  0.9085481E-01
         -1   -1    0    0    0  501 -0.00000000000E+00  0.00000000000E+00  0.89144954330E+02  0.89144954330E+02  0.00000000000E+00 0.  1.
          2   -1    0    0  501    0  0.00000000000E+00 -0.00000000000E+00 -0.42551383388E+04  0.42551383388E+04  0.00000000000E+00 0. -1.
         24    2    1    2    0    0 -0.25362447909E+03  0.62701209316E+01 -0.12379331212E+04  0.12663948169E+04  0.83142821799E+02 0.  0.
        254    2    1    2    0    0  0.25362447909E+03 -0.62701209316E+01 -0.29280602633E+04  0.30778884763E+04  0.91405463521E+03 0.  0.
         23    2    4    4    0    0  0.53598007679E+03 -0.14366008801E+02 -0.24797001204E+04  0.25387914031E+04  0.95226447515E+02 0.  0.
         23    2    4    4    0    0 -0.28235559770E+03  0.80958878698E+01 -0.44836014287E+03  0.53909707319E+03  0.99038425117E+02 0.  0.
          4    1    3    3  502    0 -0.34582164119E+02  0.34453685366E-01 -0.35479892098E+03  0.35648029622E+03  0.00000000000E+00 0. -1.
         -3    1    3    3    0  502 -0.21904231498E+03  0.62356672463E+01 -0.88313420023E+03  0.90991452066E+03  0.00000000000E+00 0.  1.
         11    1    5    5    0    0  0.14093510788E+03  0.37987339802E+02 -0.68648009689E+03  0.70182666382E+03  0.00000000000E+00 0.  1.
        -11    1    5    5    0    0  0.39504496891E+03 -0.52353348603E+02 -0.17932200235E+04  0.18369647393E+04  0.00000000000E+00 0. -1.
          1    1    6    6  503    0 -0.19956837617E+03  0.43430009865E+02 -0.35397972813E+03  0.40867511601E+03  0.00000000000E+00 0. -1.
         -1    1    6    6    0  503 -0.82787221524E+02 -0.35334121995E+02 -0.94380414750E+02  0.13042195717E+03  0.00000000000E+00 0.  1.
<mgrwt>
<rscale>  0 0.12317859E+04</rscale>
<asrwt>0</asrwt>
<pdfrwt beam="1">  1        2 0.65463667E+00 0.12317859E+04</pdfrwt>
<pdfrwt beam="2">  1       -1 0.13714608E-01 0.12317859E+04</pdfrwt>
<totfact> 0.92970380E+00</totfact>
</mgrwt>
</event>
<event>
12    6  0.9491186E-008  0.1575895E+04  0.7818608E-02  0.8835495E-01
          2   -1    0    0  501    0  0.00000000000E+00  0.00000000000E+00  0.11727010727E+04  0.11727010727E+04  0.00000000000E+00 0. -1.
         -1   -1    0    0    0  501 -0.00000000000E+00 -0.00000000000E+00 -0.52942852846E+03  0.52942852846E+03  0.00000000000E+00 0.  1.
         24    2    1    2    0    0 -0.19785714144E+03  0.49427714439E+03  0.34379226589E+03  0.63919022928E+03  0.83148561204E+02 0.  0.
        254    2    1    2    0    0  0.19785714144E+03 -0.49427714439E+03  0.29948027831E+03  0.10629393718E+04  0.86988178922E+03 0.  0.
         23    2    4    4    0    0  0.10927041043E+03 -0.67224747964E+03 -0.62436389612E+01  0.68727667474E+03  0.91943178811E+02 0.  0.
         23    2    4    4    0    0  0.88586731008E+02  0.17797033525E+03  0.30572391727E+03  0.37566269710E+03  0.90190350141E+02 0.  0.
          2    1    3    3  502    0 -0.13637336231E+03  0.39598312249E+03  0.30037152782E+03  0.51538663348E+03  0.00000000000E+00 0. -1.
         -1    1    3    3    0  502 -0.61483779130E+02  0.98294021899E+02  0.43420738070E+02  0.12380359579E+03  0.00000000000E+00 0.  1.
         11    1    5    5    0    0 -0.11034369133E+01 -0.32005901534E+01  0.83704415598E+01  0.90291551243E+01  0.00000000000E+00 0.  1.
        -11    1    5    5    0    0  0.11037384734E+03 -0.66904688949E+03 -0.14614080521E+02  0.67824751961E+03  0.00000000000E+00 0. -1.
          2    1    6    6  503    0  0.63349472508E+02  0.13915412768E+03  0.15390883253E+03  0.21694459119E+03  0.00000000000E+00 0. -1.
         -2    1    6    6    0  503  0.25237258500E+02  0.38816207575E+02  0.15181508474E+03  0.15871810591E+03  0.00000000000E+00 0.  1.
<mgrwt>
<rscale>  0 0.15758952E+04</rscale>
<asrwt>0</asrwt>
<pdfrwt beam="1">  1        2 0.18041555E+00 0.15758952E+04</pdfrwt>
<pdfrwt beam="2">  1       -1 0.81450543E-01 0.15758952E+04</pdfrwt>
<totfact> 0.32351238E+01</totfact>
</mgrwt>
</event>
<event>
12    6  0.9491186E-008  0.2115919E+04  0.7818608E-02  0.8554263E-01
         -1   -1    0    0    0  501 -0.00000000000E+00  0.00000000000E+00  0.49022146985E+03  0.49022146985E+03  0.00000000000E+00 0.  1.
          2   -1    0    0  501    0  0.00000000000E+00 -0.00000000000E+00 -0.22832090492E+04  0.22832090492E+04  0.00000000000E+00 0. -1.
         24    2    1    2    0    0 -0.21940856533E+03 -0.13132092142E+03 -0.18192892453E+04  0.18389401394E+04  0.80636064781E+02 0.  0.
        254    2    1    2    0    0  0.21940856533E+03  0.13132092142E+03  0.26301666014E+02  0.93449037967E+03  0.89844042046E+03 0.  0.
         23    2    4    4    0    0  0.28313643350E+03  0.70758288484E+01 -0.38718461173E+03  0.48860957585E+03  0.92795941322E+02 0.  0.
         23    2    4    4    0    0 -0.63727868162E+02  0.12424509257E+03  0.41348627774E+03  0.44588080382E+03  0.91327460994E+02 0.  0.
          4    1    3    3  502    0 -0.19457517280E+03 -0.14180302884E+03 -0.16642053910E+04  0.16815312012E+04  0.00000000000E+00 0. -1.
         -3    1    3    3    0  502 -0.24833392534E+02  0.10482107424E+02 -0.15508385430E+03  0.15740893820E+03  0.00000000000E+00 0.  1.
         11    1    5    5    0    0  0.13315835843E+03  0.84704943397E-01 -0.10735121128E+03  0.17104221162E+03  0.00000000000E+00 0.  1.
        -11    1    5    5    0    0  0.14997807507E+03  0.69911239050E+01 -0.27983340045E+03  0.31756736422E+03  0.00000000000E+00 0. -1.
          1    1    6    6  503    0 -0.32282651732E+02  0.55984239254E+02  0.31730187729E+03  0.32381612989E+03  0.00000000000E+00 0. -1.
         -1    1    6    6    0  503 -0.31445216430E+02  0.68260853317E+02  0.96184400450E+02  0.12206467393E+03  0.00000000000E+00 0.  1.
<mgrwt>
<rscale>  0 0.21159188E+04</rscale>
<asrwt>0</asrwt>
<pdfrwt beam="1">  1        2 0.35126292E+00 0.21159188E+04</pdfrwt>
<pdfrwt beam="2">  1       -1 0.75418689E-01 0.21159188E+04</pdfrwt>
<totfact> 0.85786817E+00</totfact>
</mgrwt>
</event>
<event>
12    6  0.9491186E-008  0.2164236E+04  0.7818608E-02  0.8533463E-01
         -1   -1    0    0    0  501 -0.00000000000E+00  0.00000000000E+00  0.11597642979E+04  0.11597642979E+04  0.00000000000E+00 0.  1.
          2   -1    0    0  501    0  0.00000000000E+00 -0.00000000000E+00 -0.10096704983E+04  0.10096704983E+04  0.00000000000E+00 0. -1.
         24    2    1    2    0    0 -0.44939335963E+03  0.63911208211E+03  0.49847223742E+03  0.93113324137E+03  0.90088270828E+02 0.  0.
        254    2    1    2    0    0  0.44939335963E+03 -0.63911208211E+03 -0.34837843784E+03  0.12383015549E+04  0.89532371780E+03 0.  0.
         23    2    4    4    0    0 -0.72561164799E+02 -0.60924920852E+03 -0.34185972055E+03  0.70827897004E+03  0.91330773280E+02 0.  0.
         23    2    4    4    0    0  0.52195452443E+03 -0.29862873586E+02 -0.65187172835E+01  0.53002258482E+03  0.86908744969E+02 0.  0.
          4    1    3    3  502    0 -0.17849825698E+03  0.19696916758E+03  0.13700163716E+03  0.29904502890E+03  0.00000000000E+00 0. -1.
         -3    1    3    3    0  502 -0.27089510266E+03  0.44214291452E+03  0.36147060026E+03  0.63208821248E+03  0.00000000000E+00 0.  1.
         11    1    5    5    0    0 -0.56064259803E+02 -0.56669836215E+03 -0.28951787214E+03  0.63883552905E+03  0.00000000000E+00 0.  1.
        -11    1    5    5    0    0 -0.16496904997E+02 -0.42550846373E+02 -0.52341848415E+02  0.69443440993E+02  0.00000000000E+00 0. -1.
          3    1    6    6  503    0  0.17056990984E+03  0.26919244949E+02 -0.19928453587E+02  0.17382716460E+03  0.00000000000E+00 0. -1.
         -3    1    6    6    0  503  0.35138461459E+03 -0.56782118534E+02  0.13409736303E+02  0.35619542022E+03  0.00000000000E+00 0.  1.
<mgrwt>
<rscale>  0 0.21642364E+04</rscale>
<asrwt>0</asrwt>
<pdfrwt beam="1">  1        2 0.15533392E+00 0.21642364E+04</pdfrwt>
<pdfrwt beam="2">  1       -1 0.17842528E+00 0.21642364E+04</pdfrwt>
<totfact> 0.55457297E+00</totfact>
</mgrwt>
</event>
<event>
12    6  0.9491186E-008  0.3972191E+04  0.7818608E-02  0.8010180E-01
          2   -1    0    0  501    0  0.00000000000E+00  0.00000000000E+00  0.18434106967E+04  0.18434106967E+04  0.00000000000E+00 0. -1.
         -1   -1    0    0    0  501 -0.00000000000E+00 -0.00000000000E+00 -0.21398244227E+04  0.21398244227E+04  0.00000000000E+00 0.  1.
         24    2    1    2    0    0 -0.72636661758E+02 -0.17067388381E+04 -0.93438549451E+03  0.19487400271E+04  0.79233167762E+02 0.  0.
        254    2    1    2    0    0  0.72636661758E+02  0.17067388381E+04  0.63797176853E+03  0.20344950923E+04  0.90218000254E+03 0.  0.
         23    2    4    4    0    0  0.32522910853E+03  0.47253580720E+03  0.49535345910E+03  0.76338198405E+03  0.91175336636E+02 0.  0.
         23    2    4    4    0    0 -0.25259244678E+03  0.12342030309E+04  0.14261830944E+03  0.12711131082E+04  0.91260539656E+02 0.  0.
          4    1    3    3  502    0 -0.29430488137E+02 -0.26995820326E+03 -0.17483339054E+03  0.32297105070E+03  0.00000000000E+00 0. -1.
         -3    1    3    3    0  502 -0.43206173621E+02 -0.14367806348E+04 -0.75955210397E+03  0.16257689764E+04  0.00000000000E+00 0.  1.
         11    1    5    5    0    0  0.19717144928E+03  0.31040542803E+03  0.37034064617E+03  0.52190066523E+03  0.00000000000E+00 0.  1.
        -11    1    5    5    0    0  0.12805765926E+03  0.16213037917E+03  0.12501281293E+03  0.24148131882E+03  0.00000000000E+00 0. -1.
          2    1    6    6  503    0 -0.32113666631E+02  0.14749790893E+03  0.47241837452E+02  0.15817304425E+03  0.00000000000E+00 0. -1.
         -2    1    6    6    0  503 -0.22047878015E+03  0.10867051219E+04  0.95376471983E+02  0.11129400640E+04  0.00000000000E+00 0.  1.
<mgrwt>
<rscale>  0 0.39721909E+04</rscale>
<asrwt>0</asrwt>
<pdfrwt beam="1">  1        2 0.28360164E+00 0.39721909E+04</pdfrwt>
<pdfrwt beam="2">  1       -1 0.32920376E+00 0.39721909E+04</pdfrwt>
<totfact> 0.15647034E-01</totfact>
</mgrwt>
</event>
<event>
12    6  0.9491186E-008  0.1207310E+04  0.7818608E-02  0.9106482E-01
          2   -1    0    0  501    0  0.00000000000E+00  0.00000000000E+00  0.39033547202E+03  0.39033547202E+03  0.00000000000E+00 0. -1.
         -1   -1    0    0    0  501 -0.00000000000E+00 -0.00000000000E+00 -0.93355433314E+03  0.93355433314E+03  0.00000000000E+00 0.  1.
         24    2    1    2    0    0 -0.23025785675E+03  0.21304301910E+02 -0.40909088189E+01  0.24508255147E+03  0.81093573268E+02 0.  0.
        254    2    1    2    0    0  0.23025785675E+03 -0.21304301910E+02 -0.53912795230E+03  0.10788072537E+04  0.90536931015E+03 0.  0.
         23    2    4    4    0    0 -0.26797449720E+01 -0.32760150278E+03  0.75823002736E+02  0.34792744066E+03  0.89299779195E+02 0.  0.
         23    2    4    4    0    0  0.23293760172E+03  0.30629720087E+03 -0.61495095504E+03  0.73087981302E+03  0.89121952494E+02 0.  0.
          4    1    3    3  502    0 -0.22540049574E+03  0.93669416193E+01 -0.17763535704E+02  0.22629331911E+03  0.00000000000E+00 0. -1.
         -3    1    3    3    0  502 -0.48573610140E+01  0.11937360291E+02  0.13672626885E+02  0.18789232360E+02  0.00000000000E+00 0.  1.
         11    1    5    5    0    0  0.37687229666E+01 -0.53101861099E+02  0.48465624750E+02  0.71992553138E+02  0.00000000000E+00 0.  1.
        -11    1    5    5    0    0 -0.64484679386E+01 -0.27449964168E+03  0.27357377986E+02  0.27593488753E+03  0.00000000000E+00 0. -1.
          4    1    6    6  503    0  0.13718821328E+03  0.21753066469E+03 -0.33820107974E+03  0.42487664831E+03  0.00000000000E+00 0. -1.
         -4    1    6    6    0  503  0.95749388441E+02  0.88766536185E+02 -0.27674987530E+03  0.30600316471E+03  0.00000000000E+00 0.  1.
<mgrwt>
<rscale>  0 0.12073100E+04</rscale>
<asrwt>0</asrwt>
<pdfrwt beam="1">  1        2 0.60051611E-01 0.12073100E+04</pdfrwt>
<pdfrwt beam="2">  1       -1 0.14362374E+00 0.12073100E+04</pdfrwt>
<totfact> 0.36169158E+01</totfact>
</mgrwt>
</event>
<event>
12    6  0.9491186E-008  0.1263909E+04  0.7818608E-02  0.9058686E-01
          2   -1    0    0  501    0  0.00000000000E+00  0.00000000000E+00  0.12777540372E+04  0.12777540372E+04  0.00000000000E+00 0. -1.
         -1   -1    0    0    0  501 -0.00000000000E+00 -0.00000000000E+00 -0.31255349625E+03  0.31255349625E+03  0.00000000000E+00 0.  1.
         24    2    1    2    0    0  0.21183706851E+03  0.65516454159E+02  0.42476256419E+03  0.48581146230E+03  0.80138577523E+02 0.  0.
        254    2    1    2    0    0 -0.21183706851E+03 -0.65516454159E+02  0.54043797679E+03  0.11044960712E+04  0.93737453300E+03 0.  0.
         23    2    4    4    0    0  0.41552601169E+02 -0.36942943570E+03  0.58174570549E+03  0.69633308111E+03  0.90812814990E+02 0.  0.
         23    2    4    4    0    0 -0.25338966968E+03  0.30391298154E+03 -0.41307728706E+02  0.40816299006E+03  0.91221011564E+02 0.  0.
          2    1    3    3  502    0  0.11358119894E+03 -0.12540058760E+00  0.25302019961E+03  0.27734441745E+03  0.00000000000E+00 0. -1.
         -1    1    3    3    0  502  0.98255869576E+02  0.65641854747E+02  0.17174236457E+03  0.20846704485E+03  0.00000000000E+00 0.  1.
         11    1    5    5    0    0 -0.59142137657E+01 -0.21657270210E+03  0.27258547763E+03  0.34819758161E+03  0.00000000000E+00 0. -1.
        -11    1    5    5    0    0  0.47466814934E+02 -0.15285673360E+03  0.30916022786E+03  0.34813549951E+03  0.00000000000E+00 0.  1.
          1    1    6    6  503    0 -0.37021740633E+02  0.98712098495E+02 -0.30578620579E+02  0.10977130638E+03  0.00000000000E+00 0. -1.
         -1    1    6    6    0  503 -0.21636792905E+03  0.20520088305E+03 -0.10729108126E+02  0.29839168367E+03  0.00000000000E+00 0.  1.
<mgrwt>
<rscale>  0 0.12639090E+04</rscale>
<asrwt>0</asrwt>
<pdfrwt beam="1">  1        2 0.19657754E+00 0.12639090E+04</pdfrwt>
<pdfrwt beam="2">  1       -1 0.48085154E-01 0.12639090E+04</pdfrwt>
<totfact> 0.82452383E+01</totfact>
</mgrwt>
</event>
<event>
12    6  0.9491186E-008  0.2188736E+04  0.7818608E-02  0.8523131E-01
          2   -1    0    0  501    0  0.00000000000E+00  0.00000000000E+00  0.97557989014E+03  0.97557989014E+03  0.00000000000E+00 0. -1.
         -1   -1    0    0    0  501 -0.00000000000E+00 -0.00000000000E+00 -0.12276201908E+04  0.12276201908E+04  0.00000000000E+00 0.  1.
         24    2    1    2    0    0 -0.76676181413E+03 -0.97592806100E+02  0.37383308321E+03  0.86219385364E+03  0.78606817389E+02 0.  0.
        254    2    1    2    0    0  0.76676181413E+03  0.97592806100E+02 -0.62587338383E+03  0.13410062273E+04  0.89951774500E+03 0.  0.
         23    2    4    4    0    0  0.47886005633E+03  0.47810593910E+03 -0.47433986395E+03  0.83163877487E+03  0.93447861276E+02 0.  0.
         23    2    4    4    0    0  0.28790175779E+03 -0.38051313300E+03 -0.15153351988E+03  0.50936745239E+03  0.93888909804E+02 0.  0.
          4    1    3    3  502    0 -0.65766499461E+03 -0.59066550512E+02  0.33276475638E+03  0.73942172379E+03  0.00000000000E+00 0. -1.
         -3    1    3    3    0  502 -0.10909681952E+03 -0.38526255588E+02  0.41068326836E+02  0.12277212985E+03  0.00000000000E+00 0.  1.
         11    1    5    5    0    0  0.46760983317E+02  0.82107646440E+02 -0.91785410004E+02  0.13173009016E+03  0.00000000000E+00 0. -1.
        -11    1    5    5    0    0  0.43209907302E+03  0.39599829266E+03 -0.38255445394E+03  0.69990868471E+03  0.00000000000E+00 0.  1.
          3    1    6    6  503    0  0.17369661211E+03 -0.15847055510E+03 -0.53593553460E+02  0.24115492711E+03  0.00000000000E+00 0. -1.
         -3    1    6    6    0  503  0.11420514568E+03 -0.22204257790E+03 -0.97939966421E+02  0.26821252529E+03  0.00000000000E+00 0.  1.
<mgrwt>
<rscale>  0 0.21887362E+04</rscale>
<asrwt>0</asrwt>
<pdfrwt beam="1">  1        2 0.15008921E+00 0.21887362E+04</pdfrwt>
<pdfrwt beam="2">  1       -1 0.18886465E+00 0.21887362E+04</pdfrwt>
<totfact> 0.49056277E+00</totfact>
</mgrwt>
</event>
<event>
12    6  0.9491186E-008  0.1406008E+04  0.7818608E-02  0.8949481E-01
          2   -1    0    0  501    0  0.00000000000E+00  0.00000000000E+00  0.71300637881E+03  0.71300637881E+03  0.00000000000E+00 0. -1.
         -1   -1    0    0    0  501 -0.00000000000E+00 -0.00000000000E+00 -0.69314193920E+03  0.69314193920E+03  0.00000000000E+00 0.  1.
         24    2    1    2    0    0 -0.20432668209E+03 -0.25864901730E+03  0.24735953983E+03  0.42495462441E+03  0.10368695046E+03 0.  0.
        254    2    1    2    0    0  0.20432668209E+03  0.25864901730E+03 -0.22749510022E+03  0.98119369360E+03  0.89573340708E+03 0.  0.
         23    2    4    4    0    0  0.19732565002E+03  0.48711232642E+03  0.12927513290E+03  0.54880006063E+03  0.90849413052E+02 0.  0.
         23    2    4    4    0    0  0.70010320701E+01 -0.22846330912E+03 -0.35677023313E+03  0.43239363297E+03  0.86225034209E+02 0.  0.
          4    1    3    3  502    0 -0.41736141059E+02 -0.84766275918E+02  0.12674249334E+03  0.15808506135E+03  0.00000000000E+00 0. -1.
         -3    1    3    3    0  502 -0.16259054104E+03 -0.17388274138E+03  0.12061704650E+03  0.26686956306E+03  0.00000000000E+00 0.  1.
         11    1    5    5    0    0  0.24827574789E+02  0.88261571680E+02  0.57858216970E+02  0.10841626620E+03  0.00000000000E+00 0. -1.
        -11    1    5    5    0    0  0.17249807524E+03  0.39885075474E+03  0.71416915933E+02  0.44038379443E+03  0.00000000000E+00 0.  1.
          3    1    6    6  503    0  0.70728232950E+01 -0.10164658651E+03 -0.85760329757E+02  0.13317990666E+03  0.00000000000E+00 0. -1.
         -3    1    6    6    0  503 -0.71791224817E-01 -0.12681672261E+03 -0.27100990337E+03  0.29921372631E+03  0.00000000000E+00 0.  1.
<mgrwt>
<rscale>  0 0.14060080E+04</rscale>
<asrwt>0</asrwt>
<pdfrwt beam="1">  1        2 0.10969329E+00 0.14060080E+04</pdfrwt>
<pdfrwt beam="2">  1       -1 0.10663722E+00 0.14060080E+04</pdfrwt>
<totfact> 0.36533377E+01</totfact>
</mgrwt>
</event>
<event>
12    6  0.9491186E-008  0.1527720E+04  0.7818608E-02  0.8866226E-01
         -1   -1    0    0    0  501 -0.00000000000E+00  0.00000000000E+00  0.25313560716E+03  0.25313560716E+03  0.00000000000E+00 0.  1.
          2   -1    0    0  501    0  0.00000000000E+00 -0.00000000000E+00 -0.23050174188E+04  0.23050174188E+04  0.00000000000E+00 0. -1.
         24    2    1    2    0    0 -0.18386326246E+03  0.23151688346E+03 -0.13745675499E+02  0.30666352512E+03  0.80298240542E+02 0.  0.
        254    2    1    2    0    0  0.18386326246E+03 -0.23151688346E+03 -0.20381361361E+04  0.22514895008E+04  0.90983531275E+03 0.  0.
         23    2    4    4    0    0  0.54362309338E+03 -0.13592967460E+03 -0.13398493156E+04  0.14552760929E+04  0.92894422336E+02 0.  0.
         23    2    4    4    0    0 -0.35975983092E+03 -0.95587208862E+02 -0.69828682044E+03  0.79621340794E+03  0.88245435762E+02 0.  0.
          4    1    3    3  502    0  0.88320713685E+00  0.64019906717E+01 -0.14028251801E+02  0.15445303105E+02  0.00000000000E+00 0. -1.
         -3    1    3    3    0  502 -0.18474646959E+03  0.22511489279E+03  0.28257630200E+00  0.29121822201E+03  0.00000000000E+00 0.  1.
         11    1    5    5    0    0  0.12454119531E+01  0.24584235747E+01 -0.39128601255E+02  0.39225531654E+02  0.00000000000E+00 0. -1.
        -11    1    5    5    0    0  0.54237768143E+03 -0.13838809817E+03 -0.13007207144E+04  0.14160505612E+04  0.00000000000E+00 0.  1.
          3    1    6    6  503    0 -0.38684927253E+02 -0.17864352844E+02 -0.15153384251E+03  0.15741081324E+03  0.00000000000E+00 0. -1.
         -3    1    6    6    0  503 -0.32107490367E+03 -0.77722856018E+02 -0.54675297793E+03  0.63880259470E+03  0.00000000000E+00 0.  1.
<mgrwt>
<rscale>  0 0.15277198E+04</rscale>
<asrwt>0</asrwt>
<pdfrwt beam="1">  1        2 0.35461805E+00 0.15277198E+04</pdfrwt>
<pdfrwt beam="2">  1       -1 0.38943941E-01 0.15277198E+04</pdfrwt>
<totfact> 0.31681960E+01</totfact>
</mgrwt>
</event>
<event>
12    6  0.9491186E-008  0.1374426E+04  0.7818608E-02  0.8972541E-01
         -1   -1    0    0    0  501 -0.00000000000E+00  0.00000000000E+00  0.19274600362E+03  0.19274600362E+03  0.00000000000E+00 0.  1.
          2   -1    0    0  501    0  0.00000000000E+00 -0.00000000000E+00 -0.24501775406E+04  0.24501775406E+04  0.00000000000E+00 0. -1.
         24    2    1    2    0    0  0.28344045232E+02 -0.36731534784E+03 -0.77841322408E+03  0.86485639750E+03  0.79532956827E+02 0.  0.
        254    2    1    2    0    0 -0.28344045232E+02  0.36731534784E+03 -0.14790183129E+04  0.17780671467E+04  0.91558924124E+03 0.  0.
         23    2    4    4    0    0  0.50442536758E+02  0.61645786351E+03 -0.63947875455E+03  0.89431021846E+03  0.91065593543E+02 0.  0.
         23    2    4    4    0    0 -0.78786581990E+02 -0.24914251568E+03 -0.83953955838E+03  0.88375692827E+03  0.88996177274E+02 0.  0.
          4    1    3    3  502    0 -0.18738075046E+02 -0.23297296188E+03 -0.51093982322E+03  0.56186032016E+03  0.00000000000E+00 0. -1.
         -3    1    3    3    0  502  0.47082120278E+02 -0.13434238596E+03 -0.26747340087E+03  0.30299607734E+03  0.00000000000E+00 0.  1.
         11    1    5    5    0    0 -0.61365695116E+01  0.37519198590E+02 -0.14975103705E+02  0.40860757203E+02  0.00000000000E+00 0. -1.
        -11    1    5    5    0    0  0.56579106269E+02  0.57893866492E+03 -0.62450365084E+03  0.85344946126E+03  0.00000000000E+00 0.  1.
          1    1    6    6  503    0 -0.38673866129E+01 -0.10991395098E+02 -0.14930991546E+03  0.14976387515E+03  0.00000000000E+00 0. -1.
         -1    1    6    6    0  503 -0.74919195377E+02 -0.23815112058E+03 -0.69022964291E+03  0.73399305312E+03  0.00000000000E+00 0.  1.
<mgrwt>
<rscale>  0 0.13744263E+04</rscale>
<asrwt>0</asrwt>
<pdfrwt beam="1">  1        2 0.37695039E+00 0.13744263E+04</pdfrwt>
<pdfrwt beam="2">  1       -1 0.29653232E-01 0.13744263E+04</pdfrwt>
<totfact> 0.43174990E+01</totfact>
</mgrwt>
</event>
<event>
12    6  0.9491186E-008  0.2194890E+04  0.7818608E-02  0.8520558E-01
          2   -1    0    0  501    0  0.00000000000E+00  0.00000000000E+00  0.18166637142E+04  0.18166637142E+04  0.00000000000E+00 0. -1.
         -1   -1    0    0    0  501 -0.00000000000E+00 -0.00000000000E+00 -0.66296534813E+03  0.66296534813E+03  0.00000000000E+00 0.  1.
         24    2    1    2    0    0  0.20282613529E+03 -0.62024142257E+03 -0.23631388120E+03  0.69879492036E+03  0.81438485054E+02 0.  0.
        254    2    1    2    0    0 -0.20282613529E+03  0.62024142257E+03  0.13900122473E+04  0.17808341420E+04  0.90188598516E+03 0.  0.
         23    2    4    4    0    0  0.60898185571E+02 -0.71667089738E+02  0.85078147243E+03  0.86078867697E+03  0.91012481657E+02 0.  0.
         23    2    4    4    0    0 -0.26372432087E+03  0.69190851230E+03  0.53923077485E+03  0.92004546501E+03  0.86173791406E+02 0.  0.
          2    1    3    3  502    0  0.41756105398E+02 -0.24575337185E+03 -0.10527468206E+03  0.27059388537E+03  0.00000000000E+00 0. -1.
         -1    1    3    3    0  502  0.16107002990E+03 -0.37448805071E+03 -0.13103919914E+03  0.42820103499E+03  0.00000000000E+00 0.  1.
         11    1    5    5    0    0  0.61717911156E+02 -0.94491265320E+01  0.29501000420E+03  0.30154483767E+03  0.00000000000E+00 0. -1.
        -11    1    5    5    0    0 -0.81972558465E+00 -0.62217963206E+02  0.55577146822E+03  0.55924383929E+03  0.00000000000E+00 0.  1.
          1    1    6    6  503    0 -0.18658723076E+03  0.40062171875E+03  0.35495018534E+03  0.56683524086E+03  0.00000000000E+00 0. -1.
         -1    1    6    6    0  503 -0.77137090111E+02  0.29128679356E+03  0.18428058952E+03  0.35321022415E+03  0.00000000000E+00 0.  1.
<mgrwt>
<rscale>  0 0.21948896E+04</rscale>
<asrwt>0</asrwt>
<pdfrwt beam="1">  1        2 0.27948672E+00 0.21948896E+04</pdfrwt>
<pdfrwt beam="2">  1       -1 0.10199467E+00 0.21948896E+04</pdfrwt>
<totfact> 0.80088636E+00</totfact>
</mgrwt>
</event>
<event>
12    6  0.9491186E-008  0.4122836E+04  0.7818608E-02  0.7980215E-01
         -1   -1    0    0    0  501 -0.00000000000E+00  0.00000000000E+00  0.20052165386E+04  0.20052165386E+04  0.00000000000E+00 0.  1.
          2   -1    0    0  501    0  0.00000000000E+00 -0.00000000000E+00 -0.21191947741E+04  0.21191947741E+04  0.00000000000E+00 0. -1.
         24    2    1    2    0    0 -0.16777125786E+02  0.19343729843E+04  0.26856470318E+03  0.19546289232E+04  0.79792940377E+02 0.  0.
        254    2    1    2    0    0  0.16777125786E+02 -0.19343729843E+04 -0.38254293870E+03  0.21697823894E+04  0.90528238860E+03 0.  0.
         23    2    4    4    0    0 -0.73745208283E+02 -0.55779717618E+03 -0.53103849383E+03  0.77915424129E+03  0.92213905093E+02 0.  0.
         23    2    4    4    0    0  0.90522334069E+02 -0.13765758081E+04  0.14849555513E+03  0.13906281481E+04  0.92954117586E+02 0.  0.
          4    1    3    3  502    0  0.29896541085E+02  0.94525282499E+03  0.14313241309E+03  0.95649547516E+03  0.00000000000E+00 0. -1.
         -3    1    3    3    0  502 -0.46673666871E+02  0.98912015933E+03  0.12543229009E+03  0.99813344808E+03  0.00000000000E+00 0.  1.
         11    1    5    5    0    0 -0.55960356506E+02 -0.41212280385E+03 -0.44472179004E+03  0.60889591679E+03  0.00000000000E+00 0. -1.
        -11    1    5    5    0    0 -0.17784851778E+02 -0.14567437234E+03 -0.86316703791E+02  0.17025832450E+03  0.00000000000E+00 0.  1.
          2    1    6    6  503    0  0.61593825276E+02 -0.10724308585E+04  0.15324205295E+03  0.10850736714E+04  0.00000000000E+00 0. -1.
         -2    1    6    6    0  503  0.28928508793E+02 -0.30414494964E+03 -0.47464978138E+01  0.30555447674E+03  0.00000000000E+00 0.  1.
<mgrwt>
<rscale>  0 0.41228361E+04</rscale>
<asrwt>0</asrwt>
<pdfrwt beam="1">  1        2 0.32602996E+00 0.41228361E+04</pdfrwt>
<pdfrwt beam="2">  1       -1 0.30849485E+00 0.41228361E+04</pdfrwt>
<totfact> 0.14814226E-01</totfact>
</mgrwt>
</event>
<event>
12    6  0.9491186E-008  0.1904027E+04  0.7818608E-02  0.8652854E-01
          2   -1    0    0  501    0  0.00000000000E+00  0.00000000000E+00  0.13608201711E+04  0.13608201711E+04  0.00000000000E+00 0. -1.
         -1   -1    0    0    0  501 -0.00000000000E+00 -0.00000000000E+00 -0.66601731211E+03  0.66601731211E+03  0.00000000000E+00 0.  1.
         24    2    1    2    0    0  0.55106873287E+03 -0.26907778220E+03 -0.19117249676E+03  0.64736545630E+03  0.80346183903E+02 0.  0.
        254    2    1    2    0    0 -0.55106873287E+03  0.26907778220E+03  0.88597535576E+03  0.13794720269E+04  0.86134263844E+03 0.  0.
         23    2    4    4    0    0  0.91560509649E+02  0.13094797184E+03 -0.84760439427E+02  0.20364990290E+03  0.93585536285E+02 0.  0.
         23    2    4    4    0    0 -0.64262924252E+03  0.13812981036E+03  0.97073579519E+03  0.11758221240E+04  0.90429505204E+02 0.  0.
          2    1    3    3  502    0  0.49736395523E+02 -0.36399101599E+02 -0.43003740435E+02  0.75152680113E+02  0.00000000000E+00 0. -1.
         -1    1    3    3    0  502  0.50133233735E+03 -0.23267868060E+03 -0.14816875633E+03  0.57221277619E+03  0.00000000000E+00 0.  1.
         11    1    5    5    0    0  0.31073257452E+02 -0.91586309983E+01 -0.11556127288E+02  0.34394358961E+02  0.00000000000E+00 0. -1.
        -11    1    5    5    0    0  0.60487252196E+02  0.14010660284E+03 -0.73204312139E+02  0.16925554393E+03  0.00000000000E+00 0.  1.
          3    1    6    6  503    0 -0.11980570901E+03  0.55736930863E+02  0.23307645413E+03  0.26792656987E+03  0.00000000000E+00 0. -1.
         -3    1    6    6    0  503 -0.52282353351E+03  0.82392879499E+02  0.73765934106E+03  0.90789555415E+03  0.00000000000E+00 0.  1.
<mgrwt>
<rscale>  0 0.19040271E+04</rscale>
<asrwt>0</asrwt>
<pdfrwt beam="1">  1        2 0.20935695E+00 0.19040271E+04</pdfrwt>
<pdfrwt beam="2">  1       -1 0.10246420E+00 0.19040271E+04</pdfrwt>
<totfact> 0.14656692E+01</totfact>
</mgrwt>
</event>
<event>
12    6  0.9491186E-008  0.2201765E+04  0.7818608E-02  0.8517694E-01
         -3   -1    0    0    0  501 -0.00000000000E+00  0.00000000000E+00  0.86073496844E+03  0.86073496844E+03  0.00000000000E+00 0.  1.
          4   -1    0    0  501    0  0.00000000000E+00 -0.00000000000E+00 -0.14080313828E+04  0.14080313828E+04  0.00000000000E+00 0. -1.
         24    2    1    2    0    0 -0.10732738651E+03  0.50984822840E+02 -0.11545599395E+04  0.11633221331E+04  0.78683615588E+02 0.  0.
        254    2    1    2    0    0  0.10732738651E+03 -0.50984822840E+02  0.60726352508E+03  0.11054442182E+04  0.91603455756E+03 0.  0.
         23    2    4    4    0    0 -0.20852464328E+03 -0.35563955331E+03  0.11114367634E+03  0.43719467870E+03  0.93937487490E+02 0.  0.
         23    2    4    4    0    0  0.31585202979E+03  0.30465473047E+03  0.49611984874E+03  0.66824953952E+03  0.88575014721E+02 0.  0.
          4    1    3    3  502    0 -0.33463357446E+02  0.56038690045E+02 -0.66501290396E+03  0.66820827106E+03  0.00000000000E+00 0. -1.
         -3    1    3    3    0  502 -0.73864029066E+02 -0.50538672056E+01 -0.48954703551E+03  0.49511386199E+03  0.00000000000E+00 0.  1.
         11    1    5    5    0    0 -0.15646884787E+03 -0.20106588571E+03  0.34911114401E+02  0.25715516067E+03  0.00000000000E+00 0.  1.
        -11    1    5    5    0    0 -0.52055795407E+02 -0.15457366760E+03  0.76232561939E+02  0.18003951803E+03  0.00000000000E+00 0. -1.
          3    1    6    6  503    0  0.24485099001E+03  0.27281049516E+03  0.43780440940E+03  0.57100812119E+03  0.00000000000E+00 0. -1.
         -3    1    6    6    0  503  0.71001039785E+02  0.31844235316E+02  0.58315439335E+02  0.97241418327E+02  0.00000000000E+00 0.  1.
<mgrwt>
<rscale>  0 0.22017646E+04</rscale>
<asrwt>0</asrwt>
<pdfrwt beam="1">  1        4 0.21662021E+00 0.22017646E+04</pdfrwt>
<pdfrwt beam="2">  1       -3 0.13242077E+00 0.22017646E+04</pdfrwt>
<totfact> 0.94708920E-02</totfact>
</mgrwt>
</event>
<event>
12    6  0.9491186E-008  0.1332018E+04  0.7818608E-02  0.9004553E-01
         -1   -1    0    0    0  501 -0.00000000000E+00  0.00000000000E+00  0.13812086636E+03  0.13812086636E+03  0.00000000000E+00 0.  1.
          2   -1    0    0  501    0  0.00000000000E+00 -0.00000000000E+00 -0.32114502922E+04  0.32114502922E+04  0.00000000000E+00 0. -1.
         24    2    1    2    0    0 -0.12274452136E+03 -0.31368198341E+02 -0.74833654554E+01  0.15039917542E+03  0.80707681278E+02 0.  0.
        254    2    1    2    0    0  0.12274452136E+03  0.31368198341E+02 -0.30658460604E+04  0.31991719832E+04  0.90511829635E+03 0.  0.
         23    2    4    4    0    0 -0.65606666943E+02  0.31517353052E+03 -0.45533636932E+03  0.56496258004E+03  0.90625153951E+02 0.  0.
         23    2    4    4    0    0  0.18835118830E+03 -0.28380533218E+03 -0.26105096911E+04  0.26342094031E+04  0.90976346260E+02 0.  0.
          4    1    3    3  502    0 -0.45487692963E+00  0.66314536506E+01 -0.20624475041E+02  0.21669149989E+02  0.00000000000E+00 0. -1.
         -3    1    3    3    0  502 -0.12228964443E+03 -0.37999651992E+02  0.13141109585E+02  0.12873002543E+03  0.00000000000E+00 0.  1.
         11    1    5    5    0    0  0.10124436303E+02  0.42781243169E+02 -0.11125354157E+03  0.11962478627E+03  0.00000000000E+00 0. -1.
        -11    1    5    5    0    0 -0.75731103245E+02  0.27239228735E+03 -0.34408282775E+03  0.44533779377E+03  0.00000000000E+00 0.  1.
          1    1    6    6  503    0  0.74139413242E+02 -0.16404634263E+03 -0.10961450007E+04  0.11108292928E+04  0.00000000000E+00 0. -1.
         -1    1    6    6    0  503  0.11421177506E+03 -0.11975898954E+03 -0.15143646904E+04  0.15233801103E+04  0.00000000000E+00 0.  1.
<mgrwt>
<rscale>  0 0.13320185E+04</rscale>
<asrwt>0</asrwt>
<pdfrwt beam="1">  1        2 0.49406927E+00 0.13320185E+04</pdfrwt>
<pdfrwt beam="2">  1       -1 0.21249364E-01 0.13320185E+04</pdfrwt>
<totfact> 0.26597689E+01</totfact>
</mgrwt>
</event>
<event>
12    6  0.9491186E-008  0.1151050E+04  0.7818608E-02  0.9156816E-01
          2   -1    0    0  501    0  0.00000000000E+00  0.00000000000E+00  0.24490758552E+04  0.24490758552E+04  0.00000000000E+00 0. -1.
         -1   -1    0    0    0  501 -0.00000000000E+00 -0.00000000000E+00 -0.13524642475E+03  0.13524642475E+03  0.00000000000E+00 0.  1.
         24    2    1    2    0    0 -0.14834883756E+03  0.50396823148E+02  0.83437161216E+03  0.85267938162E+03  0.79617355316E+02 0.  0.
        254    2    1    2    0    0  0.14834883756E+03 -0.50396823148E+02  0.14794578183E+04  0.17316428983E+04  0.88614021116E+03 0.  0.
         23    2    4    4    0    0 -0.25654133573E+03 -0.53383880033E+02  0.10870883969E+03  0.29935890822E+03  0.95576401466E+02 0.  0.
         23    2    4    4    0    0  0.40489017329E+03  0.29870568854E+01  0.13707489786E+04  0.14322839901E+04  0.92410448849E+02 0.  0.
          2    1    3    3  502    0 -0.27256127165E+02 -0.35232307733E+01  0.33127626074E+03  0.33241430557E+03  0.00000000000E+00 0. -1.
         -1    1    3    3    0  502 -0.12109271039E+03  0.53920053921E+02  0.50309535143E+03  0.52026507604E+03  0.00000000000E+00 0.  1.
         11    1    5    5    0    0 -0.20986657214E+02 -0.36272059263E+02  0.24949614416E+02  0.48770742497E+02  0.00000000000E+00 0. -1.
        -11    1    5    5    0    0 -0.23555467852E+03 -0.17111820770E+02  0.83759225276E+02  0.25058816572E+03  0.00000000000E+00 0.  1.
          3    1    6    6  503    0  0.55724052551E+02 -0.13691615002E+02  0.11126650185E+03  0.12519131275E+03  0.00000000000E+00 0. -1.
         -3    1    6    6    0  503  0.34916612074E+03  0.16678671888E+02  0.12594824767E+04  0.13070926774E+04  0.00000000000E+00 0.  1.
<mgrwt>
<rscale>  0 0.11510495E+04</rscale>
<asrwt>0</asrwt>
<pdfrwt beam="1">  1        2 0.37678087E+00 0.11510495E+04</pdfrwt>
<pdfrwt beam="2">  1       -1 0.20807144E-01 0.11510495E+04</pdfrwt>
<totfact> 0.80930557E+01</totfact>
</mgrwt>
</event>
<event>
12    6  0.9491186E-008  0.2493973E+04  0.7818608E-02  0.8405136E-01
         -1   -1    0    0    0  501 -0.00000000000E+00  0.00000000000E+00  0.78010670139E+03  0.78010670139E+03  0.00000000000E+00 0.  1.
          2   -1    0    0  501    0  0.00000000000E+00 -0.00000000000E+00 -0.19932847833E+04  0.19932847833E+04  0.00000000000E+00 0. -1.
         24    2    1    2    0    0  0.82661079165E+03  0.34711351431E+03 -0.12031787096E+04  0.15026018722E+04  0.80001164282E+02 0.  0.
        254    2    1    2    0    0 -0.82661079165E+03 -0.34711351431E+03 -0.99993722207E+01  0.12707896125E+04  0.90057373879E+03 0.  0.
         23    2    4    4    0    0  0.11449766120E+02  0.17635553538E+03 -0.17596223399E+03  0.26466321762E+03  0.88608910196E+02 0.  0.
         23    2    4    4    0    0 -0.83806055777E+03 -0.52346904969E+03  0.16596286177E+03  0.10061263948E+04  0.91549475314E+02 0.  0.
          2    1    3    3  502    0  0.45146981190E+03  0.19678020362E+03 -0.72593489402E+03  0.87722796920E+03  0.00000000000E+00 0. -1.
         -1    1    3    3    0  502  0.37514097975E+03  0.15033331068E+03 -0.47724381562E+03  0.62537390298E+03  0.00000000000E+00 0.  1.
         11    1    5    5    0    0  0.36326696987E+02  0.33225087653E+02 -0.25229999986E+02  0.55318064525E+02  0.00000000000E+00 0.  1.
        -11    1    5    5    0    0 -0.24876930867E+02  0.14313044773E+03 -0.15073223400E+03  0.20934515309E+03  0.00000000000E+00 0. -1.
          3    1    6    6  503    0 -0.66015704562E+03 -0.36723607142E+03  0.11887302404E+03  0.76472246788E+03  0.00000000000E+00 0. -1.
         -3    1    6    6    0  503 -0.17790351215E+03 -0.15623297827E+03  0.47089837725E+02  0.24140392696E+03  0.00000000000E+00 0.  1.
<mgrwt>
<rscale>  0 0.24939726E+04</rscale>
<asrwt>0</asrwt>
<pdfrwt beam="1">  1        2 0.30665920E+00 0.24939726E+04</pdfrwt>
<pdfrwt beam="2">  1       -1 0.12001642E+00 0.24939726E+04</pdfrwt>
<totfact> 0.42344845E+00</totfact>
</mgrwt>
</event>
<event>
12    6  0.9491186E-008  0.1977633E+04  0.7818608E-02  0.8617150E-01
          2   -1    0    0  501    0  0.00000000000E+00  0.00000000000E+00  0.97691055917E+03  0.97691055917E+03  0.00000000000E+00 0. -1.
         -1   -1    0    0    0  501 -0.00000000000E+00 -0.00000000000E+00 -0.10008671605E+04  0.10008671605E+04  0.00000000000E+00 0.  1.
         24    2    1    2    0    0  0.73107163573E+03  0.80554709411E+02 -0.27475168941E+03  0.78906428349E+03  0.78607600547E+02 0.  0.
        254    2    1    2    0    0 -0.73107163573E+03 -0.80554709411E+02  0.25079508807E+03  0.11887134362E+04  0.89954803062E+03 0.  0.
         23    2    4    4    0    0 -0.68937219521E+03 -0.39934445855E+03  0.62649834517E+02  0.80432266116E+03  0.91103904326E+02 0.  0.
         23    2    4    4    0    0 -0.41699440518E+02  0.31878974914E+03  0.18814525356E+03  0.38439077502E+03  0.94825545022E+02 0.  0.
          2    1    3    3  502    0  0.40510785017E+03  0.34994548463E+02 -0.19211342158E+03  0.44971608315E+03  0.00000000000E+00 0. -1.
         -1    1    3    3    0  502  0.32596378556E+03  0.45560160949E+02 -0.82638267823E+02  0.33934820033E+03  0.00000000000E+00 0.  1.
         11    1    5    5    0    0 -0.14171577726E+03 -0.58723310333E+02 -0.17599669795E+02  0.15440704996E+03  0.00000000000E+00 0.  1.
        -11    1    5    5    0    0 -0.54765641796E+03 -0.34062114822E+03  0.80249504312E+02  0.64991561120E+03  0.00000000000E+00 0. -1.
          1    1    6    6  503    0 -0.24517801423E+02  0.21253742721E+03  0.71270245935E+02  0.22550549551E+03  0.00000000000E+00 0. -1.
         -1    1    6    6    0  503 -0.17181639095E+02  0.10625232193E+03  0.11687500762E+03  0.15888527951E+03  0.00000000000E+00 0.  1.
<mgrwt>
<rscale>  0 0.19776326E+04</rscale>
<asrwt>0</asrwt>
<pdfrwt beam="1">  1        2 0.15029393E+00 0.19776326E+04</pdfrwt>
<pdfrwt beam="2">  1       -1 0.15397956E+00 0.19776326E+04</pdfrwt>
<totfact> 0.89951758E+00</totfact>
</mgrwt>
</event>
<event>
12    6  0.9491186E-008  0.1232847E+04  0.7818608E-02  0.9084582E-01
          2   -1    0    0  501    0  0.00000000000E+00  0.00000000000E+00  0.45800383124E+03  0.45800383124E+03  0.00000000000E+00 0. -1.
         -1   -1    0    0    0  501 -0.00000000000E+00 -0.00000000000E+00 -0.82963886430E+03  0.82963886430E+03  0.00000000000E+00 0.  1.
         24    2    1    2    0    0 -0.15394402203E+03  0.14239848269E+03 -0.26798920458E+03  0.34986443926E+03  0.81306963381E+02 0.  0.
        254    2    1    2    0    0  0.15394402203E+03 -0.14239848269E+03 -0.10364582848E+03  0.93777825629E+03  0.90813518289E+03 0.  0.
         23    2    4    4    0    0  0.82449029371E+02 -0.52210853413E+03 -0.62327314162E+02  0.53981000753E+03  0.90083218647E+02 0.  0.
         23    2    4    4    0    0  0.71494992658E+02  0.37971005144E+03 -0.41318514319E+02  0.39796824876E+03  0.85908382893E+02 0.  0.
          2    1    3    3  502    0 -0.89193891217E+00  0.20244304612E+02 -0.63845706353E+02  0.66984338796E+02  0.00000000000E+00 0. -1.
         -1    1    3    3    0  502 -0.15305208312E+03  0.12215417808E+03 -0.20414349823E+03  0.28288010046E+03  0.00000000000E+00 0.  1.
         11    1    5    5    0    0  0.47489932733E+02 -0.28727604098E+03 -0.79310464558E+02  0.30178298034E+03  0.00000000000E+00 0.  1.
        -11    1    5    5    0    0  0.34959096638E+02 -0.23483249315E+03  0.16983150395E+02  0.23802702719E+03  0.00000000000E+00 0. -1.
          4    1    6    6  503    0 -0.68696510031E+01  0.22994555399E+01 -0.84184074384E+01  0.11106267802E+02  0.00000000000E+00 0. -1.
         -4    1    6    6    0  503  0.78364643661E+02  0.37741059590E+03 -0.32900106881E+02  0.38686198096E+03  0.00000000000E+00 0.  1.
<mgrwt>
<rscale>  0 0.12328468E+04</rscale>
<asrwt>0</asrwt>
<pdfrwt beam="1">  1        2 0.70462129E-01 0.12328468E+04</pdfrwt>
<pdfrwt beam="2">  1       -1 0.12763675E+00 0.12328468E+04</pdfrwt>
<totfact> 0.40787753E+01</totfact>
</mgrwt>
</event>
<event>
12    6  0.9491186E-008  0.1988270E+04  0.7818608E-02  0.8612124E-01
          2   -1    0    0  501    0  0.00000000000E+00  0.00000000000E+00  0.14286019169E+04  0.14286019169E+04  0.00000000000E+00 0. -1.
         -1   -1    0    0    0  501 -0.00000000000E+00 -0.00000000000E+00 -0.69179840735E+03  0.69179840735E+03  0.00000000000E+00 0.  1.
         24    2    1    2    0    0  0.34189948741E+03  0.59641628918E+03 -0.11162940269E+03  0.70096412791E+03  0.79258662526E+02 0.  0.
        254    2    1    2    0    0 -0.34189948741E+03 -0.59641628918E+03  0.84843291225E+03  0.14194361963E+04  0.90683684279E+03 0.  0.
         23    2    4    4    0    0 -0.24041404038E+03 -0.63720258483E+03  0.14544204269E+03  0.70239578872E+03  0.91544586416E+02 0.  0.
         23    2    4    4    0    0 -0.10148544703E+03  0.40786295655E+02  0.70299086955E+03  0.71704040763E+03  0.89375419566E+02 0.  0.
          4    1    3    3  502    0  0.33411802411E+02  0.85384547772E+02  0.84662775020E+01  0.92079027978E+02  0.00000000000E+00 0. -1.
         -3    1    3    3    0  502  0.30848768500E+03  0.51103174141E+03 -0.12009568019E+03  0.60888509993E+03  0.00000000000E+00 0.  1.
         11    1    5    5    0    0 -0.92673327469E+02 -0.14785214848E+03  0.57462857417E+02  0.18371331856E+03  0.00000000000E+00 0.  1.
        -11    1    5    5    0    0 -0.14774071291E+03 -0.48935043635E+03  0.87979185277E+02  0.51868247016E+03  0.00000000000E+00 0. -1.
          1    1    6    6  503    0 -0.10886882950E+03  0.57128455937E+02  0.62942169256E+03  0.64131719888E+03  0.00000000000E+00 0. -1.
         -1    1    6    6    0  503  0.73833824723E+01 -0.16342160282E+02  0.73569176995E+02  0.75723208748E+02  0.00000000000E+00 0.  1.
<mgrwt>
<rscale>  0 0.19882701E+04</rscale>
<asrwt>0</asrwt>
<pdfrwt beam="1">  1        2 0.21978491E+00 0.19882701E+04</pdfrwt>
<pdfrwt beam="2">  1       -1 0.10643052E+00 0.19882701E+04</pdfrwt>
<totfact> 0.12181865E+01</totfact>
</mgrwt>
</event>
<event>
12    6  0.9491186E-008  0.3078461E+04  0.7818608E-02  0.8221674E-01
          2   -1    0    0  501    0  0.00000000000E+00  0.00000000000E+00  0.26289554688E+04  0.26289554688E+04  0.00000000000E+00 0. -1.
         -1   -1    0    0    0  501 -0.00000000000E+00 -0.00000000000E+00 -0.90120577479E+03  0.90120577479E+03  0.00000000000E+00 0.  1.
         24    2    1    2    0    0  0.89933909270E+03 -0.42812518966E+03  0.19325741588E+04  0.21755749643E+04  0.78622923901E+02 0.  0.
        254    2    1    2    0    0 -0.89933909270E+03  0.42812518966E+03 -0.20482446476E+03  0.13545862794E+04  0.89490163996E+03 0.  0.
         23    2    4    4    0    0 -0.46430364684E+03  0.20350520827E+03  0.33918473889E+03  0.61705246770E+03  0.93355313362E+02 0.  0.
         23    2    4    4    0    0 -0.43503544586E+03  0.22461998139E+03 -0.54400920365E+03  0.73753381167E+03  0.91105073989E+02 0.  0.
          4    1    3    3  502    0  0.84145400120E+03 -0.42059979629E+03  0.18143722904E+04  0.20437455402E+04  0.00000000000E+00 0. -1.
         -3    1    3    3    0  502  0.57885091495E+02 -0.75253933726E+01  0.11820186840E+03  0.13182942409E+03  0.00000000000E+00 0.  1.
         11    1    5    5    0    0 -0.14334528627E+03  0.73266585627E+02  0.58697139889E+02  0.17135115376E+03  0.00000000000E+00 0. -1.
        -11    1    5    5    0    0 -0.32095836057E+03  0.13023862264E+03  0.28048759900E+03  0.44570131393E+03  0.00000000000E+00 0.  1.
          3    1    6    6  503    0 -0.17963026969E+03  0.49633385506E+02 -0.23731599442E+03  0.30174391121E+03  0.00000000000E+00 0. -1.
         -3    1    6    6    0  503 -0.25540517617E+03  0.17498659589E+03 -0.30669320923E+03  0.43578990046E+03  0.00000000000E+00 0.  1.
<mgrwt>
<rscale>  0 0.30784606E+04</rscale>
<asrwt>0</asrwt>
<pdfrwt beam="1">  1        2 0.40445468E+00 0.30784606E+04</pdfrwt>
<pdfrwt beam="2">  1       -1 0.13864704E+00 0.30784606E+04</pdfrwt>
<totfact> 0.12155127E+00</totfact>
</mgrwt>
</event>
<event>
12    6  0.9491186E-008  0.1678893E+04  0.7818608E-02  0.8773495E-01
         -1   -1    0    0    0  501 -0.00000000000E+00  0.00000000000E+00  0.39406096565E+03  0.39406096565E+03  0.00000000000E+00 0.  1.
          2   -1    0    0  501    0  0.00000000000E+00 -0.00000000000E+00 -0.17882263587E+04  0.17882263587E+04  0.00000000000E+00 0. -1.
         24    2    1    2    0    0 -0.10308666518E+03 -0.90544556986E+02  0.25373410430E+03  0.29863191159E+03  0.77297125411E+02 0.  0.
        254    2    1    2    0    0  0.10308666518E+03  0.90544556986E+02 -0.16478994973E+04  0.18836554127E+04  0.90208635024E+03 0.  0.
         23    2    4    4    0    0 -0.28649806056E+03 -0.20864265751E+03 -0.41817992348E+03  0.55620097255E+03  0.94192230173E+02 0.  0.
         23    2    4    4    0    0  0.38958472574E+03  0.29918721449E+03 -0.12297195738E+04  0.13274544402E+04  0.92929073081E+02 0.  0.
          2    1    3    3  502    0 -0.47993587743E+02 -0.90441549372E+02  0.16522042059E+03  0.19437295516E+03  0.00000000000E+00 0. -1.
         -1    1    3    3    0  502 -0.55093077437E+02 -0.10300761393E+00  0.88513683711E+02  0.10425895643E+03  0.00000000000E+00 0.  1.
         11    1    5    5    0    0 -0.76413785118E+02 -0.99349297556E+02 -0.10461792760E+03  0.16326132505E+03  0.00000000000E+00 0. -1.
        -11    1    5    5    0    0 -0.21008427544E+03 -0.10929335995E+03 -0.31356199588E+03  0.39293964750E+03  0.00000000000E+00 0.  1.
          1    1    6    6  503    0  0.37579400971E+02  0.64223622038E+02 -0.23332509763E+03  0.24490301384E+03  0.00000000000E+00 0. -1.
         -1    1    6    6    0  503  0.35200532477E+03  0.23496359245E+03 -0.99639447622E+03  0.10825514263E+04  0.00000000000E+00 0.  1.
<mgrwt>
<rscale>  0 0.16788927E+04</rscale>
<asrwt>0</asrwt>
<pdfrwt beam="1">  1        2 0.27511175E+00 0.16788927E+04</pdfrwt>
<pdfrwt beam="2">  1       -1 0.60624764E-01 0.16788927E+04</pdfrwt>
<totfact> 0.26240149E+01</totfact>
</mgrwt>
</event>
<event>
12    6  0.9491186E-008  0.1936876E+04  0.7818608E-02  0.8636716E-01
          2   -1    0    0  501    0  0.00000000000E+00  0.00000000000E+00  0.49604511639E+03  0.49604511639E+03  0.00000000000E+00 0. -1.
         -1   -1    0    0    0  501 -0.00000000000E+00 -0.00000000000E+00 -0.18906989728E+04  0.18906989728E+04  0.00000000000E+00 0.  1.
         24    2    1    2    0    0 -0.30227196981E+03 -0.16380531397E+03  0.28221898198E+03  0.45194967270E+03  0.80065150029E+02 0.  0.
        254    2    1    2    0    0  0.30227196981E+03  0.16380531397E+03 -0.16768728384E+04  0.19347944165E+04  0.90184610291E+03 0.  0.
         23    2    4    4    0    0 -0.25476139316E+03  0.27519265123E+03 -0.76691113532E+03  0.85822364663E+03  0.88095263325E+02 0.  0.
         23    2    4    4    0    0  0.55703336296E+03 -0.11138733726E+03 -0.90996170309E+03  0.10765707699E+04  0.91000083053E+02 0.  0.
          4    1    3    3  502    0 -0.99440729488E+02 -0.35427967948E+02  0.45935491388E+02  0.11512458019E+03  0.00000000000E+00 0. -1.
         -3    1    3    3    0  502 -0.20283124032E+03 -0.12837734602E+03  0.23628349059E+03  0.33682509252E+03  0.00000000000E+00 0.  1.
         11    1    5    5    0    0 -0.12917922079E+03  0.16917856821E+03 -0.51712957238E+03  0.55922415332E+03  0.00000000000E+00 0. -1.
        -11    1    5    5    0    0 -0.12558217237E+03  0.10601408302E+03 -0.24978156295E+03  0.29899949332E+03  0.00000000000E+00 0.  1.
          1    1    6    6  503    0  0.47547212680E+03 -0.97478674309E+02 -0.70875495716E+03  0.85901654501E+03  0.00000000000E+00 0. -1.
         -1    1    6    6    0  503  0.81561236163E+02 -0.13908662947E+02 -0.20120674593E+03  0.21755422487E+03  0.00000000000E+00 0.  1.
<mgrwt>
<rscale>  0 0.19368758E+04</rscale>
<asrwt>0</asrwt>
<pdfrwt beam="1">  1        2 0.76314633E-01 0.19368758E+04</pdfrwt>
<pdfrwt beam="2">  1       -1 0.29087677E+00 0.19368758E+04</pdfrwt>
<totfact> 0.25108658E+00</totfact>
</mgrwt>
</event>
<event>
12    6  0.9491186E-008  0.2009121E+04  0.7818608E-02  0.8602368E-01
          2   -1    0    0  501    0  0.00000000000E+00  0.00000000000E+00  0.10660074416E+04  0.10660074416E+04  0.00000000000E+00 0. -1.
         -1   -1    0    0    0  501 -0.00000000000E+00 -0.00000000000E+00 -0.94665548580E+03  0.94665548580E+03  0.00000000000E+00 0.  1.
         24    2    1    2    0    0  0.54633488578E+03 -0.27828862330E+03  0.56380714719E+03  0.83665552821E+03  0.78661352507E+02 0.  0.
        254    2    1    2    0    0 -0.54633488578E+03  0.27828862330E+03 -0.44445519144E+03  0.11760073991E+04  0.89973697288E+03 0.  0.
         23    2    4    4    0    0 -0.45841204041E+03  0.38033729381E+03  0.96958053246E+02  0.61042806062E+03  0.91779612345E+02 0.  0.
         23    2    4    4    0    0 -0.87922845367E+02 -0.10204867052E+03 -0.54141324469E+03  0.56557933852E+03  0.92775690511E+02 0.  0.
          4    1    3    3  502    0  0.19654216388E+03 -0.12616483772E+03  0.17377557009E+03  0.29110880650E+03  0.00000000000E+00 0. -1.
         -3    1    3    3    0  502  0.34979272190E+03 -0.15212378557E+03  0.39003157710E+03  0.54554672171E+03  0.00000000000E+00 0.  1.
         11    1    5    5    0    0 -0.34840358404E+03  0.28345243498E+03  0.11249361299E+03  0.46301744376E+03  0.00000000000E+00 0.  1.
        -11    1    5    5    0    0 -0.11000845637E+03  0.96884858838E+02 -0.15535559744E+02  0.14741061686E+03  0.00000000000E+00 0. -1.
          1    1    6    6  503    0  0.41321448430E+01 -0.52273683604E+02 -0.26235218198E+03  0.26754117441E+03  0.00000000000E+00 0. -1.
         -1    1    6    6    0  503 -0.92054990210E+02 -0.49774986914E+02 -0.27906106271E+03  0.29803816411E+03  0.00000000000E+00 0.  1.
<mgrwt>
<rscale>  0 0.20091210E+04</rscale>
<asrwt>0</asrwt>
<pdfrwt beam="1">  1        2 0.16400115E+00 0.20091210E+04</pdfrwt>
<pdfrwt beam="2">  1       -1 0.14563930E+00 0.20091210E+04</pdfrwt>
<totfact> 0.91462637E+00</totfact>
</mgrwt>
</event>
<event>
12    6  0.9491186E-008  0.1390192E+04  0.7818608E-02  0.8960949E-01
         -1   -1    0    0    0  501 -0.00000000000E+00  0.00000000000E+00  0.26699807705E+03  0.26699807705E+03  0.00000000000E+00 0.  1.
          2   -1    0    0  501    0  0.00000000000E+00 -0.00000000000E+00 -0.18095958473E+04  0.18095958473E+04  0.00000000000E+00 0. -1.
         24    2    1    2    0    0 -0.29972648200E+03 -0.29493534876E+03 -0.68915286704E+03  0.81134712356E+03  0.80806291820E+02 0.  0.
        254    2    1    2    0    0  0.29972648200E+03  0.29493534876E+03 -0.85344490321E+03  0.12652468008E+04  0.83406141267E+03 0.  0.
         23    2    4    4    0    0  0.56557976064E+03  0.15069487160E+03 -0.41243235411E+03  0.72209543116E+03  0.93444930360E+02 0.  0.
         23    2    4    4    0    0 -0.26585327863E+03  0.14424047716E+03 -0.44101254909E+03  0.54315136962E+03  0.95068716455E+02 0.  0.
          2    1    3    3  502    0 -0.22625000720E+03 -0.20240439627E+03 -0.55484763811E+03  0.63246541953E+03  0.00000000000E+00 0. -1.
         -1    1    3    3    0  502 -0.73476474802E+02 -0.92530952491E+02 -0.13430522893E+03  0.17888170403E+03  0.00000000000E+00 0.  1.
         11    1    5    5    0    0  0.24412615378E+03  0.11156582353E+03 -0.20150981218E+03  0.33563479608E+03  0.00000000000E+00 0. -1.
        -11    1    5    5    0    0  0.32145360686E+03  0.39129048076E+02 -0.21092254193E+03  0.38646063507E+03  0.00000000000E+00 0.  1.
          3    1    6    6  503    0 -0.14823088418E+02 -0.58364800243E+01 -0.64235988456E+02  0.66181951181E+02  0.00000000000E+00 0. -1.
         -3    1    6    6    0  503 -0.25103019022E+03  0.15007695719E+03 -0.37677656064E+03  0.47696941844E+03  0.00000000000E+00 0.  1.
<mgrwt>
<rscale>  0 0.13901922E+04</rscale>
<asrwt>0</asrwt>
<pdfrwt beam="1">  1        2 0.27839937E+00 0.13901922E+04</pdfrwt>
<pdfrwt beam="2">  1       -1 0.41076626E-01 0.13901922E+04</pdfrwt>
<totfact> 0.54867419E+01</totfact>
</mgrwt>
</event>
<event>
12    6  0.9491186E-008  0.1785788E+04  0.7818608E-02  0.8713894E-01
         -3   -1    0    0    0  501 -0.00000000000E+00  0.00000000000E+00  0.55350023556E+03  0.55350023556E+03  0.00000000000E+00 0.  1.
          4   -1    0    0  501    0  0.00000000000E+00 -0.00000000000E+00 -0.14403962625E+04  0.14403962625E+04  0.00000000000E+00 0. -1.
         24    2    1    2    0    0  0.55815603773E+03  0.25630956048E+03 -0.60501394997E+03  0.86586007826E+03  0.80243642875E+02 0.  0.
        254    2    1    2    0    0 -0.55815603773E+03 -0.25630956048E+03 -0.28188207695E+03  0.11280364198E+04  0.90320313650E+03 0.  0.
         23    2    4    4    0    0 -0.27408044647E+03 -0.55751343935E+03 -0.18798606631E+02  0.62852568552E+03  0.93540491544E+02 0.  0.
         23    2    4    4    0    0 -0.28407559126E+03  0.30120387887E+03 -0.26308347032E+03  0.49951073425E+03  0.94209039270E+02 0.  0.
          2    1    3    3  502    0  0.39180621824E+03  0.19628376127E+03 -0.38287479720E+03  0.58192141903E+03  0.00000000000E+00 0. -1.
         -1    1    3    3    0  502  0.16634981948E+03  0.60025799203E+02 -0.22213915277E+03  0.28393865923E+03  0.00000000000E+00 0.  1.
         11    1    5    5    0    0 -0.63853639252E+02 -0.18061132365E+03  0.31130802583E+02  0.19407953098E+03  0.00000000000E+00 0.  1.
        -11    1    5    5    0    0 -0.21022680722E+03 -0.37690211570E+03 -0.49929409214E+02  0.43444615454E+03  0.00000000000E+00 0. -1.
          3    1    6    6  503    0 -0.26387951048E+03  0.28859110049E+03 -0.21596904586E+03  0.44672121967E+03  0.00000000000E+00 0. -1.
         -3    1    6    6    0  503 -0.20196080776E+02  0.12612778382E+02 -0.47114424465E+02  0.52789514582E+02  0.00000000000E+00 0.  1.
<mgrwt>
<rscale>  0 0.17857880E+04</rscale>
<asrwt>0</asrwt>
<pdfrwt beam="1">  1        4 0.22159942E+00 0.17857880E+04</pdfrwt>
<pdfrwt beam="2">  1       -3 0.85153883E-01 0.17857880E+04</pdfrwt>
<totfact> 0.26005964E-01</totfact>
</mgrwt>
</event>
<event>
12    6  0.9491186E-008  0.1766785E+04  0.7818608E-02  0.8724165E-01
          2   -1    0    0  501    0  0.00000000000E+00  0.00000000000E+00  0.70744032349E+03  0.70744032349E+03  0.00000000000E+00 0. -1.
         -1   -1    0    0    0  501 -0.00000000000E+00 -0.00000000000E+00 -0.11031070101E+04  0.11031070101E+04  0.00000000000E+00 0.  1.
         24    2    1    2    0    0  0.22354668230E+02  0.30484346818E+03  0.44360834789E+03  0.54442092284E+03  0.78590734972E+02 0.  0.
        254    2    1    2    0    0 -0.22354668230E+02 -0.30484346818E+03 -0.83927503446E+03  0.12661264107E+04  0.89736516153E+03 0.  0.
         23    2    4    4    0    0  0.33732964630E+03 -0.40409000426E+03 -0.33234304956E+03  0.62984300414E+03  0.95761607404E+02 0.  0.
         23    2    4    4    0    0 -0.35968431453E+03  0.99246536087E+02 -0.50693198490E+03  0.63628340656E+03  0.93026099063E+02 0.  0.
          2    1    3    3  502    0  0.24130597092E+02  0.28663779303E+03  0.37048513713E+03  0.46904450423E+03  0.00000000000E+00 0. -1.
         -1    1    3    3    0  502 -0.17759288616E+01  0.18205675145E+02  0.73123210761E+02  0.75376418612E+02  0.00000000000E+00 0.  1.
         11    1    5    5    0    0  0.14537229611E+03 -0.10503487325E+03 -0.12174278771E+03  0.21676423929E+03  0.00000000000E+00 0.  1.
        -11    1    5    5    0    0  0.19195735019E+03 -0.29905513102E+03 -0.21060026185E+03  0.41307876485E+03  0.00000000000E+00 0. -1.
          3    1    6    6  503    0  0.18896405732E+01 -0.68160564425E+01 -0.15324766907E+02  0.16878324789E+02  0.00000000000E+00 0. -1.
         -3    1    6    6    0  503 -0.36157395511E+03  0.10606259253E+03 -0.49160721799E+03  0.61940508177E+03  0.00000000000E+00 0.  1.
<mgrwt>
<rscale>  0 0.17667851E+04</rscale>
<asrwt>0</asrwt>
<pdfrwt beam="1">  1        2 0.10883697E+00 0.17667851E+04</pdfrwt>
<pdfrwt beam="2">  1       -1 0.16970877E+00 0.17667851E+04</pdfrwt>
<totfact> 0.10804304E+01</totfact>
</mgrwt>
</event>
<event>
12    6  0.9491186E-008  0.1702616E+04  0.7818608E-02  0.8759874E-01
          2   -1    0    0  501    0  0.00000000000E+00  0.00000000000E+00  0.11378722692E+04  0.11378722692E+04  0.00000000000E+00 0. -1.
         -1   -1    0    0    0  501 -0.00000000000E+00 -0.00000000000E+00 -0.63691267532E+03  0.63691267532E+03  0.00000000000E+00 0.  1.
         24    2    1    2    0    0 -0.32032520833E+03  0.29272441753E+03  0.63061518516E+03  0.76976833939E+03  0.81067631398E+02 0.  0.
        254    2    1    2    0    0  0.32032520833E+03 -0.29272441753E+03 -0.12965559123E+03  0.10050166052E+04  0.89719116170E+03 0.  0.
         23    2    4    4    0    0  0.58491117903E+03 -0.34801427734E+02  0.28278635436E+02  0.59360132543E+03  0.90722795393E+02 0.  0.
         23    2    4    4    0    0 -0.26458597070E+03 -0.25792298979E+03 -0.15793422667E+03  0.41141527975E+03  0.88257055807E+02 0.  0.
          2    1    3    3  502    0 -0.13768133480E+03  0.16082495063E+03  0.25129326790E+03  0.32858655053E+03  0.00000000000E+00 0. -1.
         -1    1    3    3    0  502 -0.18264387353E+03  0.13189946690E+03  0.37932191726E+03  0.44118178886E+03  0.00000000000E+00 0.  1.
         11    1    5    5    0    0  0.44496221138E+03  0.82810646101E+00  0.49222722314E+02  0.44767726289E+03  0.00000000000E+00 0. -1.
        -11    1    5    5    0    0  0.13994896765E+03 -0.35629534195E+02 -0.20944086877E+02  0.14592406254E+03  0.00000000000E+00 0.  1.
          4    1    6    6  503    0 -0.13632825645E+03 -0.18259660533E+03 -0.12164496754E+03  0.25831068873E+03  0.00000000000E+00 0.  1.
         -4    1    6    6    0  503 -0.12825771425E+03 -0.75326384459E+02 -0.36289259127E+02  0.15310459101E+03  0.00000000000E+00 0. -1.
<mgrwt>
<rscale>  0 0.17026160E+04</rscale>
<asrwt>0</asrwt>
<pdfrwt beam="1">  1        2 0.17505727E+00 0.17026160E+04</pdfrwt>
<pdfrwt beam="2">  1       -1 0.97986565E-01 0.17026160E+04</pdfrwt>
<totfact> 0.22372575E+01</totfact>
</mgrwt>
</event>
<event>
12    6  0.9491186E-008  0.1777430E+04  0.7818608E-02  0.8718395E-01
          2   -1    0    0  501    0  0.00000000000E+00  0.00000000000E+00  0.77305994899E+03  0.77305994899E+03  0.00000000000E+00 0. -1.
         -1   -1    0    0    0  501 -0.00000000000E+00 -0.00000000000E+00 -0.10216729835E+04  0.10216729835E+04  0.00000000000E+00 0.  1.
         24    2    1    2    0    0 -0.29997217412E+03  0.90054012245E+02  0.49317570455E+03  0.58961891825E+03  0.79593736168E+02 0.  0.
        254    2    1    2    0    0  0.29997217412E+03 -0.90054012245E+02 -0.74178873901E+03  0.12051140142E+04  0.89663605968E+03 0.  0.
         23    2    4    4    0    0  0.41486238603E+03 -0.14169874178E+03 -0.88615553230E+03  0.99281052497E+03  0.90618862878E+02 0.  0.
         23    2    4    4    0    0 -0.11489021191E+03  0.51644729537E+02  0.14436679329E+03  0.21230348922E+03  0.91455243979E+02 0.  0.
          4    1    3    3  502    0 -0.11502392530E+03 -0.36616351358E+01  0.15731021911E+03  0.19491130290E+03  0.00000000000E+00 0. -1.
         -3    1    3    3    0  502 -0.18494824882E+03  0.93715647381E+02  0.33586548545E+03  0.39470761536E+03  0.00000000000E+00 0.  1.
         11    1    5    5    0    0  0.31957007722E+03 -0.68017735385E+02 -0.62666689355E+03  0.70672685109E+03  0.00000000000E+00 0. -1.
        -11    1    5    5    0    0  0.95292308802E+02 -0.73681006396E+02 -0.25948863875E+03  0.28608367388E+03  0.00000000000E+00 0.  1.
          3    1    6    6  503    0 -0.34520680390E+02  0.37827264684E+01  0.10539385930E+03  0.11096779700E+03  0.00000000000E+00 0. -1.
         -3    1    6    6    0  503 -0.80369531519E+02  0.47862003069E+02  0.38972933991E+02  0.10133569222E+03  0.00000000000E+00 0.  1.
<mgrwt>
<rscale>  0 0.17774301E+04</rscale>
<asrwt>0</asrwt>
<pdfrwt beam="1">  1        2 0.11893230E+00 0.17774301E+04</pdfrwt>
<pdfrwt beam="2">  1       -1 0.15718046E+00 0.17774301E+04</pdfrwt>
<totfact> 0.11950102E+01</totfact>
</mgrwt>
</event>
<event>
12    6  0.9491186E-008  0.1599772E+04  0.7818608E-02  0.8820688E-01
         -1   -1    0    0    0  501 -0.00000000000E+00  0.00000000000E+00  0.22611726406E+03  0.22611726406E+03  0.00000000000E+00 0.  1.
          2   -1    0    0  501    0  0.00000000000E+00 -0.00000000000E+00 -0.28295841671E+04  0.28295841671E+04  0.00000000000E+00 0. -1.
         24    2    1    2    0    0 -0.47795969359E+03  0.60035253583E+02 -0.44879860658E+03  0.66496927417E+03  0.93350125620E+02 0.  0.
        254    2    1    2    0    0  0.47795969359E+03 -0.60035253583E+02 -0.21546682965E+04  0.23907321570E+04  0.91703602890E+03 0.  0.
         23    2    4    4    0    0 -0.20925461595E+03 -0.22160321711E+03 -0.55025747252E+03  0.63557702689E+03  0.90991158461E+02 0.  0.
         23    2    4    4    0    0  0.68721430954E+03  0.16156796353E+03 -0.16044108239E+04  0.17551551301E+04  0.89820513518E+02 0.  0.
          2    1    3    3  502    0 -0.24880108128E+02 -0.11570751784E+02 -0.74828277427E+01  0.28441075724E+02  0.00000000000E+00 0. -1.
         -1    1    3    3    0  502 -0.45307958546E+03  0.71606005367E+02 -0.44131577884E+03  0.63652819845E+03  0.00000000000E+00 0.  1.
         11    1    5    5    0    0 -0.18766953330E+03 -0.17133131335E+03 -0.50187988862E+03  0.56254572727E+03  0.00000000000E+00 0.  1.
        -11    1    5    5    0    0 -0.21585082641E+02 -0.50271903765E+02 -0.48377583898E+02  0.73031299623E+02  0.00000000000E+00 0. -1.
          1    1    6    6  503    0  0.86729067446E+02  0.21046802272E+02 -0.28671105251E+03  0.30028008035E+03  0.00000000000E+00 0. -1.
         -1    1    6    6    0  503  0.60048524209E+03  0.14052116126E+03 -0.13176997714E+04  0.14548750497E+04  0.00000000000E+00 0.  1.
<mgrwt>
<rscale>  0 0.15997723E+04</rscale>
<asrwt>0</asrwt>
<pdfrwt beam="1">  1        2 0.43532067E+00 0.15997723E+04</pdfrwt>
<pdfrwt beam="2">  1       -1 0.34787269E-01 0.15997723E+04</pdfrwt>
<totfact> 0.19091889E+01</totfact>
</mgrwt>
</event>
<event>
12    6  0.9491186E-008  0.3916809E+04  0.7818608E-02  0.8021542E-01
         -1   -1    0    0    0  501 -0.00000000000E+00  0.00000000000E+00  0.23879790234E+04  0.23879790234E+04  0.00000000000E+00 0.  1.
          2   -1    0    0  501    0  0.00000000000E+00 -0.00000000000E+00 -0.16061063386E+04  0.16061063386E+04  0.00000000000E+00 0. -1.
         24    2    1    2    0    0 -0.64433374945E+03 -0.17326040366E+04  0.52773412807E+03  0.19239732360E+04  0.78019064847E+02 0.  0.
        254    2    1    2    0    0  0.64433374945E+03  0.17326040366E+04  0.25413855674E+03  0.20701121260E+04  0.89649042367E+03 0.  0.
         23    2    4    4    0    0  0.55875692773E+02  0.85455281915E+02 -0.21707417578E+03  0.25637777918E+03  0.90463636991E+02 0.  0.
         23    2    4    4    0    0  0.58845805667E+03  0.16471487547E+04  0.47121273252E+03  0.18137343468E+04  0.90603183700E+02 0.  0.
          2    1    3    3  502    0 -0.70828963294E+02 -0.24909413549E+03  0.92497165800E+02  0.27499155633E+03  0.00000000000E+00 0. -1.
         -1    1    3    3    0  502 -0.57350478615E+03 -0.14835099011E+04  0.43523696227E+03  0.16489816797E+04  0.00000000000E+00 0.  1.
         11    1    5    5    0    0  0.80485297070E+02  0.73301105652E+02 -0.16926687091E+03  0.20125160551E+03  0.00000000000E+00 0.  1.
        -11    1    5    5    0    0 -0.24609604298E+02  0.12154176263E+02 -0.47807304870E+02  0.55126173668E+02  0.00000000000E+00 0. -1.
          3    1    6    6  503    0  0.57106335786E+02  0.11074645950E+03  0.16801131741E+02  0.12573062438E+03  0.00000000000E+00 0. -1.
         -3    1    6    6    0  503  0.53135172089E+03  0.15364022952E+04  0.45441160077E+03  0.16880037224E+04  0.00000000000E+00 0.  1.
<mgrwt>
<rscale>  0 0.39168090E+04</rscale>
<asrwt>0</asrwt>
<pdfrwt beam="1">  1        2 0.24709328E+00 0.39168090E+04</pdfrwt>
<pdfrwt beam="2">  1       -1 0.36738139E+00 0.39168090E+04</pdfrwt>
<totfact> 0.11897977E-01</totfact>
</mgrwt>
</event>
<event>
12    6  0.9491186E-008  0.1936880E+04  0.7818608E-02  0.8636714E-01
          2   -1    0    0  501    0  0.00000000000E+00  0.00000000000E+00  0.19880094424E+04  0.19880094424E+04  0.00000000000E+00 0. -1.
         -3   -1    0    0    0  501 -0.00000000000E+00 -0.00000000000E+00 -0.47176619448E+03  0.47176619448E+03  0.00000000000E+00 0.  1.
         24    2    1    2    0    0  0.61968340930E+03  0.26258293365E+03  0.10501619460E+04  0.12499000657E+04  0.80328927019E+02 0.  0.
        254    2    1    2    0    0 -0.61968340930E+03 -0.26258293365E+03  0.46608130186E+03  0.12098755712E+04  0.89084779449E+03 0.  0.
         23    2    4    4    0    0 -0.43147293260E+03 -0.24873557692E+03  0.72002245321E+03  0.88031871745E+03  0.92143542275E+02 0.  0.
         23    2    4    4    0    0 -0.18821047670E+03 -0.13847356729E+02 -0.25394115135E+03  0.32955685371E+03  0.92231657545E+02 0.  0.
          4    1    3    3  502    0  0.55989619628E+03  0.21769227524E+03  0.89866222267E+03  0.10809567372E+04  0.00000000000E+00 0. -1.
         -3    1    3    3    0  502  0.59787213019E+02  0.44890658407E+02  0.15149972335E+03  0.16894332845E+03  0.00000000000E+00 0.  1.
         11    1    5    5    0    0 -0.13432123890E+03 -0.62561074335E+02  0.28813875925E+03  0.32400621572E+03  0.00000000000E+00 0.  1.
        -11    1    5    5    0    0 -0.29715169370E+03 -0.18617450258E+03  0.43188369396E+03  0.55631250174E+03  0.00000000000E+00 0. -1.
          3    1    6    6  503    0 -0.19844335023E+03 -0.16663167774E+02 -0.24462945157E+03  0.31543777990E+03  0.00000000000E+00 0. -1.
         -3    1    6    6    0  503  0.10232873534E+02  0.28158110442E+01 -0.93116997740E+01  0.14119073811E+02  0.00000000000E+00 0.  1.
<mgrwt>
<rscale>  0 0.19368796E+04</rscale>
<asrwt>0</asrwt>
<pdfrwt beam="1">  1        2 0.30584760E+00 0.19368796E+04</pdfrwt>
<pdfrwt beam="2">  1       -3 0.72579415E-01 0.19368796E+04</pdfrwt>
<totfact> 0.73104353E+00</totfact>
</mgrwt>
</event>
<event>
12    6  0.9491186E-008  0.1822345E+04  0.7818608E-02  0.8694506E-01
          2   -1    0    0  501    0  0.00000000000E+00  0.00000000000E+00  0.52737669659E+03  0.52737669659E+03  0.00000000000E+00 0. -1.
         -1   -1    0    0    0  501 -0.00000000000E+00 -0.00000000000E+00 -0.15742740039E+04  0.15742740039E+04  0.00000000000E+00 0.  1.
         24    2    1    2    0    0  0.34520840590E+03  0.57941667023E+03 -0.53441513871E+03  0.86398331094E+03  0.77298770090E+02 0.  0.
        254    2    1    2    0    0 -0.34520840590E+03 -0.57941667023E+03 -0.51248216860E+03  0.12376673896E+04  0.90238022628E+03 0.  0.
         23    2    4    4    0    0 -0.47798586008E+03 -0.36374168191E+03  0.53012537876E+02  0.61014226585E+03  0.93192069495E+02 0.  0.
         23    2    4    4    0    0  0.13277745418E+03 -0.21567498833E+03 -0.56549470648E+03  0.62752512370E+03  0.99287284643E+02 0.  0.
          2    1    3    3  502    0  0.10119943698E+01  0.28463681324E+02 -0.14749281157E+02  0.32074079594E+02  0.00000000000E+00 0. -1.
         -1    1    3    3    0  502  0.34419641153E+03  0.55095298891E+03 -0.51966585755E+03  0.83190923135E+03  0.00000000000E+00 0.  1.
         11    1    5    5    0    0 -0.17843846977E+03 -0.15749785974E+03 -0.21264531603E+02  0.23895196927E+03  0.00000000000E+00 0.  1.
        -11    1    5    5    0    0 -0.29954739031E+03 -0.20624382217E+03  0.74277069479E+02  0.37119029658E+03  0.00000000000E+00 0. -1.
          1    1    6    6  503    0  0.14811970773E+03 -0.18226839768E+03 -0.47653236732E+03  0.53126670677E+03  0.00000000000E+00 0. -1.
         -1    1    6    6    0  503 -0.15342253552E+02 -0.33406590650E+02 -0.88962339156E+02  0.96258416936E+02  0.00000000000E+00 0.  1.
<mgrwt>
<rscale>  0 0.18223451E+04</rscale>
<asrwt>0</asrwt>
<pdfrwt beam="1">  1        2 0.81134878E-01 0.18223451E+04</pdfrwt>
<pdfrwt beam="2">  1       -1 0.24219600E+00 0.18223451E+04</pdfrwt>
<totfact> 0.48854323E+00</totfact>
</mgrwt>
</event>
<event>
12    6  0.9491186E-008  0.1238563E+04  0.7818608E-02  0.9079756E-01
          2   -1    0    0  501    0  0.00000000000E+00  0.00000000000E+00  0.10059056415E+04  0.10059056415E+04  0.00000000000E+00 0. -1.
         -1   -1    0    0    0  501 -0.00000000000E+00 -0.00000000000E+00 -0.38125820214E+03  0.38125820214E+03  0.00000000000E+00 0.  1.
         24    2    1    2    0    0 -0.29231992531E+03  0.44719105836E+02  0.20499122038E+03  0.36843745114E+03  0.79208697832E+02 0.  0.
        254    2    1    2    0    0  0.29231992531E+03 -0.44719105836E+02  0.41965621899E+03  0.10187263925E+04  0.87990987238E+03 0.  0.
         23    2    4    4    0    0  0.16731983817E+03  0.91778418922E+02 -0.24400618731E+03  0.32364424803E+03  0.93740991105E+02 0.  0.
         23    2    4    4    0    0  0.12500008714E+03 -0.13649752476E+03  0.66366240631E+03  0.69508214448E+03  0.91841178067E+02 0.  0.
          2    1    3    3  502    0 -0.26543732384E+03  0.63017300997E+02  0.19103293657E+03  0.33304914948E+03  0.00000000000E+00 0. -1.
         -3    1    3    3    0  502 -0.26882601466E+02 -0.18298195161E+02  0.13958283810E+02  0.35388301664E+02  0.00000000000E+00 0.  1.
         11    1    5    5    0    0  0.11215271153E+03  0.87154744527E+01 -0.11924963172E+03  0.16393494095E+03  0.00000000000E+00 0. -1.
        -11    1    5    5    0    0  0.55167126634E+02  0.83062944470E+02 -0.12475655560E+03  0.15970930709E+03  0.00000000000E+00 0.  1.
          3    1    6    6  503    0 -0.13315856286E+02 -0.86436266230E+01  0.29020268869E+02  0.33078698812E+02  0.00000000000E+00 0. -1.
         -3    1    6    6    0  503  0.13831594342E+03 -0.12785389813E+03  0.63464213744E+03  0.66200344567E+03  0.00000000000E+00 0.  1.
<mgrwt>
<rscale>  0 0.12385633E+04</rscale>
<asrwt>0</asrwt>
<pdfrwt beam="1">  1        2 0.15475471E+00 0.12385633E+04</pdfrwt>
<pdfrwt beam="2">  1       -1 0.58655108E-01 0.12385633E+04</pdfrwt>
<totfact> 0.82577837E+01</totfact>
</mgrwt>
</event>
<event>
12    6  0.9491186E-008  0.1790631E+04  0.7818608E-02  0.8711298E-01
         -1   -1    0    0    0  501 -0.00000000000E+00  0.00000000000E+00  0.25200258829E+03  0.25200258829E+03  0.00000000000E+00 0.  1.
          2   -1    0    0  501    0  0.00000000000E+00 -0.00000000000E+00 -0.31808807433E+04  0.31808807433E+04  0.00000000000E+00 0. -1.
         24    2    1    2    0    0  0.17736988262E+03  0.50604914659E+03 -0.18493324720E+04  0.19271765339E+04  0.80205902801E+02 0.  0.
        254    2    1    2    0    0 -0.17736988262E+03 -0.50604914659E+03 -0.10795456831E+04  0.15057067977E+04  0.90232381376E+03 0.  0.
         23    2    4    4    0    0 -0.19021186217E+03  0.12195860409E+03  0.10606762318E+02  0.24421089385E+03  0.92043487781E+02 0.  0.
         23    2    4    4    0    0  0.12841979557E+02 -0.62800775068E+03 -0.10901524454E+04  0.12614959039E+04  0.91547310020E+02 0.  0.
          2    1    3    3  502    0  0.15737791036E+03  0.36420086439E+03 -0.14318606081E+04  0.14858111849E+04  0.00000000000E+00 0. -1.
         -1    1    3    3    0  502  0.19991972261E+02  0.14184828220E+03 -0.41747186391E+03  0.44136534898E+03  0.00000000000E+00 0.  1.
         11    1    5    5    0    0  0.97652500851E+01  0.11654237360E+02 -0.27000111009E+01  0.15442519795E+02  0.00000000000E+00 0. -1.
        -11    1    5    5    0    0 -0.19997711226E+03  0.11030436673E+03  0.13306773419E+02  0.22876837405E+03  0.00000000000E+00 0.  1.
          1    1    6    6  503    0  0.49511022379E+02 -0.32228396858E+03 -0.59219347612E+03  0.67602619099E+03  0.00000000000E+00 0. -1.
         -1    1    6    6    0  503 -0.36669042822E+02 -0.30572378210E+03 -0.49795896926E+03  0.58546971289E+03  0.00000000000E+00 0.  1.
<mgrwt>
<rscale>  0 0.17906314E+04</rscale>
<asrwt>0</asrwt>
<pdfrwt beam="1">  1        2 0.48936630E+00 0.17906314E+04</pdfrwt>
<pdfrwt beam="2">  1       -1 0.38769627E-01 0.17906314E+04</pdfrwt>
<totfact> 0.93064891E+00</totfact>
</mgrwt>
</event>
<event>
12    6  0.9491186E-008  0.1552147E+04  0.7818608E-02  0.8850497E-01
         -1   -1    0    0    0  501 -0.00000000000E+00  0.00000000000E+00  0.79325490927E+03  0.79325490927E+03  0.00000000000E+00 0.  1.
          2   -1    0    0  501    0  0.00000000000E+00 -0.00000000000E+00 -0.75926428870E+03  0.75926428870E+03  0.00000000000E+00 0. -1.
         24    2    1    2    0    0 -0.91116144724E+02  0.13433986566E+03  0.49296552940E+03  0.52451755082E+03  0.75857080154E+02 0.  0.
        254    2    1    2    0    0  0.91116144724E+02 -0.13433986566E+03 -0.45897490883E+03  0.10280016471E+04  0.90541706868E+03 0.  0.
         23    2    4    4    0    0  0.17022962566E+03 -0.49074253686E+03 -0.17024025681E+03  0.55312812273E+03  0.84632217167E+02 0.  0.
         23    2    4    4    0    0 -0.79113480941E+02  0.35640267120E+03 -0.28873465202E+03  0.47487352441E+03  0.94102911804E+02 0.  0.
          4    1    3    3  502    0  0.13691596792E+02  0.14855636572E+02  0.52404926972E+02  0.56164278074E+02  0.00000000000E+00 0. -1.
         -3    1    3    3    0  502 -0.10480774152E+03  0.11948422909E+03  0.44056060243E+03  0.46835327275E+03  0.00000000000E+00 0.  1.
         11    1    5    5    0    0  0.56403999069E+02 -0.11208577643E+03 -0.75853986953E+02  0.14662353060E+03  0.00000000000E+00 0. -1.
        -11    1    5    5    0    0  0.11382562660E+03 -0.37865676042E+03 -0.94386269861E+02  0.40650459213E+03  0.00000000000E+00 0.  1.
          2    1    6    6  503    0 -0.42090175703E+01  0.64219432196E+02 -0.11875348313E+02  0.65443679588E+02  0.00000000000E+00 0. -1.
         -2    1    6    6    0  503 -0.74904463370E+02  0.29218323900E+03 -0.27685930370E+03  0.40942984482E+03  0.00000000000E+00 0.  1.
<mgrwt>
<rscale>  0 0.15521471E+04</rscale>
<asrwt>0</asrwt>
<pdfrwt beam="1">  1        2 0.11680989E+00 0.15521471E+04</pdfrwt>
<pdfrwt beam="2">  1       -1 0.12203922E+00 0.15521471E+04</pdfrwt>
<totfact> 0.24093974E+01</totfact>
</mgrwt>
</event>
<event>
12    6  0.9491186E-008  0.2779297E+04  0.7818608E-02  0.8309725E-01
         -1   -1    0    0    0  501 -0.00000000000E+00  0.00000000000E+00  0.75827195538E+03  0.75827195538E+03  0.00000000000E+00 0.  1.
          2   -1    0    0  501    0  0.00000000000E+00 -0.00000000000E+00 -0.25467412489E+04  0.25467412489E+04  0.00000000000E+00 0. -1.
         24    2    1    2    0    0 -0.10660884185E+04 -0.25324699427E+03 -0.14830957213E+04  0.18457351935E+04  0.80541478678E+02 0.  0.
        254    2    1    2    0    0  0.10660884185E+04  0.25324699427E+03 -0.30537357218E+03  0.14592780108E+04  0.91409011487E+03 0.  0.
         23    2    4    4    0    0  0.60233394012E+03  0.43556110346E+03  0.16583746479E+03  0.76745113542E+03  0.94654795216E+02 0.  0.
         23    2    4    4    0    0  0.46375447834E+03 -0.18231410918E+03 -0.47121103698E+03  0.69182687537E+03  0.90983149710E+02 0.  0.
          2    1    3    3  502    0 -0.10542246764E+04 -0.25840855941E+03 -0.14701627673E+04  0.18274417130E+04  0.00000000000E+00 0. -1.
         -1    1    3    3    0  502 -0.11863742016E+02  0.51615651369E+01 -0.12932954062E+02  0.18293480534E+02  0.00000000000E+00 0.  1.
         11    1    5    5    0    0  0.48496986077E+03  0.30237745266E+03  0.11744199399E+03  0.58345566385E+03  0.00000000000E+00 0.  1.
        -11    1    5    5    0    0  0.11736407936E+03  0.13318365079E+03  0.48395470806E+02  0.18399547156E+03  0.00000000000E+00 0. -1.
          1    1    6    6  503    0  0.39127193346E+03 -0.16216209250E+03 -0.35132350062E+03  0.55028944406E+03  0.00000000000E+00 0. -1.
         -1    1    6    6    0  503  0.72482544879E+02 -0.20152016683E+02 -0.11988753635E+03  0.14153743131E+03  0.00000000000E+00 0.  1.
<mgrwt>
<rscale>  0 0.27792966E+04</rscale>
<asrwt>0</asrwt>
<pdfrwt beam="1">  1        2 0.39180635E+00 0.27792966E+04</pdfrwt>
<pdfrwt beam="2">  1       -1 0.11665722E+00 0.27792966E+04</pdfrwt>
<totfact> 0.21480968E+00</totfact>
</mgrwt>
</event>
<event>
12    6  0.9491186E-008  0.2187063E+04  0.7818608E-02  0.8523832E-01
          2   -1    0    0  501    0  0.00000000000E+00  0.00000000000E+00  0.13400445522E+04  0.13400445522E+04  0.00000000000E+00 0. -1.
         -1   -1    0    0    0  501 -0.00000000000E+00 -0.00000000000E+00 -0.89236677133E+03  0.89236677133E+03  0.00000000000E+00 0.  1.
         24    2    1    2    0    0 -0.64193650960E+03  0.90588977644E+02 -0.46943205392E+03  0.80443736893E+03  0.80400137246E+02 0.  0.
        254    2    1    2    0    0  0.64193650960E+03 -0.90588977644E+02  0.91710983478E+03  0.14279739546E+04  0.88189019764E+03 0.  0.
         23    2    4    4    0    0  0.49824386312E+02  0.33671207599E+03  0.36951354454E+03  0.51071898644E+03  0.91848418179E+02 0.  0.
         23    2    4    4    0    0  0.59211212328E+03 -0.42730105363E+03  0.54759629024E+03  0.91725496814E+03  0.91170294105E+02 0.  0.
          2    1    3    3  502    0 -0.21850326217E+03  0.40539412274E+02 -0.20739581442E+03  0.30397391889E+03  0.00000000000E+00 0. -1.
         -3    1    3    3    0  502 -0.42343324743E+03  0.50049565370E+02 -0.26203623949E+03  0.50046345004E+03  0.00000000000E+00 0.  1.
         11    1    5    5    0    0 -0.15563264486E+02  0.37307335098E+02  0.77505041089E+02  0.87413293313E+02  0.00000000000E+00 0. -1.
        -11    1    5    5    0    0  0.65387650798E+02  0.29940474089E+03  0.29200850345E+03  0.42330569313E+03  0.00000000000E+00 0.  1.
          1    1    6    6  503    0  0.36321373629E+03 -0.25590448564E+03  0.27713548686E+03  0.52365580497E+03  0.00000000000E+00 0. -1.
         -1    1    6    6    0  503  0.22889838699E+03 -0.17139656799E+03  0.27046080338E+03  0.39359916318E+03  0.00000000000E+00 0.  1.
<mgrwt>
<rscale>  0 0.21870631E+04</rscale>
<asrwt>0</asrwt>
<pdfrwt beam="1">  1        2 0.20616070E+00 0.21870631E+04</pdfrwt>
<pdfrwt beam="2">  1       -1 0.13728719E+00 0.21870631E+04</pdfrwt>
<totfact> 0.72075830E+00</totfact>
</mgrwt>
</event>
<event>
12    6  0.9491186E-008  0.2804876E+04  0.7818608E-02  0.8301756E-01
         -1   -1    0    0    0  501 -0.00000000000E+00  0.00000000000E+00  0.13043408059E+04  0.13043408059E+04  0.00000000000E+00 0.  1.
          2   -1    0    0  501    0  0.00000000000E+00 -0.00000000000E+00 -0.15079134108E+04  0.15079134108E+04  0.00000000000E+00 0. -1.
         24    2    1    2    0    0  0.11003180706E+04  0.52558380095E+03  0.18947002156E+03  0.12365911163E+04  0.79501644583E+02 0.  0.
        254    2    1    2    0    0 -0.11003180706E+04 -0.52558380095E+03 -0.39304262642E+03  0.15756631004E+04  0.91722053592E+03 0.  0.
         23    2    4    4    0    0 -0.95186247158E+03 -0.63966530265E+03 -0.22670021299E+02  0.11507504832E+04  0.92189373390E+02 0.  0.
         23    2    4    4    0    0 -0.14845559903E+03  0.11408150171E+03 -0.37037260512E+03  0.42491261719E+03  0.91220675879E+02 0.  0.
          2    1    3    3  502    0  0.37309157753E+03  0.19671773671E+03  0.99944237731E+02  0.43345593065E+03  0.00000000000E+00 0. -1.
         -1    1    3    3    0  502  0.72722649308E+03  0.32886606423E+03  0.89525783828E+02  0.80313518564E+03  0.00000000000E+00 0.  1.
         11    1    5    5    0    0 -0.33368082806E+03 -0.18134729181E+03  0.17254298877E+02  0.38016765524E+03  0.00000000000E+00 0. -1.
        -11    1    5    5    0    0 -0.61818164352E+03 -0.45831801085E+03 -0.39924320176E+02  0.77058282799E+03  0.00000000000E+00 0.  1.
          2    1    6    6  503    0  0.91345111104E+01  0.94714636646E+00 -0.46388845492E+02  0.47289125236E+02  0.00000000000E+00 0. -1.
         -2    1    6    6    0  503 -0.15759011014E+03  0.11313435534E+03 -0.32398375963E+03  0.37762349195E+03  0.00000000000E+00 0.  1.
<mgrwt>
<rscale>  0 0.28048765E+04</rscale>
<asrwt>0</asrwt>
<pdfrwt beam="1">  1        2 0.23198668E+00 0.28048765E+04</pdfrwt>
<pdfrwt beam="2">  1       -1 0.20066782E+00 0.28048765E+04</pdfrwt>
<totfact> 0.18532255E+00</totfact>
</mgrwt>
</event>
<event>
12    6  0.9491186E-008  0.1218795E+04  0.7818608E-02  0.9096563E-01
         -1   -1    0    0    0  501 -0.00000000000E+00  0.00000000000E+00  0.15145074924E+03  0.15145074924E+03  0.00000000000E+00 0.  1.
          2   -1    0    0  501    0  0.00000000000E+00 -0.00000000000E+00 -0.24520519196E+04  0.24520519196E+04  0.00000000000E+00 0. -1.
         24    2    1    2    0    0  0.13895650442E+03  0.87013068219E+00 -0.44990787108E+02  0.16609592867E+03  0.79082358020E+02 0.  0.
        254    2    1    2    0    0 -0.13895650442E+03 -0.87013068219E+00 -0.22556103832E+04  0.24374067401E+04  0.91316140344E+03 0.  0.
         23    2    4    4    0    0  0.47575617290E+02  0.38440424488E+03 -0.16015238920E+04  0.16502353762E+04  0.91476539733E+02 0.  0.
         23    2    4    4    0    0 -0.18653212171E+03 -0.38527437556E+03 -0.65408649119E+03  0.78717136392E+03  0.92623114451E+02 0.  0.
          4    1    3    3  502    0  0.32546649641E+02  0.32498139962E+02  0.82824983743E+00  0.46001081527E+02  0.00000000000E+00 0. -1.
         -3    1    3    3    0  502  0.10640985478E+03 -0.31628009280E+02 -0.45819036946E+02  0.12009484715E+03  0.00000000000E+00 0.  1.
         11    1    5    5    0    0 -0.13736459720E+02  0.57594574131E+02 -0.15348372818E+03  0.16450860194E+03  0.00000000000E+00 0.  1.
        -11    1    5    5    0    0  0.61312077010E+02  0.32680967075E+03 -0.14480401638E+04  0.14857267743E+04  0.00000000000E+00 0. -1.
          2    1    6    6  503    0 -0.14451465739E+03 -0.24077726996E+03 -0.48817696585E+03  0.56318285655E+03  0.00000000000E+00 0. -1.
         -2    1    6    6    0  503 -0.42017464312E+02 -0.14449710560E+03 -0.16590952534E+03  0.22398850737E+03  0.00000000000E+00 0.  1.
<mgrwt>
<rscale>  0 0.12187947E+04</rscale>
<asrwt>0</asrwt>
<pdfrwt beam="1">  1        2 0.37723875E+00 0.12187947E+04</pdfrwt>
<pdfrwt beam="2">  1       -1 0.23300115E-01 0.12187947E+04</pdfrwt>
<totfact> 0.66176987E+01</totfact>
</mgrwt>
</event>
<event>
12    6  0.9491186E-008  0.1524364E+04  0.7818608E-02  0.8868411E-01
          2   -1    0    0  501    0  0.00000000000E+00  0.00000000000E+00  0.36483812740E+03  0.36483812740E+03  0.00000000000E+00 0. -1.
         -1   -1    0    0    0  501 -0.00000000000E+00 -0.00000000000E+00 -0.15922719297E+04  0.15922719297E+04  0.00000000000E+00 0.  1.
         24    2    1    2    0    0  0.34822686135E+02  0.48971574071E+03 -0.30542726102E+03  0.58382390242E+03  0.80810959056E+02 0.  0.
        254    2    1    2    0    0 -0.34822686135E+02 -0.48971574071E+03 -0.92200654130E+03  0.13732861547E+04  0.89150696819E+03 0.  0.
         23    2    4    4    0    0 -0.35670588146E+03 -0.36471177667E+03 -0.17635817502E+03  0.54654169180E+03  0.85742924297E+02 0.  0.
         23    2    4    4    0    0  0.32188319533E+03 -0.12500396403E+03 -0.74564836628E+03  0.82674446290E+03  0.90995265501E+02 0.  0.
          4    1    3    3  502    0  0.36228149362E+02  0.16888618050E+03 -0.14287778329E+03  0.22416306950E+03  0.00000000000E+00 0. -1.
         -3    1    3    3    0  502 -0.14054632271E+01  0.32082956021E+03 -0.16254947772E+03  0.35966083292E+03  0.00000000000E+00 0.  1.
         11    1    5    5    0    0 -0.71102507168E+02 -0.39378904491E+02 -0.50573475530E+02  0.95728475762E+02  0.00000000000E+00 0.  1.
        -11    1    5    5    0    0 -0.28560337429E+03 -0.32533287218E+03 -0.12578469949E+03  0.45081321604E+03  0.00000000000E+00 0. -1.
          4    1    6    6  503    0  0.18730437359E+02 -0.10545731623E+02 -0.12258365673E+03  0.12445398602E+03  0.00000000000E+00 0.  1.
         -4    1    6    6    0  503  0.30315275797E+03 -0.11445823241E+03 -0.62306470955E+03  0.70229047688E+03  0.00000000000E+00 0. -1.
<mgrwt>
<rscale>  0 0.15243641E+04</rscale>
<asrwt>0</asrwt>
<pdfrwt beam="1">  1        2 0.56128944E-01 0.15243641E+04</pdfrwt>
<pdfrwt beam="2">  1       -1 0.24496491E+00 0.15243641E+04</pdfrwt>
<totfact> 0.73245560E+00</totfact>
</mgrwt>
</event>
<event>
12    6  0.9491186E-008  0.1945037E+04  0.7818608E-02  0.8632758E-01
         -3   -1    0    0    0  501 -0.00000000000E+00  0.00000000000E+00  0.95038026459E+03  0.95038026459E+03  0.00000000000E+00 0.  1.
          4   -1    0    0  501    0  0.00000000000E+00 -0.00000000000E+00 -0.99517213844E+03  0.99517213844E+03  0.00000000000E+00 0. -1.
         24    2    1    2    0    0 -0.17344886882E+03  0.59182837117E+03  0.30905470873E+03  0.69683502559E+03  0.98584526609E+02 0.  0.
        254    2    1    2    0    0  0.17344886882E+03 -0.59182837117E+03 -0.35384658258E+03  0.12487173774E+04  0.10265195340E+04 0.  0.
         23    2    4    4    0    0 -0.20870120159E+03 -0.57679907411E+03  0.12141024163E+03  0.63190163470E+03  0.91136522422E+02 0.  0.
         23    2    4    4    0    0  0.38215007041E+03 -0.15029297056E+02 -0.47525682420E+03  0.61681574275E+03  0.91258180237E+02 0.  0.
          2    1    3    3  502    0 -0.11654193360E+03  0.41274690915E+03  0.26392577755E+03  0.50358599003E+03  0.00000000000E+00 0. -1.
         -1    1    3    3    0  502 -0.56906935226E+02  0.17908146202E+03  0.45128931178E+02  0.19324903556E+03  0.00000000000E+00 0.  1.
         11    1    5    5    0    0 -0.61352512128E+02 -0.23146289778E+03  0.87394632058E+02  0.25490591501E+03  0.00000000000E+00 0. -1.
        -11    1    5    5    0    0 -0.14734868947E+03 -0.34533617633E+03  0.34015609568E+02  0.37699571969E+03  0.00000000000E+00 0.  1.
          1    1    6    6  503    0  0.27896200851E+01 -0.11848850619E+02 -0.26673348443E+02  0.29319699152E+02  0.00000000000E+00 0. -1.
         -1    1    6    6    0  503  0.37936045033E+03 -0.31804464372E+01 -0.44858347576E+03  0.58749604359E+03  0.00000000000E+00 0.  1.
<mgrwt>
<rscale>  0 0.19450367E+04</rscale>
<asrwt>0</asrwt>
<pdfrwt beam="1">  1        4 0.15310341E+00 0.19450367E+04</pdfrwt>
<pdfrwt beam="2">  1       -3 0.14621235E+00 0.19450367E+04</pdfrwt>
<totfact> 0.20724220E-01</totfact>
</mgrwt>
</event>
<event>
12    6  0.1189498E-007  0.1293728E+04  0.7818608E-02  0.9034554E-01
         -1   -1    0    0    0  501 -0.00000000000E+00  0.00000000000E+00  0.31333389390E+03  0.31333389390E+03  0.00000000000E+00 0.  1.
          2   -1    0    0  501    0  0.00000000000E+00 -0.00000000000E+00 -0.13354222855E+04  0.13354222855E+04  0.00000000000E+00 0. -1.
         24    2    1    2    0    0 -0.29600404851E+02 -0.25814196440E+02 -0.66828416235E+03  0.67790063621E+03  0.10678480335E+03 0.  0.
        254    2    1    2    0    0  0.29600404851E+02  0.25814196440E+02 -0.35380422923E+03  0.97085554317E+03  0.90323889220E+03 0.  0.
         23    2    4    4    0    0 -0.41497435379E+03 -0.91713512325E+02 -0.19502744980E+03  0.47630788381E+03  0.90655454144E+02 0.  0.
         23    2    4    4    0    0  0.44457475864E+03  0.11752770876E+03 -0.15877677943E+03  0.49454765936E+03  0.88926055487E+02 0.  0.
          2    1    3    3  502    0 -0.45574831704E+02 -0.36274992520E+02 -0.64571746156E+03  0.64833940227E+03  0.00000000000E+00 0. -1.
         -1    1    3    3    0  502  0.15974426853E+02  0.10460796080E+02 -0.22566700784E+02  0.29561233942E+02  0.00000000000E+00 0.  1.
         11    1    5    5    0    0 -0.37985592544E+03 -0.55509031794E+02 -0.17716909236E+03  0.42280097445E+03  0.00000000000E+00 0. -1.
        -11    1    5    5    0    0 -0.35118428344E+02 -0.36204480531E+02 -0.17858357439E+02  0.53506909370E+02  0.00000000000E+00 0.  1.
          3    1    6    6  503    0  0.38164073835E+03  0.13154393731E+03 -0.13168102606E+03  0.42460964807E+03  0.00000000000E+00 0. -1.
         -3    1    6    6    0  503  0.62934020289E+02 -0.14016228541E+02 -0.27095753372E+02  0.69938011289E+02  0.00000000000E+00 0.  1.
<mgrwt>
<rscale>  0 0.12937280E+04</rscale>
<asrwt>0</asrwt>
<pdfrwt beam="1">  1        2 0.20544958E+00 0.12937280E+04</pdfrwt>
<pdfrwt beam="2">  1       -1 0.48205215E-01 0.12937280E+04</pdfrwt>
<totfact> 0.75791354E+01</totfact>
</mgrwt>
</event>
<event>
12    6  0.9491186E-008  0.4345477E+04  0.7818608E-02  0.7938262E-01
         -1   -1    0    0    0  501 -0.00000000000E+00  0.00000000000E+00  0.14579246847E+04  0.14579246847E+04  0.00000000000E+00 0.  1.
          2   -1    0    0  501    0  0.00000000000E+00 -0.00000000000E+00 -0.32380225772E+04  0.32380225772E+04  0.00000000000E+00 0. -1.
         24    2    1    2    0    0 -0.13178497943E+04  0.12822776993E+04  0.20608889125E+03  0.18519686509E+04  0.79693628066E+02 0.  0.
        254    2    1    2    0    0  0.13178497943E+04 -0.12822776993E+04 -0.19861867838E+04  0.28439786110E+04  0.87310493143E+03 0.  0.
         23    2    4    4    0    0  0.69408768840E+03 -0.76843482874E+03 -0.50901561763E+03  0.11577813822E+04  0.95451687595E+02 0.  0.
         23    2    4    4    0    0  0.62376210589E+03 -0.51384287057E+03 -0.14771711662E+04  0.16861972288E+04  0.90070972380E+02 0.  0.
          4    1    3    3  502    0 -0.23438010104E+03  0.26552383343E+03  0.23306707092E+02  0.35493681195E+03  0.00000000000E+00 0. -1.
         -3    1    3    3    0  502 -0.10834696932E+04  0.10167538659E+04  0.18278218416E+03  0.14970318389E+04  0.00000000000E+00 0.  1.
         11    1    5    5    0    0  0.23989588667E+03 -0.24343297898E+03 -0.21575088521E+03  0.40417582333E+03  0.00000000000E+00 0.  1.
        -11    1    5    5    0    0  0.45419180173E+03 -0.52500184976E+03 -0.29326473243E+03  0.75360555883E+03  0.00000000000E+00 0. -1.
          2    1    6    6  503    0  0.59208685207E+03 -0.46622867836E+03 -0.13362107600E+04  0.15340779693E+04  0.00000000000E+00 0. -1.
         -2    1    6    6    0  503  0.31675253820E+02 -0.47614192215E+02 -0.14096040617E+03  0.15211925950E+03  0.00000000000E+00 0.  1.
<mgrwt>
<rscale>  0 0.43454772E+04</rscale>
<asrwt>0</asrwt>
<pdfrwt beam="1">  1        2 0.49815732E+00 0.43454772E+04</pdfrwt>
<pdfrwt beam="2">  1       -1 0.22429611E+00 0.43454772E+04</pdfrwt>
<totfact> 0.10975200E-01</totfact>
</mgrwt>
</event>
<event>
12    6  0.9491186E-008  0.2029716E+04  0.7818608E-02  0.8592852E-01
          2   -1    0    0  501    0  0.00000000000E+00  0.00000000000E+00  0.18930960137E+04  0.18930960137E+04  0.00000000000E+00 0. -1.
         -1   -1    0    0    0  501 -0.00000000000E+00 -0.00000000000E+00 -0.54404882225E+03  0.54404882225E+03  0.00000000000E+00 0.  1.
         24    2    1    2    0    0 -0.47194762917E+03 -0.91760101847E+02 -0.24114696540E+03  0.54441954828E+03  0.84180191577E+02 0.  0.
        254    2    1    2    0    0  0.47194762917E+03  0.91760101847E+02  0.15901941568E+04  0.18927252877E+04  0.90693829842E+03 0.  0.
         23    2    4    4    0    0  0.50073380592E+03 -0.70047506418E+02  0.31348822151E+03  0.60155917343E+03  0.89205249629E+02 0.  0.
         23    2    4    4    0    0 -0.28786176748E+02  0.16180760827E+03  0.12767059353E+04  0.12911661142E+04  0.10060588044E+03 0.  0.
          2    1    3    3  502    0 -0.16183216031E+03  0.32759732823E+01 -0.10311520861E+03  0.19191958305E+03  0.00000000000E+00 0. -1.
         -1    1    3    3    0  502 -0.31011546886E+03 -0.95036075130E+02 -0.13803175679E+03  0.35249996523E+03  0.00000000000E+00 0.  1.
         11    1    5    5    0    0  0.46502076098E+03 -0.85370282185E+02  0.30208416583E+03  0.56105903118E+03  0.00000000000E+00 0. -1.
        -11    1    5    5    0    0  0.35713044944E+02  0.15322775766E+02  0.11404055680E+02  0.40500142251E+02  0.00000000000E+00 0.  1.
          2    1    6    6  503    0  0.29535187657E+02  0.71070610018E+02  0.35992434807E+03  0.36806099392E+03  0.00000000000E+00 0.  1.
         -2    1    6    6    0  503 -0.58321364405E+02  0.90736998248E+02  0.91678158727E+03  0.92310512031E+03  0.00000000000E+00 0. -1.
<mgrwt>
<rscale>  0 0.20297159E+04</rscale>
<asrwt>0</asrwt>
<pdfrwt beam="1">  1        2 0.29124554E+00 0.20297159E+04</pdfrwt>
<pdfrwt beam="2">  1       -1 0.83699820E-01 0.20297159E+04</pdfrwt>
<totfact> 0.11443692E+01</totfact>
</mgrwt>
</event>
<event>
12    6  0.9491186E-008  0.2373650E+04  0.7818608E-02  0.8449435E-01
         -1   -1    0    0    0  501 -0.00000000000E+00  0.00000000000E+00  0.70955379552E+03  0.70955379552E+03  0.00000000000E+00 0.  1.
          2   -1    0    0  501    0  0.00000000000E+00 -0.00000000000E+00 -0.19851250415E+04  0.19851250415E+04  0.00000000000E+00 0. -1.
         24    2    1    2    0    0  0.78835792142E+03  0.59091477800E+03 -0.28360563209E+03  0.10284543853E+04  0.81226725110E+02 0.  0.
        254    2    1    2    0    0 -0.78835792142E+03 -0.59091477800E+03 -0.99196561386E+03  0.16662244517E+04  0.90643237882E+03 0.  0.
         23    2    4    4    0    0 -0.60885697792E+03 -0.44310220966E+02 -0.13686209538E+03  0.63220583090E+03  0.91009693016E+02 0.  0.
         23    2    4    4    0    0 -0.17950094350E+03 -0.54660455703E+03 -0.85510351848E+03  0.10340186208E+04  0.83638211668E+02 0.  0.
          2    1    3    3  502    0  0.37500006674E+01  0.13157977131E+02 -0.14653732219E+00  0.13682702232E+02  0.00000000000E+00 0. -1.
         -1    1    3    3    0  502  0.78460792076E+03  0.57775680087E+03 -0.28345909476E+03  0.10147716830E+04  0.00000000000E+00 0.  1.
         11    1    5    5    0    0 -0.25431068884E+03 -0.10103660122E+02 -0.10244046519E+03  0.27435389429E+03  0.00000000000E+00 0. -1.
        -11    1    5    5    0    0 -0.35454628908E+03 -0.34206560844E+02 -0.34421630197E+02  0.35785193661E+03  0.00000000000E+00 0.  1.
          3    1    6    6  503    0 -0.10058078050E+03 -0.41483020693E+03 -0.60249751248E+03  0.73837920239E+03  0.00000000000E+00 0. -1.
         -3    1    6    6    0  503 -0.78920163004E+02 -0.13177435010E+03 -0.25260600600E+03  0.29563941845E+03  0.00000000000E+00 0.  1.
<mgrwt>
<rscale>  0 0.23736495E+04</rscale>
<asrwt>0</asrwt>
<pdfrwt beam="1">  1        2 0.30540385E+00 0.23736495E+04</pdfrwt>
<pdfrwt beam="2">  1       -1 0.10916212E+00 0.23736495E+04</pdfrwt>
<totfact> 0.54269324E+00</totfact>
</mgrwt>
</event>
<event>
12    6  0.9491186E-008  0.1494310E+04  0.7818608E-02  0.8888245E-01
         -3   -1    0    0    0  501 -0.00000000000E+00  0.00000000000E+00  0.85777615715E+03  0.85777615715E+03  0.00000000000E+00 0.  1.
          4   -1    0    0  501    0  0.00000000000E+00 -0.00000000000E+00 -0.65080018438E+03  0.65080018438E+03  0.00000000000E+00 0. -1.
         24    2    1    2    0    0  0.32149143601E+02 -0.21778357541E+01  0.53816338109E+03  0.54502044222E+03  0.79932141800E+02 0.  0.
        254    2    1    2    0    0 -0.32149143601E+02  0.21778357541E+01 -0.33118740832E+03  0.96355589930E+03  0.90427681672E+03 0.  0.
         23    2    4    4    0    0  0.36273909857E+03  0.13604019327E+03  0.36635305212E+02  0.40001550173E+03  0.92648088050E+02 0.  0.
         23    2    4    4    0    0 -0.39488824217E+03 -0.13386235752E+03 -0.36782271353E+03  0.56354039758E+03  0.91806190165E+02 0.  0.
          4    1    3    3  502    0  0.24157476579E+02  0.28561231684E+02  0.12101615202E+03  0.12666584654E+03  0.00000000000E+00 0. -1.
         -3    1    3    3    0  502  0.79916670218E+01 -0.30739067438E+02  0.41714722907E+03  0.41835459568E+03  0.00000000000E+00 0.  1.
         11    1    5    5    0    0  0.19094963211E+03  0.10084820746E+03  0.57373474781E+02  0.22343643069E+03  0.00000000000E+00 0. -1.
        -11    1    5    5    0    0  0.17178946646E+03  0.35191985806E+02 -0.20738169569E+02  0.17657907103E+03  0.00000000000E+00 0.  1.
          3    1    6    6  503    0 -0.24473711218E+03 -0.90646252234E+02 -0.28594575958E+03  0.38714076838E+03  0.00000000000E+00 0. -1.
         -3    1    6    6    0  503 -0.15015112999E+03 -0.43216105282E+02 -0.81876953951E+02  0.17639962920E+03  0.00000000000E+00 0.  1.
<mgrwt>
<rscale>  0 0.14943104E+04</rscale>
<asrwt>0</asrwt>
<pdfrwt beam="1">  1        4 0.10012310E+00 0.14943104E+04</pdfrwt>
<pdfrwt beam="2">  1       -3 0.13196556E+00 0.14943104E+04</pdfrwt>
<totfact> 0.81396978E-01</totfact>
</mgrwt>
</event>
<event>
12    6  0.9491186E-008  0.1769028E+04  0.7818608E-02  0.8722946E-01
         -1   -1    0    0    0  501 -0.00000000000E+00  0.00000000000E+00  0.29790778473E+03  0.29790778473E+03  0.00000000000E+00 0.  1.
          2   -1    0    0  501    0  0.00000000000E+00 -0.00000000000E+00 -0.26261985285E+04  0.26261985285E+04  0.00000000000E+00 0. -1.
         24    2    1    2    0    0 -0.97353269630E+01  0.64593126793E+03 -0.11404882720E+04  0.13132302237E+04  0.80858779379E+02 0.  0.
        254    2    1    2    0    0  0.97353269630E+01 -0.64593126793E+03 -0.11878024718E+04  0.16108760896E+04  0.87562839415E+03 0.  0.
         23    2    4    4    0    0 -0.26832490169E+03 -0.31379607635E+02 -0.57211826365E+02  0.29121846927E+03  0.92477408747E+02 0.  0.
         23    2    4    4    0    0  0.27806022865E+03 -0.61455166030E+03 -0.11305906454E+04  0.13196576203E+04  0.90938405032E+02 0.  0.
          4    1    3    3  502    0 -0.10960366498E+02  0.15548969266E+03 -0.21157451044E+03  0.26279449695E+03  0.00000000000E+00 0. -1.
         -3    1    3    3    0  502  0.12250395352E+01  0.49044157527E+03 -0.92891376159E+03  0.10504357267E+04  0.00000000000E+00 0.  1.
         11    1    5    5    0    0 -0.65180711064E+01 -0.19845050948E+01  0.16330181102E+02  0.17694584658E+02  0.00000000000E+00 0.  1.
        -11    1    5    5    0    0 -0.26180683058E+03 -0.29395102540E+02 -0.73542007467E+02  0.27352388462E+03  0.00000000000E+00 0. -1.
          4    1    6    6  503    0  0.98503521438E+02 -0.30636783258E+03 -0.58867899280E+03  0.67090025275E+03  0.00000000000E+00 0. -1.
         -4    1    6    6    0  503  0.17955670721E+03 -0.30818382771E+03 -0.54191165258E+03  0.64875736757E+03  0.00000000000E+00 0.  1.
<mgrwt>
<rscale>  0 0.17690280E+04</rscale>
<asrwt>0</asrwt>
<pdfrwt beam="1">  1        2 0.40403055E+00 0.17690280E+04</pdfrwt>
<pdfrwt beam="2">  1       -1 0.45831967E-01 0.17690280E+04</pdfrwt>
<totfact> 0.15004920E+01</totfact>
</mgrwt>
</event>
<event>
12    6  0.9491186E-008  0.2439008E+04  0.7818608E-02  0.8425042E-01
         -1   -1    0    0    0  501 -0.00000000000E+00  0.00000000000E+00  0.90740899006E+03  0.90740899006E+03  0.00000000000E+00 0.  1.
          2   -1    0    0  501    0  0.00000000000E+00 -0.00000000000E+00 -0.16389413088E+04  0.16389413088E+04  0.00000000000E+00 0. -1.
         24    2    1    2    0    0  0.23350845542E+03  0.55413452650E+03 -0.11989687865E+04  0.13436118854E+04  0.78584192526E+02 0.  0.
        254    2    1    2    0    0 -0.23350845542E+03 -0.55413452650E+03  0.46743646771E+03  0.12027384135E+04  0.93085528834E+03 0.  0.
         23    2    4    4    0    0  0.17298453486E+03 -0.56818925516E+03  0.50263503376E+03  0.78342177279E+03  0.91351069680E+02 0.  0.
         23    2    4    4    0    0 -0.40649299029E+03  0.14054728660E+02 -0.35198566052E+02  0.41931664074E+03  0.95673505220E+02 0.  0.
          4    1    3    3  502    0  0.32809221875E+02  0.16737674118E+03 -0.35060122953E+03  0.38988798478E+03  0.00000000000E+00 0. -1.
         -3    1    3    3    0  502  0.20069923355E+03  0.38675778532E+03 -0.84836755695E+03  0.95372390058E+03  0.00000000000E+00 0.  1.
         11    1    5    5    0    0  0.41191722701E+02 -0.72356352690E+02  0.10680852550E+03  0.13542621944E+03  0.00000000000E+00 0.  1.
        -11    1    5    5    0    0  0.13179281216E+03 -0.49583290247E+03  0.39582650826E+03  0.64799555335E+03  0.00000000000E+00 0. -1.
          3    1    6    6  503    0 -0.40576467048E+03  0.95266700621E+01 -0.23277092521E+02  0.40654341501E+03  0.00000000000E+00 0. -1.
         -3    1    6    6    0  503 -0.72831980588E+00  0.45280585983E+01 -0.11921473531E+02  0.12773225731E+02  0.00000000000E+00 0.  1.
<mgrwt>
<rscale>  0 0.24390081E+04</rscale>
<asrwt>0</asrwt>
<pdfrwt beam="1">  1        2 0.25214482E+00 0.24390081E+04</pdfrwt>
<pdfrwt beam="2">  1       -1 0.13960138E+00 0.24390081E+04</pdfrwt>
<totfact> 0.45719413E+00</totfact>
</mgrwt>
</event>
<event>
12    6  0.9491186E-008  0.1524917E+04  0.7818608E-02  0.8868051E-01
         -1   -1    0    0    0  501 -0.00000000000E+00  0.00000000000E+00  0.90784696435E+03  0.90784696435E+03  0.00000000000E+00 0.  1.
          2   -1    0    0  501    0  0.00000000000E+00 -0.00000000000E+00 -0.64035332739E+03  0.64035332739E+03  0.00000000000E+00 0. -1.
         24    2    1    2    0    0  0.19122296204E+03  0.19892666123E+03 -0.34146062701E+03  0.44619699725E+03  0.79739342855E+02 0.  0.
        254    2    1    2    0    0 -0.19122296204E+03 -0.19892666123E+03  0.60895426397E+03  0.11020032945E+04  0.87604105366E+03 0.  0.
         23    2    4    4    0    0 -0.24003036261E+02 -0.29085401827E+03  0.77426995512E+03  0.83230563096E+03  0.89813663968E+02 0.  0.
         23    2    4    4    0    0 -0.16721992578E+03  0.91927357041E+02 -0.16531569115E+03  0.26969766352E+03  0.94838860280E+02 0.  0.
          2    1    3    3  502    0  0.14369384009E+03  0.18322269186E+03 -0.30747633304E+03  0.38569439958E+03  0.00000000000E+00 0. -1.
         -1    1    3    3    0  502  0.47529121954E+02  0.15703969366E+02 -0.33984293968E+02  0.60502597664E+02  0.00000000000E+00 0.  1.
         11    1    5    5    0    0  0.26010065148E+02 -0.19011674974E+03  0.45511310786E+03  0.49391177650E+03  0.00000000000E+00 0. -1.
        -11    1    5    5    0    0 -0.50013101410E+02 -0.10073726853E+03  0.31915684726E+03  0.33839385446E+03  0.00000000000E+00 0.  1.
          3    1    6    6  503    0 -0.16971390102E+03  0.78605465356E+02 -0.11957339492E+03  0.22198969380E+03  0.00000000000E+00 0. -1.
         -3    1    6    6    0  503  0.24939752368E+01  0.13321891685E+02 -0.45742296228E+02  0.47707969720E+02  0.00000000000E+00 0.  1.
<mgrwt>
<rscale>  0 0.15249168E+04</rscale>
<asrwt>0</asrwt>
<pdfrwt beam="1">  1        2 0.98515896E-01 0.15249168E+04</pdfrwt>
<pdfrwt beam="2">  1       -1 0.13966876E+00 0.15249168E+04</pdfrwt>
<totfact> 0.21286519E+01</totfact>
</mgrwt>
</event>
<event>
12    6  0.9491186E-008  0.1108497E+04  0.7818608E-02  0.9196949E-01
          2   -1    0    0  501    0  0.00000000000E+00  0.00000000000E+00  0.14506738630E+03  0.14506738630E+03  0.00000000000E+00 0. -1.
         -1   -1    0    0    0  501 -0.00000000000E+00 -0.00000000000E+00 -0.21175787718E+04  0.21175787718E+04  0.00000000000E+00 0.  1.
         24    2    1    2    0    0 -0.24566605756E+02 -0.53517136986E+02 -0.11148815958E+02  0.99073094101E+02  0.78889668575E+02 0.  0.
        254    2    1    2    0    0  0.24566605756E+02  0.53517136986E+02 -0.19613625695E+04  0.21635730640E+04  0.91139325868E+03 0.  0.
         23    2    4    4    0    0  0.34448145544E+03  0.31543843381E+03 -0.12225558883E+04  0.13119868740E+04  0.92183398407E+02 0.  0.
         23    2    4    4    0    0 -0.31991484968E+03 -0.26192129683E+03 -0.73880668123E+03  0.85158618995E+03  0.91735761342E+02 0.  0.
          4    1    3    3  502    0 -0.34220371326E+02 -0.70531221181E+02 -0.49423531410E+01  0.78550072117E+02  0.00000000000E+00 0. -1.
         -3    1    3    3    0  502  0.96537655698E+01  0.17014084195E+02 -0.62064628171E+01  0.20523021984E+02  0.00000000000E+00 0.  1.
         11    1    5    5    0    0  0.23703098862E+03  0.19151709362E+03 -0.67951850423E+03  0.74472000396E+03  0.00000000000E+00 0. -1.
        -11    1    5    5    0    0  0.10745046682E+03  0.12392134019E+03 -0.54303738408E+03  0.56726687008E+03  0.00000000000E+00 0.  1.
          2    1    6    6  503    0 -0.98861084652E+02 -0.30451815875E+02 -0.18150812781E+03  0.20891631724E+03  0.00000000000E+00 0. -1.
         -2    1    6    6    0  503 -0.22105376503E+03 -0.23146948095E+03 -0.55729855342E+03  0.64266987271E+03  0.00000000000E+00 0.  1.
<mgrwt>
<rscale>  0 0.11084974E+04</rscale>
<asrwt>0</asrwt>
<pdfrwt beam="1">  1        2 0.22318059E-01 0.11084974E+04</pdfrwt>
<pdfrwt beam="2">  1       -1 0.32578136E+00 0.11084974E+04</pdfrwt>
<totfact> 0.64767346E+00</totfact>
</mgrwt>
</event>
<event>
12    6  0.9491186E-008  0.1816240E+04  0.7818608E-02  0.8697711E-01
          2   -1    0    0  501    0  0.00000000000E+00  0.00000000000E+00  0.27329094070E+04  0.27329094070E+04  0.00000000000E+00 0. -1.
         -1   -1    0    0    0  501 -0.00000000000E+00 -0.00000000000E+00 -0.30175969710E+03  0.30175969710E+03  0.00000000000E+00 0.  1.
         24    2    1    2    0    0 -0.42074105148E+03 -0.41463250683E+03  0.35167367604E+03  0.69254979173E+03  0.83711955469E+02 0.  0.
        254    2    1    2    0    0  0.42074105148E+03  0.41463250683E+03  0.20794760338E+04  0.23421193124E+04  0.90130968586E+03 0.  0.
         23    2    4    4    0    0  0.50801240507E+03  0.19554770932E+03  0.20039006839E+04  0.20786082160E+04  0.93159296094E+02 0.  0.
         23    2    4    4    0    0 -0.87271353593E+02  0.21908479750E+03  0.75575349975E+02  0.26351109636E+03  0.90066790352E+02 0.  0.
          2    1    3    3  502    0 -0.47065040536E+02 -0.70750557301E+02  0.24432107208E+02  0.88417686362E+02  0.00000000000E+00 0. -1.
         -3    1    3    3    0  502 -0.37367601094E+03 -0.34388194953E+03  0.32724156883E+03  0.60413210537E+03  0.00000000000E+00 0.  1.
         11    1    5    5    0    0  0.45255427955E+03  0.18396138485E+03  0.18788789620E+04  0.19413483255E+04  0.00000000000E+00 0.  1.
        -11    1    5    5    0    0  0.55458125515E+02  0.11586324476E+02  0.12502172192E+03  0.13725989054E+03  0.00000000000E+00 0. -1.
          2    1    6    6  503    0 -0.93959625933E+02  0.16655959352E+03  0.29847956090E+02  0.19354950266E+03  0.00000000000E+00 0. -1.
         -2    1    6    6    0  503  0.66882723406E+01  0.52525203986E+02  0.45727393885E+02  0.69961593694E+02  0.00000000000E+00 0.  1.
<mgrwt>
<rscale>  0 0.18162400E+04</rscale>
<asrwt>0</asrwt>
<pdfrwt beam="1">  1        2 0.42044759E+00 0.18162400E+04</pdfrwt>
<pdfrwt beam="2">  1       -1 0.46424571E-01 0.18162400E+04</pdfrwt>
<totfact> 0.12611515E+01</totfact>
</mgrwt>
</event>
<event>
12    6  0.9491186E-008  0.2703140E+04  0.7818608E-02  0.8333987E-01
         -1   -1    0    0    0  501 -0.00000000000E+00  0.00000000000E+00  0.18209104669E+04  0.18209104669E+04  0.00000000000E+00 0.  1.
          2   -1    0    0  501    0  0.00000000000E+00 -0.00000000000E+00 -0.10032025348E+04  0.10032025348E+04  0.00000000000E+00 0. -1.
         24    2    1    2    0    0 -0.11179793383E+04  0.14871855176E+02 -0.63972518460E+02  0.11227982719E+04  0.80526414199E+02 0.  0.
        254    2    1    2    0    0  0.11179793383E+04 -0.14871855176E+02  0.88168045057E+03  0.17013147298E+04  0.93113501713E+03 0.  0.
         23    2    4    4    0    0  0.73483460298E+03 -0.20994760081E+03  0.62530802440E+02  0.77200552608E+03  0.89568645311E+02 0.  0.
         23    2    4    4    0    0  0.38314473531E+03  0.19507574563E+03  0.81914964813E+03  0.92930920376E+03  0.88062565402E+02 0.  0.
          4    1    3    3  502    0 -0.33408276835E+03  0.40701234764E+02 -0.12356830692E+02  0.33677971715E+03  0.00000000000E+00 0. -1.
         -3    1    3    3    0  502 -0.78389656995E+03 -0.25829379588E+02 -0.51615687767E+02  0.78601855477E+03  0.00000000000E+00 0.  1.
         11    1    5    5    0    0  0.20718831990E+02 -0.85865893729E+01 -0.13469056862E+02  0.26161326588E+02  0.00000000000E+00 0. -1.
        -11    1    5    5    0    0  0.71411577099E+03 -0.20136101144E+03  0.75999859302E+02  0.74584419950E+03  0.00000000000E+00 0.  1.
          4    1    6    6  503    0  0.60847162835E+02 -0.21726577176E+01  0.12138517092E+03  0.13579932763E+03  0.00000000000E+00 0. -1.
         -4    1    6    6    0  503  0.32229757248E+03  0.19724840335E+03  0.69776447721E+03  0.79350987612E+03  0.00000000000E+00 0.  1.
<mgrwt>
<rscale>  0 0.27031404E+04</rscale>
<asrwt>0</asrwt>
<pdfrwt beam="1">  1        2 0.15433885E+00 0.27031404E+04</pdfrwt>
<pdfrwt beam="2">  1       -1 0.28014007E+00 0.27031404E+04</pdfrwt>
<totfact> 0.11131104E+00</totfact>
</mgrwt>
</event>
<event>
12    6  0.9491186E-008  0.1727638E+04  0.7818608E-02  0.8745757E-01
          2   -1    0    0  501    0  0.00000000000E+00  0.00000000000E+00  0.29449718817E+04  0.29449718817E+04  0.00000000000E+00 0. -1.
         -1   -1    0    0    0  501 -0.00000000000E+00 -0.00000000000E+00 -0.25337534039E+03  0.25337534039E+03  0.00000000000E+00 0.  1.
         24    2    1    2    0    0  0.23793440603E+03  0.21441093075E+03  0.19799590110E+04  0.20072985652E+04  0.80156195967E+02 0.  0.
        254    2    1    2    0    0 -0.23793440603E+03 -0.21441093075E+03  0.71163753031E+03  0.11910486569E+04  0.89976891466E+03 0.  0.
         23    2    4    4    0    0 -0.11429324742E+03 -0.49149093510E+03  0.70907480722E+03  0.87501970428E+03  0.90808121592E+02 0.  0.
         23    2    4    4    0    0 -0.12364115861E+03  0.27708000435E+03  0.25627230865E+01  0.31602895263E+03  0.88358737181E+02 0.  0.
          2    1    3    3  502    0  0.20575062054E+03  0.18139845861E+03  0.14788533198E+04  0.15040764143E+04  0.00000000000E+00 0. -1.
         -1    1    3    3    0  502  0.32183785499E+02  0.33012472142E+02  0.50110569118E+03  0.50322215084E+03  0.00000000000E+00 0.  1.
         11    1    5    5    0    0 -0.76525341838E+02 -0.34185247018E+03  0.41649280541E+03  0.54422926811E+03  0.00000000000E+00 0.  1.
        -11    1    5    5    0    0 -0.37767905583E+02 -0.14963846493E+03  0.29258200181E+03  0.33079043617E+03  0.00000000000E+00 0. -1.
          3    1    6    6  503    0 -0.91781125023E+02  0.12136763569E+03 -0.26502870563E+02  0.15445478319E+03  0.00000000000E+00 0. -1.
         -3    1    6    6    0  503 -0.31860033590E+02  0.15571236867E+03  0.29065593649E+02  0.16157416944E+03  0.00000000000E+00 0.  1.
<mgrwt>
<rscale>  0 0.17276380E+04</rscale>
<asrwt>0</asrwt>
<pdfrwt beam="1">  1        2 0.45307257E+00 0.17276380E+04</pdfrwt>
<pdfrwt beam="2">  1       -1 0.38980824E-01 0.17276380E+04</pdfrwt>
<totfact> 0.13062254E+01</totfact>
</mgrwt>
</event>
<event>
12    6  0.9491186E-008  0.2494987E+04  0.7818608E-02  0.8404774E-01
         -1   -1    0    0    0  501 -0.00000000000E+00  0.00000000000E+00  0.71011739238E+03  0.71011739238E+03  0.00000000000E+00 0.  1.
          2   -1    0    0  501    0  0.00000000000E+00 -0.00000000000E+00 -0.21915245818E+04  0.21915245818E+04  0.00000000000E+00 0. -1.
         24    2    1    2    0    0 -0.21087544419E+02 -0.87976037709E+03  0.26473567335E+02  0.88403043969E+03  0.79912219969E+02 0.  0.
        254    2    1    2    0    0  0.21087544419E+02  0.87976037709E+03 -0.15078807568E+04  0.20176115345E+04  0.10112511666E+04 0.  0.
         23    2    4    4    0    0  0.11814525657E+03  0.77239877530E+03 -0.16283114060E+04  0.18084594272E+04  0.92570488851E+02 0.  0.
         23    2    4    4    0    0 -0.97057712149E+02  0.10736160179E+03  0.12043064922E+03  0.20915210725E+03  0.91073320297E+02 0.  0.
          2    1    3    3  502    0  0.16627473961E+02 -0.28035698838E+03  0.37489037929E+02  0.28334068149E+03  0.00000000000E+00 0. -1.
         -1    1    3    3    0  502 -0.37715018379E+02 -0.59940338871E+03 -0.11015470595E+02  0.60068975820E+03  0.00000000000E+00 0.  1.
         11    1    5    5    0    0  0.88034737634E+02  0.62728917598E+03 -0.13946818796E+04  0.15317895974E+04  0.00000000000E+00 0. -1.
        -11    1    5    5    0    0  0.30110518933E+02  0.14510959932E+03 -0.23362952639E+03  0.27666982988E+03  0.00000000000E+00 0.  1.
          4    1    6    6  503    0 -0.56721282560E+02  0.44388941895E+02  0.11299694956E+03  0.13399997264E+03  0.00000000000E+00 0. -1.
         -4    1    6    6    0  503 -0.40336429589E+02  0.62972659893E+02  0.74336996606E+01  0.75152134611E+02  0.00000000000E+00 0.  1.
<mgrwt>
<rscale>  0 0.24949868E+04</rscale>
<asrwt>0</asrwt>
<pdfrwt beam="1">  1        2 0.33715763E+00 0.24949868E+04</pdfrwt>
<pdfrwt beam="2">  1       -1 0.10924883E+00 0.24949868E+04</pdfrwt>
<totfact> 0.41098907E+00</totfact>
</mgrwt>
</event>
<event>
12    6  0.9491186E-008  0.2580883E+04  0.7818608E-02  0.8374724E-01
         -1   -1    0    0    0  501 -0.00000000000E+00  0.00000000000E+00  0.43573809758E+03  0.43573809758E+03  0.00000000000E+00 0.  1.
          2   -1    0    0  501    0  0.00000000000E+00 -0.00000000000E+00 -0.38216521758E+04  0.38216521758E+04  0.00000000000E+00 0. -1.
         24    2    1    2    0    0 -0.75175735774E+03 -0.40686713581E+03 -0.27116336501E+04  0.28442870465E+04  0.79572354844E+02 0.  0.
        254    2    1    2    0    0  0.75175735774E+03  0.40686713581E+03 -0.67428042816E+03  0.14131032269E+04  0.90084773568E+03 0.  0.
         23    2    4    4    0    0  0.76791902672E+03  0.44137899828E+03 -0.83777698797E+03  0.12224690444E+04  0.89695213399E+02 0.  0.
         23    2    4    4    0    0 -0.16161668979E+02 -0.34511862474E+02  0.16349655981E+03  0.19063418244E+03  0.90321637779E+02 0.  0.
          4    1    3    3  502    0 -0.31726505473E+03 -0.20531850664E+03 -0.11096617519E+04  0.11722465644E+04  0.00000000000E+00 0. -1.
         -3    1    3    3    0  502 -0.43449230301E+03 -0.20154862917E+03 -0.16019718982E+04  0.16720404821E+04  0.00000000000E+00 0.  1.
         11    1    5    5    0    0  0.31016332177E+02  0.21994525407E+02 -0.14627649338E+02  0.40739908379E+02  0.00000000000E+00 0. -1.
        -11    1    5    5    0    0  0.73690269455E+03  0.41938447287E+03 -0.82314933863E+03  0.11817291361E+04  0.00000000000E+00 0.  1.
          4    1    6    6  503    0  0.36799433047E+02 -0.16975204228E+02  0.51698789279E+02  0.65689577896E+02  0.00000000000E+00 0. -1.
         -4    1    6    6    0  503 -0.52961102026E+02 -0.17536658246E+02  0.11179777053E+03  0.12494460455E+03  0.00000000000E+00 0.  1.
<mgrwt>
<rscale>  0 0.25808831E+04</rscale>
<asrwt>0</asrwt>
<pdfrwt beam="1">  1        2 0.58794650E+00 0.25808831E+04</pdfrwt>
<pdfrwt beam="2">  1       -1 0.67036629E-01 0.25808831E+04</pdfrwt>
<totfact> 0.10756098E+00</totfact>
</mgrwt>
</event>
<event>
12    6  0.9491186E-008  0.2337547E+04  0.7818608E-02  0.8463262E-01
          2   -1    0    0  501    0  0.00000000000E+00  0.00000000000E+00  0.11683152369E+04  0.11683152369E+04  0.00000000000E+00 0. -1.
         -1   -1    0    0    0  501 -0.00000000000E+00 -0.00000000000E+00 -0.11692323762E+04  0.11692323762E+04  0.00000000000E+00 0.  1.
         24    2    1    2    0    0  0.37047231718E+03 -0.70718139759E+03  0.59637064985E+03  0.99965278270E+03  0.79325072078E+02 0.  0.
        254    2    1    2    0    0 -0.37047231718E+03  0.70718139759E+03 -0.59728778913E+03  0.13378948304E+04  0.89210683629E+03 0.  0.
         23    2    4    4    0    0 -0.10623975635E+03  0.59268894458E+03 -0.77610326358E+03  0.98662299273E+03  0.92312421646E+02 0.  0.
         23    2    4    4    0    0 -0.26423256083E+03  0.11449245301E+03  0.17881547445E+03  0.35127183769E+03  0.92138819475E+02 0.  0.
          4    1    3    3  502    0  0.36793683426E+03 -0.69772704276E+03  0.57493991617E+03  0.97609243795E+03  0.00000000000E+00 0. -1.
         -3    1    3    3    0  502  0.25354829169E+01 -0.94543548274E+01  0.21430733678E+02  0.23560344751E+02  0.00000000000E+00 0.  1.
         11    1    5    5    0    0 -0.46583058781E+02  0.16007348020E+03 -0.15708171287E+03  0.22905930443E+03  0.00000000000E+00 0.  1.
        -11    1    5    5    0    0 -0.59656697569E+02  0.43261546438E+03 -0.61902155071E+03  0.75756368830E+03  0.00000000000E+00 0. -1.
          3    1    6    6  503    0 -0.23904675230E+03  0.91362902894E+02  0.11867391525E+03  0.28208868813E+03  0.00000000000E+00 0. -1.
         -3    1    6    6    0  503 -0.25185808528E+02  0.23129550112E+02  0.60141559206E+02  0.69183149563E+02  0.00000000000E+00 0.  1.
<mgrwt>
<rscale>  0 0.23375474E+04</rscale>
<asrwt>0</asrwt>
<pdfrwt beam="1">  1        2 0.17974081E+00 0.23375474E+04</pdfrwt>
<pdfrwt beam="2">  1       -1 0.17988190E+00 0.23375474E+04</pdfrwt>
<totfact> 0.42517897E+00</totfact>
</mgrwt>
</event>
<event>
12    6  0.9491186E-008  0.1772783E+04  0.7818608E-02  0.8720908E-01
          2   -1    0    0  501    0  0.00000000000E+00  0.00000000000E+00  0.38801379176E+04  0.38801379176E+04  0.00000000000E+00 0. -1.
         -1   -1    0    0    0  501 -0.00000000000E+00 -0.00000000000E+00 -0.20249025795E+03  0.20249025795E+03  0.00000000000E+00 0.  1.
         24    2    1    2    0    0 -0.42633187531E+03 -0.45668115635E+03  0.19466703512E+04  0.20460146714E+04  0.79586639268E+02 0.  0.
        254    2    1    2    0    0  0.42633187531E+03  0.45668115635E+03  0.17309773085E+04  0.20366135041E+04  0.87246522920E+03 0.  0.
         23    2    4    4    0    0  0.51560952719E+03  0.36943273274E+03  0.54650834179E+03  0.84211518033E+03  0.90293304023E+02 0.  0.
         23    2    4    4    0    0 -0.89277651878E+02  0.87248423613E+02  0.11844689667E+04  0.11944983237E+04  0.90976512940E+02 0.  0.
          2    1    3    3  502    0 -0.20675516446E+03 -0.16509239002E+03  0.79251716918E+03  0.83551580399E+03  0.00000000000E+00 0. -1.
         -3    1    3    3    0  502 -0.21957671086E+03 -0.29158876633E+03  0.11541531820E+04  0.12104988674E+04  0.00000000000E+00 0.  1.
         11    1    5    5    0    0  0.32903853023E+03  0.26178248683E+03  0.31121841970E+03  0.52311884839E+03  0.00000000000E+00 0.  1.
        -11    1    5    5    0    0  0.18657099696E+03  0.10765024591E+03  0.23528992209E+03  0.31899633194E+03  0.00000000000E+00 0. -1.
          1    1    6    6  503    0 -0.43618095237E+02  0.22135779612E+02  0.16944366706E+03  0.17636237489E+03  0.00000000000E+00 0. -1.
         -1    1    6    6    0  503 -0.45659556641E+02  0.65112644002E+02  0.10150252996E+04  0.10181359489E+04  0.00000000000E+00 0.  1.
<mgrwt>
<rscale>  0 0.17727833E+04</rscale>
<asrwt>0</asrwt>
<pdfrwt beam="1">  1        2 0.59694424E+00 0.17727833E+04</pdfrwt>
<pdfrwt beam="2">  1       -1 0.31152350E-01 0.17727833E+04</pdfrwt>
<totfact> 0.44413405E+00</totfact>
</mgrwt>
</event>
<event>
12    6  0.9491186E-008  0.2106454E+04  0.7818608E-02  0.8558406E-01
          2   -1    0    0  501    0  0.00000000000E+00  0.00000000000E+00  0.49583271915E+03  0.49583271915E+03  0.00000000000E+00 0. -1.
         -1   -1    0    0    0  501 -0.00000000000E+00 -0.00000000000E+00 -0.22372211026E+04  0.22372211026E+04  0.00000000000E+00 0.  1.
         24    2    1    2    0    0 -0.10799114969E+03  0.23579111455E+03  0.34893123052E+03  0.44219168287E+03  0.80752353870E+02 0.  0.
        254    2    1    2    0    0  0.10799114969E+03 -0.23579111455E+03 -0.20903196140E+04  0.22908621389E+04  0.90075174866E+03 0.  0.
         23    2    4    4    0    0  0.42618426247E+03 -0.31366937031E+03 -0.85638788971E+03  0.10108536996E+04  0.91670523222E+02 0.  0.
         23    2    4    4    0    0 -0.31819311278E+03  0.77878255758E+02 -0.12339317243E+04  0.12800084394E+04  0.92315897136E+02 0.  0.
          2    1    3    3  502    0 -0.88766709333E+02  0.19634890536E+03  0.33063023490E+03  0.39465019137E+03  0.00000000000E+00 0. -1.
         -1    1    3    3    0  502 -0.19224440357E+02  0.39442209192E+02  0.18300995618E+02  0.47541491496E+02  0.00000000000E+00 0.  1.
         11    1    5    5    0    0  0.91878003935E+02 -0.87086014666E+02 -0.14217958070E+03  0.19036957405E+03  0.00000000000E+00 0.  1.
        -11    1    5    5    0    0  0.33430625853E+03 -0.22658335564E+03 -0.71420830901E+03  0.82048412551E+03  0.00000000000E+00 0. -1.
          2    1    6    6  503    0 -0.98633260515E+02  0.25820032141E+02 -0.56274589459E+03  0.57190745407E+03  0.00000000000E+00 0.  1.
         -2    1    6    6    0  503 -0.21955985226E+03  0.52058223617E+02 -0.67118582971E+03  0.70810098530E+03  0.00000000000E+00 0. -1.
<mgrwt>
<rscale>  0 0.21064543E+04</rscale>
<asrwt>0</asrwt>
<pdfrwt beam="1">  1        2 0.76281956E-01 0.21064543E+04</pdfrwt>
<pdfrwt beam="2">  1       -1 0.34418786E+00 0.21064543E+04</pdfrwt>
<totfact> 0.11118717E+00</totfact>
</mgrwt>
</event>
<event>
12    6  0.9491186E-008  0.1450566E+04  0.7818608E-02  0.8918008E-01
          2   -1    0    0  501    0  0.00000000000E+00  0.00000000000E+00  0.24232741926E+04  0.24232741926E+04  0.00000000000E+00 0. -1.
         -1   -1    0    0    0  501 -0.00000000000E+00 -0.00000000000E+00 -0.21707632664E+03  0.21707632664E+03  0.00000000000E+00 0.  1.
         24    2    1    2    0    0  0.26547248116E+03 -0.35097318459E+03  0.73298063876E+03  0.85869997116E+03  0.80294514912E+02 0.  0.
        254    2    1    2    0    0 -0.26547248116E+03  0.35097318459E+03  0.14732172272E+04  0.17816505481E+04  0.90013991270E+03 0.  0.
         23    2    4    4    0    0  0.15454906740E+03 -0.21218504805E+03  0.28595295183E+03  0.39918887790E+03  0.93138395574E+02 0.  0.
         23    2    4    4    0    0 -0.42002154856E+03  0.56315823264E+03  0.11872642754E+04  0.13824616702E+04  0.89657758795E+02 0.  0.
          4    1    3    3  502    0  0.10616769556E+03 -0.10243223542E+03  0.18881393367E+03  0.23961353047E+03  0.00000000000E+00 0. -1.
         -3    1    3    3    0  502  0.15930478560E+03 -0.24854094916E+03  0.54416670509E+03  0.61908644069E+03  0.00000000000E+00 0.  1.
         11    1    5    5    0    0  0.72976706466E+02 -0.11843734594E+03  0.85339463778E+02  0.16320486720E+03  0.00000000000E+00 0.  1.
        -11    1    5    5    0    0  0.81572360937E+02 -0.93747702115E+02  0.20061348805E+03  0.23598401071E+03  0.00000000000E+00 0. -1.
          4    1    6    6  503    0 -0.38420211745E+03  0.48593034433E+03  0.10851523627E+04  0.12495179938E+04  0.00000000000E+00 0. -1.
         -4    1    6    6    0  503 -0.35819431111E+02  0.77227888304E+02  0.10211191268E+03  0.13294367638E+03  0.00000000000E+00 0.  1.
<mgrwt>
<rscale>  0 0.14505660E+04</rscale>
<asrwt>0</asrwt>
<pdfrwt beam="1">  1        2 0.37281140E+00 0.14505660E+04</pdfrwt>
<pdfrwt beam="2">  1       -1 0.33396360E-01 0.14505660E+04</pdfrwt>
<totfact> 0.36025951E+01</totfact>
</mgrwt>
</event>
<event>
12    6  0.9491186E-008  0.1399209E+04  0.7818608E-02  0.8954392E-01
          2   -1    0    0  501    0  0.00000000000E+00  0.00000000000E+00  0.10495822374E+04  0.10495822374E+04  0.00000000000E+00 0. -1.
         -1   -1    0    0    0  501 -0.00000000000E+00 -0.00000000000E+00 -0.46632471405E+03  0.46632471405E+03  0.00000000000E+00 0.  1.
         24    2    1    2    0    0 -0.95515170936E+02  0.11660054627E+03 -0.22908208460E+03  0.28547297453E+03  0.79356048479E+02 0.  0.
        254    2    1    2    0    0  0.95515170936E+02 -0.11660054627E+03  0.81233960795E+03  0.12304339769E+04  0.91178577399E+03 0.  0.
         23    2    4    4    0    0 -0.28911238973E+03 -0.90484216153E+02 -0.12992931843E+02  0.31497637677E+03  0.85252181040E+02 0.  0.
         23    2    4    4    0    0  0.38462756067E+03 -0.26116330114E+02  0.82533253979E+03  0.91545760015E+03  0.90930706135E+02 0.  0.
          4    1    3    3  502    0 -0.36496530009E+02 -0.20324498306E+01 -0.36046939394E+02  0.51337212572E+02  0.00000000000E+00 0. -1.
         -3    1    3    3    0  502 -0.59018640927E+02  0.11863299610E+03 -0.19303514521E+03  0.23413576195E+03  0.00000000000E+00 0.  1.
         11    1    5    5    0    0 -0.16921881451E+03 -0.86399779880E+01 -0.11029763717E+02  0.16979785656E+03  0.00000000000E+00 0. -1.
        -11    1    5    5    0    0 -0.11989357522E+03 -0.81844238165E+02 -0.19631681266E+01  0.14517852021E+03  0.00000000000E+00 0.  1.
          1    1    6    6  503    0  0.36048071079E+03 -0.47689950992E+02  0.75234275797E+03  0.83560774275E+03  0.00000000000E+00 0. -1.
         -1    1    6    6    0  503  0.24146849875E+02  0.21573620878E+02  0.72989781823E+02  0.79849857402E+02  0.00000000000E+00 0.  1.
<mgrwt>
<rscale>  0 0.13992085E+04</rscale>
<asrwt>0</asrwt>
<pdfrwt beam="1">  1        2 0.16147419E+00 0.13992085E+04</pdfrwt>
<pdfrwt beam="2">  1       -1 0.71742264E-01 0.13992085E+04</pdfrwt>
<totfact> 0.51011079E+01</totfact>
</mgrwt>
</event>
<event>
12    6  0.9491186E-008  0.1657238E+04  0.7818608E-02  0.8786136E-01
          2   -1    0    0  501    0  0.00000000000E+00  0.00000000000E+00  0.47169307744E+03  0.47169307744E+03  0.00000000000E+00 0. -1.
         -1   -1    0    0    0  501 -0.00000000000E+00 -0.00000000000E+00 -0.14556278007E+04  0.14556278007E+04  0.00000000000E+00 0.  1.
         24    2    1    2    0    0 -0.13159399022E+03  0.16106604493E+03  0.27862715533E+03  0.35639593848E+03  0.78267005689E+02 0.  0.
        254    2    1    2    0    0  0.13159399022E+03 -0.16106604493E+03 -0.12625618786E+04  0.15709249396E+04  0.91130863031E+03 0.  0.
         23    2    4    4    0    0  0.31734083804E+03 -0.22168737400E+03 -0.13043210526E+03  0.41838338323E+03  0.90452318951E+02 0.  0.
         23    2    4    4    0    0 -0.18574684781E+03  0.60621329070E+02 -0.11321297733E+04  0.11525415564E+04  0.91964007207E+02 0.  0.
          2    1    3    3  502    0 -0.46540947716E+02  0.74399606178E+02  0.17889407689E+03  0.19925976001E+03  0.00000000000E+00 0. -1.
         -1    1    3    3    0  502 -0.85053042505E+02  0.86666438756E+02  0.99733078441E+02  0.15713617846E+03  0.00000000000E+00 0.  1.
         11    1    5    5    0    0  0.20659072348E+03 -0.10504126714E+03 -0.10900112024E+03  0.25611450378E+03  0.00000000000E+00 0. -1.
        -11    1    5    5    0    0  0.11075011455E+03 -0.11664610686E+03 -0.21430985015E+02  0.16226887945E+03  0.00000000000E+00 0.  1.
          4    1    6    6  503    0 -0.15686347206E+03  0.12183077148E+02 -0.75511743305E+03  0.77133450197E+03  0.00000000000E+00 0. -1.
         -4    1    6    6    0  503 -0.28883375756E+02  0.48438251921E+02 -0.37701234027E+03  0.38120705444E+03  0.00000000000E+00 0.  1.
<mgrwt>
<rscale>  0 0.16572381E+04</rscale>
<asrwt>0</asrwt>
<pdfrwt beam="1">  1        2 0.72568167E-01 0.16572381E+04</pdfrwt>
<pdfrwt beam="2">  1       -1 0.22394273E+00 0.16572381E+04</pdfrwt>
<totfact> 0.74468109E+00</totfact>
</mgrwt>
</event>
<event>
12    6  0.9491186E-008  0.2621168E+04  0.7818608E-02  0.8361046E-01
          2   -1    0    0  501    0  0.00000000000E+00  0.00000000000E+00  0.14200986153E+04  0.14200986153E+04  0.00000000000E+00 0. -1.
         -1   -1    0    0    0  501 -0.00000000000E+00 -0.00000000000E+00 -0.12095149066E+04  0.12095149066E+04  0.00000000000E+00 0.  1.
         24    2    1    2    0    0  0.96138592606E+03 -0.40380842568E+03 -0.40266106991E+03  0.11205797059E+04  0.78986052492E+02 0.  0.
        254    2    1    2    0    0 -0.96138592606E+03  0.40380842568E+03  0.61324477858E+03  0.15090338160E+04  0.90210296298E+03 0.  0.
         23    2    4    4    0    0 -0.43956653702E+03 -0.25184635186E+03  0.11354082535E+03  0.52908361785E+03  0.10194425064E+03 0.  0.
         23    2    4    4    0    0 -0.52181938903E+03  0.65565477755E+03  0.49970395323E+03  0.97995019813E+03  0.91758857033E+02 0.  0.
          2    1    3    3  502    0  0.22486566748E+03 -0.12084279690E+03 -0.12407679528E+03  0.28383551769E+03  0.00000000000E+00 0. -1.
         -1    1    3    3    0  502  0.73652025858E+03 -0.28296562878E+03 -0.27858427463E+03  0.83674418817E+03  0.00000000000E+00 0.  1.
         11    1    5    5    0    0 -0.13886197113E+03 -0.11653629428E+03  0.78268248301E+02  0.19745701711E+03  0.00000000000E+00 0. -1.
        -11    1    5    5    0    0 -0.30070456589E+03 -0.13531005758E+03  0.35272577053E+02  0.33162660074E+03  0.00000000000E+00 0.  1.
          2    1    6    6  503    0 -0.30027175935E+03  0.38953517911E+03  0.34452667428E+03  0.60049930435E+03  0.00000000000E+00 0.  1.
         -2    1    6    6    0  503 -0.22154762968E+03  0.26611959844E+03  0.15517727895E+03  0.37945089378E+03  0.00000000000E+00 0. -1.
<mgrwt>
<rscale>  0 0.26211680E+04</rscale>
<asrwt>0</asrwt>
<pdfrwt beam="1">  1        2 0.21847671E+00 0.26211680E+04</pdfrwt>
<pdfrwt beam="2">  1       -1 0.18607922E+00 0.26211680E+04</pdfrwt>
<totfact> 0.26695006E+00</totfact>
</mgrwt>
</event>
<event>
12    6  0.9491186E-008  0.1189597E+04  0.7818608E-02  0.9122011E-01
          2   -1    0    0  501    0  0.00000000000E+00  0.00000000000E+00  0.18575682508E+04  0.18575682508E+04  0.00000000000E+00 0. -1.
         -1   -1    0    0    0  501 -0.00000000000E+00 -0.00000000000E+00 -0.19045627671E+03  0.19045627671E+03  0.00000000000E+00 0.  1.
         24    2    1    2    0    0 -0.60827859346E+02 -0.20048918218E+03  0.13272016033E+03  0.26054595437E+03  0.79834909275E+02 0.  0.
        254    2    1    2    0    0  0.60827859346E+02  0.20048918218E+03  0.15343918137E+04  0.17874785731E+04  0.89265081116E+03 0.  0.
         23    2    4    4    0    0  0.29620889217E+03 -0.47388657639E+02  0.13540132196E+04  0.13904457181E+04  0.10001051760E+03 0.  0.
         23    2    4    4    0    0 -0.23538103283E+03  0.24787783982E+03  0.18037859418E+03  0.39703285501E+03  0.90834996709E+02 0.  0.
          2    1    3    3  502    0 -0.12635309010E+02 -0.39153140323E+02 -0.70160665787E+01  0.41735412076E+02  0.00000000000E+00 0. -1.
         -1    1    3    3    0  502 -0.48192550336E+02 -0.16133604185E+03  0.13973622691E+03  0.21881054230E+03  0.00000000000E+00 0.  1.
         11    1    5    5    0    0  0.61328940552E+02  0.55598855934E+01  0.14246684763E+03  0.15520616596E+03  0.00000000000E+00 0.  1.
        -11    1    5    5    0    0  0.23487995162E+03 -0.52948543232E+02  0.12115463719E+04  0.12352395522E+04  0.00000000000E+00 0. -1.
          1    1    6    6  503    0 -0.20000695154E+02  0.59418336184E+02  0.86930672229E+01  0.63294043158E+02  0.00000000000E+00 0. -1.
         -1    1    6    6    0  503 -0.21538033767E+03  0.18845950363E+03  0.17168552696E+03  0.33373881185E+03  0.00000000000E+00 0.  1.
<mgrwt>
<rscale>  0 0.11895975E+04</rscale>
<asrwt>0</asrwt>
<pdfrwt beam="1">  1        2 0.28577972E+00 0.11895975E+04</pdfrwt>
<pdfrwt beam="2">  1       -1 0.29300967E-01 0.11895975E+04</pdfrwt>
<totfact> 0.95954815E+01</totfact>
</mgrwt>
</event>
<event>
12    6  0.9491186E-008  0.2217814E+04  0.7818608E-02  0.8511050E-01
         -1   -1    0    0    0  501 -0.00000000000E+00  0.00000000000E+00  0.10199159005E+04  0.10199159005E+04  0.00000000000E+00 0.  1.
          2   -1    0    0  501    0  0.00000000000E+00 -0.00000000000E+00 -0.12056624262E+04  0.12056624262E+04  0.00000000000E+00 0. -1.
         24    2    1    2    0    0  0.11907467645E+03  0.43362567545E+03 -0.88684066408E+03  0.99752682407E+03  0.79770898785E+02 0.  0.
        254    2    1    2    0    0 -0.11907467645E+03 -0.43362567545E+03  0.70109413834E+03  0.12280515026E+04  0.90242312539E+03 0.  0.
         23    2    4    4    0    0 -0.11607951320E+03 -0.65953641524E+03  0.71586331014E+03  0.98446832098E+03  0.90856258927E+02 0.  0.
         23    2    4    4    0    0 -0.29951632562E+01  0.22591073980E+03 -0.14769171801E+02  0.24358318162E+03  0.89833204169E+02 0.  0.
          2    1    3    3  502    0  0.10268865339E+03  0.41155956647E+03 -0.86093311735E+03  0.95975625491E+03  0.00000000000E+00 0. -1.
         -1    1    3    3    0  502  0.16386023061E+02  0.22066108975E+02 -0.25907546733E+02  0.37770569161E+02  0.00000000000E+00 0.  1.
         11    1    5    5    0    0 -0.68255548780E+02 -0.38529264250E+03  0.48243258152E+03  0.62116860515E+03  0.00000000000E+00 0. -1.
        -11    1    5    5    0    0 -0.47823964418E+02 -0.27424377274E+03  0.23343072862E+03  0.36329971583E+03  0.00000000000E+00 0.  1.
          4    1    6    6  503    0  0.24011881969E+02  0.20200908089E+02 -0.17819320052E+02  0.36085666551E+02  0.00000000000E+00 0. -1.
         -4    1    6    6    0  503 -0.27007045226E+02  0.20570983171E+03  0.30501482507E+01  0.20749751506E+03  0.00000000000E+00 0.  1.
<mgrwt>
<rscale>  0 0.22178136E+04</rscale>
<asrwt>0</asrwt>
<pdfrwt beam="1">  1        2 0.18548653E+00 0.22178136E+04</pdfrwt>
<pdfrwt beam="2">  1       -1 0.15691014E+00 0.22178136E+04</pdfrwt>
<totfact> 0.60331361E+00</totfact>
</mgrwt>
</event>
<event>
12    6  0.9491186E-008  0.1757820E+04  0.7818608E-02  0.8729058E-01
          2   -1    0    0  501    0  0.00000000000E+00  0.00000000000E+00  0.56989526979E+03  0.56989526979E+03  0.00000000000E+00 0. -1.
         -1   -1    0    0    0  501 -0.00000000000E+00 -0.00000000000E+00 -0.13554814960E+04  0.13554814960E+04  0.00000000000E+00 0.  1.
         24    2    1    2    0    0  0.34928298239E+03  0.45571948903E+03  0.21339010472E+02  0.58025691208E+03  0.81017752286E+02 0.  0.
        254    2    1    2    0    0 -0.34928298239E+03 -0.45571948903E+03 -0.80692523668E+03  0.13451198537E+04  0.91024185179E+03 0.  0.
         23    2    4    4    0    0 -0.17940678992E+02 -0.26245846752E+03  0.14532496754E+03  0.31446736770E+03  0.92542228333E+02 0.  0.
         23    2    4    4    0    0 -0.33134230340E+03 -0.19326102151E+03 -0.95225020422E+03  0.10306524860E+04  0.91249936996E+02 0.  0.
          4    1    3    3  502    0  0.34820976783E+03  0.44662795093E+03  0.30706234907E+02  0.56715909745E+03  0.00000000000E+00 0. -1.
         -3    1    3    3    0  502  0.10732145651E+01  0.90915380960E+01 -0.93672244351E+01  0.13097814630E+02  0.00000000000E+00 0.  1.
         11    1    5    5    0    0 -0.22707055590E+02 -0.94518357594E+02  0.81074836570E+01  0.97545177159E+02  0.00000000000E+00 0.  1.
        -11    1    5    5    0    0  0.47663765989E+01 -0.16794010992E+03  0.13721748388E+03  0.21692219054E+03  0.00000000000E+00 0. -1.
          1    1    6    6  503    0 -0.18139015698E+03 -0.12265385800E+03 -0.65069995112E+03  0.68655428359E+03  0.00000000000E+00 0. -1.
         -1    1    6    6    0  503 -0.14995214642E+03 -0.70607163507E+02 -0.30155025310E+03  0.34409820241E+03  0.00000000000E+00 0.  1.
<mgrwt>
<rscale>  0 0.17578197E+04</rscale>
<asrwt>0</asrwt>
<pdfrwt beam="1">  1        2 0.87676195E-01 0.17578197E+04</pdfrwt>
<pdfrwt beam="2">  1       -1 0.20853562E+00 0.17578197E+04</pdfrwt>
<totfact> 0.75103451E+00</totfact>
</mgrwt>
</event>
<event>
12    6  0.9491186E-008  0.1492409E+04  0.7818608E-02  0.8889517E-01
          2   -1    0    0  501    0  0.00000000000E+00  0.00000000000E+00  0.11060900879E+04  0.11060900879E+04  0.00000000000E+00 0. -1.
         -1   -1    0    0    0  501 -0.00000000000E+00 -0.00000000000E+00 -0.50341387037E+03  0.50341387037E+03  0.00000000000E+00 0.  1.
         24    2    1    2    0    0 -0.27195366875E+03  0.12799594266E+03 -0.20824727007E+03  0.37429162858E+03  0.79909564196E+02 0.  0.
        254    2    1    2    0    0  0.27195366875E+03 -0.12799594266E+03  0.81092348765E+03  0.12352123297E+04  0.88193584654E+03 0.  0.
         23    2    4    4    0    0 -0.30542123523E+03  0.39758727090E+02  0.32324211448E+03  0.45581959827E+03  0.91777743929E+02 0.  0.
         23    2    4    4    0    0  0.57737490398E+03 -0.16775466975E+03  0.48768137316E+03  0.77939273147E+03  0.90091615386E+02 0.  0.
          2    1    3    3  502    0 -0.14170602777E+02 -0.96843064831E+01 -0.21347782375E+02  0.27391962096E+02  0.00000000000E+00 0. -1.
         -1    1    3    3    0  502 -0.25778306598E+03  0.13768024914E+03 -0.18689948769E+03  0.34689966649E+03  0.00000000000E+00 0.  1.
         11    1    5    5    0    0 -0.20661103512E+03  0.60375158046E+02  0.18004811246E+03  0.28062537723E+03  0.00000000000E+00 0. -1.
        -11    1    5    5    0    0 -0.98810200103E+02 -0.20616430956E+02  0.14319400202E+03  0.17519422104E+03  0.00000000000E+00 0.  1.
          4    1    6    6  503    0  0.56249898407E+03 -0.14520570584E+03  0.46503077232E+03  0.74413938432E+03  0.00000000000E+00 0. -1.
         -4    1    6    6    0  503  0.14875919905E+02 -0.22548963907E+02  0.22650600842E+02  0.35253347143E+02  0.00000000000E+00 0.  1.
<mgrwt>
<rscale>  0 0.14924089E+04</rscale>
<asrwt>0</asrwt>
<pdfrwt beam="1">  1        2 0.17016771E+00 0.14924089E+04</pdfrwt>
<pdfrwt beam="2">  1       -1 0.77448288E-01 0.14924089E+04</pdfrwt>
<totfact> 0.39801693E+01</totfact>
</mgrwt>
</event>
<event>
12    6  0.9491186E-008  0.2363918E+04  0.7818608E-02  0.8453137E-01
         -1   -1    0    0    0  501 -0.00000000000E+00  0.00000000000E+00  0.57463544502E+03  0.57463544502E+03  0.00000000000E+00 0.  1.
          2   -1    0    0  501    0  0.00000000000E+00 -0.00000000000E+00 -0.24311528269E+04  0.24311528269E+04  0.00000000000E+00 0. -1.
         24    2    1    2    0    0  0.10157678369E+04  0.85399099632E+02 -0.79899595287E+03  0.12977713237E+04  0.82088800316E+02 0.  0.
        254    2    1    2    0    0 -0.10157678369E+04 -0.85399099632E+02 -0.10575214290E+04  0.17080169482E+04  0.87171842818E+03 0.  0.
         23    2    4    4    0    0 -0.76516875032E+03 -0.44660921233E+03 -0.72876748413E+03  0.11508975932E+04  0.92305033407E+02 0.  0.
         23    2    4    4    0    0 -0.25059908657E+03  0.36121011270E+03 -0.32875394485E+03  0.55711935499E+03  0.95027215825E+02 0.  0.
          4    1    3    3  502    0  0.52324174985E+03  0.47055067599E+02 -0.46361797432E+03  0.70066949004E+03  0.00000000000E+00 0. -1.
         -3    1    3    3    0  502  0.49252608704E+03  0.38344032034E+02 -0.33537797856E+03  0.59710183362E+03  0.00000000000E+00 0.  1.
         11    1    5    5    0    0 -0.25073932937E+03 -0.11451447906E+03 -0.26933359443E+03  0.38538858610E+03  0.00000000000E+00 0. -1.
        -11    1    5    5    0    0 -0.51442942095E+03 -0.33209473328E+03 -0.45943388970E+03  0.76550900714E+03  0.00000000000E+00 0.  1.
          4    1    6    6  503    0 -0.13873486631E+03  0.16607202365E+03 -0.10756345935E+03  0.24165508055E+03  0.00000000000E+00 0. -1.
         -4    1    6    6    0  503 -0.11186422025E+03  0.19513808905E+03 -0.22119048550E+03  0.31546427444E+03  0.00000000000E+00 0.  1.
<mgrwt>
<rscale>  0 0.23639176E+04</rscale>
<asrwt>0</asrwt>
<pdfrwt beam="1">  1        2 0.37402352E+00 0.23639176E+04</pdfrwt>
<pdfrwt beam="2">  1       -1 0.88405452E-01 0.23639176E+04</pdfrwt>
<totfact> 0.49178484E+00</totfact>
</mgrwt>
</event>
<event>
12    6  0.9491186E-008  0.2356133E+04  0.7818608E-02  0.8456112E-01
         -1   -1    0    0    0  501 -0.00000000000E+00  0.00000000000E+00  0.74408215748E+03  0.74408215748E+03  0.00000000000E+00 0.  1.
          2   -1    0    0  501    0  0.00000000000E+00 -0.00000000000E+00 -0.18651709821E+04  0.18651709821E+04  0.00000000000E+00 0. -1.
         24    2    1    2    0    0  0.59443037729E+03  0.10681967124E+03 -0.13653479578E+04  0.14950904686E+04  0.79765580240E+02 0.  0.
        254    2    1    2    0    0 -0.59443037729E+03 -0.10681967124E+03  0.24425913319E+03  0.11141626710E+04  0.90384623562E+03 0.  0.
         23    2    4    4    0    0 -0.13077515876E+02  0.62160524289E+02 -0.28414703022E+03  0.30531240590E+03  0.91875884845E+02 0.  0.
         23    2    4    4    0    0 -0.58135286141E+03 -0.16898019553E+03  0.52840616341E+03  0.80885026507E+03  0.92196647597E+02 0.  0.
          2    1    3    3  502    0  0.22525435869E+03  0.67126709778E+02 -0.46030818779E+03  0.51684538212E+03  0.00000000000E+00 0. -1.
         -1    1    3    3    0  502  0.36917601860E+03  0.39692961463E+02 -0.90503976999E+03  0.97824508645E+03  0.00000000000E+00 0.  1.
         11    1    5    5    0    0  0.16261817845E+02  0.74241583310E+02 -0.23340052125E+03  0.24546295593E+03  0.00000000000E+00 0. -1.
        -11    1    5    5    0    0 -0.29339333721E+02 -0.12081059021E+02 -0.50746508963E+02  0.59849449974E+02  0.00000000000E+00 0.  1.
          3    1    6    6  503    0 -0.35487860763E+03 -0.12505218408E+03  0.27424728418E+03  0.46560546365E+03  0.00000000000E+00 0. -1.
         -3    1    6    6    0  503 -0.22647425378E+03 -0.43928011446E+02  0.25415887923E+03  0.34324480143E+03  0.00000000000E+00 0.  1.
<mgrwt>
<rscale>  0 0.23561328E+04</rscale>
<asrwt>0</asrwt>
<pdfrwt beam="1">  1        2 0.28694938E+00 0.23561328E+04</pdfrwt>
<pdfrwt beam="2">  1       -1 0.11447418E+00 0.23561328E+04</pdfrwt>
<totfact> 0.56597395E+00</totfact>
</mgrwt>
</event>
<event>
12    6  0.9491186E-008  0.2312114E+04  0.7818608E-02  0.8473160E-01
          2   -1    0    0  501    0  0.00000000000E+00  0.00000000000E+00  0.66636438588E+03  0.66636438588E+03  0.00000000000E+00 0. -1.
         -1   -1    0    0    0  501 -0.00000000000E+00 -0.00000000000E+00 -0.20056106622E+04  0.20056106622E+04  0.00000000000E+00 0.  1.
         24    2    1    2    0    0  0.34823565258E+03 -0.67755383948E+03  0.14251145676E+03  0.77915423052E+03  0.80153131606E+02 0.  0.
        254    2    1    2    0    0 -0.34823565258E+03  0.67755383948E+03 -0.14817577331E+04  0.18928208176E+04  0.89823014463E+03 0.  0.
         23    2    4    4    0    0 -0.13865422199E+03  0.86498824364E+03 -0.11505794679E+04  0.14488915276E+04  0.89576179333E+02 0.  0.
         23    2    4    4    0    0 -0.20958143059E+03 -0.18743440416E+03 -0.33117826521E+03  0.44392928998E+03  0.91313412162E+02 0.  0.
          2    1    3    3  502    0  0.30892159468E+03 -0.61639255865E+03  0.10526407650E+03  0.69746172928E+03  0.00000000000E+00 0. -1.
         -1    1    3    3    0  502  0.39314057897E+02 -0.61161280834E+02  0.37247380262E+02  0.81692501234E+02  0.00000000000E+00 0.  1.
         11    1    5    5    0    0 -0.58031806374E+02  0.60617348684E+03 -0.81998316209E+03  0.10213649557E+04  0.00000000000E+00 0.  1.
        -11    1    5    5    0    0 -0.80622415616E+02  0.25881475680E+03 -0.33059630578E+03  0.42752657184E+03  0.00000000000E+00 0. -1.
          4    1    6    6  503    0 -0.19280826119E+03 -0.16565612703E+03 -0.24336496726E+03  0.35191403111E+03  0.00000000000E+00 0.  1.
         -4    1    6    6    0  503 -0.16773169398E+02 -0.21778277131E+02 -0.87813297953E+02  0.92015258864E+02  0.00000000000E+00 0. -1.
<mgrwt>
<rscale>  0 0.23121138E+04</rscale>
<asrwt>0</asrwt>
<pdfrwt beam="1">  1        2 0.10251760E+00 0.23121138E+04</pdfrwt>
<pdfrwt beam="2">  1       -1 0.30855548E+00 0.23121138E+04</pdfrwt>
<totfact> 0.13097013E+00</totfact>
</mgrwt>
</event>
<event>
12    6  0.9491186E-008  0.1942700E+04  0.7818608E-02  0.8633889E-01
          2   -1    0    0  501    0  0.00000000000E+00  0.00000000000E+00  0.18189045114E+04  0.18189045114E+04  0.00000000000E+00 0. -1.
         -1   -1    0    0    0  501 -0.00000000000E+00 -0.00000000000E+00 -0.51873038100E+03  0.51873038100E+03  0.00000000000E+00 0.  1.
         24    2    1    2    0    0 -0.93761133170E+02  0.13261327183E+03 -0.37983790778E+03  0.42074120053E+03  0.79805336160E+02 0.  0.
        254    2    1    2    0    0  0.93761133170E+02 -0.13261327183E+03  0.16800120382E+04  0.19168936919E+04  0.90866030374E+03 0.  0.
         23    2    4    4    0    0 -0.29632653507E+03  0.16109440125E+03  0.10963752188E+04  0.11507889302E+04  0.92280658896E+02 0.  0.
         23    2    4    4    0    0  0.39008766824E+03 -0.29370767308E+03  0.58363681943E+03  0.76610476171E+03  0.88611414535E+02 0.  0.
          2    1    3    3  502    0  0.18487171207E+01 -0.45324678096E+01  0.84298493387E+00  0.49670557714E+01  0.00000000000E+00 0. -1.
         -1    1    3    3    0  502 -0.95609850291E+02  0.13714573964E+03 -0.38068089271E+03  0.41577414476E+03  0.00000000000E+00 0.  1.
         11    1    5    5    0    0 -0.26797021373E+03  0.16996991860E+03  0.95554971536E+03  0.10068629833E+04  0.00000000000E+00 0. -1.
        -11    1    5    5    0    0 -0.28356321345E+02 -0.88755173487E+01  0.14082550339E+03  0.14392594684E+03  0.00000000000E+00 0.  1.
          4    1    6    6  503    0  0.25823745553E+03 -0.15391080643E+03  0.39933915799E+03  0.49984685943E+03  0.00000000000E+00 0. -1.
         -4    1    6    6    0  503  0.13185021272E+03 -0.13979686666E+03  0.18429766143E+03  0.26625790229E+03  0.00000000000E+00 0.  1.
<mgrwt>
<rscale>  0 0.19427002E+04</rscale>
<asrwt>0</asrwt>
<pdfrwt beam="1">  1        2 0.27983146E+00 0.19427002E+04</pdfrwt>
<pdfrwt beam="2">  1       -1 0.79804675E-01 0.19427002E+04</pdfrwt>
<totfact> 0.14037728E+01</totfact>
</mgrwt>
</event>
<event>
12    6  0.9491186E-008  0.1643144E+04  0.7818608E-02  0.8794473E-01
         -1   -1    0    0    0  501 -0.00000000000E+00  0.00000000000E+00  0.63746420933E+03  0.63746420933E+03  0.00000000000E+00 0.  1.
          2   -1    0    0  501    0  0.00000000000E+00 -0.00000000000E+00 -0.10588519784E+04  0.10588519784E+04  0.00000000000E+00 0. -1.
         24    2    1    2    0    0  0.50743932463E+03  0.97190163285E+02 -0.39849574051E+03  0.65867491149E+03  0.90073235729E+02 0.  0.
        254    2    1    2    0    0 -0.50743932463E+03 -0.97190163285E+02 -0.22892028536E+02  0.10376412762E+04  0.89957477571E+03 0.  0.
         23    2    4    4    0    0 -0.51875913434E+03 -0.36789395365E+03  0.20257802769E+03  0.67354321326E+03  0.90363721876E+02 0.  0.
         23    2    4    4    0    0  0.11319809706E+02  0.27070379037E+03 -0.22547005623E+03  0.36409806295E+03  0.91224848469E+02 0.  0.
          4    1    3    3  502    0  0.25020524835E+03  0.63945146257E+02 -0.14582883808E+03  0.29657663098E+03  0.00000000000E+00 0. -1.
         -3    1    3    3    0  502  0.25723407629E+03  0.33245017028E+02 -0.25266690243E+03  0.36209828050E+03  0.00000000000E+00 0.  1.
         11    1    5    5    0    0 -0.32008086687E+03 -0.19951796615E+03  0.15978067421E+03  0.40962060984E+03  0.00000000000E+00 0. -1.
        -11    1    5    5    0    0 -0.19867826747E+03 -0.16837598750E+03  0.42797353479E+02  0.26392260342E+03  0.00000000000E+00 0.  1.
          4    1    6    6  503    0 -0.32819293086E+02  0.19253227520E+03 -0.16691573944E+03  0.25691758808E+03  0.00000000000E+00 0. -1.
         -4    1    6    6    0  503  0.44139102792E+02  0.78171515165E+02 -0.58554316785E+02  0.10718047487E+03  0.00000000000E+00 0.  1.
<mgrwt>
<rscale>  0 0.16431436E+04</rscale>
<asrwt>0</asrwt>
<pdfrwt beam="1">  1        2 0.16290030E+00 0.16431436E+04</pdfrwt>
<pdfrwt beam="2">  1       -1 0.98071418E-01 0.16431436E+04</pdfrwt>
<totfact> 0.25110791E+01</totfact>
</mgrwt>
</event>
<event>
12    6  0.9491186E-008  0.1293217E+04  0.7818608E-02  0.9034961E-01
         -1   -1    0    0    0  501 -0.00000000000E+00  0.00000000000E+00  0.72095621732E+03  0.72095621732E+03  0.00000000000E+00 0.  1.
          2   -1    0    0  501    0  0.00000000000E+00 -0.00000000000E+00 -0.57992822145E+03  0.57992822145E+03  0.00000000000E+00 0. -1.
         24    2    1    2    0    0 -0.59584525468E+02 -0.29103954550E+03 -0.82104380666E+02  0.31839063602E+03  0.79856966238E+02 0.  0.
        254    2    1    2    0    0  0.59584525468E+02  0.29103954550E+03  0.22313237654E+03  0.98249380275E+03  0.90953377192E+03 0.  0.
         23    2    4    4    0    0  0.29307091490E+03 -0.13127632773E+03  0.34155610361E+03  0.47754043730E+03  0.90885983316E+02 0.  0.
         23    2    4    4    0    0 -0.23348638944E+03  0.42231587323E+03 -0.11842372707E+03  0.50495336544E+03  0.89928478827E+02 0.  0.
          4    1    3    3  502    0 -0.76420627837E+02 -0.19795333319E+03 -0.67523360045E+02  0.22267698272E+03  0.00000000000E+00 0. -1.
         -3    1    3    3    0  502  0.16836102369E+02 -0.93086212308E+02 -0.14581020621E+02  0.95713653296E+02  0.00000000000E+00 0.  1.
         11    1    5    5    0    0  0.38514351779E+02 -0.10333827331E+02  0.95213273133E+02  0.10322650174E+03  0.00000000000E+00 0. -1.
        -11    1    5    5    0    0  0.25455656312E+03 -0.12094250040E+03  0.24634283048E+03  0.37431393557E+03  0.00000000000E+00 0.  1.
          1    1    6    6  503    0 -0.54513994836E+02  0.15633882226E+03 -0.75706598154E+01  0.16574353039E+03  0.00000000000E+00 0. -1.
         -1    1    6    6    0  503 -0.17897239460E+03  0.26597705098E+03 -0.11085306726E+03  0.33920983505E+03  0.00000000000E+00 0.  1.
<mgrwt>
<rscale>  0 0.12932175E+04</rscale>
<asrwt>0</asrwt>
<pdfrwt beam="1">  1        2 0.89219727E-01 0.12932175E+04</pdfrwt>
<pdfrwt beam="2">  1       -1 0.11091634E+00 0.12932175E+04</pdfrwt>
<totfact> 0.43362021E+01</totfact>
</mgrwt>
</event>
<event>
12    6  0.9491186E-008  0.3166884E+04  0.7818608E-02  0.8197618E-01
         -1   -1    0    0    0  501 -0.00000000000E+00  0.00000000000E+00  0.26668128812E+04  0.26668128812E+04  0.00000000000E+00 0.  1.
          2   -1    0    0  501    0  0.00000000000E+00 -0.00000000000E+00 -0.94018186710E+03  0.94018186710E+03  0.00000000000E+00 0. -1.
         24    2    1    2    0    0  0.92861125317E+03  0.96131134776E+03  0.14437813821E+04  0.19691024716E+04  0.80134246201E+02 0.  0.
        254    2    1    2    0    0 -0.92861125317E+03 -0.96131134776E+03  0.28284963201E+03  0.16378922767E+04  0.90346490193E+03 0.  0.
         23    2    4    4    0    0 -0.28363407262E+03 -0.14058977882E+03  0.46924426469E+03  0.57313802278E+03  0.89906841560E+02 0.  0.
         23    2    4    4    0    0 -0.64497718056E+03 -0.82072156894E+03 -0.18639463268E+03  0.10647542540E+04  0.96846296049E+02 0.  0.
          4    1    3    3  502    0  0.15701475540E+03  0.13935597147E+03  0.26364436291E+03  0.33701939157E+03  0.00000000000E+00 0. -1.
         -3    1    3    3    0  502  0.77159649778E+03  0.82195537629E+03  0.11801370192E+04  0.16320830800E+04  0.00000000000E+00 0.  1.
         11    1    5    5    0    0 -0.28097401291E+03 -0.12748335225E+03  0.46678299625E+03  0.55953978109E+03  0.00000000000E+00 0. -1.
        -11    1    5    5    0    0 -0.26600597109E+01 -0.13106426563E+02  0.24612684390E+01  0.13598241696E+02  0.00000000000E+00 0.  1.
          3    1    6    6  503    0 -0.14244682698E+03 -0.16436868943E+03 -0.66708844834E+00  0.21750542428E+03  0.00000000000E+00 0.  1.
         -3    1    6    6    0  503 -0.50253035357E+03 -0.65635287950E+03 -0.18572754424E+03  0.84724882967E+03  0.00000000000E+00 0. -1.
<mgrwt>
<rscale>  0 0.31668843E+04</rscale>
<asrwt>0</asrwt>
<pdfrwt beam="1">  1        2 0.14464337E+00 0.31668843E+04</pdfrwt>
<pdfrwt beam="2">  1       -1 0.41027890E+00 0.31668843E+04</pdfrwt>
<totfact> 0.16115685E-01</totfact>
</mgrwt>
</event>
<event>
12    6  0.9491186E-008  0.2849874E+04  0.7818608E-02  0.8287950E-01
         -1   -1    0    0    0  501 -0.00000000000E+00  0.00000000000E+00  0.12920555355E+04  0.12920555355E+04  0.00000000000E+00 0.  1.
          2   -1    0    0  501    0  0.00000000000E+00 -0.00000000000E+00 -0.15714848668E+04  0.15714848668E+04  0.00000000000E+00 0. -1.
         24    2    1    2    0    0 -0.77239568669E+02  0.51866939136E+03  0.10481931490E+04  0.11747255278E+04  0.79292494344E+02 0.  0.
        254    2    1    2    0    0  0.77239568669E+02 -0.51866939136E+03 -0.13276224803E+04  0.16888148746E+04  0.90251334719E+03 0.  0.
         23    2    4    4    0    0 -0.14110813370E+03 -0.33222777670E+03 -0.49226846535E+02  0.37544520502E+03  0.90824107760E+02 0.  0.
         23    2    4    4    0    0  0.21834770237E+03 -0.18644161466E+03 -0.12783956337E+04  0.13133696695E+04  0.90599655920E+02 0.  0.
          4    1    3    3  502    0 -0.63885607546E+02  0.23400820174E+03  0.42229269028E+03  0.48700341436E+03  0.00000000000E+00 0. -1.
         -3    1    3    3    0  502 -0.13353961123E+02  0.28466118962E+03  0.62590045870E+03  0.68772211347E+03  0.00000000000E+00 0.  1.
         11    1    5    5    0    0 -0.14985164737E+03 -0.26680928790E+03 -0.35858963511E+02  0.30810481592E+03  0.00000000000E+00 0. -1.
        -11    1    5    5    0    0  0.87435136739E+01 -0.65418488797E+02 -0.13367883024E+02  0.67340389102E+02  0.00000000000E+00 0.  1.
          3    1    6    6  503    0  0.21656296271E+03 -0.16920671478E+03 -0.12519002456E+04  0.12817116111E+04  0.00000000000E+00 0. -1.
         -3    1    6    6    0  503  0.17847396600E+01 -0.17234899880E+02 -0.26495388167E+02  0.31658058431E+02  0.00000000000E+00 0.  1.
<mgrwt>
<rscale>  0 0.28498742E+04</rscale>
<asrwt>0</asrwt>
<pdfrwt beam="1">  1        2 0.24176690E+00 0.28498742E+04</pdfrwt>
<pdfrwt beam="2">  1       -1 0.19877777E+00 0.28498742E+04</pdfrwt>
<totfact> 0.17520064E+00</totfact>
</mgrwt>
</event>
<event>
12    6  0.9491186E-008  0.2348700E+04  0.7818608E-02  0.8458963E-01
         -3   -1    0    0    0  501 -0.00000000000E+00  0.00000000000E+00  0.25457781614E+04  0.25457781614E+04  0.00000000000E+00 0.  1.
          2   -1    0    0  501    0  0.00000000000E+00 -0.00000000000E+00 -0.54171962800E+03  0.54171962800E+03  0.00000000000E+00 0. -1.
         24    2    1    2    0    0  0.87846698510E+03 -0.37202106978E+03  0.43207463805E+03  0.10508294276E+04  0.86313804586E+02 0.  0.
        254    2    1    2    0    0 -0.87846698510E+03  0.37202106978E+03  0.15719838953E+04  0.20366683617E+04  0.87566016711E+03 0.  0.
         23    2    4    4    0    0 -0.57388794417E+03  0.48229111178E+03  0.15181125604E+04  0.16954310937E+04  0.88706022555E+02 0.  0.
         23    2    4    4    0    0 -0.30457904094E+03 -0.11027004200E+03  0.53871334958E+02  0.34123726808E+03  0.92805592791E+02 0.  0.
          2    1    3    3  502    0  0.88207574987E+02 -0.56497159904E+02  0.70560013335E+02  0.12629814268E+03  0.00000000000E+00 0. -1.
         -1    1    3    3    0  502  0.79025941012E+03 -0.31552390987E+03  0.36151462471E+03  0.92453128495E+03  0.00000000000E+00 0.  1.
         11    1    5    5    0    0 -0.50796280313E+03  0.41199434248E+03  0.12545367826E+04  0.14147890608E+04  0.00000000000E+00 0.  1.
        -11    1    5    5    0    0 -0.65925141036E+02  0.70296769303E+02  0.26357577774E+03  0.28064203286E+03  0.00000000000E+00 0. -1.
          1    1    6    6  503    0 -0.71928357803E+01  0.10142240173E+02  0.12689878618E+02  0.17766117798E+02  0.00000000000E+00 0. -1.
         -1    1    6    6    0  503 -0.29738620516E+03 -0.12041228218E+03  0.41181456340E+02  0.32347115028E+03  0.00000000000E+00 0.  1.
<mgrwt>
<rscale>  0 0.23487001E+04</rscale>
<asrwt>0</asrwt>
<pdfrwt beam="1">  1        2 0.83341483E-01 0.23487001E+04</pdfrwt>
<pdfrwt beam="2">  1       -3 0.39165817E+00 0.23487001E+04</pdfrwt>
<totfact> 0.37026336E-01</totfact>
</mgrwt>
</event>
<event>
12    6  0.9491186E-008  0.1333858E+04  0.7818608E-02  0.9003138E-01
          2   -1    0    0  501    0  0.00000000000E+00  0.00000000000E+00  0.25790644210E+04  0.25790644210E+04  0.00000000000E+00 0. -1.
         -1   -1    0    0    0  501 -0.00000000000E+00 -0.00000000000E+00 -0.17246337468E+03  0.17246337468E+03  0.00000000000E+00 0.  1.
         24    2    1    2    0    0 -0.10552713120E+03  0.28141210953E+03  0.10985970548E+04  0.11417343820E+04  0.79455391805E+02 0.  0.
        254    2    1    2    0    0  0.10552713120E+03 -0.28141210953E+03  0.13080039915E+04  0.16097934137E+04  0.88894974113E+03 0.  0.
         23    2    4    4    0    0 -0.10661952580E+03  0.24057183069E+02  0.12044700673E+04  0.12127837862E+04  0.90276784642E+02 0.  0.
         23    2    4    4    0    0  0.21214665700E+03 -0.30546929260E+03  0.10353392419E+03  0.39700962746E+03  0.92626551477E+02 0.  0.
          2    1    3    3  502    0 -0.11599010845E+03  0.22517386532E+03  0.87354121102E+03  0.90952252431E+03  0.00000000000E+00 0. -1.
         -1    1    3    3    0  502  0.10462977249E+02  0.56238244211E+02  0.22505584381E+03  0.23221185766E+03  0.00000000000E+00 0.  1.
         11    1    5    5    0    0 -0.75991722506E+02 -0.13361743847E+02  0.98658186376E+03  0.98959438761E+03  0.00000000000E+00 0.  1.
        -11    1    5    5    0    0 -0.30627803290E+02  0.37418926916E+02  0.21788820350E+03  0.22318939861E+03  0.00000000000E+00 0. -1.
          2    1    6    6  503    0  0.54778241099E+01 -0.68331288777E+02  0.23005068541E+02  0.72307708866E+02  0.00000000000E+00 0. -1.
         -2    1    6    6    0  503  0.20666883289E+03 -0.23713800382E+03  0.80528855651E+02  0.32470191859E+03  0.00000000000E+00 0.  1.
<mgrwt>
<rscale>  0 0.13338578E+04</rscale>
<asrwt>0</asrwt>
<pdfrwt beam="1">  1        2 0.39677912E+00 0.13338578E+04</pdfrwt>
<pdfrwt beam="2">  1       -1 0.26532829E-01 0.13338578E+04</pdfrwt>
<totfact> 0.44304678E+01</totfact>
</mgrwt>
</event>
<event>
12    6  0.9491186E-008  0.3996376E+04  0.7818608E-02  0.8005278E-01
         -1   -1    0    0    0  501 -0.00000000000E+00  0.00000000000E+00  0.20594330705E+04  0.20594330705E+04  0.00000000000E+00 0.  1.
          2   -1    0    0  501    0  0.00000000000E+00 -0.00000000000E+00 -0.19387640793E+04  0.19387640793E+04  0.00000000000E+00 0. -1.
         24    2    1    2    0    0 -0.13071075544E+04 -0.15307227165E+03  0.14210909064E+04  0.19384240889E+04  0.77635718991E+02 0.  0.
        254    2    1    2    0    0  0.13071075544E+04  0.15307227165E+03 -0.13004219153E+04  0.20597730610E+04  0.90532128333E+03 0.  0.
         23    2    4    4    0    0  0.10703990324E+04  0.15024274757E+03 -0.45234078056E+03  0.11745951996E+04  0.82065396211E+02 0.  0.
         23    2    4    4    0    0  0.23670852195E+03  0.28295240817E+01 -0.84808113471E+03  0.88517786144E+03  0.90880717222E+02 0.  0.
          4    1    3    3  502    0 -0.13573691657E+02 -0.99243501103E+01  0.15774139094E+02  0.23055613080E+02  0.00000000000E+00 0. -1.
         -3    1    3    3    0  502 -0.12935338627E+04 -0.14314792154E+03  0.14053167673E+04  0.19153684758E+04  0.00000000000E+00 0.  1.
         11    1    5    5    0    0  0.66465891837E+03  0.10521239960E+03 -0.32242884630E+03  0.74619132113E+03  0.00000000000E+00 0. -1.
        -11    1    5    5    0    0  0.40574011406E+03  0.45030347965E+02 -0.12991193425E+03  0.42840387843E+03  0.00000000000E+00 0.  1.
          2    1    6    6  503    0  0.27756876033E+02  0.22367790662E+02 -0.22240256457E+03  0.22524134379E+03  0.00000000000E+00 0. -1.
         -2    1    6    6    0  503  0.20895164592E+03 -0.19538266580E+02 -0.62567857013E+03  0.65993651764E+03  0.00000000000E+00 0.  1.
<mgrwt>
<rscale>  0 0.39963758E+04</rscale>
<asrwt>0</asrwt>
<pdfrwt beam="1">  1        2 0.29827140E+00 0.39963758E+04</pdfrwt>
<pdfrwt beam="2">  1       -1 0.31683586E+00 0.39963758E+04</pdfrwt>
<totfact> 0.16651980E-01</totfact>
</mgrwt>
</event>
<event>
12    6  0.1094090E-007  0.1810008E+04  0.7818608E-02  0.8700996E-01
         -1   -1    0    0    0  501 -0.00000000000E+00  0.00000000000E+00  0.35494555792E+03  0.35494555792E+03  0.00000000000E+00 0.  1.
          2   -1    0    0  501    0  0.00000000000E+00 -0.00000000000E+00 -0.23074862233E+04  0.23074862233E+04  0.00000000000E+00 0. -1.
         24    2    1    2    0    0 -0.49518903526E+03 -0.10286552931E+03 -0.13984866097E+04  0.14893023005E+04  0.80393077577E+02 0.  0.
        254    2    1    2    0    0  0.49518903526E+03  0.10286552931E+03 -0.55405405569E+03  0.11731294808E+04  0.90192204998E+03 0.  0.
         23    2    4    4    0    0  0.69817174741E+03 -0.10055334870E+03 -0.49506789392E+03  0.86647243035E+03  0.90152582673E+02 0.  0.
         23    2    4    4    0    0 -0.20298271214E+03  0.20341887801E+03 -0.58986161779E+02  0.30665705041E+03  0.89319415181E+02 0.  0.
          4    1    3    3  502    0 -0.45763619430E+03 -0.11214762430E+03 -0.12498475959E+04  0.13357121655E+04  0.00000000000E+00 0. -1.
         -3    1    3    3    0  502 -0.37552840961E+02  0.92820949848E+01 -0.14863901379E+03  0.15359013501E+03  0.00000000000E+00 0.  1.
         11    1    5    5    0    0  0.19873619875E+03 -0.67734138490E+02 -0.12972899595E+03  0.24680681230E+03  0.00000000000E+00 0.  1.
        -11    1    5    5    0    0  0.49943554866E+03 -0.32819210205E+02 -0.36533889797E+03  0.61966561805E+03  0.00000000000E+00 0. -1.
          2    1    6    6  503    0 -0.19068685169E+03  0.14596846326E+03 -0.32939796365E+02  0.24239079574E+03  0.00000000000E+00 0. -1.
         -2    1    6    6    0  503 -0.12295860454E+02  0.57450414743E+02 -0.26046365414E+02  0.64266254674E+02  0.00000000000E+00 0.  1.
<mgrwt>
<rscale>  0 0.18100077E+04</rscale>
<asrwt>0</asrwt>
<pdfrwt beam="1">  1        2 0.35499788E+00 0.18100077E+04</pdfrwt>
<pdfrwt beam="2">  1       -1 0.54607008E-01 0.18100077E+04</pdfrwt>
<totfact> 0.16345788E+01</totfact>
</mgrwt>
</event>
<event>
12    6  0.9491186E-008  0.1347451E+04  0.7818608E-02  0.8992760E-01
         -1   -1    0    0    0  501 -0.00000000000E+00  0.00000000000E+00  0.52251914014E+03  0.52251914014E+03  0.00000000000E+00 0.  1.
          2   -1    0    0  501    0  0.00000000000E+00 -0.00000000000E+00 -0.86868776255E+03  0.86868776255E+03  0.00000000000E+00 0. -1.
         24    2    1    2    0    0  0.22212268463E+02 -0.32704042728E+03  0.77910402016E+02  0.34639464940E+03  0.80438774500E+02 0.  0.
        254    2    1    2    0    0 -0.22212268463E+02  0.32704042728E+03 -0.42407902443E+03  0.10448122533E+04  0.89685048907E+03 0.  0.
         23    2    4    4    0    0 -0.44108071644E+03  0.25697953485E+03 -0.20405248836E+03  0.55789659863E+03  0.94976402377E+02 0.  0.
         23    2    4    4    0    0  0.41886844798E+03  0.70060892429E+02 -0.22002653607E+03  0.48691565467E+03  0.91191407630E+02 0.  0.
          4    1    3    3  502    0 -0.23210887946E+02 -0.20585209134E+03  0.35322977597E+02  0.21014647648E+03  0.00000000000E+00 0. -1.
         -3    1    3    3    0  502  0.45423156409E+02 -0.12118833593E+03  0.42587424419E+02  0.13624817292E+03  0.00000000000E+00 0.  1.
         11    1    5    5    0    0 -0.59940310269E+02  0.77113646848E+02 -0.33698506270E+02  0.10331962374E+03  0.00000000000E+00 0. -1.
        -11    1    5    5    0    0 -0.38114040618E+03  0.17986588800E+03 -0.17035398209E+03  0.45457697489E+03  0.00000000000E+00 0.  1.
          1    1    6    6  503    0  0.26322890027E+03  0.42828520386E+01 -0.11024367979E+03  0.28541455060E+03  0.00000000000E+00 0. -1.
         -1    1    6    6    0  503  0.15563954771E+03  0.65778040390E+02 -0.10978285628E+03  0.20150110407E+03  0.00000000000E+00 0.  1.
<mgrwt>
<rscale>  0 0.13474509E+04</rscale>
<asrwt>0</asrwt>
<pdfrwt beam="1">  1        2 0.13364427E+00 0.13474509E+04</pdfrwt>
<pdfrwt beam="2">  1       -1 0.80387561E-01 0.13474509E+04</pdfrwt>
<totfact> 0.53050039E+01</totfact>
</mgrwt>
</event>
<event>
12    6  0.9491186E-008  0.1326606E+04  0.7818608E-02  0.9008728E-01
         -1   -1    0    0    0  501 -0.00000000000E+00  0.00000000000E+00  0.27546339623E+03  0.27546339623E+03  0.00000000000E+00 0.  1.
          2   -1    0    0  501    0  0.00000000000E+00 -0.00000000000E+00 -0.15972033778E+04  0.15972033778E+04  0.00000000000E+00 0. -1.
         24    2    1    2    0    0  0.33351281750E+03  0.10725856526E+03 -0.45840139481E+03  0.58237200559E+03  0.79310244422E+02 0.  0.
        254    2    1    2    0    0 -0.33351281750E+03 -0.10725856526E+03 -0.86333858673E+03  0.12902947684E+04  0.89262079003E+03 0.  0.
         23    2    4    4    0    0 -0.55850303838E+03 -0.14030498266E+02 -0.23811772055E+03  0.61314880392E+03  0.84432861723E+02 0.  0.
         23    2    4    4    0    0  0.22499022088E+03 -0.93228066997E+02 -0.62522086618E+03  0.67714596450E+03  0.91178142991E+02 0.  0.
          2    1    3    3  502    0  0.26647295489E+03  0.52641328066E+02 -0.36654702585E+03  0.45621888087E+03  0.00000000000E+00 0. -1.
         -1    1    3    3    0  502  0.67039862612E+02  0.54617237196E+02 -0.91854368964E+02  0.12615312472E+03  0.00000000000E+00 0.  1.
         11    1    5    5    0    0 -0.52416115590E+03 -0.31680692750E+02 -0.23188188418E+03  0.57403640290E+03  0.00000000000E+00 0. -1.
        -11    1    5    5    0    0 -0.34341882483E+02  0.17650194484E+02 -0.62358363762E+01  0.39112401014E+02  0.00000000000E+00 0.  1.
          2    1    6    6  503    0  0.19093186437E+03 -0.67099194687E+02 -0.58220076913E+03  0.61637246397E+03  0.00000000000E+00 0. -1.
         -2    1    6    6    0  503  0.34058356513E+02 -0.26128872310E+02 -0.43020097046E+02  0.60773500528E+02  0.00000000000E+00 0.  1.
<mgrwt>
<rscale>  0 0.13266063E+04</rscale>
<asrwt>0</asrwt>
<pdfrwt beam="1">  1        2 0.24572359E+00 0.13266063E+04</pdfrwt>
<pdfrwt beam="2">  1       -1 0.42378985E-01 0.13266063E+04</pdfrwt>
<totfact> 0.68305538E+01</totfact>
</mgrwt>
</event>
<event>
12    6  0.9491186E-008  0.1385372E+04  0.7818608E-02  0.8964476E-01
          2   -1    0    0  501    0  0.00000000000E+00  0.00000000000E+00  0.17588865895E+04  0.17588865895E+04  0.00000000000E+00 0. -1.
         -1   -1    0    0    0  501 -0.00000000000E+00 -0.00000000000E+00 -0.27279416400E+03  0.27279416400E+03  0.00000000000E+00 0.  1.
         24    2    1    2    0    0  0.33458504964E+03 -0.16638292210E+03  0.62172346169E+03  0.72965455133E+03  0.78900375405E+02 0.  0.
        254    2    1    2    0    0 -0.33458504964E+03  0.16638292210E+03  0.86436896379E+03  0.13020262022E+04  0.89917078096E+03 0.  0.
         23    2    4    4    0    0 -0.52719408074E+03 -0.71650758551E+02  0.22027818950E+03  0.58305994182E+03  0.91482156830E+02 0.  0.
         23    2    4    4    0    0  0.19260903110E+03  0.23803368065E+03  0.64409077429E+03  0.71896626034E+03  0.91111393369E+02 0.  0.
          4    1    3    3  502    0  0.28964606291E+03 -0.11191646939E+03  0.48757503215E+03  0.57805670124E+03  0.00000000000E+00 0. -1.
         -3    1    3    3    0  502  0.44938986730E+02 -0.54466452712E+02  0.13414842955E+03  0.15159785008E+03  0.00000000000E+00 0.  1.
         11    1    5    5    0    0 -0.28079438527E+03  0.77586459541E+01  0.11003121905E+03  0.30168286751E+03  0.00000000000E+00 0. -1.
        -11    1    5    5    0    0 -0.24639969547E+03 -0.79409404505E+02  0.11024697045E+03  0.28137707431E+03  0.00000000000E+00 0.  1.
          4    1    6    6  503    0  0.12287113751E+03  0.91990321371E+02  0.25609387926E+03  0.29856927279E+03  0.00000000000E+00 0. -1.
         -4    1    6    6    0  503  0.69737893585E+02  0.14604335928E+03  0.38799689503E+03  0.42039698755E+03  0.00000000000E+00 0.  1.
<mgrwt>
<rscale>  0 0.13853721E+04</rscale>
<asrwt>0</asrwt>
<pdfrwt beam="1">  1        2 0.27059793E+00 0.13853721E+04</pdfrwt>
<pdfrwt beam="2">  1       -1 0.41968334E-01 0.13853721E+04</pdfrwt>
<totfact> 0.56285111E+01</totfact>
</mgrwt>
</event>
<event>
12    6  0.9491186E-008  0.1770903E+04  0.7818608E-02  0.8721928E-01
         -1   -1    0    0    0  501 -0.00000000000E+00  0.00000000000E+00  0.20910716471E+03  0.20910716471E+03  0.00000000000E+00 0.  1.
          2   -1    0    0  501    0  0.00000000000E+00 -0.00000000000E+00 -0.37493886580E+04  0.37493886580E+04  0.00000000000E+00 0. -1.
         24    2    1    2    0    0  0.26947417539E+03 -0.38741109951E+03 -0.30298864832E+03  0.56625048377E+03  0.78318568232E+02 0.  0.
        254    2    1    2    0    0 -0.26947417539E+03  0.38741109951E+03 -0.32372928449E+04  0.33922453389E+04  0.89697256604E+03 0.  0.
         23    2    4    4    0    0 -0.25339737321E+03 -0.23788994464E+03 -0.84832355864E+03  0.92116645097E+03  0.89960634357E+02 0.  0.
         23    2    4    4    0    0 -0.16076802183E+02  0.62530104415E+03 -0.23889692863E+04  0.24710788879E+04  0.88299264875E+02 0.  0.
          2    1    3    3  502    0  0.67560568293E+02 -0.15565896063E+03 -0.87971079104E+02  0.19113621627E+03  0.00000000000E+00 0. -1.
         -3    1    3    3    0  502  0.20191360710E+03 -0.23175213888E+03 -0.21501756922E+03  0.37511426750E+03  0.00000000000E+00 0.  1.
         11    1    5    5    0    0 -0.26026543079E+03 -0.23046677691E+03 -0.83469883201E+03  0.90419863409E+03  0.00000000000E+00 0.  1.
        -11    1    5    5    0    0  0.68680575784E+01 -0.74231677240E+01 -0.13624726631E+02  0.16967816881E+02  0.00000000000E+00 0. -1.
          1    1    6    6  503    0 -0.52148208164E+02  0.33023793534E+03 -0.12405746841E+04  0.12848354277E+04  0.00000000000E+00 0. -1.
         -1    1    6    6    0  503  0.36071405982E+02  0.29506310881E+03 -0.11483946022E+04  0.11862434602E+04  0.00000000000E+00 0.  1.
<mgrwt>
<rscale>  0 0.17709026E+04</rscale>
<asrwt>0</asrwt>
<pdfrwt beam="1">  1        2 0.57682895E+00 0.17709026E+04</pdfrwt>
<pdfrwt beam="2">  1       -1 0.32170337E-01 0.17709026E+04</pdfrwt>
<totfact> 0.52729206E+00</totfact>
</mgrwt>
</event>
<event>
12    6  0.9491186E-008  0.1215590E+04  0.7818608E-02  0.9099319E-01
         -1   -1    0    0    0  501 -0.00000000000E+00  0.00000000000E+00  0.12870430528E+04  0.12870430528E+04  0.00000000000E+00 0.  1.
          2   -1    0    0  501    0  0.00000000000E+00 -0.00000000000E+00 -0.28702601750E+03  0.28702601750E+03  0.00000000000E+00 0. -1.
         24    2    1    2    0    0 -0.25508997852E+03  0.69278341780E+02  0.18109037340E+03  0.32968565609E+03  0.77643561967E+02 0.  0.
        254    2    1    2    0    0  0.25508997852E+03 -0.69278341780E+02  0.81892666190E+03  0.12443834142E+04  0.89887641987E+03 0.  0.
         23    2    4    4    0    0 -0.32028950065E+03 -0.11274304238E+03  0.28020713847E+03  0.44988132563E+03  0.92632655518E+02 0.  0.
         23    2    4    4    0    0  0.57537947917E+03  0.43464700596E+02  0.53871952343E+03  0.79450208857E+03  0.89800437512E+02 0.  0.
          2    1    3    3  502    0 -0.16989313296E+03  0.76119000344E+02  0.14877262952E+03  0.23830877897E+03  0.00000000000E+00 0. -1.
         -1    1    3    3    0  502 -0.85196845564E+02 -0.68406585639E+01  0.32317743875E+02  0.91376877124E+02  0.00000000000E+00 0.  1.
         11    1    5    5    0    0 -0.30735543140E+03 -0.81494268340E+02  0.24908388276E+03  0.40392011294E+03  0.00000000000E+00 0. -1.
        -11    1    5    5    0    0 -0.12934069250E+02 -0.31248774036E+02  0.31123255709E+02  0.45961212691E+02  0.00000000000E+00 0.  1.
          4    1    6    6  503    0  0.37418484855E+03  0.91343396563E+00  0.39172612235E+03  0.54172362896E+03  0.00000000000E+00 0. -1.
         -4    1    6    6    0  503  0.20119463062E+03  0.42551266631E+02  0.14699340108E+03  0.25277845961E+03  0.00000000000E+00 0.  1.
<mgrwt>
<rscale>  0 0.12155901E+04</rscale>
<asrwt>0</asrwt>
<pdfrwt beam="1">  1        2 0.44157850E-01 0.12155901E+04</pdfrwt>
<pdfrwt beam="2">  1       -1 0.19800662E+00 0.12155901E+04</pdfrwt>
<totfact> 0.20247078E+01</totfact>
</mgrwt>
</event>
<event>
12    6  0.9491186E-008  0.3206476E+04  0.7818608E-02  0.8187109E-01
         -1   -1    0    0    0  501 -0.00000000000E+00  0.00000000000E+00  0.35142261503E+04  0.35142261503E+04  0.00000000000E+00 0.  1.
          2   -1    0    0  501    0  0.00000000000E+00 -0.00000000000E+00 -0.73141888595E+03  0.73141888595E+03  0.00000000000E+00 0. -1.
         24    2    1    2    0    0  0.34729211264E+03 -0.13205043788E+04  0.20257556285E+04  0.24443371483E+04  0.82186388114E+02 0.  0.
        254    2    1    2    0    0 -0.34729211264E+03  0.13205043788E+04  0.75705163589E+03  0.18013078879E+04  0.89846496967E+03 0.  0.
         23    2    4    4    0    0 -0.51213662526E+03  0.35951554941E+03  0.44571163767E+03  0.77360666256E+03  0.90956314781E+02 0.  0.
         23    2    4    4    0    0  0.16484451262E+03  0.96098882942E+03  0.31133999822E+03  0.10277012254E+04  0.92541723245E+02 0.  0.
          2    1    3    3  502    0  0.19616859232E+03 -0.66771365781E+03  0.10962611655E+04  0.12985038268E+04  0.00000000000E+00 0. -1.
         -1    1    3    3    0  502  0.15112352031E+03 -0.65279072102E+03  0.92949446301E+03  0.11458333215E+04  0.00000000000E+00 0.  1.
         11    1    5    5    0    0 -0.21770911176E+03  0.20802379689E+03  0.20644245608E+03  0.36508854418E+03  0.00000000000E+00 0.  1.
        -11    1    5    5    0    0 -0.29442751350E+03  0.15149175252E+03  0.23926918159E+03  0.40851811838E+03  0.00000000000E+00 0. -1.
          1    1    6    6  503    0  0.16495286131E+03  0.94165740624E+03  0.31761513013E+03  0.10073765374E+04  0.00000000000E+00 0. -1.
         -1    1    6    6    0  503 -0.10834868894E+00  0.19331423182E+02 -0.62751319115E+01  0.20324687998E+02  0.00000000000E+00 0.  1.
<mgrwt>
<rscale>  0 0.32064756E+04</rscale>
<asrwt>0</asrwt>
<pdfrwt beam="1">  1        2 0.11252598E+00 0.32064756E+04</pdfrwt>
<pdfrwt beam="2">  1       -1 0.54065017E+00 0.32064756E+04</pdfrwt>
<totfact> 0.31253794E-02</totfact>
</mgrwt>
</event>
<event>
12    6  0.9491186E-008  0.1294227E+04  0.7818608E-02  0.9034155E-01
          2   -1    0    0  501    0  0.00000000000E+00  0.00000000000E+00  0.18294710209E+04  0.18294710209E+04  0.00000000000E+00 0. -1.
         -1   -1    0    0    0  501 -0.00000000000E+00 -0.00000000000E+00 -0.22889468467E+03  0.22889468467E+03  0.00000000000E+00 0.  1.
         24    2    1    2    0    0 -0.80061292904E+02 -0.33099700543E+02  0.93813714172E+03  0.94555815815E+03  0.80458268481E+02 0.  0.
        254    2    1    2    0    0  0.80061292904E+02  0.33099700543E+02  0.66243919454E+03  0.11128075474E+04  0.88994918416E+03 0.  0.
         23    2    4    4    0    0  0.52208890027E+02 -0.22650205056E+03  0.77491220128E+03  0.81429235901E+03  0.92488805533E+02 0.  0.
         23    2    4    4    0    0  0.27852402877E+02  0.25960175110E+03 -0.11247300673E+03  0.29851518844E+03  0.91062148903E+02 0.  0.
          4    1    3    3  502    0 -0.83816758793E+02 -0.20773883792E+02  0.91507604077E+03  0.91914142747E+03  0.00000000000E+00 0. -1.
         -3    1    3    3    0  502  0.37554658891E+01 -0.12325816751E+02  0.23061100953E+02  0.26416730680E+02  0.00000000000E+00 0.  1.
         11    1    5    5    0    0  0.91475882131E+01 -0.15342414813E+03  0.37111730041E+03  0.40168482454E+03  0.00000000000E+00 0.  1.
        -11    1    5    5    0    0  0.43061301814E+02 -0.73077902425E+02  0.40379490086E+03  0.41260753447E+03  0.00000000000E+00 0. -1.
          4    1    6    6  503    0  0.42351294517E+02  0.77280074284E+02 -0.65158960255E+02  0.10959713559E+03  0.00000000000E+00 0. -1.
         -4    1    6    6    0  503 -0.14498891640E+02  0.18232167682E+03 -0.47314046479E+02  0.18891805285E+03  0.00000000000E+00 0.  1.
<mgrwt>
<rscale>  0 0.12942275E+04</rscale>
<asrwt>0</asrwt>
<pdfrwt beam="1">  1        2 0.28145707E+00 0.12942275E+04</pdfrwt>
<pdfrwt beam="2">  1       -1 0.35214568E-01 0.12942275E+04</pdfrwt>
<totfact> 0.71259831E+01</totfact>
</mgrwt>
</event>
<event>
12    6  0.9491186E-008  0.1510195E+04  0.7818608E-02  0.8877701E-01
         -1   -1    0    0    0  501 -0.00000000000E+00  0.00000000000E+00  0.32628063441E+03  0.32628063441E+03  0.00000000000E+00 0.  1.
          2   -1    0    0  501    0  0.00000000000E+00 -0.00000000000E+00 -0.17474911087E+04  0.17474911087E+04  0.00000000000E+00 0. -1.
         24    2    1    2    0    0  0.32236496247E+03  0.15233964611E+03 -0.19483010182E+02  0.36587508739E+03  0.79739921489E+02 0.  0.
        254    2    1    2    0    0 -0.32236496247E+03 -0.15233964611E+03 -0.14017274641E+04  0.17078966557E+04  0.90826459039E+03 0.  0.
         23    2    4    4    0    0 -0.50758236458E+03 -0.27987915828E+03 -0.13283018048E+04  0.14523716891E+04  0.95003360987E+02 0.  0.
         23    2    4    4    0    0  0.18521740211E+03  0.12753951218E+03 -0.73425659304E+02  0.25552496661E+03  0.96591241358E+02 0.  0.
          4    1    3    3  502    0  0.98804997134E+02  0.86596457569E+02  0.56062264270E+01  0.13150210529E+03  0.00000000000E+00 0. -1.
         -3    1    3    3    0  502  0.22355996534E+03  0.65743188537E+02 -0.25089236609E+02  0.23437298209E+03  0.00000000000E+00 0.  1.
         11    1    5    5    0    0 -0.49226041018E+03 -0.26551768552E+03 -0.13104262022E+04  0.14247935935E+04  0.00000000000E+00 0. -1.
        -11    1    5    5    0    0 -0.15321954403E+02 -0.14361472767E+02 -0.17875602572E+02  0.27578095548E+02  0.00000000000E+00 0.  1.
          1    1    6    6  503    0  0.31057406789E+02  0.74165649876E+02 -0.12451158047E+02  0.81364227242E+02  0.00000000000E+00 0.  1.
         -1    1    6    6    0  503  0.15415999532E+03  0.53373862300E+02 -0.60974501257E+02  0.17416073937E+03  0.00000000000E+00 0. -1.
<mgrwt>
<rscale>  0 0.15101954E+04</rscale>
<asrwt>0</asrwt>
<pdfrwt beam="1">  1        2 0.26884478E+00 0.15101954E+04</pdfrwt>
<pdfrwt beam="2">  1       -1 0.50197022E-01 0.15101954E+04</pdfrwt>
<totfact> 0.40434304E+01</totfact>
</mgrwt>
</event>
<event>
12    6  0.9491186E-008  0.2176193E+04  0.7818608E-02  0.8528403E-01
          2   -1    0    0  501    0  0.00000000000E+00  0.00000000000E+00  0.11690812600E+04  0.11690812600E+04  0.00000000000E+00 0. -1.
         -1   -1    0    0    0  501 -0.00000000000E+00 -0.00000000000E+00 -0.10127215504E+04  0.10127215504E+04  0.00000000000E+00 0.  1.
         24    2    1    2    0    0 -0.38227689948E+03 -0.68715598148E+00  0.88055377983E+03  0.96315674823E+03  0.78484790975E+02 0.  0.
        254    2    1    2    0    0  0.38227689948E+03  0.68715598148E+00 -0.72419407025E+03  0.12186460621E+04  0.90249934804E+03 0.  0.
         23    2    4    4    0    0  0.14287331846E+03  0.23562424638E+03 -0.80932901442E+03  0.86011903755E+03  0.94126162993E+02 0.  0.
         23    2    4    4    0    0  0.23940358102E+03 -0.23493709040E+03  0.85134944172E+02  0.35852702454E+03  0.93723836639E+02 0.  0.
          4    1    3    3  502    0 -0.35228076651E+03 -0.22207181258E+02  0.78450396448E+03  0.86025657082E+03  0.00000000000E+00 0. -1.
         -3    1    3    3    0  502 -0.29996132976E+02  0.21520025277E+02  0.96049815349E+02  0.10290017741E+03  0.00000000000E+00 0.  1.
         11    1    5    5    0    0  0.14584104382E+03  0.23791581540E+03 -0.74287905898E+03  0.79356338219E+03  0.00000000000E+00 0. -1.
        -11    1    5    5    0    0 -0.29677253625E+01 -0.22915690139E+01 -0.66449955447E+02  0.66555655366E+02  0.00000000000E+00 0.  1.
          1    1    6    6  503    0  0.20747178357E+03 -0.23269903997E+03  0.59200972564E+02  0.31732970130E+03  0.00000000000E+00 0. -1.
         -1    1    6    6    0  503  0.31931797457E+02 -0.22380504359E+01  0.25933971607E+02  0.41197323238E+02  0.00000000000E+00 0.  1.
<mgrwt>
<rscale>  0 0.21761928E+04</rscale>
<asrwt>0</asrwt>
<pdfrwt beam="1">  1        2 0.17985866E+00 0.21761928E+04</pdfrwt>
<pdfrwt beam="2">  1       -1 0.15580332E+00 0.21761928E+04</pdfrwt>
<totfact> 0.64945104E+00</totfact>
</mgrwt>
</event>
<event>
12    6  0.9491186E-008  0.2948758E+04  0.7818608E-02  0.8258517E-01
         -3   -1    0    0    0  501 -0.00000000000E+00  0.00000000000E+00  0.96102517150E+03  0.96102517150E+03  0.00000000000E+00 0.  1.
          2   -1    0    0  501    0  0.00000000000E+00 -0.00000000000E+00 -0.22619522663E+04  0.22619522663E+04  0.00000000000E+00 0. -1.
         24    2    1    2    0    0  0.75126285493E+02 -0.12812352819E+04 -0.10012766074E+04  0.16297912695E+04  0.80355032455E+02 0.  0.
        254    2    1    2    0    0 -0.75126285493E+02  0.12812352819E+04 -0.29965048737E+03  0.15931861683E+04  0.89512230784E+03 0.  0.
         23    2    4    4    0    0  0.14032290444E+03  0.11533265617E+04  0.34387486978E+02  0.11660013062E+04  0.92324815095E+02 0.  0.
         23    2    4    4    0    0 -0.21544918993E+03  0.12790872021E+03 -0.33403797435E+03  0.42718486208E+03  0.90147345699E+02 0.  0.
          4    1    3    3  502    0  0.55262457276E+02 -0.11801325766E+04 -0.89863874635E+03  0.14843579198E+04  0.00000000000E+00 0. -1.
         -3    1    3    3    0  502  0.19863828217E+02 -0.10110270527E+03 -0.10263786108E+03  0.14543334972E+03  0.00000000000E+00 0.  1.
         11    1    5    5    0    0  0.77673834197E+02  0.46126368016E+03 -0.26068256228E+02  0.46848368290E+03  0.00000000000E+00 0.  1.
        -11    1    5    5    0    0  0.62649070243E+02  0.69206288151E+03  0.60455743206E+02  0.69751762333E+03  0.00000000000E+00 0. -1.
          1    1    6    6  503    0 -0.88149069664E+02  0.10149815629E+03 -0.19481823891E+03  0.23669871234E+03  0.00000000000E+00 0. -1.
         -1    1    6    6    0  503 -0.12730012027E+03  0.26410563921E+02 -0.13921973544E+03  0.19048614974E+03  0.00000000000E+00 0.  1.
<mgrwt>
<rscale>  0 0.29487577E+04</rscale>
<asrwt>0</asrwt>
<pdfrwt beam="1">  1        2 0.34799266E+00 0.29487577E+04</pdfrwt>
<pdfrwt beam="2">  1       -3 0.14785003E+00 0.29487577E+04</pdfrwt>
<totfact> 0.87153012E-01</totfact>
</mgrwt>
</event>
<event>
12    6  0.9491186E-008  0.2103426E+04  0.7818608E-02  0.8559736E-01
          2   -1    0    0  501    0  0.00000000000E+00  0.00000000000E+00  0.15732468284E+04  0.15732468284E+04  0.00000000000E+00 0. -1.
         -1   -1    0    0    0  501 -0.00000000000E+00 -0.00000000000E+00 -0.70306853628E+03  0.70306853628E+03  0.00000000000E+00 0.  1.
         24    2    1    2    0    0 -0.15192778972E+03 -0.84099176451E+03  0.37557342807E+03  0.93687722392E+03  0.79588513982E+02 0.  0.
        254    2    1    2    0    0  0.15192778972E+03  0.84099176451E+03  0.49460486404E+03  0.13394381407E+04  0.90504771149E+03 0.  0.
         23    2    4    4    0    0 -0.22219572084E+03  0.81757249266E+03  0.39941957906E+03  0.94074066785E+03  0.87528766061E+02 0.  0.
         23    2    4    4    0    0  0.37412351056E+03  0.23419271853E+02  0.95185284977E+02  0.39869747290E+03  0.96863682402E+02 0.  0.
          4    1    3    3  502    0 -0.11040656324E+03 -0.51865503487E+03  0.19437581948E+03  0.56477837565E+03  0.00000000000E+00 0. -1.
         -3    1    3    3    0  502 -0.41521226480E+02 -0.32233672964E+03  0.18119760858E+03  0.37209884826E+03  0.00000000000E+00 0.  1.
         11    1    5    5    0    0 -0.60353230228E+02  0.37143546272E+03  0.19750214508E+03  0.42498695589E+03  0.00000000000E+00 0. -1.
        -11    1    5    5    0    0 -0.16184249061E+03  0.44613702994E+03  0.20191743398E+03  0.51575371195E+03  0.00000000000E+00 0.  1.
          3    1    6    6  503    0  0.15024230851E+02  0.23143365755E+02  0.12000841805E+02  0.30089252153E+02  0.00000000000E+00 0. -1.
         -3    1    6    6    0  503  0.35909927971E+03  0.27590609809E+00  0.83184443172E+02  0.36860822074E+03  0.00000000000E+00 0.  1.
<mgrwt>
<rscale>  0 0.21034261E+04</rscale>
<asrwt>0</asrwt>
<pdfrwt beam="1">  1        2 0.24203797E+00 0.21034261E+04</pdfrwt>
<pdfrwt beam="2">  1       -1 0.10816439E+00 0.21034261E+04</pdfrwt>
<totfact> 0.96206483E+00</totfact>
</mgrwt>
</event>
<event>
12    6  0.9491186E-008  0.1751233E+04  0.7818608E-02  0.8732672E-01
         -1   -1    0    0    0  501 -0.00000000000E+00  0.00000000000E+00  0.96125154855E+03  0.96125154855E+03  0.00000000000E+00 0.  1.
          2   -1    0    0  501    0  0.00000000000E+00 -0.00000000000E+00 -0.79760999811E+03  0.79760999811E+03  0.00000000000E+00 0. -1.
         24    2    1    2    0    0 -0.28282706472E+03 -0.11980178821E+03  0.67212566257E+03  0.74311957264E+03  0.78295440160E+02 0.  0.
        254    2    1    2    0    0  0.28282706472E+03  0.11980178821E+03 -0.50848411214E+03  0.10157419740E+04  0.82391264615E+03 0.  0.
         23    2    4    4    0    0 -0.15676583994E+03  0.10717069772E+03 -0.52593735202E+03  0.56629247676E+03  0.89532027613E+02 0.  0.
         23    2    4    4    0    0  0.43959290467E+03  0.12631090489E+02  0.17453239878E+02  0.44944949726E+03  0.91097578034E+02 0.  0.
          4    1    3    3  502    0 -0.52659712489E+02 -0.58440352352E+02  0.15875319250E+03  0.17717476184E+03  0.00000000000E+00 0. -1.
         -3    1    3    3    0  502 -0.23016735224E+03 -0.61361435855E+02  0.51337247007E+03  0.56594481080E+03  0.00000000000E+00 0.  1.
         11    1    5    5    0    0 -0.90204677307E+01  0.47308052441E+02 -0.16119463223E+03  0.16823534149E+03  0.00000000000E+00 0. -1.
        -11    1    5    5    0    0 -0.14774537221E+03  0.59862645277E+02 -0.36474271978E+03  0.39805713528E+03  0.00000000000E+00 0.  1.
          2    1    6    6  503    0  0.21390743036E+03 -0.10970158101E+02  0.50708971231E+02  0.22010936576E+03  0.00000000000E+00 0. -1.
         -2    1    6    6    0  503  0.22568547431E+03  0.23601248590E+02 -0.33255731353E+02  0.22934013150E+03  0.00000000000E+00 0.  1.
<mgrwt>
<rscale>  0 0.17512325E+04</rscale>
<asrwt>0</asrwt>
<pdfrwt beam="1">  1        2 0.12270923E+00 0.17512325E+04</pdfrwt>
<pdfrwt beam="2">  1       -1 0.14788485E+00 0.17512325E+04</pdfrwt>
<totfact> 0.13563964E+01</totfact>
</mgrwt>
</event>
<event>
12    6  0.9491186E-008  0.2152688E+04  0.7818608E-02  0.8538383E-01
          2   -1    0    0  501    0  0.00000000000E+00  0.00000000000E+00  0.14655477298E+04  0.14655477298E+04  0.00000000000E+00 0. -1.
         -1   -1    0    0    0  501 -0.00000000000E+00 -0.00000000000E+00 -0.79050028409E+03  0.79050028409E+03  0.00000000000E+00 0.  1.
         24    2    1    2    0    0  0.94645034858E+02  0.83779841264E+03  0.55353881387E+03  0.10120459022E+04  0.83473509452E+02 0.  0.
        254    2    1    2    0    0 -0.94645034858E+02 -0.83779841264E+03  0.12150863187E+03  0.12440021118E+04  0.90659420007E+03 0.  0.
         23    2    4    4    0    0 -0.49112540671E+03 -0.51478622125E+03  0.94091999168E+02  0.72395619642E+03  0.95132808882E+02 0.  0.
         23    2    4    4    0    0  0.39648037185E+03 -0.32301219139E+03  0.27416632700E+02  0.52004591534E+03  0.90346672677E+02 0.  0.
          4    1    3    3  502    0  0.58325088720E+02  0.68115425049E+03  0.41463944984E+03  0.79956163133E+03  0.00000000000E+00 0. -1.
         -3    1    3    3    0  502  0.36319946139E+02  0.15664416215E+03  0.13889936403E+03  0.21248427083E+03  0.00000000000E+00 0.  1.
         11    1    5    5    0    0 -0.29961943917E+03 -0.35174499981E+03  0.23163955018E+02  0.46263692247E+03  0.00000000000E+00 0. -1.
        -11    1    5    5    0    0 -0.19150596754E+03 -0.16304122143E+03  0.70928044149E+02  0.26131927395E+03  0.00000000000E+00 0.  1.
          3    1    6    6  503    0  0.36827406972E+03 -0.31075998236E+03  0.46090054543E+02  0.48406802227E+03  0.00000000000E+00 0. -1.
         -3    1    6    6    0  503  0.28206302131E+02 -0.12252209037E+02 -0.18673421843E+02  0.35977893067E+02  0.00000000000E+00 0.  1.
<mgrwt>
<rscale>  0 0.21526875E+04</rscale>
<asrwt>0</asrwt>
<pdfrwt beam="1">  1        2 0.22546888E+00 0.21526875E+04</pdfrwt>
<pdfrwt beam="2">  1       -1 0.12161543E+00 0.21526875E+04</pdfrwt>
<totfact> 0.83155340E+00</totfact>
</mgrwt>
</event>
<event>
12    6  0.9491186E-008  0.1968359E+04  0.7818608E-02  0.8621559E-01
         -1   -1    0    0    0  501 -0.00000000000E+00  0.00000000000E+00  0.16944738871E+04  0.16944738871E+04  0.00000000000E+00 0.  1.
          2   -1    0    0  501    0  0.00000000000E+00 -0.00000000000E+00 -0.57162816017E+03  0.57162816017E+03  0.00000000000E+00 0. -1.
         24    2    1    2    0    0 -0.15945800282E+03  0.74214582261E+03  0.59996533042E+03  0.97068964041E+03  0.77927553664E+02 0.  0.
        254    2    1    2    0    0  0.15945800282E+03 -0.74214582261E+03  0.52288039654E+03  0.12954124069E+04  0.91020993082E+03 0.  0.
         23    2    4    4    0    0  0.17603625491E+03 -0.85329266237E+03  0.65928761277E+03  0.10962287819E+04  0.89220262895E+02 0.  0.
         23    2    4    4    0    0 -0.16578252085E+02  0.11114683976E+03 -0.13640721623E+03  0.19918362495E+03  0.91862557005E+02 0.  0.
          2    1    3    3  502    0 -0.86269960809E+02  0.29206891483E+03  0.20186007323E+03  0.36536864441E+03  0.00000000000E+00 0. -1.
         -1    1    3    3    0  502 -0.73188042014E+02  0.45007690778E+03  0.39810525719E+03  0.60532099601E+03  0.00000000000E+00 0.  1.
         11    1    5    5    0    0  0.80082520561E+02 -0.53151637615E+03  0.44582246670E+03  0.69834127763E+03  0.00000000000E+00 0.  1.
        -11    1    5    5    0    0  0.95953734346E+02 -0.32177628621E+03  0.21346514607E+03  0.39788750432E+03  0.00000000000E+00 0. -1.
          3    1    6    6  503    0 -0.52230337182E+02  0.44987557901E+02 -0.53313197230E+02  0.87144623970E+02  0.00000000000E+00 0. -1.
         -3    1    6    6    0  503  0.35652085097E+02  0.66159281856E+02 -0.83094019000E+02  0.11203900098E+03  0.00000000000E+00 0.  1.
<mgrwt>
<rscale>  0 0.19683587E+04</rscale>
<asrwt>0</asrwt>
<pdfrwt beam="1">  1        2 0.87942795E-01 0.19683587E+04</pdfrwt>
<pdfrwt beam="2">  1       -1 0.26068829E+00 0.19683587E+04</pdfrwt>
<totfact> 0.33220315E+00</totfact>
</mgrwt>
</event>
<event>
12    6  0.9491186E-008  0.2167164E+04  0.7818608E-02  0.8532221E-01
          2   -1    0    0  501    0  0.00000000000E+00  0.00000000000E+00  0.95760753644E+03  0.95760753644E+03  0.00000000000E+00 0. -1.
         -1   -1    0    0    0  501 -0.00000000000E+00 -0.00000000000E+00 -0.12261287338E+04  0.12261287338E+04  0.00000000000E+00 0.  1.
         24    2    1    2    0    0  0.38332043583E+03 -0.10104828276E+03 -0.91732761078E+03  0.10025481762E+04  0.80421316759E+02 0.  0.
        254    2    1    2    0    0 -0.38332043583E+03  0.10104828276E+03  0.64880641341E+03  0.11811880940E+04  0.90394150220E+03 0.  0.
         23    2    4    4    0    0 -0.25941617507E+03 -0.38044844211E+03  0.40505542271E+03  0.62005613602E+03  0.91443684072E+02 0.  0.
         23    2    4    4    0    0 -0.12390426076E+03  0.48149672487E+03  0.24375099071E+03  0.56113195800E+03  0.90901963242E+02 0.  0.
          2    1    3    3  502    0  0.13318757177E+03  0.19739778561E+01 -0.27416277782E+03  0.30480822595E+03  0.00000000000E+00 0. -1.
         -1    1    3    3    0  502  0.25013286406E+03 -0.10302226062E+03 -0.64316483296E+03  0.69773995028E+03  0.00000000000E+00 0.  1.
         11    1    5    5    0    0 -0.25943472711E+03 -0.38528708311E+03  0.40228765163E+03  0.61448178874E+03  0.00000000000E+00 0. -1.
        -11    1    5    5    0    0  0.18552044554E-01  0.48386409924E+01  0.27677710725E+01  0.55743472750E+01  0.00000000000E+00 0.  1.
          3    1    6    6  503    0  0.47305206450E+00  0.47774423365E+02  0.52739839815E+02  0.71162560450E+02  0.00000000000E+00 0.  1.
         -3    1    6    6    0  503 -0.12437731283E+03  0.43372230151E+03  0.19101115089E+03  0.48996939755E+03  0.00000000000E+00 0. -1.
<mgrwt>
<rscale>  0 0.21671642E+04</rscale>
<asrwt>0</asrwt>
<pdfrwt beam="1">  1        2 0.14732424E+00 0.21671642E+04</pdfrwt>
<pdfrwt beam="2">  1       -1 0.18863519E+00 0.21671642E+04</pdfrwt>
<totfact> 0.50682460E+00</totfact>
</mgrwt>
</event>
<event>
12    6  0.9491186E-008  0.1300758E+04  0.7818608E-02  0.9028964E-01
          2   -1    0    0  501    0  0.00000000000E+00  0.00000000000E+00  0.62187889627E+03  0.62187889627E+03  0.00000000000E+00 0. -1.
         -1   -1    0    0    0  501 -0.00000000000E+00 -0.00000000000E+00 -0.68018513857E+03  0.68018513857E+03  0.00000000000E+00 0.  1.
         24    2    1    2    0    0  0.28868288699E+03  0.91529303318E+02  0.11964929125E+03  0.33523316400E+03  0.79686251916E+02 0.  0.
        254    2    1    2    0    0 -0.28868288699E+03 -0.91529303318E+02 -0.17795553355E+03  0.96683087084E+03  0.90076541801E+03 0.  0.
         23    2    4    4    0    0 -0.50977289006E+03 -0.25619560206E+02  0.16407084705E+03  0.54477013326E+03  0.96594481864E+02 0.  0.
         23    2    4    4    0    0  0.22109000308E+03 -0.65909743112E+02 -0.34202638060E+03  0.42206073759E+03  0.89041212301E+02 0.  0.
          4    1    3    3  502    0  0.21798296337E+03  0.35088039150E+02  0.10132955374E+03  0.24293089814E+03  0.00000000000E+00 0. -1.
         -3    1    3    3    0  502  0.70699923613E+02  0.56441264168E+02  0.18319737516E+02  0.92302265858E+02  0.00000000000E+00 0.  1.
         11    1    5    5    0    0 -0.51055082176E+03 -0.29837980345E+02  0.15444818509E+03  0.53423467554E+03  0.00000000000E+00 0.  1.
        -11    1    5    5    0    0  0.77793169301E+00  0.42184201386E+01  0.96226619584E+01  0.10535457719E+02  0.00000000000E+00 0. -1.
          3    1    6    6  503    0  0.83683407437E+02 -0.39320714885E+02 -0.21088919948E+03  0.23026785654E+03  0.00000000000E+00 0. -1.
         -3    1    6    6    0  503  0.13740659564E+03 -0.26589028227E+02 -0.13113718112E+03  0.19179288105E+03  0.00000000000E+00 0.  1.
<mgrwt>
<rscale>  0 0.13007579E+04</rscale>
<asrwt>0</asrwt>
<pdfrwt beam="1">  1        2 0.95673676E-01 0.13007579E+04</pdfrwt>
<pdfrwt beam="2">  1       -1 0.10464387E+00 0.13007579E+04</pdfrwt>
<totfact> 0.45654441E+01</totfact>
</mgrwt>
</event>
<event>
12    6  0.9491186E-008  0.2529753E+04  0.7818608E-02  0.8392462E-01
         -1   -1    0    0    0  501 -0.00000000000E+00  0.00000000000E+00  0.14286762444E+04  0.14286762444E+04  0.00000000000E+00 0.  1.
          2   -1    0    0  501    0  0.00000000000E+00 -0.00000000000E+00 -0.11198566371E+04  0.11198566371E+04  0.00000000000E+00 0. -1.
         24    2    1    2    0    0 -0.27960465145E+03  0.75097524183E+03 -0.62753077947E+03  0.10210476489E+04  0.81245597629E+02 0.  0.
        254    2    1    2    0    0  0.27960465145E+03 -0.75097524183E+03  0.93635038673E+03  0.15274852326E+04  0.90239487704E+03 0.  0.
         23    2    4    4    0    0  0.32537684873E+02 -0.62669255259E+03  0.10386228898E+04  0.12177772195E+04  0.10218411166E+03 0.  0.
         23    2    4    4    0    0  0.24706696658E+03 -0.12428268924E+03 -0.10227250309E+03  0.30970801309E+03  0.94715973640E+02 0.  0.
          2    1    3    3  502    0 -0.24489777640E+03  0.58243446184E+03 -0.51844885205E+03  0.81730902076E+03  0.00000000000E+00 0. -1.
         -1    1    3    3    0  502 -0.34706875048E+02  0.16854078000E+03 -0.10908192742E+03  0.20373862812E+03  0.00000000000E+00 0.  1.
         11    1    5    5    0    0  0.52420721113E+02 -0.57199379630E+03  0.97447692818E+03  0.11311631706E+04  0.00000000000E+00 0. -1.
        -11    1    5    5    0    0 -0.19883036239E+02 -0.54698756291E+02  0.64145961648E+02  0.86614048892E+02  0.00000000000E+00 0.  1.
          3    1    6    6  503    0  0.13923464758E+03 -0.76121862517E+02 -0.10720930819E+03  0.19150629442E+03  0.00000000000E+00 0. -1.
         -3    1    6    6    0  503  0.10783231900E+03 -0.48160826725E+02  0.49368050988E+01  0.11820171867E+03  0.00000000000E+00 0.  1.
<mgrwt>
<rscale>  0 0.25297530E+04</rscale>
<asrwt>0</asrwt>
<pdfrwt beam="1">  1        2 0.17228564E+00 0.25297530E+04</pdfrwt>
<pdfrwt beam="2">  1       -1 0.21979634E+00 0.25297530E+04</pdfrwt>
<totfact> 0.23712722E+00</totfact>
</mgrwt>
</event>
<event>
12    6  0.9491186E-008  0.2345072E+04  0.7818608E-02  0.8460359E-01
          2   -1    0    0  501    0  0.00000000000E+00  0.00000000000E+00  0.22500238914E+04  0.22500238914E+04  0.00000000000E+00 0. -1.
         -1   -1    0    0    0  501 -0.00000000000E+00 -0.00000000000E+00 -0.61103376038E+03  0.61103376038E+03  0.00000000000E+00 0.  1.
         24    2    1    2    0    0  0.69991279840E+03 -0.48731437185E+03  0.13318320062E+04  0.15832784320E+04  0.75105778748E+02 0.  0.
        254    2    1    2    0    0 -0.69991279840E+03  0.48731437185E+03  0.30715812475E+03  0.12777792198E+04  0.90056670961E+03 0.  0.
         23    2    4    4    0    0  0.66043417327E+02  0.45104366212E+03  0.16454780781E+03  0.49282466346E+03  0.89431816208E+02 0.  0.
         23    2    4    4    0    0 -0.76595621572E+03  0.36270709738E+02  0.14261031693E+03  0.78495455629E+03  0.88382487867E+02 0.  0.
          2    1    3    3  502    0  0.51262383091E+03 -0.39152455957E+03  0.97519618390E+03  0.11692229342E+04  0.00000000000E+00 0. -1.
         -1    1    3    3    0  502  0.18728896749E+03 -0.95789812287E+02  0.35663582234E+03  0.41405549780E+03  0.00000000000E+00 0.  1.
         11    1    5    5    0    0 -0.12333516326E+02  0.34306963459E+02  0.32110122635E+02  0.48581306512E+02  0.00000000000E+00 0. -1.
        -11    1    5    5    0    0  0.78376933653E+02  0.41673669866E+03  0.13243768518E+03  0.44424335695E+03  0.00000000000E+00 0.  1.
          1    1    6    6  503    0 -0.22404531076E+03 -0.28912254374E+02  0.49276631496E+02  0.23121506469E+03  0.00000000000E+00 0. -1.
         -1    1    6    6    0  503 -0.54191090496E+03  0.65182964112E+02  0.93333685438E+02  0.55373949161E+03  0.00000000000E+00 0.  1.
<mgrwt>
<rscale>  0 0.23450719E+04</rscale>
<asrwt>0</asrwt>
<pdfrwt beam="1">  1        2 0.34615752E+00 0.23450719E+04</pdfrwt>
<pdfrwt beam="2">  1       -1 0.94005195E-01 0.23450719E+04</pdfrwt>
<totfact> 0.54518711E+00</totfact>
</mgrwt>
</event>
<event>
12    6  0.9491186E-008  0.2096198E+04  0.7818608E-02  0.8562920E-01
          2   -1    0    0  501    0  0.00000000000E+00  0.00000000000E+00  0.31096621796E+04  0.31096621796E+04  0.00000000000E+00 0. -1.
         -1   -1    0    0    0  501 -0.00000000000E+00 -0.00000000000E+00 -0.35325740010E+03  0.35325740010E+03  0.00000000000E+00 0.  1.
         24    2    1    2    0    0 -0.46028869859E+03 -0.65346473225E+03  0.63643215047E+03  0.10246727554E+04  0.77630735380E+02 0.  0.
        254    2    1    2    0    0  0.46028869859E+03  0.65346473225E+03  0.21199726290E+04  0.24382468243E+04  0.90104483031E+03 0.  0.
         23    2    4    4    0    0  0.49529036030E+03 -0.67085475958E+01  0.64026203368E+03  0.81463777726E+03  0.91332856909E+02 0.  0.
         23    2    4    4    0    0 -0.35001661708E+02  0.66017327985E+03  0.14797105953E+04  0.16236090471E+04  0.97514183761E+02 0.  0.
          2    1    3    3  502    0 -0.34419181850E+03 -0.44381934682E+03  0.41435381841E+03  0.69794892891E+03  0.00000000000E+00 0. -1.
         -1    1    3    3    0  502 -0.11609688009E+03 -0.20964538543E+03  0.22207833206E+03  0.32672382645E+03  0.00000000000E+00 0.  1.
         11    1    5    5    0    0  0.39555068564E+03 -0.33722838383E+02  0.54372116658E+03  0.67322379765E+03  0.00000000000E+00 0.  1.
        -11    1    5    5    0    0  0.99739674662E+02  0.27014290787E+02  0.96540867099E+02  0.14141397961E+03  0.00000000000E+00 0. -1.
          3    1    6    6  503    0 -0.28704456310E+02  0.87414077343E+02  0.26755000059E+03  0.28292785219E+03  0.00000000000E+00 0. -1.
         -3    1    6    6    0  503 -0.62972053982E+01  0.57275920251E+03  0.12121605947E+04  0.13406811949E+04  0.00000000000E+00 0.  1.
<mgrwt>
<rscale>  0 0.20961977E+04</rscale>
<asrwt>0</asrwt>
<pdfrwt beam="1">  1        2 0.47840955E+00 0.20961977E+04</pdfrwt>
<pdfrwt beam="2">  1       -1 0.54347294E-01 0.20961977E+04</pdfrwt>
<totfact> 0.53342225E+00</totfact>
</mgrwt>
</event>
<event>
12    6  0.9491186E-008  0.2048044E+04  0.7818608E-02  0.8584482E-01
          2   -1    0    0  501    0  0.00000000000E+00  0.00000000000E+00  0.20466051165E+04  0.20466051165E+04  0.00000000000E+00 0. -1.
         -1   -1    0    0    0  501 -0.00000000000E+00 -0.00000000000E+00 -0.51237089134E+03  0.51237089134E+03  0.00000000000E+00 0.  1.
         24    2    1    2    0    0 -0.29606376962E+03 -0.94882621922E+02  0.15667522284E+04  0.15993328591E+04  0.80601372645E+02 0.  0.
        254    2    1    2    0    0  0.29606376962E+03  0.94882621922E+02 -0.32518003259E+02  0.95964314876E+03  0.90730429559E+03 0.  0.
         23    2    4    4    0    0  0.81755112861E+02  0.45306184566E+03 -0.18708149858E+03  0.50527601375E+03  0.91408032951E+02 0.  0.
         23    2    4    4    0    0  0.21430865676E+03 -0.35817922374E+03  0.15456349532E+03  0.45436713501E+03  0.91318468072E+02 0.  0.
          2    1    3    3  502    0 -0.21470931164E+03 -0.10461833972E+03  0.12003549939E+04  0.12238861046E+04  0.00000000000E+00 0. -1.
         -1    1    3    3    0  502 -0.81354457980E+02  0.97357178001E+01  0.36639723452E+03  0.37544675455E+03  0.00000000000E+00 0.  1.
         11    1    5    5    0    0  0.76914964280E+01  0.43393576098E+02 -0.50746207309E+02  0.67211153242E+02  0.00000000000E+00 0. -1.
        -11    1    5    5    0    0  0.74063616433E+02  0.40966826957E+03 -0.13633529127E+03  0.43806486051E+03  0.00000000000E+00 0.  1.
          1    1    6    6  503    0  0.58963278729E+02 -0.36245999567E+02  0.16312384260E+02  0.71109314463E+02  0.00000000000E+00 0. -1.
         -1    1    6    6    0  503  0.15534537803E+03 -0.32193322417E+03  0.13825111106E+03  0.38325782055E+03  0.00000000000E+00 0.  1.
<mgrwt>
<rscale>  0 0.20480438E+04</rscale>
<asrwt>0</asrwt>
<pdfrwt beam="1">  1        2 0.31486232E+00 0.20480438E+04</pdfrwt>
<pdfrwt beam="2">  1       -1 0.78826292E-01 0.20480438E+04</pdfrwt>
<totfact> 0.10673189E+01</totfact>
</mgrwt>
</event>
<event>
12    6  0.9491186E-008  0.3330163E+04  0.7818608E-02  0.8155263E-01
          2   -1    0    0  501    0  0.00000000000E+00  0.00000000000E+00  0.24900498352E+04  0.24900498352E+04  0.00000000000E+00 0. -1.
         -1   -1    0    0    0  501 -0.00000000000E+00 -0.00000000000E+00 -0.11134300807E+04  0.11134300807E+04  0.00000000000E+00 0.  1.
         24    2    1    2    0    0 -0.15401328144E+04 -0.45791815460E+02  0.67778005835E+03  0.16850316464E+04  0.76419012526E+02 0.  0.
        254    2    1    2    0    0  0.15401328144E+04  0.45791815460E+02  0.69883969616E+03  0.19184482696E+04  0.90441188948E+03 0.  0.
         23    2    4    4    0    0  0.79142447620E+03 -0.41807874767E+03  0.38673928141E+03  0.97952748933E+03  0.93617785686E+02 0.  0.
         23    2    4    4    0    0  0.74870833817E+03  0.46387056313E+03  0.31210041475E+03  0.93892078024E+03  0.91790455294E+02 0.  0.
          4    1    3    3  502    0 -0.39225122183E+03 -0.15174461324E+02  0.13689432890E+03  0.41572989138E+03  0.00000000000E+00 0. -1.
         -3    1    3    3    0  502 -0.11478815925E+04 -0.30617354136E+02  0.54088572946E+03  0.12693017550E+04  0.00000000000E+00 0.  1.
         11    1    5    5    0    0  0.20597620793E+03 -0.75643533605E+02  0.65063247001E+02  0.22886976323E+03  0.00000000000E+00 0. -1.
        -11    1    5    5    0    0  0.58544826826E+03 -0.34243521407E+03  0.32167603441E+03  0.75065772611E+03  0.00000000000E+00 0.  1.
          3    1    6    6  503    0  0.29063356286E+02  0.15912877859E+02 -0.57160663572E+01  0.33623976192E+02  0.00000000000E+00 0. -1.
         -3    1    6    6    0  503  0.71964498188E+03  0.44795768528E+03  0.31781648110E+03  0.90529680404E+03  0.00000000000E+00 0.  1.
<mgrwt>
<rscale>  0 0.33301630E+04</rscale>
<asrwt>0</asrwt>
<pdfrwt beam="1">  1        2 0.38308459E+00 0.33301630E+04</pdfrwt>
<pdfrwt beam="2">  1       -1 0.17129694E+00 0.33301630E+04</pdfrwt>
<totfact> 0.80391502E-01</totfact>
</mgrwt>
</event>
<event>
12    6  0.1121456E-007  0.2220635E+04  0.7818608E-02  0.8509888E-01
         -1   -1    0    0    0  501 -0.00000000000E+00  0.00000000000E+00  0.13299509081E+04  0.13299509081E+04  0.00000000000E+00 0.  1.
          2   -1    0    0  501    0  0.00000000000E+00 -0.00000000000E+00 -0.92695483011E+03  0.92695483011E+03  0.00000000000E+00 0. -1.
         24    2    1    2    0    0 -0.67267625029E+03 -0.52860781463E+03 -0.18195974875E+03  0.87828370669E+03  0.79707966142E+02 0.  0.
        254    2    1    2    0    0  0.67267625029E+03  0.52860781463E+03  0.58495582678E+03  0.13786220315E+04  0.90912365891E+03 0.  0.
         23    2    4    4    0    0  0.23422065063E+03  0.52584114373E+02  0.67224839209E+03  0.71962377380E+03  0.91192504514E+02 0.  0.
         23    2    4    4    0    0  0.43845559966E+03  0.47602370026E+03 -0.87292565307E+02  0.65899825775E+03  0.88412870540E+02 0.  0.
          4    1    3    3  502    0 -0.59767514149E+03 -0.48027353130E+03 -0.13890633920E+03  0.77921319977E+03  0.00000000000E+00 0. -1.
         -3    1    3    3    0  502 -0.75001108800E+02 -0.48334283335E+02 -0.43053409556E+02  0.99070506919E+02  0.00000000000E+00 0.  1.
         11    1    5    5    0    0 -0.25499316552E+01 -0.11135816387E+02  0.35746212487E+02  0.37527326913E+02  0.00000000000E+00 0. -1.
        -11    1    5    5    0    0  0.23677058229E+03  0.63719930760E+02  0.63650217960E+03  0.68209644688E+03  0.00000000000E+00 0.  1.
          3    1    6    6  503    0  0.75974183054E+02  0.50282849784E+02  0.92516010923E+01  0.91575289220E+02  0.00000000000E+00 0. -1.
         -3    1    6    6    0  503  0.36248141661E+03  0.42574085048E+03 -0.96544166400E+02  0.56742296853E+03  0.00000000000E+00 0.  1.
<mgrwt>
<rscale>  0 0.22206345E+04</rscale>
<asrwt>0</asrwt>
<pdfrwt beam="1">  1        2 0.14260843E+00 0.22206345E+04</pdfrwt>
<pdfrwt beam="2">  1       -1 0.20460783E+00 0.22206345E+04</pdfrwt>
<totfact> 0.40950929E+00</totfact>
</mgrwt>
</event>
<event>
12    6  0.9491186E-008  0.1449036E+04  0.7818608E-02  0.8919069E-01
         -1   -1    0    0    0  501 -0.00000000000E+00  0.00000000000E+00  0.52926271112E+03  0.52926271112E+03  0.00000000000E+00 0.  1.
          2   -1    0    0  501    0  0.00000000000E+00 -0.00000000000E+00 -0.99180657285E+03  0.99180657285E+03  0.00000000000E+00 0. -1.
         24    2    1    2    0    0 -0.47818933094E+02 -0.23917696043E+03 -0.52550468391E+03  0.58416538280E+03  0.74844858816E+02 0.  0.
        254    2    1    2    0    0  0.47818933094E+02  0.23917696043E+03  0.62960822172E+02  0.93690390117E+03  0.90240378220E+03 0.  0.
         23    2    4    4    0    0  0.34198915409E+03  0.57918061759E+02  0.33278120928E+03  0.48922288550E+03  0.91019860748E+02 0.  0.
         23    2    4    4    0    0 -0.29417022100E+03  0.18125889867E+03 -0.26982038711E+03  0.44768101567E+03  0.90688164734E+02 0.  0.
          4    1    3    3  502    0 -0.59284383900E+02 -0.22297277656E+03 -0.50699735656E+03  0.55702586728E+03  0.00000000000E+00 0. -1.
         -3    1    3    3    0  502  0.11465450806E+02 -0.16204183871E+02 -0.18507327346E+02  0.27139515519E+02  0.00000000000E+00 0.  1.
         11    1    5    5    0    0  0.17536288345E+03  0.73082194974E+02  0.19768224249E+03  0.27417406353E+03  0.00000000000E+00 0. -1.
        -11    1    5    5    0    0  0.16662627064E+03 -0.15164133215E+02  0.13509896679E+03  0.21504882197E+03  0.00000000000E+00 0.  1.
          3    1    6    6  503    0 -0.10752772091E+03  0.18213053483E+02 -0.91605628197E+02  0.14242723475E+03  0.00000000000E+00 0. -1.
         -3    1    6    6    0  503 -0.18664250009E+03  0.16304584519E+03 -0.17821475891E+03  0.30525378092E+03  0.00000000000E+00 0.  1.
<mgrwt>
<rscale>  0 0.14490359E+04</rscale>
<asrwt>0</asrwt>
<pdfrwt beam="1">  1        2 0.15258563E+00 0.14490359E+04</pdfrwt>
<pdfrwt beam="2">  1       -1 0.81425033E-01 0.14490359E+04</pdfrwt>
<totfact> 0.42389333E+01</totfact>
</mgrwt>
</event>
<event>
12    6  0.9491186E-008  0.2407387E+04  0.7818608E-02  0.8436743E-01
          2   -1    0    0  501    0  0.00000000000E+00  0.00000000000E+00  0.32710094063E+04  0.32710094063E+04  0.00000000000E+00 0. -1.
         -1   -1    0    0    0  501 -0.00000000000E+00 -0.00000000000E+00 -0.44294534158E+03  0.44294534158E+03  0.00000000000E+00 0.  1.
         24    2    1    2    0    0  0.25311225406E+03 -0.79203420862E+03  0.20998895882E+04  0.22598943670E+04  0.78754470266E+02 0.  0.
        254    2    1    2    0    0 -0.25311225406E+03  0.79203420862E+03  0.72817447651E+03  0.14540603809E+04  0.94481189779E+03 0.  0.
         23    2    4    4    0    0 -0.18286284214E+03  0.89350286605E+03  0.85577534986E+03  0.12539596340E+04  0.90978698975E+02 0.  0.
         23    2    4    4    0    0 -0.70249411915E+02 -0.10146865743E+03 -0.12760087335E+03  0.20010074684E+03  0.92344234757E+02 0.  0.
          2    1    3    3  502    0  0.14646656412E+03 -0.33041930916E+03  0.90186568109E+03  0.97159203424E+03  0.00000000000E+00 0. -1.
         -1    1    3    3    0  502  0.10664568994E+03 -0.46161489946E+03  0.11980239071E+04  0.12883023328E+04  0.00000000000E+00 0.  1.
         11    1    5    5    0    0  0.24024799063E+01  0.15979047270E+03  0.14933618779E+03  0.21872371627E+03  0.00000000000E+00 0. -1.
        -11    1    5    5    0    0 -0.18526532205E+03  0.73371239335E+03  0.70643916208E+03  0.10352359178E+04  0.00000000000E+00 0.  1.
          4    1    6    6  503    0 -0.86257302606E+02 -0.10031192448E+03 -0.12794776176E+03  0.18404736941E+03  0.00000000000E+00 0.  1.
         -4    1    6    6    0  503  0.16007890691E+02 -0.11567329492E+01  0.34688841501E+00  0.16053377435E+02  0.00000000000E+00 0. -1.
<mgrwt>
<rscale>  0 0.24073873E+04</rscale>
<asrwt>0</asrwt>
<pdfrwt beam="1">  1        2 0.50323220E+00 0.24073873E+04</pdfrwt>
<pdfrwt beam="2">  1       -1 0.68145439E-01 0.24073873E+04</pdfrwt>
<totfact> 0.25977476E+00</totfact>
</mgrwt>
</event>
<event>
12    6  0.9491186E-008  0.2202975E+04  0.7818608E-02  0.8517191E-01
          2   -1    0    0  501    0  0.00000000000E+00  0.00000000000E+00  0.31619462527E+04  0.31619462527E+04  0.00000000000E+00 0. -1.
         -1   -1    0    0    0  501 -0.00000000000E+00 -0.00000000000E+00 -0.38371126762E+03  0.38371126762E+03  0.00000000000E+00 0.  1.
         24    2    1    2    0    0  0.93068538601E+02 -0.50214962538E+03 -0.57703612700E+02  0.52000494849E+03  0.79116625226E+02 0.  0.
        254    2    1    2    0    0 -0.93068538601E+02  0.50214962538E+03  0.28359385978E+04  0.30256525719E+04  0.92261029474E+03 0.  0.
         23    2    4    4    0    0  0.11081686212E+03  0.59927842234E+03  0.10077675868E+04  0.11814219573E+04  0.93527149434E+02 0.  0.
         23    2    4    4    0    0 -0.20388540073E+03 -0.97128796963E+02  0.18281710110E+04  0.18442306146E+04  0.89297561710E+02 0.  0.
          4    1    3    3  502    0  0.20007944282E+02 -0.48781732635E+02  0.15575534295E+02  0.54977927770E+02  0.00000000000E+00 0. -1.
         -3    1    3    3    0  502  0.73060594319E+02 -0.45336789275E+03 -0.73279146995E+02  0.46502702072E+03  0.00000000000E+00 0.  1.
         11    1    5    5    0    0  0.10029852080E+03  0.53779658229E+03  0.95077133408E+03  0.10969280227E+04  0.00000000000E+00 0. -1.
        -11    1    5    5    0    0  0.10518341321E+02  0.61481840050E+02  0.56996252736E+02  0.84493934611E+02  0.00000000000E+00 0.  1.
          2    1    6    6  503    0 -0.10213366971E+03 -0.88132017562E+02  0.83589739160E+03  0.84671304956E+03  0.00000000000E+00 0. -1.
         -2    1    6    6    0  503 -0.10175173101E+03 -0.89967794011E+01  0.99227361938E+03  0.99751756502E+03  0.00000000000E+00 0.  1.
<mgrwt>
<rscale>  0 0.22029747E+04</rscale>
<asrwt>0</asrwt>
<pdfrwt beam="1">  1        2 0.48645325E+00 0.22029747E+04</pdfrwt>
<pdfrwt beam="2">  1       -1 0.59032505E-01 0.22029747E+04</pdfrwt>
<totfact> 0.41594376E+00</totfact>
</mgrwt>
</event>
<event>
12    6  0.9491186E-008  0.2087961E+04  0.7818608E-02  0.8566565E-01
         -1   -1    0    0    0  501 -0.00000000000E+00  0.00000000000E+00  0.10029210217E+04  0.10029210217E+04  0.00000000000E+00 0.  1.
          2   -1    0    0  501    0  0.00000000000E+00 -0.00000000000E+00 -0.10867206579E+04  0.10867206579E+04  0.00000000000E+00 0. -1.
         24    2    1    2    0    0  0.21135831532E+03  0.81483543248E+02 -0.85176697688E+03  0.88487407785E+03  0.78633615418E+02 0.  0.
        254    2    1    2    0    0 -0.21135831532E+03 -0.81483543248E+02  0.76796734062E+03  0.12047676017E+04  0.90021066017E+03 0.  0.
         23    2    4    4    0    0 -0.42631493561E+03 -0.24474337350E+03  0.14571743241E+03  0.52067110017E+03  0.90670178390E+02 0.  0.
         23    2    4    4    0    0  0.21495662029E+03  0.16325983025E+03  0.62224990822E+03  0.68409650158E+03  0.89067134351E+02 0.  0.
          2    1    3    3  502    0  0.14811856379E+03  0.59284636926E+02 -0.44751206032E+03  0.47510085377E+03  0.00000000000E+00 0. -1.
         -3    1    3    3    0  502  0.63239751521E+02  0.22198906322E+02 -0.40425491655E+03  0.40977322408E+03  0.00000000000E+00 0.  1.
         11    1    5    5    0    0 -0.10226277371E+03 -0.10460662734E+03  0.31930856649E+02  0.14973243127E+03  0.00000000000E+00 0. -1.
        -11    1    5    5    0    0 -0.32405216190E+03 -0.14013674616E+03  0.11378657576E+03  0.37093866889E+03  0.00000000000E+00 0.  1.
          4    1    6    6  503    0 -0.27864022310E+01  0.27011061016E+02  0.67991492849E+02  0.73213417858E+02  0.00000000000E+00 0.  1.
         -4    1    6    6    0  503  0.21774302252E+03  0.13624876923E+03  0.55425841537E+03  0.61088308372E+03  0.00000000000E+00 0. -1.
<mgrwt>
<rscale>  0 0.20879607E+04</rscale>
<asrwt>0</asrwt>
<pdfrwt beam="1">  1        2 0.16718779E+00 0.20879607E+04</pdfrwt>
<pdfrwt beam="2">  1       -1 0.15429554E+00 0.20879607E+04</pdfrwt>
<totfact> 0.75475482E+00</totfact>
</mgrwt>
</event>
<event>
12    6  0.9491186E-008  0.2431467E+04  0.7818608E-02  0.8427816E-01
         -1   -1    0    0    0  501 -0.00000000000E+00  0.00000000000E+00  0.72972020475E+03  0.72972020475E+03  0.00000000000E+00 0.  1.
          2   -1    0    0  501    0  0.00000000000E+00 -0.00000000000E+00 -0.20254446775E+04  0.20254446775E+04  0.00000000000E+00 0. -1.
         24    2    1    2    0    0 -0.29694034140E+03 -0.32706309919E+03  0.51706763868E+03  0.68478175448E+03  0.80145312404E+02 0.  0.
        254    2    1    2    0    0  0.29694034140E+03  0.32706309919E+03 -0.18127921114E+04  0.20703831277E+04  0.89728881595E+03 0.  0.
         23    2    4    4    0    0  0.16776136242E+03 -0.33634620744E+02  0.15392542927E+02  0.20018415135E+03  0.10276965330E+03 0.  0.
         23    2    4    4    0    0  0.12917897898E+03  0.36069771993E+03 -0.18281846543E+04  0.18701989764E+04  0.92709369419E+02 0.  0.
          2    1    3    3  502    0 -0.12847215730E+03 -0.20089073628E+03  0.27834495525E+03  0.36652161906E+03  0.00000000000E+00 0. -1.
         -1    1    3    3    0  502 -0.16846818409E+03 -0.12617236290E+03  0.23872268344E+03  0.31826013543E+03  0.00000000000E+00 0.  1.
         11    1    5    5    0    0  0.78300563612E+02  0.35901968595E+02  0.28695653995E+01  0.86186797228E+02  0.00000000000E+00 0. -1.
        -11    1    5    5    0    0  0.89460798805E+02 -0.69536589339E+02  0.12522977527E+02  0.11399735412E+03  0.00000000000E+00 0.  1.
          3    1    6    6  503    0  0.41648247295E+02  0.28503610011E+02 -0.25416533203E+03  0.25912747498E+03  0.00000000000E+00 0. -1.
         -3    1    6    6    0  503  0.87530731685E+02  0.33219410992E+03 -0.15740193223E+04  0.16110715014E+04  0.00000000000E+00 0.  1.
<mgrwt>
<rscale>  0 0.24314670E+04</rscale>
<asrwt>0</asrwt>
<pdfrwt beam="1">  1        2 0.31160687E+00 0.24314670E+04</pdfrwt>
<pdfrwt beam="2">  1       -1 0.11226465E+00 0.24314670E+04</pdfrwt>
<totfact> 0.47986160E+00</totfact>
</mgrwt>
</event>
<event>
12    6  0.9491186E-008  0.2004483E+04  0.7818608E-02  0.8604527E-01
         -1   -1    0    0    0  501 -0.00000000000E+00  0.00000000000E+00  0.11579691708E+04  0.11579691708E+04  0.00000000000E+00 0.  1.
          2   -1    0    0  501    0  0.00000000000E+00 -0.00000000000E+00 -0.86745688929E+03  0.86745688929E+03  0.00000000000E+00 0. -1.
         24    2    1    2    0    0 -0.32516449397E+02  0.54810865037E+02  0.91723218590E+03  0.92293178963E+03  0.80166420938E+02 0.  0.
        254    2    1    2    0    0  0.32516449397E+02 -0.54810865037E+02 -0.62671990438E+03  0.11024942705E+04  0.90479513013E+03 0.  0.
         23    2    4    4    0    0  0.33022123798E+03 -0.34171727669E+03 -0.33339040198E+03  0.58772973215E+03  0.91979969099E+02 0.  0.
         23    2    4    4    0    0 -0.29770478859E+03  0.28690641165E+03 -0.29332950240E+03  0.51476453834E+03  0.89425403328E+02 0.  0.
          2    1    3    3  502    0 -0.27477485552E+02 -0.87561176629E+01  0.13194287478E+03  0.13505778028E+03  0.00000000000E+00 0. -1.
         -1    1    3    3    0  502 -0.50389638449E+01  0.63566982700E+02  0.78528931112E+03  0.78787400935E+03  0.00000000000E+00 0.  1.
         11    1    5    5    0    0  0.22963142982E+02 -0.70609127568E+02 -0.49949719507E+02  0.89487034315E+02  0.00000000000E+00 0. -1.
        -11    1    5    5    0    0  0.30725809500E+03 -0.27110814912E+03 -0.28344068247E+03  0.49824269783E+03  0.00000000000E+00 0.  1.
          4    1    6    6  503    0 -0.22377227811E+03  0.26163333592E+03 -0.24949931144E+03  0.42517754095E+03  0.00000000000E+00 0.  1.
         -4    1    6    6    0  503 -0.73932510478E+02  0.25273075727E+02 -0.43830190955E+02  0.89586997391E+02  0.00000000000E+00 0. -1.
<mgrwt>
<rscale>  0 0.20044833E+04</rscale>
<asrwt>0</asrwt>
<pdfrwt beam="1">  1        2 0.13345491E+00 0.20044833E+04</pdfrwt>
<pdfrwt beam="2">  1       -1 0.17814910E+00 0.20044833E+04</pdfrwt>
<totfact> 0.70188935E+00</totfact>
</mgrwt>
</event>
<event>
12    6  0.9491186E-008  0.2173358E+04  0.7818608E-02  0.8529600E-01
         -1   -1    0    0    0  501 -0.00000000000E+00  0.00000000000E+00  0.63833458057E+03  0.63833458057E+03  0.00000000000E+00 0.  1.
          2   -1    0    0  501    0  0.00000000000E+00 -0.00000000000E+00 -0.18499248052E+04  0.18499248052E+04  0.00000000000E+00 0. -1.
         24    2    1    2    0    0  0.20515397069E+03  0.43030981897E+03  0.35906126042E+03  0.60371933436E+03  0.91089812582E+02 0.  0.
        254    2    1    2    0    0 -0.20515397069E+03 -0.43030981897E+03 -0.15706514850E+04  0.18845400514E+04  0.92589979258E+03 0.  0.
         23    2    4    4    0    0 -0.45667252651E+03 -0.16389608695E+03 -0.34513557337E+03  0.60236143424E+03  0.91153769328E+02 0.  0.
         23    2    4    4    0    0  0.25151855583E+03 -0.26641373203E+03 -0.12255159117E+04  0.12821786172E+04  0.88627851342E+02 0.  0.
          2    1    3    3  502    0  0.78452590487E+02  0.19794242513E+03  0.21411520788E+03  0.30196247261E+03  0.00000000000E+00 0. -1.
         -1    1    3    3    0  502  0.12670138020E+03  0.23236739385E+03  0.14494605253E+03  0.30175686175E+03  0.00000000000E+00 0.  1.
         11    1    5    5    0    0 -0.26716271809E+03 -0.72136832706E+02 -0.24328292803E+03  0.36846468439E+03  0.00000000000E+00 0.  1.
        -11    1    5    5    0    0 -0.18950980842E+03 -0.91759254240E+02 -0.10185264534E+03  0.23389674984E+03  0.00000000000E+00 0. -1.
          1    1    6    6  503    0  0.56802117699E+01  0.27494549801E+01 -0.41016787612E+01  0.75264916859E+01  0.00000000000E+00 0. -1.
         -1    1    6    6    0  503  0.24583834406E+03 -0.26916318701E+03 -0.12214142329E+04  0.12746521255E+04  0.00000000000E+00 0.  1.
<mgrwt>
<rscale>  0 0.21733577E+04</rscale>
<asrwt>0</asrwt>
<pdfrwt beam="1">  1        2 0.28460381E+00 0.21733577E+04</pdfrwt>
<pdfrwt beam="2">  1       -1 0.98205322E-01 0.21733577E+04</pdfrwt>
<totfact> 0.83861065E+00</totfact>
</mgrwt>
</event>
<event>
12    6  0.9491186E-008  0.2102611E+04  0.7818608E-02  0.8560094E-01
          2   -1    0    0  501    0  0.00000000000E+00  0.00000000000E+00  0.17117311416E+04  0.17117311416E+04  0.00000000000E+00 0. -1.
         -1   -1    0    0    0  501 -0.00000000000E+00 -0.00000000000E+00 -0.64568755552E+03  0.64568755552E+03  0.00000000000E+00 0.  1.
         24    2    1    2    0    0 -0.61088068678E+01 -0.51013441412E+03 -0.33317939973E+03  0.61458004343E+03  0.80160335490E+02 0.  0.
        254    2    1    2    0    0  0.61088068678E+01  0.51013441412E+03  0.13992229858E+04  0.17428386537E+04  0.90520007226E+03 0.  0.
         23    2    4    4    0    0 -0.42758955823E+03  0.16038915801E+03  0.74732343669E+03  0.88044686214E+03  0.90204466116E+02 0.  0.
         23    2    4    4    0    0  0.43369836510E+03  0.34974525612E+03  0.65189954912E+03  0.86239179157E+03  0.91271923154E+02 0.  0.
          2    1    3    3  502    0 -0.26306826888E+02 -0.84992996821E+02 -0.38736772839E+02  0.97038117353E+02  0.00000000000E+00 0. -1.
         -1    1    3    3    0  502  0.20198020020E+02 -0.42514141730E+03 -0.29444262689E+03  0.51754192608E+03  0.00000000000E+00 0.  1.
         11    1    5    5    0    0 -0.28296584560E+03  0.13966469922E+03  0.45595690559E+03  0.55450211698E+03  0.00000000000E+00 0.  1.
        -11    1    5    5    0    0 -0.14462371263E+03  0.20724458781E+02  0.29136653110E+03  0.32594474515E+03  0.00000000000E+00 0. -1.
          1    1    6    6  503    0  0.12500255095E+03  0.53878086436E+02  0.13743834005E+03  0.19343676811E+03  0.00000000000E+00 0. -1.
         -1    1    6    6    0  503  0.30869581414E+03  0.29586716968E+03  0.51446120907E+03  0.66895502345E+03  0.00000000000E+00 0.  1.
<mgrwt>
<rscale>  0 0.21026112E+04</rscale>
<asrwt>0</asrwt>
<pdfrwt beam="1">  1        2 0.26334325E+00 0.21026112E+04</pdfrwt>
<pdfrwt beam="2">  1       -1 0.99336548E-01 0.21026112E+04</pdfrwt>
<totfact> 0.98093069E+00</totfact>
</mgrwt>
</event>
<event>
12    6  0.9491186E-008  0.1261585E+04  0.7818608E-02  0.9060596E-01
          2   -1    0    0  501    0  0.00000000000E+00  0.00000000000E+00  0.17350750441E+04  0.17350750441E+04  0.00000000000E+00 0. -1.
         -1   -1    0    0    0  501 -0.00000000000E+00 -0.00000000000E+00 -0.22932677309E+03  0.22932677309E+03  0.00000000000E+00 0.  1.
         24    2    1    2    0    0 -0.54597206592E+02  0.25604684938E+03  0.61499701558E+03  0.67314252514E+03  0.79741369062E+02 0.  0.
        254    2    1    2    0    0  0.54597206592E+02 -0.25604684938E+03  0.89075125546E+03  0.12912592921E+04  0.89742515912E+03 0.  0.
         23    2    4    4    0    0  0.40630716507E+03 -0.18983821001E+03  0.18334720814E+03  0.49341596964E+03  0.93375917622E+02 0.  0.
         23    2    4    4    0    0 -0.35170995848E+03 -0.66208639364E+02  0.70740404732E+03  0.79784332244E+03  0.89721804380E+02 0.  0.
          4    1    3    3  502    0 -0.33724136785E+02  0.23042512529E+03  0.47132788920E+03  0.52572144231E+03  0.00000000000E+00 0. -1.
         -3    1    3    3    0  502 -0.20873069806E+02  0.25621724080E+02  0.14366912638E+03  0.14742108283E+03  0.00000000000E+00 0.  1.
         11    1    5    5    0    0  0.12860878380E+03 -0.18442125387E+02  0.32625766095E+02  0.13395809745E+03  0.00000000000E+00 0.  1.
        -11    1    5    5    0    0  0.27769838127E+03 -0.17139608462E+03  0.15072144205E+03  0.35945787219E+03  0.00000000000E+00 0. -1.
          1    1    6    6  503    0 -0.19999226248E+03 -0.11612069894E+01  0.32928802283E+03  0.38526465635E+03  0.00000000000E+00 0. -1.
         -1    1    6    6    0  503 -0.15171769600E+03 -0.65047432375E+02  0.37811602449E+03  0.41257866609E+03  0.00000000000E+00 0.  1.
<mgrwt>
<rscale>  0 0.12615850E+04</rscale>
<asrwt>0</asrwt>
<pdfrwt beam="1">  1        2 0.26693461E+00 0.12615850E+04</pdfrwt>
<pdfrwt beam="2">  1       -1 0.35281043E-01 0.12615850E+04</pdfrwt>
<totfact> 0.80291636E+01</totfact>
</mgrwt>
</event>
<event>
12    6  0.9491186E-008  0.2106459E+04  0.7818608E-02  0.8558403E-01
          2   -1    0    0  501    0  0.00000000000E+00  0.00000000000E+00  0.86701338410E+03  0.86701338410E+03  0.00000000000E+00 0. -1.
         -1   -1    0    0    0  501 -0.00000000000E+00 -0.00000000000E+00 -0.12794409237E+04  0.12794409237E+04  0.00000000000E+00 0.  1.
         24    2    1    2    0    0 -0.78707473050E+03 -0.14821381461E+03 -0.48110222201E+03  0.93763203367E+03  0.78996938551E+02 0.  0.
        254    2    1    2    0    0  0.78707473050E+03  0.14821381461E+03  0.68674682387E+02  0.12088222742E+04  0.90281842707E+03 0.  0.
         23    2    4    4    0    0  0.32713621195E+03 -0.19988695274E+03  0.37907731770E+03  0.54701095975E+03  0.92458002654E+02 0.  0.
         23    2    4    4    0    0  0.45993851855E+03  0.34810076735E+03 -0.31040263531E+03  0.66181131440E+03  0.94481928322E+02 0.  0.
          4    1    3    3  502    0 -0.78718116825E+03 -0.14396667159E+03 -0.47646480847E+03  0.93134274458E+03  0.00000000000E+00 0. -1.
         -3    1    3    3    0  502  0.10643774775E+00 -0.42471430249E+01 -0.46374135390E+01  0.62892890854E+01  0.00000000000E+00 0.  1.
         11    1    5    5    0    0  0.98116737387E+02 -0.10491503038E+03  0.10847456180E+03  0.18000218974E+03  0.00000000000E+00 0. -1.
        -11    1    5    5    0    0  0.22901947456E+03 -0.94971922362E+02  0.27060275590E+03  0.36700877001E+03  0.00000000000E+00 0.  1.
          2    1    6    6  503    0  0.45169462080E+03  0.32029234106E+03 -0.28276947222E+03  0.62175058393E+03  0.00000000000E+00 0. -1.
         -2    1    6    6    0  503  0.82438977509E+01  0.27808426293E+02 -0.27633163091E+02  0.40060730465E+02  0.00000000000E+00 0.  1.
<mgrwt>
<rscale>  0 0.21064590E+04</rscale>
<asrwt>0</asrwt>
<pdfrwt beam="1">  1        2 0.13338667E+00 0.21064590E+04</pdfrwt>
<pdfrwt beam="2">  1       -1 0.19683707E+00 0.21064590E+04</pdfrwt>
<totfact> 0.51372568E+00</totfact>
</mgrwt>
</event>
<event>
12    6  0.9491186E-008  0.1177258E+04  0.7818608E-02  0.9132999E-01
          2   -1    0    0  501    0  0.00000000000E+00  0.00000000000E+00  0.17571574646E+04  0.17571574646E+04  0.00000000000E+00 0. -1.
         -1   -1    0    0    0  501 -0.00000000000E+00 -0.00000000000E+00 -0.19718429474E+03  0.19718429474E+03  0.00000000000E+00 0.  1.
         24    2    1    2    0    0  0.10501952367E+03  0.13552572534E+03  0.63107837405E+02  0.19933540636E+03  0.79722534472E+02 0.  0.
        254    2    1    2    0    0 -0.10501952367E+03 -0.13552572534E+03  0.14968653325E+04  0.17550063530E+04  0.90002508461E+03 0.  0.
         23    2    4    4    0    0 -0.20361120052E+03 -0.11198490847E+03 -0.27051282981E+01  0.24915012478E+03  0.89834994613E+02 0.  0.
         23    2    4    4    0    0  0.98591676847E+02 -0.23540816876E+02  0.14995704607E+04  0.15058562282E+04  0.92827390617E+02 0.  0.
          4    1    3    3  502    0  0.20454689614E+02  0.85656601558E+02  0.47085984293E+02  0.99862593770E+02  0.00000000000E+00 0. -1.
         -3    1    3    3    0  502  0.84564834060E+02  0.49869123787E+02  0.16021853112E+02  0.99472812587E+02  0.00000000000E+00 0.  1.
         11    1    5    5    0    0 -0.68721220071E+02 -0.57247514168E+02 -0.41345798475E+02  0.98536079778E+02  0.00000000000E+00 0.  1.
        -11    1    5    5    0    0 -0.13488998045E+03 -0.54737394300E+02  0.38640670177E+02  0.15061404500E+03  0.00000000000E+00 0. -1.
          2    1    6    6  503    0  0.60887522895E+02 -0.12513411845E+02  0.34095180028E+03  0.34657179059E+03  0.00000000000E+00 0. -1.
         -2    1    6    6    0  503  0.37704153952E+02 -0.11027405030E+02  0.11586186605E+04  0.11592844376E+04  0.00000000000E+00 0.  1.
<mgrwt>
<rscale>  0 0.11772576E+04</rscale>
<asrwt>0</asrwt>
<pdfrwt beam="1">  1        2 0.27033191E+00 0.11772576E+04</pdfrwt>
<pdfrwt beam="2">  1       -1 0.30336047E-01 0.11772576E+04</pdfrwt>
<totfact> 0.10268387E+02</totfact>
</mgrwt>
</event>
<event>
12    6  0.9491186E-008  0.1475151E+04  0.7818608E-02  0.8901147E-01
          2   -1    0    0  501    0  0.00000000000E+00  0.00000000000E+00  0.14327817675E+04  0.14327817675E+04  0.00000000000E+00 0. -1.
         -1   -1    0    0    0  501 -0.00000000000E+00 -0.00000000000E+00 -0.37969325314E+03  0.37969325314E+03  0.00000000000E+00 0.  1.
         24    2    1    2    0    0  0.72468331314E+02 -0.28425834494E+03 -0.10316239924E+03  0.32104439856E+03  0.79828312764E+02 0.  0.
        254    2    1    2    0    0 -0.72468331314E+02  0.28425834494E+03  0.11562509136E+04  0.14914306221E+04  0.89520648991E+03 0.  0.
         23    2    4    4    0    0  0.17726267654E+03  0.42769476269E+03  0.10814048715E+04  0.11801504913E+04  0.94730246384E+02 0.  0.
         23    2    4    4    0    0 -0.24973100786E+03 -0.14343641774E+03  0.74846042149E+02  0.31128013079E+03  0.91399166169E+02 0.  0.
          4    1    3    3  502    0 -0.56596806472E+01 -0.20010356948E+02  0.10101224790E+02  0.23118847560E+02  0.00000000000E+00 0. -1.
         -3    1    3    3    0  502  0.78128011961E+02 -0.26424798799E+03 -0.11326362403E+03  0.29792555100E+03  0.00000000000E+00 0.  1.
         11    1    5    5    0    0  0.13776489028E+03  0.40053064965E+03  0.99357188420E+03  0.10800875221E+04  0.00000000000E+00 0.  1.
        -11    1    5    5    0    0  0.39497786261E+02  0.27164113035E+02  0.87832987274E+02  0.10006296922E+03  0.00000000000E+00 0. -1.
          2    1    6    6  503    0 -0.87759457134E+02 -0.58787950161E+02 -0.16591174243E+02  0.10692526579E+03  0.00000000000E+00 0.  1.
         -2    1    6    6    0  503 -0.16197155072E+03 -0.84648467583E+02  0.91437216392E+02  0.20435486500E+03  0.00000000000E+00 0. -1.
<mgrwt>
<rscale>  0 0.14751509E+04</rscale>
<asrwt>0</asrwt>
<pdfrwt beam="1">  1        2 0.22042796E+00 0.14751509E+04</pdfrwt>
<pdfrwt beam="2">  1       -1 0.58414348E-01 0.14751509E+04</pdfrwt>
<totfact> 0.45400475E+01</totfact>
</mgrwt>
</event>
<event>
12    6  0.9491186E-008  0.1963089E+04  0.7818608E-02  0.8624075E-01
          2   -1    0    0  501    0  0.00000000000E+00  0.00000000000E+00  0.47597167931E+03  0.47597167931E+03  0.00000000000E+00 0. -1.
         -1   -1    0    0    0  501 -0.00000000000E+00 -0.00000000000E+00 -0.20241330050E+04  0.20241330050E+04  0.00000000000E+00 0.  1.
         24    2    1    2    0    0  0.30729345913E+02 -0.10194756615E+03  0.36520969282E+03  0.38834919137E+03  0.78098500382E+02 0.  0.
        254    2    1    2    0    0 -0.30729345913E+02  0.10194756615E+03 -0.19133710185E+04  0.21117554929E+04  0.88723447213E+03 0.  0.
         23    2    4    4    0    0 -0.15117361080E+03  0.42492384861E+03 -0.63144865536E+03  0.78127048286E+03  0.90787803798E+02 0.  0.
         23    2    4    4    0    0  0.12044426489E+03 -0.32297628246E+03 -0.12819223631E+04  0.13304850101E+04  0.89693460833E+02 0.  0.
          4    1    3    3  502    0  0.74036977406E+01 -0.42923535987E+02  0.27273241671E+03  0.27618873222E+03  0.00000000000E+00 0. -1.
         -3    1    3    3    0  502  0.23325648172E+02 -0.59024030160E+02  0.92477276114E+02  0.11216045915E+03  0.00000000000E+00 0.  1.
         11    1    5    5    0    0 -0.87534505899E+02  0.13734528844E+03 -0.26605668240E+03  0.31194899620E+03  0.00000000000E+00 0. -1.
        -11    1    5    5    0    0 -0.63639104902E+02  0.28757856017E+03 -0.36539197296E+03  0.46932148666E+03  0.00000000000E+00 0.  1.
          2    1    6    6  503    0  0.76338562005E+02 -0.88734220320E+02 -0.46426548981E+03  0.47879409242E+03  0.00000000000E+00 0. -1.
         -2    1    6    6    0  503  0.44105702883E+02 -0.23424206214E+03 -0.81765687333E+03  0.85169091765E+03  0.00000000000E+00 0.  1.
<mgrwt>
<rscale>  0 0.19630894E+04</rscale>
<asrwt>0</asrwt>
<pdfrwt beam="1">  1        2 0.73226412E-01 0.19630894E+04</pdfrwt>
<pdfrwt beam="2">  1       -1 0.31140508E+00 0.19630894E+04</pdfrwt>
<totfact> 0.19347993E+00</totfact>
</mgrwt>
</event>
<event>
12    6  0.1102687E-007  0.2379065E+04  0.7818608E-02  0.8447383E-01
          2   -1    0    0  501    0  0.00000000000E+00  0.00000000000E+00  0.15724725300E+04  0.15724725300E+04  0.00000000000E+00 0. -1.
         -1   -1    0    0    0  501 -0.00000000000E+00 -0.00000000000E+00 -0.89984876491E+03  0.89984876491E+03  0.00000000000E+00 0.  1.
         24    2    1    2    0    0  0.12217791867E+03  0.92879790141E+03 -0.12816935300E+03  0.94898775159E+03  0.80977676885E+02 0.  0.
        254    2    1    2    0    0 -0.12217791867E+03 -0.92879790141E+03  0.80079311805E+03  0.15233335433E+04  0.89536723233E+03 0.  0.
         23    2    4    4    0    0  0.31534635256E+01 -0.99471789072E+03  0.88562784713E+03  0.13349702859E+04  0.91298160394E+02 0.  0.
         23    2    4    4    0    0 -0.12533138220E+03  0.65919989308E+02 -0.84834729087E+02  0.18836325742E+03  0.90721470072E+02 0.  0.
          4    1    3    3  502    0  0.30239248875E+02  0.27667312794E+03 -0.75123603562E+02  0.28828109149E+03  0.00000000000E+00 0. -1.
         -3    1    3    3    0  502  0.91938669798E+02  0.65212477346E+03 -0.53045749433E+02  0.66070666010E+03  0.00000000000E+00 0.  1.
         11    1    5    5    0    0  0.36319190775E+02 -0.81262453233E+03  0.73554830558E+03  0.10966809126E+04  0.00000000000E+00 0. -1.
        -11    1    5    5    0    0 -0.33165727249E+02 -0.18209335838E+03  0.15007954156E+03  0.23828937329E+03  0.00000000000E+00 0.  1.
          1    1    6    6  503    0 -0.13071699489E+03  0.43629377321E+02 -0.90342244997E+02  0.16477917511E+03  0.00000000000E+00 0. -1.
         -1    1    6    6    0  503  0.53856126932E+01  0.22290611987E+02  0.55075159098E+01  0.23584082309E+02  0.00000000000E+00 0.  1.
<mgrwt>
<rscale>  0 0.23790649E+04</rscale>
<asrwt>0</asrwt>
<pdfrwt beam="1">  1        2 0.24191885E+00 0.23790649E+04</pdfrwt>
<pdfrwt beam="2">  1       -1 0.13843827E+00 0.23790649E+04</pdfrwt>
<totfact> 0.51169414E+00</totfact>
</mgrwt>
</event>
<event>
12    6  0.9491186E-008  0.1876537E+04  0.7818608E-02  0.8666624E-01
          2   -1    0    0  501    0  0.00000000000E+00  0.00000000000E+00  0.16432131420E+04  0.16432131420E+04  0.00000000000E+00 0. -1.
         -1   -1    0    0    0  501 -0.00000000000E+00 -0.00000000000E+00 -0.53574793585E+03  0.53574793585E+03  0.00000000000E+00 0.  1.
         24    2    1    2    0    0 -0.44815690737E+03  0.58533135506E+03  0.42984260635E+03  0.85723264022E+03  0.81398552726E+02 0.  0.
        254    2    1    2    0    0  0.44815690737E+03 -0.58533135506E+03  0.67762259981E+03  0.13217284376E+04  0.86274924878E+03 0.  0.
         23    2    4    4    0    0  0.46196142695E+03 -0.27953677569E+03 -0.27180845665E+02  0.54783287527E+03  0.88503626482E+02 0.  0.
         23    2    4    4    0    0 -0.13804519584E+02 -0.30579457937E+03  0.70480344547E+03  0.77389556238E+03  0.92008451694E+02 0.  0.
          4    1    3    3  502    0 -0.90496406320E+02  0.17740095092E+03  0.11393350431E+03  0.22943744321E+03  0.00000000000E+00 0. -1.
         -3    1    3    3    0  502 -0.35766050105E+03  0.40793040414E+03  0.31590910205E+03  0.62779519701E+03  0.00000000000E+00 0.  1.
         11    1    5    5    0    0  0.19748005605E+03 -0.10450357007E+03 -0.53008036386E+02  0.22962844034E+03  0.00000000000E+00 0.  1.
        -11    1    5    5    0    0  0.26448137091E+03 -0.17503320562E+03  0.25827190721E+02  0.31820443493E+03  0.00000000000E+00 0. -1.
          3    1    6    6  503    0  0.45708365198E+01 -0.30046486836E+03  0.66187733387E+03  0.72689864132E+03  0.00000000000E+00 0. -1.
         -3    1    6    6    0  503 -0.18375356104E+02 -0.53297110140E+01  0.42926111605E+02  0.46996921058E+02  0.00000000000E+00 0.  1.
<mgrwt>
<rscale>  0 0.18765373E+04</rscale>
<asrwt>0</asrwt>
<pdfrwt beam="1">  1        2 0.25280202E+00 0.18765373E+04</pdfrwt>
<pdfrwt beam="2">  1       -1 0.82422760E-01 0.18765373E+04</pdfrwt>
<totfact> 0.16498415E+01</totfact>
</mgrwt>
</event>
<event>
12    6  0.9491186E-008  0.1676910E+04  0.7818608E-02  0.8774644E-01
          2   -1    0    0  501    0  0.00000000000E+00  0.00000000000E+00  0.12957521646E+04  0.12957521646E+04  0.00000000000E+00 0. -1.
         -1   -1    0    0    0  501 -0.00000000000E+00 -0.00000000000E+00 -0.54254721857E+03  0.54254721857E+03  0.00000000000E+00 0.  1.
         24    2    1    2    0    0  0.58630150270E+03 -0.62471616612E+02  0.31559199156E+03  0.67398693564E+03  0.83713376071E+02 0.  0.
        254    2    1    2    0    0 -0.58630150270E+03  0.62471616612E+02  0.43761295442E+03  0.11643124475E+04  0.90358520491E+03 0.  0.
         23    2    4    4    0    0 -0.58771635226E+03  0.40765640084E+03  0.27273720449E+03  0.77093477403E+03  0.91436268673E+02 0.  0.
         23    2    4    4    0    0  0.14148495611E+01 -0.34518478423E+03  0.16487574993E+03  0.39337767346E+03  0.91692115238E+02 0.  0.
          4    1    3    3  502    0  0.43010185791E+03 -0.69947112684E+02  0.19962939704E+03  0.47930376893E+03  0.00000000000E+00 0. -1.
         -3    1    3    3    0  502  0.15619964479E+03  0.74754960714E+01  0.11596259451E+03  0.19468316671E+03  0.00000000000E+00 0.  1.
         11    1    5    5    0    0 -0.57864911556E+02  0.63329321837E+02  0.91954018211E+01  0.86275757941E+02  0.00000000000E+00 0.  1.
        -11    1    5    5    0    0 -0.52985144070E+03  0.34432707900E+03  0.26354180267E+03  0.68465901609E+03  0.00000000000E+00 0. -1.
          4    1    6    6  503    0 -0.28770803492E+01 -0.32419920209E+03  0.17635834572E+03  0.36907406618E+03  0.00000000000E+00 0. -1.
         -4    1    6    6    0  503  0.42919299103E+01 -0.20985582143E+02 -0.11482595794E+02  0.24303607271E+02  0.00000000000E+00 0.  1.
<mgrwt>
<rscale>  0 0.16769099E+04</rscale>
<asrwt>0</asrwt>
<pdfrwt beam="1">  1        2 0.19934649E+00 0.16769099E+04</pdfrwt>
<pdfrwt beam="2">  1       -1 0.83468804E-01 0.16769099E+04</pdfrwt>
<totfact> 0.25732032E+01</totfact>
</mgrwt>
</event>
<event>
12    6  0.9491186E-008  0.1204344E+04  0.7818608E-02  0.9109063E-01
          2   -1    0    0  501    0  0.00000000000E+00  0.00000000000E+00  0.35501982972E+03  0.35501982972E+03  0.00000000000E+00 0. -1.
         -1   -1    0    0    0  501 -0.00000000000E+00 -0.00000000000E+00 -0.10213821492E+04  0.10213821492E+04  0.00000000000E+00 0.  1.
         24    2    1    2    0    0  0.19121846426E+03  0.14530165927E+03 -0.24306890244E+03  0.35102643326E+03  0.80374077016E+02 0.  0.
        254    2    1    2    0    0 -0.19121846426E+03 -0.14530165927E+03 -0.42329341704E+03  0.10253755457E+04  0.90251904106E+03 0.  0.
         23    2    4    4    0    0 -0.21490761340E+03 -0.32110108258E+03  0.14376884258E+03  0.42418398181E+03  0.99856811478E+02 0.  0.
         23    2    4    4    0    0  0.23689149139E+02  0.17579942331E+03 -0.56706225962E+03  0.60119156386E+03  0.91679207825E+02 0.  0.
          2    1    3    3  502    0  0.95989073426E+02  0.66820527901E+02 -0.17387216052E+03  0.20954811707E+03  0.00000000000E+00 0. -1.
         -1    1    3    3    0  502  0.95229390831E+02  0.78481131370E+02 -0.69196741924E+02  0.14147831619E+03  0.00000000000E+00 0.  1.
         11    1    5    5    0    0 -0.86702920786E+02 -0.16339502956E+03  0.11777454403E+03  0.21928560231E+03  0.00000000000E+00 0.  1.
        -11    1    5    5    0    0 -0.12820469261E+03 -0.15770605302E+03  0.25994298549E+02  0.20489837950E+03  0.00000000000E+00 0. -1.
          4    1    6    6  503    0  0.33653954313E+02  0.12367448148E+03 -0.26342644841E+03  0.29295299918E+03  0.00000000000E+00 0. -1.
         -4    1    6    6    0  503 -0.99648051743E+01  0.52124941832E+02 -0.30363581122E+03  0.30823856468E+03  0.00000000000E+00 0.  1.
<mgrwt>
<rscale>  0 0.12043437E+04</rscale>
<asrwt>0</asrwt>
<pdfrwt beam="1">  1        2 0.54618436E-01 0.12043437E+04</pdfrwt>
<pdfrwt beam="2">  1       -1 0.15713571E+00 0.12043437E+04</pdfrwt>
<totfact> 0.31569182E+01</totfact>
</mgrwt>
</event>
<event>
12    6  0.9491186E-008  0.3042505E+04  0.7818608E-02  0.8231696E-01
         -1   -1    0    0    0  501 -0.00000000000E+00  0.00000000000E+00  0.24850596576E+04  0.24850596576E+04  0.00000000000E+00 0.  1.
          2   -1    0    0  501    0  0.00000000000E+00 -0.00000000000E+00 -0.93124915128E+03  0.93124915128E+03  0.00000000000E+00 0. -1.
         24    2    1    2    0    0 -0.69303045751E+03  0.71452634299E+03 -0.37481714151E+03  0.10667467998E+04  0.81374046623E+02 0.  0.
        254    2    1    2    0    0  0.69303045751E+03 -0.71452634299E+03  0.19286276479E+04  0.23495620091E+04  0.89999884484E+03 0.  0.
         23    2    4    4    0    0  0.70246875489E+02  0.17700846597E+03  0.55587926894E+03  0.59583265523E+03  0.98732825645E+02 0.  0.
         23    2    4    4    0    0  0.62278358202E+03 -0.89153480895E+03  0.13727483789E+04  0.17537293539E+04  0.91841326403E+02 0.  0.
          2    1    3    3  502    0 -0.64685430624E+03  0.65613778732E+03 -0.32430508566E+03  0.97678609636E+03  0.00000000000E+00 0. -1.
         -1    1    3    3    0  502 -0.46176151272E+02  0.58388555671E+02 -0.50512055842E+02  0.89960703449E+02  0.00000000000E+00 0.  1.
         11    1    5    5    0    0 -0.13899477544E+02  0.89032261437E+01  0.12074317239E+02  0.20451211420E+02  0.00000000000E+00 0.  1.
        -11    1    5    5    0    0  0.84146353034E+02  0.16810523982E+03  0.54380495171E+03  0.57538144381E+03  0.00000000000E+00 0. -1.
          4    1    6    6  503    0  0.48364971588E+03 -0.67398751797E+03  0.11050497585E+04  0.13817782712E+04  0.00000000000E+00 0. -1.
         -4    1    6    6    0  503  0.13913386614E+03 -0.21754729098E+03  0.26769862043E+03  0.37195108267E+03  0.00000000000E+00 0.  1.
<mgrwt>
<rscale>  0 0.30425053E+04</rscale>
<asrwt>0</asrwt>
<pdfrwt beam="1">  1        2 0.14326910E+00 0.30425053E+04</pdfrwt>
<pdfrwt beam="2">  1       -1 0.38231687E+00 0.30425053E+04</pdfrwt>
<totfact> 0.25619567E-01</totfact>
</mgrwt>
</event>
<event>
12    6  0.9491186E-008  0.1854392E+04  0.7818608E-02  0.8677897E-01
          2   -1    0    0  501    0  0.00000000000E+00  0.00000000000E+00  0.92658916885E+03  0.92658916885E+03  0.00000000000E+00 0. -1.
         -1   -1    0    0    0  501 -0.00000000000E+00 -0.00000000000E+00 -0.92780349140E+03  0.92780349140E+03  0.00000000000E+00 0.  1.
         24    2    1    2    0    0 -0.10904304346E+03  0.59598926975E+03  0.36050500187E+03  0.70949207052E+03  0.79508155388E+02 0.  0.
        254    2    1    2    0    0  0.10904304346E+03 -0.59598926975E+03 -0.36171932441E+03  0.11449005897E+04  0.90158909472E+03 0.  0.
         23    2    4    4    0    0  0.35532993202E+03 -0.97893842746E+02 -0.43483615788E+03  0.57716952542E+03  0.90551708068E+02 0.  0.
         23    2    4    4    0    0 -0.24628688856E+03 -0.49809542701E+03  0.73116833473E+02  0.56773106431E+03  0.90643279742E+02 0.  0.
          2    1    3    3  502    0 -0.77705988943E+02  0.33661147929E+03  0.16306829429E+03  0.38201672386E+03  0.00000000000E+00 0. -1.
         -1    1    3    3    0  502 -0.31337054520E+02  0.25937779047E+03  0.19743670757E+03  0.32747534666E+03  0.00000000000E+00 0.  1.
         11    1    5    5    0    0  0.37544280793E+02 -0.23075194810E+01 -0.11633294301E+02  0.39372975538E+02  0.00000000000E+00 0. -1.
        -11    1    5    5    0    0  0.31778565123E+03 -0.95586323265E+02 -0.42320286358E+03  0.53779654988E+03  0.00000000000E+00 0.  1.
          3    1    6    6  503    0 -0.27090221116E+02 -0.13547614178E+03  0.26051855068E+01  0.13818267642E+03  0.00000000000E+00 0. -1.
         -3    1    6    6    0  503 -0.21919666744E+03 -0.36261928523E+03  0.70511647966E+02  0.42954838789E+03  0.00000000000E+00 0.  1.
<mgrwt>
<rscale>  0 0.18543923E+04</rscale>
<asrwt>0</asrwt>
<pdfrwt beam="1">  1        2 0.14255218E+00 0.18543923E+04</pdfrwt>
<pdfrwt beam="2">  1       -1 0.14273900E+00 0.18543923E+04</pdfrwt>
<totfact> 0.12022750E+01</totfact>
</mgrwt>
</event>
<event>
12    6  0.9491186E-008  0.2071313E+04  0.7818608E-02  0.8573987E-01
         -1   -1    0    0    0  501 -0.00000000000E+00  0.00000000000E+00  0.51351051535E+03  0.51351051535E+03  0.00000000000E+00 0.  1.
          2   -1    0    0  501    0  0.00000000000E+00 -0.00000000000E+00 -0.20887293885E+04  0.20887293885E+04  0.00000000000E+00 0. -1.
         24    2    1    2    0    0  0.31840726509E+03  0.28050503714E+03  0.26637962710E+03  0.51173694122E+03  0.10416491229E+03 0.  0.
        254    2    1    2    0    0 -0.31840726509E+03 -0.28050503714E+03 -0.18415985002E+04  0.20905029626E+04  0.89367294818E+03 0.  0.
         23    2    4    4    0    0 -0.41783340140E+03 -0.26352199145E+03 -0.18825081843E+04  0.19484701428E+04  0.93114133935E+02 0.  0.
         23    2    4    4    0    0  0.99426136319E+02 -0.16983045695E+02  0.40909684119E+02  0.14203281981E+03  0.91245488787E+02 0.  0.
          4    1    3    3  502    0  0.36078709721E+02 -0.37609814105E+01  0.20754335089E+02  0.41791873627E+02  0.00000000000E+00 0. -1.
         -3    1    3    3    0  502  0.28232855536E+03  0.28426601855E+03  0.24562529201E+03  0.46994506759E+03  0.00000000000E+00 0.  1.
         11    1    5    5    0    0 -0.32087861060E+03 -0.17416983704E+03 -0.15030875279E+04  0.15467935645E+04  0.00000000000E+00 0. -1.
        -11    1    5    5    0    0 -0.96954790806E+02 -0.89352154407E+02 -0.37942065647E+03  0.40167657825E+03  0.00000000000E+00 0.  1.
          3    1    6    6  503    0  0.34275218566E+02  0.86754203001E+00  0.62353956060E+02  0.71158689373E+02  0.00000000000E+00 0. -1.
         -3    1    6    6    0  503  0.65150917753E+02 -0.17850587725E+02 -0.21444271940E+02  0.70874130438E+02  0.00000000000E+00 0.  1.
<mgrwt>
<rscale>  0 0.20713131E+04</rscale>
<asrwt>0</asrwt>
<pdfrwt beam="1">  1        2 0.32134298E+00 0.20713131E+04</pdfrwt>
<pdfrwt beam="2">  1       -1 0.79001617E-01 0.20713131E+04</pdfrwt>
<totfact> 0.10043371E+01</totfact>
</mgrwt>
</event>
<event>
12    6  0.9491186E-008  0.2415255E+04  0.7818608E-02  0.8433814E-01
         -1   -1    0    0    0  501 -0.00000000000E+00  0.00000000000E+00  0.10070452217E+04  0.10070452217E+04  0.00000000000E+00 0.  1.
          2   -1    0    0  501    0  0.00000000000E+00 -0.00000000000E+00 -0.14481616699E+04  0.14481616699E+04  0.00000000000E+00 0. -1.
         24    2    1    2    0    0  0.68571979083E+03  0.61078269915E+03 -0.68907255869E+03  0.11503812497E+04  0.72724764646E+02 0.  0.
        254    2    1    2    0    0 -0.68571979083E+03 -0.61078269915E+03  0.24795611049E+03  0.13048256419E+04  0.89320803064E+03 0.  0.
         23    2    4    4    0    0 -0.71505407247E+03 -0.11157938630E+03 -0.20900703251E+02  0.72978300550E+03  0.91619374102E+02 0.  0.
         23    2    4    4    0    0  0.29334281643E+02 -0.49920331285E+03  0.26885681375E+03  0.57504263644E+03  0.91244724661E+02 0.  0.
          4    1    3    3  502    0  0.51990030665E+03  0.49985971794E+03 -0.55444097797E+03  0.90970372349E+03  0.00000000000E+00 0. -1.
         -3    1    3    3    0  502  0.16581948418E+03  0.11092298121E+03 -0.13463158072E+03  0.24067752621E+03  0.00000000000E+00 0.  1.
         11    1    5    5    0    0 -0.16416980774E+03 -0.45865731207E+02  0.28403362054E+02  0.17280666089E+03  0.00000000000E+00 0. -1.
        -11    1    5    5    0    0 -0.55088426473E+03 -0.65713655089E+02 -0.49304065305E+02  0.55697634460E+03  0.00000000000E+00 0.  1.
          1    1    6    6  503    0  0.49110112107E+01 -0.54150167983E+02 -0.26769817505E+00  0.54373066733E+02  0.00000000000E+00 0. -1.
         -1    1    6    6    0  503  0.24423270432E+02 -0.44505314487E+03  0.26912451192E+03  0.52066956970E+03  0.00000000000E+00 0.  1.
<mgrwt>
<rscale>  0 0.24152551E+04</rscale>
<asrwt>0</asrwt>
<pdfrwt beam="1">  1        2 0.22279410E+00 0.24152551E+04</pdfrwt>
<pdfrwt beam="2">  1       -1 0.15493003E+00 0.24152551E+04</pdfrwt>
<totfact> 0.44405092E+00</totfact>
</mgrwt>
</event>
<event>
12    6  0.9491186E-008  0.1495904E+04  0.7818608E-02  0.8887181E-01
          4   -1    0    0  501    0  0.00000000000E+00  0.00000000000E+00  0.39404271453E+03  0.39404271453E+03  0.00000000000E+00 0. -1.
         -1   -1    0    0    0  501 -0.00000000000E+00 -0.00000000000E+00 -0.14197249969E+04  0.14197249969E+04  0.00000000000E+00 0.  1.
         24    2    1    2    0    0  0.22638250075E+02 -0.55167844809E+02  0.23891125344E+03  0.25937679826E+03  0.81496963085E+02 0.  0.
        254    2    1    2    0    0 -0.22638250075E+02  0.55167844809E+02 -0.12645935358E+04  0.15543909132E+04  0.90187489081E+03 0.  0.
         23    2    4    4    0    0 -0.14618645001E+03 -0.24401166055E+03 -0.60131796214E+02  0.30441310385E+03  0.90218269912E+02 0.  0.
         23    2    4    4    0    0  0.12354819994E+03  0.29917950536E+03 -0.12044617396E+04  0.12499778093E+04  0.83330111583E+02 0.  0.
          4    1    3    3  502    0  0.12844536145E+02 -0.68094736680E+02  0.23130839921E+03  0.24146521658E+03  0.00000000000E+00 0. -1.
         -3    1    3    3    0  502  0.97937139302E+01  0.12926891872E+02  0.76028542222E+01  0.17911581682E+02  0.00000000000E+00 0.  1.
         11    1    5    5    0    0 -0.11404302481E+03 -0.22178757215E+03 -0.78195396250E+02  0.26136193040E+03  0.00000000000E+00 0.  1.
        -11    1    5    5    0    0 -0.32143425204E+02 -0.22224088408E+02  0.18063600037E+02  0.43051173454E+02  0.00000000000E+00 0. -1.
          4    1    6    6  503    0  0.30351551655E+02  0.20705272776E+02 -0.20510068534E+03  0.20836558290E+03  0.00000000000E+00 0. -1.
         -4    1    6    6    0  503  0.93196648282E+02  0.27847423259E+03 -0.99936105429E+03  0.10416122265E+04  0.00000000000E+00 0.  1.
<mgrwt>
<rscale>  0 0.14959041E+04</rscale>
<asrwt>0</asrwt>
<pdfrwt beam="1">  1        4 0.60621955E-01 0.14959041E+04</pdfrwt>
<pdfrwt beam="2">  1       -1 0.21841924E+00 0.14959041E+04</pdfrwt>
<totfact> 0.11740813E+00</totfact>
</mgrwt>
</event>
<event>
12    6  0.9491186E-008  0.1478931E+04  0.7818608E-02  0.8898586E-01
          2   -1    0    0  501    0  0.00000000000E+00  0.00000000000E+00  0.24543358023E+04  0.24543358023E+04  0.00000000000E+00 0. -1.
         -1   -1    0    0    0  501 -0.00000000000E+00 -0.00000000000E+00 -0.22279313685E+03  0.22279313685E+03  0.00000000000E+00 0.  1.
         24    2    1    2    0    0 -0.18651322548E+03 -0.32359211330E+03  0.12149120394E+04  0.12736006062E+04  0.80920959001E+02 0.  0.
        254    2    1    2    0    0  0.18651322548E+03  0.32359211330E+03  0.10166306261E+04  0.14035283330E+04  0.89266730224E+03 0.  0.
         23    2    4    4    0    0  0.29958319328E+03  0.15065242432E+03 -0.15830252049E+02  0.34666970698E+03  0.86504602261E+02 0.  0.
         23    2    4    4    0    0 -0.11306996779E+03  0.17293968898E+03  0.10324608781E+04  0.10568586260E+04  0.91004048296E+02 0.  0.
          2    1    3    3  502    0 -0.10339830219E+03 -0.24521117096E+03  0.90434326898E+03  0.94268577767E+03  0.00000000000E+00 0. -1.
         -1    1    3    3    0  502 -0.83114923289E+02 -0.78380942334E+02  0.31056877040E+03  0.33091482853E+03  0.00000000000E+00 0.  1.
         11    1    5    5    0    0  0.55711589994E+02  0.35762085971E+02 -0.37735615706E+02  0.76201605924E+02  0.00000000000E+00 0. -1.
        -11    1    5    5    0    0  0.24387160328E+03  0.11489033835E+03  0.21905363657E+02  0.27046810106E+03  0.00000000000E+00 0.  1.
          2    1    6    6  503    0  0.73130672114E+01  0.56226206025E+02  0.21284180768E+03  0.22026461879E+03  0.00000000000E+00 0. -1.
         -2    1    6    6    0  503 -0.12038303501E+03  0.11671348295E+03  0.81961907046E+03  0.83659400720E+03  0.00000000000E+00 0.  1.
<mgrwt>
<rscale>  0 0.14789309E+04</rscale>
<asrwt>0</asrwt>
<pdfrwt beam="1">  1        2 0.37759011E+00 0.14789309E+04</pdfrwt>
<pdfrwt beam="2">  1       -1 0.34275869E-01 0.14789309E+04</pdfrwt>
<totfact> 0.32933387E+01</totfact>
</mgrwt>
</event>
<event>
12    6  0.9491186E-008  0.2083065E+04  0.7818608E-02  0.8568740E-01
          2   -1    0    0  501    0  0.00000000000E+00  0.00000000000E+00  0.12616520498E+04  0.12616520498E+04  0.00000000000E+00 0. -1.
         -1   -1    0    0    0  501 -0.00000000000E+00 -0.00000000000E+00 -0.85981690240E+03  0.85981690240E+03  0.00000000000E+00 0.  1.
         24    2    1    2    0    0  0.33520226260E+03 -0.48698910317E+03  0.78264003302E+03  0.98392659791E+03  0.77892139155E+02 0.  0.
        254    2    1    2    0    0 -0.33520226260E+03  0.48698910317E+03 -0.38080488560E+03  0.11375423543E+04  0.89413159182E+03 0.  0.
         23    2    4    4    0    0  0.22509812795E+03 -0.46624494384E+02 -0.24147885089E+03  0.34576492468E+03  0.91642441172E+02 0.  0.
         23    2    4    4    0    0 -0.56030039055E+03  0.53361359755E+03 -0.13932603470E+03  0.79177742963E+03  0.93913550583E+02 0.  0.
          2    1    3    3  502    0  0.24312454223E+03 -0.40785158492E+03  0.62967050316E+03  0.78863007862E+03  0.00000000000E+00 0. -1.
         -1    1    3    3    0  502  0.92077720364E+02 -0.79137518249E+02  0.15296952986E+03  0.19529651930E+03  0.00000000000E+00 0.  1.
         11    1    5    5    0    0  0.15109162763E+03 -0.53236260288E+02 -0.10864488995E+03  0.19356262930E+03  0.00000000000E+00 0. -1.
        -11    1    5    5    0    0  0.74006500323E+02  0.66117659037E+01 -0.13283396094E+03  0.15220229538E+03  0.00000000000E+00 0.  1.
          3    1    6    6  503    0 -0.26147449906E+03  0.29813966535E+03 -0.10222364477E+03  0.40951904383E+03  0.00000000000E+00 0. -1.
         -3    1    6    6    0  503 -0.29882589149E+03  0.23547393220E+03 -0.37102389932E+02  0.38225838580E+03  0.00000000000E+00 0.  1.
<mgrwt>
<rscale>  0 0.20830648E+04</rscale>
<asrwt>0</asrwt>
<pdfrwt beam="1">  1        2 0.19410032E+00 0.20830648E+04</pdfrwt>
<pdfrwt beam="2">  1       -1 0.13227952E+00 0.20830648E+04</pdfrwt>
<totfact> 0.88878473E+00</totfact>
</mgrwt>
</event>
<event>
12    6  0.9491186E-008  0.1658315E+04  0.7818608E-02  0.8785502E-01
         -1   -1    0    0    0  501 -0.00000000000E+00  0.00000000000E+00  0.19107274380E+03  0.19107274380E+03  0.00000000000E+00 0.  1.
          2   -1    0    0  501    0  0.00000000000E+00 -0.00000000000E+00 -0.35981190161E+04  0.35981190161E+04  0.00000000000E+00 0. -1.
         24    2    1    2    0    0 -0.19624192904E+03  0.19644847867E+03 -0.23805437302E+04  0.23979784346E+04  0.78798613867E+02 0.  0.
        254    2    1    2    0    0  0.19624192904E+03 -0.19644847867E+03 -0.10265025421E+04  0.13912133254E+04  0.89703073988E+03 0.  0.
         23    2    4    4    0    0 -0.44184271052E+02  0.33365363516E+03 -0.35123980601E+03  0.49498092751E+03  0.91431500096E+02 0.  0.
         23    2    4    4    0    0  0.24042620009E+03 -0.53010211383E+03 -0.67526273606E+03  0.89623239785E+03  0.91868054649E+02 0.  0.
          2    1    3    3  502    0 -0.18648044515E+03  0.19830761124E+03 -0.23530631400E+04  0.23687564261E+04  0.00000000000E+00 0. -1.
         -1    1    3    3    0  502 -0.97614838907E+01 -0.18591325730E+01 -0.27480590206E+02  0.29222008482E+02  0.00000000000E+00 0.  1.
         11    1    5    5    0    0 -0.24054363547E+02  0.30840991179E+03 -0.34252270185E+03  0.46153774210E+03  0.00000000000E+00 0. -1.
        -11    1    5    5    0    0 -0.20129907505E+02  0.25243723370E+02 -0.87171041578E+01  0.33443185414E+02  0.00000000000E+00 0.  1.
          4    1    6    6  503    0  0.11660913558E+03 -0.34417813516E+03 -0.45761844770E+03  0.58435513423E+03  0.00000000000E+00 0. -1.
         -4    1    6    6    0  503  0.12381706451E+03 -0.18592397866E+03 -0.21764428837E+03  0.31187726362E+03  0.00000000000E+00 0.  1.
<mgrwt>
<rscale>  0 0.16583154E+04</rscale>
<asrwt>0</asrwt>
<pdfrwt beam="1">  1        2 0.55355679E+00 0.16583154E+04</pdfrwt>
<pdfrwt beam="2">  1       -1 0.29395806E-01 0.16583154E+04</pdfrwt>
<totfact> 0.80568316E+00</totfact>
</mgrwt>
</event>
<event>
12    6  0.9491186E-008  0.1574129E+04  0.7818608E-02  0.8836601E-01
          2   -1    0    0  501    0  0.00000000000E+00  0.00000000000E+00  0.94888825010E+03  0.94888825010E+03  0.00000000000E+00 0. -1.
         -1   -1    0    0    0  501 -0.00000000000E+00 -0.00000000000E+00 -0.65283824618E+03  0.65283824618E+03  0.00000000000E+00 0.  1.
         24    2    1    2    0    0 -0.30487808192E+03 -0.99840726755E+02 -0.32540526682E+03  0.46526183843E+03  0.87528138744E+02 0.  0.
        254    2    1    2    0    0  0.30487808192E+03  0.99840726755E+02  0.62145527074E+03  0.11364646578E+04  0.89578259050E+03 0.  0.
         23    2    4    4    0    0 -0.17956390048E+03  0.34874374281E+02  0.60562412545E+03  0.63922434716E+03  0.91475506779E+02 0.  0.
         23    2    4    4    0    0  0.48444198240E+03  0.64966352474E+02  0.15831145297E+02  0.49724031069E+03  0.89959102651E+02 0.  0.
          2    1    3    3  502    0 -0.39724387220E+02  0.13824670378E+01 -0.10056718291E+02  0.41000923622E+02  0.00000000000E+00 0. -1.
         -1    1    3    3    0  502 -0.26515369470E+03 -0.10122319379E+03 -0.31534854853E+03  0.42426091481E+03  0.00000000000E+00 0.  1.
         11    1    5    5    0    0 -0.15700717859E+03  0.47236698126E+02  0.58071737573E+03  0.60341961375E+03  0.00000000000E+00 0.  1.
        -11    1    5    5    0    0 -0.22556721889E+02 -0.12362323845E+02  0.24906749713E+02  0.35804733409E+02  0.00000000000E+00 0. -1.
          1    1    6    6  503    0  0.29209633423E+02  0.84968739723E+01  0.23523295770E+02  0.38454453525E+02  0.00000000000E+00 0. -1.
         -1    1    6    6    0  503  0.45523234898E+03  0.56469478502E+02 -0.76921504727E+01  0.45878585717E+03  0.00000000000E+00 0.  1.
<mgrwt>
<rscale>  0 0.15741290E+04</rscale>
<asrwt>0</asrwt>
<pdfrwt beam="1">  1        2 0.14598281E+00 0.15741290E+04</pdfrwt>
<pdfrwt beam="2">  1       -1 0.10043665E+00 0.15741290E+04</pdfrwt>
<totfact> 0.28144153E+01</totfact>
</mgrwt>
</event>
<event>
12    6  0.9491186E-008  0.2960012E+04  0.7818608E-02  0.8255243E-01
          2   -1    0    0  501    0  0.00000000000E+00  0.00000000000E+00  0.98148761628E+03  0.98148761628E+03  0.00000000000E+00 0. -1.
         -1   -1    0    0    0  501 -0.00000000000E+00 -0.00000000000E+00 -0.22317321385E+04  0.22317321385E+04  0.00000000000E+00 0.  1.
         24    2    1    2    0    0 -0.36705644842E+02 -0.87329816047E+03  0.53422382556E+03  0.10274729893E+04  0.79427113907E+02 0.  0.
        254    2    1    2    0    0  0.36705644842E+02  0.87329816047E+03 -0.17844683477E+04  0.21857467655E+04  0.91058478858E+03 0.  0.
         23    2    4    4    0    0 -0.12210066950E+03  0.61456393637E+03 -0.17567334707E+04  0.18673449671E+04  0.90924879311E+02 0.  0.
         23    2    4    4    0    0  0.15880631434E+03  0.25873422410E+03 -0.27734877046E+02  0.31840179837E+03  0.91911030924E+02 0.  0.
          4    1    3    3  502    0  0.36954945264E+01 -0.64588351322E+03  0.37393704682E+03  0.74632974235E+03  0.00000000000E+00 0. -1.
         -3    1    3    3    0  502 -0.40401139369E+02 -0.22741464725E+03  0.16028677875E+03  0.28114324691E+03  0.00000000000E+00 0.  1.
         11    1    5    5    0    0 -0.11140928467E+03  0.43756528599E+03 -0.11583743119E+04  0.12432644347E+04  0.00000000000E+00 0. -1.
        -11    1    5    5    0    0 -0.10691384826E+02  0.17699865038E+03 -0.59835915882E+03  0.62408053238E+03  0.00000000000E+00 0.  1.
          2    1    6    6  503    0  0.14652880305E+03  0.22768164605E+03  0.61520723879E+01  0.27082738057E+03  0.00000000000E+00 0. -1.
         -2    1    6    6    0  503  0.12277511290E+02  0.31052578044E+02 -0.33886949434E+02  0.47574417796E+02  0.00000000000E+00 0.  1.
<mgrwt>
<rscale>  0 0.29600118E+04</rscale>
<asrwt>0</asrwt>
<pdfrwt beam="1">  1        2 0.15099809E+00 0.29600118E+04</pdfrwt>
<pdfrwt beam="2">  1       -1 0.34334341E+00 0.29600118E+04</pdfrwt>
<totfact> 0.43574043E-01</totfact>
</mgrwt>
</event>
<event>
12    6  0.9491186E-008  0.1454157E+04  0.7818608E-02  0.8915524E-01
         -1   -1    0    0    0  501 -0.00000000000E+00  0.00000000000E+00  0.82406830604E+03  0.82406830604E+03  0.00000000000E+00 0.  1.
          2   -1    0    0  501    0  0.00000000000E+00 -0.00000000000E+00 -0.64150368152E+03  0.64150368152E+03  0.00000000000E+00 0. -1.
         24    2    1    2    0    0  0.82504369323E+02  0.11679670719E+03  0.48410940696E+03  0.51107389958E+03  0.79913522978E+02 0.  0.
        254    2    1    2    0    0 -0.82504369323E+02 -0.11679670719E+03 -0.30154478244E+03  0.95449808798E+03  0.89425326523E+03 0.  0.
         23    2    4    4    0    0  0.14704891811E+03 -0.29945265000E+03  0.17509026159E+03  0.38746606187E+03  0.90432712463E+02 0.  0.
         23    2    4    4    0    0 -0.22955328743E+03  0.18265594281E+03 -0.47663504402E+03  0.56703202611E+03  0.91029930408E+02 0.  0.
          4    1    3    3  502    0 -0.85144946006E+01  0.41562782276E+02  0.87246184930E+02  0.97014732251E+02  0.00000000000E+00 0. -1.
         -3    1    3    3    0  502  0.91018863923E+02  0.75233924918E+02  0.39686322203E+03  0.41405916733E+03  0.00000000000E+00 0.  1.
         11    1    5    5    0    0  0.15591116706E+03 -0.24585513156E+03  0.15228831624E+03  0.32854949245E+03  0.00000000000E+00 0.  1.
        -11    1    5    5    0    0 -0.88622489492E+01 -0.53597518441E+02  0.22801945352E+02  0.58916569412E+02  0.00000000000E+00 0. -1.
          2    1    6    6  503    0 -0.24403052090E+02 -0.47865252851E+01 -0.17705839550E+02  0.30527307936E+02  0.00000000000E+00 0. -1.
         -2    1    6    6    0  503 -0.20515023534E+03  0.18744246809E+03 -0.45892920447E+03  0.53650471818E+03  0.00000000000E+00 0.  1.
<mgrwt>
<rscale>  0 0.14541566E+04</rscale>
<asrwt>0</asrwt>
<pdfrwt beam="1">  1        2 0.98692874E-01 0.14541566E+04</pdfrwt>
<pdfrwt beam="2">  1       -1 0.12677974E+00 0.14541566E+04</pdfrwt>
<totfact> 0.27352198E+01</totfact>
</mgrwt>
</event>
<event>
12    6  0.9491186E-008  0.1857565E+04  0.7818608E-02  0.8676272E-01
         -1   -1    0    0    0  501 -0.00000000000E+00  0.00000000000E+00  0.41541843799E+03  0.41541843799E+03  0.00000000000E+00 0.  1.
          2   -1    0    0  501    0  0.00000000000E+00 -0.00000000000E+00 -0.20765501344E+04  0.20765501344E+04  0.00000000000E+00 0. -1.
         24    2    1    2    0    0  0.15503273046E+03  0.19823951938E+03 -0.15058499507E+04  0.15288339008E+04  0.80093494021E+02 0.  0.
        254    2    1    2    0    0 -0.15503273046E+03 -0.19823951938E+03 -0.15528174576E+03  0.96313467161E+03  0.91661437940E+03 0.  0.
         23    2    4    4    0    0  0.17897766117E+02  0.28043592875E+03  0.17976860371E+03  0.34679438034E+03  0.94788982414E+02 0.  0.
         23    2    4    4    0    0 -0.17293049658E+03 -0.47867544813E+03 -0.33505034947E+03  0.61634029127E+03  0.92636260035E+02 0.  0.
          2    1    3    3  502    0  0.98845965078E+02  0.11805897453E+03 -0.68080317594E+03  0.69799814516E+03  0.00000000000E+00 0. -1.
         -1    1    3    3    0  502  0.56186765382E+02  0.80180544854E+02 -0.82504677473E+03  0.83083575566E+03  0.00000000000E+00 0.  1.
         11    1    5    5    0    0 -0.19605257170E+02  0.14494713408E+03  0.47545671092E+02  0.15380061322E+03  0.00000000000E+00 0.  1.
        -11    1    5    5    0    0  0.37503023287E+02  0.13548879467E+03  0.13222293262E+03  0.19299376712E+03  0.00000000000E+00 0. -1.
          3    1    6    6  503    0 -0.17585516538E+03 -0.46384258531E+03 -0.30398634411E+03  0.58179264394E+03  0.00000000000E+00 0. -1.
         -3    1    6    6    0  503  0.29246688080E+01 -0.14832862827E+02 -0.31064005358E+02  0.34547647331E+02  0.00000000000E+00 0.  1.
<mgrwt>
<rscale>  0 0.18575653E+04</rscale>
<asrwt>0</asrwt>
<pdfrwt beam="1">  1        2 0.31946926E+00 0.18575653E+04</pdfrwt>
<pdfrwt beam="2">  1       -1 0.63910527E-01 0.18575653E+04</pdfrwt>
<totfact> 0.16090477E+01</totfact>
</mgrwt>
</event>
<event>
12    6  0.9491186E-008  0.1472418E+04  0.7818608E-02  0.8903005E-01
          2   -1    0    0  501    0  0.00000000000E+00  0.00000000000E+00  0.14065678333E+04  0.14065678333E+04  0.00000000000E+00 0. -1.
         -1   -1    0    0    0  501 -0.00000000000E+00 -0.00000000000E+00 -0.38533785482E+03  0.38533785482E+03  0.00000000000E+00 0.  1.
         24    2    1    2    0    0 -0.11111686534E+03  0.24600976446E+03 -0.13092722797E+03  0.30981125459E+03  0.77287207723E+02 0.  0.
        254    2    1    2    0    0  0.11111686534E+03 -0.24600976446E+03  0.11521572065E+04  0.14820944336E+04  0.89233957637E+03 0.  0.
         23    2    4    4    0    0  0.38993961565E+03 -0.42261233990E+03  0.81459002590E+03  0.10012918196E+04  0.91511223328E+02 0.  0.
         23    2    4    4    0    0 -0.27882275031E+03  0.17660257544E+03  0.33756718059E+03  0.48080261397E+03  0.91043706261E+02 0.  0.
          2    1    3    3  502    0 -0.53791911042E+02  0.13117228853E+03 -0.11070888347E+03  0.17987828065E+03  0.00000000000E+00 0. -1.
         -1    1    3    3    0  502 -0.57324954299E+02  0.11483747593E+03 -0.20218344500E+02  0.12993297394E+03  0.00000000000E+00 0.  1.
         11    1    5    5    0    0  0.36538547345E+02 -0.17791799954E+02  0.93847952689E+02  0.10226950578E+03  0.00000000000E+00 0.  1.
        -11    1    5    5    0    0  0.35340106830E+03 -0.40482053995E+03  0.72074207321E+03  0.89902231381E+03  0.00000000000E+00 0. -1.
          4    1    6    6  503    0 -0.23664591367E+03  0.18319239949E+03  0.30297914769E+03  0.42586043209E+03  0.00000000000E+00 0. -1.
         -4    1    6    6    0  503 -0.42176836638E+02 -0.65898240494E+01  0.34588032905E+02  0.54942181883E+02  0.00000000000E+00 0.  1.
<mgrwt>
<rscale>  0 0.14724182E+04</rscale>
<asrwt>0</asrwt>
<pdfrwt beam="1">  1        2 0.21639505E+00 0.14724182E+04</pdfrwt>
<pdfrwt beam="2">  1       -1 0.59282747E-01 0.14724182E+04</pdfrwt>
<totfact> 0.45656092E+01</totfact>
</mgrwt>
</event>
<event>
12    6  0.9491186E-008  0.1546393E+04  0.7818608E-02  0.8854175E-01
          2   -1    0    0  501    0  0.00000000000E+00  0.00000000000E+00  0.17872169687E+04  0.17872169687E+04  0.00000000000E+00 0. -1.
         -1   -1    0    0    0  501 -0.00000000000E+00 -0.00000000000E+00 -0.33450479015E+03  0.33450479015E+03  0.00000000000E+00 0.  1.
         24    2    1    2    0    0  0.59963214842E+02  0.50549640671E+03  0.49753995937E+03  0.71613212329E+03  0.78593908866E+02 0.  0.
        254    2    1    2    0    0 -0.59963214842E+02 -0.50549640671E+03  0.95517221917E+03  0.14055896355E+04  0.89677536259E+03 0.  0.
         23    2    4    4    0    0 -0.42444415095E+03 -0.76015193657E+02  0.56090755595E+03  0.71352295004E+03  0.92555750611E+02 0.  0.
         23    2    4    4    0    0  0.36448093610E+03 -0.42948121306E+03  0.39426466322E+03  0.69206668551E+03  0.78811213488E+02 0.  0.
          4    1    3    3  502    0  0.48091956681E+02  0.46071322191E+03  0.47867825109E+03  0.66610988373E+03  0.00000000000E+00 0. -1.
         -3    1    3    3    0  502  0.11871258160E+02  0.44783184806E+02  0.18861708278E+02  0.50022239563E+02  0.00000000000E+00 0.  1.
         11    1    5    5    0    0 -0.30250770805E+03 -0.91684956599E+02  0.37235278419E+03  0.48842977037E+03  0.00000000000E+00 0.  1.
        -11    1    5    5    0    0 -0.12193644290E+03  0.15669762942E+02  0.18855477176E+03  0.22509317966E+03  0.00000000000E+00 0. -1.
          4    1    6    6  503    0  0.12348632922E+03 -0.19471881219E+03  0.18733419462E+03  0.29708313617E+03  0.00000000000E+00 0. -1.
         -4    1    6    6    0  503  0.24099460689E+03 -0.23476240086E+03  0.20693046860E+03  0.39498354934E+03  0.00000000000E+00 0.  1.
<mgrwt>
<rscale>  0 0.15463928E+04</rscale>
<asrwt>0</asrwt>
<pdfrwt beam="1">  1        2 0.27495645E+00 0.15463928E+04</pdfrwt>
<pdfrwt beam="2">  1       -1 0.51462277E-01 0.15463928E+04</pdfrwt>
<totfact> 0.36543753E+01</totfact>
</mgrwt>
</event>
<event>
12    6  0.9491186E-008  0.4885582E+04  0.7818608E-02  0.7846404E-01
         -1   -1    0    0    0  501 -0.00000000000E+00  0.00000000000E+00  0.13738782490E+04  0.13738782490E+04  0.00000000000E+00 0.  1.
          2   -1    0    0  501    0  0.00000000000E+00 -0.00000000000E+00 -0.43433456842E+04  0.43433456842E+04  0.00000000000E+00 0. -1.
         24    2    1    2    0    0  0.12670289717E+04 -0.15309679568E+04  0.58263244319E+02  0.19896633224E+04  0.78359627421E+02 0.  0.
        254    2    1    2    0    0 -0.12670289717E+04  0.15309679568E+04 -0.30277306795E+04  0.37275606108E+04  0.88222998122E+03 0.  0.
         23    2    4    4    0    0 -0.49175679577E+03  0.59788675621E+03 -0.19573487057E+04  0.21074200435E+04  0.10349862012E+03 0.  0.
         23    2    4    4    0    0 -0.77527217588E+03  0.93308120061E+03 -0.10703819737E+04  0.16201405673E+04  0.86315783367E+02 0.  0.
          2    1    3    3  502    0  0.25990737814E+02 -0.17607136269E+02  0.49974170683E+01  0.31788423633E+02  0.00000000000E+00 0. -1.
         -1    1    3    3    0  502  0.12410382338E+04 -0.15133608206E+04  0.53265827251E+02  0.19578748988E+04  0.00000000000E+00 0.  1.
         11    1    5    5    0    0 -0.13510255538E+03  0.10235329306E+03 -0.47061356038E+03  0.50020597786E+03  0.00000000000E+00 0.  1.
        -11    1    5    5    0    0 -0.35665424039E+03  0.49553346316E+03 -0.14867351454E+04  0.16072140656E+04  0.00000000000E+00 0. -1.
          1    1    6    6  503    0 -0.16806479019E+03  0.15322062028E+03 -0.21662078474E+03  0.31408103502E+03  0.00000000000E+00 0. -1.
         -1    1    6    6    0  503 -0.60720738569E+03  0.77986058033E+03 -0.85376118897E+03  0.13060595323E+04  0.00000000000E+00 0.  1.
<mgrwt>
<rscale>  0 0.48855821E+04</rscale>
<asrwt>0</asrwt>
<pdfrwt beam="1">  1        2 0.66820701E+00 0.48855821E+04</pdfrwt>
<pdfrwt beam="2">  1       -1 0.21136589E+00 0.48855821E+04</pdfrwt>
<totfact> 0.18024926E-02</totfact>
</mgrwt>
</event>
<event>
12    6  0.9491186E-008  0.2140162E+04  0.7818608E-02  0.8543755E-01
          2   -1    0    0  501    0  0.00000000000E+00  0.00000000000E+00  0.11595500140E+04  0.11595500140E+04  0.00000000000E+00 0. -1.
         -1   -1    0    0    0  501 -0.00000000000E+00 -0.00000000000E+00 -0.98751571610E+03  0.98751571610E+03  0.00000000000E+00 0.  1.
         24    2    1    2    0    0  0.46757701433E+03  0.22639147928E+03 -0.64269781188E+03  0.83037564156E+03  0.81128678650E+02 0.  0.
        254    2    1    2    0    0 -0.46757701433E+03 -0.22639147928E+03  0.81473210980E+03  0.13166900886E+04  0.89442887496E+03 0.  0.
         23    2    4    4    0    0 -0.60533093264E+03  0.30514899046E+02  0.22687063653E+03  0.65417839687E+03  0.95511214717E+02 0.  0.
         23    2    4    4    0    0  0.13775391832E+03 -0.25690637832E+03  0.58786147327E+03  0.66251169169E+03  0.91452723481E+02 0.  0.
          4    1    3    3  502    0  0.20492827376E+03  0.10475241007E+03 -0.22236878394E+03  0.32002584407E+03  0.00000000000E+00 0. -1.
         -3    1    3    3    0  502  0.26264874057E+03  0.12163906921E+03 -0.42032902793E+03  0.51034979749E+03  0.00000000000E+00 0.  1.
         11    1    5    5    0    0 -0.11418340439E+03  0.43527690855E+02  0.41535160920E+02  0.12906463226E+03  0.00000000000E+00 0.  1.
        -11    1    5    5    0    0 -0.49114752825E+03 -0.13012791809E+02  0.18533547561E+03  0.52511376461E+03  0.00000000000E+00 0. -1.
          3    1    6    6  503    0  0.80778019326E+02 -0.22626757701E+03  0.47909030600E+03  0.53595673903E+03  0.00000000000E+00 0. -1.
         -3    1    6    6    0  503  0.56975898990E+02 -0.30638801309E+02  0.10877116727E+03  0.12655495265E+03  0.00000000000E+00 0.  1.
<mgrwt>
<rscale>  0 0.21401625E+04</rscale>
<asrwt>0</asrwt>
<pdfrwt beam="1">  1        2 0.17839231E+00 0.21401625E+04</pdfrwt>
<pdfrwt beam="2">  1       -1 0.15192549E+00 0.21401625E+04</pdfrwt>
<totfact> 0.70719257E+00</totfact>
</mgrwt>
</event>
<event>
12    6  0.9491186E-008  0.2387587E+04  0.7818608E-02  0.8444165E-01
          2   -1    0    0  501    0  0.00000000000E+00  0.00000000000E+00  0.26598900473E+04  0.26598900473E+04  0.00000000000E+00 0. -1.
         -1   -1    0    0    0  501 -0.00000000000E+00 -0.00000000000E+00 -0.53579014092E+03  0.53579014092E+03  0.00000000000E+00 0.  1.
         24    2    1    2    0    0 -0.44841892779E+03 -0.81865388468E+02 -0.31194012695E+03  0.55808971851E+03  0.79849949716E+02 0.  0.
        254    2    1    2    0    0  0.44841892779E+03  0.81865388468E+02  0.24360400333E+04  0.26375904697E+04  0.90266880154E+03 0.  0.
         23    2    4    4    0    0  0.68186702418E+03  0.81349666131E+02  0.12872298612E+04  0.14617988397E+04  0.91294716237E+02 0.  0.
         23    2    4    4    0    0 -0.23344809639E+03  0.51572233774E+00  0.11488101721E+04  0.11757916300E+04  0.90680020050E+02 0.  0.
          4    1    3    3  502    0 -0.50390181804E+02 -0.36061625321E+02 -0.46720244827E+02  0.77604075407E+02  0.00000000000E+00 0. -1.
         -3    1    3    3    0  502 -0.39802874599E+03 -0.45803763147E+02 -0.26521988213E+03  0.48048564310E+03  0.00000000000E+00 0.  1.
         11    1    5    5    0    0  0.10559164810E+03  0.26943149813E+02  0.27415515427E+03  0.29501962322E+03  0.00000000000E+00 0. -1.
        -11    1    5    5    0    0  0.57627537609E+03  0.54406516318E+02  0.10130747070E+04  0.11667792165E+04  0.00000000000E+00 0.  1.
          4    1    6    6  503    0 -0.84577482592E+02  0.42933811517E+02  0.39189930637E+03  0.40321424710E+03  0.00000000000E+00 0. -1.
         -4    1    6    6    0  503 -0.14887061380E+03 -0.42418089179E+02  0.75691086569E+03  0.77257738288E+03  0.00000000000E+00 0.  1.
<mgrwt>
<rscale>  0 0.23875870E+04</rscale>
<asrwt>0</asrwt>
<pdfrwt beam="1">  1        2 0.40921385E+00 0.23875870E+04</pdfrwt>
<pdfrwt beam="2">  1       -1 0.82429254E-01 0.23875870E+04</pdfrwt>
<totfact> 0.42027988E+00</totfact>
</mgrwt>
</event>
<event>
12    6  0.1418314E-007  0.2110790E+04  0.7818608E-02  0.8556505E-01
         -1   -1    0    0    0  501 -0.00000000000E+00  0.00000000000E+00  0.63524530595E+03  0.63524530595E+03  0.00000000000E+00 0.  1.
          2   -1    0    0  501    0  0.00000000000E+00 -0.00000000000E+00 -0.17534313313E+04  0.17534313313E+04  0.00000000000E+00 0. -1.
         24    2    1    2    0    0 -0.62321571167E+03 -0.53820963617E+03 -0.16867257719E+03  0.84422704658E+03  0.78749172350E+02 0.  0.
        254    2    1    2    0    0  0.62321571167E+03  0.53820963617E+03 -0.94951344812E+03  0.15444495906E+04  0.89759752344E+03 0.  0.
         23    2    4    4    0    0  0.51708165422E+03 -0.12480611155E+03 -0.39087269939E+03  0.66606556321E+03  0.88948663624E+02 0.  0.
         23    2    4    4    0    0  0.10613405745E+03  0.66301574771E+03 -0.55864074874E+03  0.87838402742E+03  0.92869228512E+02 0.  0.
          4    1    3    3  502    0 -0.65408759407E+01  0.20590621298E+01  0.11659601690E+01  0.69557356219E+01  0.00000000000E+00 0. -1.
         -3    1    3    3    0  502 -0.61667483573E+03 -0.54026869830E+03 -0.16983853736E+03  0.83727131096E+03  0.00000000000E+00 0.  1.
         11    1    5    5    0    0  0.17417778654E+03 -0.16620716379E+02 -0.17071332293E+03  0.24445283423E+03  0.00000000000E+00 0. -1.
        -11    1    5    5    0    0  0.34290386768E+03 -0.10818539517E+03 -0.22015937645E+03  0.42161272898E+03  0.00000000000E+00 0.  1.
          2    1    6    6  503    0 -0.13669585743E+02  0.84826437622E+02 -0.52636967862E+02  0.10076225722E+03  0.00000000000E+00 0. -1.
         -2    1    6    6    0  503  0.11980364320E+03  0.57818931009E+03 -0.50600378088E+03  0.77762177020E+03  0.00000000000E+00 0.  1.
<mgrwt>
<rscale>  0 0.21107904E+04</rscale>
<asrwt>0</asrwt>
<pdfrwt beam="1">  1        2 0.26975866E+00 0.21107904E+04</pdfrwt>
<pdfrwt beam="2">  1       -1 0.97730049E-01 0.21107904E+04</pdfrwt>
<totfact> 0.96437993E+00</totfact>
</mgrwt>
</event>
<event>
12    6  0.9491186E-008  0.2681317E+04  0.7818608E-02  0.8341092E-01
          2   -1    0    0  501    0  0.00000000000E+00  0.00000000000E+00  0.22608885876E+04  0.22608885876E+04  0.00000000000E+00 0. -1.
         -1   -1    0    0    0  501 -0.00000000000E+00 -0.00000000000E+00 -0.79498205527E+03  0.79498205527E+03  0.00000000000E+00 0.  1.
         24    2    1    2    0    0 -0.56821402168E+03  0.11420029968E+03 -0.52975902796E+03  0.78864318246E+03  0.73515703407E+02 0.  0.
        254    2    1    2    0    0  0.56821402168E+03 -0.11420029968E+03  0.19956655603E+04  0.22672274604E+04  0.90649348915E+03 0.  0.
         23    2    4    4    0    0  0.48197999873E+03  0.28839864201E+03  0.15616532303E+04  0.16618515951E+04  0.86668428099E+02 0.  0.
         23    2    4    4    0    0  0.86234022948E+02 -0.40259894168E+03  0.43401232998E+03  0.60537586534E+03  0.92687761916E+02 0.  0.
          2    1    3    3  502    0 -0.90495816949E+00  0.12969644916E+01  0.22531686540E+01  0.27527867996E+01  0.00000000000E+00 0. -1.
         -1    1    3    3    0  502 -0.56730906351E+03  0.11290333519E+03 -0.53201219661E+03  0.78589039566E+03  0.00000000000E+00 0.  1.
         11    1    5    5    0    0  0.12426901786E+03  0.79368907111E+02  0.30725982252E+03  0.34080905321E+03  0.00000000000E+00 0. -1.
        -11    1    5    5    0    0  0.35771098087E+03  0.20902973489E+03  0.12543934078E+04  0.13210425419E+04  0.00000000000E+00 0.  1.
          2    1    6    6  503    0  0.16360528789E+02 -0.16072720997E+03  0.23136123265E+03  0.28218597219E+03  0.00000000000E+00 0. -1.
         -2    1    6    6    0  503  0.69873494159E+02 -0.24187173171E+03  0.20265109732E+03  0.32318989315E+03  0.00000000000E+00 0.  1.
<mgrwt>
<rscale>  0 0.26813175E+04</rscale>
<asrwt>0</asrwt>
<pdfrwt beam="1">  1        2 0.34782901E+00 0.26813175E+04</pdfrwt>
<pdfrwt beam="2">  1       -1 0.12230493E+00 0.26813175E+04</pdfrwt>
<totfact> 0.28159148E+00</totfact>
</mgrwt>
</event>
<event>
12    6  0.9491186E-008  0.1762026E+04  0.7818608E-02  0.8726758E-01
         -1   -1    0    0    0  501 -0.00000000000E+00  0.00000000000E+00  0.49954300340E+03  0.49954300340E+03  0.00000000000E+00 0.  1.
          2   -1    0    0  501    0  0.00000000000E+00 -0.00000000000E+00 -0.15537876437E+04  0.15537876437E+04  0.00000000000E+00 0. -1.
         24    2    1    2    0    0 -0.26328851560E+03 -0.50724536215E+03 -0.74588175994E+03  0.94293057117E+03  0.78484153572E+02 0.  0.
        254    2    1    2    0    0  0.26328851560E+03  0.50724536215E+03 -0.30836288036E+03  0.11104000759E+04  0.90071191998E+03 0.  0.
         23    2    4    4    0    0  0.19436237709E+03 -0.53461508867E+02  0.23397236921E+03  0.32160211688E+03  0.89721711228E+02 0.  0.
         23    2    4    4    0    0  0.68926138510E+02  0.56070687102E+03 -0.54233524957E+03  0.78879795906E+03  0.94507616172E+02 0.  0.
          2    1    3    3  502    0 -0.24391803634E+03 -0.47312199393E+03 -0.72195674943E+03  0.89697378871E+03  0.00000000000E+00 0. -1.
         -1    1    3    3    0  502 -0.19370479262E+02 -0.34123368224E+02 -0.23925010508E+02  0.45956782455E+02  0.00000000000E+00 0.  1.
         11    1    5    5    0    0  0.43831223564E+02 -0.49872108012E+02  0.10012045977E+03  0.12013538106E+03  0.00000000000E+00 0. -1.
        -11    1    5    5    0    0  0.15053115353E+03 -0.35894008547E+01  0.13385190944E+03  0.20146673582E+03  0.00000000000E+00 0.  1.
          3    1    6    6  503    0  0.19952172858E+01  0.11308282323E+03 -0.62645101291E+02  0.12929081374E+03  0.00000000000E+00 0. -1.
         -3    1    6    6    0  503  0.66930921224E+02  0.44762404779E+03 -0.47969014828E+03  0.65950714532E+03  0.00000000000E+00 0.  1.
<mgrwt>
<rscale>  0 0.17620258E+04</rscale>
<asrwt>0</asrwt>
<pdfrwt beam="1">  1        2 0.23904425E+00 0.17620258E+04</pdfrwt>
<pdfrwt beam="2">  1       -1 0.76852770E-01 0.17620258E+04</pdfrwt>
<totfact> 0.21692587E+01</totfact>
</mgrwt>
</event>
<event>
12    6  0.9491186E-008  0.1543160E+04  0.7818608E-02  0.8856249E-01
          2   -1    0    0  501    0  0.00000000000E+00  0.00000000000E+00  0.85373910444E+03  0.85373910444E+03  0.00000000000E+00 0. -1.
         -1   -1    0    0    0  501 -0.00000000000E+00 -0.00000000000E+00 -0.69732733887E+03  0.69732733887E+03  0.00000000000E+00 0.  1.
         24    2    1    2    0    0 -0.47243120292E+03 -0.24280854766E+01 -0.14383446329E+03  0.50029743451E+03  0.80075171283E+02 0.  0.
        254    2    1    2    0    0  0.47243120292E+03  0.24280854766E+01  0.30024622886E+03  0.10507690088E+04  0.88925281828E+03 0.  0.
         23    2    4    4    0    0  0.38129234067E+03 -0.26441176036E+03 -0.16331626644E+03  0.50074720355E+03  0.93691680061E+02 0.  0.
         23    2    4    4    0    0  0.91138862253E+02  0.26683984583E+03  0.46356249530E+03  0.55002180525E+03  0.90133255010E+02 0.  0.
          4    1    3    3  502    0 -0.26181229291E+03 -0.23767955541E+02 -0.11386726820E+03  0.28648969824E+03  0.00000000000E+00 0. -1.
         -3    1    3    3    0  502 -0.21061891001E+03  0.21339870064E+02 -0.29967195091E+02  0.21380773627E+03  0.00000000000E+00 0.  1.
         11    1    5    5    0    0  0.16871345137E+03 -0.16496208066E+03 -0.55094862975E+02  0.24230592369E+03  0.00000000000E+00 0. -1.
        -11    1    5    5    0    0  0.21257888930E+03 -0.99449679692E+02 -0.10822140347E+03  0.25844127986E+03  0.00000000000E+00 0.  1.
          4    1    6    6  503    0 -0.86013676736E+01  0.13882035063E+02  0.68555729489E+02  0.70473984342E+02  0.00000000000E+00 0. -1.
         -4    1    6    6    0  503  0.99740229927E+02  0.25295781077E+03  0.39500676581E+03  0.47954782090E+03  0.00000000000E+00 0.  1.
<mgrwt>
<rscale>  0 0.15431599E+04</rscale>
<asrwt>0</asrwt>
<pdfrwt beam="1">  1        2 0.13134448E+00 0.15431599E+04</pdfrwt>
<pdfrwt beam="2">  1       -1 0.10728113E+00 0.15431599E+04</pdfrwt>
<totfact> 0.28086572E+01</totfact>
</mgrwt>
</event>
<event>
12    6  0.9491186E-008  0.1264269E+04  0.7818608E-02  0.9058390E-01
          2   -1    0    0  501    0  0.00000000000E+00  0.00000000000E+00  0.21999775908E+04  0.21999775908E+04  0.00000000000E+00 0. -1.
         -1   -1    0    0    0  501 -0.00000000000E+00 -0.00000000000E+00 -0.18163549611E+03  0.18163549611E+03  0.00000000000E+00 0.  1.
         24    2    1    2    0    0  0.19580311964E+03  0.19207881955E+03  0.70089825209E+03  0.75676523700E+03  0.78753600372E+02 0.  0.
        254    2    1    2    0    0 -0.19580311964E+03 -0.19207881955E+03  0.13174438426E+04  0.16248478499E+04  0.91062567633E+03 0.  0.
         23    2    4    4    0    0  0.30671078704E+03  0.10244011070E+03  0.30820484695E+03  0.45603229174E+03  0.91704635979E+02 0.  0.
         23    2    4    4    0    0 -0.50251390667E+03 -0.29451893025E+03  0.10092389957E+04  0.11688155582E+04  0.91130851093E+02 0.  0.
          4    1    3    3  502    0  0.11517112642E+03  0.13908258058E+03  0.53729237541E+03  0.56682576622E+03  0.00000000000E+00 0. -1.
         -3    1    3    3    0  502  0.80631993216E+02  0.52996238966E+02  0.16360587668E+03  0.18993947078E+03  0.00000000000E+00 0.  1.
         11    1    5    5    0    0  0.90213166859E+01  0.25021265488E+02  0.39395000862E+02  0.47533293324E+02  0.00000000000E+00 0. -1.
        -11    1    5    5    0    0  0.29768947035E+03  0.77418845215E+02  0.26880984609E+03  0.40849899841E+03  0.00000000000E+00 0.  1.
          4    1    6    6  503    0 -0.14166289614E+03 -0.63155707703E+02  0.20038569319E+03  0.25339977426E+03  0.00000000000E+00 0. -1.
         -4    1    6    6    0  503 -0.36085101054E+03 -0.23136322255E+03  0.80885330249E+03  0.91541578394E+03  0.00000000000E+00 0.  1.
<mgrwt>
<rscale>  0 0.12642690E+04</rscale>
<asrwt>0</asrwt>
<pdfrwt beam="1">  1        2 0.33845807E+00 0.12642690E+04</pdfrwt>
<pdfrwt beam="2">  1       -1 0.27943924E-01 0.12642690E+04</pdfrwt>
<totfact> 0.66932067E+01</totfact>
</mgrwt>
</event>
<event>
12    6  0.9491186E-008  0.1866470E+04  0.7818608E-02  0.8671729E-01
         -1   -1    0    0    0  501 -0.00000000000E+00  0.00000000000E+00  0.63321398167E+03  0.63321398167E+03  0.00000000000E+00 0.  1.
          2   -1    0    0  501    0  0.00000000000E+00 -0.00000000000E+00 -0.13754078075E+04  0.13754078075E+04  0.00000000000E+00 0. -1.
         24    2    1    2    0    0 -0.24558492756E+03  0.57391191571E+03 -0.66125787294E+03  0.91285024740E+03  0.79666530169E+02 0.  0.
        254    2    1    2    0    0  0.24558492756E+03 -0.57391191571E+03 -0.80935952873E+02  0.10957715418E+04  0.89692686414E+03 0.  0.
         23    2    4    4    0    0  0.35495937194E+03 -0.53841700454E+03  0.27946482558E+03  0.70751749435E+03  0.81187373210E+02 0.  0.
         23    2    4    4    0    0 -0.10937444438E+03 -0.35494911170E+02 -0.36040077846E+03  0.38825404741E+03  0.87348877578E+02 0.  0.
          2    1    3    3  502    0 -0.15196591295E+03  0.43541085292E+03 -0.50724682849E+03  0.68554766031E+03  0.00000000000E+00 0. -1.
         -1    1    3    3    0  502 -0.93619014605E+02  0.13850106278E+03 -0.15401104445E+03  0.22730258710E+03  0.00000000000E+00 0.  1.
         11    1    5    5    0    0  0.22120568404E+03 -0.28320311895E+03  0.18573782285E+03  0.40451761404E+03  0.00000000000E+00 0.  1.
        -11    1    5    5    0    0  0.13375368789E+03 -0.25521388559E+03  0.93727002735E+02  0.30299988030E+03  0.00000000000E+00 0. -1.
          3    1    6    6  503    0  0.13331427613E+02 -0.61814327864E+00 -0.67075116804E+02  0.68389914151E+02  0.00000000000E+00 0. -1.
         -3    1    6    6    0  503 -0.12270587199E+03 -0.34876767891E+02 -0.29332566165E+03  0.31986413326E+03  0.00000000000E+00 0.  1.
<mgrwt>
<rscale>  0 0.18664699E+04</rscale>
<asrwt>0</asrwt>
<pdfrwt beam="1">  1        2 0.21160120E+00 0.18664699E+04</pdfrwt>
<pdfrwt beam="2">  1       -1 0.97417535E-01 0.18664699E+04</pdfrwt>
<totfact> 0.16187457E+01</totfact>
</mgrwt>
</event>
<event>
12    6  0.9491186E-008  0.3298877E+04  0.7818608E-02  0.8163181E-01
         -1   -1    0    0    0  501 -0.00000000000E+00  0.00000000000E+00  0.14154810350E+04  0.14154810350E+04  0.00000000000E+00 0.  1.
          2   -1    0    0  501    0  0.00000000000E+00 -0.00000000000E+00 -0.19220654497E+04  0.19220654497E+04  0.00000000000E+00 0. -1.
         24    2    1    2    0    0 -0.14616224601E+04  0.42853159134E+03 -0.30302498845E+03  0.15549969331E+04  0.78814831667E+02 0.  0.
        254    2    1    2    0    0  0.14616224601E+04 -0.42853159134E+03 -0.20355942627E+03  0.17825495516E+04  0.90336422526E+03 0.  0.
         23    2    4    4    0    0  0.13693016407E+04 -0.62743643095E+03 -0.27775694312E+03  0.15338122648E+04  0.82265947073E+02 0.  0.
         23    2    4    4    0    0  0.92320819335E+02  0.19890483961E+03  0.74197516850E+02  0.24873728683E+03  0.90987347749E+02 0.  0.
          2    1    3    3  502    0 -0.32122706454E+02  0.14560093926E+02 -0.18435906072E+02  0.39796321912E+02  0.00000000000E+00 0. -1.
         -1    1    3    3    0  502 -0.14294997536E+04  0.41397149742E+03 -0.28458908238E+03  0.15152006112E+04  0.00000000000E+00 0.  1.
         11    1    5    5    0    0  0.59104309711E+03 -0.29232238411E+03 -0.15802472338E+03  0.67805319267E+03  0.00000000000E+00 0.  1.
        -11    1    5    5    0    0  0.77825854363E+03 -0.33511404684E+03 -0.11973221974E+03  0.85575907215E+03  0.00000000000E+00 0. -1.
          4    1    6    6  503    0  0.10076283403E+02 -0.80255965572E+01  0.11837213255E+02  0.17494607883E+02  0.00000000000E+00 0. -1.
         -4    1    6    6    0  503  0.82244535932E+02  0.20693043616E+03  0.62360303595E+02  0.23124267895E+03  0.00000000000E+00 0.  1.
<mgrwt>
<rscale>  0 0.32988769E+04</rscale>
<asrwt>0</asrwt>
<pdfrwt beam="1">  1        2 0.29570238E+00 0.32988769E+04</pdfrwt>
<pdfrwt beam="2">  1       -1 0.21776631E+00 0.32988769E+04</pdfrwt>
<totfact> 0.79913797E-01</totfact>
</mgrwt>
</event>
<event>
12    6  0.9491186E-008  0.2109910E+04  0.7818608E-02  0.8556890E-01
          4   -1    0    0  501    0  0.00000000000E+00  0.00000000000E+00  0.75656865376E+03  0.75656865376E+03  0.00000000000E+00 0. -1.
         -3   -1    0    0    0  501 -0.00000000000E+00 -0.00000000000E+00 -0.14710234050E+04  0.14710234050E+04  0.00000000000E+00 0.  1.
         24    2    1    2    0    0 -0.60914650520E+03 -0.28719080522E+03 -0.85461081219E+03  0.10912563416E+04  0.83323101846E+02 0.  0.
        254    2    1    2    0    0  0.60914650520E+03  0.28719080522E+03  0.14015606098E+03  0.11363357172E+04  0.90447615627E+03 0.  0.
         23    2    4    4    0    0  0.65914176470E+03  0.28676055258E+03 -0.22391702204E+03  0.75802980235E+03  0.88152526959E+02 0.  0.
         23    2    4    4    0    0 -0.49995259501E+02  0.43025264302E+00  0.36407308302E+03  0.37830591481E+03  0.89813386041E+02 0.  0.
          4    1    3    3  502    0 -0.43388614750E+02 -0.12463357437E+01 -0.39735968615E+02  0.58847875446E+02  0.00000000000E+00 0. -1.
         -3    1    3    3    0  502 -0.56575789045E+03 -0.28594446948E+03 -0.81487484358E+03  0.10324084661E+04  0.00000000000E+00 0.  1.
         11    1    5    5    0    0  0.11065283150E+03  0.26215862647E+02 -0.62302010570E+02  0.12966441722E+03  0.00000000000E+00 0. -1.
        -11    1    5    5    0    0  0.54848893321E+03  0.26054468993E+03 -0.16161501147E+03  0.62836538513E+03  0.00000000000E+00 0.  1.
          3    1    6    6  503    0 -0.49075935782E+01  0.22805857967E+02  0.20470078248E+02  0.31035717098E+02  0.00000000000E+00 0. -1.
         -3    1    6    6    0  503 -0.45087665923E+02 -0.22375605324E+02  0.34360300477E+03  0.34727019771E+03  0.00000000000E+00 0.  1.
<mgrwt>
<rscale>  0 0.21099101E+04</rscale>
<asrwt>0</asrwt>
<pdfrwt beam="1">  1        4 0.11639518E+00 0.21099101E+04</pdfrwt>
<pdfrwt beam="2">  1       -3 0.22631129E+00 0.21099101E+04</pdfrwt>
<totfact> 0.12126668E-01</totfact>
</mgrwt>
</event>
<event>
12    6  0.9491186E-008  0.1434558E+04  0.7818608E-02  0.8929177E-01
         -1   -1    0    0    0  501 -0.00000000000E+00  0.00000000000E+00  0.13691198950E+04  0.13691198950E+04  0.00000000000E+00 0.  1.
          2   -1    0    0  501    0  0.00000000000E+00 -0.00000000000E+00 -0.37578075978E+03  0.37578075978E+03  0.00000000000E+00 0. -1.
         24    2    1    2    0    0 -0.21391162618E+03 -0.17130817390E+02  0.70062870756E+03  0.73711275626E+03  0.80018628148E+02 0.  0.
        254    2    1    2    0    0  0.21391162618E+03  0.17130817390E+02  0.29271042769E+03  0.10077878986E+04  0.94016243558E+03 0.  0.
         23    2    4    4    0    0 -0.34312192664E+03  0.81727653295E+02  0.24122575419E+03  0.43726611115E+03  0.92734684028E+02 0.  0.
         23    2    4    4    0    0  0.55703355282E+03 -0.64596835905E+02  0.51484673496E+02  0.57052178741E+03  0.91571328042E+02 0.  0.
          4    1    3    3  502    0  0.86016902913E+00  0.11479556363E+02  0.51770731810E+02  0.53035165477E+02  0.00000000000E+00 0. -1.
         -3    1    3    3    0  502 -0.21477179521E+03 -0.28610373753E+02  0.64885797575E+03  0.68407759078E+03  0.00000000000E+00 0.  1.
         11    1    5    5    0    0 -0.31233865564E+03  0.48986979158E+02  0.22993848159E+03  0.39093076785E+03  0.00000000000E+00 0. -1.
        -11    1    5    5    0    0 -0.30783270998E+02  0.32740674137E+02  0.11287272607E+02  0.46335343305E+02  0.00000000000E+00 0.  1.
          2    1    6    6  503    0  0.55981519605E+03 -0.60723219024E+02  0.52816341176E+02  0.56557044561E+03  0.00000000000E+00 0. -1.
         -2    1    6    6    0  503 -0.27816432226E+01 -0.38736168811E+01 -0.13316676805E+01  0.49513417950E+01  0.00000000000E+00 0.  1.
<mgrwt>
<rscale>  0 0.14345577E+04</rscale>
<asrwt>0</asrwt>
<pdfrwt beam="1">  1        2 0.57812425E-01 0.14345577E+04</pdfrwt>
<pdfrwt beam="2">  1       -1 0.21063383E+00 0.14345577E+04</pdfrwt>
<totfact> 0.12066669E+01</totfact>
</mgrwt>
</event>
<event>
12    6  0.9491186E-008  0.2551979E+04  0.7818608E-02  0.8384698E-01
         -1   -1    0    0    0  501 -0.00000000000E+00  0.00000000000E+00  0.11998160816E+04  0.11998160816E+04  0.00000000000E+00 0.  1.
          2   -1    0    0  501    0  0.00000000000E+00 -0.00000000000E+00 -0.13569993649E+04  0.13569993649E+04  0.00000000000E+00 0. -1.
         24    2    1    2    0    0  0.81137302687E+03 -0.39730121272E+03 -0.74670887118E+03  0.11746997585E+04  0.78555344091E+02 0.  0.
        254    2    1    2    0    0 -0.81137302687E+03  0.39730121272E+03  0.58952558786E+03  0.13821156880E+04  0.86401904716E+03 0.  0.
         23    2    4    4    0    0 -0.81348754189E+03  0.36204873881E+03  0.12105066772E+03  0.90367421565E+03  0.95564396080E+02 0.  0.
         23    2    4    4    0    0  0.21145150201E+01  0.35252473914E+02  0.46847492014E+03  0.47844147233E+03  0.90500185367E+02 0.  0.
          2    1    3    3  502    0  0.60881296075E+03 -0.31804117268E+03 -0.52924999867E+03  0.86712684758E+03  0.00000000000E+00 0. -1.
         -1    1    3    3    0  502  0.20256006612E+03 -0.79260040047E+02 -0.21745887250E+03  0.30757291097E+03  0.00000000000E+00 0.  1.
         11    1    5    5    0    0 -0.23269564738E+03  0.15139937860E+03  0.31158471435E+02  0.27935620002E+03  0.00000000000E+00 0. -1.
        -11    1    5    5    0    0 -0.58079189451E+03  0.21064936021E+03  0.89892196284E+02  0.62431801563E+03  0.00000000000E+00 0.  1.
          3    1    6    6  503    0  0.29171581269E+02 -0.17931098992E+02  0.11588677798E+03  0.12083977315E+03  0.00000000000E+00 0. -1.
         -3    1    6    6    0  503 -0.27057066249E+02  0.53183572907E+02  0.35258814216E+03  0.35760169918E+03  0.00000000000E+00 0.  1.
<mgrwt>
<rscale>  0 0.25519794E+04</rscale>
<asrwt>0</asrwt>
<pdfrwt beam="1">  1        2 0.20876913E+00 0.25519794E+04</pdfrwt>
<pdfrwt beam="2">  1       -1 0.18458709E+00 0.25519794E+04</pdfrwt>
<totfact> 0.29909561E+00</totfact>
</mgrwt>
</event>
<event>
12    6  0.9491186E-008  0.1525934E+04  0.7818608E-02  0.8867388E-01
          2   -1    0    0  501    0  0.00000000000E+00  0.00000000000E+00  0.16283879794E+04  0.16283879794E+04  0.00000000000E+00 0. -1.
         -1   -1    0    0    0  501 -0.00000000000E+00 -0.00000000000E+00 -0.35748141426E+03  0.35748141426E+03  0.00000000000E+00 0.  1.
         24    2    1    2    0    0 -0.17706535171E+02  0.41898779562E+03  0.74401567525E+03  0.85778629995E+03  0.79835562942E+02 0.  0.
        254    2    1    2    0    0  0.17706535171E+02 -0.41898779562E+03  0.52689088990E+03  0.11280830937E+04  0.90503765790E+03 0.  0.
         23    2    4    4    0    0  0.26108387705E+03 -0.18901232446E+03  0.67282668167E+03  0.75178905323E+03  0.92739351648E+02 0.  0.
         23    2    4    4    0    0 -0.24337734187E+03 -0.22997547116E+03 -0.14593579177E+03  0.37629404049E+03  0.90436174803E+02 0.  0.
          4    1    3    3  502    0  0.15497989217E+02  0.95767875569E+02  0.23082434642E+03  0.25038281203E+03  0.00000000000E+00 0. -1.
         -3    1    3    3    0  502 -0.33204524389E+02  0.32321992005E+03  0.51319132883E+03  0.60740348792E+03  0.00000000000E+00 0.  1.
         11    1    5    5    0    0  0.66928289320E+02 -0.47278695637E+01  0.11737091005E+03  0.13519496732E+03  0.00000000000E+00 0.  1.
        -11    1    5    5    0    0  0.19415558773E+03 -0.18428445489E+03  0.55545577162E+03  0.61659408592E+03  0.00000000000E+00 0. -1.
          2    1    6    6  503    0 -0.50004032252E+02 -0.83357103995E+02 -0.77035751693E+02  0.12402950079E+03  0.00000000000E+00 0. -1.
         -2    1    6    6    0  503 -0.19337330962E+03 -0.14661836717E+03 -0.68900040076E+02  0.25226453969E+03  0.00000000000E+00 0.  1.
<mgrwt>
<rscale>  0 0.15259337E+04</rscale>
<asrwt>0</asrwt>
<pdfrwt beam="1">  1        2 0.25052122E+00 0.15259337E+04</pdfrwt>
<pdfrwt beam="2">  1       -1 0.54997142E-01 0.15259337E+04</pdfrwt>
<totfact> 0.39467001E+01</totfact>
</mgrwt>
</event>
<event>
12    6  0.9491186E-008  0.1529206E+04  0.7818608E-02  0.8865260E-01
         -1   -1    0    0    0  501 -0.00000000000E+00  0.00000000000E+00  0.53015744019E+03  0.53015744019E+03  0.00000000000E+00 0.  1.
          2   -1    0    0  501    0  0.00000000000E+00 -0.00000000000E+00 -0.11027243506E+04  0.11027243506E+04  0.00000000000E+00 0. -1.
         24    2    1    2    0    0  0.28752741418E+03  0.30759185803E+03 -0.45459022669E+03  0.62470786565E+03  0.79516527669E+02 0.  0.
        254    2    1    2    0    0 -0.28752741418E+03 -0.30759185803E+03 -0.11797668376E+03  0.10081739252E+04  0.90841147090E+03 0.  0.
         23    2    4    4    0    0 -0.30727644707E+03  0.12183193478E+03  0.25942455167E+03  0.42947445448E+03  0.88799627193E+02 0.  0.
         23    2    4    4    0    0  0.19749032891E+02 -0.42942379281E+03 -0.37740123543E+03  0.57869947069E+03  0.87558932923E+02 0.  0.
          4    1    3    3  502    0  0.25361926733E+03  0.24858070979E+03 -0.41407231965E+03  0.54550067639E+03  0.00000000000E+00 0. -1.
         -3    1    3    3    0  502  0.33908146844E+02  0.59011148246E+02 -0.40517907037E+02  0.79207189259E+02  0.00000000000E+00 0.  1.
         11    1    5    5    0    0 -0.17982886603E+03  0.11623757929E+03  0.15045108325E+03  0.26169662655E+03  0.00000000000E+00 0. -1.
        -11    1    5    5    0    0 -0.12744758104E+03  0.55943554864E+01  0.10897346842E+03  0.16777782793E+03  0.00000000000E+00 0.  1.
          3    1    6    6  503    0 -0.21607628391E+02 -0.33193029828E+03 -0.29305774681E+03  0.44331417244E+03  0.00000000000E+00 0. -1.
         -3    1    6    6    0  503  0.41356661282E+02 -0.97493494534E+02 -0.84343488623E+02  0.13538529825E+03  0.00000000000E+00 0.  1.
<mgrwt>
<rscale>  0 0.15292057E+04</rscale>
<asrwt>0</asrwt>
<pdfrwt beam="1">  1        2 0.16964990E+00 0.15292057E+04</pdfrwt>
<pdfrwt beam="2">  1       -1 0.81562684E-01 0.15292057E+04</pdfrwt>
<totfact> 0.35721547E+01</totfact>
</mgrwt>
</event>
<event>
12    6  0.9491186E-008  0.2084361E+04  0.7818608E-02  0.8568164E-01
          2   -1    0    0  501    0  0.00000000000E+00  0.00000000000E+00  0.93568163805E+03  0.93568163805E+03  0.00000000000E+00 0. -1.
         -1   -1    0    0    0  501 -0.00000000000E+00 -0.00000000000E+00 -0.11608009979E+04  0.11608009979E+04  0.00000000000E+00 0.  1.
         24    2    1    2    0    0  0.19715663008E+03 -0.54970873065E+03 -0.70653424667E+03  0.92014997992E+03  0.80217943658E+02 0.  0.
        254    2    1    2    0    0 -0.19715663008E+03  0.54970873065E+03  0.48141488684E+03  0.11763326560E+04  0.90052640107E+03 0.  0.
         23    2    4    4    0    0  0.23307248883E+03 -0.21126896973E+01  0.39259613026E+03  0.46518102799E+03  0.89075354614E+02 0.  0.
         23    2    4    4    0    0 -0.43022911891E+03  0.55182142035E+03  0.88818756579E+02  0.71115162804E+03  0.90795880029E+02 0.  0.
          2    1    3    3  502    0  0.82016859301E+02 -0.23860015247E+03 -0.36792286958E+03  0.44612110007E+03  0.00000000000E+00 0. -1.
         -1    1    3    3    0  502  0.11513977077E+03 -0.31110857818E+03 -0.33861137708E+03  0.47402887984E+03  0.00000000000E+00 0.  1.
         11    1    5    5    0    0  0.20629103381E+03  0.88470185828E+01  0.27390553461E+03  0.34301385141E+03  0.00000000000E+00 0. -1.
        -11    1    5    5    0    0  0.26781455022E+02 -0.10959708280E+02  0.11869059564E+03  0.12216717658E+03  0.00000000000E+00 0.  1.
          3    1    6    6  503    0 -0.38954703525E+03  0.46795256698E+03  0.10083212177E+03  0.61716579166E+03  0.00000000000E+00 0. -1.
         -3    1    6    6    0  503 -0.40682083655E+02  0.83868853376E+02 -0.12013365194E+02  0.93985836381E+02  0.00000000000E+00 0.  1.
<mgrwt>
<rscale>  0 0.20843610E+04</rscale>
<asrwt>0</asrwt>
<pdfrwt beam="1">  1        2 0.14395102E+00 0.20843610E+04</pdfrwt>
<pdfrwt beam="2">  1       -1 0.17858477E+00 0.20843610E+04</pdfrwt>
<totfact> 0.62229555E+00</totfact>
</mgrwt>
</event>
<event>
12    6  0.9491186E-008  0.3529986E+04  0.7818608E-02  0.8106720E-01
          2   -1    0    0  501    0  0.00000000000E+00  0.00000000000E+00  0.10806223320E+04  0.10806223320E+04  0.00000000000E+00 0. -1.
         -1   -1    0    0    0  501 -0.00000000000E+00 -0.00000000000E+00 -0.28827841753E+04  0.28827841753E+04  0.00000000000E+00 0.  1.
         24    2    1    2    0    0 -0.49596927887E+03 -0.15649993110E+04 -0.10283972246E+04  0.19388591094E+04  0.79783617843E+02 0.  0.
        254    2    1    2    0    0  0.49596927887E+03  0.15649993110E+04 -0.77376461871E+03  0.20245473979E+04  0.89714665033E+03 0.  0.
         23    2    4    4    0    0  0.40649734872E+03  0.98934479849E+03 -0.27685425606E+02  0.10737353970E+04  0.89988861749E+02 0.  0.
         23    2    4    4    0    0  0.89471930156E+02  0.57565451254E+03 -0.74607919310E+03  0.95081200090E+03  0.89587692112E+02 0.  0.
          4    1    3    3  502    0 -0.99564845532E+02 -0.31502557764E+03 -0.24543959533E+03  0.41157607801E+03  0.00000000000E+00 0. -1.
         -3    1    3    3    0  502 -0.39640443334E+03 -0.12499737334E+04 -0.78295762925E+03  0.15272830314E+04  0.00000000000E+00 0.  1.
         11    1    5    5    0    0  0.16837752464E+03  0.30821391314E+03 -0.26147612739E+02  0.35217964835E+03  0.00000000000E+00 0. -1.
        -11    1    5    5    0    0  0.23811982408E+03  0.68113088535E+03 -0.15378128668E+01  0.72155574869E+03  0.00000000000E+00 0.  1.
          4    1    6    6  503    0  0.41359985320E+02  0.96071866750E+02 -0.17106226968E+03  0.20050623949E+03  0.00000000000E+00 0. -1.
         -4    1    6    6    0  503  0.48111944836E+02  0.47958264579E+03 -0.57501692342E+03  0.75030576140E+03  0.00000000000E+00 0.  1.
<mgrwt>
<rscale>  0 0.35299864E+04</rscale>
<asrwt>0</asrwt>
<pdfrwt beam="1">  1        2 0.16624959E+00 0.35299864E+04</pdfrwt>
<pdfrwt beam="2">  1       -1 0.44350525E+00 0.35299864E+04</pdfrwt>
<totfact> 0.74984564E-02</totfact>
</mgrwt>
</event>
<event>
12    6  0.9491186E-008  0.2199395E+04  0.7818608E-02  0.8518680E-01
          2   -1    0    0  501    0  0.00000000000E+00  0.00000000000E+00  0.12535332286E+04  0.12535332286E+04  0.00000000000E+00 0. -1.
         -1   -1    0    0    0  501 -0.00000000000E+00 -0.00000000000E+00 -0.96474092470E+03  0.96474092470E+03  0.00000000000E+00 0.  1.
         24    2    1    2    0    0 -0.77504935333E+03 -0.21631041638E+03  0.54676585933E+03  0.97646204845E+03  0.83866148133E+02 0.  0.
        254    2    1    2    0    0  0.77504935333E+03  0.21631041638E+03 -0.25797355546E+03  0.12418121048E+04  0.90997541287E+03 0.  0.
         23    2    4    4    0    0 -0.48489549790E+02 -0.18566746448E+03  0.12283885015E+03  0.24520370267E+03  0.90619141973E+02 0.  0.
         23    2    4    4    0    0  0.82353890312E+03  0.40197788085E+03 -0.38081240561E+03  0.99660840216E+03  0.91693387598E+02 0.  0.
          2    1    3    3  502    0 -0.59783905963E+03 -0.20279285110E+03  0.42803955173E+03  0.76272822127E+03  0.00000000000E+00 0. -1.
         -1    1    3    3    0  502 -0.17721029370E+03 -0.13517565275E+02  0.11872630760E+03  0.21373382718E+03  0.00000000000E+00 0.  1.
         11    1    5    5    0    0 -0.38670238777E+02 -0.18551331163E+03  0.87870026675E+02  0.20888206660E+03  0.00000000000E+00 0.  1.
        -11    1    5    5    0    0 -0.98193110126E+01 -0.15415285257E+00  0.34968823474E+02  0.36321636073E+02  0.00000000000E+00 0. -1.
          2    1    6    6  503    0  0.32235020808E+03  0.11186445025E+03 -0.15969382778E+03  0.37672991719E+03  0.00000000000E+00 0. -1.
         -2    1    6    6    0  503  0.50118869505E+03  0.29011343061E+03 -0.22111857783E+03  0.61987848497E+03  0.00000000000E+00 0.  1.
<mgrwt>
<rscale>  0 0.21993952E+04</rscale>
<asrwt>0</asrwt>
<pdfrwt beam="1">  1        2 0.19285126E+00 0.21993952E+04</pdfrwt>
<pdfrwt beam="2">  1       -1 0.14842168E+00 0.21993952E+04</pdfrwt>
<totfact> 0.65845048E+00</totfact>
</mgrwt>
</event>
<event>
12    6  0.9491186E-008  0.1083534E+04  0.7818608E-02  0.9221391E-01
         -1   -1    0    0    0  501 -0.00000000000E+00  0.00000000000E+00  0.23993886096E+03  0.23993886096E+03  0.00000000000E+00 0.  1.
          2   -1    0    0  501    0  0.00000000000E+00 -0.00000000000E+00 -0.12232760145E+04  0.12232760145E+04  0.00000000000E+00 0. -1.
         24    2    1    2    0    0 -0.14667129594E+03 -0.29407850751E+02 -0.15080753434E+03  0.22883409149E+03  0.85116615731E+02 0.  0.
        254    2    1    2    0    0  0.14667129594E+03  0.29407850751E+02 -0.83252961918E+03  0.12343807840E+04  0.89900670869E+03 0.  0.
         23    2    4    4    0    0  0.93528405708E+02  0.39120478470E+03 -0.12018883199E+03  0.42880855766E+03  0.87422408692E+02 0.  0.
         23    2    4    4    0    0  0.53142890230E+02 -0.36179693395E+03 -0.71234078719E+03  0.80557222630E+03  0.88295110261E+02 0.  0.
          2    1    3    3  502    0 -0.17835862824E+02  0.13222797571E+02 -0.63994006030E+02  0.67736202920E+02  0.00000000000E+00 0. -1.
         -1    1    3    3    0  502 -0.12883543312E+03 -0.42630648322E+02 -0.86813528314E+02  0.16109788857E+03  0.00000000000E+00 0.  1.
         11    1    5    5    0    0 -0.21274752665E+01  0.10133512858E+03 -0.59685237144E+02  0.11762509072E+03  0.00000000000E+00 0. -1.
        -11    1    5    5    0    0  0.95655880975E+02  0.28986965612E+03 -0.60503594848E+02  0.31118346694E+03  0.00000000000E+00 0.  1.
          1    1    6    6  503    0  0.10838893788E+02 -0.26004200217E+01 -0.46758700697E+02  0.48068907765E+02  0.00000000000E+00 0. -1.
         -1    1    6    6    0  503  0.42303996442E+02 -0.35919651393E+03 -0.66558208649E+03  0.75750331854E+03  0.00000000000E+00 0.  1.
<mgrwt>
<rscale>  0 0.10835339E+04</rscale>
<asrwt>0</asrwt>
<pdfrwt beam="1">  1        2 0.18819631E+00 0.10835339E+04</pdfrwt>
<pdfrwt beam="2">  1       -1 0.36913671E-01 0.10835339E+04</pdfrwt>
<totfact> 0.14635508E+02</totfact>
</mgrwt>
</event>
<event>
12    6  0.9491186E-008  0.1745303E+04  0.7818608E-02  0.8735940E-01
         -1   -1    0    0    0  501 -0.00000000000E+00  0.00000000000E+00  0.52825320852E+03  0.52825320852E+03  0.00000000000E+00 0.  1.
          2   -1    0    0  501    0  0.00000000000E+00 -0.00000000000E+00 -0.14415821704E+04  0.14415821704E+04  0.00000000000E+00 0. -1.
         24    2    1    2    0    0 -0.62352075884E+03  0.75086304852E+01 -0.17944937085E+03  0.65385000397E+03  0.80518536751E+02 0.  0.
        254    2    1    2    0    0  0.62352075884E+03 -0.75086304852E+01 -0.73387959098E+03  0.13159853749E+04  0.89688557613E+03 0.  0.
         23    2    4    4    0    0 -0.49166015296E+02  0.69794531526E+02  0.15209165180E+03  0.19707688588E+03  0.91754317117E+02 0.  0.
         23    2    4    4    0    0  0.67268677414E+03 -0.77303162011E+02 -0.88597124278E+03  0.11189084890E+04  0.92346569161E+02 0.  0.
          2    1    3    3  502    0 -0.34349179187E+03 -0.11406213566E+02 -0.13704659703E+03  0.36999794938E+03  0.00000000000E+00 0. -1.
         -3    1    3    3    0  502 -0.28002896697E+03  0.18914844051E+02 -0.42402773824E+02  0.28385205459E+03  0.00000000000E+00 0.  1.
         11    1    5    5    0    0 -0.35914267260E+02 -0.13928375908E+02  0.64914888987E+02  0.75483621140E+02  0.00000000000E+00 0.  1.
        -11    1    5    5    0    0 -0.13251748035E+02  0.83722907434E+02  0.87176762811E+02  0.12159326474E+03  0.00000000000E+00 0. -1.
          4    1    6    6  503    0  0.45441182103E+03 -0.94516589833E+02 -0.61712072075E+03  0.77217968946E+03  0.00000000000E+00 0. -1.
         -4    1    6    6    0  503  0.21827495311E+03  0.17213427822E+02 -0.26885052203E+03  0.34672879957E+03  0.00000000000E+00 0.  1.
<mgrwt>
<rscale>  0 0.17453027E+04</rscale>
<asrwt>0</asrwt>
<pdfrwt beam="1">  1        2 0.22178187E+00 0.17453027E+04</pdfrwt>
<pdfrwt beam="2">  1       -1 0.81269726E-01 0.17453027E+04</pdfrwt>
<totfact> 0.22328688E+01</totfact>
</mgrwt>
</event>
<event>
12    6  0.1132033E-007  0.4077037E+04  0.7818608E-02  0.7989183E-01
         -1   -1    0    0    0  501 -0.00000000000E+00  0.00000000000E+00  0.19966558790E+04  0.19966558790E+04  0.00000000000E+00 0.  1.
          2   -1    0    0  501    0  0.00000000000E+00 -0.00000000000E+00 -0.20812591942E+04  0.20812591942E+04  0.00000000000E+00 0. -1.
         24    2    1    2    0    0  0.25063551982E+03 -0.12909418012E+04 -0.14658020076E+04  0.19705215508E+04  0.70927841469E+02 0.  0.
        254    2    1    2    0    0 -0.25063551982E+03  0.12909418012E+04  0.13811986925E+04  0.21073935224E+04  0.89668764488E+03 0.  0.
         23    2    4    4    0    0  0.88298812832E+02  0.72446789847E+03  0.21875728819E+03  0.76739044315E+03  0.91558313893E+02 0.  0.
         23    2    4    4    0    0 -0.33893433265E+03  0.56647390272E+03  0.11624414043E+04  0.13400030793E+04  0.92569270268E+02 0.  0.
          4    1    3    3  502    0  0.25303570194E+03 -0.12407399394E+04 -0.14189682300E+04  0.19018237303E+04  0.00000000000E+00 0. -1.
         -3    1    3    3    0  502 -0.24001821275E+01 -0.50201861828E+02 -0.46833777612E+02  0.68697820422E+02  0.00000000000E+00 0.  1.
         11    1    5    5    0    0  0.10166288210E+03  0.69963179398E+03  0.20559677810E+03  0.73626763062E+03  0.00000000000E+00 0. -1.
        -11    1    5    5    0    0 -0.13364069267E+02  0.24836104490E+02  0.13160510088E+02  0.31122812524E+02  0.00000000000E+00 0.  1.
          1    1    6    6  503    0 -0.33147625750E+03  0.54825555898E+03  0.11508387584E+04  0.13171524267E+04  0.00000000000E+00 0. -1.
         -1    1    6    6    0  503 -0.74580751503E+01  0.18218343743E+02  0.11602645877E+02  0.22850652617E+02  0.00000000000E+00 0.  1.
<mgrwt>
<rscale>  0 0.40770374E+04</rscale>
<asrwt>0</asrwt>
<pdfrwt beam="1">  1        2 0.32019372E+00 0.40770374E+04</pdfrwt>
<pdfrwt beam="2">  1       -1 0.30717783E+00 0.40770374E+04</pdfrwt>
<totfact> 0.15924877E-01</totfact>
</mgrwt>
</event>
<event>
12    6  0.9491186E-008  0.2643820E+04  0.7818608E-02  0.8353467E-01
         -1   -1    0    0    0  501 -0.00000000000E+00  0.00000000000E+00  0.12331139302E+04  0.12331139302E+04  0.00000000000E+00 0.  1.
          2   -1    0    0  501    0  0.00000000000E+00 -0.00000000000E+00 -0.14171001035E+04  0.14171001035E+04  0.00000000000E+00 0. -1.
         24    2    1    2    0    0  0.10990034105E+04  0.28374227894E+03 -0.34349464130E+03  0.11887974511E+04  0.83262441079E+02 0.  0.
        254    2    1    2    0    0 -0.10990034105E+04 -0.28374227894E+03  0.15950846802E+03  0.14614165826E+04  0.90662963746E+03 0.  0.
         23    2    4    4    0    0 -0.12247469780E+04 -0.35292057608E+03  0.10223874492E+03  0.12819433362E+04  0.91476023815E+02 0.  0.
         23    2    4    4    0    0  0.12574356758E+03  0.69178297134E+02  0.57269723102E+02  0.17947324646E+03  0.91289339081E+02 0.  0.
          2    1    3    3  502    0  0.17735750790E+03  0.71974219606E+02 -0.39153208040E+02  0.19536874775E+03  0.00000000000E+00 0. -1.
         -1    1    3    3    0  502  0.92164590256E+03  0.21176805934E+03 -0.30434143326E+03  0.99342870336E+03  0.00000000000E+00 0.  1.
         11    1    5    5    0    0 -0.11362754878E+03 -0.16594084707E+02 -0.11862203473E+02  0.11544390569E+03  0.00000000000E+00 0.  1.
        -11    1    5    5    0    0 -0.11111194293E+04 -0.33632649137E+03  0.11410094839E+03  0.11664994305E+04  0.00000000000E+00 0. -1.
          4    1    6    6  503    0 -0.60396715310E+00 -0.14621874185E+01 -0.16796415633E+02  0.16870754177E+02  0.00000000000E+00 0.  1.
         -4    1    6    6    0  503  0.12634753473E+03  0.70640484553E+02  0.74066138735E+02  0.16260249228E+03  0.00000000000E+00 0. -1.
<mgrwt>
<rscale>  0 0.26438199E+04</rscale>
<asrwt>0</asrwt>
<pdfrwt beam="1">  1        2 0.21801540E+00 0.26438199E+04</pdfrwt>
<pdfrwt beam="2">  1       -1 0.18970984E+00 0.26438199E+04</pdfrwt>
<totfact> 0.25217305E+00</totfact>
</mgrwt>
</event>
<event>
12    6  0.9491186E-008  0.1853827E+04  0.7818608E-02  0.8678187E-01
          2   -1    0    0  501    0  0.00000000000E+00  0.00000000000E+00  0.14239420715E+04  0.14239420715E+04  0.00000000000E+00 0. -1.
         -1   -1    0    0    0  501 -0.00000000000E+00 -0.00000000000E+00 -0.60337356290E+03  0.60337356290E+03  0.00000000000E+00 0.  1.
         24    2    1    2    0    0 -0.33696306467E+03  0.39824960718E+03  0.82450297965E+03  0.97893328664E+03  0.79739323238E+02 0.  0.
        254    2    1    2    0    0  0.33696306467E+03 -0.39824960718E+03 -0.39344710090E+01  0.10483823478E+04  0.90936417928E+03 0.  0.
         23    2    4    4    0    0 -0.40174492391E+02 -0.60002679539E+03  0.27135380573E+01  0.60825681106E+03  0.91229599847E+02 0.  0.
         23    2    4    4    0    0  0.37713755706E+03  0.20177718822E+03 -0.66480090663E+01  0.44012553674E+03  0.10353512176E+03 0.  0.
          2    1    3    3  502    0 -0.34082038107E+03  0.39447597399E+03  0.80807596089E+03  0.96164264921E+03  0.00000000000E+00 0. -1.
         -1    1    3    3    0  502  0.38573164068E+01  0.37736331815E+01  0.16427018766E+02  0.17290637431E+02  0.00000000000E+00 0.  1.
         11    1    5    5    0    0  0.19828304444E+02 -0.35228262533E+03  0.13787938431E+02  0.35310949720E+03  0.00000000000E+00 0. -1.
        -11    1    5    5    0    0 -0.60002796835E+02 -0.24774417006E+03 -0.11074400374E+02  0.25514731386E+03  0.00000000000E+00 0.  1.
          4    1    6    6  503    0  0.33713900473E+03  0.19232707938E+03 -0.35724729433E+02  0.38978028460E+03  0.00000000000E+00 0. -1.
         -4    1    6    6    0  503  0.39998552327E+02  0.94501088364E+01  0.29076720367E+02  0.50345252135E+02  0.00000000000E+00 0.  1.
<mgrwt>
<rscale>  0 0.18538274E+04</rscale>
<asrwt>0</asrwt>
<pdfrwt beam="1">  1        2 0.21906801E+00 0.18538274E+04</pdfrwt>
<pdfrwt beam="2">  1       -1 0.92826702E-01 0.18538274E+04</pdfrwt>
<totfact> 0.16940175E+01</totfact>
</mgrwt>
</event>
<event>
12    6  0.9491186E-008  0.1308057E+04  0.7818608E-02  0.9023200E-01
          4   -1    0    0  501    0  0.00000000000E+00  0.00000000000E+00  0.39267860334E+03  0.39267860334E+03  0.00000000000E+00 0. -1.
         -3   -1    0    0    0  501 -0.00000000000E+00 -0.00000000000E+00 -0.10893212335E+04  0.10893212335E+04  0.00000000000E+00 0.  1.
         24    2    1    2    0    0  0.60210847110E+02  0.15538875429E+03 -0.51481638499E+03  0.54721699136E+03  0.81483214943E+02 0.  0.
        254    2    1    2    0    0 -0.60210847110E+02 -0.15538875429E+03 -0.18182624520E+03  0.93478284550E+03  0.90165801373E+03 0.  0.
         23    2    4    4    0    0  0.89046709022E+02 -0.40713480201E+03 -0.37854910094E+03  0.57043859671E+03  0.91720812281E+02 0.  0.
         23    2    4    4    0    0 -0.14925755613E+03  0.25174604772E+03  0.19672285574E+03  0.36434424879E+03  0.91613094306E+02 0.  0.
          2    1    3    3  502    0 -0.34293023406E+01 -0.39327817649E+01 -0.74128088154E+02  0.74311508801E+02  0.00000000000E+00 0. -1.
         -1    1    3    3    0  502  0.63640149450E+02  0.15932153605E+03 -0.44068829683E+03  0.47290548256E+03  0.00000000000E+00 0.  1.
         11    1    5    5    0    0  0.14444097299E+02 -0.24354451728E+03 -0.25070758050E+03  0.34982403400E+03  0.00000000000E+00 0. -1.
        -11    1    5    5    0    0  0.74602611722E+02 -0.16359028473E+03 -0.12784152044E+03  0.22061456272E+03  0.00000000000E+00 0.  1.
          3    1    6    6  503    0  0.37306625852E+01 -0.33095404631E+01 -0.32458103301E+01  0.59503097483E+01  0.00000000000E+00 0. -1.
         -3    1    6    6    0  503 -0.15298821872E+03  0.25505558819E+03  0.19996866607E+03  0.35839393904E+03  0.00000000000E+00 0.  1.
<mgrwt>
<rscale>  0 0.13080568E+04</rscale>
<asrwt>0</asrwt>
<pdfrwt beam="1">  1        4 0.60412095E-01 0.13080568E+04</pdfrwt>
<pdfrwt beam="2">  1       -3 0.16758788E+00 0.13080568E+04</pdfrwt>
<totfact> 0.13925947E+00</totfact>
</mgrwt>
</event>
<event>
12    6  0.9491186E-008  0.1587357E+04  0.7818608E-02  0.8828353E-01
          2   -1    0    0  501    0  0.00000000000E+00  0.00000000000E+00  0.10998635192E+04  0.10998635192E+04  0.00000000000E+00 0. -1.
         -1   -1    0    0    0  501 -0.00000000000E+00 -0.00000000000E+00 -0.57273040955E+03  0.57273040955E+03  0.00000000000E+00 0.  1.
         24    2    1    2    0    0 -0.42779958329E+02  0.34070389032E+03  0.60721086883E+03  0.70221990665E+03  0.80613226955E+02 0.  0.
        254    2    1    2    0    0  0.42779958329E+02 -0.34070389032E+03 -0.80077759135E+02  0.97037402215E+03  0.90404868765E+03 0.  0.
         23    2    4    4    0    0  0.26253636110E+03 -0.50854271130E+02  0.31783791076E+03  0.42513707128E+03  0.90604051076E+02 0.  0.
         23    2    4    4    0    0 -0.21975640277E+03 -0.28984961919E+03 -0.39791566990E+03  0.54523695086E+03  0.81490943889E+02 0.  0.
          2    1    3    3  502    0 -0.15603079547E+02  0.30827675927E+03  0.50896055230E+03  0.59524689012E+03  0.00000000000E+00 0. -1.
         -1    1    3    3    0  502 -0.27176878782E+02  0.32427131052E+02  0.98250316526E+02  0.10697301653E+03  0.00000000000E+00 0.  1.
         11    1    5    5    0    0  0.10861214079E+03 -0.69237140052E+01  0.19519167830E+03  0.22348227272E+03  0.00000000000E+00 0. -1.
        -11    1    5    5    0    0  0.15392422031E+03 -0.43930557125E+02  0.12264623246E+03  0.20165479856E+03  0.00000000000E+00 0.  1.
          1    1    6    6  503    0 -0.16692777059E+02 -0.14139040361E+02 -0.61227296863E+02  0.65018021728E+02  0.00000000000E+00 0. -1.
         -1    1    6    6    0  503 -0.20306362571E+03 -0.27571057883E+03 -0.33668837303E+03  0.48021892913E+03  0.00000000000E+00 0.  1.
<mgrwt>
<rscale>  0 0.15873567E+04</rscale>
<asrwt>0</asrwt>
<pdfrwt beam="1">  1        2 0.16920977E+00 0.15873567E+04</pdfrwt>
<pdfrwt beam="2">  1       -1 0.88112371E-01 0.15873567E+04</pdfrwt>
<totfact> 0.30199755E+01</totfact>
</mgrwt>
</event>
<event>
12    6  0.9491186E-008  0.1723229E+04  0.7818608E-02  0.8748226E-01
         -1   -1    0    0    0  501 -0.00000000000E+00  0.00000000000E+00  0.35543167057E+03  0.35543167057E+03  0.00000000000E+00 0.  1.
          2   -1    0    0  501    0  0.00000000000E+00 -0.00000000000E+00 -0.20886700118E+04  0.20886700118E+04  0.00000000000E+00 0. -1.
         24    2    1    2    0    0  0.52702388453E+03  0.32006053964E+03 -0.87475536192E+03  0.10731660210E+04  0.79343817820E+02 0.  0.
        254    2    1    2    0    0 -0.52702388453E+03 -0.32006053964E+03 -0.85848297933E+03  0.13709356614E+04  0.87308569917E+03 0.  0.
         23    2    4    4    0    0 -0.27112072640E+03 -0.40735287654E+03 -0.94758277011E+03  0.10712608937E+04  0.10121255767E+03 0.  0.
         23    2    4    4    0    0 -0.25590315812E+03  0.87292336898E+02  0.89099790784E+02  0.29967476774E+03  0.93593884866E+02 0.  0.
          2    1    3    3  502    0  0.17590692861E+03  0.14403500412E+03 -0.35790263214E+03  0.42400899052E+03  0.00000000000E+00 0. -1.
         -1    1    3    3    0  502  0.35111695591E+03  0.17602553551E+03 -0.51685272978E+03  0.64915703044E+03  0.00000000000E+00 0.  1.
         11    1    5    5    0    0 -0.19828597975E+02  0.12585798912E+01 -0.42474782769E+02  0.46892051483E+02  0.00000000000E+00 0. -1.
        -11    1    5    5    0    0 -0.25129212843E+03 -0.40861145643E+03 -0.90510798734E+03  0.10243688422E+04  0.00000000000E+00 0.  1.
          4    1    6    6  503    0 -0.20944311666E+03  0.98467619843E+02  0.97539809692E+02  0.25114996665E+03  0.00000000000E+00 0.  1.
         -4    1    6    6    0  503 -0.46460041463E+02 -0.11175282945E+02 -0.84400189084E+01  0.48524801090E+02  0.00000000000E+00 0. -1.
<mgrwt>
<rscale>  0 0.17232289E+04</rscale>
<asrwt>0</asrwt>
<pdfrwt beam="1">  1        2 0.32133385E+00 0.17232289E+04</pdfrwt>
<pdfrwt beam="2">  1       -1 0.54681795E-01 0.17232289E+04</pdfrwt>
<totfact> 0.21797195E+01</totfact>
</mgrwt>
</event>
<event>
12    6  0.9491186E-008  0.1425083E+04  0.7818608E-02  0.8935860E-01
         -1   -1    0    0    0  501 -0.00000000000E+00  0.00000000000E+00  0.65600587050E+03  0.65600587050E+03  0.00000000000E+00 0.  1.
          2   -1    0    0  501    0  0.00000000000E+00 -0.00000000000E+00 -0.77394907399E+03  0.77394907399E+03  0.00000000000E+00 0. -1.
         24    2    1    2    0    0 -0.73229024219E+01 -0.45292861785E+02  0.38436262127E+03  0.39525968405E+03  0.79940759149E+02 0.  0.
        254    2    1    2    0    0  0.73229024219E+01  0.45292861785E+02 -0.50230582477E+03  0.10346952604E+04  0.90342574247E+03 0.  0.
         23    2    4    4    0    0 -0.15850571889E+03 -0.36997565589E+03 -0.38376167819E+03  0.56240986933E+03  0.83819965352E+02 0.  0.
         23    2    4    4    0    0  0.16582862132E+03  0.41526851768E+03 -0.11854414658E+03  0.47228539111E+03  0.95150946145E+02 0.  0.
          4    1    3    3  502    0 -0.25414814072E+02  0.53616389276E+01  0.47573798255E+02  0.54202640404E+02  0.00000000000E+00 0. -1.
         -3    1    3    3    0  502  0.18091911650E+02 -0.50654500712E+02  0.33678882302E+03  0.34105704364E+03  0.00000000000E+00 0.  1.
         11    1    5    5    0    0 -0.49334656506E+02 -0.76608987248E+02 -0.46600841511E+02  0.10234492508E+03  0.00000000000E+00 0. -1.
        -11    1    5    5    0    0 -0.10917106239E+03 -0.29336666864E+03 -0.33716083668E+03  0.46006494425E+03  0.00000000000E+00 0.  1.
          3    1    6    6  503    0  0.15145673603E+03  0.33778122393E+03 -0.13063028519E+03  0.39255518024E+03  0.00000000000E+00 0. -1.
         -3    1    6    6    0  503  0.14371885285E+02  0.77487293747E+02  0.12086138612E+02  0.79730210870E+02  0.00000000000E+00 0.  1.
<mgrwt>
<rscale>  0 0.14250826E+04</rscale>
<asrwt>0</asrwt>
<pdfrwt beam="1">  1        2 0.11906909E+00 0.14250826E+04</pdfrwt>
<pdfrwt beam="2">  1       -1 0.10092398E+00 0.14250826E+04</pdfrwt>
<totfact> 0.37273163E+01</totfact>
</mgrwt>
</event>
<event>
12    6  0.9491186E-008  0.1700896E+04  0.7818608E-02  0.8760853E-01
         -1   -1    0    0    0  501 -0.00000000000E+00  0.00000000000E+00  0.19434196351E+04  0.19434196351E+04  0.00000000000E+00 0.  1.
          2   -1    0    0  501    0  0.00000000000E+00 -0.00000000000E+00 -0.37215954949E+03  0.37215954949E+03  0.00000000000E+00 0. -1.
         24    2    1    2    0    0 -0.45564332434E+03 -0.17153868913E+03  0.72609635798E+02  0.49872505548E+03  0.80113425059E+02 0.  0.
        254    2    1    2    0    0  0.45564332434E+03  0.17153868913E+03  0.14986504498E+04  0.18168541291E+04  0.90441660472E+03 0.  0.
         23    2    4    4    0    0  0.56833609218E+03 -0.19914036819E+03  0.72487607297E+03  0.94667424226E+03  0.89911066517E+02 0.  0.
         23    2    4    4    0    0 -0.11269276785E+03  0.37067905733E+03  0.77377437688E+03  0.87017988688E+03  0.91562141494E+02 0.  0.
          2    1    3    3  502    0 -0.36933876165E+03 -0.11165052551E+03  0.77546375212E+02  0.39356117823E+03  0.00000000000E+00 0. -1.
         -1    1    3    3    0  502 -0.86304562691E+02 -0.59888163620E+02 -0.49367394137E+01  0.10516387725E+03  0.00000000000E+00 0.  1.
         11    1    5    5    0    0  0.93907075513E+02 -0.53989215383E+02  0.89323927055E+02  0.14039992220E+03  0.00000000000E+00 0.  1.
        -11    1    5    5    0    0  0.47442901667E+03 -0.14515115281E+03  0.63555214591E+03  0.80627432006E+03  0.00000000000E+00 0. -1.
          4    1    6    6  503    0  0.14258189006E+02  0.44477285754E+02  0.11640361644E+03  0.12542458619E+03  0.00000000000E+00 0.  1.
         -4    1    6    6    0  503 -0.12695095685E+03  0.32620177157E+03  0.65737076044E+03  0.74475530069E+03  0.00000000000E+00 0. -1.
<mgrwt>
<rscale>  0 0.17008964E+04</rscale>
<asrwt>0</asrwt>
<pdfrwt beam="1">  1        2 0.57255316E-01 0.17008964E+04</pdfrwt>
<pdfrwt beam="2">  1       -1 0.29898763E+00 0.17008964E+04</pdfrwt>
<totfact> 0.31520804E+00</totfact>
</mgrwt>
</event>
<event>
12    6  0.9491186E-008  0.2310163E+04  0.7818608E-02  0.8473925E-01
         -1   -1    0    0    0  501 -0.00000000000E+00  0.00000000000E+00  0.99851024693E+03  0.99851024693E+03  0.00000000000E+00 0.  1.
          2   -1    0    0  501    0  0.00000000000E+00 -0.00000000000E+00 -0.13362044220E+04  0.13362044220E+04  0.00000000000E+00 0. -1.
         24    2    1    2    0    0  0.86199638676E+03  0.72888936891E+02 -0.61262160033E+03  0.10630073257E+04  0.79553638377E+02 0.  0.
        254    2    1    2    0    0 -0.86199638676E+03 -0.72888936891E+02  0.27492742527E+03  0.12717073432E+04  0.89067609699E+03 0.  0.
         23    2    4    4    0    0 -0.39997025736E+03  0.81412563711E+02  0.56080366757E+03  0.69983323315E+03  0.93067654737E+02 0.  0.
         23    2    4    4    0    0 -0.46202612940E+03 -0.15430150060E+03 -0.28587624229E+03  0.57187411008E+03  0.89653078810E+02 0.  0.
          2    1    3    3  502    0  0.68647684354E+02 -0.76071740009E+01 -0.29397231419E+02  0.75063778739E+02  0.00000000000E+00 0. -1.
         -1    1    3    3    0  502  0.79334870241E+03  0.80496110892E+02 -0.58322436891E+03  0.98794354696E+03  0.00000000000E+00 0.  1.
         11    1    5    5    0    0 -0.32381411076E+03  0.29397187847E+02  0.45862746503E+03  0.56219118160E+03  0.00000000000E+00 0.  1.
        -11    1    5    5    0    0 -0.76156146604E+02  0.52015375864E+02  0.10217620253E+03  0.13764205155E+03  0.00000000000E+00 0. -1.
          1    1    6    6  503    0 -0.15125483824E+03 -0.30568972415E+02 -0.48668557826E+02  0.16180579930E+03  0.00000000000E+00 0. -1.
         -1    1    6    6    0  503 -0.31077129116E+03 -0.12373252819E+03 -0.23720768447E+03  0.41006831079E+03  0.00000000000E+00 0.  1.
<mgrwt>
<rscale>  0 0.23101635E+04</rscale>
<asrwt>0</asrwt>
<pdfrwt beam="1">  1        2 0.20556991E+00 0.23101635E+04</pdfrwt>
<pdfrwt beam="2">  1       -1 0.15361696E+00 0.23101635E+04</pdfrwt>
<totfact> 0.53171371E+00</totfact>
</mgrwt>
</event>
<event>
12    6  0.9491186E-008  0.1257820E+04  0.7818608E-02  0.9063700E-01
          2   -1    0    0  501    0  0.00000000000E+00  0.00000000000E+00  0.27576651569E+03  0.27576651569E+03  0.00000000000E+00 0. -1.
         -1   -1    0    0    0  501 -0.00000000000E+00 -0.00000000000E+00 -0.14342854241E+04  0.14342854241E+04  0.00000000000E+00 0.  1.
         24    2    1    2    0    0  0.11859405159E+03 -0.27804487537E+03 -0.20010902152E+03  0.37044822428E+03  0.76254603697E+02 0.  0.
        254    2    1    2    0    0 -0.11859405159E+03  0.27804487537E+03 -0.95840988688E+03  0.13396037155E+04  0.88578501992E+03 0.  0.
         23    2    4    4    0    0  0.34187560110E+03 -0.42225128653E+02 -0.47575360199E+03  0.59423625320E+03  0.90074117759E+02 0.  0.
         23    2    4    4    0    0 -0.46046965270E+03  0.32027000402E+03 -0.48265628489E+03  0.74536746230E+03  0.89500770858E+02 0.  0.
          4    1    3    3  502    0  0.38469877242E+02 -0.63373211974E+02 -0.88883395445E+02  0.11574261720E+03  0.00000000000E+00 0. -1.
         -3    1    3    3    0  502  0.80124174352E+02 -0.21467166339E+03 -0.11122562607E+03  0.25470560707E+03  0.00000000000E+00 0.  1.
         11    1    5    5    0    0  0.15009071241E+03  0.70761059220E+01 -0.14546081291E+03  0.20913187543E+03  0.00000000000E+00 0.  1.
        -11    1    5    5    0    0  0.19178488869E+03 -0.49301234575E+02 -0.33029278908E+03  0.38510437778E+03  0.00000000000E+00 0. -1.
          3    1    6    6  503    0 -0.24490569137E+03  0.21868032697E+03 -0.30494231529E+03  0.44809563569E+03  0.00000000000E+00 0. -1.
         -3    1    6    6    0  503 -0.21556396133E+03  0.10158967705E+03 -0.17771396960E+03  0.29727182661E+03  0.00000000000E+00 0.  1.
<mgrwt>
<rscale>  0 0.12578202E+04</rscale>
<asrwt>0</asrwt>
<pdfrwt beam="1">  1        2 0.42425618E-01 0.12578202E+04</pdfrwt>
<pdfrwt beam="2">  1       -1 0.22065930E+00 0.12578202E+04</pdfrwt>
<totfact> 0.14810785E+01</totfact>
</mgrwt>
</event>
<event>
12    6  0.9491186E-008  0.1184571E+04  0.7818608E-02  0.9126470E-01
         -1   -1    0    0    0  501 -0.00000000000E+00  0.00000000000E+00  0.53512226773E+03  0.53512226773E+03  0.00000000000E+00 0.  1.
          2   -1    0    0  501    0  0.00000000000E+00 -0.00000000000E+00 -0.65555472435E+03  0.65555472435E+03  0.00000000000E+00 0. -1.
         24    2    1    2    0    0 -0.17631481417E+03 -0.14581772408E+02 -0.18920132627E+03  0.27109193298E+03  0.79963444649E+02 0.  0.
        254    2    1    2    0    0  0.17631481417E+03  0.14581772408E+02  0.68768869654E+02  0.91958505911E+03  0.89978218571E+03 0.  0.
         23    2    4    4    0    0  0.51275586173E+03 -0.10680401525E+03  0.12489921569E+03  0.54609434983E+03  0.91068948717E+02 0.  0.
         23    2    4    4    0    0 -0.33644104756E+03  0.12138578766E+03 -0.56130346035E+02  0.37349070928E+03  0.91747513546E+02 0.  0.
          4    1    3    3  502    0 -0.17574297308E+03 -0.24012178763E+02 -0.19184735406E+03  0.26128066246E+03  0.00000000000E+00 0. -1.
         -3    1    3    3    0  502 -0.57184109500E+00  0.94304063543E+01  0.26460277843E+01  0.98112705232E+01  0.00000000000E+00 0.  1.
         11    1    5    5    0    0  0.25899820603E+03 -0.86054428467E+02  0.98388349173E+02  0.29011325829E+03  0.00000000000E+00 0. -1.
        -11    1    5    5    0    0  0.25375765571E+03 -0.20749586784E+02  0.26510866516E+02  0.25598109154E+03  0.00000000000E+00 0.  1.
          4    1    6    6  503    0 -0.17402264842E+03  0.16905679723E+02 -0.11129709992E+02  0.17519576084E+03  0.00000000000E+00 0. -1.
         -4    1    6    6    0  503 -0.16241839914E+03  0.10448010794E+03 -0.45000636043E+02  0.19829494844E+03  0.00000000000E+00 0.  1.
<mgrwt>
<rscale>  0 0.11845707E+04</rscale>
<asrwt>0</asrwt>
<pdfrwt beam="1">  1        2 0.10085457E+00 0.11845707E+04</pdfrwt>
<pdfrwt beam="2">  1       -1 0.82326503E-01 0.11845707E+04</pdfrwt>
<totfact> 0.73688055E+01</totfact>
</mgrwt>
</event>
<event>
12    6  0.9491186E-008  0.1401051E+04  0.7818608E-02  0.8953058E-01
          2   -1    0    0  501    0  0.00000000000E+00  0.00000000000E+00  0.22384457758E+04  0.22384457758E+04  0.00000000000E+00 0. -1.
         -1   -1    0    0    0  501 -0.00000000000E+00 -0.00000000000E+00 -0.21923074376E+03  0.21923074376E+03  0.00000000000E+00 0.  1.
         24    2    1    2    0    0  0.15053096702E+03 -0.37556383322E+03  0.49130346871E+03  0.64122465219E+03  0.77988405229E+02 0.  0.
        254    2    1    2    0    0 -0.15053096702E+03  0.37556383322E+03  0.15279115634E+04  0.18164518674E+04  0.89514014338E+03 0.  0.
         23    2    4    4    0    0  0.23560511450E+03  0.50466173539E+03  0.84852192916E+03  0.10190580523E+04  0.91085743023E+02 0.  0.
         23    2    4    4    0    0 -0.38613608152E+03 -0.12909790217E+03  0.67938963420E+03  0.79739381509E+03  0.92191536940E+02 0.  0.
          4    1    3    3  502    0  0.10885345047E+02 -0.50908070084E+02  0.10778997948E+03  0.11970297412E+03  0.00000000000E+00 0. -1.
         -3    1    3    3    0  502  0.13964562197E+03 -0.32465576314E+03  0.38351348923E+03  0.52152167807E+03  0.00000000000E+00 0.  1.
         11    1    5    5    0    0  0.94256076564E+02  0.14658130352E+03  0.20383690138E+03  0.26817861376E+03  0.00000000000E+00 0.  1.
        -11    1    5    5    0    0  0.14134903794E+03  0.35808043186E+03  0.64468502778E+03  0.75087943856E+03  0.00000000000E+00 0. -1.
          2    1    6    6  503    0 -0.33575307258E+03 -0.84276577635E+02  0.60463261481E+03  0.69671605850E+03  0.00000000000E+00 0.  1.
         -2    1    6    6    0  503 -0.50383008936E+02 -0.44821324530E+02  0.74757019395E+02  0.10067775658E+03  0.00000000000E+00 0. -1.
<mgrwt>
<rscale>  0 0.14010512E+04</rscale>
<asrwt>0</asrwt>
<pdfrwt beam="1">  1        2 0.34437626E+00 0.14010512E+04</pdfrwt>
<pdfrwt beam="2">  1       -1 0.33727808E-01 0.14010512E+04</pdfrwt>
<totfact> 0.45231728E+01</totfact>
</mgrwt>
</event>
<event>
12    6  0.9491186E-008  0.2268449E+04  0.7818608E-02  0.8490466E-01
          2   -1    0    0  501    0  0.00000000000E+00  0.00000000000E+00  0.28246223441E+04  0.28246223441E+04  0.00000000000E+00 0. -1.
         -1   -1    0    0    0  501 -0.00000000000E+00 -0.00000000000E+00 -0.45544695614E+03  0.45544695614E+03  0.00000000000E+00 0.  1.
         24    2    1    2    0    0 -0.80286544667E+03  0.30738768692E+03  0.40987947937E+03  0.95677188713E+03  0.91275083442E+02 0.  0.
        254    2    1    2    0    0  0.80286544667E+03 -0.30738768692E+03  0.19592959086E+04  0.23232974131E+04  0.90542271719E+03 0.  0.
         23    2    4    4    0    0  0.32244875776E+03 -0.59190563036E+03  0.10919971990E+04  0.12866987404E+04  0.93863141465E+02 0.  0.
         23    2    4    4    0    0  0.48041668891E+03  0.28451794344E+03  0.86729870954E+03  0.10365986726E+04  0.10285475899E+03 0.  0.
          4    1    3    3  502    0 -0.35529732431E+03  0.13894822416E+03  0.13204189591E+03  0.40370516461E+03  0.00000000000E+00 0. -1.
         -3    1    3    3    0  502 -0.44756812236E+03  0.16843946276E+03  0.27783758346E+03  0.55306672251E+03  0.00000000000E+00 0.  1.
         11    1    5    5    0    0  0.28165172739E+03 -0.47516202417E+03  0.94508893652E+03  0.10946687822E+04  0.00000000000E+00 0. -1.
        -11    1    5    5    0    0  0.40797030371E+02 -0.11674360620E+03  0.14690826250E+03  0.19202995825E+03  0.00000000000E+00 0.  1.
          1    1    6    6  503    0  0.34972087020E+03  0.24234375732E+03  0.59312823419E+03  0.72995635894E+03  0.00000000000E+00 0. -1.
         -1    1    6    6    0  503  0.13069581871E+03  0.42174186126E+02  0.27417047535E+03  0.30664231371E+03  0.00000000000E+00 0.  1.
<mgrwt>
<rscale>  0 0.22684494E+04</rscale>
<asrwt>0</asrwt>
<pdfrwt beam="1">  1        2 0.43455727E+00 0.22684494E+04</pdfrwt>
<pdfrwt beam="2">  1       -1 0.70068764E-01 0.22684494E+04</pdfrwt>
<totfact> 0.47599045E+00</totfact>
</mgrwt>
</event>
<event>
12    6  0.9491186E-008  0.1860452E+04  0.7818608E-02  0.8674796E-01
         -1   -1    0    0    0  501 -0.00000000000E+00  0.00000000000E+00  0.56094494299E+03  0.56094494299E+03  0.00000000000E+00 0.  1.
          2   -1    0    0  501    0  0.00000000000E+00 -0.00000000000E+00 -0.15426121657E+04  0.15426121657E+04  0.00000000000E+00 0. -1.
         24    2    1    2    0    0 -0.10818538663E+03 -0.64176406861E+02  0.41328191725E+03  0.43926824684E+03  0.79573616728E+02 0.  0.
        254    2    1    2    0    0  0.10818538663E+03  0.64176406861E+02 -0.13949491399E+04  0.16642888618E+04  0.89897253769E+03 0.  0.
         23    2    4    4    0    0 -0.18568589912E+03  0.16917474759E+03 -0.12971016658E+04  0.13239427118E+04  0.85159993256E+02 0.  0.
         23    2    4    4    0    0  0.29387128575E+03 -0.10499834073E+03 -0.97847474131E+02  0.34034614998E+03  0.94214592653E+02 0.  0.
          4    1    3    3  502    0 -0.26595879571E+02  0.17292707428E+02  0.12037308894E+03  0.12448316786E+03  0.00000000000E+00 0. -1.
         -1    1    3    3    0  502 -0.81589507058E+02 -0.81469114289E+02  0.29290882832E+03  0.31478507898E+03  0.00000000000E+00 0.  1.
         11    1    5    5    0    0 -0.98104386704E+02  0.13170398183E+03 -0.94591738529E+03  0.96006776288E+03  0.00000000000E+00 0. -1.
        -11    1    5    5    0    0 -0.87581512419E+02  0.37470765756E+02 -0.35118428052E+03  0.36387494897E+03  0.00000000000E+00 0.  1.
          1    1    6    6  503    0  0.12923774007E+03 -0.95468855897E+02 -0.39939306041E+02  0.16556522604E+03  0.00000000000E+00 0. -1.
         -1    1    6    6    0  503  0.16463354568E+03 -0.95294848328E+01 -0.57908168090E+02  0.17478092395E+03  0.00000000000E+00 0.  1.
<mgrwt>
<rscale>  0 0.18604521E+04</rscale>
<asrwt>0</asrwt>
<pdfrwt beam="1">  1        2 0.23732495E+00 0.18604521E+04</pdfrwt>
<pdfrwt beam="2">  1       -1 0.86299221E-01 0.18604521E+04</pdfrwt>
<totfact> 0.17029919E+01</totfact>
</mgrwt>
</event>
<event>
12    6  0.9491186E-008  0.1345642E+04  0.7818608E-02  0.8994134E-01
          2   -1    0    0  501    0  0.00000000000E+00  0.00000000000E+00  0.16081468638E+04  0.16081468638E+04  0.00000000000E+00 0. -1.
         -1   -1    0    0    0  501 -0.00000000000E+00 -0.00000000000E+00 -0.28149672265E+03  0.28149672265E+03  0.00000000000E+00 0.  1.
         24    2    1    2    0    0 -0.63593839652E+00  0.21898191292E+03 -0.47589646181E+02  0.23755976756E+03  0.78844062150E+02 0.  0.
        254    2    1    2    0    0  0.63593839652E+00 -0.21898191292E+03  0.13742397873E+04  0.16520838189E+04  0.89044509596E+03 0.  0.
         23    2    4    4    0    0  0.36759260104E+03 -0.15507498473E+03  0.11185593163E+04  0.11910997255E+04  0.91493391744E+02 0.  0.
         23    2    4    4    0    0 -0.36695666264E+03 -0.63906928190E+02  0.25568047102E+03  0.46098409339E+03  0.91610825606E+02 0.  0.
          4    1    3    3  502    0  0.29712200797E+02  0.15256265565E+03 -0.53296890892E+02  0.16431292510E+03  0.00000000000E+00 0. -1.
         -3    1    3    3    0  502 -0.30348139193E+02  0.66419257268E+02  0.57072447105E+01  0.73246842462E+02  0.00000000000E+00 0.  1.
         11    1    5    5    0    0  0.83157700417E+02  0.32198399790E+01  0.20303170664E+03  0.21942525928E+03  0.00000000000E+00 0. -1.
        -11    1    5    5    0    0  0.28443490062E+03 -0.15829482471E+03  0.91552760965E+03  0.97167446620E+03  0.00000000000E+00 0.  1.
          1    1    6    6  503    0 -0.27715712769E+02 -0.30918390881E+02  0.39871358044E+02  0.57565899812E+02  0.00000000000E+00 0. -1.
         -1    1    6    6    0  503 -0.33924094987E+03 -0.32988537309E+02  0.21580911298E+03  0.40341819358E+03  0.00000000000E+00 0.  1.
<mgrwt>
<rscale>  0 0.13456420E+04</rscale>
<asrwt>0</asrwt>
<pdfrwt beam="1">  1        2 0.24740720E+00 0.13456420E+04</pdfrwt>
<pdfrwt beam="2">  1       -1 0.43307189E-01 0.13456420E+04</pdfrwt>
<totfact> 0.64611756E+01</totfact>
</mgrwt>
</event>
<event>
12    6  0.9491186E-008  0.1497450E+04  0.7818608E-02  0.8886150E-01
          2   -1    0    0  501    0  0.00000000000E+00  0.00000000000E+00  0.87548412178E+03  0.87548412178E+03  0.00000000000E+00 0. -1.
         -1   -1    0    0    0  501 -0.00000000000E+00 -0.00000000000E+00 -0.64031915547E+03  0.64031915547E+03  0.00000000000E+00 0.  1.
         24    2    1    2    0    0  0.42070096712E+03 -0.18628210575E+03 -0.36213753406E+02  0.46789469367E+03  0.76965458271E+02 0.  0.
        254    2    1    2    0    0 -0.42070096712E+03  0.18628210575E+03  0.27137871971E+03  0.10479085836E+04  0.90154071642E+03 0.  0.
         23    2    4    4    0    0  0.22274051454E+01  0.23698224386E+03  0.49640216321E+03  0.55750075676E+03  0.90699729405E+02 0.  0.
         23    2    4    4    0    0 -0.42292837227E+03 -0.50700138106E+02 -0.22502344350E+03  0.49040782682E+03  0.91789838268E+02 0.  0.
          4    1    3    3  502    0  0.36088311250E+03 -0.18547852155E+03 -0.21705622847E+02  0.40633734373E+03  0.00000000000E+00 0. -1.
         -3    1    3    3    0  502  0.59817854623E+02 -0.80358419502E+00 -0.14508130559E+02  0.61557349940E+02  0.00000000000E+00 0.  1.
         11    1    5    5    0    0  0.19572936237E+02  0.52210958810E+01  0.55737987072E+02  0.59304998761E+02  0.00000000000E+00 0. -1.
        -11    1    5    5    0    0 -0.17345531091E+02  0.23176114797E+03  0.44066417614E+03  0.49819575800E+03  0.00000000000E+00 0.  1.
          2    1    6    6  503    0 -0.70561682200E+02  0.23812063987E+02 -0.52102985572E+02  0.90888318786E+02  0.00000000000E+00 0. -1.
         -2    1    6    6    0  503 -0.35236669007E+03 -0.74512202093E+02 -0.17292045792E+03  0.39951950803E+03  0.00000000000E+00 0.  1.
<mgrwt>
<rscale>  0 0.14974502E+04</rscale>
<asrwt>0</asrwt>
<pdfrwt beam="1">  1        2 0.13468987E+00 0.14974502E+04</pdfrwt>
<pdfrwt beam="2">  1       -1 0.98510639E-01 0.14974502E+04</pdfrwt>
<totfact> 0.33164660E+01</totfact>
</mgrwt>
</event>
<event>
12    6  0.9491186E-008  0.2656229E+04  0.7818608E-02  0.8349348E-01
         -1   -1    0    0    0  501 -0.00000000000E+00  0.00000000000E+00  0.50443944266E+03  0.50443944266E+03  0.00000000000E+00 0.  1.
          2   -1    0    0  501    0  0.00000000000E+00 -0.00000000000E+00 -0.34967303376E+04  0.34967303376E+04  0.00000000000E+00 0. -1.
         24    2    1    2    0    0  0.10157815592E+04  0.35811256719E+03 -0.62991685346E+03  0.12502978829E+04  0.79954781332E+02 0.  0.
        254    2    1    2    0    0 -0.10157815592E+04 -0.35811256719E+03 -0.23623740414E+04  0.27508718973E+04  0.90908101785E+03 0.  0.
         23    2    4    4    0    0 -0.11363010106E+03  0.25614583459E+03 -0.33365478783E+03  0.44538636348E+03  0.92309300108E+02 0.  0.
         23    2    4    4    0    0 -0.90215145810E+03 -0.61425840178E+03 -0.20287192536E+04  0.23054855338E+04  0.91493711279E+02 0.  0.
          4    1    3    3  502    0  0.14628214317E+03  0.74920972662E+02 -0.11780018267E+03  0.20220905170E+03  0.00000000000E+00 0. -1.
         -3    1    3    3    0  502  0.86949941599E+03  0.28319159453E+03 -0.51211667080E+03  0.10480888312E+04  0.00000000000E+00 0.  1.
         11    1    5    5    0    0 -0.63843876523E+02  0.16081573130E+03 -0.13489580009E+03  0.21939602750E+03  0.00000000000E+00 0. -1.
        -11    1    5    5    0    0 -0.49786224537E+02  0.95330103297E+02 -0.19875898774E+03  0.22599033598E+03  0.00000000000E+00 0.  1.
          3    1    6    6  503    0 -0.84457050858E+03 -0.59754788777E+03 -0.19352931514E+04  0.21944754280E+04  0.00000000000E+00 0. -1.
         -3    1    6    6    0  503 -0.57580949522E+02 -0.16710514014E+02 -0.93426102183E+02  0.11101010583E+03  0.00000000000E+00 0.  1.
<mgrwt>
<rscale>  0 0.26562294E+04</rscale>
<asrwt>0</asrwt>
<pdfrwt beam="1">  1        2 0.53795849E+00 0.26562294E+04</pdfrwt>
<pdfrwt beam="2">  1       -1 0.77606071E-01 0.26562294E+04</pdfrwt>
<totfact> 0.13616997E+00</totfact>
</mgrwt>
</event>
<event>
12    6  0.9491186E-008  0.1791874E+04  0.7818608E-02  0.8710633E-01
         -1   -1    0    0    0  501 -0.00000000000E+00  0.00000000000E+00  0.25855490700E+03  0.25855490700E+03  0.00000000000E+00 0.  1.
          2   -1    0    0  501    0  0.00000000000E+00 -0.00000000000E+00 -0.31045759921E+04  0.31045759921E+04  0.00000000000E+00 0. -1.
         24    2    1    2    0    0 -0.32537139469E+03  0.73990100333E+02  0.17952099966E+02  0.34345338188E+03  0.79352808376E+02 0.  0.
        254    2    1    2    0    0  0.32537139469E+03 -0.73990100333E+02 -0.28639731850E+04  0.30196775172E+04  0.89708908358E+03 0.  0.
         23    2    4    4    0    0 -0.14769348508E+02  0.29571373603E+03 -0.19351456320E+04  0.19598853471E+04  0.93258830396E+02 0.  0.
         23    2    4    4    0    0  0.34014074320E+03 -0.36970383636E+03 -0.92882755304E+03  0.10597921701E+04  0.89789580166E+02 0.  0.
          4    1    3    3  502    0 -0.26190243508E+03  0.30472893548E+02  0.30697314722E+02  0.26545019848E+03  0.00000000000E+00 0. -1.
         -3    1    3    3    0  502 -0.63468959612E+02  0.43517206784E+02 -0.12745214756E+02  0.78003183395E+02  0.00000000000E+00 0.  1.
         11    1    5    5    0    0  0.36266643723E+01 -0.23341846006E+01 -0.43186760696E+01  0.61034478135E+01  0.00000000000E+00 0. -1.
        -11    1    5    5    0    0 -0.18396012881E+02  0.29804792063E+03 -0.19308269559E+04  0.19537818993E+04  0.00000000000E+00 0.  1.
          1    1    6    6  503    0  0.74961719476E+02 -0.37835892254E+02 -0.18602668452E+03  0.20409983214E+03  0.00000000000E+00 0. -1.
         -1    1    6    6    0  503  0.26517902372E+03 -0.33186794411E+03 -0.74280086852E+03  0.85569233795E+03  0.00000000000E+00 0.  1.
<mgrwt>
<rscale>  0 0.17918743E+04</rscale>
<asrwt>0</asrwt>
<pdfrwt beam="1">  1        2 0.47762709E+00 0.17918743E+04</pdfrwt>
<pdfrwt beam="2">  1       -1 0.39777677E-01 0.17918743E+04</pdfrwt>
<totfact> 0.99390337E+00</totfact>
</mgrwt>
</event>
<event>
12    6  0.9491186E-008  0.1298232E+04  0.7818608E-02  0.9030968E-01
         -1   -1    0    0    0  501 -0.00000000000E+00  0.00000000000E+00  0.65521757598E+03  0.65521757598E+03  0.00000000000E+00 0.  1.
          2   -1    0    0  501    0  0.00000000000E+00 -0.00000000000E+00 -0.64307126495E+03  0.64307126495E+03  0.00000000000E+00 0. -1.
         24    2    1    2    0    0  0.60854052719E+01 -0.33076725187E+03 -0.35836297824E+02  0.34237750741E+03  0.80586042655E+02 0.  0.
        254    2    1    2    0    0 -0.60854052719E+01  0.33076725187E+03  0.47982608856E+02  0.95591133352E+03  0.89555577142E+03 0.  0.
         23    2    4    4    0    0 -0.28543518037E+02  0.21384546545E+03 -0.41101700650E+03  0.47297463023E+03  0.90694022414E+02 0.  0.
         23    2    4    4    0    0  0.22458112765E+02  0.11692178643E+03  0.45899961535E+03  0.48293670328E+03  0.91499407192E+02 0.  0.
          4    1    3    3  502    0  0.30095294114E+02 -0.10891174094E+03  0.13621760963E+02  0.11381145116E+03  0.00000000000E+00 0. -1.
         -3    1    3    3    0  502 -0.24009888842E+02 -0.22185551093E+03 -0.49458058787E+02  0.22856605625E+03  0.00000000000E+00 0.  1.
         11    1    5    5    0    0 -0.51196277008E+02  0.81016078814E+02 -0.13197167465E+03  0.16309870237E+03  0.00000000000E+00 0. -1.
        -11    1    5    5    0    0  0.22652758971E+02  0.13282938663E+03 -0.27904533185E+03  0.30987592786E+03  0.00000000000E+00 0.  1.
          4    1    6    6  503    0  0.51649838772E+02  0.46398305450E+02  0.16129669037E+03  0.17560504241E+03  0.00000000000E+00 0. -1.
         -4    1    6    6    0  503 -0.29191726007E+02  0.70523480976E+02  0.29770292498E+03  0.30733166088E+03  0.00000000000E+00 0.  1.
<mgrwt>
<rscale>  0 0.12982320E+04</rscale>
<asrwt>0</asrwt>
<pdfrwt beam="1">  1        2 0.98934041E-01 0.12982320E+04</pdfrwt>
<pdfrwt beam="2">  1       -1 0.10080270E+00 0.12982320E+04</pdfrwt>
<totfact> 0.47778653E+01</totfact>
</mgrwt>
</event>
<event>
12    6  0.9491186E-008  0.1541838E+04  0.7818608E-02  0.8857098E-01
         -1   -1    0    0    0  501 -0.00000000000E+00  0.00000000000E+00  0.14468340370E+04  0.14468340370E+04  0.00000000000E+00 0.  1.
          2   -1    0    0  501    0  0.00000000000E+00 -0.00000000000E+00 -0.41077010942E+03  0.41077010942E+03  0.00000000000E+00 0. -1.
         24    2    1    2    0    0  0.38175588516E+03  0.20437792622E+03  0.66235088668E+03  0.79548047705E+03  0.81071571405E+02 0.  0.
        254    2    1    2    0    0 -0.38175588516E+03 -0.20437792622E+03  0.37371304094E+03  0.10621236694E+04  0.89495103754E+03 0.  0.
         23    2    4    4    0    0 -0.44319802728E+03 -0.15418945474E+03 -0.16718495920E+03  0.50586229215E+03  0.88016865968E+02 0.  0.
         23    2    4    4    0    0  0.61442142120E+02 -0.50188471483E+02  0.54089800015E+03  0.55626137727E+03  0.10277185309E+03 0.  0.
          2    1    3    3  502    0  0.47744325265E+02  0.45213610414E+01  0.45616072004E+02  0.66187531498E+02  0.00000000000E+00 0. -1.
         -1    1    3    3    0  502  0.33401155990E+03  0.19985656518E+03  0.61673481468E+03  0.72929294555E+03  0.00000000000E+00 0.  1.
         11    1    5    5    0    0 -0.60920716222E+02 -0.29246958568E+02  0.62840868620E+01  0.67869050370E+02  0.00000000000E+00 0. -1.
        -11    1    5    5    0    0 -0.38227731106E+03 -0.12494249617E+03 -0.17346904607E+03  0.43799324178E+03  0.00000000000E+00 0.  1.
          1    1    6    6  503    0  0.55936418022E+01  0.22159173835E+02  0.32607050573E+02  0.39818809133E+02  0.00000000000E+00 0. -1.
         -1    1    6    6    0  503  0.55848500317E+02 -0.72347645318E+02  0.50829094957E+03  0.51644256814E+03  0.00000000000E+00 0.  1.
<mgrwt>
<rscale>  0 0.15418381E+04</rscale>
<asrwt>0</asrwt>
<pdfrwt beam="1">  1        2 0.63195402E-01 0.15418381E+04</pdfrwt>
<pdfrwt beam="2">  1       -1 0.22258985E+00 0.15418381E+04</pdfrwt>
<totfact> 0.89896844E+00</totfact>
</mgrwt>
</event>
<event>
12    6  0.9491186E-008  0.1306892E+04  0.7818608E-02  0.9024117E-01
          2   -1    0    0  501    0  0.00000000000E+00  0.00000000000E+00  0.17825413661E+04  0.17825413661E+04  0.00000000000E+00 0. -1.
         -1   -1    0    0    0  501 -0.00000000000E+00 -0.00000000000E+00 -0.23954100738E+03  0.23954100738E+03  0.00000000000E+00 0.  1.
         24    2    1    2    0    0 -0.10960535928E+03 -0.14901831353E+02  0.91053122807E+03  0.92043259778E+03  0.76770113984E+02 0.  0.
        254    2    1    2    0    0  0.10960535928E+03  0.14901831353E+02  0.63246913065E+03  0.11016497757E+04  0.89519809412E+03 0.  0.
         23    2    4    4    0    0 -0.58455717007E+02 -0.38018796256E+03  0.92791174380E+02  0.40597325701E+03  0.90797167588E+02 0.  0.
         23    2    4    4    0    0  0.16806107628E+03  0.39508979391E+03  0.53967795627E+03  0.69567651869E+03  0.91504380013E+02 0.  0.
          4    1    3    3  502    0 -0.12075861848E+03 -0.77783430472E+01  0.83987481840E+03  0.84854749846E+03  0.00000000000E+00 0. -1.
         -3    1    3    3    0  502  0.11153259207E+02 -0.71234883055E+01  0.70656409672E+02  0.71885099321E+02  0.00000000000E+00 0.  1.
         11    1    5    5    0    0 -0.31473760800E+02 -0.34994640985E+03  0.98837964410E+02  0.36499593230E+03  0.00000000000E+00 0. -1.
        -11    1    5    5    0    0 -0.26981956208E+02 -0.30241552702E+02 -0.60467900297E+01  0.40977324709E+02  0.00000000000E+00 0.  1.
          1    1    6    6  503    0  0.50515014245E+02  0.19273622557E+03  0.30457695267E+03  0.36395898040E+03  0.00000000000E+00 0. -1.
         -1    1    6    6    0  503  0.11754606204E+03  0.20235356834E+03  0.23510100359E+03  0.33171753829E+03  0.00000000000E+00 0.  1.
<mgrwt>
<rscale>  0 0.13068921E+04</rscale>
<asrwt>0</asrwt>
<pdfrwt beam="1">  1        2 0.27423712E+00 0.13068921E+04</pdfrwt>
<pdfrwt beam="2">  1       -1 0.36852464E-01 0.13068921E+04</pdfrwt>
<totfact> 0.69642490E+01</totfact>
</mgrwt>
</event>
<event>
12    6  0.9491186E-008  0.1220939E+04  0.7818608E-02  0.9094724E-01
          2   -1    0    0  501    0  0.00000000000E+00  0.00000000000E+00  0.15638155069E+04  0.15638155069E+04  0.00000000000E+00 0. -1.
         -1   -1    0    0    0  501 -0.00000000000E+00 -0.00000000000E+00 -0.23830991238E+03  0.23830991238E+03  0.00000000000E+00 0.  1.
         24    2    1    2    0    0  0.82812268333E+02 -0.10532971992E+03  0.66019020105E+03  0.67834177943E+03  0.79650778273E+02 0.  0.
        254    2    1    2    0    0 -0.82812268333E+02  0.10532971992E+03  0.66531539345E+03  0.11237836398E+04  0.89570802981E+03 0.  0.
         23    2    4    4    0    0 -0.19327338990E+02  0.18536429985E+03 -0.17566510672E+03  0.27197301496E+03  0.91529347497E+02 0.  0.
         23    2    4    4    0    0 -0.63484929343E+02 -0.80034579935E+02  0.84098050017E+03  0.85181062485E+03  0.88866578124E+02 0.  0.
          4    1    3    3  502    0  0.97777787234E+02 -0.98898352163E+02  0.60616998689E+03  0.62191915290E+03  0.00000000000E+00 0. -1.
         -3    1    3    3    0  502 -0.14965518902E+02 -0.64313677536E+01  0.54020214151E+02  0.56422626526E+02  0.00000000000E+00 0.  1.
         11    1    5    5    0    0 -0.12925938774E+02  0.19259043296E+02  0.77348541663E+01  0.24450329463E+02  0.00000000000E+00 0. -1.
        -11    1    5    5    0    0 -0.64014002151E+01  0.16610525656E+03 -0.18339996089E+03  0.24752268550E+03  0.00000000000E+00 0.  1.
          1    1    6    6  503    0  0.15117658743E+02 -0.36432996223E+02  0.15385739093E+03  0.15883325711E+03  0.00000000000E+00 0. -1.
         -1    1    6    6    0  503 -0.78602588086E+02 -0.43601583712E+02  0.68712310924E+03  0.69297736774E+03  0.00000000000E+00 0.  1.
<mgrwt>
<rscale>  0 0.12209386E+04</rscale>
<asrwt>0</asrwt>
<pdfrwt beam="1">  1        2 0.24058699E+00 0.12209386E+04</pdfrwt>
<pdfrwt beam="2">  1       -1 0.36663064E-01 0.12209386E+04</pdfrwt>
<totfact> 0.93601554E+01</totfact>
</mgrwt>
</event>
<event>
12    6  0.9491186E-008  0.1318762E+04  0.7818608E-02  0.9014818E-01
         -1   -1    0    0    0  501 -0.00000000000E+00  0.00000000000E+00  0.22986320324E+03  0.22986320324E+03  0.00000000000E+00 0.  1.
          2   -1    0    0  501    0  0.00000000000E+00 -0.00000000000E+00 -0.18914863012E+04  0.18914863012E+04  0.00000000000E+00 0. -1.
         24    2    1    2    0    0  0.29521721795E+02  0.27282114136E+03 -0.10182386117E+03  0.30315827370E+03  0.78955259343E+02 0.  0.
        254    2    1    2    0    0 -0.29521721795E+02 -0.27282114136E+03 -0.15597992368E+04  0.18181912307E+04  0.89305250977E+03 0.  0.
         23    2    4    4    0    0  0.27043213948E+03 -0.47946345963E+03 -0.90644040129E+03  0.10644500644E+04  0.91656900510E+02 0.  0.
         23    2    4    4    0    0 -0.29995386128E+03  0.20664231827E+03 -0.65335883550E+03  0.75374116630E+03  0.92599196816E+02 0.  0.
          2    1    3    3  502    0 -0.11654666286E+02  0.98729411479E+01 -0.19078641682E+02  0.24439737756E+02  0.00000000000E+00 0. -1.
         -1    1    3    3    0  502  0.41176388081E+02  0.26294820021E+03 -0.82745219488E+02  0.27871853594E+03  0.00000000000E+00 0.  1.
         11    1    5    5    0    0  0.46971562009E+02 -0.15740043004E+03 -0.22990557851E+03  0.28255583173E+03  0.00000000000E+00 0. -1.
        -11    1    5    5    0    0  0.22346057747E+03 -0.32206302959E+03 -0.67653482278E+03  0.78189423271E+03  0.00000000000E+00 0.  1.
          1    1    6    6  503    0 -0.58409308619E+02  0.13462975179E+01 -0.89498136026E+02  0.10688019556E+03  0.00000000000E+00 0. -1.
         -1    1    6    6    0  503 -0.24154455266E+03  0.20529602075E+03 -0.56386069948E+03  0.64686097074E+03  0.00000000000E+00 0.  1.
<mgrwt>
<rscale>  0 0.13187617E+04</rscale>
<asrwt>0</asrwt>
<pdfrwt beam="1">  1        2 0.29099788E+00 0.13187617E+04</pdfrwt>
<pdfrwt beam="2">  1       -1 0.35363571E-01 0.13187617E+04</pdfrwt>
<totfact> 0.65231457E+01</totfact>
</mgrwt>
</event>
<event>
12    6  0.9491186E-008  0.2451455E+04  0.7818608E-02  0.8420487E-01
         -1   -1    0    0    0  501 -0.00000000000E+00  0.00000000000E+00  0.10260725695E+04  0.10260725695E+04  0.00000000000E+00 0.  1.
          2   -1    0    0  501    0  0.00000000000E+00 -0.00000000000E+00 -0.14642315258E+04  0.14642315258E+04  0.00000000000E+00 0. -1.
         24    2    1    2    0    0 -0.33772960712E+03 -0.77036658795E+03  0.47175379186E+03  0.96740651711E+03  0.76143035526E+02 0.  0.
        254    2    1    2    0    0  0.33772960712E+03  0.77036658795E+03 -0.90991274821E+03  0.15228975782E+04  0.88529647966E+03 0.  0.
         23    2    4    4    0    0 -0.11236413470E+03  0.71570477273E+03 -0.71236606873E+03  0.10200434911E+04  0.90356445924E+02 0.  0.
         23    2    4    4    0    0  0.45009374181E+03  0.54661815218E+02 -0.19754667947E+03  0.50285408710E+03  0.90913430661E+02 0.  0.
          4    1    3    3  502    0 -0.54242961314E+02 -0.18743588618E+03  0.13173362592E+03  0.23543206765E+03  0.00000000000E+00 0. -1.
         -3    1    3    3    0  502 -0.28348664580E+03 -0.58293070177E+03  0.34002016593E+03  0.73197444946E+03  0.00000000000E+00 0.  1.
         11    1    5    5    0    0 -0.73997049505E+02  0.25879818237E+03 -0.30402345826E+03  0.40605704736E+03  0.00000000000E+00 0. -1.
        -11    1    5    5    0    0 -0.38367085191E+02  0.45690659036E+03 -0.40834261047E+03  0.61398644372E+03  0.00000000000E+00 0.  1.
          4    1    6    6  503    0  0.28026263833E+03  0.81643559938E+00 -0.15257447901E+03  0.31910309409E+03  0.00000000000E+00 0.  1.
         -4    1    6    6    0  503  0.16983110348E+03  0.53845379619E+02 -0.44972200460E+02  0.18375099300E+03  0.00000000000E+00 0. -1.
<mgrwt>
<rscale>  0 0.24514549E+04</rscale>
<asrwt>0</asrwt>
<pdfrwt beam="1">  1        2 0.22526639E+00 0.24514549E+04</pdfrwt>
<pdfrwt beam="2">  1       -1 0.15785732E+00 0.24514549E+04</pdfrwt>
<totfact> 0.41165026E+00</totfact>
</mgrwt>
</event>
<event>
12    6  0.9491186E-008  0.1976122E+04  0.7818608E-02  0.8617866E-01
         -1   -1    0    0    0  501 -0.00000000000E+00  0.00000000000E+00  0.19592806728E+04  0.19592806728E+04  0.00000000000E+00 0.  1.
          2   -1    0    0  501    0  0.00000000000E+00 -0.00000000000E+00 -0.49827707914E+03  0.49827707914E+03  0.00000000000E+00 0. -1.
         24    2    1    2    0    0  0.28550864152E+03  0.57951873625E+03  0.11282219786E+04  0.13028024058E+04  0.83976934902E+02 0.  0.
        254    2    1    2    0    0 -0.28550864152E+03 -0.57951873625E+03  0.33278161510E+03  0.11547553461E+04  0.89741804977E+03 0.  0.
         23    2    4    4    0    0  0.10942250062E+03 -0.67005594283E+03  0.14362879651E+03  0.69889346955E+03  0.82913210247E+02 0.  0.
         23    2    4    4    0    0 -0.39493114213E+03  0.90537206584E+02  0.18915281859E+03  0.45586187659E+03  0.88677330506E+02 0.  0.
          2    1    3    3  502    0  0.13275323005E+03  0.23322924565E+03  0.39312108473E+03  0.47598685735E+03  0.00000000000E+00 0. -1.
         -1    1    3    3    0  502  0.15275541147E+03  0.34628949060E+03  0.73510089388E+03  0.82681554848E+03  0.00000000000E+00 0.  1.
         11    1    5    5    0    0  0.46775204549E+02 -0.10010122446E+03  0.18869004773E+02  0.11209020582E+03  0.00000000000E+00 0. -1.
        -11    1    5    5    0    0  0.62647296067E+02 -0.56995471837E+03  0.12475979173E+03  0.58680326373E+03  0.00000000000E+00 0.  1.
          3    1    6    6  503    0 -0.49506934643E+02 -0.17800183931E+02  0.20080371071E+02  0.56311672218E+02  0.00000000000E+00 0. -1.
         -3    1    6    6    0  503 -0.34542420749E+03  0.10833739051E+03  0.16907244752E+03  0.39955020437E+03  0.00000000000E+00 0.  1.
<mgrwt>
<rscale>  0 0.19761221E+04</rscale>
<asrwt>0</asrwt>
<pdfrwt beam="1">  1        2 0.76658013E-01 0.19761221E+04</pdfrwt>
<pdfrwt beam="2">  1       -1 0.30142779E+00 0.19761221E+04</pdfrwt>
<totfact> 0.21272163E+00</totfact>
</mgrwt>
</event>
<event>
12    6  0.9491186E-008  0.2147429E+04  0.7818608E-02  0.8540633E-01
         -1   -1    0    0    0  501 -0.00000000000E+00  0.00000000000E+00  0.33243737359E+03  0.33243737359E+03  0.00000000000E+00 0.  1.
          2   -1    0    0  501    0  0.00000000000E+00 -0.00000000000E+00 -0.34679113383E+04  0.34679113383E+04  0.00000000000E+00 0. -1.
         24    2    1    2    0    0  0.63287406195E+03  0.39242100877E+03 -0.44359038091E+03  0.87047967293E+03  0.80240940481E+02 0.  0.
        254    2    1    2    0    0 -0.63287406195E+03 -0.39242100877E+03 -0.26918835838E+04  0.29298690390E+04  0.88508278162E+03 0.  0.
         23    2    4    4    0    0 -0.13986596623E+02 -0.26173077629E+03 -0.18598514743E+04  0.18805743494E+04  0.93881591377E+02 0.  0.
         23    2    4    4    0    0 -0.61888746533E+03 -0.13069023248E+03 -0.83203210953E+03  0.10492946895E+04  0.92953120473E+02 0.  0.
          4    1    3    3  502    0  0.58671848953E+01  0.74650175092E+01 -0.18401286414E+02  0.20706464853E+02  0.00000000000E+00 0. -1.
         -3    1    3    3    0  502  0.62700687705E+03  0.38495599126E+03 -0.42518909450E+03  0.84977320808E+03  0.00000000000E+00 0.  1.
         11    1    5    5    0    0 -0.87792933537E+01 -0.20472883144E+03 -0.11260173530E+04  0.11445112711E+04  0.00000000000E+00 0.  1.
        -11    1    5    5    0    0 -0.52073032690E+01 -0.57001944851E+02 -0.73383412127E+03  0.73606307832E+03  0.00000000000E+00 0. -1.
          4    1    6    6  503    0 -0.85031296229E+02 -0.39074926669E+02 -0.84052733723E+02  0.12578566404E+03  0.00000000000E+00 0. -1.
         -4    1    6    6    0  503 -0.53385616910E+03 -0.91615305810E+02 -0.74797937580E+03  0.92350902549E+03  0.00000000000E+00 0.  1.
<mgrwt>
<rscale>  0 0.21474295E+04</rscale>
<asrwt>0</asrwt>
<pdfrwt beam="1">  1        2 0.53352484E+00 0.21474295E+04</pdfrwt>
<pdfrwt beam="2">  1       -1 0.51144210E-01 0.21474295E+04</pdfrwt>
<totfact> 0.34505032E+00</totfact>
</mgrwt>
</event>
<event>
12    6  0.9491186E-008  0.1673727E+04  0.7818608E-02  0.8776492E-01
         -1   -1    0    0    0  501 -0.00000000000E+00  0.00000000000E+00  0.73676782949E+03  0.73676782949E+03  0.00000000000E+00 0.  1.
          2   -1    0    0  501    0  0.00000000000E+00 -0.00000000000E+00 -0.95055804536E+03  0.95055804536E+03  0.00000000000E+00 0. -1.
         24    2    1    2    0    0 -0.15144389605E+03 -0.12546824772E+03 -0.62849874797E+03  0.66332366101E+03  0.79435937805E+02 0.  0.
        254    2    1    2    0    0  0.15144389605E+03  0.12546824772E+03  0.41470853210E+03  0.10240022138E+04  0.91537961116E+03 0.  0.
         23    2    4    4    0    0  0.34565147280E+03  0.14299938722E+03  0.61737664782E+03  0.72755460407E+03  0.90873600328E+02 0.  0.
         23    2    4    4    0    0 -0.19420757676E+03 -0.17531139501E+02 -0.20266811572E+03  0.29644760977E+03  0.93717108823E+02 0.  0.
          4    1    3    3  502    0 -0.87655152120E+02 -0.10573098696E+03 -0.32982918112E+03  0.35728106026E+03  0.00000000000E+00 0. -1.
         -3    1    3    3    0  502 -0.63788743925E+02 -0.19737260761E+02 -0.29866956685E+03  0.30604260075E+03  0.00000000000E+00 0.  1.
         11    1    5    5    0    0  0.31680202895E+03  0.15619902179E+03  0.56584931781E+03  0.66704355961E+03  0.00000000000E+00 0.  1.
        -11    1    5    5    0    0  0.28849443852E+02 -0.13199634573E+02  0.51527330010E+02  0.60511044457E+02  0.00000000000E+00 0. -1.
          3    1    6    6  503    0 -0.18671015459E+02 -0.19862574777E+01  0.91678954768E+01  0.20895031575E+02  0.00000000000E+00 0. -1.
         -3    1    6    6    0  503 -0.17553656130E+03 -0.15544882023E+02 -0.21183601120E+03  0.27555257820E+03  0.00000000000E+00 0.  1.
<mgrwt>
<rscale>  0 0.16737271E+04</rscale>
<asrwt>0</asrwt>
<pdfrwt beam="1">  1        2 0.14623970E+00 0.16737271E+04</pdfrwt>
<pdfrwt beam="2">  1       -1 0.11334890E+00 0.16737271E+04</pdfrwt>
<totfact> 0.20977826E+01</totfact>
</mgrwt>
</event>
<event>
12    6  0.9491186E-008  0.1459081E+04  0.7818608E-02  0.8912129E-01
          2   -1    0    0  501    0  0.00000000000E+00  0.00000000000E+00  0.15664687746E+04  0.15664687746E+04  0.00000000000E+00 0. -1.
         -1   -1    0    0    0  501 -0.00000000000E+00 -0.00000000000E+00 -0.33976385316E+03  0.33976385316E+03  0.00000000000E+00 0.  1.
         24    2    1    2    0    0 -0.45430983622E+02 -0.22472679805E+03 -0.12126389949E+03  0.27135227089E+03  0.79755962567E+02 0.  0.
        254    2    1    2    0    0  0.45430983622E+02  0.22472679805E+03  0.13479688209E+04  0.16348803569E+04  0.89624088897E+03 0.  0.
         23    2    4    4    0    0  0.40797037239E+03 -0.34979827085E+02  0.38320879744E+03  0.56805456949E+03  0.90407955593E+02 0.  0.
         23    2    4    4    0    0 -0.36253938877E+03  0.25970662513E+03  0.96476002348E+03  0.10668257874E+04  0.92048998696E+02 0.  0.
          2    1    3    3  502    0 -0.18583055705E+02 -0.11942743384E+02  0.47582666655E+01  0.22596463895E+02  0.00000000000E+00 0. -1.
         -1    1    3    3    0  502 -0.26847927917E+02 -0.21278405466E+03 -0.12602216615E+03  0.24875580700E+03  0.00000000000E+00 0.  1.
         11    1    5    5    0    0  0.15672115245E+03 -0.35392457348E+02  0.99035686902E+02  0.18873847764E+03  0.00000000000E+00 0.  1.
        -11    1    5    5    0    0  0.25124921994E+03  0.41263026324E+00  0.28417311053E+03  0.37931609185E+03  0.00000000000E+00 0. -1.
          1    1    6    6  503    0 -0.46937949837E+02  0.40804879049E+02  0.73214654365E+02  0.96065576056E+02  0.00000000000E+00 0. -1.
         -1    1    6    6    0  503 -0.31560143893E+03  0.21890174608E+03  0.89154536912E+03  0.97076021132E+03  0.00000000000E+00 0.  1.
<mgrwt>
<rscale>  0 0.14590812E+04</rscale>
<asrwt>0</asrwt>
<pdfrwt beam="1">  1        2 0.24099519E+00 0.14590812E+04</pdfrwt>
<pdfrwt beam="2">  1       -1 0.52271363E-01 0.14590812E+04</pdfrwt>
<totfact> 0.47400770E+01</totfact>
</mgrwt>
</event>
<event>
12    6  0.9491186E-008  0.2482506E+04  0.7818608E-02  0.8409244E-01
         -1   -1    0    0    0  501 -0.00000000000E+00  0.00000000000E+00  0.14044099671E+04  0.14044099671E+04  0.00000000000E+00 0.  1.
          2   -1    0    0  501    0  0.00000000000E+00 -0.00000000000E+00 -0.10970509353E+04  0.10970509353E+04  0.00000000000E+00 0. -1.
         24    2    1    2    0    0 -0.36420896922E+03  0.70097230972E+03 -0.60623464825E+03  0.99892615249E+03  0.79515137756E+02 0.  0.
        254    2    1    2    0    0  0.36420896922E+03 -0.70097230972E+03  0.91359367997E+03  0.15025347499E+04  0.89383830215E+03 0.  0.
         23    2    4    4    0    0  0.60004456973E+03 -0.46161283271E+03  0.34625837787E+03  0.83680335475E+03  0.84882844446E+02 0.  0.
         23    2    4    4    0    0 -0.23583560051E+03 -0.23935947701E+03  0.56733530210E+03  0.66573139518E+03  0.91747238733E+02 0.  0.
          2    1    3    3  502    0 -0.16152730408E+03  0.24515530874E+03 -0.19523003327E+03  0.35257192352E+03  0.00000000000E+00 0. -1.
         -1    1    3    3    0  502 -0.20268166515E+03  0.45581700098E+03 -0.41100461498E+03  0.64635422897E+03  0.00000000000E+00 0.  1.
         11    1    5    5    0    0  0.53248852736E+03 -0.37245466004E+03  0.30066670171E+03  0.71600766132E+03  0.00000000000E+00 0. -1.
        -11    1    5    5    0    0  0.67556042373E+02 -0.89158172665E+02  0.45591676161E+02  0.12079569342E+03  0.00000000000E+00 0.  1.
          4    1    6    6  503    0 -0.19590701942E+03 -0.15241457890E+03  0.35870938215E+03  0.43621346261E+03  0.00000000000E+00 0. -1.
         -4    1    6    6    0  503 -0.39928581087E+02 -0.86944898113E+02  0.20862591995E+03  0.22951793257E+03  0.00000000000E+00 0.  1.
<mgrwt>
<rscale>  0 0.24825062E+04</rscale>
<asrwt>0</asrwt>
<pdfrwt beam="1">  1        2 0.16877707E+00 0.24825062E+04</pdfrwt>
<pdfrwt beam="2">  1       -1 0.21606307E+00 0.24825062E+04</pdfrwt>
<totfact> 0.26053093E+00</totfact>
</mgrwt>
</event>
<event>
12    6  0.9491186E-008  0.1929158E+04  0.7818608E-02  0.8640477E-01
         -1   -1    0    0    0  501 -0.00000000000E+00  0.00000000000E+00  0.62330455730E+03  0.62330455730E+03  0.00000000000E+00 0.  1.
          2   -1    0    0  501    0  0.00000000000E+00 -0.00000000000E+00 -0.14927097907E+04  0.14927097907E+04  0.00000000000E+00 0. -1.
         24    2    1    2    0    0  0.67540889341E+03 -0.32199398985E+03 -0.29445017779E+03  0.80817489232E+03  0.81169246467E+02 0.  0.
        254    2    1    2    0    0 -0.67540889341E+03  0.32199398985E+03 -0.57495505565E+03  0.13078394557E+04  0.90554592547E+03 0.  0.
         23    2    4    4    0    0 -0.20572460098E+02  0.26901186843E+03  0.15245498211E+03  0.32351566919E+03  0.92893784352E+02 0.  0.
         23    2    4    4    0    0 -0.65483643331E+03  0.52982121424E+02 -0.72741003777E+03  0.98432378653E+03  0.90277871635E+02 0.  0.
          2    1    3    3  502    0  0.30365243360E+02 -0.12515601836E+02  0.37843514849E+01  0.33060695846E+02  0.00000000000E+00 0. -1.
         -1    1    3    3    0  502  0.64504365005E+03 -0.30947838802E+03 -0.29823452928E+03  0.77511419647E+03  0.00000000000E+00 0.  1.
         11    1    5    5    0    0  0.29574111234E+02  0.73689071297E+02  0.69284088346E+02  0.10538022671E+03  0.00000000000E+00 0.  1.
        -11    1    5    5    0    0 -0.50146571332E+02  0.19532279713E+03  0.83170893768E+02  0.21813544248E+03  0.00000000000E+00 0. -1.
          1    1    6    6  503    0 -0.65739768260E+03  0.54753813781E+02 -0.72588504097E+03  0.98085614945E+03  0.00000000000E+00 0.  1.
         -1    1    6    6    0  503  0.25612492851E+01 -0.17716923573E+01 -0.15249967941E+01  0.34676370818E+01  0.00000000000E+00 0. -1.
<mgrwt>
<rscale>  0 0.19291582E+04</rscale>
<asrwt>0</asrwt>
<pdfrwt beam="1">  1        2 0.22964766E+00 0.19291582E+04</pdfrwt>
<pdfrwt beam="2">  1       -1 0.95893009E-01 0.19291582E+04</pdfrwt>
<totfact> 0.14304380E+01</totfact>
</mgrwt>
</event>
<event>
12    6  0.9491186E-008  0.6436437E+04  0.7818608E-02  0.7638525E-01
         -1   -1    0    0    0  501 -0.00000000000E+00  0.00000000000E+00  0.48079048322E+04  0.48079048322E+04  0.00000000000E+00 0.  1.
          2   -1    0    0  501    0  0.00000000000E+00 -0.00000000000E+00 -0.21541463403E+04  0.21541463403E+04  0.00000000000E+00 0. -1.
         24    2    1    2    0    0  0.21192362082E+04 -0.19651030213E+04  0.26649441541E+04  0.39320594124E+04  0.79824105674E+02 0.  0.
        254    2    1    2    0    0 -0.21192362082E+04  0.19651030213E+04 -0.11185662194E+02  0.30299917601E+04  0.90990821321E+03 0.  0.
         23    2    4    4    0    0 -0.42809596140E+03  0.90475327493E+03 -0.19325848899E+03  0.10234802571E+04  0.91205002453E+02 0.  0.
         23    2    4    4    0    0 -0.16911402468E+04  0.10603497464E+04  0.18207282680E+03  0.20065115029E+04  0.92956862133E+02 0.  0.
          2    1    3    3  502    0  0.43151384093E+03 -0.44479354640E+03  0.57100793530E+03  0.84267167747E+03  0.00000000000E+00 0. -1.
         -1    1    3    3    0  502  0.16877223673E+04 -0.15203094749E+04  0.20939362188E+04  0.30893877350E+04  0.00000000000E+00 0.  1.
         11    1    5    5    0    0 -0.31092133837E+03  0.70000049279E+03 -0.11268744874E+03  0.77419069334E+03  0.00000000000E+00 0. -1.
        -11    1    5    5    0    0 -0.11717462304E+03  0.20475278214E+03 -0.80571040256E+02  0.24928956378E+03  0.00000000000E+00 0.  1.
          3    1    6    6  503    0 -0.13054832440E+04  0.78585054346E+03  0.11054148800E+03  0.15277653608E+04  0.00000000000E+00 0. -1.
         -3    1    6    6    0  503 -0.38565700276E+03  0.27449920295E+03  0.71531338796E+02  0.47874614215E+03  0.00000000000E+00 0.  1.
<mgrwt>
<rscale>  0 0.64364371E+04</rscale>
<asrwt>0</asrwt>
<pdfrwt beam="1">  1        2 0.33140713E+00 0.64364371E+04</pdfrwt>
<pdfrwt beam="2">  1       -1 0.73967766E+00 0.64364371E+04</pdfrwt>
<totfact> 0.58471099E-04</totfact>
</mgrwt>
</event>
<event>
12    6  0.9491186E-008  0.2255303E+04  0.7818608E-02  0.8495756E-01
          2   -1    0    0  501    0  0.00000000000E+00  0.00000000000E+00  0.80706394447E+03  0.80706394447E+03  0.00000000000E+00 0. -1.
         -1   -1    0    0    0  501 -0.00000000000E+00 -0.00000000000E+00 -0.15755843952E+04  0.15755843952E+04  0.00000000000E+00 0.  1.
         24    2    1    2    0    0  0.26243862930E+03  0.30184583785E+03 -0.12334070182E+04  0.12989134791E+04  0.76801105009E+02 0.  0.
        254    2    1    2    0    0 -0.26243862930E+03 -0.30184583785E+03  0.46488656746E+03  0.10837348606E+04  0.89351932458E+03 0.  0.
         23    2    4    4    0    0 -0.11314384694E+03 -0.15641856688E+03  0.71477952314E+03  0.74512749170E+03  0.83886316034E+02 0.  0.
         23    2    4    4    0    0 -0.14929478236E+03 -0.14542727097E+03 -0.24989295568E+03  0.33860736886E+03  0.93650615389E+02 0.  0.
          2    1    3    3  502    0  0.26746451322E+02  0.91987219078E+01 -0.13746155174E+03  0.14034125320E+03  0.00000000000E+00 0. -1.
         -1    1    3    3    0  502  0.23569217798E+03  0.29264711594E+03 -0.10959454665E+04  0.11585722259E+04  0.00000000000E+00 0.  1.
         11    1    5    5    0    0 -0.11274467978E+03 -0.90629048653E+02  0.48431846004E+03  0.50545955132E+03  0.00000000000E+00 0. -1.
        -11    1    5    5    0    0 -0.39916716105E+00 -0.65789518225E+02  0.23046106310E+03  0.23966794038E+03  0.00000000000E+00 0.  1.
          1    1    6    6  503    0 -0.29046905495E+02 -0.89007418255E+02 -0.12593297340E+03  0.15692404855E+03  0.00000000000E+00 0. -1.
         -1    1    6    6    0  503 -0.12024787687E+03 -0.56419852720E+02 -0.12395998228E+03  0.18168332031E+03  0.00000000000E+00 0.  1.
<mgrwt>
<rscale>  0 0.22553025E+04</rscale>
<asrwt>0</asrwt>
<pdfrwt beam="1">  1        2 0.12416368E+00 0.22553025E+04</pdfrwt>
<pdfrwt beam="2">  1       -1 0.24239760E+00 0.22553025E+04</pdfrwt>
<totfact> 0.27630286E+00</totfact>
</mgrwt>
</event>
<event>
12    6  0.9491186E-008  0.1880398E+04  0.7818608E-02  0.8664676E-01
         -1   -1    0    0    0  501 -0.00000000000E+00  0.00000000000E+00  0.43346601491E+03  0.43346601491E+03  0.00000000000E+00 0.  1.
          2   -1    0    0  501    0  0.00000000000E+00 -0.00000000000E+00 -0.20393157127E+04  0.20393157127E+04  0.00000000000E+00 0. -1.
         24    2    1    2    0    0  0.57569537843E+03 -0.18732940770E+03 -0.11489581287E+04  0.13012199425E+04  0.80938752505E+02 0.  0.
        254    2    1    2    0    0 -0.57569537843E+03  0.18732940770E+03 -0.45689156908E+03  0.11715617850E+04  0.89291076516E+03 0.  0.
         23    2    4    4    0    0 -0.37988861330E+02 -0.23250363178E+03 -0.40720590836E+03  0.48128932449E+03  0.10159561846E+03 0.  0.
         23    2    4    4    0    0 -0.53770651710E+03  0.41983303948E+03 -0.49685660728E+02  0.69027246055E+03  0.92840321773E+02 0.  0.
          2    1    3    3  502    0  0.10415645630E+03 -0.26970176042E+02 -0.14553882900E+03  0.18099035480E+03  0.00000000000E+00 0. -1.
         -1    1    3    3    0  502  0.47153892213E+03 -0.16035923165E+03 -0.10034192997E+04  0.11202295877E+04  0.00000000000E+00 0.  1.
         11    1    5    5    0    0  0.30711367879E+02 -0.88492279890E+02 -0.11463926655E+03  0.14804132245E+03  0.00000000000E+00 0. -1.
        -11    1    5    5    0    0 -0.68700229209E+02 -0.14401135189E+03 -0.29256664181E+03  0.33324800204E+03  0.00000000000E+00 0.  1.
          2    1    6    6  503    0 -0.11782908376E+03  0.61333430032E+02 -0.37523239113E+02  0.13803432940E+03  0.00000000000E+00 0. -1.
         -2    1    6    6    0  503 -0.41987743334E+03  0.35849960944E+03 -0.12162421615E+02  0.55223813115E+03  0.00000000000E+00 0.  1.
<mgrwt>
<rscale>  0 0.18803979E+04</rscale>
<asrwt>0</asrwt>
<pdfrwt beam="1">  1        2 0.31374088E+00 0.18803979E+04</pdfrwt>
<pdfrwt beam="2">  1       -1 0.66687080E-01 0.18803979E+04</pdfrwt>
<totfact> 0.15459242E+01</totfact>
</mgrwt>
</event>
<event>
12    6  0.9491186E-008  0.1552711E+04  0.7818608E-02  0.8850138E-01
          2   -1    0    0  501    0  0.00000000000E+00  0.00000000000E+00  0.16593932586E+04  0.16593932586E+04  0.00000000000E+00 0. -1.
         -1   -1    0    0    0  501 -0.00000000000E+00 -0.00000000000E+00 -0.36322200516E+03  0.36322200516E+03  0.00000000000E+00 0.  1.
         24    2    1    2    0    0  0.33137294097E+03  0.62270581293E+01 -0.70332152263E+02  0.34721724763E+03  0.75936836561E+02 0.  0.
        254    2    1    2    0    0 -0.33137294097E+03 -0.62270581293E+01  0.13665034057E+04  0.16753980161E+04  0.91092269287E+03 0.  0.
         23    2    4    4    0    0 -0.42405939292E+03  0.36742723739E+03  0.72201008568E+03  0.91898594249E+03  0.91692176168E+02 0.  0.
         23    2    4    4    0    0  0.92686451948E+02 -0.37365429552E+03  0.64449332003E+03  0.75641207364E+03  0.92624373943E+02 0.  0.
          2    1    3    3  502    0  0.77439533911E+02 -0.27597019904E+02 -0.31863066051E+02  0.88168769403E+02  0.00000000000E+00 0. -1.
         -1    1    3    3    0  502  0.25393340706E+03  0.33824078034E+02 -0.38469086212E+02  0.25904847822E+03  0.00000000000E+00 0.  1.
         11    1    5    5    0    0 -0.37021145430E+03  0.31086469207E+03  0.66568909067E+03  0.82270003228E+03  0.00000000000E+00 0. -1.
        -11    1    5    5    0    0 -0.53847938618E+02  0.56562545320E+02  0.56320995008E+02  0.96285910211E+02  0.00000000000E+00 0.  1.
          1    1    6    6  503    0  0.42391762424E+02 -0.26364773495E+03  0.36855276689E+03  0.45512452323E+03  0.00000000000E+00 0. -1.
         -1    1    6    6    0  503  0.50294689524E+02 -0.11000656057E+03  0.27594055314E+03  0.30128755041E+03  0.00000000000E+00 0.  1.
<mgrwt>
<rscale>  0 0.15527114E+04</rscale>
<asrwt>0</asrwt>
<pdfrwt beam="1">  1        2 0.25529127E+00 0.15527114E+04</pdfrwt>
<pdfrwt beam="2">  1       -1 0.55880309E-01 0.15527114E+04</pdfrwt>
<totfact> 0.36692063E+01</totfact>
</mgrwt>
</event>
<event>
12    6  0.9491186E-008  0.1769987E+04  0.7818608E-02  0.8722425E-01
         -1   -1    0    0    0  501 -0.00000000000E+00  0.00000000000E+00  0.14129483755E+04  0.14129483755E+04  0.00000000000E+00 0.  1.
          2   -1    0    0  501    0  0.00000000000E+00 -0.00000000000E+00 -0.55431150784E+03  0.55431150784E+03  0.00000000000E+00 0. -1.
         24    2    1    2    0    0  0.13308030262E+03  0.49660062326E+03  0.78119232994E+03  0.93865693086E+03  0.80578108202E+02 0.  0.
        254    2    1    2    0    0 -0.13308030262E+03 -0.49660062326E+03  0.77444537698E+02  0.10286029525E+04  0.88752680605E+03 0.  0.
         23    2    4    4    0    0  0.35488658385E+03 -0.14616206382E+03  0.13703540457E+03  0.41768110122E+03  0.91492971927E+02 0.  0.
         23    2    4    4    0    0 -0.48796688647E+03 -0.35043855944E+03 -0.59590866874E+02  0.61092185125E+03  0.93571206531E+02 0.  0.
          4    1    3    3  502    0  0.54092844251E+02  0.13612893481E+03  0.16709529856E+03  0.22221152421E+03  0.00000000000E+00 0. -1.
         -3    1    3    3    0  502  0.78987458364E+02  0.36047168845E+03  0.61409703138E+03  0.71644540664E+03  0.00000000000E+00 0.  1.
         11    1    5    5    0    0  0.28902186257E+03 -0.77106009887E+02  0.10347142807E+03  0.31652063161E+03  0.00000000000E+00 0. -1.
        -11    1    5    5    0    0  0.65864721279E+02 -0.69056053931E+02  0.33563976500E+02  0.10116046961E+03  0.00000000000E+00 0.  1.
          1    1    6    6  503    0 -0.44722238234E+03 -0.32470870456E+03 -0.28155081801E+02  0.55338622202E+03  0.00000000000E+00 0. -1.
         -1    1    6    6    0  503 -0.40744504127E+02 -0.25729854878E+02 -0.31435785073E+02  0.57535629238E+02  0.00000000000E+00 0.  1.
<mgrwt>
<rscale>  0 0.17699871E+04</rscale>
<asrwt>0</asrwt>
<pdfrwt beam="1">  1        2 0.85278694E-01 0.17699871E+04</pdfrwt>
<pdfrwt beam="2">  1       -1 0.21737667E+00 0.17699871E+04</pdfrwt>
<totfact> 0.67576359E+00</totfact>
</mgrwt>
</event>
<event>
12    6  0.9491186E-008  0.1903076E+04  0.7818608E-02  0.8653327E-01
         -1   -1    0    0    0  501 -0.00000000000E+00  0.00000000000E+00  0.66020789029E+03  0.66020789029E+03  0.00000000000E+00 0.  1.
          2   -1    0    0  501    0  0.00000000000E+00 -0.00000000000E+00 -0.13714232042E+04  0.13714232042E+04  0.00000000000E+00 0. -1.
         24    2    1    2    0    0 -0.73007873255E+03  0.94370839728E+02 -0.20851125643E+03  0.76898306181E+03  0.77053190608E+02 0.  0.
        254    2    1    2    0    0  0.73007873255E+03 -0.94370839728E+02 -0.50270405753E+03  0.12626480327E+04  0.89423032491E+03 0.  0.
         23    2    4    4    0    0 -0.47121638207E+01  0.26728055310E+03  0.25690975206E+02  0.28353964331E+03  0.90959356672E+02 0.  0.
         23    2    4    4    0    0  0.73479089637E+03 -0.36165139283E+03 -0.52839503273E+03  0.97910838942E+03  0.93501530999E+02 0.  0.
          4    1    3    3  502    0 -0.32747534217E+03  0.67513843979E+02 -0.64303558220E+02  0.34048959817E+03  0.00000000000E+00 0. -1.
         -3    1    3    3    0  502 -0.40260339037E+03  0.26856995749E+02 -0.14420769821E+03  0.42849346364E+03  0.00000000000E+00 0.  1.
         11    1    5    5    0    0  0.64338467074E+01  0.17150175903E+02  0.27633901746E+02  0.33153513278E+02  0.00000000000E+00 0.  1.
        -11    1    5    5    0    0 -0.11146010528E+02  0.25013037720E+03 -0.19429265398E+01  0.25038613003E+03  0.00000000000E+00 0. -1.
          1    1    6    6  503    0  0.69426321886E+03 -0.36354987565E+03 -0.50066646081E+03  0.92996603924E+03  0.00000000000E+00 0. -1.
         -1    1    6    6    0  503  0.40527677504E+02  0.18984828214E+01 -0.27728571921E+02  0.49142350185E+02  0.00000000000E+00 0.  1.
<mgrwt>
<rscale>  0 0.19030758E+04</rscale>
<asrwt>0</asrwt>
<pdfrwt beam="1">  1        2 0.21098819E+00 0.19030758E+04</pdfrwt>
<pdfrwt beam="2">  1       -1 0.10157044E+00 0.19030758E+04</pdfrwt>
<totfact> 0.14748180E+01</totfact>
</mgrwt>
</event>
<event>
12    6  0.9491186E-008  0.2463327E+04  0.7818608E-02  0.8416168E-01
         -1   -1    0    0    0  501 -0.00000000000E+00  0.00000000000E+00  0.97739460338E+03  0.97739460338E+03  0.00000000000E+00 0.  1.
          2   -1    0    0  501    0  0.00000000000E+00 -0.00000000000E+00 -0.15520806014E+04  0.15520806014E+04  0.00000000000E+00 0. -1.
         24    2    1    2    0    0 -0.89401520766E+03  0.47289158647E+03 -0.59691634090E+03  0.11768310686E+04  0.75713947844E+02 0.  0.
        254    2    1    2    0    0  0.89401520766E+03 -0.47289158647E+03  0.22230342838E+02  0.13526441362E+04  0.89792111403E+03 0.  0.
         23    2    4    4    0    0  0.28567197879E+03  0.25533713783E+03 -0.47435893555E+02  0.39685699011E+03  0.91868238154E+02 0.  0.
         23    2    4    4    0    0  0.60834322887E+03 -0.72822872430E+03  0.69666236394E+02  0.95578714611E+03  0.90978707261E+02 0.  0.
          2    1    3    3  502    0 -0.79032990117E+03  0.40201938578E+03 -0.54590085019E+03  0.10412726240E+04  0.00000000000E+00 0. -1.
         -1    1    3    3    0  502 -0.10368530649E+03  0.70872200690E+02 -0.51015490711E+02  0.13555844461E+03  0.00000000000E+00 0.  1.
         11    1    5    5    0    0  0.28360567209E+03  0.22699673623E+03 -0.55120271710E+02  0.36742065790E+03  0.00000000000E+00 0.  1.
        -11    1    5    5    0    0  0.20663066994E+01  0.28340401598E+02  0.76843781546E+01  0.29436332206E+02  0.00000000000E+00 0. -1.
          3    1    6    6  503    0  0.21060369650E+03 -0.18740376364E+03  0.20742886876E+02  0.28267358377E+03  0.00000000000E+00 0. -1.
         -3    1    6    6    0  503  0.39773953237E+03 -0.54082496065E+03  0.48923349517E+02  0.67311356234E+03  0.00000000000E+00 0.  1.
<mgrwt>
<rscale>  0 0.24633272E+04</rscale>
<asrwt>0</asrwt>
<pdfrwt beam="1">  1        2 0.23878163E+00 0.24633272E+04</pdfrwt>
<pdfrwt beam="2">  1       -1 0.15036840E+00 0.24633272E+04</pdfrwt>
<totfact> 0.41896234E+00</totfact>
</mgrwt>
</event>
<event>
12    6  0.9491186E-008  0.1658468E+04  0.7818608E-02  0.8785413E-01
          2   -1    0    0  501    0  0.00000000000E+00  0.00000000000E+00  0.18921685514E+04  0.18921685514E+04  0.00000000000E+00 0. -1.
         -1   -1    0    0    0  501 -0.00000000000E+00 -0.00000000000E+00 -0.36340780025E+03  0.36340780025E+03  0.00000000000E+00 0.  1.
         24    2    1    2    0    0  0.34559486475E+03  0.20208923008E+02  0.11844483813E+04  0.12365293608E+04  0.79010639913E+02 0.  0.
        254    2    1    2    0    0 -0.34559486475E+03 -0.20208923008E+02  0.34431236992E+03  0.10190469909E+04  0.89446159805E+03 0.  0.
         23    2    4    4    0    0 -0.21702566407E+03  0.51489965706E+02  0.63562049532E+03  0.67976593591E+03  0.91197358052E+02 0.  0.
         23    2    4    4    0    0 -0.12856920067E+03 -0.71698888714E+02 -0.29130812541E+03  0.33928105494E+03  0.92630666131E+02 0.  0.
          4    1    3    3  502    0  0.31369532741E+03  0.48858587269E+01  0.11187251165E+04  0.11618840374E+04  0.00000000000E+00 0. -1.
         -3    1    3    3    0  502  0.31899537336E+02  0.15323064281E+02  0.65723264789E+02  0.74645323469E+02  0.00000000000E+00 0.  1.
         11    1    5    5    0    0 -0.22221829414E+03  0.47263806315E+02  0.63307043448E+03  0.67260167458E+03  0.00000000000E+00 0.  1.
        -11    1    5    5    0    0  0.51926300610E+01  0.42261593914E+01  0.25500608473E+01  0.71642613350E+01  0.00000000000E+00 0. -1.
          3    1    6    6  503    0 -0.15073818111E+02 -0.30760134945E+02 -0.14267007418E+02  0.37107322659E+02  0.00000000000E+00 0. -1.
         -3    1    6    6    0  503 -0.11349538256E+03 -0.40938753768E+02 -0.27704111799E+03  0.30217373228E+03  0.00000000000E+00 0.  1.
<mgrwt>
<rscale>  0 0.16584677E+04</rscale>
<asrwt>0</asrwt>
<pdfrwt beam="1">  1        2 0.29110285E+00 0.16584677E+04</pdfrwt>
<pdfrwt beam="2">  1       -1 0.55908893E-01 0.16584677E+04</pdfrwt>
<totfact> 0.26990184E+01</totfact>
</mgrwt>
</event>
<event>
12    6  0.9491186E-008  0.1541030E+04  0.7818608E-02  0.8857618E-01
         -1   -1    0    0    0  501 -0.00000000000E+00  0.00000000000E+00  0.10522365406E+04  0.10522365406E+04  0.00000000000E+00 0.  1.
          2   -1    0    0  501    0  0.00000000000E+00 -0.00000000000E+00 -0.56422030907E+03  0.56422030907E+03  0.00000000000E+00 0. -1.
         24    2    1    2    0    0  0.10724979817E+03  0.48435174050E+03  0.28417587110E+03  0.57751571697E+03  0.81666087799E+02 0.  0.
        254    2    1    2    0    0 -0.10724979817E+03 -0.48435174050E+03  0.20384036047E+03  0.10389411328E+04  0.88980259442E+03 0.  0.
         23    2    4    4    0    0  0.26663798236E+03 -0.19302222481E+02 -0.16899928270E+03  0.32900111386E+03  0.90623318941E+02 0.  0.
         23    2    4    4    0    0 -0.37388778052E+03 -0.46504951802E+03  0.37283964317E+03  0.70994001890E+03  0.94563757714E+02 0.  0.
          4    1    3    3  502    0  0.59864989823E+02  0.12419374385E+03  0.99362391231E+02  0.16994348416E+03  0.00000000000E+00 0. -1.
         -3    1    3    3    0  502  0.47384808343E+02  0.36015799665E+03  0.18481347987E+03  0.40757223280E+03  0.00000000000E+00 0.  1.
         11    1    5    5    0    0  0.21251256865E+03  0.22265794951E+02 -0.13506528488E+03  0.25278447072E+03  0.00000000000E+00 0. -1.
        -11    1    5    5    0    0  0.54125413710E+02 -0.41568017432E+02 -0.33933997822E+02  0.76216643134E+02  0.00000000000E+00 0.  1.
          3    1    6    6  503    0 -0.24483294730E+03 -0.36698972719E+03  0.25512027254E+03  0.50961847044E+03  0.00000000000E+00 0. -1.
         -3    1    6    6    0  503 -0.12905483322E+03 -0.98059790827E+02  0.11771937063E+03  0.20032154846E+03  0.00000000000E+00 0.  1.
<mgrwt>
<rscale>  0 0.15410298E+04</rscale>
<asrwt>0</asrwt>
<pdfrwt beam="1">  1        2 0.86803125E-01 0.15410298E+04</pdfrwt>
<pdfrwt beam="2">  1       -1 0.16188254E+00 0.15410298E+04</pdfrwt>
<totfact> 0.16625328E+01</totfact>
</mgrwt>
</event>
<event>
12    6  0.9491186E-008  0.2841931E+04  0.7818608E-02  0.8290367E-01
          2   -1    0    0  501    0  0.00000000000E+00  0.00000000000E+00  0.26683135447E+04  0.26683135447E+04  0.00000000000E+00 0. -1.
         -1   -1    0    0    0  501 -0.00000000000E+00 -0.00000000000E+00 -0.75671129330E+03  0.75671129330E+03  0.00000000000E+00 0.  1.
         24    2    1    2    0    0  0.60848906238E+03  0.11031162232E+04  0.11109203145E+04  0.16815960603E+04  0.80604119278E+02 0.  0.
        254    2    1    2    0    0 -0.60848906238E+03 -0.11031162232E+04  0.80068193698E+03  0.17434287777E+04  0.90073747453E+03 0.  0.
         23    2    4    4    0    0 -0.38301575028E+03 -0.10114143103E+03 -0.45135603440E+02  0.40967771732E+03  0.94169821827E+02 0.  0.
         23    2    4    4    0    0 -0.22547331211E+03 -0.10019747921E+04  0.84581754042E+03  0.13337510604E+04  0.93235620655E+02 0.  0.
          4    1    3    3  502    0  0.29454609137E+02  0.47452591745E+02  0.29272997073E+02  0.63057361349E+02  0.00000000000E+00 0. -1.
         -3    1    3    3    0  502  0.57903445324E+03  0.10556636314E+04  0.10816473174E+04  0.16185386989E+04  0.00000000000E+00 0.  1.
         11    1    5    5    0    0 -0.16696907647E+02  0.14135119077E+02  0.48545877270E+01  0.22408822778E+02  0.00000000000E+00 0. -1.
        -11    1    5    5    0    0 -0.36631884263E+03 -0.11527655011E+03 -0.49990191167E+02  0.38726889455E+03  0.00000000000E+00 0.  1.
          4    1    6    6  503    0 -0.15972784927E+02 -0.15713846885E+03  0.95530040652E+02  0.18459040310E+03  0.00000000000E+00 0. -1.
         -4    1    6    6    0  503 -0.20950052718E+03 -0.84483632329E+03  0.75028749977E+03  0.11491606573E+04  0.00000000000E+00 0.  1.
<mgrwt>
<rscale>  0 0.28419310E+04</rscale>
<asrwt>0</asrwt>
<pdfrwt beam="1">  1        2 0.41050977E+00 0.28419310E+04</pdfrwt>
<pdfrwt beam="2">  1       -1 0.11641712E+00 0.28419310E+04</pdfrwt>
<totfact> 0.18211961E+00</totfact>
</mgrwt>
</event>
<event>
12    6  0.9491186E-008  0.1902629E+04  0.7818608E-02  0.8653549E-01
          2   -1    0    0  501    0  0.00000000000E+00  0.00000000000E+00  0.62620152629E+03  0.62620152629E+03  0.00000000000E+00 0. -1.
         -1   -1    0    0    0  501 -0.00000000000E+00 -0.00000000000E+00 -0.14452206298E+04  0.14452206298E+04  0.00000000000E+00 0.  1.
         24    2    1    2    0    0  0.49942943697E+02  0.36844154875E+03  0.37462636927E+03  0.53343455541E+03  0.77227170588E+02 0.  0.
        254    2    1    2    0    0 -0.49942943697E+02 -0.36844154875E+03 -0.11936454728E+04  0.15379876007E+04  0.89575268500E+03 0.  0.
         23    2    4    4    0    0 -0.36080553615E+03  0.41046140385E+02 -0.80097833620E+03  0.88408182432E+03  0.90382279639E+02 0.  0.
         23    2    4    4    0    0  0.31086259245E+03 -0.40948768914E+03 -0.39266713659E+03  0.65390577636E+03  0.95339211586E+02 0.  0.
          2    1    3    3  502    0  0.48628489825E+02  0.20337008996E+03  0.16351669080E+03  0.26544647612E+03  0.00000000000E+00 0. -1.
         -1    1    3    3    0  502  0.13144538719E+01  0.16507145879E+03  0.21110967847E+03  0.26798807929E+03  0.00000000000E+00 0.  1.
         11    1    5    5    0    0 -0.34521366127E+03  0.58286484945E+02 -0.73484351917E+03  0.81398082528E+03  0.00000000000E+00 0.  1.
        -11    1    5    5    0    0 -0.15591874877E+02 -0.17240344560E+02 -0.66134817032E+02  0.70100999041E+02  0.00000000000E+00 0. -1.
          1    1    6    6  503    0  0.18434838113E+03 -0.20066421444E+03 -0.25710906423E+03  0.37464052570E+03  0.00000000000E+00 0. -1.
         -1    1    6    6    0  503  0.12651421132E+03 -0.20882347470E+03 -0.13555807235E+03  0.27926525067E+03  0.00000000000E+00 0.  1.
<mgrwt>
<rscale>  0 0.19026291E+04</rscale>
<asrwt>0</asrwt>
<pdfrwt beam="1">  1        2 0.96338698E-01 0.19026291E+04</pdfrwt>
<pdfrwt beam="2">  1       -1 0.22234163E+00 0.19026291E+04</pdfrwt>
<totfact> 0.53429849E+00</totfact>
</mgrwt>
</event>
<event>
12    6  0.9491186E-008  0.1900049E+04  0.7818608E-02  0.8654832E-01
         -1   -1    0    0    0  501 -0.00000000000E+00  0.00000000000E+00  0.77788016070E+03  0.77788016070E+03  0.00000000000E+00 0.  1.
          2   -1    0    0  501    0  0.00000000000E+00 -0.00000000000E+00 -0.11602648296E+04  0.11602648296E+04  0.00000000000E+00 0. -1.
         24    2    1    2    0    0 -0.16550419590E+03 -0.69162072765E+03  0.80144163678E+02  0.72008151703E+03  0.79771137710E+02 0.  0.
        254    2    1    2    0    0  0.16550419590E+03  0.69162072765E+03 -0.46252883258E+03  0.12180634733E+04  0.87407942097E+03 0.  0.
         23    2    4    4    0    0  0.41169113376E+03  0.74271407574E+03 -0.39566682809E+03  0.94157532283E+03  0.94329538293E+02 0.  0.
         23    2    4    4    0    0 -0.24618693786E+03 -0.51093348085E+02 -0.66862004494E+02  0.27648815044E+03  0.93576872673E+02 0.  0.
          4    1    3    3  502    0 -0.10015354113E+03 -0.36456516354E+03  0.80564129458E+02  0.38656056346E+03  0.00000000000E+00 0. -1.
         -3    1    3    3    0  502 -0.65350654775E+02 -0.32705556411E+03 -0.41996578050E+00  0.33352095356E+03  0.00000000000E+00 0.  1.
         11    1    5    5    0    0  0.28005123132E+03  0.42827620850E+03 -0.20726410121E+03  0.55209384219E+03  0.00000000000E+00 0.  1.
        -11    1    5    5    0    0  0.13163990244E+03  0.31443786723E+03 -0.18840272688E+03  0.38948148064E+03  0.00000000000E+00 0. -1.
          4    1    6    6  503    0 -0.64137992988E+02 -0.23466495856E+02  0.22378696728E+02  0.71869079857E+02  0.00000000000E+00 0. -1.
         -4    1    6    6    0  503 -0.18204894487E+03 -0.27626852229E+02 -0.89240701221E+02  0.20461907058E+03  0.00000000000E+00 0.  1.
<mgrwt>
<rscale>  0 0.19000495E+04</rscale>
<asrwt>0</asrwt>
<pdfrwt beam="1">  1        2 0.17850228E+00 0.19000495E+04</pdfrwt>
<pdfrwt beam="2">  1       -1 0.11967387E+00 0.19000495E+04</pdfrwt>
<totfact> 0.13322300E+01</totfact>
</mgrwt>
</event>
<event>
12    6  0.9491186E-008  0.4226669E+04  0.7818608E-02  0.7960319E-01
          2   -1    0    0  501    0  0.00000000000E+00  0.00000000000E+00  0.26596862916E+04  0.26596862916E+04  0.00000000000E+00 0. -1.
         -1   -1    0    0    0  501 -0.00000000000E+00 -0.00000000000E+00 -0.16792138339E+04  0.16792138339E+04  0.00000000000E+00 0.  1.
         24    2    1    2    0    0 -0.51224297679E+03  0.19505958222E+04  0.45006400684E+03  0.20679536420E+04  0.81594892159E+02 0.  0.
        254    2    1    2    0    0  0.51224297679E+03 -0.19505958222E+04  0.53040845089E+03  0.22709464835E+04  0.89924850695E+03 0.  0.
         23    2    4    4    0    0  0.47991520436E+02  0.28926085526E+02 -0.94375555078E+02  0.14183758690E+03  0.89840142490E+02 0.  0.
         23    2    4    4    0    0  0.46425145635E+03 -0.19795219077E+04  0.62478400597E+03  0.21291088966E+04  0.93344745755E+02 0.  0.
          4    1    3    3  502    0 -0.51071710849E+03  0.19172661962E+04  0.43451470148E+03  0.20311436822E+04  0.00000000000E+00 0. -1.
         -3    1    3    3    0  502 -0.15258682992E+01  0.33329625960E+02  0.15549305365E+02  0.36809959767E+02  0.00000000000E+00 0.  1.
         11    1    5    5    0    0  0.41872943412E+02  0.13001030885E+02  0.20710862429E+01  0.43893730671E+02  0.00000000000E+00 0.  1.
        -11    1    5    5    0    0  0.61185770247E+01  0.15925054642E+02 -0.96446641321E+02  0.97943856225E+02  0.00000000000E+00 0. -1.
          3    1    6    6  503    0  0.42827852718E+03 -0.18031748201E+04  0.54171705211E+03  0.19308856241E+04  0.00000000000E+00 0. -1.
         -3    1    6    6    0  503  0.35972929170E+02 -0.17634708758E+03  0.83066953864E+02  0.19822327248E+03  0.00000000000E+00 0.  1.
<mgrwt>
<rscale>  0 0.42266687E+04</rscale>
<asrwt>0</asrwt>
<pdfrwt beam="1">  1        2 0.40918251E+00 0.42266687E+04</pdfrwt>
<pdfrwt beam="2">  1       -1 0.25834059E+00 0.42266687E+04</pdfrwt>
<totfact> 0.15193614E-01</totfact>
</mgrwt>
</event>
<event>
12    6  0.9491186E-008  0.3805125E+04  0.7818608E-02  0.8045056E-01
         -3   -1    0    0    0  501 -0.00000000000E+00  0.00000000000E+00  0.12491459013E+04  0.12491459013E+04  0.00000000000E+00 0.  1.
          2   -1    0    0  501    0  0.00000000000E+00 -0.00000000000E+00 -0.28977748336E+04  0.28977748336E+04  0.00000000000E+00 0. -1.
         24    2    1    2    0    0 -0.35729303224E+03 -0.17032580316E+04 -0.29732113961E+03  0.17674039912E+04  0.81060315882E+02 0.  0.
        254    2    1    2    0    0  0.35729303224E+03  0.17032580316E+04 -0.13513077927E+04  0.23795167438E+04  0.89851040617E+03 0.  0.
         23    2    4    4    0    0  0.12303837081E+03  0.24436912379E+03  0.99561005955E+02  0.30645974718E+03  0.95658106727E+02 0.  0.
         23    2    4    4    0    0  0.23425466143E+03  0.14588889079E+04 -0.14508687987E+04  0.20730569966E+04  0.96503618083E+02 0.  0.
          4    1    3    3  502    0 -0.13898311485E+02 -0.45407521452E+02 -0.21158596294E+02  0.51987424091E+02  0.00000000000E+00 0. -1.
         -3    1    3    3    0  502 -0.34339472076E+03 -0.16578505102E+04 -0.27616254332E+03  0.17154165671E+04  0.00000000000E+00 0.  1.
         11    1    5    5    0    0  0.13793054731E+03  0.23330932867E+03  0.96263646120E+02  0.28761913756E+03  0.00000000000E+00 0. -1.
        -11    1    5    5    0    0 -0.14892176500E+02  0.11059795111E+02  0.32973598352E+01  0.18840609616E+02  0.00000000000E+00 0.  1.
          3    1    6    6  503    0  0.13948169487E+03  0.10089558193E+04 -0.94448360238E+03  0.13890630885E+04  0.00000000000E+00 0. -1.
         -3    1    6    6    0  503  0.94772966559E+02  0.44993308854E+03 -0.50638519627E+03  0.68399390813E+03  0.00000000000E+00 0.  1.
<mgrwt>
<rscale>  0 0.38051247E+04</rscale>
<asrwt>0</asrwt>
<pdfrwt beam="1">  1        2 0.44581151E+00 0.38051247E+04</pdfrwt>
<pdfrwt beam="2">  1       -3 0.19217630E+00 0.38051247E+04</pdfrwt>
<totfact> 0.16833402E-01</totfact>
</mgrwt>
</event>
<event>
12    6  0.9491186E-008  0.1147884E+04  0.7818608E-02  0.9159738E-01
         -1   -1    0    0    0  501 -0.00000000000E+00  0.00000000000E+00  0.88549606992E+03  0.88549606992E+03  0.00000000000E+00 0.  1.
          2   -1    0    0  501    0  0.00000000000E+00 -0.00000000000E+00 -0.37200572720E+03  0.37200572720E+03  0.00000000000E+00 0. -1.
         24    2    1    2    0    0 -0.97810319269E+02  0.23693024659E+02 -0.12022840927E+03  0.17616071341E+03  0.80308832526E+02 0.  0.
        254    2    1    2    0    0  0.97810319269E+02 -0.23693024659E+02  0.63371875198E+03  0.10813410837E+04  0.87038546905E+03 0.  0.
         23    2    4    4    0    0 -0.35402877063E+03 -0.14981591620E+02  0.10787734680E+03  0.38220424305E+03  0.94242999360E+02 0.  0.
         23    2    4    4    0    0  0.45183908990E+03 -0.87114330391E+01  0.52584140518E+03  0.69913684066E+03  0.89714471194E+02 0.  0.
          2    1    3    3  502    0 -0.98314437286E+02  0.24486159961E+02 -0.13085412879E+03  0.16549351537E+03  0.00000000000E+00 0. -1.
         -1    1    3    3    0  502  0.50411801657E+00 -0.79313530256E+00  0.10625719525E+02  0.10667198039E+02  0.00000000000E+00 0.  1.
         11    1    5    5    0    0 -0.23193823796E+03  0.31046906802E+02  0.49124258297E+02  0.23910761051E+03  0.00000000000E+00 0.  1.
        -11    1    5    5    0    0 -0.12209053267E+03 -0.46028498422E+02  0.58753088508E+02  0.14309663254E+03  0.00000000000E+00 0. -1.
          3    1    6    6  503    0  0.36062105657E+03  0.27740064210E+02  0.39584791498E+03  0.53620204158E+03  0.00000000000E+00 0. -1.
         -3    1    6    6    0  503  0.91218033330E+02 -0.36451497249E+02  0.12999349020E+03  0.16293479908E+03  0.00000000000E+00 0.  1.
<mgrwt>
<rscale>  0 0.11478843E+04</rscale>
<asrwt>0</asrwt>
<pdfrwt beam="1">  1        2 0.57231651E-01 0.11478843E+04</pdfrwt>
<pdfrwt beam="2">  1       -1 0.13623016E+00 0.11478843E+04</pdfrwt>
<totfact> 0.44025731E+01</totfact>
</mgrwt>
</event>
<event>
12    6  0.9491186E-008  0.1429328E+04  0.7818608E-02  0.8932859E-01
         -1   -1    0    0    0  501 -0.00000000000E+00  0.00000000000E+00  0.12730332197E+04  0.12730332197E+04  0.00000000000E+00 0.  1.
          2   -1    0    0  501    0  0.00000000000E+00 -0.00000000000E+00 -0.40120304371E+03  0.40120304371E+03  0.00000000000E+00 0. -1.
         24    2    1    2    0    0  0.63808319509E+02  0.42419112948E+03  0.29909084232E+03  0.52889758802E+03  0.79168874499E+02 0.  0.
        254    2    1    2    0    0 -0.63808319509E+02 -0.42419112948E+03  0.57273933362E+03  0.11453386753E+04  0.89429341997E+03 0.  0.
         23    2    4    4    0    0  0.84141321045E+02 -0.12953328641E+01  0.66706393789E+03  0.67844519489E+03  0.90731171327E+02 0.  0.
         23    2    4    4    0    0 -0.14794964055E+03 -0.42289579661E+03 -0.94324604267E+02  0.46689348045E+03  0.91446378748E+02 0.  0.
          2    1    3    3  502    0  0.10483994437E+02  0.57140532751E+02  0.77448706726E+02  0.96815581370E+02  0.00000000000E+00 0. -1.
         -1    1    3    3    0  502  0.53324325072E+02  0.36705059673E+03  0.22164213559E+03  0.43208200665E+03  0.00000000000E+00 0.  1.
         11    1    5    5    0    0  0.30783962665E+02  0.26641434204E+02  0.96842673947E+02  0.10505199604E+03  0.00000000000E+00 0. -1.
        -11    1    5    5    0    0  0.53357358379E+02 -0.27936767068E+02  0.57022126394E+03  0.57339319886E+03  0.00000000000E+00 0.  1.
          4    1    6    6  503    0 -0.68769871687E+02 -0.91454212688E+02 -0.46321117300E+01  0.11451910203E+03  0.00000000000E+00 0. -1.
         -4    1    6    6    0  503 -0.79179768867E+02 -0.33144158393E+03 -0.89692492537E+02  0.35237437843E+03  0.00000000000E+00 0.  1.
<mgrwt>
<rscale>  0 0.14293282E+04</rscale>
<asrwt>0</asrwt>
<pdfrwt beam="1">  1        2 0.61723546E-01 0.14293282E+04</pdfrwt>
<pdfrwt beam="2">  1       -1 0.19585126E+00 0.14293282E+04</pdfrwt>
<totfact> 0.14160359E+01</totfact>
</mgrwt>
</event>
<event>
12    6  0.9491186E-008  0.2206617E+04  0.7818608E-02  0.8515679E-01
         -1   -1    0    0    0  501 -0.00000000000E+00  0.00000000000E+00  0.51344909167E+03  0.51344909167E+03  0.00000000000E+00 0.  1.
          2   -1    0    0  501    0  0.00000000000E+00 -0.00000000000E+00 -0.23708097007E+04  0.23708097007E+04  0.00000000000E+00 0. -1.
         24    2    1    2    0    0  0.36426669923E+03 -0.38706251283E+03  0.20261597933E+03  0.57441291511E+03  0.79933378252E+02 0.  0.
        254    2    1    2    0    0 -0.36426669923E+03  0.38706251283E+03 -0.20599765883E+04  0.23098458773E+04  0.89965371958E+03 0.  0.
         23    2    4    4    0    0 -0.14737947773E+03  0.54909887237E+03 -0.18923152643E+04  0.19778676284E+04  0.88730004586E+02 0.  0.
         23    2    4    4    0    0 -0.21688722150E+03 -0.16203635954E+03 -0.16766132399E+03  0.33197824885E+03  0.93826379466E+02 0.  0.
          2    1    3    3  502    0  0.12493964402E+03 -0.12372026203E+03  0.10744086238E+03  0.20605862465E+03  0.00000000000E+00 0. -1.
         -1    1    3    3    0  502  0.23932705521E+03 -0.26334225080E+03  0.95175116950E+02  0.36835429046E+03  0.00000000000E+00 0.  1.
         11    1    5    5    0    0 -0.15007541190E+03  0.41708036772E+03 -0.14414800701E+04  0.15080926546E+04  0.00000000000E+00 0. -1.
        -11    1    5    5    0    0  0.26959341703E+01  0.13201850465E+03 -0.45083519422E+03  0.46977497376E+03  0.00000000000E+00 0.  1.
          2    1    6    6  503    0 -0.19948109271E+03 -0.16228841919E+03 -0.12505481295E+03  0.28595269469E+03  0.00000000000E+00 0. -1.
         -2    1    6    6    0  503 -0.17406128784E+02  0.25205964945E+00 -0.42606511040E+02  0.46025554166E+02  0.00000000000E+00 0.  1.
<mgrwt>
<rscale>  0 0.22066174E+04</rscale>
<asrwt>0</asrwt>
<pdfrwt beam="1">  1        2 0.36473995E+00 0.22066174E+04</pdfrwt>
<pdfrwt beam="2">  1       -1 0.78992169E-01 0.22066174E+04</pdfrwt>
<totfact> 0.68830520E+00</totfact>
</mgrwt>
</event>
<event>
12    6  0.9491186E-008  0.1776395E+04  0.7818608E-02  0.8718954E-01
         -1   -1    0    0    0  501 -0.00000000000E+00  0.00000000000E+00  0.17590346195E+04  0.17590346195E+04  0.00000000000E+00 0.  1.
          2   -1    0    0  501    0  0.00000000000E+00 -0.00000000000E+00 -0.44848174545E+03  0.44848174545E+03  0.00000000000E+00 0. -1.
         24    2    1    2    0    0  0.16440771600E+03 -0.36524904958E+03  0.11348917994E+04  0.12053422982E+04  0.66587492132E+02 0.  0.
        254    2    1    2    0    0 -0.16440771600E+03  0.36524904958E+03  0.17566107463E+03  0.10021740668E+04  0.90169799914E+03 0.  0.
         23    2    4    4    0    0 -0.52293720310E+03  0.27652854068E+03  0.16759120576E+03  0.62168666586E+03  0.92065987536E+02 0.  0.
         23    2    4    4    0    0  0.35852948710E+03  0.88720508897E+02  0.80698688681E+01  0.38048740091E+03  0.91053927150E+02 0.  0.
          4    1    3    3  502    0  0.61526182623E+02 -0.74187917884E+02  0.30658215244E+03  0.32137506827E+03  0.00000000000E+00 0. -1.
         -3    1    3    3    0  502  0.10288153338E+03 -0.29106113170E+03  0.82830964697E+03  0.88396722991E+03  0.00000000000E+00 0.  1.
         11    1    5    5    0    0 -0.52883894964E+02  0.63013795723E+02  0.27576448331E+02  0.86763502122E+02  0.00000000000E+00 0.  1.
        -11    1    5    5    0    0 -0.47005330813E+03  0.21351474496E+03  0.14001475743E+03  0.53492316373E+03  0.00000000000E+00 0. -1.
          1    1    6    6  503    0  0.33720153412E+03  0.76108692517E+02  0.30550317674E+02  0.34703130925E+03  0.00000000000E+00 0. -1.
         -1    1    6    6    0  503  0.21327952979E+02  0.12611816380E+02 -0.22480448806E+02  0.33456091660E+02  0.00000000000E+00 0.  1.
<mgrwt>
<rscale>  0 0.17763951E+04</rscale>
<asrwt>0</asrwt>
<pdfrwt beam="1">  1        2 0.68997193E-01 0.17763951E+04</pdfrwt>
<pdfrwt beam="2">  1       -1 0.27062071E+00 0.17763951E+04</pdfrwt>
<totfact> 0.38663309E+00</totfact>
</mgrwt>
</event>
<event>
12    6  0.9491186E-008  0.1318419E+04  0.7818608E-02  0.9015085E-01
          2   -1    0    0  501    0  0.00000000000E+00  0.00000000000E+00  0.43338905059E+03  0.43338905059E+03  0.00000000000E+00 0. -1.
         -1   -1    0    0    0  501 -0.00000000000E+00 -0.00000000000E+00 -0.10026956976E+04  0.10026956976E+04  0.00000000000E+00 0.  1.
         24    2    1    2    0    0  0.34606151124E+03 -0.72411790982E+00 -0.16633442322E+03  0.39227916078E+03  0.80353629194E+02 0.  0.
        254    2    1    2    0    0 -0.34606151124E+03  0.72411790982E+00 -0.40297222373E+03  0.10438055874E+04  0.89854571236E+03 0.  0.
         23    2    4    4    0    0 -0.25938891457E+03 -0.40902670676E+03 -0.36448928608E+03  0.61265514523E+03  0.88929362180E+02 0.  0.
         23    2    4    4    0    0 -0.86672596674E+02  0.40975082467E+03 -0.38482937653E+02  0.43115044214E+03  0.94878290091E+02 0.  0.
          2    1    3    3  502    0  0.35790967045E+02 -0.22599203813E+02 -0.73497478182E+01  0.42962031237E+02  0.00000000000E+00 0. -1.
         -1    1    3    3    0  502  0.31027054420E+03  0.21875085904E+02 -0.15898467541E+03  0.34931712955E+03  0.00000000000E+00 0.  1.
         11    1    5    5    0    0 -0.24135825996E+03 -0.34275840456E+03 -0.28159727405E+03  0.50500906755E+03  0.00000000000E+00 0. -1.
        -11    1    5    5    0    0 -0.18030654611E+02 -0.66268302200E+02 -0.82892012026E+02  0.10764607768E+03  0.00000000000E+00 0.  1.
          3    1    6    6  503    0 -0.10576048065E+03  0.35479669006E+03 -0.43444217941E+02  0.37276449753E+03  0.00000000000E+00 0. -1.
         -3    1    6    6    0  503  0.19087883978E+02  0.54954134616E+02  0.49612802879E+01  0.58385944612E+02  0.00000000000E+00 0.  1.
<mgrwt>
<rscale>  0 0.13184193E+04</rscale>
<asrwt>0</asrwt>
<pdfrwt beam="1">  1        2 0.66675239E-01 0.13184193E+04</pdfrwt>
<pdfrwt beam="2">  1       -1 0.15426087E+00 0.13184193E+04</pdfrwt>
<totfact> 0.26291796E+01</totfact>
</mgrwt>
</event>
<event>
12    6  0.1729490E-007  0.1772670E+04  0.7818608E-02  0.8720970E-01
         -1   -1    0    0    0  501 -0.00000000000E+00  0.00000000000E+00  0.34287117870E+03  0.34287117870E+03  0.00000000000E+00 0.  1.
          2   -1    0    0  501    0  0.00000000000E+00 -0.00000000000E+00 -0.22912094899E+04  0.22912094899E+04  0.00000000000E+00 0. -1.
         24    2    1    2    0    0 -0.52121716294E+03 -0.25528599102E+03 -0.11780872079E+04  0.13157822545E+04  0.80964212565E+02 0.  0.
        254    2    1    2    0    0  0.52121716294E+03  0.25528599102E+03 -0.77025110338E+03  0.13182984142E+04  0.89876897943E+03 0.  0.
         23    2    4    4    0    0  0.70713070363E+03  0.11264446867E+01 -0.66285147695E+03  0.97315176592E+03  0.87276446584E+02 0.  0.
         23    2    4    4    0    0 -0.18591354069E+03  0.25415954633E+03 -0.10739962643E+03  0.34514664825E+03  0.91818350221E+02 0.  0.
          4    1    3    3  502    0 -0.50927741373E+03 -0.26025936632E+03 -0.11375479464E+04  0.12732296541E+04  0.00000000000E+00 0. -1.
         -3    1    3    3    0  502 -0.11939749209E+02  0.49733753035E+01 -0.40539261481E+02  0.42552600326E+02  0.00000000000E+00 0.  1.
         11    1    5    5    0    0  0.57158123833E+02 -0.17012128864E+02 -0.34333275127E+02  0.68813061475E+02  0.00000000000E+00 0.  1.
        -11    1    5    5    0    0  0.64997257980E+03  0.18138573551E+02 -0.62851820182E+03  0.90433870445E+03  0.00000000000E+00 0. -1.
          1    1    6    6  503    0 -0.18555821707E+02  0.95586414262E+02 -0.28228177151E+02  0.10138003302E+03  0.00000000000E+00 0.  1.
         -1    1    6    6    0  503 -0.16735771898E+03  0.15857313207E+03 -0.79171449283E+02  0.24376661522E+03  0.00000000000E+00 0. -1.
<mgrwt>
<rscale>  0 0.17726700E+04</rscale>
<asrwt>0</asrwt>
<pdfrwt beam="1">  1        2 0.35249376E+00 0.17726700E+04</pdfrwt>
<pdfrwt beam="2">  1       -1 0.52749413E-01 0.17726700E+04</pdfrwt>
<totfact> 0.17908047E+01</totfact>
</mgrwt>
</event>
<event>
12    6  0.9491186E-008  0.1121044E+04  0.7818608E-02  0.9184921E-01
         -1   -1    0    0    0  501 -0.00000000000E+00  0.00000000000E+00  0.48922329936E+03  0.48922329936E+03  0.00000000000E+00 0.  1.
          2   -1    0    0  501    0  0.00000000000E+00 -0.00000000000E+00 -0.64221131816E+03  0.64221131816E+03  0.00000000000E+00 0. -1.
         24    2    1    2    0    0 -0.10859521730E+02  0.10400460593E+03  0.46874914436E+02  0.14046847510E+03  0.81235753385E+02 0.  0.
        254    2    1    2    0    0  0.10859521730E+02 -0.10400460593E+03 -0.19986293323E+03  0.99096614242E+03  0.96495275328E+03 0.  0.
         23    2    4    4    0    0  0.47326686195E+03  0.16345062658E+02 -0.11595777741E+03  0.49565236363E+03  0.89310557792E+02 0.  0.
         23    2    4    4    0    0 -0.46240734022E+03 -0.12034966859E+03 -0.83905155823E+02  0.49531377879E+03  0.99955356366E+02 0.  0.
          4    1    3    3  502    0  0.33864165872E+02  0.28686681280E+02  0.10409577700E+02  0.45585817103E+02  0.00000000000E+00 0. -1.
         -3    1    3    3    0  502 -0.44723687602E+02  0.75317924649E+02  0.36465336736E+02  0.94882658001E+02  0.00000000000E+00 0.  1.
         11    1    5    5    0    0  0.44916887733E+03  0.35888779507E+02 -0.10435055685E+03  0.46252537613E+03  0.00000000000E+00 0.  1.
        -11    1    5    5    0    0  0.24097984626E+02 -0.19543716850E+02 -0.11607220559E+02  0.33126987494E+02  0.00000000000E+00 0. -1.
          4    1    6    6  503    0 -0.23690129444E+03 -0.47122314883E+02  0.63311291326E+01  0.24162536925E+03  0.00000000000E+00 0. -1.
         -4    1    6    6    0  503 -0.22550604578E+03 -0.73227353703E+02 -0.90236284956E+02  0.25368840954E+03  0.00000000000E+00 0.  1.
<mgrwt>
<rscale>  0 0.11210437E+04</rscale>
<asrwt>0</asrwt>
<pdfrwt beam="1">  1        2 0.98801741E-01 0.11210437E+04</pdfrwt>
<pdfrwt beam="2">  1       -1 0.75265124E-01 0.11210437E+04</pdfrwt>
<totfact> 0.91806272E+01</totfact>
</mgrwt>
</event>
<event>
12    6  0.9491186E-008  0.2240811E+04  0.7818608E-02  0.8501631E-01
          2   -1    0    0  501    0  0.00000000000E+00  0.00000000000E+00  0.21511036021E+04  0.21511036021E+04  0.00000000000E+00 0. -1.
         -1   -1    0    0    0  501 -0.00000000000E+00 -0.00000000000E+00 -0.58356506901E+03  0.58356506901E+03  0.00000000000E+00 0.  1.
         24    2    1    2    0    0  0.91076980090E+03  0.55265862033E+02  0.92300589699E+03  0.13005739467E+04  0.83646633037E+02 0.  0.
        254    2    1    2    0    0 -0.91076980090E+03 -0.55265862033E+02  0.64453263608E+03  0.14340947244E+04  0.89924936132E+03 0.  0.
         23    2    4    4    0    0 -0.76909585146E+03 -0.18240703966E+03  0.83290000794E+03  0.11519014582E+04  0.91508411762E+02 0.  0.
         23    2    4    4    0    0 -0.14167394944E+03  0.12714117763E+03 -0.18836737186E+03  0.28219326615E+03  0.88962833156E+02 0.  0.
          2    1    3    3  502    0  0.61807814351E+03  0.58101310714E+02  0.57914517103E+03  0.84900264012E+03  0.00000000000E+00 0. -1.
         -1    1    3    3    0  502  0.29269165739E+03 -0.28354486808E+01  0.34386072596E+03  0.45157130659E+03  0.00000000000E+00 0.  1.
         11    1    5    5    0    0 -0.53610890966E+03 -0.16860655968E+03  0.57354459446E+03  0.80299086970E+03  0.00000000000E+00 0. -1.
        -11    1    5    5    0    0 -0.23298694180E+03 -0.13800479981E+02  0.25935541348E+03  0.34891058854E+03  0.00000000000E+00 0.  1.
          2    1    6    6  503    0 -0.74983002056E+02  0.88656426085E+02 -0.16493622140E+03  0.20170862553E+03  0.00000000000E+00 0. -1.
         -2    1    6    6    0  503 -0.66690947381E+02  0.38484751544E+02 -0.23431150454E+02  0.80484640620E+02  0.00000000000E+00 0.  1.
<mgrwt>
<rscale>  0 0.22408114E+04</rscale>
<asrwt>0</asrwt>
<pdfrwt beam="1">  1        2 0.33093901E+00 0.22408114E+04</pdfrwt>
<pdfrwt beam="2">  1       -1 0.89779243E-01 0.22408114E+04</pdfrwt>
<totfact> 0.69259907E+00</totfact>
</mgrwt>
</event>
<event>
12    6  0.9491186E-008  0.1471698E+04  0.7818608E-02  0.8903495E-01
          2   -1    0    0  501    0  0.00000000000E+00  0.00000000000E+00  0.16440521584E+04  0.16440521584E+04  0.00000000000E+00 0. -1.
         -1   -1    0    0    0  501 -0.00000000000E+00 -0.00000000000E+00 -0.32935311864E+03  0.32935311864E+03  0.00000000000E+00 0.  1.
         24    2    1    2    0    0 -0.28922004719E+03  0.27784495507E+03  0.13052510009E+03  0.42887855833E+03  0.77807205862E+02 0.  0.
        254    2    1    2    0    0  0.28922004719E+03 -0.27784495507E+03  0.11841739396E+04  0.15445267187E+04  0.90688963533E+03 0.  0.
         23    2    4    4    0    0  0.31615952018E+03  0.47380468096E+02  0.19985148173E+02  0.33259153952E+03  0.89531977850E+02 0.  0.
         23    2    4    4    0    0 -0.26939472985E+02 -0.32522542316E+03  0.11641887914E+04  0.12119351792E+04  0.83390798402E+02 0.  0.
          2    1    3    3  502    0 -0.14982627717E+03  0.96502026496E+02  0.75994899027E+02  0.19374152660E+03  0.00000000000E+00 0. -1.
         -1    1    3    3    0  502 -0.13939377002E+03  0.18134292857E+03  0.54530201066E+02  0.23513703173E+03  0.00000000000E+00 0.  1.
         11    1    5    5    0    0  0.55936589596E+02  0.26008386629E+02 -0.26932653254E+02  0.67310519549E+02  0.00000000000E+00 0.  1.
        -11    1    5    5    0    0  0.26022293058E+03  0.21372081467E+02  0.46917801427E+02  0.26528101997E+03  0.00000000000E+00 0. -1.
          4    1    6    6  503    0 -0.51914465136E+02 -0.19245250921E+03  0.76307887220E+03  0.78868399578E+03  0.00000000000E+00 0. -1.
         -4    1    6    6    0  503  0.24974992151E+02 -0.13277291395E+03  0.40110991924E+03  0.42325118338E+03  0.00000000000E+00 0.  1.
<mgrwt>
<rscale>  0 0.14716979E+04</rscale>
<asrwt>0</asrwt>
<pdfrwt beam="1">  1        2 0.25293110E+00 0.14716979E+04</pdfrwt>
<pdfrwt beam="2">  1       -1 0.50669712E-01 0.14716979E+04</pdfrwt>
<totfact> 0.45482168E+01</totfact>
</mgrwt>
</event>
<event>
12    6  0.9491186E-008  0.1871242E+04  0.7818608E-02  0.8669305E-01
         -1   -1    0    0    0  501 -0.00000000000E+00  0.00000000000E+00  0.61971211901E+03  0.61971211901E+03  0.00000000000E+00 0.  1.
          2   -1    0    0  501    0  0.00000000000E+00 -0.00000000000E+00 -0.14125701000E+04  0.14125701000E+04  0.00000000000E+00 0. -1.
         24    2    1    2    0    0  0.63771863160E+03  0.31423967597E+03 -0.27101435308E+03  0.76501657508E+03  0.79811988685E+02 0.  0.
        254    2    1    2    0    0 -0.63771863160E+03 -0.31423967597E+03 -0.52184362789E+03  0.12672656439E+04  0.91006033492E+03 0.  0.
         23    2    4    4    0    0  0.16218298489E+02 -0.31632666814E+01  0.21231575450E+03  0.23216497481E+03  0.92463811630E+02 0.  0.
         23    2    4    4    0    0 -0.65393693009E+03 -0.31107640929E+03 -0.73415938238E+03  0.10351006691E+04  0.89673605092E+02 0.  0.
          4    1    3    3  502    0  0.30489047736E+02  0.31183498099E+02 -0.39615740018E+01  0.43791399317E+02  0.00000000000E+00 0. -1.
         -3    1    3    3    0  502  0.60722958386E+03  0.28305617787E+03 -0.26705277907E+03  0.72122517577E+03  0.00000000000E+00 0.  1.
         11    1    5    5    0    0 -0.28969142203E+01 -0.41695827000E+02  0.55025899709E+02  0.69099809985E+02  0.00000000000E+00 0.  1.
        -11    1    5    5    0    0  0.19115212710E+02  0.38532560318E+02  0.15728985479E+03  0.16306516483E+03  0.00000000000E+00 0. -1.
          1    1    6    6  503    0 -0.36403990432E+03 -0.22077028733E+03 -0.41389680743E+03  0.59378037935E+03  0.00000000000E+00 0. -1.
         -1    1    6    6    0  503 -0.28989702577E+03 -0.90306121958E+02 -0.32026257496E+03  0.44132028974E+03  0.00000000000E+00 0.  1.
<mgrwt>
<rscale>  0 0.18712422E+04</rscale>
<asrwt>0</asrwt>
<pdfrwt beam="1">  1        2 0.21731848E+00 0.18712422E+04</pdfrwt>
<pdfrwt beam="2">  1       -1 0.95340326E-01 0.18712422E+04</pdfrwt>
<totfact> 0.16173672E+01</totfact>
</mgrwt>
</event>
<event>
12    6  0.9491186E-008  0.2079049E+04  0.7818608E-02  0.8570529E-01
          2   -1    0    0  501    0  0.00000000000E+00  0.00000000000E+00  0.12683493021E+04  0.12683493021E+04  0.00000000000E+00 0. -1.
         -1   -1    0    0    0  501 -0.00000000000E+00 -0.00000000000E+00 -0.85198258566E+03  0.85198258566E+03  0.00000000000E+00 0.  1.
         24    2    1    2    0    0  0.52285440716E+02 -0.31545345352E+03  0.96557022136E+03  0.10202462718E+04  0.79573576285E+02 0.  0.
        254    2    1    2    0    0 -0.52285440716E+02  0.31545345352E+03 -0.54920350489E+03  0.11000856160E+04  0.89795279616E+03 0.  0.
         23    2    4    4    0    0  0.10890317832E+03  0.28372211115E+03 -0.75652038821E+03  0.82038186250E+03  0.91351868747E+02 0.  0.
         23    2    4    4    0    0 -0.16118861904E+03  0.31731342370E+02  0.20731688333E+03  0.27970375352E+03  0.90913423784E+02 0.  0.
          4    1    3    3  502    0  0.70084487157E+02 -0.29062407173E+03  0.87449844855E+03  0.92418706057E+03  0.00000000000E+00 0. -1.
         -3    1    3    3    0  502 -0.17799046441E+02 -0.24829381786E+02  0.91071772814E+02  0.96059211206E+02  0.00000000000E+00 0.  1.
         11    1    5    5    0    0  0.12231510439E+03  0.22793684503E+03 -0.64571121052E+03  0.69559985443E+03  0.00000000000E+00 0. -1.
        -11    1    5    5    0    0 -0.13411926070E+02  0.55785266117E+02 -0.11080917770E+03  0.12478200807E+03  0.00000000000E+00 0.  1.
          1    1    6    6  503    0 -0.12078959674E+03  0.54538366832E+02  0.18664950695E+03  0.22891613875E+03  0.00000000000E+00 0. -1.
         -1    1    6    6    0  503 -0.40399022295E+02 -0.22807024463E+02  0.20667376382E+02  0.50787614767E+02  0.00000000000E+00 0.  1.
<mgrwt>
<rscale>  0 0.20790493E+04</rscale>
<asrwt>0</asrwt>
<pdfrwt beam="1">  1        2 0.19513066E+00 0.20790493E+04</pdfrwt>
<pdfrwt beam="2">  1       -1 0.13107424E+00 0.20790493E+04</pdfrwt>
<totfact> 0.90177237E+00</totfact>
</mgrwt>
</event>
<event>
12    6  0.9491186E-008  0.1778068E+04  0.7818608E-02  0.8718050E-01
         -1   -1    0    0    0  501 -0.00000000000E+00  0.00000000000E+00  0.12724274281E+04  0.12724274281E+04  0.00000000000E+00 0.  1.
          2   -1    0    0  501    0  0.00000000000E+00 -0.00000000000E+00 -0.62116025718E+03  0.62116025718E+03  0.00000000000E+00 0. -1.
         24    2    1    2    0    0 -0.46801495281E+03 -0.31470202362E+03  0.61166713099E+03  0.83606024918E+03  0.82369298836E+02 0.  0.
        254    2    1    2    0    0  0.46801495281E+03  0.31470202362E+03  0.39600039937E+02  0.10575274361E+04  0.89371178534E+03 0.  0.
         23    2    4    4    0    0  0.64160732427E+03  0.12727630652E+03 -0.20466041701E+03  0.69145493562E+03  0.91459416938E+02 0.  0.
         23    2    4    4    0    0 -0.17359237146E+03  0.18742571710E+03  0.24426045694E+03  0.36607250050E+03  0.95305791718E+02 0.  0.
          2    1    3    3  502    0 -0.25953302516E+02 -0.21680112923E+02  0.71281538194E+02  0.78896507497E+02  0.00000000000E+00 0. -1.
         -1    1    3    3    0  502 -0.44206165029E+03 -0.29302191070E+03  0.54038559280E+03  0.75716374168E+03  0.00000000000E+00 0.  1.
         11    1    5    5    0    0  0.20560704288E+03 -0.15652390519E+01 -0.55480351859E+02  0.21296660653E+03  0.00000000000E+00 0.  1.
        -11    1    5    5    0    0  0.43600028139E+03  0.12884154557E+03 -0.14918006515E+03  0.47848832909E+03  0.00000000000E+00 0. -1.
          4    1    6    6  503    0 -0.50933013773E+02  0.92017600281E+01  0.23081115008E+02  0.56670822736E+02  0.00000000000E+00 0. -1.
         -4    1    6    6    0  503 -0.12265935769E+03  0.17822395708E+03  0.22117934193E+03  0.30940167776E+03  0.00000000000E+00 0.  1.
<mgrwt>
<rscale>  0 0.17780679E+04</rscale>
<asrwt>0</asrwt>
<pdfrwt beam="1">  1        2 0.95563117E-01 0.17780679E+04</pdfrwt>
<pdfrwt beam="2">  1       -1 0.19575806E+00 0.17780679E+04</pdfrwt>
<totfact> 0.82700176E+00</totfact>
</mgrwt>
</event>
<event>
12    6  0.9491186E-008  0.1531084E+04  0.7818608E-02  0.8864041E-01
          2   -1    0    0  501    0  0.00000000000E+00  0.00000000000E+00  0.77278508951E+03  0.77278508951E+03  0.00000000000E+00 0. -1.
         -1   -1    0    0    0  501 -0.00000000000E+00 -0.00000000000E+00 -0.75836690641E+03  0.75836690641E+03  0.00000000000E+00 0.  1.
         24    2    1    2    0    0  0.48245920041E+02 -0.58460993109E+02 -0.48716779827E+03  0.49956575333E+03  0.80548877781E+02 0.  0.
        254    2    1    2    0    0 -0.48245920041E+02  0.58460993109E+02  0.50158598137E+03  0.10315862426E+04  0.89824068194E+03 0.  0.
         23    2    4    4    0    0 -0.88705961847E+02 -0.12505393682E+03 -0.21839817798E+03  0.28201948250E+03  0.91268776584E+02 0.  0.
         23    2    4    4    0    0  0.40460041806E+02  0.18351492993E+03  0.71998415935E+03  0.74956676010E+03  0.90323826542E+02 0.  0.
          4    1    3    3  502    0  0.47902831246E+02  0.23276675506E+01 -0.17054191925E+03  0.17715712094E+03  0.00000000000E+00 0. -1.
         -3    1    3    3    0  502  0.34308879458E+00 -0.60788660660E+02 -0.31662587902E+03  0.32240863240E+03  0.00000000000E+00 0.  1.
         11    1    5    5    0    0  0.11735965199E+01  0.11958770597E+02 -0.51201175342E+01  0.13061589741E+02  0.00000000000E+00 0. -1.
        -11    1    5    5    0    0 -0.89879558367E+02 -0.13701270742E+03 -0.21327806045E+03  0.26895789275E+03  0.00000000000E+00 0.  1.
          4    1    6    6  503    0  0.43564363036E+02  0.57251831983E+02  0.15865675193E+03  0.17420559958E+03  0.00000000000E+00 0. -1.
         -4    1    6    6    0  503 -0.31043212301E+01  0.12626309795E+03  0.56132740742E+03  0.57536116052E+03  0.00000000000E+00 0.  1.
<mgrwt>
<rscale>  0 0.15310841E+04</rscale>
<asrwt>0</asrwt>
<pdfrwt beam="1">  1        2 0.11889001E+00 0.15310841E+04</pdfrwt>
<pdfrwt beam="2">  1       -1 0.11667183E+00 0.15310841E+04</pdfrwt>
<totfact> 0.26320767E+01</totfact>
</mgrwt>
</event>
<event>
12    6  0.9491186E-008  0.1409566E+04  0.7818608E-02  0.8946923E-01
         -1   -1    0    0    0  501 -0.00000000000E+00  0.00000000000E+00  0.11701471269E+04  0.11701471269E+04  0.00000000000E+00 0.  1.
          2   -1    0    0  501    0  0.00000000000E+00 -0.00000000000E+00 -0.42449307188E+03  0.42449307188E+03  0.00000000000E+00 0. -1.
         24    2    1    2    0    0  0.25469550067E+03  0.18775099439E+03  0.51738745130E+03  0.61173999941E+03  0.80098802495E+02 0.  0.
        254    2    1    2    0    0 -0.25469550067E+03 -0.18775099439E+03  0.22826660376E+03  0.98290019940E+03  0.90214573415E+03 0.  0.
         23    2    4    4    0    0 -0.51861273577E+02 -0.61851402961E+01  0.54502868409E+03  0.55547091315E+03  0.93615283057E+02 0.  0.
         23    2    4    4    0    0 -0.20283422709E+03 -0.18156585410E+03 -0.31676208033E+03  0.42742928625E+03  0.90827837984E+02 0.  0.
          2    1    3    3  502    0  0.92671038951E+02  0.25647146100E+02  0.13119718904E+03  0.16266038232E+03  0.00000000000E+00 0. -1.
         -1    1    3    3    0  502  0.16202446172E+03  0.16210384829E+03  0.38619026226E+03  0.44907961709E+03  0.00000000000E+00 0.  1.
         11    1    5    5    0    0 -0.57916347147E+01  0.11478474498E+02  0.43141010437E+03  0.43160164106E+03  0.00000000000E+00 0. -1.
        -11    1    5    5    0    0 -0.46069638862E+02 -0.17663614794E+02  0.11361857972E+03  0.12386927210E+03  0.00000000000E+00 0.  1.
          3    1    6    6  503    0 -0.84863054640E+02 -0.13458887963E+03 -0.15934593815E+03  0.22518222080E+03  0.00000000000E+00 0. -1.
         -3    1    6    6    0  503 -0.11797117245E+03 -0.46976974466E+02 -0.15741614219E+03  0.20224706545E+03  0.00000000000E+00 0.  1.
<mgrwt>
<rscale>  0 0.14095664E+04</rscale>
<asrwt>0</asrwt>
<pdfrwt beam="1">  1        2 0.65306627E-01 0.14095664E+04</pdfrwt>
<pdfrwt beam="2">  1       -1 0.18002263E+00 0.14095664E+04</pdfrwt>
<totfact> 0.17205613E+01</totfact>
</mgrwt>
</event>
<event>
12    6  0.9491186E-008  0.2328296E+04  0.7818608E-02  0.8466847E-01
          2   -1    0    0  501    0  0.00000000000E+00  0.00000000000E+00  0.67461254449E+03  0.67461254449E+03  0.00000000000E+00 0. -1.
         -1   -1    0    0    0  501 -0.00000000000E+00 -0.00000000000E+00 -0.20089166706E+04  0.20089166706E+04  0.00000000000E+00 0.  1.
         24    2    1    2    0    0  0.29914864682E+03 -0.70104926450E+02  0.51539721042E+03  0.60547613288E+03  0.81008946228E+02 0.  0.
        254    2    1    2    0    0 -0.29914864682E+03  0.70104926450E+02 -0.18497013366E+04  0.20780530822E+04  0.89582641430E+03 0.  0.
         23    2    4    4    0    0 -0.18230863118E+03  0.74754003078E+02  0.48962327228E+01  0.21750009044E+03  0.91965853796E+02 0.  0.
         23    2    4    4    0    0 -0.11684001564E+03 -0.46490766275E+01 -0.18545975693E+04  0.18605529918E+04  0.91935239023E+02 0.  0.
          2    1    3    3  502    0  0.29493221111E+03 -0.53773027480E+02  0.49777705392E+03  0.58108393803E+03  0.00000000000E+00 0. -1.
         -1    1    3    3    0  502  0.42164357090E+01 -0.16331898970E+02  0.17620156500E+02  0.24392194841E+02  0.00000000000E+00 0.  1.
         11    1    5    5    0    0 -0.10739149115E+03  0.28594814277E+01  0.28230644691E+02  0.11107690266E+03  0.00000000000E+00 0. -1.
        -11    1    5    5    0    0 -0.74917140038E+02  0.71894521650E+02 -0.23334411968E+02  0.10642318778E+03  0.00000000000E+00 0.  1.
          4    1    6    6  503    0 -0.77940700430E+02  0.40593746490E+02 -0.98591761405E+03  0.98982632150E+03  0.00000000000E+00 0. -1.
         -4    1    6    6    0  503 -0.38899315205E+02 -0.45242823118E+02 -0.86867995524E+03  0.87072667032E+03  0.00000000000E+00 0.  1.
<mgrwt>
<rscale>  0 0.23282958E+04</rscale>
<asrwt>0</asrwt>
<pdfrwt beam="1">  1        2 0.10378655E+00 0.23282958E+04</pdfrwt>
<pdfrwt beam="2">  1       -1 0.30906409E+00 0.23282958E+04</pdfrwt>
<totfact> 0.12781477E+00</totfact>
</mgrwt>
</event>
<event>
12    6  0.9491186E-008  0.2817711E+04  0.7818608E-02  0.8297791E-01
         -1   -1    0    0    0  501 -0.00000000000E+00  0.00000000000E+00  0.55620263736E+03  0.55620263736E+03  0.00000000000E+00 0.  1.
          2   -1    0    0  501    0  0.00000000000E+00 -0.00000000000E+00 -0.35686175764E+04  0.35686175764E+04  0.00000000000E+00 0. -1.
         24    2    1    2    0    0 -0.37657239491E+03 -0.38959627971E+03  0.32116582743E+03  0.63514306090E+03  0.81652858652E+02 0.  0.
        254    2    1    2    0    0  0.37657239491E+03  0.38959627971E+03 -0.33335807664E+04  0.34896771528E+04  0.87834724044E+03 0.  0.
         23    2    4    4    0    0  0.45495142785E+01 -0.16200767203E+03 -0.18730559841E+04  0.18822131093E+04  0.90112625163E+02 0.  0.
         23    2    4    4    0    0  0.37202288064E+03  0.55160395174E+03 -0.14605247823E+04  0.16074640436E+04  0.90222326717E+02 0.  0.
          2    1    3    3  502    0 -0.53907649523E+01  0.26469724521E+01  0.10594523805E+02  0.12178289888E+02  0.00000000000E+00 0. -1.
         -3    1    3    3    0  502 -0.37118162996E+03 -0.39224325216E+03  0.31057130363E+03  0.62296477102E+03  0.00000000000E+00 0.  1.
         11    1    5    5    0    0  0.42267755986E+02 -0.43328766158E+02 -0.55749364795E+03  0.56077010679E+03  0.00000000000E+00 0. -1.
        -11    1    5    5    0    0 -0.37718241707E+02 -0.11867890587E+03 -0.13155623361E+04  0.13214430025E+04  0.00000000000E+00 0.  1.
          1    1    6    6  503    0  0.15287471192E+03  0.20958381978E+03 -0.46911170760E+03  0.53606142304E+03  0.00000000000E+00 0. -1.
         -1    1    6    6    0  503  0.21914816871E+03  0.34202013196E+03 -0.99141307474E+03  0.10714026205E+04  0.00000000000E+00 0.  1.
<mgrwt>
<rscale>  0 0.28177115E+04</rscale>
<asrwt>0</asrwt>
<pdfrwt beam="1">  1        2 0.54901808E+00 0.28177115E+04</pdfrwt>
<pdfrwt beam="2">  1       -1 0.85569638E-01 0.28177115E+04</pdfrwt>
<totfact> 0.96862877E-01</totfact>
</mgrwt>
</event>
<event>
12    6  0.9491186E-008  0.1732150E+04  0.7818608E-02  0.8743238E-01
         -1   -1    0    0    0  501 -0.00000000000E+00  0.00000000000E+00  0.23484807599E+03  0.23484807599E+03  0.00000000000E+00 0.  1.
          2   -1    0    0  501    0  0.00000000000E+00 -0.00000000000E+00 -0.31939190189E+04  0.31939190189E+04  0.00000000000E+00 0. -1.
         24    2    1    2    0    0  0.23821721769E+03  0.53781878228E+03 -0.62750517955E+03  0.86374704485E+03  0.79370786462E+02 0.  0.
        254    2    1    2    0    0 -0.23821721769E+03 -0.53781878228E+03 -0.23315657633E+04  0.25650200500E+04  0.89282274999E+03 0.  0.
         23    2    4    4    0    0  0.20927613047E+03 -0.55071053828E+03 -0.15360438381E+04  0.16476244543E+04  0.90316522362E+02 0.  0.
         23    2    4    4    0    0 -0.44749334816E+03  0.12891756000E+02 -0.79552192523E+03  0.91739559569E+03  0.91340305642E+02 0.  0.
          2    1    3    3  502    0  0.44593369296E+01  0.93104852511E+01 -0.33311228016E+02  0.34874184340E+02  0.00000000000E+00 0. -1.
         -1    1    3    3    0  502  0.23375788076E+03  0.52850829703E+03 -0.59419395154E+03  0.82887286051E+03  0.00000000000E+00 0.  1.
         11    1    5    5    0    0  0.14498473662E+03 -0.26949392956E+03 -0.73169643182E+03  0.79311236295E+03  0.00000000000E+00 0. -1.
        -11    1    5    5    0    0  0.64291393846E+02 -0.28121660872E+03 -0.80434740626E+03  0.85451209137E+03  0.00000000000E+00 0.  1.
          3    1    6    6  503    0 -0.24658384581E+03  0.21358421002E+02 -0.52405754113E+03  0.57956542476E+03  0.00000000000E+00 0. -1.
         -3    1    6    6    0  503 -0.20090950235E+03 -0.84666650012E+01 -0.27146438410E+03  0.33783017092E+03  0.00000000000E+00 0.  1.
<mgrwt>
<rscale>  0 0.17321498E+04</rscale>
<asrwt>0</asrwt>
<pdfrwt beam="1">  1        2 0.49137214E+00 0.17321498E+04</pdfrwt>
<pdfrwt beam="2">  1       -1 0.36130475E-01 0.17321498E+04</pdfrwt>
<totfact> 0.10428030E+01</totfact>
</mgrwt>
</event>
<event>
12    6  0.9491186E-008  0.1377131E+04  0.7818608E-02  0.8970541E-01
         -1   -1    0    0    0  501 -0.00000000000E+00  0.00000000000E+00  0.34282151463E+03  0.34282151463E+03  0.00000000000E+00 0.  1.
          2   -1    0    0  501    0  0.00000000000E+00 -0.00000000000E+00 -0.13830004909E+04  0.13830004909E+04  0.00000000000E+00 0. -1.
         24    2    1    2    0    0 -0.14258834905E+03 -0.33336345054E+02 -0.74169899209E+03  0.76013448792E+03  0.79020855904E+02 0.  0.
        254    2    1    2    0    0  0.14258834905E+03  0.33336345054E+02 -0.29847998417E+03  0.96568751760E+03  0.90665281752E+03 0.  0.
         23    2    4    4    0    0 -0.24242335234E+02  0.30812593268E+03  0.18987570545E+03  0.37404587788E+03  0.91259268191E+02 0.  0.
         23    2    4    4    0    0  0.16683068428E+03 -0.27478958763E+03 -0.48835568961E+03  0.59164163972E+03  0.90591145215E+02 0.  0.
          2    1    3    3  502    0 -0.10546023306E+03  0.12696165319E+02 -0.43457634005E+03  0.44736970025E+03  0.00000000000E+00 0. -1.
         -1    1    3    3    0  502 -0.37128115987E+02 -0.46032510373E+02 -0.30712265204E+03  0.31276478767E+03  0.00000000000E+00 0.  1.
         11    1    5    5    0    0  0.15487275296E+02  0.80104404780E+01  0.15274864841E+01  0.17503030244E+02  0.00000000000E+00 0.  1.
        -11    1    5    5    0    0 -0.39729610530E+02  0.30011549220E+03  0.18834821896E+03  0.35654284763E+03  0.00000000000E+00 0. -1.
          1    1    6    6  503    0  0.16870701931E+03 -0.26077151746E+03 -0.42303320210E+03  0.52480561426E+03  0.00000000000E+00 0. -1.
         -1    1    6    6    0  503 -0.18763350327E+01 -0.14018070170E+02 -0.65322487517E+02  0.66836025464E+02  0.00000000000E+00 0.  1.
<mgrwt>
<rscale>  0 0.13771308E+04</rscale>
<asrwt>0</asrwt>
<pdfrwt beam="1">  1        2 0.21276930E+00 0.13771308E+04</pdfrwt>
<pdfrwt beam="2">  1       -1 0.52741772E-01 0.13771308E+04</pdfrwt>
<totfact> 0.59574388E+01</totfact>
</mgrwt>
</event>
<event>
12    6  0.9491186E-008  0.1629977E+04  0.7818608E-02  0.8802341E-01
         -1   -1    0    0    0  501 -0.00000000000E+00  0.00000000000E+00  0.45534663109E+03  0.45534663109E+03  0.00000000000E+00 0.  1.
          2   -1    0    0  501    0  0.00000000000E+00 -0.00000000000E+00 -0.14586820049E+04  0.14586820049E+04  0.00000000000E+00 0. -1.
         24    2    1    2    0    0  0.24320896839E+03  0.23484197028E+03 -0.87763020526E+03  0.94653895355E+03  0.10677012733E+03 0.  0.
        254    2    1    2    0    0 -0.24320896839E+03 -0.23484197028E+03 -0.12570516855E+03  0.96748968244E+03  0.89773779185E+03 0.  0.
         23    2    4    4    0    0 -0.44744861540E+03 -0.20702251604E+02  0.21651214586E+03  0.50640811488E+03  0.94513612074E+02 0.  0.
         23    2    4    4    0    0  0.20423964700E+03 -0.21413971868E+03 -0.34221731442E+03  0.46108156756E+03  0.88959929947E+02 0.  0.
          4    1    3    3  502    0  0.23967428073E+03  0.18306267797E+03 -0.77283662151E+03  0.82959758224E+03  0.00000000000E+00 0. -1.
         -3    1    3    3    0  502  0.35346876604E+01  0.51779292305E+02 -0.10479358375E+03  0.11694137131E+03  0.00000000000E+00 0.  1.
         11    1    5    5    0    0 -0.44093336944E+02  0.49761781044E+01 -0.64128896241E+01  0.44834248792E+02  0.00000000000E+00 0. -1.
        -11    1    5    5    0    0 -0.40335527845E+03 -0.25678429709E+02  0.22292503549E+03  0.46157386609E+03  0.00000000000E+00 0.  1.
          2    1    6    6  503    0  0.11229811827E+02 -0.60089987508E+02 -0.82755605167E+02  0.10288539964E+03  0.00000000000E+00 0. -1.
         -2    1    6    6    0  503  0.19300983518E+03 -0.15404973117E+03 -0.25946170925E+03  0.35819616792E+03  0.00000000000E+00 0.  1.
<mgrwt>
<rscale>  0 0.16299766E+04</rscale>
<asrwt>0</asrwt>
<pdfrwt beam="1">  1        2 0.22441261E+00 0.16299766E+04</pdfrwt>
<pdfrwt beam="2">  1       -1 0.70053329E-01 0.16299766E+04</pdfrwt>
<totfact> 0.30089343E+01</totfact>
</mgrwt>
</event>
<event>
12    6  0.9491186E-008  0.1241728E+04  0.7818608E-02  0.9077097E-01
          4   -1    0    0  501    0  0.00000000000E+00  0.00000000000E+00  0.16482130132E+03  0.16482130132E+03  0.00000000000E+00 0. -1.
         -3   -1    0    0    0  501 -0.00000000000E+00 -0.00000000000E+00 -0.23387258154E+04  0.23387258154E+04  0.00000000000E+00 0.  1.
         24    2    1    2    0    0 -0.14636159458E+03 -0.77167449489E+02 -0.98203299705E+03  0.10006048089E+04  0.97183561864E+02 0.  0.
        254    2    1    2    0    0  0.14636159458E+03  0.77167449489E+02 -0.11918715170E+04  0.15029423078E+04  0.90050060293E+03 0.  0.
         23    2    4    4    0    0  0.77332765384E+02  0.46257694593E+03 -0.43634013157E+03  0.64705219428E+03  0.91247159959E+02 0.  0.
         23    2    4    4    0    0  0.69028829195E+02 -0.38540949644E+03 -0.75553138545E+03  0.85589011351E+03  0.91731961761E+02 0.  0.
          2    1    3    3  502    0 -0.35002693762E+02 -0.20378994263E+02 -0.77217667911E+02  0.87195528643E+02  0.00000000000E+00 0. -1.
         -1    1    3    3    0  502 -0.11135890082E+03 -0.56788455226E+02 -0.90481532914E+03  0.91340928027E+03  0.00000000000E+00 0.  1.
         11    1    5    5    0    0  0.30257327182E+02  0.35882431003E+03 -0.29497234105E+03  0.46548799480E+03  0.00000000000E+00 0. -1.
        -11    1    5    5    0    0  0.47075438202E+02  0.10375263590E+03 -0.14136779052E+03  0.18156419948E+03  0.00000000000E+00 0.  1.
          1    1    6    6  503    0  0.43154487933E+02 -0.36861903586E+03 -0.69080187822E+03  0.78418718325E+03  0.00000000000E+00 0. -1.
         -1    1    6    6    0  503  0.25874341262E+02 -0.16790460587E+02 -0.64729507225E+02  0.71702930261E+02  0.00000000000E+00 0.  1.
<mgrwt>
<rscale>  0 0.12417276E+04</rscale>
<asrwt>0</asrwt>
<pdfrwt beam="1">  1        4 0.25357124E-01 0.12417276E+04</pdfrwt>
<pdfrwt beam="2">  1       -3 0.35980396E+00 0.12417276E+04</pdfrwt>
<totfact> 0.59984906E-01</totfact>
</mgrwt>
</event>
<event>
12    6  0.9491186E-008  0.2433884E+04  0.7818608E-02  0.8426926E-01
          2   -1    0    0  501    0  0.00000000000E+00  0.00000000000E+00  0.11807643974E+04  0.11807643974E+04  0.00000000000E+00 0. -1.
         -3   -1    0    0    0  501 -0.00000000000E+00 -0.00000000000E+00 -0.12542281456E+04  0.12542281456E+04  0.00000000000E+00 0.  1.
         24    2    1    2    0    0 -0.35352036592E+03  0.56447698122E+03 -0.86979006037E+03  0.10985474653E+04  0.81614171150E+02 0.  0.
        254    2    1    2    0    0  0.35352036592E+03 -0.56447698122E+03  0.79632631218E+03  0.13364450777E+04  0.84162874166E+03 0.  0.
         23    2    4    4    0    0  0.60677612240E+03 -0.44538908668E+03  0.45546616020E+03  0.88454018988E+03  0.91723623898E+02 0.  0.
         23    2    4    4    0    0 -0.25325575649E+03 -0.11908789453E+03  0.34086015198E+03  0.45190488781E+03  0.98549376465E+02 0.  0.
          4    1    3    3  502    0 -0.18944922674E+03  0.22888815977E+03 -0.36769805436E+03  0.47273952487E+03  0.00000000000E+00 0. -1.
         -3    1    3    3    0  502 -0.16407113918E+03  0.33558882145E+03 -0.50209200601E+03  0.62580794042E+03  0.00000000000E+00 0.  1.
         11    1    5    5    0    0  0.33577153759E+03 -0.28834114305E+03  0.23142612145E+03  0.49944087730E+03  0.00000000000E+00 0.  1.
        -11    1    5    5    0    0  0.27100458481E+03 -0.15704794363E+03  0.22404003875E+03  0.38509931258E+03  0.00000000000E+00 0. -1.
          1    1    6    6  503    0 -0.17966872998E+03 -0.11369232336E+03  0.19525397156E+03  0.28867093780E+03  0.00000000000E+00 0. -1.
         -1    1    6    6    0  503 -0.73587026511E+02 -0.53955711734E+01  0.14560618041E+03  0.16323395000E+03  0.00000000000E+00 0.  1.
<mgrwt>
<rscale>  0 0.24338841E+04</rscale>
<asrwt>0</asrwt>
<pdfrwt beam="1">  1        2 0.18165606E+00 0.24338841E+04</pdfrwt>
<pdfrwt beam="2">  1       -3 0.19295818E+00 0.24338841E+04</pdfrwt>
<totfact> 0.17865398E+00</totfact>
</mgrwt>
</event>
<event>
12    6  0.9491186E-008  0.1354973E+04  0.7818608E-02  0.8987072E-01
         -1   -1    0    0    0  501 -0.00000000000E+00  0.00000000000E+00  0.80719671764E+03  0.80719671764E+03  0.00000000000E+00 0.  1.
          2   -1    0    0  501    0  0.00000000000E+00 -0.00000000000E+00 -0.56861962753E+03  0.56861962753E+03  0.00000000000E+00 0. -1.
         24    2    1    2    0    0 -0.25811686093E+03  0.45051545907E+01  0.34723540153E+03  0.44008283224E+03  0.80348396642E+02 0.  0.
        254    2    1    2    0    0  0.25811686093E+03 -0.45051545907E+01 -0.10865831142E+03  0.93573351292E+03  0.89283031324E+03 0.  0.
         23    2    4    4    0    0 -0.30359344962E+03  0.12440514879E+03 -0.78970698690E+02  0.35139660759E+03  0.97967243901E+02 0.  0.
         23    2    4    4    0    0  0.56171031055E+03 -0.12891030338E+03 -0.29687612732E+02  0.58433690533E+03  0.91825515470E+02 0.  0.
          2    1    3    3  502    0 -0.17689134179E+03  0.21192815546E+02  0.28619795281E+03  0.33711859993E+03  0.00000000000E+00 0. -1.
         -1    1    3    3    0  502 -0.81225519142E+02 -0.16687660956E+02  0.61037448726E+02  0.10296423231E+03  0.00000000000E+00 0.  1.
         11    1    5    5    0    0 -0.34542402655E+02  0.53465504736E+02 -0.73165931318E+01  0.64072383387E+02  0.00000000000E+00 0.  1.
        -11    1    5    5    0    0 -0.26905104696E+03  0.70939644051E+02 -0.71654105558E+02  0.28732422420E+03  0.00000000000E+00 0. -1.
          3    1    6    6  503    0  0.52697449677E+03 -0.11231479840E+03 -0.54353470852E+01  0.53883789509E+03  0.00000000000E+00 0. -1.
         -3    1    6    6    0  503  0.34735813781E+02 -0.16595504975E+02 -0.24252265647E+02  0.45499010247E+02  0.00000000000E+00 0.  1.
<mgrwt>
<rscale>  0 0.13549729E+04</rscale>
<asrwt>0</asrwt>
<pdfrwt beam="1">  1        2 0.87479943E-01 0.13549729E+04</pdfrwt>
<pdfrwt beam="2">  1       -1 0.12418411E+00 0.13549729E+04</pdfrwt>
<totfact> 0.33601226E+01</totfact>
</mgrwt>
</event>
<event>
12    6  0.9491186E-008  0.3306886E+04  0.7818608E-02  0.8161145E-01
         -1   -1    0    0    0  501 -0.00000000000E+00  0.00000000000E+00  0.10438426648E+04  0.10438426648E+04  0.00000000000E+00 0.  1.
          2   -1    0    0  501    0  0.00000000000E+00 -0.00000000000E+00 -0.26190477139E+04  0.26190477139E+04  0.00000000000E+00 0. -1.
         24    2    1    2    0    0  0.10053306667E+04  0.65493079906E+02  0.54608874357E+03  0.11487153528E+04  0.79717959985E+02 0.  0.
        254    2    1    2    0    0 -0.10053306667E+04 -0.65493079906E+02 -0.21212937927E+04  0.25141750258E+04  0.89789175995E+03 0.  0.
         23    2    4    4    0    0 -0.29266845570E+03 -0.99243765658E+02 -0.15847427154E+04  0.16168801725E+04  0.85952710510E+02 0.  0.
         23    2    4    4    0    0 -0.71266221097E+03  0.33750685752E+02 -0.53655107735E+03  0.89729485329E+03  0.90688805220E+02 0.  0.
          2    1    3    3  502    0  0.33917645274E+03  0.30484526154E+02  0.22689068115E+03  0.40920575952E+03  0.00000000000E+00 0. -1.
         -1    1    3    3    0  502  0.66615421393E+03  0.35008553752E+02  0.31919806242E+03  0.73950959333E+03  0.00000000000E+00 0.  1.
         11    1    5    5    0    0 -0.98240395650E+02 -0.29731973285E+02 -0.34093375294E+03  0.35604913912E+03  0.00000000000E+00 0.  1.
        -11    1    5    5    0    0 -0.19442806005E+03 -0.69511792374E+02 -0.12438089624E+04  0.12608310334E+04  0.00000000000E+00 0. -1.
          4    1    6    6  503    0 -0.37229719500E+03 -0.25112108103E+02 -0.29753343593E+03  0.47724413551E+03  0.00000000000E+00 0. -1.
         -4    1    6    6    0  503 -0.34036501597E+03  0.58862793855E+02 -0.23901764142E+03  0.42005071778E+03  0.00000000000E+00 0.  1.
<mgrwt>
<rscale>  0 0.33068860E+04</rscale>
<asrwt>0</asrwt>
<pdfrwt beam="1">  1        2 0.40293041E+00 0.33068860E+04</pdfrwt>
<pdfrwt beam="2">  1       -1 0.16059118E+00 0.33068860E+04</pdfrwt>
<totfact> 0.81335977E-01</totfact>
</mgrwt>
</event>
<event>
12    6  0.9491186E-008  0.1657658E+04  0.7818608E-02  0.8785889E-01
         -1   -1    0    0    0  501 -0.00000000000E+00  0.00000000000E+00  0.69010060634E+03  0.69010060634E+03  0.00000000000E+00 0.  1.
          2   -1    0    0  501    0  0.00000000000E+00 -0.00000000000E+00 -0.99544508247E+03  0.99544508247E+03  0.00000000000E+00 0. -1.
         24    2    1    2    0    0 -0.31872813809E+03 -0.69888799257E+02  0.38196852708E+03  0.50871728420E+03  0.80132698039E+02 0.  0.
        254    2    1    2    0    0  0.31872813809E+03  0.69888799257E+02 -0.68731300321E+03  0.11768284046E+04  0.89780502294E+03 0.  0.
         23    2    4    4    0    0  0.82397496883E+02 -0.38886172036E+03 -0.43035671444E+03  0.59314144501E+03  0.92774388035E+02 0.  0.
         23    2    4    4    0    0  0.23633064121E+03  0.45875051962E+03 -0.25695628877E+03  0.58368695959E+03  0.91431511117E+02 0.  0.
          4    1    3    3  502    0 -0.17024780503E+03 -0.27564654459E+02  0.14214873490E+03  0.22349583470E+03  0.00000000000E+00 0. -1.
         -3    1    3    3    0  502 -0.14848033306E+03 -0.42324144797E+02  0.23981979217E+03  0.28522144951E+03  0.00000000000E+00 0.  1.
         11    1    5    5    0    0  0.59397212910E+02 -0.35882104150E+03 -0.35208860083E+03  0.50620840723E+03  0.00000000000E+00 0.  1.
        -11    1    5    5    0    0  0.23000283974E+02 -0.30040678869E+02 -0.78268113611E+02  0.86933037782E+02  0.00000000000E+00 0. -1.
          3    1    6    6  503    0  0.13283321950E+02 -0.65799257084E+00 -0.48390464656E+01  0.14152595767E+02  0.00000000000E+00 0. -1.
         -3    1    6    6    0  503  0.22304731926E+03  0.45940851219E+03 -0.25211724231E+03  0.56953436382E+03  0.00000000000E+00 0.  1.
<mgrwt>
<rscale>  0 0.16576577E+04</rscale>
<asrwt>0</asrwt>
<pdfrwt beam="1">  1        2 0.15314540E+00 0.16576577E+04</pdfrwt>
<pdfrwt beam="2">  1       -1 0.10616932E+00 0.16576577E+04</pdfrwt>
<totfact> 0.22920323E+01</totfact>
</mgrwt>
</event>
<event>
12    6  0.9491186E-008  0.2535851E+04  0.7818608E-02  0.8390324E-01
          2   -1    0    0  501    0  0.00000000000E+00  0.00000000000E+00  0.21361533937E+04  0.21361533937E+04  0.00000000000E+00 0. -1.
         -1   -1    0    0    0  501 -0.00000000000E+00 -0.00000000000E+00 -0.75258381935E+03  0.75258381935E+03  0.00000000000E+00 0.  1.
         24    2    1    2    0    0  0.77270553250E+03  0.71397185780E+02  0.14358604981E+04  0.16340735556E+04  0.79558891074E+02 0.  0.
        254    2    1    2    0    0 -0.77270553250E+03 -0.71397185780E+02 -0.52290923714E+02  0.12546636574E+04  0.98451772687E+03 0.  0.
         23    2    4    4    0    0 -0.22865999340E+03 -0.31802248521E+03 -0.39128736644E+03  0.56213659427E+03  0.97303924924E+02 0.  0.
         23    2    4    4    0    0 -0.54404553910E+03  0.24662529943E+03  0.33899644273E+03  0.69252706317E+03  0.88687981716E+02 0.  0.
          4    1    3    3  502    0  0.65860887388E+03  0.80970461668E+02  0.11804414270E+04  0.13541653618E+04  0.00000000000E+00 0. -1.
         -3    1    3    3    0  502  0.11409665862E+03 -0.95732758875E+01  0.25541907110E+03  0.27990819388E+03  0.00000000000E+00 0.  1.
         11    1    5    5    0    0 -0.20214829007E+03 -0.22785078055E+03 -0.33413787899E+03  0.45213718222E+03  0.00000000000E+00 0. -1.
        -11    1    5    5    0    0 -0.26511703328E+02 -0.90171704664E+02 -0.57149487451E+02  0.10999941205E+03  0.00000000000E+00 0.  1.
          3    1    6    6  503    0 -0.31373047009E+03  0.95969628404E+02  0.16908273643E+03  0.36908799655E+03  0.00000000000E+00 0. -1.
         -3    1    6    6    0  503 -0.23031506902E+03  0.15065567103E+03  0.16991370630E+03  0.32343906662E+03  0.00000000000E+00 0.  1.
<mgrwt>
<rscale>  0 0.25358505E+04</rscale>
<asrwt>0</asrwt>
<pdfrwt beam="1">  1        2 0.32863898E+00 0.25358505E+04</pdfrwt>
<pdfrwt beam="2">  1       -1 0.11578213E+00 0.25358505E+04</pdfrwt>
<totfact> 0.38309966E+00</totfact>
</mgrwt>
</event>
<event>
12    6  0.9491186E-008  0.1463888E+04  0.7818608E-02  0.8908829E-01
          2   -1    0    0  501    0  0.00000000000E+00  0.00000000000E+00  0.79508843480E+03  0.79508843480E+03  0.00000000000E+00 0. -1.
         -1   -1    0    0    0  501 -0.00000000000E+00 -0.00000000000E+00 -0.67381436944E+03  0.67381436944E+03  0.00000000000E+00 0.  1.
         24    2    1    2    0    0  0.87854103085E+02 -0.73593764286E+02 -0.39710690184E+03  0.42311833317E+03  0.90558526935E+02 0.  0.
        254    2    1    2    0    0 -0.87854103085E+02  0.73593764286E+02  0.51838096720E+03  0.10457844711E+04  0.90100607501E+03 0.  0.
         23    2    4    4    0    0 -0.11959782862E+03  0.21880026510E+03 -0.18154607986E+03  0.32431654215E+03  0.10022496584E+03 0.  0.
         23    2    4    4    0    0  0.31743725533E+02 -0.14520650081E+03  0.69992704707E+03  0.72146792893E+03  0.92333684373E+02 0.  0.
          2    1    3    3  502    0  0.63288390579E+02 -0.63580158984E+02 -0.15139207388E+03  0.17597561488E+03  0.00000000000E+00 0. -1.
         -1    1    3    3    0  502  0.24565712507E+02 -0.10013605302E+02 -0.24571482796E+03  0.24714271829E+03  0.00000000000E+00 0.  1.
         11    1    5    5    0    0 -0.40202868549E+02  0.99448924337E+02 -0.21391574780E+02  0.10937988235E+03  0.00000000000E+00 0.  1.
        -11    1    5    5    0    0 -0.79394960070E+02  0.11935134076E+03 -0.16015450508E+03  0.21493665980E+03  0.00000000000E+00 0. -1.
          3    1    6    6  503    0 -0.20885524206E+02 -0.87011060676E+02  0.47216609881E+03  0.48057044714E+03  0.00000000000E+00 0. -1.
         -3    1    6    6    0  503  0.52629249739E+02 -0.58195440137E+02  0.22776094826E+03  0.24089748179E+03  0.00000000000E+00 0.  1.
<mgrwt>
<rscale>  0 0.14638880E+04</rscale>
<asrwt>0</asrwt>
<pdfrwt beam="1">  1        2 0.12232130E+00 0.14638880E+04</pdfrwt>
<pdfrwt beam="2">  1       -1 0.10366375E+00 0.14638880E+04</pdfrwt>
<totfact> 0.33707247E+01</totfact>
</mgrwt>
</event>
<event>
12    6  0.9491186E-008  0.1930711E+04  0.7818608E-02  0.8639719E-01
          2   -1    0    0  501    0  0.00000000000E+00  0.00000000000E+00  0.24345522426E+04  0.24345522426E+04  0.00000000000E+00 0. -1.
         -1   -1    0    0    0  501 -0.00000000000E+00 -0.00000000000E+00 -0.38278553100E+03  0.38278553100E+03  0.00000000000E+00 0.  1.
         24    2    1    2    0    0 -0.45565542569E+03 -0.48249283781E+02  0.16687996127E+04  0.17323956869E+04  0.79704505839E+02 0.  0.
        254    2    1    2    0    0  0.45565542569E+03  0.48249283781E+02  0.38296709885E+03  0.10849420867E+04  0.90580664176E+03 0.  0.
         23    2    4    4    0    0 -0.44173720802E+02  0.10911242479E+03 -0.23776891535E+03  0.28053573157E+03  0.91155914389E+02 0.  0.
         23    2    4    4    0    0  0.49982914649E+03 -0.60863141010E+02  0.62073601420E+03  0.80440635509E+03  0.90680136590E+02 0.  0.
          2    1    3    3  502    0 -0.40272184247E+03 -0.16319654380E+02  0.14641391090E+04  0.15186028263E+04  0.00000000000E+00 0. -1.
         -3    1    3    3    0  502 -0.52933583217E+02 -0.31929629401E+02  0.20466050369E+03  0.21379286058E+03  0.00000000000E+00 0.  1.
         11    1    5    5    0    0 -0.16102386689E+02  0.92972272922E+02 -0.22793761903E+03  0.24669553818E+03  0.00000000000E+00 0.  1.
        -11    1    5    5    0    0 -0.28071334113E+02  0.16140151868E+02 -0.98312963181E+01  0.33840193388E+02  0.00000000000E+00 0. -1.
          2    1    6    6  503    0  0.26039990321E+03  0.12528357811E+02  0.33428458699E+03  0.42392364223E+03  0.00000000000E+00 0.  1.
         -2    1    6    6    0  503  0.23942924328E+03 -0.73391498821E+02  0.28645142721E+03  0.38048271286E+03  0.00000000000E+00 0. -1.
<mgrwt>
<rscale>  0 0.19307111E+04</rscale>
<asrwt>0</asrwt>
<pdfrwt beam="1">  1        2 0.37454649E+00 0.19307111E+04</pdfrwt>
<pdfrwt beam="2">  1       -1 0.58890083E-01 0.19307111E+04</pdfrwt>
<totfact> 0.11811991E+01</totfact>
</mgrwt>
</event>
<event>
12    6  0.9491186E-008  0.1552581E+04  0.7818608E-02  0.8850221E-01
         -3   -1    0    0    0  501 -0.00000000000E+00  0.00000000000E+00  0.34942188325E+04  0.34942188325E+04  0.00000000000E+00 0.  1.
          4   -1    0    0  501    0  0.00000000000E+00 -0.00000000000E+00 -0.17246400118E+03  0.17246400118E+03  0.00000000000E+00 0. -1.
         24    2    1    2    0    0  0.44906234565E+02  0.36944215169E+03  0.19770129827E+04  0.20126088831E+04  0.59246174664E+02 0.  0.
        254    2    1    2    0    0 -0.44906234565E+02 -0.36944215169E+03  0.13447418487E+04  0.16540739506E+04  0.88832759793E+03 0.  0.
         23    2    4    4    0    0  0.23536188889E+03 -0.89097940804E+02  0.11895651189E+04  0.12192830356E+04  0.90842100467E+02 0.  0.
         23    2    4    4    0    0 -0.28026812346E+03 -0.28034421089E+03  0.15517672981E+03  0.43479091499E+03  0.88432034220E+02 0.  0.
          2    1    3    3  502    0 -0.64638429186E+01  0.97727294629E+01  0.35191830044E+02  0.37091136519E+02  0.00000000000E+00 0. -1.
         -1    1    3    3    0  502  0.51370077484E+02  0.35966942223E+03  0.19418211526E+04  0.19755177466E+04  0.00000000000E+00 0.  1.
         11    1    5    5    0    0  0.22667024953E+02  0.76665319712E+01  0.24815500231E+03  0.24930598649E+03  0.00000000000E+00 0.  1.
        -11    1    5    5    0    0  0.21269486394E+03 -0.96764472776E+02  0.94141011655E+03  0.96997704915E+03  0.00000000000E+00 0. -1.
          2    1    6    6  503    0 -0.17050244407E+03 -0.11265386472E+03  0.96231878181E+02  0.22588171915E+03  0.00000000000E+00 0. -1.
         -2    1    6    6    0  503 -0.10976567939E+03 -0.16769034617E+03  0.58944851632E+02  0.20890919584E+03  0.00000000000E+00 0.  1.
<mgrwt>
<rscale>  0 0.15525810E+04</rscale>
<asrwt>0</asrwt>
<pdfrwt beam="1">  1        4 0.26532926E-01 0.15525810E+04</pdfrwt>
<pdfrwt beam="2">  1       -3 0.53757207E+00 0.15525810E+04</pdfrwt>
<totfact> 0.58905328E-02</totfact>
</mgrwt>
</event>
<event>
12    6  0.9491186E-008  0.1569807E+04  0.7818608E-02  0.8839314E-01
          2   -1    0    0  501    0  0.00000000000E+00  0.00000000000E+00  0.36105854148E+04  0.36105854148E+04  0.00000000000E+00 0. -1.
         -3   -1    0    0    0  501 -0.00000000000E+00 -0.00000000000E+00 -0.17062989900E+03  0.17062989900E+03  0.00000000000E+00 0.  1.
         24    2    1    2    0    0  0.34763021682E+03  0.37022958914E+03  0.78270989861E+03  0.93638736276E+03  0.79182014554E+02 0.  0.
        254    2    1    2    0    0 -0.34763021682E+03 -0.37022958914E+03  0.26572456172E+04  0.28448279511E+04  0.87987219793E+03 0.  0.
         23    2    4    4    0    0 -0.43804420592E+03  0.15542957165E+03  0.13001251480E+04  0.13837605932E+04  0.91798151739E+02 0.  0.
         23    2    4    4    0    0  0.90413989100E+02 -0.52565916079E+03  0.13571204692E+04  0.14610673579E+04  0.91921779903E+02 0.  0.
          2    1    3    3  502    0  0.23054602044E+03  0.21279902216E+03  0.42304005136E+03  0.52668565239E+03  0.00000000000E+00 0. -1.
         -1    1    3    3    0  502  0.11708419638E+03  0.15743056698E+03  0.35966984725E+03  0.40970171037E+03  0.00000000000E+00 0.  1.
         11    1    5    5    0    0 -0.20139816274E+03  0.40214295254E+02  0.47009142407E+03  0.51299547413E+03  0.00000000000E+00 0. -1.
        -11    1    5    5    0    0 -0.23664604319E+03  0.11521527640E+03  0.83003372397E+03  0.87076511907E+03  0.00000000000E+00 0.  1.
          3    1    6    6  503    0  0.73678496160E+02 -0.17122431855E+03  0.46369115740E+03  0.49975571784E+03  0.00000000000E+00 0. -1.
         -3    1    6    6    0  503  0.16735492941E+02 -0.35443484224E+03  0.89342931176E+03  0.96131164002E+03  0.00000000000E+00 0.  1.
<mgrwt>
<rscale>  0 0.15698074E+04</rscale>
<asrwt>0</asrwt>
<pdfrwt beam="1">  1        2 0.55547462E+00 0.15698074E+04</pdfrwt>
<pdfrwt beam="2">  1       -3 0.26250756E-01 0.15698074E+04</pdfrwt>
<totfact> 0.60151435E+00</totfact>
</mgrwt>
</event>
<event>
12    6  0.9491186E-008  0.1855417E+04  0.7818608E-02  0.8677372E-01
         -1   -1    0    0    0  501 -0.00000000000E+00  0.00000000000E+00  0.13809086580E+04  0.13809086580E+04  0.00000000000E+00 0.  1.
          2   -1    0    0  501    0  0.00000000000E+00 -0.00000000000E+00 -0.62324420677E+03  0.62324420677E+03  0.00000000000E+00 0. -1.
         24    2    1    2    0    0 -0.55297052897E+03  0.26723440198E+03 -0.83905878241E+02  0.62582608568E+03  0.86182722169E+02 0.  0.
        254    2    1    2    0    0  0.55297052897E+03 -0.26723440198E+03  0.84157032944E+03  0.13783267790E+04  0.90241534724E+03 0.  0.
         23    2    4    4    0    0  0.63160732996E+03  0.15101536208E+03  0.50745755407E+03  0.82908859835E+03  0.90229019145E+02 0.  0.
         23    2    4    4    0    0 -0.78636800982E+02 -0.41824976406E+03  0.33411277537E+03  0.54923818069E+03  0.94417269963E+02 0.  0.
          2    1    3    3  502    0 -0.36607449083E+02  0.12628388577E+02  0.15267454560E+02  0.41625433273E+02  0.00000000000E+00 0. -1.
         -1    1    3    3    0  502 -0.51636307989E+03  0.25460601340E+03 -0.99173332801E+02  0.58420065241E+03  0.00000000000E+00 0.  1.
         11    1    5    5    0    0  0.37350586271E+01  0.35698213532E+01 -0.35192819694E+01  0.62513704915E+01  0.00000000000E+00 0.  1.
        -11    1    5    5    0    0  0.62787227133E+03  0.14744554072E+03  0.51097683604E+03  0.82283722786E+03  0.00000000000E+00 0. -1.
          3    1    6    6  503    0 -0.91512653798E+02 -0.38248725937E+03  0.27861684207E+03  0.48197345785E+03  0.00000000000E+00 0. -1.
         -3    1    6    6    0  503  0.12875852816E+02 -0.35762504687E+02  0.55495933292E+02  0.67264722844E+02  0.00000000000E+00 0.  1.
<mgrwt>
<rscale>  0 0.18554173E+04</rscale>
<asrwt>0</asrwt>
<pdfrwt beam="1">  1        2 0.95883724E-01 0.18554173E+04</pdfrwt>
<pdfrwt beam="2">  1       -1 0.21244749E+00 0.18554173E+04</pdfrwt>
<totfact> 0.62883626E+00</totfact>
</mgrwt>
</event>
<event>
12    6  0.9491186E-008  0.1580353E+04  0.7818608E-02  0.8832709E-01
         -3   -1    0    0    0  501 -0.00000000000E+00  0.00000000000E+00  0.40896041906E+03  0.40896041906E+03  0.00000000000E+00 0.  1.
          2   -1    0    0  501    0  0.00000000000E+00 -0.00000000000E+00 -0.15267474840E+04  0.15267474840E+04  0.00000000000E+00 0. -1.
         24    2    1    2    0    0 -0.53073269364E+03  0.52324591555E+01 -0.41491718797E+03  0.67838761832E+03  0.79680092232E+02 0.  0.
        254    2    1    2    0    0  0.53073269364E+03 -0.52324591555E+01 -0.70286987700E+03  0.12573202848E+04  0.89728683472E+03 0.  0.
         23    2    4    4    0    0 -0.38787205183E+02  0.13098892932E+03 -0.64065086919E+03  0.66147145663E+03  0.91915204704E+02 0.  0.
         23    2    4    4    0    0  0.56951989882E+03 -0.13622138847E+03 -0.62219007810E+02  0.59584882814E+03  0.90859447659E+02 0.  0.
          4    1    3    3  502    0 -0.21674422381E+03  0.28499181334E+02 -0.13383272202E+03  0.25632295913E+03  0.00000000000E+00 0. -1.
         -3    1    3    3    0  502 -0.31398846982E+03 -0.23266722179E+02 -0.28108446595E+03  0.42206465919E+03  0.00000000000E+00 0.  1.
         11    1    5    5    0    0 -0.68798229883E+02  0.91120571169E+02 -0.47039237932E+03  0.48405076743E+03  0.00000000000E+00 0.  1.
        -11    1    5    5    0    0  0.30011024700E+02  0.39868358147E+02 -0.17025848987E+03  0.17742068920E+03  0.00000000000E+00 0. -1.
          3    1    6    6  503    0  0.49285079112E+03 -0.14282375152E+03 -0.35366770118E+02  0.51434554021E+03  0.00000000000E+00 0. -1.
         -3    1    6    6    0  503  0.76669107704E+02  0.66023630530E+01 -0.26852237692E+02  0.81503287928E+02  0.00000000000E+00 0.  1.
<mgrwt>
<rscale>  0 0.15803535E+04</rscale>
<asrwt>0</asrwt>
<pdfrwt beam="1">  1        2 0.23488422E+00 0.15803535E+04</pdfrwt>
<pdfrwt beam="2">  1       -3 0.62916989E-01 0.15803535E+04</pdfrwt>
<totfact> 0.18472954E+01</totfact>
</mgrwt>
</event>
<event>
12    6  0.9491186E-008  0.1897130E+04  0.7818608E-02  0.8656286E-01
          2   -1    0    0  501    0  0.00000000000E+00  0.00000000000E+00  0.28510235740E+04  0.28510235740E+04  0.00000000000E+00 0. -1.
         -1   -1    0    0    0  501 -0.00000000000E+00 -0.00000000000E+00 -0.31559744140E+03  0.31559744140E+03  0.00000000000E+00 0.  1.
         24    2    1    2    0    0 -0.62959798140E+03  0.24181990600E+02  0.35734479534E+03  0.72872883365E+03  0.79824954558E+02 0.  0.
        254    2    1    2    0    0  0.62959798140E+03 -0.24181990600E+02  0.21780813373E+04  0.24378921818E+04  0.89571289557E+03 0.  0.
         23    2    4    4    0    0  0.86879906044E+02  0.35702640431E+03  0.47664558787E+03  0.60931407983E+03  0.95166485696E+02 0.  0.
         23    2    4    4    0    0  0.54271807536E+03 -0.38120839491E+03  0.17014357494E+04  0.18285781020E+04  0.94612450837E+02 0.  0.
          2    1    3    3  502    0 -0.32374180497E+02 -0.16401703699E+02  0.24839588786E+02  0.43978501772E+02  0.00000000000E+00 0. -1.
         -1    1    3    3    0  502 -0.59722380091E+03  0.40583694299E+02  0.33250520656E+03  0.68475033187E+03  0.00000000000E+00 0.  1.
         11    1    5    5    0    0  0.40260572995E+02  0.25076394784E+03  0.38603182589E+03  0.46208661728E+03  0.00000000000E+00 0. -1.
        -11    1    5    5    0    0  0.46619333049E+02  0.10626245647E+03  0.90613761986E+02  0.14722746255E+03  0.00000000000E+00 0.  1.
          2    1    6    6  503    0  0.36127682957E+03 -0.29185204651E+03  0.10992422523E+04  0.11933281585E+04  0.00000000000E+00 0. -1.
         -2    1    6    6    0  503  0.18144124579E+03 -0.89356348397E+02  0.60219349716E+03  0.63524994348E+03  0.00000000000E+00 0.  1.
<mgrwt>
<rscale>  0 0.18971302E+04</rscale>
<asrwt>0</asrwt>
<pdfrwt beam="1">  1        2 0.43861899E+00 0.18971302E+04</pdfrwt>
<pdfrwt beam="2">  1       -1 0.48553454E-01 0.18971302E+04</pdfrwt>
<totfact> 0.97668665E+00</totfact>
</mgrwt>
</event>
<event>
12    6  0.9491186E-008  0.3491309E+04  0.7818608E-02  0.8115853E-01
         -1   -1    0    0    0  501 -0.00000000000E+00  0.00000000000E+00  0.13524793705E+04  0.13524793705E+04  0.00000000000E+00 0.  1.
          2   -1    0    0  501    0  0.00000000000E+00 -0.00000000000E+00 -0.22531287516E+04  0.22531287516E+04  0.00000000000E+00 0. -1.
         24    2    1    2    0    0 -0.13995412450E+03 -0.48657481546E+03  0.11780731006E+04  0.12847468932E+04  0.79850742409E+02 0.  0.
        254    2    1    2    0    0  0.13995412450E+03  0.48657481546E+03 -0.20787224817E+04  0.23208612289E+04  0.89942619497E+03 0.  0.
         23    2    4    4    0    0  0.42417775042E+02 -0.22886597946E+03 -0.25519540555E+03  0.35774540114E+03  0.93156711123E+02 0.  0.
         23    2    4    4    0    0  0.97536349460E+02  0.71544079492E+03 -0.18235270761E+04  0.19631158278E+04  0.84875706356E+02 0.  0.
          2    1    3    3  502    0 -0.51316702040E+02 -0.10785138921E+03  0.35133787976E+03  0.37108439985E+03  0.00000000000E+00 0. -1.
         -1    1    3    3    0  502 -0.88637422462E+02 -0.37872342625E+03  0.82673522088E+03  0.91366249331E+03  0.00000000000E+00 0.  1.
         11    1    5    5    0    0  0.35328510282E+02 -0.53735137702E+02 -0.12089173900E+03  0.13693203139E+03  0.00000000000E+00 0. -1.
        -11    1    5    5    0    0  0.70892647604E+01 -0.17513084176E+03 -0.13430366655E+03  0.22081336975E+03  0.00000000000E+00 0.  1.
          2    1    6    6  503    0 -0.12692655829E+02  0.51380158798E+02 -0.10868502847E+03  0.12088614331E+03  0.00000000000E+00 0. -1.
         -2    1    6    6    0  503  0.11022900529E+03  0.66406063613E+03 -0.17148420476E+04  0.18422296845E+04  0.00000000000E+00 0.  1.
<mgrwt>
<rscale>  0 0.34913093E+04</rscale>
<asrwt>0</asrwt>
<pdfrwt beam="1">  1        2 0.34663519E+00 0.34913093E+04</pdfrwt>
<pdfrwt beam="2">  1       -1 0.20807375E+00 0.34913093E+04</pdfrwt>
<totfact> 0.59696537E-01</totfact>
</mgrwt>
</event>
<event>
12    6  0.9491186E-008  0.1393106E+04  0.7818608E-02  0.8958824E-01
          2   -1    0    0  501    0  0.00000000000E+00  0.00000000000E+00  0.11734021066E+04  0.11734021066E+04  0.00000000000E+00 0. -1.
         -1   -1    0    0    0  501 -0.00000000000E+00 -0.00000000000E+00 -0.41348667396E+03  0.41348667396E+03  0.00000000000E+00 0.  1.
         24    2    1    2    0    0 -0.53313237022E+02  0.39726963977E+03  0.20433097139E+03  0.45671592719E+03  0.78567323696E+02 0.  0.
        254    2    1    2    0    0  0.53313237022E+02 -0.39726963977E+03  0.55558446129E+03  0.11301728534E+04  0.89886101098E+03 0.  0.
         23    2    4    4    0    0  0.30779573546E+03 -0.37135387867E+03  0.67421112421E+03  0.83392563556E+03  0.90716082739E+02 0.  0.
         23    2    4    4    0    0 -0.25448249844E+03 -0.25915761103E+02 -0.11862666292E+03  0.29624721786E+03  0.90868917920E+02 0.  0.
          4    1    3    3  502    0  0.17534218788E+02  0.14152054542E+03  0.81992035721E+02  0.16449379176E+03  0.00000000000E+00 0. -1.
         -3    1    3    3    0  502 -0.70847455811E+02  0.25574909435E+03  0.12233893567E+03  0.29222213543E+03  0.00000000000E+00 0.  1.
         11    1    5    5    0    0  0.91431853829E+02 -0.88407834200E+02  0.11833300583E+03  0.17371939820E+03  0.00000000000E+00 0. -1.
        -11    1    5    5    0    0  0.21636388164E+03 -0.28294604447E+03  0.55587811839E+03  0.66020623737E+03  0.00000000000E+00 0.  1.
          4    1    6    6  503    0 -0.22005792483E+03 -0.22395724533E+02 -0.13374408964E+03  0.25848508713E+03  0.00000000000E+00 0.  1.
         -4    1    6    6    0  503 -0.34424573617E+02 -0.35200365705E+01  0.15117426719E+02  0.37762130724E+02  0.00000000000E+00 0. -1.
<mgrwt>
<rscale>  0 0.13931061E+04</rscale>
<asrwt>0</asrwt>
<pdfrwt beam="1">  1        2 0.18052340E+00 0.13931061E+04</pdfrwt>
<pdfrwt beam="2">  1       -1 0.63613335E-01 0.13931061E+04</pdfrwt>
<totfact> 0.54688090E+01</totfact>
</mgrwt>
</event>
<event>
12    6  0.9491186E-008  0.1954720E+04  0.7818608E-02  0.8628088E-01
          2   -1    0    0  501    0  0.00000000000E+00  0.00000000000E+00  0.21155905443E+04  0.21155905443E+04  0.00000000000E+00 0. -1.
         -3   -1    0    0    0  501 -0.00000000000E+00 -0.00000000000E+00 -0.45152033252E+03  0.45152033252E+03  0.00000000000E+00 0.  1.
         24    2    1    2    0    0  0.65185008859E+03  0.28971891291E+03  0.10279318442E+04  0.12533415460E+04  0.73318266237E+02 0.  0.
        254    2    1    2    0    0 -0.65185008859E+03 -0.28971891291E+03  0.63613836758E+03  0.13137693308E+04  0.90137242322E+03 0.  0.
         23    2    4    4    0    0 -0.81049371556E+03 -0.21837301993E+02  0.52499865254E+03  0.97017022626E+03  0.90717980723E+02 0.  0.
         23    2    4    4    0    0  0.15864362697E+03 -0.26788161092E+03  0.11113971505E+03  0.34359910454E+03  0.93701390239E+02 0.  0.
          4    1    3    3  502    0  0.45336547513E+03  0.18505691230E+03  0.64989885591E+03  0.81372897069E+03  0.00000000000E+00 0. -1.
         -3    1    3    3    0  502  0.19848461347E+03  0.10466200061E+03  0.37803298825E+03  0.43961257530E+03  0.00000000000E+00 0.  1.
         11    1    5    5    0    0 -0.25483955805E+02  0.12082837352E+02  0.70399263015E+01  0.29068669117E+02  0.00000000000E+00 0. -1.
        -11    1    5    5    0    0 -0.78500975976E+03 -0.33920139345E+02  0.51795872624E+03  0.94110155714E+03  0.00000000000E+00 0.  1.
          2    1    6    6  503    0  0.13548287977E+02  0.31756938324E+01  0.17189455274E+02  0.22116023852E+02  0.00000000000E+00 0. -1.
         -2    1    6    6    0  503  0.14509533899E+03 -0.27105730475E+03  0.93950259772E+02  0.32148308069E+03  0.00000000000E+00 0.  1.
<mgrwt>
<rscale>  0 0.19547196E+04</rscale>
<asrwt>0</asrwt>
<pdfrwt beam="1">  1        2 0.32547546E+00 0.19547196E+04</pdfrwt>
<pdfrwt beam="2">  1       -3 0.69464668E-01 0.19547196E+04</pdfrwt>
<totfact> 0.68259215E+00</totfact>
</mgrwt>
</event>
<event>
12    6  0.9491186E-008  0.1519029E+04  0.7818608E-02  0.8871896E-01
          2   -1    0    0  501    0  0.00000000000E+00  0.00000000000E+00  0.16887664600E+04  0.16887664600E+04  0.00000000000E+00 0. -1.
         -1   -1    0    0    0  501 -0.00000000000E+00 -0.00000000000E+00 -0.34158812958E+03  0.34158812958E+03  0.00000000000E+00 0.  1.
         24    2    1    2    0    0  0.46503694793E+03  0.15581044780E+03  0.40653313079E+03  0.64193820641E+03  0.79241503203E+02 0.  0.
        254    2    1    2    0    0 -0.46503694793E+03 -0.15581044780E+03  0.94064519964E+03  0.13884163832E+04  0.89574014253E+03 0.  0.
         23    2    4    4    0    0 -0.27790589250E+03 -0.52119540077E+03  0.49974398344E+03  0.77899515231E+03  0.90625975713E+02 0.  0.
         23    2    4    4    0    0 -0.18713105543E+03  0.36538495297E+03  0.44090121620E+03  0.60942123089E+03  0.92066054792E+02 0.  0.
          2    1    3    3  502    0  0.22777810784E+03  0.35143834251E+02  0.18076381962E+03  0.29290529866E+03  0.00000000000E+00 0. -1.
         -1    1    3    3    0  502  0.23725884008E+03  0.12066661354E+03  0.22576931117E+03  0.34903290775E+03  0.00000000000E+00 0.  1.
         11    1    5    5    0    0 -0.91024257200E+02 -0.26630128338E+03  0.22908682639E+03  0.36288092118E+03  0.00000000000E+00 0.  1.
        -11    1    5    5    0    0 -0.18688163530E+03 -0.25489411739E+03  0.27065715705E+03  0.41611423113E+03  0.00000000000E+00 0. -1.
          1    1    6    6  503    0 -0.30058131028E+02  0.15647803837E+03  0.16543866520E+03  0.22969288121E+03  0.00000000000E+00 0. -1.
         -1    1    6    6    0  503 -0.15707292440E+03  0.20890691460E+03  0.27546255100E+03  0.37972834968E+03  0.00000000000E+00 0.  1.
<mgrwt>
<rscale>  0 0.15190294E+04</rscale>
<asrwt>0</asrwt>
<pdfrwt beam="1">  1        2 0.25981022E+00 0.15190294E+04</pdfrwt>
<pdfrwt beam="2">  1       -1 0.52552021E-01 0.15190294E+04</pdfrwt>
<totfact> 0.39899546E+01</totfact>
</mgrwt>
</event>
<event>
12    6  0.9491186E-008  0.1468807E+04  0.7818608E-02  0.8905465E-01
          2   -1    0    0  501    0  0.00000000000E+00  0.00000000000E+00  0.12929201226E+04  0.12929201226E+04  0.00000000000E+00 0. -1.
         -1   -1    0    0    0  501 -0.00000000000E+00 -0.00000000000E+00 -0.41715546305E+03  0.41715546305E+03  0.00000000000E+00 0.  1.
         24    2    1    2    0    0  0.73248245287E+02 -0.41675540288E+03  0.45970009449E+03  0.62990233385E+03  0.80015011375E+02 0.  0.
        254    2    1    2    0    0 -0.73248245287E+02  0.41675540288E+03  0.41606456503E+03  0.10801732518E+04  0.90255978213E+03 0.  0.
         23    2    4    4    0    0 -0.57028753678E+02  0.58090971535E+03 -0.35081020759E+02  0.59132343890E+03  0.87888311148E+02 0.  0.
         23    2    4    4    0    0 -0.16219491609E+02 -0.16415431248E+03  0.45114558579E+03  0.48884981288E+03  0.90730864457E+02 0.  0.
          2    1    3    3  502    0 -0.79851057004E+00 -0.14960094202E+03  0.12239631978E+03  0.19329236551E+03  0.00000000000E+00 0. -1.
         -1    1    3    3    0  502  0.74046755857E+02 -0.26715446086E+03  0.33730377471E+03  0.43660996833E+03  0.00000000000E+00 0.  1.
         11    1    5    5    0    0 -0.71558980176E+02  0.40673026042E+03  0.38300221843E+00  0.41297740747E+03  0.00000000000E+00 0. -1.
        -11    1    5    5    0    0  0.14530226498E+02  0.17417945493E+03 -0.35464022978E+02  0.17834603143E+03  0.00000000000E+00 0.  1.
          1    1    6    6  503    0  0.36143531623E+02 -0.70144693575E+02  0.15871715566E+03  0.17725058086E+03  0.00000000000E+00 0. -1.
         -1    1    6    6    0  503 -0.52363023232E+02 -0.94009618903E+02  0.29242843013E+03  0.31159923202E+03  0.00000000000E+00 0.  1.
<mgrwt>
<rscale>  0 0.14688073E+04</rscale>
<asrwt>0</asrwt>
<pdfrwt beam="1">  1        2 0.19891079E+00 0.14688073E+04</pdfrwt>
<pdfrwt beam="2">  1       -1 0.64177764E-01 0.14688073E+04</pdfrwt>
<totfact> 0.45364671E+01</totfact>
</mgrwt>
</event>
<event>
12    6  0.9491186E-008  0.3568371E+04  0.7818608E-02  0.8097775E-01
          2   -1    0    0  501    0  0.00000000000E+00  0.00000000000E+00  0.15467796402E+04  0.15467796402E+04  0.00000000000E+00 0. -1.
         -1   -1    0    0    0  501 -0.00000000000E+00 -0.00000000000E+00 -0.20580297781E+04  0.20580297781E+04  0.00000000000E+00 0.  1.
         24    2    1    2    0    0 -0.14725791117E+04 -0.77097749347E+03 -0.38903981757E+03  0.17089771073E+04  0.79719747268E+02 0.  0.
        254    2    1    2    0    0  0.14725791117E+04  0.77097749347E+03 -0.12221032032E+03  0.18958323109E+04  0.90352047746E+03 0.  0.
         23    2    4    4    0    0  0.47632805647E+03  0.39822409968E+03  0.36081699468E+03  0.72405125040E+03  0.92684726914E+02 0.  0.
         23    2    4    4    0    0  0.99625105522E+03  0.37275339379E+03 -0.48302731500E+03  0.11717810605E+04  0.91072549094E+02 0.  0.
          4    1    3    3  502    0 -0.43867886252E+03 -0.26423621388E+03 -0.14077297799E+03  0.53110917190E+03  0.00000000000E+00 0. -1.
         -3    1    3    3    0  502 -0.10339002492E+04 -0.50674127959E+03 -0.24826683958E+03  0.11778679354E+04  0.00000000000E+00 0.  1.
         11    1    5    5    0    0  0.32226046401E+02  0.11677806933E+02  0.15145907842E+01  0.34310103857E+02  0.00000000000E+00 0. -1.
        -11    1    5    5    0    0  0.44410201007E+03  0.38654629275E+03  0.35930240390E+03  0.68974114654E+03  0.00000000000E+00 0.  1.
          3    1    6    6  503    0  0.69661444262E+03  0.28703878569E+03 -0.37772758847E+03  0.84281734513E+03  0.00000000000E+00 0. -1.
         -3    1    6    6    0  503  0.29963661260E+03  0.85714608103E+02 -0.10529972654E+03  0.32896371541E+03  0.00000000000E+00 0.  1.
<mgrwt>
<rscale>  0 0.35683714E+04</rscale>
<asrwt>0</asrwt>
<pdfrwt beam="1">  1        2 0.23796610E+00 0.35683714E+04</pdfrwt>
<pdfrwt beam="2">  1       -1 0.31661997E+00 0.35683714E+04</pdfrwt>
<totfact> 0.28610320E-01</totfact>
</mgrwt>
</event>
<event>
12    6  0.9491186E-008  0.1731505E+04  0.7818608E-02  0.8743597E-01
          2   -1    0    0  501    0  0.00000000000E+00  0.00000000000E+00  0.32500541587E+03  0.32500541587E+03  0.00000000000E+00 0. -1.
         -1   -1    0    0    0  501 -0.00000000000E+00 -0.00000000000E+00 -0.23061998114E+04  0.23061998114E+04  0.00000000000E+00 0.  1.
         24    2    1    2    0    0 -0.20250500968E+03  0.49467896537E+03 -0.12181648674E+04  0.13329974882E+04  0.85094662117E+02 0.  0.
        254    2    1    2    0    0  0.20250500968E+03 -0.49467896537E+03 -0.76302952810E+03  0.12982077391E+04  0.90410934924E+03 0.  0.
         23    2    4    4    0    0 -0.13290629483E+03  0.20915630258E+03 -0.20362498611E+03  0.33373649297E+03  0.92230524520E+02 0.  0.
         23    2    4    4    0    0  0.33541130451E+03 -0.70383526795E+03 -0.55940454198E+03  0.96447124612E+03  0.96884030678E+02 0.  0.
          4    1    3    3  502    0 -0.64438934147E+02  0.11462910198E+03 -0.38623529812E+03  0.40800724597E+03  0.00000000000E+00 0. -1.
         -3    1    3    3    0  502 -0.13806607553E+03  0.38004986339E+03 -0.83192956932E+03  0.92499024221E+03  0.00000000000E+00 0.  1.
         11    1    5    5    0    0 -0.14668160509E+03  0.18618313602E+03 -0.17571168935E+03  0.29504957411E+03  0.00000000000E+00 0.  1.
        -11    1    5    5    0    0  0.13775310253E+02  0.22973166560E+02 -0.27913296766E+02  0.38686918858E+02  0.00000000000E+00 0. -1.
          4    1    6    6  503    0  0.44628128843E+01 -0.26974711140E+02 -0.43330226550E+02  0.51235342029E+02  0.00000000000E+00 0. -1.
         -4    1    6    6    0  503  0.33094849163E+03 -0.67686055681E+03 -0.51607431543E+03  0.91323590410E+03  0.00000000000E+00 0.  1.
<mgrwt>
<rscale>  0 0.17315050E+04</rscale>
<asrwt>0</asrwt>
<pdfrwt beam="1">  1        2 0.50000832E-01 0.17315050E+04</pdfrwt>
<pdfrwt beam="2">  1       -1 0.35479998E+00 0.17315050E+04</pdfrwt>
<totfact> 0.15791679E+00</totfact>
</mgrwt>
</event>
<event>
12    6  0.9491186E-008  0.1237661E+04  0.7818608E-02  0.9080516E-01
         -1   -1    0    0    0  501 -0.00000000000E+00  0.00000000000E+00  0.24780153054E+03  0.24780153054E+03  0.00000000000E+00 0.  1.
          2   -1    0    0  501    0  0.00000000000E+00 -0.00000000000E+00 -0.15453946437E+04  0.15453946437E+04  0.00000000000E+00 0. -1.
         24    2    1    2    0    0  0.12692115729E+03  0.25838936034E+02  0.56727016837E+02  0.16169153807E+03  0.78419182991E+02 0.  0.
        254    2    1    2    0    0 -0.12692115729E+03 -0.25838936034E+02 -0.13543201300E+04  0.16315046362E+04  0.90047083938E+03 0.  0.
         23    2    4    4    0    0 -0.36687440750E+03 -0.86263830467E+02 -0.13073819660E+04  0.13635215760E+04  0.88911212891E+02 0.  0.
         23    2    4    4    0    0  0.23995325021E+03  0.60424894433E+02 -0.46938163963E+02  0.26798306018E+03  0.91558719711E+02 0.  0.
          4    1    3    3  502    0  0.71707080392E+01  0.25717786448E+02 -0.46936181030E+01  0.27108184087E+02  0.00000000000E+00 0. -1.
         -3    1    3    3    0  502  0.11975044925E+03  0.12114958582E+00  0.61420634940E+02  0.13458335398E+03  0.00000000000E+00 0.  1.
         11    1    5    5    0    0 -0.66450160247E+02 -0.52440979909E+02 -0.30684207101E+03  0.31830447171E+03  0.00000000000E+00 0.  1.
        -11    1    5    5    0    0 -0.30042424725E+03 -0.33822850558E+02 -0.10005398950E+04  0.10452171043E+04  0.00000000000E+00 0. -1.
          1    1    6    6  503    0  0.64642163367E+02 -0.18448396994E+02 -0.33945581372E+02  0.75307736197E+02  0.00000000000E+00 0. -1.
         -1    1    6    6    0  503  0.17531108684E+03  0.78873291427E+02 -0.12992582591E+02  0.19267532398E+03  0.00000000000E+00 0.  1.
<mgrwt>
<rscale>  0 0.12376610E+04</rscale>
<asrwt>0</asrwt>
<pdfrwt beam="1">  1        2 0.23775302E+00 0.12376610E+04</pdfrwt>
<pdfrwt beam="2">  1       -1 0.38123312E-01 0.12376610E+04</pdfrwt>
<totfact> 0.89210884E+01</totfact>
</mgrwt>
</event>
<event>
12    6  0.9491186E-008  0.1156955E+04  0.7818608E-02  0.9151391E-01
          2   -1    0    0  501    0  0.00000000000E+00  0.00000000000E+00  0.23685499786E+04  0.23685499786E+04  0.00000000000E+00 0. -1.
         -1   -1    0    0    0  501 -0.00000000000E+00 -0.00000000000E+00 -0.14128307777E+03  0.14128307777E+03  0.00000000000E+00 0.  1.
         24    2    1    2    0    0  0.12403877223E+03  0.18417147319E+01  0.53465096590E+02  0.15871881462E+03  0.83331486448E+02 0.  0.
        254    2    1    2    0    0 -0.12403877223E+03 -0.18417147319E+01  0.21738018042E+04  0.23511142417E+04  0.88709350393E+03 0.  0.
         23    2    4    4    0    0  0.11186086141E+03  0.11713774015E+03  0.29937216310E+02  0.18916494448E+03  0.93021700781E+02 0.  0.
         23    2    4    4    0    0 -0.23589963364E+03 -0.11897945489E+03  0.21438645879E+04  0.21619492973E+04  0.89803367117E+02 0.  0.
          2    1    3    3  502    0  0.77782467767E+01 -0.26791921609E+01  0.40871051463E+02  0.41690790845E+02  0.00000000000E+00 0. -1.
         -1    1    3    3    0  502  0.11626052545E+03  0.45209068928E+01  0.12594045127E+02  0.11702802378E+03  0.00000000000E+00 0.  1.
         11    1    5    5    0    0 -0.13775817755E+02  0.79656966472E+01 -0.89259603198E+01  0.18245499323E+02  0.00000000000E+00 0. -1.
        -11    1    5    5    0    0  0.12563667917E+03  0.10917204351E+03  0.38863176630E+02  0.17091944516E+03  0.00000000000E+00 0.  1.
          3    1    6    6  503    0 -0.40292614827E+02  0.12675948943E+02  0.39786096668E+03  0.40009689239E+03  0.00000000000E+00 0. -1.
         -3    1    6    6    0  503 -0.19560701881E+03 -0.13165540383E+03  0.17460036212E+04  0.17618524049E+04  0.00000000000E+00 0.  1.
<mgrwt>
<rscale>  0 0.11569547E+04</rscale>
<asrwt>0</asrwt>
<pdfrwt beam="1">  1        2 0.36439227E+00 0.11569547E+04</pdfrwt>
<pdfrwt beam="2">  1       -1 0.21735860E-01 0.11569547E+04</pdfrwt>
<totfact> 0.83493747E+01</totfact>
</mgrwt>
</event>
<event>
12    6  0.1486289E-007  0.2326455E+04  0.7818608E-02  0.8467563E-01
         -1   -1    0    0    0  501 -0.00000000000E+00  0.00000000000E+00  0.54425417709E+03  0.54425417709E+03  0.00000000000E+00 0.  1.
          2   -1    0    0  501    0  0.00000000000E+00 -0.00000000000E+00 -0.24861521776E+04  0.24861521776E+04  0.00000000000E+00 0. -1.
         24    2    1    2    0    0 -0.97817707681E+03 -0.71472223750E+02 -0.96280691351E+03  0.13766221341E+04  0.78438988711E+02 0.  0.
        254    2    1    2    0    0  0.97817707681E+03  0.71472223750E+02 -0.97909108695E+03  0.16537842206E+04  0.90246563331E+03 0.  0.
         23    2    4    4    0    0  0.74547031080E+03  0.42444180827E+02 -0.12427835332E+03  0.76255493020E+03  0.92289867786E+02 0.  0.
         23    2    4    4    0    0  0.23270676601E+03  0.29028042924E+02 -0.85481273363E+03  0.89122929037E+03  0.92681024067E+02 0.  0.
          2    1    3    3  502    0 -0.61160725243E+03 -0.53035022759E+02 -0.54999947036E+03  0.82424241717E+03  0.00000000000E+00 0. -1.
         -1    1    3    3    0  502 -0.36656982438E+03 -0.18437200992E+02 -0.41280744315E+03  0.55237971690E+03  0.00000000000E+00 0.  1.
         11    1    5    5    0    0  0.37697441127E+03  0.50754633482E+02 -0.26936689182E+02  0.38132836872E+03  0.00000000000E+00 0.  1.
        -11    1    5    5    0    0  0.36849589954E+03 -0.83104526555E+01 -0.97341664142E+02  0.38122656148E+03  0.00000000000E+00 0. -1.
          3    1    6    6  503    0  0.71797287693E+02  0.46709454832E+02 -0.38158890621E+03  0.39108402810E+03  0.00000000000E+00 0. -1.
         -3    1    6    6    0  503  0.16090947832E+03 -0.17681411908E+02 -0.47322382742E+03  0.50014526227E+03  0.00000000000E+00 0.  1.
<mgrwt>
<rscale>  0 0.23264554E+04</rscale>
<asrwt>0</asrwt>
<pdfrwt beam="1">  1        2 0.38248495E+00 0.23264554E+04</pdfrwt>
<pdfrwt beam="2">  1       -1 0.83731412E-01 0.23264554E+04</pdfrwt>
<totfact> 0.51620737E+00</totfact>
</mgrwt>
</event>
<event>
12    6  0.9491186E-008  0.2191172E+04  0.7818608E-02  0.8522111E-01
          2   -1    0    0  501    0  0.00000000000E+00  0.00000000000E+00  0.85040669063E+03  0.85040669063E+03  0.00000000000E+00 0. -1.
         -1   -1    0    0    0  501 -0.00000000000E+00 -0.00000000000E+00 -0.14114529253E+04  0.14114529253E+04  0.00000000000E+00 0.  1.
         24    2    1    2    0    0 -0.38206601296E+02 -0.45007926612E+03  0.57910490986E+03  0.73912517907E+03  0.83141106196E+02 0.  0.
        254    2    1    2    0    0  0.38206601296E+02  0.45007926612E+03 -0.11401511446E+04  0.15227344369E+04  0.90263195305E+03 0.  0.
         23    2    4    4    0    0  0.27315532452E+03  0.22477216662E+03 -0.11280148908E+04  0.11855484376E+04  0.89281274508E+02 0.  0.
         23    2    4    4    0    0 -0.23494872322E+03  0.22530709950E+03 -0.12136253817E+02  0.33718599928E+03  0.87079950762E+02 0.  0.
          4    1    3    3  502    0 -0.63753751495E+02 -0.36221745098E+03  0.46363609469E+03  0.59179764356E+03  0.00000000000E+00 0. -1.
         -3    1    3    3    0  502  0.25547150199E+02 -0.87861815143E+02  0.11546881517E+03  0.14732753551E+03  0.00000000000E+00 0.  1.
         11    1    5    5    0    0  0.17378823505E+03  0.16582582629E+03 -0.87554429002E+03  0.90789776908E+03  0.00000000000E+00 0. -1.
        -11    1    5    5    0    0  0.99367089461E+02  0.58946340333E+02 -0.25247060073E+03  0.27765066854E+03  0.00000000000E+00 0.  1.
          1    1    6    6  503    0 -0.17270410645E+03  0.21173184914E+03 -0.82241361776E+01  0.27335822786E+03  0.00000000000E+00 0. -1.
         -1    1    6    6    0  503 -0.62244616772E+02  0.13575250359E+02 -0.39121176393E+01  0.63827771415E+02  0.00000000000E+00 0.  1.
<mgrwt>
<rscale>  0 0.21911723E+04</rscale>
<asrwt>0</asrwt>
<pdfrwt beam="1">  1        2 0.13083180E+00 0.21911723E+04</pdfrwt>
<pdfrwt beam="2">  1       -1 0.21714660E+00 0.21911723E+04</pdfrwt>
<totfact> 0.38065849E+00</totfact>
</mgrwt>
</event>
<event>
12    6  0.9491186E-008  0.2474786E+04  0.7818608E-02  0.8412024E-01
          2   -1    0    0  501    0  0.00000000000E+00  0.00000000000E+00  0.14472237477E+04  0.14472237477E+04  0.00000000000E+00 0. -1.
         -1   -1    0    0    0  501 -0.00000000000E+00 -0.00000000000E+00 -0.10579854115E+04  0.10579854115E+04  0.00000000000E+00 0.  1.
         24    2    1    2    0    0 -0.22843640443E+02  0.10128784566E+04  0.52154102979E+03  0.11423098336E+04  0.80138071610E+02 0.  0.
        254    2    1    2    0    0  0.22843640443E+02 -0.10128784566E+04 -0.13230269358E+03  0.13628993256E+04  0.90196783165E+03 0.  0.
         23    2    4    4    0    0 -0.34775567530E+02  0.12540927450E+03 -0.15070961132E+03  0.21937849974E+03  0.92069066325E+02 0.  0.
         23    2    4    4    0    0  0.57619207973E+02 -0.11382877311E+04  0.18406917738E+02  0.11435208259E+04  0.91006223723E+02 0.  0.
          2    1    3    3  502    0 -0.45332829843E+02  0.81723328082E+03  0.40134389324E+03  0.91159323241E+03  0.00000000000E+00 0. -1.
         -1    1    3    3    0  502  0.22489189401E+02  0.19564517576E+03  0.12019713655E+03  0.23071660120E+03  0.00000000000E+00 0.  1.
         11    1    5    5    0    0 -0.78626230980E+00  0.75582285702E+02 -0.24434333167E+02  0.79437628097E+02  0.00000000000E+00 0. -1.
        -11    1    5    5    0    0 -0.33989305220E+02  0.49826988797E+02 -0.12627527815E+03  0.13994087164E+03  0.00000000000E+00 0.  1.
          4    1    6    6  503    0 -0.78227696168E+01 -0.34491802082E+03 -0.27740827513E+02  0.34612019635E+03  0.00000000000E+00 0. -1.
         -4    1    6    6    0  503  0.65441977589E+02 -0.79336971025E+03  0.46147745251E+02  0.79740062953E+03  0.00000000000E+00 0.  1.
<mgrwt>
<rscale>  0 0.24747861E+04</rscale>
<asrwt>0</asrwt>
<pdfrwt beam="1">  1        2 0.22264981E+00 0.24747861E+04</pdfrwt>
<pdfrwt beam="2">  1       -1 0.16276699E+00 0.24747861E+04</pdfrwt>
<totfact> 0.38563037E+00</totfact>
</mgrwt>
</event>
<event>
12    6  0.9491186E-008  0.1426904E+04  0.7818608E-02  0.8934571E-01
          2   -1    0    0  501    0  0.00000000000E+00  0.00000000000E+00  0.68564918582E+03  0.68564918582E+03  0.00000000000E+00 0. -1.
         -1   -1    0    0    0  501 -0.00000000000E+00 -0.00000000000E+00 -0.74238244147E+03  0.74238244147E+03  0.00000000000E+00 0.  1.
         24    2    1    2    0    0 -0.77189962964E+02 -0.30207991566E+03 -0.29357159571E+03  0.43770142287E+03  0.90485843920E+02 0.  0.
        254    2    1    2    0    0  0.77189962964E+02  0.30207991566E+03  0.23683834005E+03  0.99033020441E+03  0.90964330846E+03 0.  0.
         23    2    4    4    0    0  0.20402907984E+03 -0.12020851332E+03  0.43047959235E+03  0.49980547713E+03  0.91732673808E+02 0.  0.
         23    2    4    4    0    0 -0.12683911688E+03  0.42228842898E+03 -0.19364125230E+03  0.49052472728E+03  0.93283946407E+02 0.  0.
          4    1    3    3  502    0  0.18464296045E+01 -0.24386670931E+02 -0.65020755595E+02  0.69468105484E+02  0.00000000000E+00 0. -1.
         -3    1    3    3    0  502 -0.79036392569E+02 -0.27769324473E+03 -0.22855084011E+03  0.36823331739E+03  0.00000000000E+00 0.  1.
         11    1    5    5    0    0  0.11796735447E+03 -0.50747318317E+02  0.31369619488E+03  0.33896443725E+03  0.00000000000E+00 0. -1.
        -11    1    5    5    0    0  0.86061725375E+02 -0.69461195006E+02  0.11678339747E+03  0.16084103988E+03  0.00000000000E+00 0.  1.
          4    1    6    6  503    0  0.66994380629E+01  0.88124459545E+02 -0.59194786911E+02  0.10637116920E+03  0.00000000000E+00 0. -1.
         -4    1    6    6    0  503 -0.13353855494E+03  0.33416396944E+03 -0.13444646539E+03  0.38415355808E+03  0.00000000000E+00 0.  1.
<mgrwt>
<rscale>  0 0.14269042E+04</rscale>
<asrwt>0</asrwt>
<pdfrwt beam="1">  1        2 0.10548449E+00 0.14269042E+04</pdfrwt>
<pdfrwt beam="2">  1       -1 0.11421268E+00 0.14269042E+04</pdfrwt>
<totfact> 0.32580209E+01</totfact>
</mgrwt>
</event>
<event>
12    6  0.9491186E-008  0.1623611E+04  0.7818608E-02  0.8806173E-01
         -1   -1    0    0    0  501 -0.00000000000E+00  0.00000000000E+00  0.38994430128E+03  0.38994430128E+03  0.00000000000E+00 0.  1.
          2   -1    0    0  501    0  0.00000000000E+00 -0.00000000000E+00 -0.16900578415E+04  0.16900578415E+04  0.00000000000E+00 0. -1.
         24    2    1    2    0    0 -0.29514090732E+03 -0.40857612321E+03 -0.15611144258E+03  0.53360505188E+03  0.79504498360E+02 0.  0.
        254    2    1    2    0    0  0.29514090732E+03  0.40857612321E+03 -0.11440020976E+04  0.15463970909E+04  0.91025301961E+03 0.  0.
         23    2    4    4    0    0 -0.23312806156E+03  0.36283247443E+03 -0.78248525714E+03  0.89836093812E+03  0.93664827467E+02 0.  0.
         23    2    4    4    0    0  0.52826896888E+03  0.45743648774E+02 -0.36151684046E+03  0.64803615275E+03  0.89976910643E+02 0.  0.
          4    1    3    3  502    0 -0.87942564008E+02 -0.14622711971E+03 -0.16880694466E+02  0.17146784815E+03  0.00000000000E+00 0. -1.
         -3    1    3    3    0  502 -0.20719834331E+03 -0.26234900350E+03 -0.13923074811E+03  0.36213720373E+03  0.00000000000E+00 0.  1.
         11    1    5    5    0    0 -0.16101904247E+03  0.25999063400E+03 -0.46101442071E+03  0.55322378647E+03  0.00000000000E+00 0. -1.
        -11    1    5    5    0    0 -0.72109019096E+02  0.10284184043E+03 -0.32147083643E+03  0.34513715165E+03  0.00000000000E+00 0.  1.
          2    1    6    6  503    0  0.39575184799E+03  0.69896073953E+01 -0.30112871703E+03  0.49733980740E+03  0.00000000000E+00 0. -1.
         -2    1    6    6    0  503  0.13251712089E+03  0.38754041379E+02 -0.60388123435E+02  0.15069634535E+03  0.00000000000E+00 0.  1.
<mgrwt>
<rscale>  0 0.16236113E+04</rscale>
<asrwt>0</asrwt>
<pdfrwt beam="1">  1        2 0.26000890E+00 0.16236113E+04</pdfrwt>
<pdfrwt beam="2">  1       -1 0.59991431E-01 0.16236113E+04</pdfrwt>
<totfact> 0.30513891E+01</totfact>
</mgrwt>
</event>
<event>
12    6  0.9491186E-008  0.1219096E+04  0.7818608E-02  0.9096304E-01
         -1   -1    0    0    0  501 -0.00000000000E+00  0.00000000000E+00  0.23541901369E+03  0.23541901369E+03  0.00000000000E+00 0.  1.
          2   -1    0    0  501    0  0.00000000000E+00 -0.00000000000E+00 -0.15782442940E+04  0.15782442940E+04  0.00000000000E+00 0. -1.
         24    2    1    2    0    0  0.21024626029E+03  0.53924100506E+02 -0.55560496529E+03  0.60161993223E+03  0.78347730139E+02 0.  0.
        254    2    1    2    0    0 -0.21024626029E+03 -0.53924100506E+02 -0.78722031499E+03  0.12120433754E+04  0.89566847716E+03 0.  0.
         23    2    4    4    0    0  0.33629300395E+03 -0.10752170920E+03 -0.30007854697E+03  0.47235436075E+03  0.91747508477E+02 0.  0.
         23    2    4    4    0    0 -0.54653926424E+03  0.53597608697E+02 -0.48714176802E+03  0.73968901467E+03  0.90856289040E+02 0.  0.
          4    1    3    3  502    0  0.16164187355E+03  0.47372075549E+02 -0.49931885186E+03  0.52696444344E+03  0.00000000000E+00 0. -1.
         -3    1    3    3    0  502  0.48604386740E+02  0.65520249577E+01 -0.56286113435E+02  0.74655488793E+02  0.00000000000E+00 0.  1.
         11    1    5    5    0    0  0.23221748499E+03 -0.28504838619E+02 -0.19913673865E+03  0.30723431911E+03  0.00000000000E+00 0. -1.
        -11    1    5    5    0    0  0.10407551896E+03 -0.79016870584E+02 -0.10094180832E+03  0.16512004164E+03  0.00000000000E+00 0.  1.
          4    1    6    6  503    0 -0.44695014664E+03  0.99782133528E+01 -0.37525231816E+03  0.58367653765E+03  0.00000000000E+00 0. -1.
         -4    1    6    6    0  503 -0.99589117604E+02  0.43619395344E+02 -0.11188944986E+03  0.15601247702E+03  0.00000000000E+00 0.  1.
<mgrwt>
<rscale>  0 0.12190959E+04</rscale>
<asrwt>0</asrwt>
<pdfrwt beam="1">  1        2 0.24280682E+00 0.12190959E+04</pdfrwt>
<pdfrwt beam="2">  1       -1 0.36218308E-01 0.12190959E+04</pdfrwt>
<totfact> 0.93931639E+01</totfact>
</mgrwt>
</event>
<event>
12    6  0.9990764E-008  0.1638918E+04  0.7818608E-02  0.8796989E-01
         -1   -1    0    0    0  501 -0.00000000000E+00  0.00000000000E+00  0.44760570157E+03  0.44760570157E+03  0.00000000000E+00 0.  1.
          2   -1    0    0  501    0  0.00000000000E+00 -0.00000000000E+00 -0.15002341004E+04  0.15002341004E+04  0.00000000000E+00 0. -1.
         24    2    1    2    0    0  0.82351656757E+02 -0.79058114066E+02 -0.10329639632E+04  0.10434284608E+04  0.93254612256E+02 0.  0.
        254    2    1    2    0    0 -0.82351656757E+02  0.79058114066E+02 -0.19664435655E+02  0.90441134122E+03  0.89696220841E+03 0.  0.
         23    2    4    4    0    0  0.15458463295E+03 -0.22280806796E+03 -0.30479743507E+03  0.41828417870E+03  0.92305654390E+02 0.  0.
         23    2    4    4    0    0 -0.23693628971E+03  0.30186618203E+03  0.28513299942E+03  0.48612716252E+03  0.88072660627E+02 0.  0.
          4    1    3    3  502    0  0.10156396678E+03 -0.54779393090E+02 -0.86116321080E+03  0.86886022863E+03  0.00000000000E+00 0. -1.
         -3    1    3    3    0  502 -0.19212310021E+02 -0.24278720975E+02 -0.17180075239E+03  0.17456823213E+03  0.00000000000E+00 0.  1.
         11    1    5    5    0    0  0.64376773647E+02 -0.14055143870E+03 -0.11525168185E+03  0.19282641436E+03  0.00000000000E+00 0.  1.
        -11    1    5    5    0    0  0.90207859303E+02 -0.82256629262E+02 -0.18954575322E+03  0.22545776434E+03  0.00000000000E+00 0. -1.
          3    1    6    6  503    0 -0.17690904300E+03  0.17019593276E+03  0.21012572715E+03  0.32313508976E+03  0.00000000000E+00 0. -1.
         -3    1    6    6    0  503 -0.60027246704E+02  0.13167024927E+03  0.75007272271E+02  0.16299207276E+03  0.00000000000E+00 0.  1.
<mgrwt>
<rscale>  0 0.16389183E+04</rscale>
<asrwt>0</asrwt>
<pdfrwt beam="1">  1        2 0.23080524E+00 0.16389183E+04</pdfrwt>
<pdfrwt beam="2">  1       -1 0.68862417E-01 0.16389183E+04</pdfrwt>
<totfact> 0.29499777E+01</totfact>
</mgrwt>
</event>
<event>
12    6  0.9491186E-008  0.2606509E+04  0.7818608E-02  0.8365994E-01
         -1   -1    0    0    0  501 -0.00000000000E+00  0.00000000000E+00  0.51892572677E+03  0.51892572677E+03  0.00000000000E+00 0.  1.
          2   -1    0    0  501    0  0.00000000000E+00 -0.00000000000E+00 -0.32730542334E+04  0.32730542334E+04  0.00000000000E+00 0. -1.
         24    2    1    2    0    0  0.64744929948E+03  0.71015316299E+03 -0.21268803551E+04  0.23352342543E+04  0.78682065850E+02 0.  0.
        254    2    1    2    0    0 -0.64744929948E+03 -0.71015316299E+03 -0.62724815156E+03  0.14567457058E+04  0.89730691381E+03 0.  0.
         23    2    4    4    0    0 -0.31502137027E+03 -0.22259243186E+03 -0.74906948842E+03  0.84745816583E+03  0.91073541126E+02 0.  0.
         23    2    4    4    0    0 -0.33242792922E+03 -0.48756073113E+03  0.12182133687E+03  0.60928754002E+03  0.90371863129E+02 0.  0.
          4    1    3    3  502    0  0.38990422166E+03  0.37561912709E+03 -0.11532846358E+04  0.12740410048E+04  0.00000000000E+00 0. -1.
         -3    1    3    3    0  502  0.25754507782E+03  0.33453403591E+03 -0.97359571929E+03  0.10611932496E+04  0.00000000000E+00 0.  1.
         11    1    5    5    0    0 -0.26839922589E+03 -0.15458904299E+03 -0.63716012732E+03  0.70845532288E+03  0.00000000000E+00 0.  1.
        -11    1    5    5    0    0 -0.46622144378E+02 -0.68003388876E+02 -0.11190936110E+03  0.13900284294E+03  0.00000000000E+00 0. -1.
          3    1    6    6  503    0 -0.15678370022E+03 -0.21549123176E+03  0.99797593708E+01  0.26667807412E+03  0.00000000000E+00 0. -1.
         -3    1    6    6    0  503 -0.17564422900E+03 -0.27206949937E+03  0.11184157749E+03  0.34260946590E+03  0.00000000000E+00 0.  1.
<mgrwt>
<rscale>  0 0.26065088E+04</rscale>
<asrwt>0</asrwt>
<pdfrwt beam="1">  1        2 0.50354681E+00 0.26065088E+04</pdfrwt>
<pdfrwt beam="2">  1       -1 0.79834726E-01 0.26065088E+04</pdfrwt>
<totfact> 0.18286064E+00</totfact>
</mgrwt>
</event>
<event>
12    6  0.9491186E-008  0.1130401E+04  0.7818608E-02  0.9176057E-01
          2   -1    0    0  501    0  0.00000000000E+00  0.00000000000E+00  0.90143249419E+03  0.90143249419E+03  0.00000000000E+00 0. -1.
         -1   -1    0    0    0  501 -0.00000000000E+00 -0.00000000000E+00 -0.35438244625E+03  0.35438244625E+03  0.00000000000E+00 0.  1.
         24    2    1    2    0    0 -0.17019999175E+03  0.88213906542E+02  0.67991167707E+02  0.21742868668E+03  0.76829059643E+02 0.  0.
        254    2    1    2    0    0  0.17019999175E+03 -0.88213906542E+02  0.47905888024E+03  0.10383862538E+04  0.90110979950E+03 0.  0.
         23    2    4    4    0    0 -0.94054772103E+01 -0.46705564098E+03  0.34990239243E+03  0.59078753533E+03  0.91481106788E+02 0.  0.
         23    2    4    4    0    0  0.17960546897E+03  0.37884173444E+03  0.12915648781E+03  0.44759871843E+03  0.88792061351E+02 0.  0.
          2    1    3    3  502    0 -0.74908960825E+01  0.15068141799E+02  0.30950876279E+02  0.35229521198E+02  0.00000000000E+00 0. -1.
         -1    1    3    3    0  502 -0.16270909567E+03  0.73145764743E+02  0.37040291429E+02  0.18219916548E+03  0.00000000000E+00 0.  1.
         11    1    5    5    0    0 -0.12344930896E+02 -0.11755827081E+03  0.43397119549E+02  0.12591923737E+03  0.00000000000E+00 0. -1.
        -11    1    5    5    0    0  0.29394536854E+01 -0.34949737017E+03  0.30650527288E+03  0.46486829796E+03  0.00000000000E+00 0.  1.
          4    1    6    6  503    0  0.12025633201E+03  0.16303420533E+03  0.39021280345E+02  0.20631140980E+03  0.00000000000E+00 0. -1.
         -4    1    6    6    0  503  0.59349136957E+02  0.21580752911E+03  0.90135207462E+02  0.24128730862E+03  0.00000000000E+00 0.  1.
<mgrwt>
<rscale>  0 0.11304014E+04</rscale>
<asrwt>0</asrwt>
<pdfrwt beam="1">  1        2 0.13868192E+00 0.11304014E+04</pdfrwt>
<pdfrwt beam="2">  1       -1 0.54520377E-01 0.11304014E+04</pdfrwt>
<totfact> 0.11241365E+02</totfact>
</mgrwt>
</event>
<event>
12    6  0.9491186E-008  0.1900464E+04  0.7818608E-02  0.8654625E-01
         -1   -1    0    0    0  501 -0.00000000000E+00  0.00000000000E+00  0.70244668639E+03  0.70244668639E+03  0.00000000000E+00 0.  1.
          2   -1    0    0  501    0  0.00000000000E+00 -0.00000000000E+00 -0.12854229264E+04  0.12854229264E+04  0.00000000000E+00 0. -1.
         24    2    1    2    0    0  0.52396470862E+03 -0.35830790114E+03 -0.61526435901E+03  0.88771546272E+03  0.81024338262E+02 0.  0.
        254    2    1    2    0    0 -0.52396470862E+03  0.35830790114E+03  0.32288119043E+02  0.11001541500E+04  0.89798277449E+03 0.  0.
         23    2    4    4    0    0  0.21424851554E+03 -0.57238056074E+02 -0.46150409189E+02  0.24456629107E+03  0.92218159738E+02 0.  0.
         23    2    4    4    0    0 -0.73821322416E+03  0.41554595722E+03  0.78438528232E+02  0.85558785895E+03  0.90778713252E+02 0.  0.
          4    1    3    3  502    0  0.45112687883E+03 -0.33779074636E+03 -0.55502791613E+03  0.79099559848E+03  0.00000000000E+00 0. -1.
         -3    1    3    3    0  502  0.72837829783E+02 -0.20517154781E+02 -0.60236442877E+02  0.96719864238E+02  0.00000000000E+00 0.  1.
         11    1    5    5    0    0  0.63531793715E+02 -0.37086674746E+02  0.23623219590E+02  0.77264265739E+02  0.00000000000E+00 0. -1.
        -11    1    5    5    0    0  0.15071672183E+03 -0.20151381328E+02 -0.69773628779E+02  0.16730202534E+03  0.00000000000E+00 0.  1.
          3    1    6    6  503    0 -0.32280954039E+03  0.18883811584E+03 -0.10163477620E+02  0.37412448414E+03  0.00000000000E+00 0. -1.
         -3    1    6    6    0  503 -0.41540368377E+03  0.22670784138E+03  0.88602005852E+02  0.48146337480E+03  0.00000000000E+00 0.  1.
<mgrwt>
<rscale>  0 0.19004642E+04</rscale>
<asrwt>0</asrwt>
<pdfrwt beam="1">  1        2 0.19775737E+00 0.19004642E+04</pdfrwt>
<pdfrwt beam="2">  1       -1 0.10806872E+00 0.19004642E+04</pdfrwt>
<totfact> 0.14324445E+01</totfact>
</mgrwt>
</event>
<event>
12    6  0.9491186E-008  0.2184430E+04  0.7818608E-02  0.8524937E-01
         -1   -1    0    0    0  501 -0.00000000000E+00  0.00000000000E+00  0.11229931703E+04  0.11229931703E+04  0.00000000000E+00 0.  1.
          2   -1    0    0  501    0  0.00000000000E+00 -0.00000000000E+00 -0.10622801265E+04  0.10622801265E+04  0.00000000000E+00 0. -1.
         24    2    1    2    0    0 -0.58582522940E+02 -0.78027361422E+03 -0.42681854869E+03  0.89507228551E+03  0.81984740937E+02 0.  0.
        254    2    1    2    0    0  0.58582522940E+02  0.78027361422E+03  0.48753159250E+03  0.12902010112E+04  0.90259225046E+03 0.  0.
         23    2    4    4    0    0  0.40728939410E+03  0.10505307893E+03  0.17558828090E+03  0.46356876870E+03  0.84521943803E+02 0.  0.
         23    2    4    4    0    0 -0.34870687117E+03  0.67522053528E+03  0.31194331161E+03  0.82663224250E+03  0.92157373155E+02 0.  0.
          2    1    3    3  502    0 -0.25687682774E+02 -0.21082162043E+03 -0.15677367623E+03  0.26397651079E+03  0.00000000000E+00 0. -1.
         -1    1    3    3    0  502 -0.32894840166E+02 -0.56945199378E+03 -0.27004487246E+03  0.63109577473E+03  0.00000000000E+00 0.  1.
         11    1    5    5    0    0  0.14048647440E+03  0.28007254519E+02  0.10329382625E+03  0.17660823972E+03  0.00000000000E+00 0. -1.
        -11    1    5    5    0    0  0.26680291970E+03  0.77045824416E+02  0.72294454650E+02  0.28696052898E+03  0.00000000000E+00 0.  1.
          3    1    6    6  503    0 -0.29187631913E+03  0.57537207745E+03  0.22772176760E+03  0.68417981308E+03  0.00000000000E+00 0. -1.
         -3    1    6    6    0  503 -0.56830552031E+02  0.99848457832E+02  0.84221544004E+02  0.14245242943E+03  0.00000000000E+00 0.  1.
<mgrwt>
<rscale>  0 0.21844297E+04</rscale>
<asrwt>0</asrwt>
<pdfrwt beam="1">  1        2 0.16342771E+00 0.21844297E+04</pdfrwt>
<pdfrwt beam="2">  1       -1 0.17276818E+00 0.21844297E+04</pdfrwt>
<totfact> 0.56359735E+00</totfact>
</mgrwt>
</event>
<event>
12    6  0.9491186E-008  0.1727722E+04  0.7818608E-02  0.8745710E-01
         -1   -1    0    0    0  501 -0.00000000000E+00  0.00000000000E+00  0.86560261221E+03  0.86560261221E+03  0.00000000000E+00 0.  1.
          2   -1    0    0  501    0  0.00000000000E+00 -0.00000000000E+00 -0.86212294480E+03  0.86212294480E+03  0.00000000000E+00 0. -1.
         24    2    1    2    0    0 -0.12804289376E+03 -0.48112311823E+03 -0.37442928841E+03  0.62812616586E+03  0.80440976414E+02 0.  0.
        254    2    1    2    0    0  0.12804289376E+03  0.48112311823E+03  0.37790895582E+03  0.10995993912E+04  0.90467077138E+03 0.  0.
         23    2    4    4    0    0 -0.20489700959E+03 -0.80740301601E+02 -0.12768303367E+03  0.26903543921E+03  0.87036369543E+02 0.  0.
         23    2    4    4    0    0  0.33293990335E+03  0.56186341983E+03  0.50559198949E+03  0.83056395194E+03  0.87599866669E+02 0.  0.
          2    1    3    3  502    0 -0.11139038526E+03 -0.32153550186E+03 -0.28843754401E+03  0.44608195848E+03  0.00000000000E+00 0. -1.
         -1    1    3    3    0  502 -0.16652508499E+02 -0.15958761637E+03 -0.85991744396E+02  0.18204420738E+03  0.00000000000E+00 0.  1.
         11    1    5    5    0    0 -0.15868694017E+03 -0.50405034668E+02 -0.13355645600E+03  0.21344680705E+03  0.00000000000E+00 0. -1.
        -11    1    5    5    0    0 -0.46210069422E+02 -0.30335266933E+02  0.58734223309E+01  0.55588632163E+02  0.00000000000E+00 0.  1.
          2    1    6    6  503    0  0.20210530329E+03  0.31977704384E+03  0.34480634372E+03  0.51185479001E+03  0.00000000000E+00 0. -1.
         -2    1    6    6    0  503  0.13083460006E+03  0.24208637600E+03  0.16078564577E+03  0.31870916193E+03  0.00000000000E+00 0.  1.
<mgrwt>
<rscale>  0 0.17277221E+04</rscale>
<asrwt>0</asrwt>
<pdfrwt beam="1">  1        2 0.13263430E+00 0.17277221E+04</pdfrwt>
<pdfrwt beam="2">  1       -1 0.13316963E+00 0.17277221E+04</pdfrwt>
<totfact> 0.16093966E+01</totfact>
</mgrwt>
</event>
<event>
12    6  0.9491186E-008  0.2125245E+04  0.7818608E-02  0.8550204E-01
          2   -1    0    0  501    0  0.00000000000E+00  0.00000000000E+00  0.84057526048E+03  0.84057526048E+03  0.00000000000E+00 0. -1.
         -1   -1    0    0    0  501 -0.00000000000E+00 -0.00000000000E+00 -0.13433256121E+04  0.13433256121E+04  0.00000000000E+00 0.  1.
         24    2    1    2    0    0 -0.51736583267E+02 -0.56931237280E+03 -0.88061060125E+03  0.10529505851E+04  0.80228746025E+02 0.  0.
        254    2    1    2    0    0  0.51736583267E+02  0.56931237280E+03  0.37786024959E+03  0.11309502875E+04  0.89970936018E+03 0.  0.
         23    2    4    4    0    0  0.37160515247E+03  0.32213757049E+03  0.49179800197E+03  0.70150870241E+03  0.91576094905E+02 0.  0.
         23    2    4    4    0    0 -0.31986856920E+03  0.24717480231E+03 -0.11393775237E+03  0.42944158513E+03  0.89593410259E+02 0.  0.
          4    1    3    3  502    0  0.14107514366E+02 -0.21929530086E+03 -0.30146575434E+03  0.37305636568E+03  0.00000000000E+00 0. -1.
         -1    1    3    3    0  502 -0.65844097634E+02 -0.35001707194E+03 -0.57914484691E+03  0.67989421938E+03  0.00000000000E+00 0.  1.
         11    1    5    5    0    0  0.12052362566E+03  0.85558116567E+02  0.20590009407E+03  0.25345805253E+03  0.00000000000E+00 0.  1.
        -11    1    5    5    0    0  0.25108152681E+03  0.23657945392E+03  0.28589790790E+03  0.44805064988E+03  0.00000000000E+00 0. -1.
          2    1    6    6  503    0 -0.26543941552E+03  0.22924565363E+03 -0.12248276066E+03  0.37150192420E+03  0.00000000000E+00 0. -1.
         -2    1    6    6    0  503 -0.54429153683E+02  0.17929148679E+02  0.85450082827E+01  0.57939660938E+02  0.00000000000E+00 0.  1.
<mgrwt>
<rscale>  0 0.21252447E+04</rscale>
<asrwt>0</asrwt>
<pdfrwt beam="1">  1        2 0.12931927E+00 0.21252447E+04</pdfrwt>
<pdfrwt beam="2">  1       -1 0.20666548E+00 0.21252447E+04</pdfrwt>
<totfact> 0.45798953E+00</totfact>
</mgrwt>
</event>
<event>
12    6  0.9491186E-008  0.1226800E+04  0.7818608E-02  0.9089717E-01
          2   -1    0    0  501    0  0.00000000000E+00  0.00000000000E+00  0.30691768873E+04  0.30691768873E+04  0.00000000000E+00 0. -1.
         -1   -1    0    0    0  501 -0.00000000000E+00 -0.00000000000E+00 -0.12259290230E+03  0.12259290230E+03  0.00000000000E+00 0.  1.
         24    2    1    2    0    0  0.14821972540E+03  0.78891421355E+02  0.12131245663E+03  0.22195009206E+03  0.79700613987E+02 0.  0.
        254    2    1    2    0    0 -0.14821972540E+03 -0.78891421355E+02  0.28252715284E+04  0.29698196976E+04  0.89970933284E+03 0.  0.
         23    2    4    4    0    0  0.39368313906E+02 -0.45074027996E+03  0.18243703481E+04  0.18819248626E+04  0.92721935193E+02 0.  0.
         23    2    4    4    0    0 -0.18758803930E+03  0.37184885860E+03  0.10009011803E+04  0.10878948350E+04  0.90835858322E+02 0.  0.
          2    1    3    3  502    0  0.53950887449E+02  0.17876424297E+02  0.88113504433E+02  0.10485349048E+03  0.00000000000E+00 0. -1.
         -1    1    3    3    0  502  0.94268837948E+02  0.61014997058E+02  0.33198952200E+02  0.11709660158E+03  0.00000000000E+00 0.  1.
         11    1    5    5    0    0 -0.95740791055E+01 -0.25388583719E+03  0.11487487102E+04  0.11765089377E+04  0.00000000000E+00 0. -1.
        -11    1    5    5    0    0  0.48942393011E+02 -0.19685444277E+03  0.67562163790E+03  0.70541592488E+03  0.00000000000E+00 0.  1.
          2    1    6    6  503    0 -0.35442255427E+02  0.13156368080E+03  0.41135940807E+03  0.43333787994E+03  0.00000000000E+00 0. -1.
         -2    1    6    6    0  503 -0.15214578388E+03  0.24028517780E+03  0.58954177221E+03  0.65455695505E+03  0.00000000000E+00 0.  1.
<mgrwt>
<rscale>  0 0.12267996E+04</rscale>
<asrwt>0</asrwt>
<pdfrwt beam="1">  1        2 0.47218100E+00 0.12267996E+04</pdfrwt>
<pdfrwt beam="2">  1       -1 0.18860449E-01 0.12267996E+04</pdfrwt>
<totfact> 0.40452911E+01</totfact>
</mgrwt>
</event>
<event>
12    6  0.9491186E-008  0.1719991E+04  0.7818608E-02  0.8750044E-01
          2   -1    0    0  501    0  0.00000000000E+00  0.00000000000E+00  0.85317939706E+03  0.85317939706E+03  0.00000000000E+00 0. -1.
         -3   -1    0    0    0  501 -0.00000000000E+00 -0.00000000000E+00 -0.86686580917E+03  0.86686580917E+03  0.00000000000E+00 0.  1.
         24    2    1    2    0    0 -0.26179775481E+03  0.25760866254E+03 -0.50462092057E+03  0.62955517131E+03  0.82444847103E+02 0.  0.
        254    2    1    2    0    0  0.26179775481E+03 -0.25760866254E+03  0.49093450846E+03  0.10904900349E+04  0.90180460035E+03 0.  0.
         23    2    4    4    0    0  0.16680682563E+03 -0.57075185651E+03  0.44316465018E+03  0.74777558855E+03  0.95870876031E+02 0.  0.
         23    2    4    4    0    0  0.94990929174E+02  0.31314319397E+03  0.47769858285E+02  0.34271444637E+03  0.89940512729E+02 0.  0.
          2    1    3    3  502    0 -0.13446846709E+02  0.31700180076E+02 -0.88007561694E+02  0.94504232808E+02  0.00000000000E+00 0. -1.
         -1    1    3    3    0  502 -0.24835090810E+03  0.22590848246E+03 -0.41661335887E+03  0.53505093850E+03  0.00000000000E+00 0.  1.
         11    1    5    5    0    0  0.79210713657E+02 -0.39927375404E+03  0.33315832632E+03  0.52601172822E+03  0.00000000000E+00 0.  1.
        -11    1    5    5    0    0  0.87596111977E+02 -0.17147810247E+03  0.11000632385E+03  0.22176386033E+03  0.00000000000E+00 0. -1.
          2    1    6    6  503    0 -0.36594650245E+01  0.12300769386E+03 -0.83560674167E+00  0.12306495306E+03  0.00000000000E+00 0. -1.
         -2    1    6    6    0  503  0.98650394199E+02  0.19013550011E+03  0.48605465027E+02  0.21964949330E+03  0.00000000000E+00 0.  1.
<mgrwt>
<rscale>  0 0.17199908E+04</rscale>
<asrwt>0</asrwt>
<pdfrwt beam="1">  1        2 0.13125837E+00 0.17199908E+04</pdfrwt>
<pdfrwt beam="2">  1       -3 0.13336397E+00 0.17199908E+04</pdfrwt>
<totfact> 0.82459056E+00</totfact>
</mgrwt>
</event>
<event>
12    6  0.9491186E-008  0.1507358E+04  0.7818608E-02  0.8879575E-01
          2   -1    0    0  501    0  0.00000000000E+00  0.00000000000E+00  0.89809368450E+03  0.89809368450E+03  0.00000000000E+00 0. -1.
         -1   -1    0    0    0  501 -0.00000000000E+00 -0.00000000000E+00 -0.63248641161E+03  0.63248641161E+03  0.00000000000E+00 0.  1.
         24    2    1    2    0    0 -0.83581289361E+02  0.11174760762E+03  0.55743972649E+03  0.58029090830E+03  0.80778275818E+02 0.  0.
        254    2    1    2    0    0  0.83581289361E+02 -0.11174760762E+03 -0.29183245360E+03  0.95028918782E+03  0.89353791177E+03 0.  0.
         23    2    4    4    0    0  0.60555903255E+02  0.23918466294E+03 -0.47453828224E+03  0.54269238299E+03  0.91935416694E+02 0.  0.
         23    2    4    4    0    0  0.23025386106E+02 -0.35093227055E+03  0.18270582864E+03  0.40759680483E+03  0.95237117584E+02 0.  0.
          2    1    3    3  502    0 -0.98996580324E+02  0.10229359238E+03  0.47401677842E+03  0.49493050843E+03  0.00000000000E+00 0. -1.
         -1    1    3    3    0  502  0.15415290963E+02  0.94540152302E+01  0.83422948073E+02  0.85360399863E+02  0.00000000000E+00 0.  1.
         11    1    5    5    0    0  0.17169879955E+02  0.18968892332E+03 -0.29177490819E+03  0.34843835819E+03  0.00000000000E+00 0. -1.
        -11    1    5    5    0    0  0.43386023300E+02  0.49495739617E+02 -0.18276337405E+03  0.19425402480E+03  0.00000000000E+00 0.  1.
          1    1    6    6  503    0  0.59664237444E+02 -0.24626544002E+03  0.12340888611E+03  0.28184435660E+03  0.00000000000E+00 0. -1.
         -1    1    6    6    0  503 -0.36638851338E+02 -0.10466683054E+03  0.59296942528E+02  0.12575244823E+03  0.00000000000E+00 0.  1.
<mgrwt>
<rscale>  0 0.15073580E+04</rscale>
<asrwt>0</asrwt>
<pdfrwt beam="1">  1        2 0.13816826E+00 0.15073580E+04</pdfrwt>
<pdfrwt beam="2">  1       -1 0.97305602E-01 0.15073580E+04</pdfrwt>
<totfact> 0.32886255E+01</totfact>
</mgrwt>
</event>
<event>
12    6  0.9491186E-008  0.1790209E+04  0.7818608E-02  0.8711524E-01
          2   -1    0    0  501    0  0.00000000000E+00  0.00000000000E+00  0.10830955224E+04  0.10830955224E+04  0.00000000000E+00 0. -1.
         -1   -1    0    0    0  501 -0.00000000000E+00 -0.00000000000E+00 -0.73974235261E+03  0.73974235261E+03  0.00000000000E+00 0.  1.
         24    2    1    2    0    0 -0.19500159642E+03  0.86951294776E+02  0.76061589507E+03  0.79400236091E+03  0.79479928434E+02 0.  0.
        254    2    1    2    0    0  0.19500159642E+03 -0.86951294776E+02 -0.41726272532E+03  0.10288355141E+04  0.91586471860E+03 0.  0.
         23    2    4    4    0    0  0.11359538481E+03  0.32262381189E+03 -0.47940908405E+03  0.59600361539E+03  0.91636260494E+02 0.  0.
         23    2    4    4    0    0  0.81406211611E+02 -0.40957510666E+03  0.62146358731E+02  0.43283189867E+03  0.95407249826E+02 0.  0.
          2    1    3    3  502    0 -0.85409828931E+02  0.72553236444E+02  0.29828745845E+03  0.31864434541E+03  0.00000000000E+00 0. -1.
         -1    1    3    3    0  502 -0.10959176749E+03  0.14398058332E+02  0.46232843662E+03  0.47535801549E+03  0.00000000000E+00 0.  1.
         11    1    5    5    0    0  0.85026167799E+02  0.14941576417E+03 -0.29471814047E+03  0.34119393622E+03  0.00000000000E+00 0. -1.
        -11    1    5    5    0    0  0.28569217013E+02  0.17320804772E+03 -0.18469094358E+03  0.25480967917E+03  0.00000000000E+00 0.  1.
          3    1    6    6  503    0 -0.14665870241E+02 -0.99553936911E+02 -0.73948840806E+01  0.10089974437E+03  0.00000000000E+00 0. -1.
         -3    1    6    6    0  503  0.96072081852E+02 -0.31002116975E+03  0.69541242811E+02  0.33193215430E+03  0.00000000000E+00 0.  1.
<mgrwt>
<rscale>  0 0.17902085E+04</rscale>
<asrwt>0</asrwt>
<pdfrwt beam="1">  1        2 0.16663008E+00 0.17902085E+04</pdfrwt>
<pdfrwt beam="2">  1       -1 0.11380652E+00 0.17902085E+04</pdfrwt>
<totfact> 0.16929527E+01</totfact>
</mgrwt>
</event>
<event>
12    6  0.9491186E-008  0.1606968E+04  0.7818608E-02  0.8816279E-01
          2   -1    0    0  501    0  0.00000000000E+00  0.00000000000E+00  0.11677172601E+04  0.11677172601E+04  0.00000000000E+00 0. -1.
         -1   -1    0    0    0  501 -0.00000000000E+00 -0.00000000000E+00 -0.55286226078E+03  0.55286226078E+03  0.00000000000E+00 0.  1.
         24    2    1    2    0    0 -0.11801045461E+03 -0.83273115224E+02 -0.35412908180E+03  0.39037410404E+03  0.78253788485E+02 0.  0.
        254    2    1    2    0    0  0.11801045461E+03  0.83273115224E+02  0.96898408115E+03  0.13302054169E+04  0.89980854765E+03 0.  0.
         23    2    4    4    0    0  0.30753175345E+03 -0.30203920387E+03  0.30914260681E+03  0.53771381365E+03  0.88110918663E+02 0.  0.
         23    2    4    4    0    0 -0.18952129884E+03  0.38531231910E+03  0.65984147434E+03  0.79249160322E+03  0.90929994800E+02 0.  0.
          2    1    3    3  502    0 -0.56771344626E+02 -0.62552387349E+01 -0.74076770561E+02  0.93538663231E+02  0.00000000000E+00 0. -1.
         -1    1    3    3    0  502 -0.61239109989E+02 -0.77017876489E+02 -0.28005231124E+03  0.29683544081E+03  0.00000000000E+00 0.  1.
         11    1    5    5    0    0  0.27461831147E+03 -0.23569510335E+03  0.22738829560E+03  0.42740242830E+03  0.00000000000E+00 0. -1.
        -11    1    5    5    0    0  0.32913441978E+02 -0.66344100525E+02  0.81754311202E+02  0.11031138535E+03  0.00000000000E+00 0.  1.
          1    1    6    6  503    0 -0.13799216533E+03  0.34881008048E+03  0.54878215565E+03  0.66473465706E+03  0.00000000000E+00 0. -1.
         -1    1    6    6    0  503 -0.51529133509E+02  0.36502238616E+02  0.11105931869E+03  0.12775694616E+03  0.00000000000E+00 0.  1.
<mgrwt>
<rscale>  0 0.16069683E+04</rscale>
<asrwt>0</asrwt>
<pdfrwt beam="1">  1        2 0.17964881E+00 0.16069683E+04</pdfrwt>
<pdfrwt beam="2">  1       -1 0.85055733E-01 0.16069683E+04</pdfrwt>
<totfact> 0.29599862E+01</totfact>
</mgrwt>
</event>
<event>
12    6  0.9491186E-008  0.2041588E+04  0.7818608E-02  0.8587420E-01
          2   -1    0    0  501    0  0.00000000000E+00  0.00000000000E+00  0.10784783342E+04  0.10784783342E+04  0.00000000000E+00 0. -1.
         -1   -1    0    0    0  501 -0.00000000000E+00 -0.00000000000E+00 -0.96619471872E+03  0.96619471872E+03  0.00000000000E+00 0.  1.
         24    2    1    2    0    0  0.63154848234E+03 -0.27619094293E+01  0.56761627026E+03  0.85468533008E+03  0.97147668570E+02 0.  0.
        254    2    1    2    0    0 -0.63154848234E+03  0.27619094293E+01 -0.45533265476E+03  0.11899877228E+04  0.89993435335E+03 0.  0.
         23    2    4    4    0    0 -0.52880288243E+03  0.40309952448E+03 -0.22112461571E+03  0.70639815683E+03  0.89333897249E+02 0.  0.
         23    2    4    4    0    0 -0.10274559991E+03 -0.40033761505E+03 -0.23420803905E+03  0.48358956602E+03  0.90435604036E+02 0.  0.
          2    1    3    3  502    0  0.40147076011E+03  0.33047429884E+02  0.40076744726E+03  0.56823010359E+03  0.00000000000E+00 0. -1.
         -1    1    3    3    0  502  0.23007772223E+03 -0.35809339313E+02  0.16684882300E+03  0.28645522649E+03  0.00000000000E+00 0.  1.
         11    1    5    5    0    0 -0.13493808201E+03  0.14270774626E+03 -0.92124387012E+02  0.21693475863E+03  0.00000000000E+00 0. -1.
        -11    1    5    5    0    0 -0.39386480042E+03  0.26039177822E+03 -0.12900022870E+03  0.48946339820E+03  0.00000000000E+00 0.  1.
          4    1    6    6  503    0 -0.70211925063E+02 -0.31616398682E+03 -0.13907680501E+03  0.35246523045E+03  0.00000000000E+00 0. -1.
         -4    1    6    6    0  503 -0.32533674850E+02 -0.84173628237E+02 -0.95131234035E+02  0.13112433557E+03  0.00000000000E+00 0.  1.
<mgrwt>
<rscale>  0 0.20415877E+04</rscale>
<asrwt>0</asrwt>
<pdfrwt beam="1">  1        2 0.16591974E+00 0.20415877E+04</pdfrwt>
<pdfrwt beam="2">  1       -1 0.14864534E+00 0.20415877E+04</pdfrwt>
<totfact> 0.84827593E+00</totfact>
</mgrwt>
</event>
<event>
12    6  0.9491186E-008  0.3300568E+04  0.7818608E-02  0.8162751E-01
         -1   -1    0    0    0  501 -0.00000000000E+00  0.00000000000E+00  0.71199261620E+03  0.71199261620E+03  0.00000000000E+00 0.  1.
          2   -1    0    0  501    0  0.00000000000E+00 -0.00000000000E+00 -0.38250927303E+04  0.38250927303E+04  0.00000000000E+00 0. -1.
         24    2    1    2    0    0  0.13786105558E+03 -0.15134004612E+04 -0.16232074847E+04  0.22248982320E+04  0.77349711038E+02 0.  0.
        254    2    1    2    0    0 -0.13786105558E+03  0.15134004612E+04 -0.14898926293E+04  0.23121871144E+04  0.90390407591E+03 0.  0.
         23    2    4    4    0    0  0.22410343450E+03  0.57935019842E+03 -0.10279587850E+04  0.12044698784E+04  0.90440159951E+02 0.  0.
         23    2    4    4    0    0 -0.36196449008E+03  0.93405026280E+03 -0.46193384437E+03  0.11077172360E+04  0.10092776106E+03 0.  0.
          4    1    3    3  502    0  0.86897201722E+02 -0.92836794152E+03 -0.94050560589E+03  0.13243749292E+04  0.00000000000E+00 0. -1.
         -3    1    3    3    0  502  0.50963853855E+02 -0.58503251970E+03 -0.68270187883E+03  0.90052330279E+03  0.00000000000E+00 0.  1.
         11    1    5    5    0    0  0.13372584996E+03  0.43144790116E+03 -0.69085085118E+03  0.82541189290E+03  0.00000000000E+00 0. -1.
        -11    1    5    5    0    0  0.90377584539E+02  0.14790229725E+03 -0.33710793380E+03  0.37905798547E+03  0.00000000000E+00 0.  1.
          2    1    6    6  503    0 -0.28501400560E+03  0.70048176531E+03 -0.30171320079E+03  0.81421037973E+03  0.00000000000E+00 0. -1.
         -2    1    6    6    0  503 -0.76950484475E+02  0.23356849749E+03 -0.16022064357E+03  0.29350685632E+03  0.00000000000E+00 0.  1.
<mgrwt>
<rscale>  0 0.33005683E+04</rscale>
<asrwt>0</asrwt>
<pdfrwt beam="1">  1        2 0.58847581E+00 0.33005683E+04</pdfrwt>
<pdfrwt beam="2">  1       -1 0.10953733E+00 0.33005683E+04</pdfrwt>
<totfact> 0.34282792E-01</totfact>
</mgrwt>
</event>
<event>
12    6  0.9491186E-008  0.1862341E+04  0.7818608E-02  0.8673832E-01
          2   -1    0    0  501    0  0.00000000000E+00  0.00000000000E+00  0.11673060059E+04  0.11673060059E+04  0.00000000000E+00 0. -1.
         -1   -1    0    0    0  501 -0.00000000000E+00 -0.00000000000E+00 -0.74280332434E+03  0.74280332434E+03  0.00000000000E+00 0.  1.
         24    2    1    2    0    0 -0.57003135912E+03 -0.26857811448E+03  0.49140114197E+03  0.80288889987E+03  0.78009930500E+02 0.  0.
        254    2    1    2    0    0  0.57003135912E+03  0.26857811448E+03 -0.66898460436E+02  0.11072204303E+04  0.90796019923E+03 0.  0.
         23    2    4    4    0    0  0.69863938519E+03  0.11433612797E+03  0.21841154725E+03  0.74657440903E+03  0.92195463767E+02 0.  0.
         23    2    4    4    0    0 -0.12860802608E+03  0.15424198652E+03 -0.28531000768E+03  0.36064602131E+03  0.91286019870E+02 0.  0.
          2    1    3    3  502    0 -0.39410785690E+03 -0.19289565372E+03  0.29601228111E+03  0.52929482018E+03  0.00000000000E+00 0. -1.
         -1    1    3    3    0  502 -0.17592350221E+03 -0.75682460762E+02  0.19538886086E+03  0.27359407970E+03  0.00000000000E+00 0.  1.
         11    1    5    5    0    0  0.64657174054E+03  0.10701086215E+03  0.17484425943E+03  0.67828965446E+03  0.00000000000E+00 0.  1.
        -11    1    5    5    0    0  0.52067644650E+02  0.73252658187E+01  0.43567287820E+02  0.68284754570E+02  0.00000000000E+00 0. -1.
          2    1    6    6  503    0 -0.11935072172E+02  0.40499128445E+02 -0.14587285649E+02  0.44670059941E+02  0.00000000000E+00 0.  1.
         -2    1    6    6    0  503 -0.11667295390E+03  0.11374285807E+03 -0.27072272204E+03  0.31597596137E+03  0.00000000000E+00 0. -1.
<mgrwt>
<rscale>  0 0.18623413E+04</rscale>
<asrwt>0</asrwt>
<pdfrwt beam="1">  1        2 0.17958554E+00 0.18623413E+04</pdfrwt>
<pdfrwt beam="2">  1       -1 0.11427744E+00 0.18623413E+04</pdfrwt>
<totfact> 0.14795506E+01</totfact>
</mgrwt>
</event>
<event>
12    6  0.9491186E-008  0.3094598E+04  0.7818608E-02  0.8217222E-01
         -1   -1    0    0    0  501 -0.00000000000E+00  0.00000000000E+00  0.56011242544E+03  0.56011242544E+03  0.00000000000E+00 0.  1.
          2   -1    0    0  501    0  0.00000000000E+00 -0.00000000000E+00 -0.42743817517E+04  0.42743817517E+04  0.00000000000E+00 0. -1.
         24    2    1    2    0    0 -0.70718939781E+03  0.18580569060E+03 -0.35977743876E+04  0.36721977156E+04  0.80093188577E+02 0.  0.
        254    2    1    2    0    0  0.70718939781E+03 -0.18580569060E+03 -0.11649493858E+03  0.11622964615E+04  0.89594720532E+03 0.  0.
         23    2    4    4    0    0  0.89450350034E+03 -0.18776678375E+03 -0.19583838940E+03  0.93912811265E+03  0.90642484605E+02 0.  0.
         23    2    4    4    0    0 -0.18731410252E+03  0.19610931509E+01  0.79343450816E+02  0.22316834887E+03  0.91751348003E+02 0.  0.
          4    1    3    3  502    0 -0.50579134745E+03  0.11640253887E+03 -0.27070245784E+04  0.27563302607E+04  0.00000000000E+00 0. -1.
         -3    1    3    3    0  502 -0.20139805036E+03  0.69403151732E+02 -0.89074980928E+03  0.91586745487E+03  0.00000000000E+00 0.  1.
         11    1    5    5    0    0  0.35806566464E+03 -0.10287817517E+03 -0.11590061177E+03  0.39016392828E+03  0.00000000000E+00 0.  1.
        -11    1    5    5    0    0  0.53643783569E+03 -0.84888608582E+02 -0.79937777630E+02  0.54896418437E+03  0.00000000000E+00 0. -1.
          2    1    6    6  503    0 -0.10347058470E+03 -0.42293926361E+02  0.27503864884E+02  0.11511472837E+03  0.00000000000E+00 0. -1.
         -2    1    6    6    0  503 -0.83843517823E+02  0.44255019512E+02  0.51839585933E+02  0.10805362050E+03  0.00000000000E+00 0.  1.
<mgrwt>
<rscale>  0 0.30945981E+04</rscale>
<asrwt>0</asrwt>
<pdfrwt beam="1">  1        2 0.65759719E+00 0.30945981E+04</pdfrwt>
<pdfrwt beam="2">  1       -1 0.86171143E-01 0.30945981E+04</pdfrwt>
<totfact> 0.25605104E-01</totfact>
</mgrwt>
</event>
<event>
12    6  0.9491186E-008  0.1610372E+04  0.7818608E-02  0.8814201E-01
         -1   -1    0    0    0  501 -0.00000000000E+00  0.00000000000E+00  0.68335831814E+03  0.68335831814E+03  0.00000000000E+00 0.  1.
          2   -1    0    0  501    0  0.00000000000E+00 -0.00000000000E+00 -0.94873277233E+03  0.94873277233E+03  0.00000000000E+00 0. -1.
         24    2    1    2    0    0 -0.18620164629E+03  0.27721235249E+03 -0.51158627442E+03  0.61627330046E+03  0.80960010006E+02 0.  0.
        254    2    1    2    0    0  0.18620164629E+03 -0.27721235249E+03  0.24621182023E+03  0.10158177900E+04  0.92722585200E+03 0.  0.
         23    2    4    4    0    0 -0.27995622675E+02 -0.10185871931E+03  0.56655537874E+03  0.58369165970E+03  0.92477039493E+02 0.  0.
         23    2    4    4    0    0  0.21419726897E+03 -0.17535363319E+03 -0.32034355850E+03  0.43212613031E+03  0.86507978362E+02 0.  0.
          4    1    3    3  502    0 -0.16271372680E+03  0.20207891779E+03 -0.34169191593E+03  0.42902798430E+03  0.00000000000E+00 0. -1.
         -3    1    3    3    0  502 -0.23487919486E+02  0.75133434710E+02 -0.16989435850E+03  0.18724531616E+03  0.00000000000E+00 0.  1.
         11    1    5    5    0    0 -0.14044313107E+02 -0.83085871229E+02  0.54627072127E+03  0.55273158553E+03  0.00000000000E+00 0.  1.
        -11    1    5    5    0    0 -0.13951309567E+02 -0.18772848078E+02  0.20284657468E+02  0.30960074163E+02  0.00000000000E+00 0. -1.
          3    1    6    6  503    0  0.18066742329E+03 -0.11773622674E+03 -0.28273340402E+03  0.35558503157E+03  0.00000000000E+00 0. -1.
         -3    1    6    6    0  503  0.33529845672E+02 -0.57617406451E+02 -0.37610154482E+02  0.76541098745E+02  0.00000000000E+00 0.  1.
<mgrwt>
<rscale>  0 0.16103719E+04</rscale>
<asrwt>0</asrwt>
<pdfrwt beam="1">  1        2 0.14595889E+00 0.16103719E+04</pdfrwt>
<pdfrwt beam="2">  1       -1 0.10513205E+00 0.16103719E+04</pdfrwt>
<totfact> 0.25253294E+01</totfact>
</mgrwt>
</event>
<event>
12    6  0.9491186E-008  0.2134690E+04  0.7818608E-02  0.8546114E-01
         -1   -1    0    0    0  501 -0.00000000000E+00  0.00000000000E+00  0.56917908886E+03  0.56917908886E+03  0.00000000000E+00 0.  1.
          2   -1    0    0  501    0  0.00000000000E+00 -0.00000000000E+00 -0.20015229990E+04  0.20015229990E+04  0.00000000000E+00 0. -1.
         24    2    1    2    0    0 -0.21151750723E+03  0.64071447668E+03  0.72440252794E+02  0.68393310428E+03  0.85218568449E+02 0.  0.
        254    2    1    2    0    0  0.21151750723E+03 -0.64071447668E+03 -0.15047841630E+04  0.18867689836E+04  0.91666085545E+03 0.  0.
         23    2    4    4    0    0  0.28209937656E+03  0.62345435985E+02 -0.90826703676E+03  0.95745994817E+03  0.91178564568E+02 0.  0.
         23    2    4    4    0    0 -0.70581869330E+02 -0.70305991266E+03 -0.59651712619E+03  0.92930903543E+03  0.92236437611E+02 0.  0.
          2    1    3    3  502    0 -0.67554512664E+02  0.14791461891E+03 -0.14382489861E+02  0.16324583512E+03  0.00000000000E+00 0. -1.
         -1    1    3    3    0  502 -0.14396299457E+03  0.49279985776E+03  0.86822742655E+02  0.52068726915E+03  0.00000000000E+00 0.  1.
         11    1    5    5    0    0  0.13922591323E+03  0.36515018420E+02 -0.30935303690E+03  0.34119862679E+03  0.00000000000E+00 0.  1.
        -11    1    5    5    0    0  0.14287346333E+03  0.25830417565E+02 -0.59891399987E+03  0.61626132138E+03  0.00000000000E+00 0. -1.
          2    1    6    6  503    0 -0.45712695599E+02 -0.30070807024E+03 -0.20109749385E+03  0.36463021828E+03  0.00000000000E+00 0. -1.
         -2    1    6    6    0  503 -0.24869173732E+02 -0.40235184242E+03 -0.39541963235E+03  0.56467881716E+03  0.00000000000E+00 0.  1.
<mgrwt>
<rscale>  0 0.21346897E+04</rscale>
<asrwt>0</asrwt>
<pdfrwt beam="1">  1        2 0.30792662E+00 0.21346897E+04</pdfrwt>
<pdfrwt beam="2">  1       -1 0.87566011E-01 0.21346897E+04</pdfrwt>
<totfact> 0.89494417E+00</totfact>
</mgrwt>
</event>
<event>
12    6  0.9491186E-008  0.1573339E+04  0.7818608E-02  0.8837096E-01
         -1   -1    0    0    0  501 -0.00000000000E+00  0.00000000000E+00  0.36631857499E+03  0.36631857499E+03  0.00000000000E+00 0.  1.
          2   -1    0    0  501    0  0.00000000000E+00 -0.00000000000E+00 -0.16893731956E+04  0.16893731956E+04  0.00000000000E+00 0. -1.
         24    2    1    2    0    0 -0.87900361954E+01  0.14566835215E+01  0.23884355067E+03  0.25283323052E+03  0.82456134350E+02 0.  0.
        254    2    1    2    0    0  0.87900361954E+01 -0.14566835215E+01 -0.15618981713E+04  0.18028585401E+04  0.90038526831E+03 0.  0.
         23    2    4    4    0    0  0.14637180067E+03 -0.16441094035E+03 -0.15611328015E+02  0.23927837152E+03  0.92491968194E+02 0.  0.
         23    2    4    4    0    0 -0.13758176447E+03  0.16295425683E+03 -0.15462868433E+04  0.15635801685E+04  0.91088473945E+02 0.  0.
          4    1    3    3  502    0 -0.39296292782E+02 -0.79135271636E+01  0.67194110280E+02  0.78242386179E+02  0.00000000000E+00 0. -1.
         -3    1    3    3    0  502  0.30506256587E+02  0.93702106850E+01  0.17164944039E+03  0.17459084434E+03  0.00000000000E+00 0.  1.
         11    1    5    5    0    0  0.44246753107E+02 -0.16147928890E+01 -0.16064828523E+02  0.47100545984E+02  0.00000000000E+00 0. -1.
        -11    1    5    5    0    0  0.10212504756E+03 -0.16279614746E+03  0.45350050724E+00  0.19217782554E+03  0.00000000000E+00 0.  1.
          3    1    6    6  503    0 -0.78392152487E+02  0.44020479782E+02 -0.84931224059E+03  0.85405761763E+03  0.00000000000E+00 0. -1.
         -3    1    6    6    0  503 -0.59189611986E+02  0.11893377704E+03 -0.69697460267E+03  0.70952255091E+03  0.00000000000E+00 0.  1.
<mgrwt>
<rscale>  0 0.15733388E+04</rscale>
<asrwt>0</asrwt>
<pdfrwt beam="1">  1        2 0.25990357E+00 0.15733388E+04</pdfrwt>
<pdfrwt beam="2">  1       -1 0.56356704E-01 0.15733388E+04</pdfrwt>
<totfact> 0.34672020E+01</totfact>
</mgrwt>
</event>
<event>
12    6  0.9491186E-008  0.1752240E+04  0.7818608E-02  0.8732118E-01
          2   -1    0    0  501    0  0.00000000000E+00  0.00000000000E+00  0.71843079694E+03  0.71843079694E+03  0.00000000000E+00 0. -1.
         -1   -1    0    0    0  501 -0.00000000000E+00 -0.00000000000E+00 -0.10684210481E+04  0.10684210481E+04  0.00000000000E+00 0.  1.
         24    2    1    2    0    0  0.25788570878E+03  0.14467060694E+03 -0.70023961207E+03  0.76504056846E+03  0.86700252401E+02 0.  0.
        254    2    1    2    0    0 -0.25788570878E+03 -0.14467060694E+03  0.35024936090E+03  0.10218112766E+04  0.91323000763E+03 0.  0.
         23    2    4    4    0    0  0.17110428339E+03 -0.39841928408E+03  0.90081633915E+02  0.45214710770E+03  0.91146609967E+02 0.  0.
         23    2    4    4    0    0 -0.42898999217E+03  0.25374867714E+03  0.26016772699E+03  0.56966416889E+03  0.91701769942E+02 0.  0.
          2    1    3    3  502    0  0.51592245613E+02  0.45719128663E+02 -0.90334613346E+02  0.11363248172E+03  0.00000000000E+00 0. -1.
         -1    1    3    3    0  502  0.20629346317E+03  0.98951478274E+02 -0.60990499873E+03  0.65140808674E+03  0.00000000000E+00 0.  1.
         11    1    5    5    0    0 -0.64005020956E+00 -0.35911274623E+02 -0.12629148810E+02  0.38072624141E+02  0.00000000000E+00 0. -1.
        -11    1    5    5    0    0  0.17174433360E+03 -0.36250800946E+03  0.10271078272E+03  0.41407448356E+03  0.00000000000E+00 0.  1.
          1    1    6    6  503    0 -0.82208994681E+02  0.50179413505E+02  0.93954046595E+02  0.13454982430E+03  0.00000000000E+00 0. -1.
         -1    1    6    6    0  503 -0.34678099749E+03  0.20356926364E+03  0.16621368039E+03  0.43511434459E+03  0.00000000000E+00 0.  1.
<mgrwt>
<rscale>  0 0.17522404E+04</rscale>
<asrwt>0</asrwt>
<pdfrwt beam="1">  1        2 0.11052781E+00 0.17522404E+04</pdfrwt>
<pdfrwt beam="2">  1       -1 0.16437247E+00 0.17522404E+04</pdfrwt>
<totfact> 0.11618933E+01</totfact>
</mgrwt>
</event>
<event>
12    6  0.9491186E-008  0.2393218E+04  0.7818608E-02  0.8442047E-01
         -1   -1    0    0    0  501 -0.00000000000E+00  0.00000000000E+00  0.49513575273E+03  0.49513575273E+03  0.00000000000E+00 0.  1.
          2   -1    0    0  501    0  0.00000000000E+00 -0.00000000000E+00 -0.28918807053E+04  0.28918807053E+04  0.00000000000E+00 0. -1.
         24    2    1    2    0    0 -0.63466395313E+03  0.12264699490E+02  0.10758955850E+03  0.64880310743E+03  0.80132408231E+02 0.  0.
        254    2    1    2    0    0  0.63466395313E+03 -0.12264699490E+02 -0.25043345110E+04  0.27382133506E+04  0.90728840719E+03 0.  0.
         23    2    4    4    0    0  0.50120092349E+03  0.33050866937E+03 -0.87325561246E+03  0.10636833316E+04  0.91697976558E+02 0.  0.
         23    2    4    4    0    0  0.13346302964E+03 -0.34277336886E+03 -0.16310788986E+04  0.16745300190E+04  0.91249375444E+02 0.  0.
          4    1    3    3  502    0 -0.32303665901E+03  0.40970748203E+02  0.75115779519E+02  0.33417609969E+03  0.00000000000E+00 0. -1.
         -3    1    3    3    0  502 -0.31162729412E+03 -0.28706048713E+02  0.32473778984E+02  0.31462700773E+03  0.00000000000E+00 0.  1.
         11    1    5    5    0    0  0.17866217026E+03  0.67303415071E+02 -0.28384382208E+03  0.34207782170E+03  0.00000000000E+00 0. -1.
        -11    1    5    5    0    0  0.32253875323E+03  0.26320525430E+03 -0.58941179038E+03  0.72160550986E+03  0.00000000000E+00 0.  1.
          2    1    6    6  503    0  0.92682264146E+02 -0.23455821143E+03 -0.91280234686E+03  0.94700352748E+03  0.00000000000E+00 0.  1.
         -2    1    6    6    0  503  0.40780765497E+02 -0.10821515743E+03 -0.71827655171E+03  0.72752649152E+03  0.00000000000E+00 0. -1.
<mgrwt>
<rscale>  0 0.23932184E+04</rscale>
<asrwt>0</asrwt>
<pdfrwt beam="1">  1        2 0.44490473E+00 0.23932184E+04</pdfrwt>
<pdfrwt beam="2">  1       -1 0.76174731E-01 0.23932184E+04</pdfrwt>
<totfact> 0.36003784E+00</totfact>
</mgrwt>
</event>
<event>
12    6  0.9491186E-008  0.1540967E+04  0.7818608E-02  0.8857658E-01
         -1   -1    0    0    0  501 -0.00000000000E+00  0.00000000000E+00  0.62548809815E+03  0.62548809815E+03  0.00000000000E+00 0.  1.
          2   -1    0    0  501    0  0.00000000000E+00 -0.00000000000E+00 -0.94909112457E+03  0.94909112457E+03  0.00000000000E+00 0. -1.
         24    2    1    2    0    0 -0.36665687603E+03  0.25615670910E+03 -0.37642233854E+03  0.59030737665E+03  0.81948139838E+02 0.  0.
        254    2    1    2    0    0  0.36665687603E+03 -0.25615670910E+03  0.52819312115E+02  0.98427184606E+03  0.87518435935E+03 0.  0.
         23    2    4    4    0    0  0.24773275247E+03 -0.48427617872E+03  0.28847429824E+03  0.62287735979E+03  0.94148025336E+02 0.  0.
         23    2    4    4    0    0  0.11892412356E+03  0.22811946962E+03 -0.23565498613E+03  0.36139448627E+03  0.94293492019E+02 0.  0.
          2    1    3    3  502    0 -0.30810334976E+03  0.18421871167E+03 -0.27029931906E+03  0.44936169146E+03  0.00000000000E+00 0. -1.
         -1    1    3    3    0  502 -0.58553526270E+02  0.71937997431E+02 -0.10612301947E+03  0.14094568520E+03  0.00000000000E+00 0.  1.
         11    1    5    5    0    0  0.11653473134E+03 -0.30641519090E+03  0.20487470502E+03  0.38658020847E+03  0.00000000000E+00 0. -1.
        -11    1    5    5    0    0  0.13119802113E+03 -0.17786098781E+03  0.83599593221E+02  0.23629715132E+03  0.00000000000E+00 0.  1.
          2    1    6    6  503    0  0.69069226448E+01  0.58890973163E+02 -0.10329169095E+03  0.11910090562E+03  0.00000000000E+00 0.  1.
         -2    1    6    6    0  503  0.11201720092E+03  0.16922849645E+03 -0.13236329518E+03  0.24229358065E+03  0.00000000000E+00 0. -1.
<mgrwt>
<rscale>  0 0.15409675E+04</rscale>
<asrwt>0</asrwt>
<pdfrwt beam="1">  1        2 0.14601402E+00 0.15409675E+04</pdfrwt>
<pdfrwt beam="2">  1       -1 0.96228938E-01 0.15409675E+04</pdfrwt>
<totfact> 0.31092182E+01</totfact>
</mgrwt>
</event>
<event>
12    6  0.9491186E-008  0.1993108E+04  0.7818608E-02  0.8609850E-01
         -1   -1    0    0    0  501 -0.00000000000E+00  0.00000000000E+00  0.86279717602E+03  0.86279717602E+03  0.00000000000E+00 0.  1.
          2   -1    0    0  501    0  0.00000000000E+00 -0.00000000000E+00 -0.11510469153E+04  0.11510469153E+04  0.00000000000E+00 0. -1.
         24    2    1    2    0    0  0.66507971801E+02 -0.20559434179E+03 -0.85801718372E+03  0.88832855610E+03  0.79005014609E+02 0.  0.
        254    2    1    2    0    0 -0.66507971801E+02  0.20559434179E+03  0.56976744445E+03  0.11255155352E+04  0.94628639194E+03 0.  0.
         23    2    4    4    0    0 -0.28487104121E+03  0.12599138479E+02  0.72415219348E+03  0.78374010578E+03  0.92422430518E+02 0.  0.
         23    2    4    4    0    0  0.21836306941E+03  0.19299520331E+03 -0.15438474903E+03  0.34177542944E+03  0.89700695926E+02 0.  0.
          4    1    3    3  502    0  0.68877411287E+02 -0.20603962202E+03 -0.85875408008E+03  0.88580753761E+03  0.00000000000E+00 0. -1.
         -3    1    3    3    0  502 -0.23694394860E+01  0.44528023041E+00  0.73689636463E+00  0.25210184874E+01  0.00000000000E+00 0.  1.
         11    1    5    5    0    0 -0.10978410021E+03  0.42098269385E+02  0.35789648292E+03  0.37671568249E+03  0.00000000000E+00 0. -1.
        -11    1    5    5    0    0 -0.17508694101E+03 -0.29499130906E+02  0.36625571056E+03  0.40702442329E+03  0.00000000000E+00 0.  1.
          1    1    6    6  503    0  0.22011550592E+03  0.19532334263E+03 -0.16035249397E+03  0.33513425138E+03  0.00000000000E+00 0. -1.
         -1    1    6    6    0  503 -0.17524365106E+01 -0.23281393166E+01  0.59677449382E+01  0.66411780618E+01  0.00000000000E+00 0.  1.
<mgrwt>
<rscale>  0 0.19931082E+04</rscale>
<asrwt>0</asrwt>
<pdfrwt beam="1">  1        2 0.17708414E+00 0.19931082E+04</pdfrwt>
<pdfrwt beam="2">  1       -1 0.13273803E+00 0.19931082E+04</pdfrwt>
<totfact> 0.10336984E+01</totfact>
</mgrwt>
</event>
<event>
12    6  0.9491186E-008  0.2349460E+04  0.7818608E-02  0.8458671E-01
          2   -1    0    0  501    0  0.00000000000E+00  0.00000000000E+00  0.79668904450E+03  0.79668904450E+03  0.00000000000E+00 0. -1.
         -1   -1    0    0    0  501 -0.00000000000E+00 -0.00000000000E+00 -0.17321567699E+04  0.17321567699E+04  0.00000000000E+00 0.  1.
         24    2    1    2    0    0 -0.91750538561E+03 -0.16537518036E+03 -0.79100005113E+03  0.12252018045E+04  0.79204152969E+02 0.  0.
        254    2    1    2    0    0  0.91750538561E+03  0.16537518036E+03 -0.14446767428E+03  0.13036440100E+04  0.89969534450E+03 0.  0.
         23    2    4    4    0    0  0.31196039604E+03 -0.22097756607E+03 -0.37525959076E+03  0.54343123598E+03  0.91363966539E+02 0.  0.
         23    2    4    4    0    0  0.60554498956E+03  0.38635274643E+03  0.23079191648E+03  0.76021277398E+03  0.93302593481E+02 0.  0.
          4    1    3    3  502    0 -0.23593662515E+02 -0.14766983560E+02 -0.13488588604E+02  0.30930029694E+02  0.00000000000E+00 0. -1.
         -3    1    3    3    0  502 -0.89391172309E+03 -0.15060819680E+03 -0.77751146253E+03  0.11942717748E+04  0.00000000000E+00 0.  1.
         11    1    5    5    0    0  0.14063826085E+03 -0.14884579217E+03 -0.22651245484E+03  0.30535566551E+03  0.00000000000E+00 0. -1.
        -11    1    5    5    0    0  0.17132213519E+03 -0.72131773902E+02 -0.14874713591E+03  0.23807557047E+03  0.00000000000E+00 0.  1.
          1    1    6    6  503    0  0.48608212742E+03  0.27759586730E+03  0.20751842717E+03  0.59699179036E+03  0.00000000000E+00 0. -1.
         -1    1    6    6    0  503  0.11946286215E+03  0.10875687913E+03  0.23273489303E+02  0.16322098363E+03  0.00000000000E+00 0.  1.
<mgrwt>
<rscale>  0 0.23494598E+04</rscale>
<asrwt>0</asrwt>
<pdfrwt beam="1">  1        2 0.12256755E+00 0.23494598E+04</pdfrwt>
<pdfrwt beam="2">  1       -1 0.26648566E+00 0.23494598E+04</pdfrwt>
<totfact> 0.19428889E+00</totfact>
</mgrwt>
</event>
<event>
12    6  0.9491186E-008  0.2094435E+04  0.7818608E-02  0.8563699E-01
         -1   -1    0    0    0  501 -0.00000000000E+00  0.00000000000E+00  0.55714411621E+03  0.55714411621E+03  0.00000000000E+00 0.  1.
          2   -1    0    0  501    0  0.00000000000E+00 -0.00000000000E+00 -0.19683674459E+04  0.19683674459E+04  0.00000000000E+00 0. -1.
         24    2    1    2    0    0 -0.49297760684E+03 -0.10435784842E+03 -0.14010011525E+04  0.14909641760E+04  0.79072518767E+02 0.  0.
        254    2    1    2    0    0  0.49297760684E+03  0.10435784842E+03 -0.10222177169E+02  0.10345473862E+04  0.90347458180E+03 0.  0.
         23    2    4    4    0    0  0.48997587237E+03  0.38859797691E+03 -0.21996469282E+03  0.66982206867E+03  0.95876975498E+02 0.  0.
         23    2    4    4    0    0  0.30017344758E+01 -0.28424012850E+03  0.20974251565E+03  0.36472531750E+03  0.90725813825E+02 0.  0.
          4    1    3    3  502    0 -0.23634408201E+03 -0.67388668181E+02 -0.57779763477E+03  0.62789319509E+03  0.00000000000E+00 0. -1.
         -3    1    3    3    0  502 -0.25663352483E+03 -0.36969180236E+02 -0.82320351777E+03  0.86307098088E+03  0.00000000000E+00 0.  1.
         11    1    5    5    0    0  0.52618961495E+02  0.68206450497E+02 -0.40036660372E+01  0.86237488019E+02  0.00000000000E+00 0. -1.
        -11    1    5    5    0    0  0.43735691087E+03  0.32039152642E+03 -0.21596102678E+03  0.58358458065E+03  0.00000000000E+00 0.  1.
          4    1    6    6  503    0  0.25099252583E+02 -0.15049021751E+03  0.63329282338E+02  0.16519042359E+03  0.00000000000E+00 0. -1.
         -4    1    6    6    0  503 -0.22097518107E+02 -0.13374991099E+03  0.14641323331E+03  0.19953489391E+03  0.00000000000E+00 0.  1.
<mgrwt>
<rscale>  0 0.20944349E+04</rscale>
<asrwt>0</asrwt>
<pdfrwt beam="1">  1        2 0.30282576E+00 0.20944349E+04</pdfrwt>
<pdfrwt beam="2">  1       -1 0.85714479E-01 0.20944349E+04</pdfrwt>
<totfact> 0.98170728E+00</totfact>
</mgrwt>
</event>
<event>
12    6  0.9491186E-008  0.1964719E+04  0.7818608E-02  0.8623296E-01
          2   -1    0    0  501    0  0.00000000000E+00  0.00000000000E+00  0.12324700287E+04  0.12324700287E+04  0.00000000000E+00 0. -1.
         -1   -1    0    0    0  501 -0.00000000000E+00 -0.00000000000E+00 -0.78300509166E+03  0.78300509166E+03  0.00000000000E+00 0.  1.
         24    2    1    2    0    0 -0.20212530047E+03 -0.36087264777E+03 -0.49079136961E+03  0.64672498274E+03  0.79330510041E+02 0.  0.
        254    2    1    2    0    0  0.20212530047E+03  0.36087264777E+03  0.94025630669E+03  0.13687501377E+04  0.90460561135E+03 0.  0.
         23    2    4    4    0    0  0.10924196457E+03 -0.19083463474E+03 -0.34417020270E+02  0.24134163254E+03  0.93325171691E+02 0.  0.
         23    2    4    4    0    0  0.92883335903E+02  0.55170728251E+03  0.97467332696E+03  0.11274085051E+04  0.89741871435E+02 0.  0.
          2    1    3    3  502    0 -0.18515907579E+00 -0.45034493367E+02 -0.69248769496E+02  0.82604672709E+02  0.00000000000E+00 0. -1.
         -1    1    3    3    0  502 -0.20194014140E+03 -0.31583815440E+03 -0.42154260012E+03  0.56412031003E+03  0.00000000000E+00 0.  1.
         11    1    5    5    0    0  0.23270268145E+02 -0.13755459208E+02  0.23854622964E+02  0.36052199299E+02  0.00000000000E+00 0. -1.
        -11    1    5    5    0    0  0.85971696424E+02 -0.17707917553E+03 -0.58271643234E+02  0.20528943324E+03  0.00000000000E+00 0.  1.
          2    1    6    6  503    0  0.85902412064E+01  0.16307696511E+03  0.36009580365E+03  0.39539458342E+03  0.00000000000E+00 0. -1.
         -2    1    6    6    0  503  0.84293094697E+02  0.38863031740E+03  0.61457752331E+03  0.73201392171E+03  0.00000000000E+00 0.  1.
<mgrwt>
<rscale>  0 0.19647191E+04</rscale>
<asrwt>0</asrwt>
<pdfrwt beam="1">  1        2 0.18961077E+00 0.19647191E+04</pdfrwt>
<pdfrwt beam="2">  1       -1 0.12046232E+00 0.19647191E+04</pdfrwt>
<totfact> 0.11801970E+01</totfact>
</mgrwt>
</event>
<event>
12    6  0.9491186E-008  0.2966933E+04  0.7818608E-02  0.8253237E-01
          2   -1    0    0  501    0  0.00000000000E+00  0.00000000000E+00  0.22363167934E+04  0.22363167934E+04  0.00000000000E+00 0. -1.
         -1   -1    0    0    0  501 -0.00000000000E+00 -0.00000000000E+00 -0.98406137738E+03  0.98406137738E+03  0.00000000000E+00 0.  1.
         24    2    1    2    0    0  0.21133704078E+03  0.65247902484E+03  0.18267857704E+04  0.19528244089E+04  0.77360830483E+02 0.  0.
        254    2    1    2    0    0 -0.21133704078E+03 -0.65247902484E+03 -0.57453035445E+03  0.12675537619E+04  0.89789486491E+03 0.  0.
         23    2    4    4    0    0  0.11399116456E+02 -0.47659366225E+03 -0.77064274567E+03  0.91084187521E+03  0.92039238571E+02 0.  0.
         23    2    4    4    0    0 -0.22273615723E+03 -0.17588536259E+03  0.19611239122E+03  0.35671188667E+03  0.90753752491E+02 0.  0.
          4    1    3    3  502    0  0.12987443535E+03  0.47676043332E+03  0.12366286604E+04  0.13316975345E+04  0.00000000000E+00 0. -1.
         -3    1    3    3    0  502  0.81462605426E+02  0.17571859152E+03  0.59015711005E+03  0.62112687434E+03  0.00000000000E+00 0.  1.
         11    1    5    5    0    0  0.15622853687E+02 -0.44321073426E+03 -0.75016574742E+03  0.87145193621E+03  0.00000000000E+00 0.  1.
        -11    1    5    5    0    0 -0.42237372308E+01 -0.33382927990E+02 -0.20476998246E+02  0.39389939002E+02  0.00000000000E+00 0. -1.
          4    1    6    6  503    0 -0.62097001218E+02 -0.82657237653E+02  0.30297717879E+02  0.10773211316E+03  0.00000000000E+00 0.  1.
         -4    1    6    6    0  503 -0.16063915601E+03 -0.93228124936E+02  0.16581467334E+03  0.24897977351E+03  0.00000000000E+00 0. -1.
<mgrwt>
<rscale>  0 0.29669331E+04</rscale>
<asrwt>0</asrwt>
<pdfrwt beam="1">  1        2 0.34404874E+00 0.29669331E+04</pdfrwt>
<pdfrwt beam="2">  1       -1 0.15139406E+00 0.29669331E+04</pdfrwt>
<totfact> 0.16358188E+00</totfact>
</mgrwt>
</event>
<event>
12    6  0.9491186E-008  0.2727872E+04  0.7818608E-02  0.8326018E-01
         -1   -1    0    0    0  501 -0.00000000000E+00  0.00000000000E+00  0.10291548322E+04  0.10291548322E+04  0.00000000000E+00 0.  1.
          2   -1    0    0  501    0  0.00000000000E+00 -0.00000000000E+00 -0.18076203004E+04  0.18076203004E+04  0.00000000000E+00 0. -1.
         24    2    1    2    0    0 -0.42438704221E+03  0.52826070469E+03  0.70080230348E+03  0.97800668769E+03  0.78800246741E+02 0.  0.
        254    2    1    2    0    0  0.42438704221E+03 -0.52826070469E+03 -0.14792677717E+04  0.18587684448E+04  0.89867861742E+03 0.  0.
         23    2    4    4    0    0  0.27084069854E+03 -0.73723346285E+03 -0.79463594497E+03  0.11209154498E+04  0.90206972603E+02 0.  0.
         23    2    4    4    0    0  0.15354634366E+03  0.20897275816E+03 -0.68463182672E+03  0.73785299500E+03  0.91979403996E+02 0.  0.
          2    1    3    3  502    0 -0.19540456452E+03  0.23795558944E+03  0.37490280430E+03  0.48513701060E+03  0.00000000000E+00 0. -1.
         -1    1    3    3    0  502 -0.22898247769E+03  0.29030511525E+03  0.32589949918E+03  0.49286967709E+03  0.00000000000E+00 0.  1.
         11    1    5    5    0    0  0.12331858520E+03 -0.44683197971E+03 -0.49825073338E+03  0.68052926818E+03  0.00000000000E+00 0.  1.
        -11    1    5    5    0    0  0.14752211335E+03 -0.29040148314E+03 -0.29638521159E+03  0.44038618165E+03  0.00000000000E+00 0. -1.
          1    1    6    6  503    0  0.12560966523E+03  0.21234103750E+03 -0.62436792580E+03  0.67134328847E+03  0.00000000000E+00 0. -1.
         -1    1    6    6    0  503  0.27936678436E+02 -0.33682793458E+01 -0.60263900926E+02  0.66509706529E+02  0.00000000000E+00 0.  1.
<mgrwt>
<rscale>  0 0.27278718E+04</rscale>
<asrwt>0</asrwt>
<pdfrwt beam="1">  1        2 0.27809543E+00 0.27278718E+04</pdfrwt>
<pdfrwt beam="2">  1       -1 0.15833151E+00 0.27278718E+04</pdfrwt>
<totfact> 0.25615159E+00</totfact>
</mgrwt>
</event>
<event>
12    6  0.9491186E-008  0.1245437E+04  0.7818608E-02  0.9073989E-01
          2   -1    0    0  501    0  0.00000000000E+00  0.00000000000E+00  0.10051196034E+04  0.10051196034E+04  0.00000000000E+00 0. -1.
         -1   -1    0    0    0  501 -0.00000000000E+00 -0.00000000000E+00 -0.38580333234E+03  0.38580333234E+03  0.00000000000E+00 0.  1.
         24    2    1    2    0    0 -0.41091074149E+02  0.12515390824E+03 -0.13684148621E+03  0.20557444671E+03  0.78633858290E+02 0.  0.
        254    2    1    2    0    0  0.41091074149E+02 -0.12515390824E+03  0.75615775729E+03  0.11853484890E+04  0.90328539756E+03 0.  0.
         23    2    4    4    0    0 -0.17113245638E+03 -0.79802230642E+02  0.89039357772E+03  0.91407520773E+03  0.84131138622E+02 0.  0.
         23    2    4    4    0    0  0.21222353053E+03 -0.45351677603E+02 -0.13423582043E+03  0.27127328132E+03  0.92056157305E+02 0.  0.
          2    1    3    3  502    0  0.10306195179E+02 -0.28912986777E+01 -0.27554340445E+02  0.29560428693E+02  0.00000000000E+00 0. -1.
         -1    1    3    3    0  502 -0.51397269328E+02  0.12804520692E+03 -0.10928714576E+03  0.17601401802E+03  0.00000000000E+00 0.  1.
         11    1    5    5    0    0 -0.18347030595E+02 -0.46864238135E+02  0.22903640225E+03  0.23450062666E+03  0.00000000000E+00 0. -1.
        -11    1    5    5    0    0 -0.15278542579E+03 -0.32937992507E+02  0.66135717548E+03  0.67957458107E+03  0.00000000000E+00 0.  1.
          1    1    6    6  503    0  0.83508219080E+02  0.25682054012E+02 -0.64253924024E+02  0.10845163579E+03  0.00000000000E+00 0. -1.
         -1    1    6    6    0  503  0.12871531145E+03 -0.71033731615E+02 -0.69981896410E+02  0.16282164553E+03  0.00000000000E+00 0.  1.
<mgrwt>
<rscale>  0 0.12454373E+04</rscale>
<asrwt>0</asrwt>
<pdfrwt beam="1">  1        2 0.15463378E+00 0.12454373E+04</pdfrwt>
<pdfrwt beam="2">  1       -1 0.59354359E-01 0.12454373E+04</pdfrwt>
<totfact> 0.80726436E+01</totfact>
</mgrwt>
</event>
<event>
12    6  0.9491186E-008  0.1177980E+04  0.7818608E-02  0.9132352E-01
         -1   -1    0    0    0  501 -0.00000000000E+00  0.00000000000E+00  0.23217190991E+03  0.23217190991E+03  0.00000000000E+00 0.  1.
          2   -1    0    0  501    0  0.00000000000E+00 -0.00000000000E+00 -0.14941910545E+04  0.14941910545E+04  0.00000000000E+00 0. -1.
         24    2    1    2    0    0 -0.45452066561E+02 -0.17695161597E+02 -0.57687706739E+03  0.58439633078E+03  0.79705153212E+02 0.  0.
        254    2    1    2    0    0  0.45452066561E+02  0.17695161597E+02 -0.68514207721E+03  0.11419666336E+04  0.91229880920E+03 0.  0.
         23    2    4    4    0    0  0.25984920080E+03  0.97077560230E+02  0.10831811833E+03  0.31123585136E+03  0.90494643794E+02 0.  0.
         23    2    4    4    0    0 -0.21439713424E+03 -0.79382398633E+02 -0.79346019554E+03  0.83073078227E+03  0.90922243284E+02 0.  0.
          2    1    3    3  502    0 -0.38594013660E+02  0.57611607470E+01 -0.53086284745E+03  0.53229507950E+03  0.00000000000E+00 0. -1.
         -1    1    3    3    0  502 -0.68580529015E+01 -0.23456322344E+02 -0.46014219940E+02  0.52101251273E+02  0.00000000000E+00 0.  1.
         11    1    5    5    0    0  0.37868973970E+02  0.39302731348E+02 -0.60798473641E+01  0.54915648270E+02  0.00000000000E+00 0.  1.
        -11    1    5    5    0    0  0.22198022683E+03  0.57774828882E+02  0.11439796570E+03  0.25632020309E+03  0.00000000000E+00 0. -1.
          4    1    6    6  503    0 -0.19353474324E+03 -0.93986065880E+02 -0.75108439476E+03  0.78129177999E+03  0.00000000000E+00 0. -1.
         -4    1    6    6    0  503 -0.20862390996E+02  0.14603667248E+02 -0.42375800776E+02  0.49439002281E+02  0.00000000000E+00 0.  1.
<mgrwt>
<rscale>  0 0.11779800E+04</rscale>
<asrwt>0</asrwt>
<pdfrwt beam="1">  1        2 0.22987556E+00 0.11779800E+04</pdfrwt>
<pdfrwt beam="2">  1       -1 0.35718754E-01 0.11779800E+04</pdfrwt>
<totfact> 0.10767588E+02</totfact>
</mgrwt>
</event>
<event>
12    6  0.9491186E-008  0.1111569E+04  0.7818608E-02  0.9193989E-01
         -1   -1    0    0    0  501 -0.00000000000E+00  0.00000000000E+00  0.37454991832E+03  0.37454991832E+03  0.00000000000E+00 0.  1.
          2   -1    0    0  501    0  0.00000000000E+00 -0.00000000000E+00 -0.82471326460E+03  0.82471326460E+03  0.00000000000E+00 0. -1.
         24    2    1    2    0    0 -0.69226153459E+02 -0.10941596179E+03  0.63579414661E+02  0.16541378108E+03  0.80964584763E+02 0.  0.
        254    2    1    2    0    0  0.69226153459E+02  0.10941596179E+03 -0.51374276094E+03  0.10338494018E+04  0.88777747676E+03 0.  0.
         23    2    4    4    0    0  0.22539960411E+03  0.41964774161E+03 -0.11710549516E+03  0.49878470229E+03  0.90350836543E+02 0.  0.
         23    2    4    4    0    0 -0.15617345065E+03 -0.31023177982E+03 -0.39663726578E+03  0.53506469955E+03  0.91319265209E+02 0.  0.
          2    1    3    3  502    0  0.11670631360E+02 -0.15909971939E+02 -0.93819608823E+01  0.21848387434E+02  0.00000000000E+00 0. -1.
         -1    1    3    3    0  502 -0.80896784819E+02 -0.93505989851E+02  0.72961375544E+02  0.14356539365E+03  0.00000000000E+00 0.  1.
         11    1    5    5    0    0  0.20083122175E+03  0.39948826565E+03 -0.88033081933E+02  0.45571249438E+03  0.00000000000E+00 0.  1.
        -11    1    5    5    0    0  0.24568382355E+02  0.20159475963E+02 -0.29072413227E+02  0.43072207902E+02  0.00000000000E+00 0. -1.
          1    1    6    6  503    0 -0.58311121291E+01 -0.61935370903E+02 -0.11431216403E+03  0.13014323986E+03  0.00000000000E+00 0. -1.
         -1    1    6    6    0  503 -0.15034233852E+03 -0.24829640892E+03 -0.28232510175E+03  0.40492145968E+03  0.00000000000E+00 0.  1.
<mgrwt>
<rscale>  0 0.11115688E+04</rscale>
<asrwt>0</asrwt>
<pdfrwt beam="1">  1        2 0.12687896E+00 0.11115688E+04</pdfrwt>
<pdfrwt beam="2">  1       -1 0.57623066E-01 0.11115688E+04</pdfrwt>
<totfact> 0.11423293E+02</totfact>
</mgrwt>
</event>
<event>
12    6  0.9491186E-008  0.1930349E+04  0.7818608E-02  0.8639896E-01
         -1   -1    0    0    0  501 -0.00000000000E+00  0.00000000000E+00  0.99157500578E+03  0.99157500578E+03  0.00000000000E+00 0.  1.
          2   -1    0    0  501    0  0.00000000000E+00 -0.00000000000E+00 -0.93947648353E+03  0.93947648353E+03  0.00000000000E+00 0. -1.
         24    2    1    2    0    0 -0.54959932469E+03  0.36766597742E+03 -0.34844181415E+03  0.75373843419E+03  0.97325436927E+02 0.  0.
        254    2    1    2    0    0  0.54959932469E+03 -0.36766597742E+03  0.40054033640E+03  0.11773130551E+04  0.88791653888E+03 0.  0.
         23    2    4    4    0    0  0.42258342221E+03  0.17356760635E+03  0.39822646220E+03  0.61374348213E+03  0.96924114435E+02 0.  0.
         23    2    4    4    0    0  0.12701590248E+03 -0.54123358378E+03  0.23138741987E+01  0.56356957299E+03  0.92403884634E+02 0.  0.
          2    1    3    3  502    0 -0.84486742647E+02  0.35094592714E+02 -0.82282823870E+02  0.12304512678E+03  0.00000000000E+00 0. -1.
         -1    1    3    3    0  502 -0.46511258204E+03  0.33257138471E+03 -0.26615899028E+03  0.63069330741E+03  0.00000000000E+00 0.  1.
         11    1    5    5    0    0  0.37760416763E+03  0.15206514100E+03  0.38897702254E+03  0.56303804364E+03  0.00000000000E+00 0.  1.
        -11    1    5    5    0    0  0.44979254573E+02  0.21502465350E+02  0.92494396586E+01  0.50705438486E+02  0.00000000000E+00 0. -1.
          3    1    6    6  503    0  0.32621427370E+02 -0.39575639072E+02  0.13322144786E+02  0.52989322258E+02  0.00000000000E+00 0. -1.
         -3    1    6    6    0  503  0.94394475113E+02 -0.50165794470E+03 -0.11008270587E+02  0.51058025073E+03  0.00000000000E+00 0.  1.
<mgrwt>
<rscale>  0 0.19303486E+04</rscale>
<asrwt>0</asrwt>
<pdfrwt beam="1">  1        2 0.14453484E+00 0.19303486E+04</pdfrwt>
<pdfrwt beam="2">  1       -1 0.15255000E+00 0.19303486E+04</pdfrwt>
<totfact> 0.98028279E+00</totfact>
</mgrwt>
</event>
<event>
12    6  0.9491186E-008  0.1905615E+04  0.7818608E-02  0.8652067E-01
         -1   -1    0    0    0  501 -0.00000000000E+00  0.00000000000E+00  0.57040667491E+03  0.57040667491E+03  0.00000000000E+00 0.  1.
          2   -1    0    0  501    0  0.00000000000E+00 -0.00000000000E+00 -0.15915696461E+04  0.15915696461E+04  0.00000000000E+00 0. -1.
         24    2    1    2    0    0 -0.50235074899E+03 -0.50192295844E+03 -0.16911906785E+03  0.73459751412E+03  0.82154229486E+02 0.  0.
        254    2    1    2    0    0  0.50235074899E+03  0.50192295844E+03 -0.85204390332E+03  0.14273788069E+04  0.89841444440E+03 0.  0.
         23    2    4    4    0    0  0.42402617445E+02 -0.20183854047E+03  0.14710593453E+01  0.22579994680E+03  0.91905786419E+02 0.  0.
         23    2    4    4    0    0  0.45994813155E+03  0.70376149891E+03 -0.85351496267E+03  0.12015788601E+04  0.92040395558E+02 0.  0.
          4    1    3    3  502    0 -0.15849654304E+03 -0.11784688779E+03 -0.70682503854E+02  0.20977382932E+03  0.00000000000E+00 0. -1.
         -3    1    3    3    0  502 -0.34385420596E+03 -0.38407607065E+03 -0.98436563998E+02  0.52482368480E+03  0.00000000000E+00 0.  1.
         11    1    5    5    0    0 -0.46208028935E+01  0.84324457806E+01  0.37558732570E+01  0.10323010469E+02  0.00000000000E+00 0. -1.
        -11    1    5    5    0    0  0.47023420338E+02 -0.21027098625E+03 -0.22848139117E+01  0.21547693633E+03  0.00000000000E+00 0.  1.
          2    1    6    6  503    0  0.66239092912E+02  0.94553123790E+02 -0.16578992415E+03  0.20202526970E+03  0.00000000000E+00 0. -1.
         -2    1    6    6    0  503  0.39370903863E+03  0.60920837512E+03 -0.68772503851E+03  0.99955359037E+03  0.00000000000E+00 0.  1.
<mgrwt>
<rscale>  0 0.19056148E+04</rscale>
<asrwt>0</asrwt>
<pdfrwt beam="1">  1        2 0.24485687E+00 0.19056148E+04</pdfrwt>
<pdfrwt beam="2">  1       -1 0.87754872E-01 0.19056148E+04</pdfrwt>
<totfact> 0.15353835E+01</totfact>
</mgrwt>
</event>
<event>
12    6  0.9491186E-008  0.3308837E+04  0.7818608E-02  0.8160650E-01
          2   -1    0    0  501    0  0.00000000000E+00  0.00000000000E+00  0.13842071298E+04  0.13842071298E+04  0.00000000000E+00 0. -1.
         -1   -1    0    0    0  501 -0.00000000000E+00 -0.00000000000E+00 -0.19773783769E+04  0.19773783769E+04  0.00000000000E+00 0.  1.
         24    2    1    2    0    0 -0.21376577394E+03  0.84765939520E+03 -0.15537866398E+04  0.17847610355E+04  0.83046825429E+02 0.  0.
        254    2    1    2    0    0  0.21376577394E+03 -0.84765939520E+03  0.96061539274E+03  0.15768244712E+04  0.89407562533E+03 0.  0.
         23    2    4    4    0    0 -0.29553855545E+03 -0.60140185989E+03  0.47714352975E+03  0.82754766067E+03  0.90232742693E+02 0.  0.
         23    2    4    4    0    0  0.50930432939E+03 -0.24625753531E+03  0.48347186299E+03  0.74927681053E+03  0.87390061549E+02 0.  0.
          2    1    3    3  502    0 -0.88810284349E+02  0.20620629863E+03 -0.38534048366E+03  0.44597712110E+03  0.00000000000E+00 0. -1.
         -1    1    3    3    0  502 -0.12495548959E+03  0.64145309657E+03 -0.11684461562E+04  0.13387839144E+04  0.00000000000E+00 0.  1.
         11    1    5    5    0    0 -0.77568874863E+02 -0.25624347434E+03  0.17931380521E+03  0.32222831848E+03  0.00000000000E+00 0.  1.
        -11    1    5    5    0    0 -0.21796968059E+03 -0.34515838555E+03  0.29782972454E+03  0.50531934219E+03  0.00000000000E+00 0. -1.
          3    1    6    6  503    0  0.46928030472E+02 -0.46463838463E+02  0.81167098108E+02  0.10463854999E+03  0.00000000000E+00 0. -1.
         -3    1    6    6    0  503  0.46237629892E+03 -0.19979369685E+03  0.40230476488E+03  0.64463826054E+03  0.00000000000E+00 0.  1.
<mgrwt>
<rscale>  0 0.33088374E+04</rscale>
<asrwt>0</asrwt>
<pdfrwt beam="1">  1        2 0.21295495E+00 0.33088374E+04</pdfrwt>
<pdfrwt beam="2">  1       -1 0.30421205E+00 0.33088374E+04</pdfrwt>
<totfact> 0.43541854E-01</totfact>
</mgrwt>
</event>
<event>
12    6  0.9491186E-008  0.1501627E+04  0.7818608E-02  0.8883372E-01
          2   -1    0    0  501    0  0.00000000000E+00  0.00000000000E+00  0.18808433008E+04  0.18808433008E+04  0.00000000000E+00 0. -1.
         -1   -1    0    0    0  501 -0.00000000000E+00 -0.00000000000E+00 -0.29971702243E+03  0.29971702243E+03  0.00000000000E+00 0.  1.
         24    2    1    2    0    0  0.43325237609E+03 -0.18411324547E+03  0.69771706622E+03  0.84541913029E+03  0.79492721720E+02 0.  0.
        254    2    1    2    0    0 -0.43325237609E+03  0.18411324547E+03  0.88340921216E+03  0.13351411930E+04  0.88350713663E+03 0.  0.
         23    2    4    4    0    0 -0.15943935056E+02  0.19331185611E+02 -0.16492000467E+03  0.19137740582E+03  0.93801917447E+02 0.  0.
         23    2    4    4    0    0 -0.41730844103E+03  0.16478205986E+03  0.10483292168E+04  0.11437637871E+04  0.88893147826E+02 0.  0.
          2    1    3    3  502    0  0.26124000903E+03 -0.92949171173E+02  0.47128371728E+03  0.54680365115E+03  0.00000000000E+00 0. -1.
         -1    1    3    3    0  502  0.17201236706E+03 -0.91164074298E+02  0.22643334895E+03  0.29861547913E+03  0.00000000000E+00 0.  1.
         11    1    5    5    0    0 -0.14742671035E+02 -0.12404657830E+02  0.38476862439E+01  0.19647558998E+02  0.00000000000E+00 0.  1.
        -11    1    5    5    0    0 -0.12012640213E+01  0.31735843441E+02 -0.16876769091E+03  0.17172984682E+03  0.00000000000E+00 0. -1.
          4    1    6    6  503    0 -0.18570042882E+03  0.95173920664E+02  0.58523796228E+03  0.62132615986E+03  0.00000000000E+00 0. -1.
         -4    1    6    6    0  503 -0.23160801222E+03  0.69608139196E+02  0.46309125455E+03  0.52243762729E+03  0.00000000000E+00 0.  1.
<mgrwt>
<rscale>  0 0.15016268E+04</rscale>
<asrwt>0</asrwt>
<pdfrwt beam="1">  1        2 0.28936050E+00 0.15016268E+04</pdfrwt>
<pdfrwt beam="2">  1       -1 0.46110312E-01 0.15016268E+04</pdfrwt>
<totfact> 0.40072425E+01</totfact>
</mgrwt>
</event>
<event>
12    6  0.9491186E-008  0.1594774E+04  0.7818608E-02  0.8823765E-01
          2   -1    0    0  501    0  0.00000000000E+00  0.00000000000E+00  0.15206735782E+04  0.15206735782E+04  0.00000000000E+00 0. -1.
         -1   -1    0    0    0  501 -0.00000000000E+00 -0.00000000000E+00 -0.41812135975E+03  0.41812135975E+03  0.00000000000E+00 0.  1.
         24    2    1    2    0    0 -0.49536725546E+02 -0.47328377043E+03  0.61230672609E+02  0.48649577679E+03  0.80483110283E+02 0.  0.
        254    2    1    2    0    0  0.49536725546E+02  0.47328377043E+03  0.10413215458E+04  0.14522991611E+04  0.89351601952E+03 0.  0.
         23    2    4    4    0    0 -0.24120404201E+03  0.61241319587E+03  0.79628430590E+03  0.10369403527E+04  0.89147556826E+02 0.  0.
         23    2    4    4    0    0  0.29074076756E+03 -0.13912942544E+03  0.24503723993E+03  0.41535880844E+03  0.92695738060E+02 0.  0.
          4    1    3    3  502    0 -0.29463472537E+02 -0.21340633344E+03 -0.11962746168E+02  0.21576252377E+03  0.00000000000E+00 0. -1.
         -3    1    3    3    0  502 -0.20073253009E+02 -0.25987743698E+03  0.73193418778E+02  0.27073325302E+03  0.00000000000E+00 0.  1.
         11    1    5    5    0    0 -0.19240731722E+02  0.11465653053E+03  0.17954822459E+03  0.21390159117E+03  0.00000000000E+00 0. -1.
        -11    1    5    5    0    0 -0.22196331029E+03  0.49775666534E+03  0.61673608131E+03  0.82303876154E+03  0.00000000000E+00 0.  1.
          1    1    6    6  503    0  0.42236397139E+02 -0.28511463202E+02  0.26617868144E+01  0.51028441934E+02  0.00000000000E+00 0. -1.
         -1    1    6    6    0  503  0.24850437042E+03 -0.11061796224E+03  0.24237545311E+03  0.36433036651E+03  0.00000000000E+00 0.  1.
<mgrwt>
<rscale>  0 0.15947741E+04</rscale>
<asrwt>0</asrwt>
<pdfrwt beam="1">  1        2 0.23394978E+00 0.15947741E+04</pdfrwt>
<pdfrwt beam="2">  1       -1 0.64326364E-01 0.15947741E+04</pdfrwt>
<totfact> 0.33101824E+01</totfact>
</mgrwt>
</event>
<event>
12    6  0.9491186E-008  0.1243603E+04  0.7818608E-02  0.9075524E-01
          2   -1    0    0  501    0  0.00000000000E+00  0.00000000000E+00  0.18560963400E+04  0.18560963400E+04  0.00000000000E+00 0. -1.
         -1   -1    0    0    0  501 -0.00000000000E+00 -0.00000000000E+00 -0.20830653037E+03  0.20830653037E+03  0.00000000000E+00 0.  1.
         24    2    1    2    0    0 -0.12766466947E+01  0.14305456472E+03 -0.17135492945E+02  0.16508761346E+03  0.80585710192E+02 0.  0.
        254    2    1    2    0    0  0.12766466947E+01 -0.14305456472E+03  0.16649253026E+04  0.18993152569E+04  0.90274910336E+03 0.  0.
         23    2    4    4    0    0 -0.25289147197E+03 -0.69988493328E+02  0.15826025263E+04  0.16072498992E+04  0.98838232216E+02 0.  0.
         23    2    4    4    0    0  0.25416811866E+03 -0.73066071389E+02  0.82322776213E+02  0.29206535773E+03  0.92655546891E+02 0.  0.
          4    1    3    3  502    0  0.77474853393E+01  0.23398969801E+02  0.27618725073E+02  0.37017959040E+02  0.00000000000E+00 0. -1.
         -3    1    3    3    0  502 -0.90241320340E+01  0.11965559492E+03 -0.44754218018E+02  0.12806965442E+03  0.00000000000E+00 0.  1.
         11    1    5    5    0    0  0.31233585633E+00  0.11796583994E+02  0.34902444417E+02  0.36843419683E+02  0.00000000000E+00 0. -1.
        -11    1    5    5    0    0 -0.25320380782E+03 -0.81785077322E+02  0.15477000819E+04  0.15704064795E+04  0.00000000000E+00 0.  1.
          2    1    6    6  503    0  0.94538264934E+02 -0.20552727843E+02  0.77483645382E+02  0.12395004421E+03  0.00000000000E+00 0. -1.
         -2    1    6    6    0  503  0.15962985373E+03 -0.52513343546E+02  0.48391308304E+01  0.16811531352E+03  0.00000000000E+00 0.  1.
<mgrwt>
<rscale>  0 0.12436028E+04</rscale>
<asrwt>0</asrwt>
<pdfrwt beam="1">  1        2 0.28555327E+00 0.12436028E+04</pdfrwt>
<pdfrwt beam="2">  1       -1 0.32047160E-01 0.12436028E+04</pdfrwt>
<totfact> 0.81787683E+01</totfact>
</mgrwt>
</event>
<event>
12    6  0.9491186E-008  0.1480165E+04  0.7818608E-02  0.8897751E-01
          2   -1    0    0  501    0  0.00000000000E+00  0.00000000000E+00  0.21749681581E+04  0.21749681581E+04  0.00000000000E+00 0. -1.
         -1   -1    0    0    0  501 -0.00000000000E+00 -0.00000000000E+00 -0.25183008320E+03  0.25183008320E+03  0.00000000000E+00 0.  1.
         24    2    1    2    0    0 -0.16474866339E+03 -0.27955806594E+03  0.70199983652E+02  0.34173066621E+03  0.80975157920E+02 0.  0.
        254    2    1    2    0    0  0.16474866339E+03  0.27955806594E+03  0.18529380912E+04  0.20850675751E+04  0.89935109293E+03 0.  0.
         23    2    4    4    0    0  0.10793919609E+03 -0.30712265459E+03  0.47016561270E+03  0.57912984444E+03  0.91435651374E+02 0.  0.
         23    2    4    4    0    0  0.56809467302E+02  0.58668072053E+03  0.13827724785E+04  0.15059377306E+04  0.91472059941E+02 0.  0.
          2    1    3    3  502    0  0.53457548927E+01 -0.20133053735E+01 -0.50519646328E+01  0.76258009777E+01  0.00000000000E+00 0. -1.
         -1    1    3    3    0  502 -0.17009441828E+03 -0.27754476057E+03  0.75251948284E+02  0.33410486523E+03  0.00000000000E+00 0.  1.
         11    1    5    5    0    0  0.10377582526E+03 -0.31015448826E+03  0.43843016119E+03  0.54697919040E+03  0.00000000000E+00 0.  1.
        -11    1    5    5    0    0  0.41633708306E+01  0.30318336763E+01  0.31735451512E+02  0.32150654034E+02  0.00000000000E+00 0. -1.
          3    1    6    6  503    0  0.62355223029E+02  0.19907751386E+03  0.46431848442E+03  0.50903014188E+03  0.00000000000E+00 0. -1.
         -3    1    6    6    0  503 -0.55457557269E+01  0.38760320666E+03  0.91845399412E+03  0.99690758876E+03  0.00000000000E+00 0.  1.
<mgrwt>
<rscale>  0 0.14801654E+04</rscale>
<asrwt>0</asrwt>
<pdfrwt beam="1">  1        2 0.33461047E+00 0.14801654E+04</pdfrwt>
<pdfrwt beam="2">  1       -1 0.38743091E-01 0.14801654E+04</pdfrwt>
<totfact> 0.37998720E+01</totfact>
</mgrwt>
</event>
<event>
12    6  0.9491186E-008  0.2029062E+04  0.7818608E-02  0.8593152E-01
         -1   -1    0    0    0  501 -0.00000000000E+00  0.00000000000E+00  0.62334895384E+03  0.62334895384E+03  0.00000000000E+00 0.  1.
          2   -1    0    0  501    0  0.00000000000E+00 -0.00000000000E+00 -0.16511997611E+04  0.16511997611E+04  0.00000000000E+00 0. -1.
         24    2    1    2    0    0 -0.40228494956E+03 -0.52735545151E+03 -0.97561293301E+03  0.11823641038E+04  0.78913407636E+02 0.  0.
        254    2    1    2    0    0  0.40228494956E+03  0.52735545151E+03 -0.52237874204E+02  0.10921846111E+04  0.86614171843E+03 0.  0.
         23    2    4    4    0    0 -0.22373167454E+03  0.17684719956E+03 -0.19152197342E+03  0.35562424567E+03  0.91962729529E+02 0.  0.
         23    2    4    4    0    0  0.62601662411E+03  0.35050825196E+03  0.13928409922E+03  0.73656036546E+03  0.91478212280E+02 0.  0.
          2    1    3    3  502    0 -0.23902133157E+03 -0.36517453374E+03 -0.60196946389E+03  0.74353942229E+03  0.00000000000E+00 0. -1.
         -1    1    3    3    0  502 -0.16326361799E+03 -0.16218091778E+03 -0.37364346912E+03  0.43882468147E+03  0.00000000000E+00 0.  1.
         11    1    5    5    0    0 -0.10456244269E+03  0.81628877028E+02 -0.14415512462E+03  0.19590119433E+03  0.00000000000E+00 0.  1.
        -11    1    5    5    0    0 -0.11916923185E+03  0.95218322529E+02 -0.47366848809E+02  0.15972305135E+03  0.00000000000E+00 0. -1.
          4    1    6    6  503    0  0.40726580309E+03  0.19563027273E+03  0.52615951572E+02  0.45486819666E+03  0.00000000000E+00 0. -1.
         -4    1    6    6    0  503  0.21875082102E+03  0.15487797923E+03  0.86668147648E+02  0.28169216880E+03  0.00000000000E+00 0.  1.
<mgrwt>
<rscale>  0 0.20290625E+04</rscale>
<asrwt>0</asrwt>
<pdfrwt beam="1">  1        2 0.25403074E+00 0.20290625E+04</pdfrwt>
<pdfrwt beam="2">  1       -1 0.95899838E-01 0.20290625E+04</pdfrwt>
<totfact> 0.11554328E+01</totfact>
</mgrwt>
</event>
<event>
12    6  0.9491186E-008  0.1340874E+04  0.7818608E-02  0.8997765E-01
          2   -1    0    0  501    0  0.00000000000E+00  0.00000000000E+00  0.15709053560E+04  0.15709053560E+04  0.00000000000E+00 0. -1.
         -1   -1    0    0    0  501 -0.00000000000E+00 -0.00000000000E+00 -0.28613153200E+03  0.28613153200E+03  0.00000000000E+00 0.  1.
         24    2    1    2    0    0 -0.19897148264E+03 -0.32190176624E+02 -0.60080966448E+02  0.22510073554E+03  0.80216957300E+02 0.  0.
        254    2    1    2    0    0  0.19897148264E+03  0.32190176624E+02  0.13448547905E+04  0.16319361525E+04  0.90219473506E+03 0.  0.
         23    2    4    4    0    0  0.16336862274E+03  0.45383777500E+03  0.70859121641E+03  0.86245021566E+03  0.95188390074E+02 0.  0.
         23    2    4    4    0    0  0.35602859900E+02 -0.42164759837E+03  0.63626357407E+03  0.76948593684E+03  0.90680816372E+02 0.  0.
          4    1    3    3  502    0 -0.16663940652E+02 -0.15548251781E+02 -0.32907797458E+02  0.40029466459E+02  0.00000000000E+00 0. -1.
         -3    1    3    3    0  502 -0.18230754198E+03 -0.16641924843E+02 -0.27173168990E+02  0.18507126908E+03  0.00000000000E+00 0.  1.
         11    1    5    5    0    0  0.54753996253E+02  0.28753514925E+03  0.43725333697E+03  0.52617957281E+03  0.00000000000E+00 0. -1.
        -11    1    5    5    0    0  0.10861462648E+03  0.16630262575E+03  0.27133787945E+03  0.33627064284E+03  0.00000000000E+00 0.  1.
          1    1    6    6  503    0 -0.11694133677E+02 -0.30575950047E+03  0.42049115396E+03  0.52003695585E+03  0.00000000000E+00 0. -1.
         -1    1    6    6    0  503  0.47296993576E+02 -0.11588809791E+03  0.21577242011E+03  0.24944898099E+03  0.00000000000E+00 0.  1.
<mgrwt>
<rscale>  0 0.13408737E+04</rscale>
<asrwt>0</asrwt>
<pdfrwt beam="1">  1        2 0.24167774E+00 0.13408737E+04</pdfrwt>
<pdfrwt beam="2">  1       -1 0.44020237E-01 0.13408737E+04</pdfrwt>
<totfact> 0.65786252E+01</totfact>
</mgrwt>
</event>
<event>
12    6  0.9491186E-008  0.1694943E+04  0.7818608E-02  0.8764254E-01
          2   -1    0    0  501    0  0.00000000000E+00  0.00000000000E+00  0.61257316234E+03  0.61257316234E+03  0.00000000000E+00 0. -1.
         -1   -1    0    0    0  501 -0.00000000000E+00 -0.00000000000E+00 -0.11724449534E+04  0.11724449534E+04  0.00000000000E+00 0.  1.
         24    2    1    2    0    0 -0.67166770192E+02  0.51427391540E+03  0.13480187555E+03  0.54166202238E+03  0.78975728931E+02 0.  0.
        254    2    1    2    0    0  0.67166770192E+02 -0.51427391540E+03 -0.69467366664E+03  0.12433560934E+04  0.89127652095E+03 0.  0.
         23    2    4    4    0    0  0.80473036884E+02  0.20217950712E+03  0.66256280420E+01  0.23605270599E+03  0.91238798184E+02 0.  0.
         23    2    4    4    0    0 -0.13306266692E+02 -0.71645342252E+03 -0.70129929468E+03  0.10073033874E+04  0.96730812991E+02 0.  0.
          2    1    3    3  502    0  0.54080970017E+01  0.24938702848E+03  0.76267849279E+02  0.26084463253E+03  0.00000000000E+00 0. -1.
         -1    1    3    3    0  502 -0.72574867194E+02  0.26488688692E+03  0.58534026267E+02  0.28081738985E+03  0.00000000000E+00 0.  1.
         11    1    5    5    0    0  0.52060800095E+02  0.12368029662E+03 -0.40523038984E+02  0.14017581592E+03  0.00000000000E+00 0.  1.
        -11    1    5    5    0    0  0.28412236789E+02  0.78499210498E+02  0.47148667026E+02  0.95876890076E+02  0.00000000000E+00 0. -1.
          1    1    6    6  503    0 -0.33929645662E+02 -0.16867810002E+03 -0.20717613502E+03  0.26930553876E+03  0.00000000000E+00 0. -1.
         -1    1    6    6    0  503  0.20623378970E+02 -0.54777532250E+03 -0.49412315966E+03  0.73799784865E+03  0.00000000000E+00 0.  1.
<mgrwt>
<rscale>  0 0.16949434E+04</rscale>
<asrwt>0</asrwt>
<pdfrwt beam="1">  1        2 0.94242025E-01 0.16949434E+04</pdfrwt>
<pdfrwt beam="2">  1       -1 0.18037615E+00 0.16949434E+04</pdfrwt>
<totfact> 0.10875452E+01</totfact>
</mgrwt>
</event>
<event>
12    6  0.9491186E-008  0.4258354E+04  0.7818608E-02  0.7954364E-01
          2   -1    0    0  501    0  0.00000000000E+00  0.00000000000E+00  0.25945490535E+04  0.25945490535E+04  0.00000000000E+00 0. -1.
         -3   -1    0    0    0  501 -0.00000000000E+00 -0.00000000000E+00 -0.17472766677E+04  0.17472766677E+04  0.00000000000E+00 0.  1.
         24    2    1    2    0    0 -0.13268222827E+04 -0.77677519115E+03 -0.94864715734E+03  0.18082519503E+04  0.77502381532E+02 0.  0.
        254    2    1    2    0    0  0.13268222827E+04  0.77677519115E+03  0.17959195431E+04  0.25335737710E+04  0.91095114041E+03 0.  0.
         23    2    4    4    0    0  0.17119637215E+03  0.47156096299E+03  0.90880253400E+03  0.10422352323E+04  0.93028458428E+02 0.  0.
         23    2    4    4    0    0  0.11556259105E+04  0.30521422816E+03  0.88711700912E+03  0.14913385386E+04  0.92125342890E+02 0.  0.
          2    1    3    3  502    0 -0.11055948889E+04 -0.64841050137E+03 -0.82394753486E+03  0.15237013411E+04  0.00000000000E+00 0. -1.
         -1    1    3    3    0  502 -0.22122739371E+03 -0.12836468978E+03 -0.12469962248E+03  0.28455060913E+03  0.00000000000E+00 0.  1.
         11    1    5    5    0    0  0.72249696877E+02  0.30784249709E+03  0.61719450955E+03  0.69348113481E+03  0.00000000000E+00 0.  1.
        -11    1    5    5    0    0  0.98946675273E+02  0.16371846591E+03  0.29160802444E+03  0.34875409753E+03  0.00000000000E+00 0. -1.
          3    1    6    6  503    0  0.34536857537E+03  0.50056510445E+02  0.27446444256E+03  0.44397729370E+03  0.00000000000E+00 0. -1.
         -3    1    6    6    0  503  0.81025733513E+03  0.25515771772E+03  0.61265256656E+03  0.10473612449E+04  0.00000000000E+00 0.  1.
<mgrwt>
<rscale>  0 0.42583542E+04</rscale>
<asrwt>0</asrwt>
<pdfrwt beam="1">  1        2 0.39916139E+00 0.42583542E+04</pdfrwt>
<pdfrwt beam="2">  1       -3 0.26881180E+00 0.42583542E+04</pdfrwt>
<totfact> 0.85152291E-02</totfact>
</mgrwt>
</event>
<event>
12    6  0.9491186E-008  0.2656964E+04  0.7818608E-02  0.8349105E-01
          2   -1    0    0  501    0  0.00000000000E+00  0.00000000000E+00  0.21364583985E+04  0.21364583985E+04  0.00000000000E+00 0. -1.
         -1   -1    0    0    0  501 -0.00000000000E+00 -0.00000000000E+00 -0.82607032545E+03  0.82607032545E+03  0.00000000000E+00 0.  1.
         24    2    1    2    0    0  0.95823599057E+03 -0.23073001186E+03  0.12988600367E+04  0.16327477839E+04  0.85880026407E+02 0.  0.
        254    2    1    2    0    0 -0.95823599057E+03  0.23073001186E+03  0.11528036406E+02  0.13297809401E+04  0.89259839851E+03 0.  0.
         23    2    4    4    0    0 -0.29370905796E+03  0.97367340512E+02 -0.41365920434E+03  0.52448003836E+03  0.90664014780E+02 0.  0.
         23    2    4    4    0    0 -0.66452693262E+03  0.13336267134E+03  0.42518724074E+03  0.80530090174E+03  0.91343890750E+02 0.  0.
          4    1    3    3  502    0  0.87762957630E+03 -0.23298381388E+03  0.12088921507E+04  0.15119310046E+04  0.00000000000E+00 0. -1.
         -3    1    3    3    0  502  0.80606414275E+02  0.22538020265E+01  0.89967885985E+02  0.12081677928E+03  0.00000000000E+00 0.  1.
         11    1    5    5    0    0 -0.29129683761E+03  0.77792924656E+02 -0.37587787626E+03  0.48186073153E+03  0.00000000000E+00 0. -1.
        -11    1    5    5    0    0 -0.24122203484E+01  0.19574415856E+02 -0.37781328081E+02  0.42619306830E+02  0.00000000000E+00 0.  1.
          1    1    6    6  503    0 -0.62159078849E+03  0.12903324053E+03  0.42141781886E+03  0.76198271867E+03  0.00000000000E+00 0. -1.
         -1    1    6    6    0  503 -0.42936144122E+02  0.43294308130E+01  0.37694218836E+01  0.43318183071E+02  0.00000000000E+00 0.  1.
<mgrwt>
<rscale>  0 0.26569643E+04</rscale>
<asrwt>0</asrwt>
<pdfrwt beam="1">  1        2 0.32868591E+00 0.26569643E+04</pdfrwt>
<pdfrwt beam="2">  1       -1 0.12708774E+00 0.26569643E+04</pdfrwt>
<totfact> 0.30141669E+00</totfact>
</mgrwt>
</event>
<event>
12    6  0.9491186E-008  0.1716493E+04  0.7818608E-02  0.8752013E-01
         -1   -1    0    0    0  501 -0.00000000000E+00  0.00000000000E+00  0.80524460938E+03  0.80524460938E+03  0.00000000000E+00 0.  1.
          2   -1    0    0  501    0  0.00000000000E+00 -0.00000000000E+00 -0.91473715566E+03  0.91473715566E+03  0.00000000000E+00 0. -1.
         24    2    1    2    0    0  0.13001199446E+03 -0.46214220691E+03  0.35078789526E+03  0.59962145113E+03  0.77557714489E+02 0.  0.
        254    2    1    2    0    0 -0.13001199446E+03  0.46214220691E+03 -0.46028044154E+03  0.11203603139E+04  0.90159337288E+03 0.  0.
         23    2    4    4    0    0  0.75285337471E+02  0.31790215841E+03  0.21066906962E+03  0.39835260300E+03  0.87026863987E+02 0.  0.
         23    2    4    4    0    0 -0.20529733193E+03  0.14424004850E+03 -0.67094951116E+03  0.72200771092E+03  0.90386403938E+02 0.  0.
          4    1    3    3  502    0  0.64995791718E+01  0.11554165355E+01  0.27903205647E+01  0.71669662783E+01  0.00000000000E+00 0. -1.
         -3    1    3    3    0  502  0.12351241528E+03 -0.46329762345E+03  0.34799757470E+03  0.59245448485E+03  0.00000000000E+00 0.  1.
         11    1    5    5    0    0  0.61633708095E+02  0.12921007822E+03  0.12746050550E+03  0.19167717326E+03  0.00000000000E+00 0.  1.
        -11    1    5    5    0    0  0.13651629376E+02  0.18869208020E+03  0.83208564123E+02  0.20667542974E+03  0.00000000000E+00 0. -1.
          4    1    6    6  503    0 -0.52155887174E+01 -0.40946414571E+01 -0.85789176143E+02  0.86045053301E+02  0.00000000000E+00 0. -1.
         -4    1    6    6    0  503 -0.20008174321E+03  0.14833468995E+03 -0.58516033502E+03  0.63596265762E+03  0.00000000000E+00 0.  1.
<mgrwt>
<rscale>  0 0.17164931E+04</rscale>
<asrwt>0</asrwt>
<pdfrwt beam="1">  1        2 0.14072879E+00 0.17164931E+04</pdfrwt>
<pdfrwt beam="2">  1       -1 0.12388379E+00 0.17164931E+04</pdfrwt>
<totfact> 0.17788299E+01</totfact>
</mgrwt>
</event>
<event>
12    6  0.9491186E-008  0.1869210E+04  0.7818608E-02  0.8670336E-01
         -1   -1    0    0    0  501 -0.00000000000E+00  0.00000000000E+00  0.13021588799E+04  0.13021588799E+04  0.00000000000E+00 0.  1.
          2   -1    0    0  501    0  0.00000000000E+00 -0.00000000000E+00 -0.67079858675E+03  0.67079858675E+03  0.00000000000E+00 0. -1.
         24    2    1    2    0    0  0.20274988922E+03  0.55332940801E+03 -0.20194444222E+03  0.62792706448E+03  0.78929647234E+02 0.  0.
        254    2    1    2    0    0 -0.20274988922E+03 -0.55332940801E+03  0.83330473540E+03  0.13450304022E+04  0.87603027885E+03 0.  0.
         23    2    4    4    0    0 -0.43303580579E+03 -0.18755150944E+03  0.75495797926E+03  0.89494085638E+03  0.90895589466E+02 0.  0.
         23    2    4    4    0    0  0.23028591657E+03 -0.36577789857E+03  0.78346756145E+02  0.45008954582E+03  0.98067887749E+02 0.  0.
          2    1    3    3  502    0  0.11271182987E+03  0.33776039011E+03 -0.82312200192E+02  0.36546044385E+03  0.00000000000E+00 0. -1.
         -3    1    3    3    0  502  0.90038059354E+02  0.21556901790E+03 -0.11963224203E+03  0.26246662063E+03  0.00000000000E+00 0.  1.
         11    1    5    5    0    0 -0.17244776608E+03 -0.11909816788E+03  0.29471409951E+03  0.36163380106E+03  0.00000000000E+00 0. -1.
        -11    1    5    5    0    0 -0.26058803972E+03 -0.68453341561E+02  0.46024387975E+03  0.53330705532E+03  0.00000000000E+00 0.  1.
          2    1    6    6  503    0  0.16309598076E+03 -0.17616214279E+03  0.21427427085E+02  0.24102392853E+03  0.00000000000E+00 0. -1.
         -2    1    6    6    0  503  0.67189935817E+02 -0.18961575578E+03  0.56919329060E+02  0.20906561730E+03  0.00000000000E+00 0.  1.
<mgrwt>
<rscale>  0 0.18692098E+04</rscale>
<asrwt>0</asrwt>
<pdfrwt beam="1">  1        2 0.10319978E+00 0.18692098E+04</pdfrwt>
<pdfrwt beam="2">  1       -1 0.20033213E+00 0.18692098E+04</pdfrwt>
<totfact> 0.69378186E+00</totfact>
</mgrwt>
</event>
<event>
12    6  0.9491186E-008  0.1641249E+04  0.7818608E-02  0.8795601E-01
         -1   -1    0    0    0  501 -0.00000000000E+00  0.00000000000E+00  0.45189337817E+03  0.45189337817E+03  0.00000000000E+00 0.  1.
          2   -1    0    0  501    0  0.00000000000E+00 -0.00000000000E+00 -0.14902282446E+04  0.14902282446E+04  0.00000000000E+00 0. -1.
         24    2    1    2    0    0 -0.29387118267E+03  0.38631980729E+03 -0.10587140752E+02  0.49204929549E+03  0.79982223847E+02 0.  0.
        254    2    1    2    0    0  0.29387118267E+03 -0.38631980729E+03 -0.10277477257E+04  0.14500723273E+04  0.90046715721E+03 0.  0.
         23    2    4    4    0    0 -0.15873937086E+01 -0.41656882701E+03 -0.56011826331E+02  0.42988699217E+03  0.90185330797E+02 0.  0.
         23    2    4    4    0    0  0.29545857638E+03  0.30249019718E+02 -0.97173589936E+03  0.10201853351E+04  0.91086147954E+02 0.  0.
          2    1    3    3  502    0 -0.15038330199E+02  0.20368242591E+00 -0.46493448229E+01  0.15741958867E+02  0.00000000000E+00 0. -1.
         -1    1    3    3    0  502 -0.27883285247E+03  0.38611612487E+03 -0.59377959292E+01  0.47630733662E+03  0.00000000000E+00 0.  1.
         11    1    5    5    0    0 -0.17246814395E+02 -0.38493056320E+03 -0.70526507185E+02  0.39171798441E+03  0.00000000000E+00 0. -1.
        -11    1    5    5    0    0  0.15659420687E+02 -0.31638263810E+02  0.14514680854E+02  0.38169007761E+02  0.00000000000E+00 0.  1.
          1    1    6    6  503    0  0.27238158110E+03  0.43696099160E+02 -0.93445698392E+03  0.97432588470E+03  0.00000000000E+00 0. -1.
         -1    1    6    6    0  503  0.23076995285E+02 -0.13447079442E+02 -0.37278915447E+02  0.45859450431E+02  0.00000000000E+00 0.  1.
<mgrwt>
<rscale>  0 0.16412486E+04</rscale>
<asrwt>0</asrwt>
<pdfrwt beam="1">  1        2 0.22926588E+00 0.16412486E+04</pdfrwt>
<pdfrwt beam="2">  1       -1 0.69522059E-01 0.16412486E+04</pdfrwt>
<totfact> 0.29303230E+01</totfact>
</mgrwt>
</event>
<event>
12    6  0.9491186E-008  0.1651458E+04  0.7818608E-02  0.8789545E-01
         -1   -1    0    0    0  501 -0.00000000000E+00  0.00000000000E+00  0.18811488654E+03  0.18811488654E+03  0.00000000000E+00 0.  1.
          2   -1    0    0  501    0  0.00000000000E+00 -0.00000000000E+00 -0.36245301399E+04  0.36245301399E+04  0.00000000000E+00 0. -1.
         24    2    1    2    0    0 -0.28141628840E+03 -0.44036035895E+03 -0.80695835951E+03  0.96484879849E+03  0.81480285080E+02 0.  0.
        254    2    1    2    0    0  0.28141628840E+03  0.44036035895E+03 -0.26294568939E+04  0.28477962280E+04  0.96061825209E+03 0.  0.
         23    2    4    4    0    0  0.12109825788E+03  0.72106208010E+03 -0.20456014527E+04  0.21741740976E+04  0.89176184398E+02 0.  0.
         23    2    4    4    0    0  0.16031803053E+03 -0.28070172115E+03 -0.58385544121E+03  0.67362213044E+03  0.91565666157E+02 0.  0.
          4    1    3    3  502    0 -0.11310217866E+03 -0.22330109752E+03 -0.44369548033E+03  0.50943219592E+03  0.00000000000E+00 0. -1.
         -3    1    3    3    0  502 -0.16831410975E+03 -0.21705926143E+03 -0.36326287918E+03  0.45541660257E+03  0.00000000000E+00 0.  1.
         11    1    5    5    0    0  0.25181025461E+02  0.12626899965E+03 -0.26966404130E+03  0.29882543313E+03  0.00000000000E+00 0. -1.
        -11    1    5    5    0    0  0.95917232415E+02  0.59479308045E+03 -0.17759374114E+04  0.18753486644E+04  0.00000000000E+00 0.  1.
          3    1    6    6  503    0  0.19793700110E+02 -0.10827501425E+02 -0.96350611067E+02  0.98956887603E+02  0.00000000000E+00 0. -1.
         -3    1    6    6    0  503  0.14052433042E+03 -0.26987421972E+03 -0.48750483014E+03  0.57466524283E+03  0.00000000000E+00 0.  1.
<mgrwt>
<rscale>  0 0.16514576E+04</rscale>
<asrwt>0</asrwt>
<pdfrwt beam="1">  1        2 0.55761994E+00 0.16514576E+04</pdfrwt>
<pdfrwt beam="2">  1       -1 0.28940756E-01 0.16514576E+04</pdfrwt>
<totfact> 0.79330121E+00</totfact>
</mgrwt>
</event>
<event>
12    6  0.9491186E-008  0.1322480E+04  0.7818608E-02  0.9011926E-01
          2   -1    0    0  501    0  0.00000000000E+00  0.00000000000E+00  0.82706841821E+03  0.82706841821E+03  0.00000000000E+00 0. -1.
         -1   -1    0    0    0  501 -0.00000000000E+00 -0.00000000000E+00 -0.52866043455E+03  0.52866043455E+03  0.00000000000E+00 0.  1.
         24    2    1    2    0    0 -0.10645635680E+03  0.28003612623E+03  0.29218828796E+03  0.42549374388E+03  0.76926865013E+02 0.  0.
        254    2    1    2    0    0  0.10645635680E+03 -0.28003612623E+03  0.62196956948E+01  0.93023510888E+03  0.88065060340E+03 0.  0.
         23    2    4    4    0    0  0.31700830892E+02 -0.55539166135E+03 -0.16066395688E+03  0.58611239190E+03  0.90829448571E+02 0.  0.
         23    2    4    4    0    0  0.74755525910E+02  0.27535553512E+03  0.16688365257E+03  0.34412271697E+03  0.95714322170E+02 0.  0.
          4    1    3    3  502    0 -0.89948103211E+02  0.24962447808E+03  0.28638124592E+03  0.39040653086E+03  0.00000000000E+00 0. -1.
         -3    1    3    3    0  502 -0.16508253592E+02  0.30411648154E+02  0.58070420455E+01  0.35087213019E+02  0.00000000000E+00 0.  1.
         11    1    5    5    0    0 -0.11535738722E+02 -0.16570545369E+03 -0.11100941867E+02  0.16647703013E+03  0.00000000000E+00 0.  1.
        -11    1    5    5    0    0  0.43236569614E+02 -0.38968620766E+03 -0.14956301501E+03  0.41963536177E+03  0.00000000000E+00 0. -1.
          2    1    6    6  503    0 -0.38121029274E+01 -0.37580549245E+01  0.16780354038E+02  0.17613500140E+02  0.00000000000E+00 0. -1.
         -2    1    6    6    0  503  0.78567628837E+02  0.27911359004E+03  0.15010329853E+03  0.32650921683E+03  0.00000000000E+00 0.  1.
<mgrwt>
<rscale>  0 0.13224800E+04</rscale>
<asrwt>0</asrwt>
<pdfrwt beam="1">  1        2 0.12724130E+00 0.13224800E+04</pdfrwt>
<pdfrwt beam="2">  1       -1 0.81332374E-01 0.13224800E+04</pdfrwt>
<totfact> 0.55437665E+01</totfact>
</mgrwt>
</event>
<event>
12    6  0.9491186E-008  0.1422940E+04  0.7818608E-02  0.8937379E-01
          2   -1    0    0  501    0  0.00000000000E+00  0.00000000000E+00  0.41043209480E+03  0.41043209480E+03  0.00000000000E+00 0. -1.
         -1   -1    0    0    0  501 -0.00000000000E+00 -0.00000000000E+00 -0.12333083911E+04  0.12333083911E+04  0.00000000000E+00 0.  1.
         24    2    1    2    0    0  0.19607564071E+03  0.37143966270E+03 -0.28627990498E+03  0.51506322415E+03  0.83191712182E+02 0.  0.
        254    2    1    2    0    0 -0.19607564071E+03 -0.37143966270E+03 -0.53659639129E+03  0.11286772617E+04  0.89975751958E+03 0.  0.
         23    2    4    4    0    0 -0.12553621788E+03 -0.60087140025E+03 -0.10934503915E+03  0.63013246700E+03  0.91130712371E+02 0.  0.
         23    2    4    4    0    0 -0.70539422829E+02  0.22943173755E+03 -0.42725135215E+03  0.49854479471E+03  0.91588547607E+02 0.  0.
          4    1    3    3  502    0  0.14586854958E+03  0.33700915903E+03 -0.24220353183E+03  0.43990380523E+03  0.00000000000E+00 0. -1.
         -3    1    3    3    0  502  0.50207091132E+02  0.34430503669E+02 -0.44076373143E+02  0.75159418919E+02  0.00000000000E+00 0.  1.
         11    1    5    5    0    0  0.70515532448E+00 -0.22161111937E+01 -0.10038551204E+02  0.10304411829E+02  0.00000000000E+00 0. -1.
        -11    1    5    5    0    0 -0.12624137320E+03 -0.59865528906E+03 -0.99306487941E+02  0.61982805517E+03  0.00000000000E+00 0.  1.
          1    1    6    6  503    0 -0.66595517277E+02  0.76913170993E+02 -0.20648394325E+03  0.23018735329E+03  0.00000000000E+00 0. -1.
         -1    1    6    6    0  503 -0.39439055522E+01  0.15251856656E+03 -0.22076740890E+03  0.26835744142E+03  0.00000000000E+00 0.  1.
<mgrwt>
<rscale>  0 0.14229397E+04</rscale>
<asrwt>0</asrwt>
<pdfrwt beam="1">  1        2 0.63143400E-01 0.14229397E+04</pdfrwt>
<pdfrwt beam="2">  1       -1 0.18973975E+00 0.14229397E+04</pdfrwt>
<totfact> 0.15234249E+01</totfact>
</mgrwt>
</event>
<event>
12    6  0.9491186E-008  0.1295103E+04  0.7818608E-02  0.9033458E-01
          2   -1    0    0  501    0  0.00000000000E+00  0.00000000000E+00  0.79115911632E+03  0.79115911632E+03  0.00000000000E+00 0. -1.
         -1   -1    0    0    0  501 -0.00000000000E+00 -0.00000000000E+00 -0.53001060495E+03  0.53001060495E+03  0.00000000000E+00 0.  1.
         24    2    1    2    0    0 -0.11490673569E+03  0.29068989520E+03 -0.35306564512E+02  0.32497268360E+03  0.81587489922E+02 0.  0.
        254    2    1    2    0    0  0.11490673569E+03 -0.29068989520E+03  0.29645507588E+03  0.99619703768E+03  0.89823090171E+03 0.  0.
         23    2    4    4    0    0 -0.76165955705E+02  0.29080224117E+03  0.80038795265E+01  0.31341051856E+03  0.88288701304E+02 0.  0.
         23    2    4    4    0    0  0.19107269140E+03 -0.58149213637E+03  0.28845119635E+03  0.68278651912E+03  0.91386322589E+02 0.  0.
          4    1    3    3  502    0 -0.89908467952E+02  0.26390613673E+03 -0.73679789572E+01  0.27889831252E+03  0.00000000000E+00 0. -1.
         -3    1    3    3    0  502 -0.24998267742E+02  0.26783758470E+02 -0.27938585554E+02  0.46074371082E+02  0.00000000000E+00 0.  1.
         11    1    5    5    0    0 -0.16847407580E+02  0.10672088639E+02  0.18041596789E+02  0.26892895582E+02  0.00000000000E+00 0. -1.
        -11    1    5    5    0    0 -0.59318548125E+02  0.28013015253E+03 -0.10037717262E+02  0.28651762298E+03  0.00000000000E+00 0.  1.
          4    1    6    6  503    0  0.82412575859E+02 -0.14960412581E+03  0.10915428307E+03  0.20270146677E+03  0.00000000000E+00 0. -1.
         -4    1    6    6    0  503  0.10866011554E+03 -0.43188801056E+03  0.17929691328E+03  0.48008505234E+03  0.00000000000E+00 0.  1.
<mgrwt>
<rscale>  0 0.12951027E+04</rscale>
<asrwt>0</asrwt>
<pdfrwt beam="1">  1        2 0.12171679E+00 0.12951027E+04</pdfrwt>
<pdfrwt beam="2">  1       -1 0.81540093E-01 0.12951027E+04</pdfrwt>
<totfact> 0.58633224E+01</totfact>
</mgrwt>
</event>
<event>
12    6  0.9491186E-008  0.1830131E+04  0.7818608E-02  0.8690438E-01
          2   -1    0    0  501    0  0.00000000000E+00  0.00000000000E+00  0.87799435205E+03  0.87799435205E+03  0.00000000000E+00 0. -1.
         -1   -1    0    0    0  501 -0.00000000000E+00 -0.00000000000E+00 -0.95370198194E+03  0.95370198194E+03  0.00000000000E+00 0.  1.
         24    2    1    2    0    0 -0.28664310617E+03 -0.14316562355E+03  0.58246959285E+03  0.66941068549E+03  0.78607717007E+02 0.  0.
        254    2    1    2    0    0  0.28664310617E+03  0.14316562355E+03 -0.65817722274E+03  0.11622856485E+04  0.90280119966E+03 0.  0.
         23    2    4    4    0    0  0.60506642493E+03  0.65140845329E+02 -0.45484162989E+03  0.76557052654E+03  0.94173321724E+02 0.  0.
         23    2    4    4    0    0 -0.31842331876E+03  0.78024778222E+02 -0.20333559285E+03  0.39671512196E+03  0.92499993138E+02 0.  0.
          2    1    3    3  502    0 -0.24668995276E+03 -0.14979454719E+03  0.49435377166E+03  0.57243339413E+03  0.00000000000E+00 0. -1.
         -1    1    3    3    0  502 -0.39953153413E+02  0.66289236348E+01  0.88115821190E+02  0.96977291363E+02  0.00000000000E+00 0.  1.
         11    1    5    5    0    0  0.43099182555E+03  0.46816035128E+02 -0.26863132130E+03  0.51000831525E+03  0.00000000000E+00 0. -1.
        -11    1    5    5    0    0  0.17407459938E+03  0.18324810201E+02 -0.18621030859E+03  0.25556221130E+03  0.00000000000E+00 0.  1.
          3    1    6    6  503    0 -0.28355819198E+03  0.96655785515E+02 -0.19107333689E+03  0.35532606038E+03  0.00000000000E+00 0. -1.
         -3    1    6    6    0  503 -0.34865126773E+02 -0.18631007293E+02 -0.12262255963E+02  0.41389061585E+02  0.00000000000E+00 0.  1.
<mgrwt>
<rscale>  0 0.18301311E+04</rscale>
<asrwt>0</asrwt>
<pdfrwt beam="1">  1        2 0.13507605E+00 0.18301311E+04</pdfrwt>
<pdfrwt beam="2">  1       -1 0.14672338E+00 0.18301311E+04</pdfrwt>
<totfact> 0.12078884E+01</totfact>
</mgrwt>
</event>
<event>
12    6  0.9491186E-008  0.2190800E+04  0.7818608E-02  0.8522267E-01
          2   -1    0    0  501    0  0.00000000000E+00  0.00000000000E+00  0.22502083085E+04  0.22502083085E+04  0.00000000000E+00 0. -1.
         -1   -1    0    0    0  501 -0.00000000000E+00 -0.00000000000E+00 -0.53324008110E+03  0.53324008110E+03  0.00000000000E+00 0.  1.
         24    2    1    2    0    0  0.22556662381E+03 -0.24504378120E+03 -0.35348907663E+03  0.49205233449E+03  0.78957052255E+02 0.  0.
        254    2    1    2    0    0 -0.22556662381E+03  0.24504378120E+03  0.20704573040E+04  0.22913960551E+04  0.92345854106E+03 0.  0.
         23    2    4    4    0    0  0.19967472670E+03 -0.23979686692E+03  0.79112392583E+03  0.85566785167E+03  0.94434487824E+02 0.  0.
         23    2    4    4    0    0 -0.42524135052E+03  0.48484064812E+03  0.12793333781E+04  0.14357282034E+04  0.93385873122E+02 0.  0.
          4    1    3    3  502    0  0.30572903188E+02 -0.74361104601E+02 -0.11170323693E+03  0.13762953690E+03  0.00000000000E+00 0. -1.
         -3    1    3    3    0  502  0.19499372062E+03 -0.17068267660E+03 -0.24178583970E+03  0.35442279759E+03  0.00000000000E+00 0.  1.
         11    1    5    5    0    0  0.20966535462E+03 -0.22686352709E+03  0.76264486967E+03  0.82283280081E+03  0.00000000000E+00 0. -1.
        -11    1    5    5    0    0 -0.99906279147E+01 -0.12933339832E+02  0.28479056158E+02  0.32835050861E+02  0.00000000000E+00 0.  1.
          4    1    6    6  503    0 -0.38693367753E+03  0.44088198046E+03  0.12131299089E+04  0.13475083552E+04  0.00000000000E+00 0. -1.
         -4    1    6    6    0  503 -0.38307672986E+02  0.43958667661E+02  0.66203469276E+02  0.88219848199E+02  0.00000000000E+00 0.  1.
<mgrwt>
<rscale>  0 0.21908001E+04</rscale>
<asrwt>0</asrwt>
<pdfrwt beam="1">  1        2 0.34618589E+00 0.21908001E+04</pdfrwt>
<pdfrwt beam="2">  1       -1 0.82036937E-01 0.21908001E+04</pdfrwt>
<totfact> 0.74439036E+00</totfact>
</mgrwt>
</event>
<event>
12    6  0.9491186E-008  0.1413165E+04  0.7818608E-02  0.8944344E-01
         -1   -1    0    0    0  501 -0.00000000000E+00  0.00000000000E+00  0.22544520552E+03  0.22544520552E+03  0.00000000000E+00 0.  1.
          2   -1    0    0  501    0  0.00000000000E+00 -0.00000000000E+00 -0.22145456967E+04  0.22145456967E+04  0.00000000000E+00 0. -1.
         24    2    1    2    0    0 -0.29239753969E+03  0.45428995098E+02 -0.89834416724E+02  0.31924350546E+03  0.79284793843E+02 0.  0.
        254    2    1    2    0    0  0.29239753969E+03 -0.45428995098E+02 -0.18992660744E+04  0.21207473967E+04  0.89598983504E+03 0.  0.
         23    2    4    4    0    0  0.60641520399E+03 -0.48361001258E+02 -0.13177396008E+04  0.14541954504E+04  0.90380121368E+02 0.  0.
         23    2    4    4    0    0 -0.31401766430E+03  0.29320061604E+01 -0.58152647359E+03  0.66655194632E+03  0.86618517092E+02 0.  0.
          4    1    3    3  502    0 -0.15232623432E+03 -0.12117628608E+02 -0.63793225458E+02  0.16558893139E+03  0.00000000000E+00 0. -1.
         -3    1    3    3    0  502 -0.14007130537E+03  0.57546623706E+02 -0.26041191266E+02  0.15365457407E+03  0.00000000000E+00 0.  1.
         11    1    5    5    0    0  0.23281041229E+03  0.72824637421E+01 -0.42077704466E+03  0.48094390905E+03  0.00000000000E+00 0.  1.
        -11    1    5    5    0    0  0.37360479170E+03 -0.55643465000E+02 -0.89696255619E+03  0.97325154138E+03  0.00000000000E+00 0. -1.
          1    1    6    6  503    0 -0.16260593153E+03  0.42488873596E+02 -0.27250148966E+03  0.32016098328E+03  0.00000000000E+00 0. -1.
         -1    1    6    6    0  503 -0.15141173276E+03 -0.39556867436E+02 -0.30902498393E+03  0.34639096303E+03  0.00000000000E+00 0.  1.
<mgrwt>
<rscale>  0 0.14131648E+04</rscale>
<asrwt>0</asrwt>
<pdfrwt beam="1">  1        2 0.34069934E+00 0.14131648E+04</pdfrwt>
<pdfrwt beam="2">  1       -1 0.34683878E-01 0.14131648E+04</pdfrwt>
<totfact> 0.44334055E+01</totfact>
</mgrwt>
</event>
<event>
12    6  0.9491186E-008  0.1372866E+04  0.7818608E-02  0.8973697E-01
         -1   -1    0    0    0  501 -0.00000000000E+00  0.00000000000E+00  0.68114578512E+03  0.68114578512E+03  0.00000000000E+00 0.  1.
          2   -1    0    0  501    0  0.00000000000E+00 -0.00000000000E+00 -0.69176101563E+03  0.69176101563E+03  0.00000000000E+00 0. -1.
         24    2    1    2    0    0  0.99745886264E+02 -0.33290912279E+03  0.17149327282E+03  0.39661928403E+03  0.84375280626E+02 0.  0.
        254    2    1    2    0    0 -0.99745886264E+02  0.33290912279E+03 -0.18210850334E+03  0.97628751672E+03  0.89397767447E+03 0.  0.
         23    2    4    4    0    0 -0.22235185607E+02 -0.29953038890E+03 -0.51526155376E+02  0.31783920450E+03  0.90299268434E+02 0.  0.
         23    2    4    4    0    0 -0.77510700657E+02  0.63243951169E+03 -0.13058234796E+03  0.65844831222E+03  0.10254162863E+03 0.  0.
          2    1    3    3  502    0 -0.13816844904E+02 -0.40170412282E+02  0.31209040829E+02  0.52712156619E+02  0.00000000000E+00 0. -1.
         -1    1    3    3    0  502  0.11356273117E+03 -0.29273871051E+03  0.14028423200E+03  0.34390712741E+03  0.00000000000E+00 0.  1.
         11    1    5    5    0    0 -0.42707092121E+02 -0.69188683850E+02 -0.25047950240E+02  0.85078607779E+02  0.00000000000E+00 0. -1.
        -11    1    5    5    0    0  0.20471906514E+02 -0.23034170505E+03 -0.26478205135E+02  0.23276059672E+03  0.00000000000E+00 0.  1.
          3    1    6    6  503    0  0.12595569538E+02  0.22617518618E+03 -0.17392972433E+02  0.22719238259E+03  0.00000000000E+00 0. -1.
         -3    1    6    6    0  503 -0.90106270195E+02  0.40626432551E+03 -0.11318937553E+03  0.43125592963E+03  0.00000000000E+00 0.  1.
<mgrwt>
<rscale>  0 0.13728658E+04</rscale>
<asrwt>0</asrwt>
<pdfrwt beam="1">  1        2 0.10642477E+00 0.13728658E+04</pdfrwt>
<pdfrwt beam="2">  1       -1 0.10479166E+00 0.13728658E+04</pdfrwt>
<totfact> 0.39645132E+01</totfact>
</mgrwt>
</event>
<event>
12    6  0.9491186E-008  0.2570176E+04  0.7818608E-02  0.8378403E-01
          2   -1    0    0  501    0  0.00000000000E+00  0.00000000000E+00  0.12349596583E+04  0.12349596583E+04  0.00000000000E+00 0. -1.
         -1   -1    0    0    0  501 -0.00000000000E+00 -0.00000000000E+00 -0.13372515614E+04  0.13372515614E+04  0.00000000000E+00 0.  1.
         24    2    1    2    0    0 -0.45647085852E+03  0.30543772334E+03 -0.10113855958E+04  0.11536844347E+04  0.80181692975E+02 0.  0.
        254    2    1    2    0    0  0.45647085852E+03 -0.30543772334E+03  0.90909369271E+03  0.14185267851E+04  0.94027073250E+03 0.  0.
         23    2    4    4    0    0 -0.19057167011E+03  0.80642534848E+02  0.51796884494E+03  0.56496468036E+03  0.89847570128E+02 0.  0.
         23    2    4    4    0    0  0.64704252863E+03 -0.38608025819E+03  0.39112484778E+03  0.85356210474E+03  0.88699608088E+02 0.  0.
          4    1    3    3  502    0 -0.16627238845E+03  0.76211305786E+02 -0.28631669203E+03  0.33975273130E+03  0.00000000000E+00 0. -1.
         -3    1    3    3    0  502 -0.29019847007E+03  0.22922641756E+03 -0.72506890376E+03  0.81393170336E+03  0.00000000000E+00 0.  1.
         11    1    5    5    0    0 -0.12180706948E+03  0.89843734920E+02  0.40540832094E+03  0.43274099132E+03  0.00000000000E+00 0.  1.
        -11    1    5    5    0    0 -0.68764600627E+02 -0.92012000717E+01  0.11256052400E+03  0.13222368905E+03  0.00000000000E+00 0. -1.
          1    1    6    6  503    0 -0.30336089761E+00  0.30198746666E+01  0.49496497255E-01  0.30354770201E+01  0.00000000000E+00 0. -1.
         -1    1    6    6    0  503  0.64734588953E+03 -0.38910013286E+03  0.39107535128E+03  0.85052662772E+03  0.00000000000E+00 0.  1.
<mgrwt>
<rscale>  0 0.25701764E+04</rscale>
<asrwt>0</asrwt>
<pdfrwt beam="1">  1        2 0.18999379E+00 0.25701764E+04</pdfrwt>
<pdfrwt beam="2">  1       -1 0.20573101E+00 0.25701764E+04</pdfrwt>
<totfact> 0.25077469E+00</totfact>
</mgrwt>
</event>
<event>
12    6  0.9491186E-008  0.3213136E+04  0.7818608E-02  0.8185356E-01
          2   -1    0    0  501    0  0.00000000000E+00  0.00000000000E+00  0.19693890953E+04  0.19693890953E+04  0.00000000000E+00 0. -1.
         -1   -1    0    0    0  501 -0.00000000000E+00 -0.00000000000E+00 -0.13105898978E+04  0.13105898978E+04  0.00000000000E+00 0.  1.
         24    2    1    2    0    0 -0.50588406461E+03 -0.56549711211E+03 -0.99739577643E+03  0.12559266006E+04  0.82750350511E+02 0.  0.
        254    2    1    2    0    0  0.50588406461E+03  0.56549711211E+03  0.16561949739E+04  0.20240523925E+04  0.88210012210E+03 0.  0.
         23    2    4    4    0    0  0.23298416642E+03 -0.57600614094E+02  0.11309171953E+04  0.11597417173E+04  0.91802481262E+02 0.  0.
         23    2    4    4    0    0  0.27289989819E+03  0.62309772620E+03  0.52527777858E+03  0.86431067524E+03  0.91602771899E+02 0.  0.
          2    1    3    3  502    0 -0.16951322504E+03 -0.22343975854E+03 -0.31487974749E+03  0.42167441769E+03  0.00000000000E+00 0. -1.
         -1    1    3    3    0  502 -0.33637083958E+03 -0.34205735357E+03 -0.68251602895E+03  0.83425218287E+03  0.00000000000E+00 0.  1.
         11    1    5    5    0    0  0.40053405531E+01 -0.14212736053E+02  0.21321261398E+02  0.25935319675E+02  0.00000000000E+00 0. -1.
        -11    1    5    5    0    0  0.22897882587E+03 -0.43387878041E+02  0.11095959339E+04  0.11338063976E+04  0.00000000000E+00 0.  1.
          2    1    6    6  503    0  0.81464822969E+02  0.10108506053E+03  0.11319712165E+03  0.17224486986E+03  0.00000000000E+00 0. -1.
         -2    1    6    6    0  503  0.19143507522E+03  0.52201266568E+03  0.41208065693E+03  0.69206580538E+03  0.00000000000E+00 0.  1.
<mgrwt>
<rscale>  0 0.32131364E+04</rscale>
<asrwt>0</asrwt>
<pdfrwt beam="1">  1        2 0.30298294E+00 0.32131364E+04</pdfrwt>
<pdfrwt beam="2">  1       -1 0.20162922E+00 0.32131364E+04</pdfrwt>
<totfact> 0.97509243E-01</totfact>
</mgrwt>
</event>
<event>
12    6  0.9491186E-008  0.1425912E+04  0.7818608E-02  0.8935273E-01
         -1   -1    0    0    0  501 -0.00000000000E+00  0.00000000000E+00  0.15885034971E+03  0.15885034971E+03  0.00000000000E+00 0.  1.
          2   -1    0    0  501    0  0.00000000000E+00 -0.00000000000E+00 -0.31999067309E+04  0.31999067309E+04  0.00000000000E+00 0. -1.
         24    2    1    2    0    0 -0.11192720332E+03 -0.65533512928E+02  0.33485165539E+02  0.15457213496E+03  0.77129426513E+02 0.  0.
        254    2    1    2    0    0  0.11192720332E+03  0.65533512928E+02 -0.30745415467E+04  0.32041849457E+04  0.89284550914E+03 0.  0.
         23    2    4    4    0    0  0.35750009508E+03 -0.22157246319E+03 -0.93171377733E+03  0.10263599932E+04  0.91780163260E+02 0.  0.
         23    2    4    4    0    0 -0.24557289176E+03  0.28710597612E+03 -0.21428277694E+04  0.21778249525E+04  0.92058608823E+02 0.  0.
          4    1    3    3  502    0 -0.39269498929E+02 -0.48008059100E+02 -0.17081207922E+02  0.64332223254E+02  0.00000000000E+00 0. -1.
         -3    1    3    3    0  502 -0.72657704391E+02 -0.17525453828E+02  0.50566373461E+02  0.90239911703E+02  0.00000000000E+00 0.  1.
         11    1    5    5    0    0  0.59254597422E+02 -0.82032971655E+02 -0.21453662741E+03  0.23720556540E+03  0.00000000000E+00 0.  1.
        -11    1    5    5    0    0  0.29824549766E+03 -0.13953949154E+03 -0.71717714991E+03  0.78915442781E+03  0.00000000000E+00 0. -1.
          1    1    6    6  503    0 -0.23789851939E+03  0.28263971935E+03 -0.21322364475E+04  0.21640039706E+04  0.00000000000E+00 0. -1.
         -1    1    6    6    0  503 -0.76743723750E+01  0.44662567750E+01 -0.10591321895E+02  0.13820981890E+02  0.00000000000E+00 0.  1.
<mgrwt>
<rscale>  0 0.14259121E+04</rscale>
<asrwt>0</asrwt>
<pdfrwt beam="1">  1        2 0.49229334E+00 0.14259121E+04</pdfrwt>
<pdfrwt beam="2">  1       -1 0.24438516E-01 0.14259121E+04</pdfrwt>
<totfact> 0.21137130E+01</totfact>
</mgrwt>
</event>
<event>
12    6  0.9491186E-008  0.2616946E+04  0.7818608E-02  0.8362468E-01
         -1   -1    0    0    0  501 -0.00000000000E+00  0.00000000000E+00  0.50859820623E+03  0.50859820623E+03  0.00000000000E+00 0.  1.
          2   -1    0    0  501    0  0.00000000000E+00 -0.00000000000E+00 -0.33663156847E+04  0.33663156847E+04  0.00000000000E+00 0. -1.
         24    2    1    2    0    0 -0.67103079517E+03  0.93114856004E+03 -0.13799339650E+04  0.17966686611E+04  0.80501933578E+02 0.  0.
        254    2    1    2    0    0  0.67103079517E+03 -0.93114856004E+03 -0.14777835135E+04  0.20782452298E+04  0.90439988583E+03 0.  0.
         23    2    4    4    0    0  0.52253983137E+02 -0.11063232292E+03  0.10675116851E+03  0.18726836671E+03  0.93293298588E+02 0.  0.
         23    2    4    4    0    0  0.61877681204E+03 -0.82051623712E+03 -0.15845346820E+04  0.18909768631E+04  0.94401799592E+02 0.  0.
          4    1    3    3  502    0 -0.20255814927E+03  0.31685998637E+03 -0.40348984803E+03  0.55157421283E+03  0.00000000000E+00 0. -1.
         -3    1    3    3    0  502 -0.46847264591E+03  0.61428857367E+03 -0.97644411694E+03  0.12450944483E+04  0.00000000000E+00 0.  1.
         11    1    5    5    0    0 -0.17848106782E+01 -0.98339156365E+02  0.71295274571E+02  0.12147753455E+03  0.00000000000E+00 0.  1.
        -11    1    5    5    0    0  0.54038793815E+02 -0.12293166558E+02  0.35455893941E+02  0.65790832159E+02  0.00000000000E+00 0. -1.
          2    1    6    6  503    0  0.20201295211E+02 -0.60766286832E+01 -0.37501774049E+02  0.43027907236E+02  0.00000000000E+00 0. -1.
         -2    1    6    6    0  503  0.59857551683E+03 -0.81443960844E+03 -0.15470329080E+04  0.18479489559E+04  0.00000000000E+00 0.  1.
<mgrwt>
<rscale>  0 0.26169464E+04</rscale>
<asrwt>0</asrwt>
<pdfrwt beam="1">  1        2 0.51789472E+00 0.26169464E+04</pdfrwt>
<pdfrwt beam="2">  1       -1 0.78245878E-01 0.26169464E+04</pdfrwt>
<totfact> 0.16511578E+00</totfact>
</mgrwt>
</event>
<event>
12    6  0.9491186E-008  0.1528978E+04  0.7818608E-02  0.8865408E-01
         -1   -1    0    0    0  501 -0.00000000000E+00  0.00000000000E+00  0.24085219819E+03  0.24085219819E+03  0.00000000000E+00 0.  1.
          2   -1    0    0  501    0  0.00000000000E+00 -0.00000000000E+00 -0.24265658974E+04  0.24265658974E+04  0.00000000000E+00 0. -1.
         24    2    1    2    0    0 -0.18042194033E+03  0.36925251475E+02 -0.15342419402E+04  0.15474144274E+04  0.81716143433E+02 0.  0.
        254    2    1    2    0    0  0.18042194033E+03 -0.36925251475E+02 -0.65147175901E+03  0.11200036683E+04  0.89223159179E+03 0.  0.
         23    2    4    4    0    0  0.29309928849E+03 -0.38404574744E+03 -0.19502655706E+03  0.52874428930E+03  0.90204414927E+02 0.  0.
         23    2    4    4    0    0 -0.11267734816E+03  0.34712049597E+03 -0.45644520195E+03  0.59125937896E+03  0.89758605808E+02 0.  0.
          4    1    3    3  502    0 -0.14685874994E+03  0.61776870556E+02 -0.12530260242E+04  0.12631144412E+04  0.00000000000E+00 0. -1.
         -3    1    3    3    0  502 -0.33563190388E+02 -0.24851619080E+02 -0.28121591604E+03  0.28429998620E+03  0.00000000000E+00 0.  1.
         11    1    5    5    0    0  0.21270745293E+03 -0.33591730016E+03 -0.15239164555E+03  0.42580289655E+03  0.00000000000E+00 0.  1.
        -11    1    5    5    0    0  0.80391835562E+02 -0.48128447283E+02 -0.42634911506E+02  0.10294139275E+03  0.00000000000E+00 0. -1.
          4    1    6    6  503    0 -0.12200245119E+03  0.34475752284E+03 -0.43930430060E+03  0.57160354808E+03  0.00000000000E+00 0.  1.
         -4    1    6    6    0  503  0.93251030286E+01  0.23629731245E+01 -0.17140901351E+02  0.19655830881E+02  0.00000000000E+00 0. -1.
<mgrwt>
<rscale>  0 0.15289784E+04</rscale>
<asrwt>0</asrwt>
<pdfrwt beam="1">  1        2 0.37331782E+00 0.15289784E+04</pdfrwt>
<pdfrwt beam="2">  1       -1 0.37054185E-01 0.15289784E+04</pdfrwt>
<totfact> 0.29569152E+01</totfact>
</mgrwt>
</event>
<event>
12    6  0.9491186E-008  0.2470318E+04  0.7818608E-02  0.8413637E-01
         -1   -1    0    0    0  501 -0.00000000000E+00  0.00000000000E+00  0.97347436818E+03  0.97347436818E+03  0.00000000000E+00 0.  1.
          2   -1    0    0  501    0  0.00000000000E+00 -0.00000000000E+00 -0.15671886848E+04  0.15671886848E+04  0.00000000000E+00 0. -1.
         24    2    1    2    0    0 -0.53431378845E+03 -0.34147620169E+02  0.69389730895E+03  0.88006180099E+03  0.79737153773E+02 0.  0.
        254    2    1    2    0    0  0.53431378845E+03  0.34147620169E+02 -0.12876116256E+04  0.16606012520E+04  0.90166265050E+03 0.  0.
         23    2    4    4    0    0  0.36545699555E+02 -0.26770095797E+03 -0.49362902488E+02  0.28929064426E+03  0.90845966687E+02 0.  0.
         23    2    4    4    0    0  0.49776808890E+03  0.30184857813E+03 -0.12382487231E+04  0.13713106077E+04  0.91363275994E+02 0.  0.
          4    1    3    3  502    0 -0.16846643322E+02  0.57202903543E+01  0.69555458489E+01  0.19102636755E+02  0.00000000000E+00 0. -1.
         -3    1    3    3    0  502 -0.51746714513E+03 -0.39867910523E+02  0.68694176310E+03  0.86095916423E+03  0.00000000000E+00 0.  1.
         11    1    5    5    0    0  0.58407677145E+02 -0.10499512061E+03 -0.31118167729E+02  0.12411193522E+03  0.00000000000E+00 0. -1.
        -11    1    5    5    0    0 -0.21861977590E+02 -0.16270583736E+03 -0.18244734759E+02  0.16517870904E+03  0.00000000000E+00 0.  1.
          3    1    6    6  503    0  0.34462391191E+01  0.78842280054E+01 -0.36909541641E+01  0.93627323976E+01  0.00000000000E+00 0. -1.
         -3    1    6    6    0  503  0.49432184978E+03  0.29396435013E+03 -0.12345577689E+04  0.13619478753E+04  0.00000000000E+00 0.  1.
<mgrwt>
<rscale>  0 0.24703182E+04</rscale>
<asrwt>0</asrwt>
<pdfrwt beam="1">  1        2 0.24110595E+00 0.24703182E+04</pdfrwt>
<pdfrwt beam="2">  1       -1 0.14976529E+00 0.24703182E+04</pdfrwt>
<totfact> 0.41508206E+00</totfact>
</mgrwt>
</event>
<event>
12    6  0.9491186E-008  0.2012081E+04  0.7818608E-02  0.8600993E-01
          2   -1    0    0  501    0  0.00000000000E+00  0.00000000000E+00  0.29605824706E+04  0.29605824706E+04  0.00000000000E+00 0. -1.
         -1   -1    0    0    0  501 -0.00000000000E+00 -0.00000000000E+00 -0.34186442609E+03  0.34186442609E+03  0.00000000000E+00 0.  1.
         24    2    1    2    0    0  0.61848352269E+03  0.46393867511E+03  0.13802919735E+04  0.15841308823E+04  0.80645881664E+02 0.  0.
        254    2    1    2    0    0 -0.61848352269E+03 -0.46393867511E+03  0.12384260711E+04  0.17183160144E+04  0.90617317862E+03 0.  0.
         23    2    4    4    0    0 -0.66361718705E+03 -0.15572574384E+03  0.12111259872E+04  0.13927352932E+04  0.90813886299E+02 0.  0.
         23    2    4    4    0    0  0.45133664360E+02 -0.30821293128E+03  0.27300083906E+02  0.32558072116E+03  0.90693179156E+02 0.  0.
          2    1    3    3  502    0  0.53119502529E+03  0.39061956860E+03  0.12289739177E+04  0.13946787059E+04  0.00000000000E+00 0. -1.
         -1    1    3    3    0  502  0.87288497403E+02  0.73319106516E+02  0.15131805578E+03  0.18945217645E+03  0.00000000000E+00 0.  1.
         11    1    5    5    0    0 -0.64576348060E+03 -0.13716904077E+03  0.11436920364E+04  0.13205518894E+04  0.00000000000E+00 0.  1.
        -11    1    5    5    0    0 -0.17853706450E+02 -0.18556703062E+02  0.67433950771E+02  0.72183403766E+02  0.00000000000E+00 0. -1.
          1    1    6    6  503    0  0.24344235162E+02 -0.14952185052E+02 -0.74841668210E+01  0.29533411189E+02  0.00000000000E+00 0. -1.
         -1    1    6    6    0  503  0.20789429198E+02 -0.29326074622E+03  0.34784250727E+02  0.29604730997E+03  0.00000000000E+00 0.  1.
<mgrwt>
<rscale>  0 0.20120813E+04</rscale>
<asrwt>0</asrwt>
<pdfrwt beam="1">  1        2 0.45547421E+00 0.20120813E+04</pdfrwt>
<pdfrwt beam="2">  1       -1 0.52594529E-01 0.20120813E+04</pdfrwt>
<totfact> 0.71072418E+00</totfact>
</mgrwt>
</event>
<event>
12    6  0.9491186E-008  0.3533485E+04  0.7818608E-02  0.8105900E-01
          2   -1    0    0  501    0  0.00000000000E+00  0.00000000000E+00  0.24660358822E+04  0.24660358822E+04  0.00000000000E+00 0. -1.
         -1   -1    0    0    0  501 -0.00000000000E+00 -0.00000000000E+00 -0.12657475326E+04  0.12657475326E+04  0.00000000000E+00 0.  1.
         24    2    1    2    0    0  0.71408054610E+03 -0.10842438193E+04  0.16379541235E+04  0.20915892580E+04  0.79725951982E+02 0.  0.
        254    2    1    2    0    0 -0.71408054610E+03  0.10842438193E+04 -0.43766577384E+03  0.16401941568E+04  0.90177040118E+03 0.  0.
         23    2    4    4    0    0 -0.54766185062E+02  0.26517132048E+03  0.25052788167E+03  0.38025341716E+03  0.92267424031E+02 0.  0.
         23    2    4    4    0    0 -0.65931436104E+03  0.81907249883E+03 -0.68819365551E+03  0.12599407397E+04  0.90911907703E+02 0.  0.
          4    1    3    3  502    0  0.39383681484E+03 -0.66244126999E+03  0.94391733503E+03  0.12185712159E+04  0.00000000000E+00 0. -1.
         -3    1    3    3    0  502  0.32024373126E+03 -0.42180254932E+03  0.69403678843E+03  0.87301804204E+03  0.00000000000E+00 0.  1.
         11    1    5    5    0    0  0.12494241002E+02  0.10129168982E+03  0.53257828433E+02  0.11511954124E+03  0.00000000000E+00 0.  1.
        -11    1    5    5    0    0 -0.67260426064E+02  0.16387963066E+03  0.19727005323E+03  0.26513387592E+03  0.00000000000E+00 0. -1.
          3    1    6    6  503    0 -0.61093034375E+03  0.75489198384E+03 -0.60450950300E+03  0.11439097567E+04  0.00000000000E+00 0. -1.
         -3    1    6    6    0  503 -0.48384017288E+02  0.64180514984E+02 -0.83684152505E+02  0.11603098299E+03  0.00000000000E+00 0.  1.
<mgrwt>
<rscale>  0 0.35334849E+04</rscale>
<asrwt>0</asrwt>
<pdfrwt beam="1">  1        2 0.37939014E+00 0.35334849E+04</pdfrwt>
<pdfrwt beam="2">  1       -1 0.19473039E+00 0.35334849E+04</pdfrwt>
<totfact> 0.55533078E-01</totfact>
</mgrwt>
</event>
<event>
12    6  0.9491186E-008  0.2113017E+04  0.7818608E-02  0.8555531E-01
          2   -1    0    0  501    0  0.00000000000E+00  0.00000000000E+00  0.29260748924E+04  0.29260748924E+04  0.00000000000E+00 0. -1.
         -1   -1    0    0    0  501 -0.00000000000E+00 -0.00000000000E+00 -0.38147003664E+03  0.38147003664E+03  0.00000000000E+00 0.  1.
         24    2    1    2    0    0  0.93688176251E+02  0.83318107832E+03  0.72534616448E+03  0.11114933521E+04  0.79512450546E+02 0.  0.
        254    2    1    2    0    0 -0.93688176251E+02 -0.83318107832E+03  0.18192586912E+04  0.21960515769E+04  0.89998453271E+03 0.  0.
         23    2    4    4    0    0 -0.48509318855E+03 -0.45352099915E+03  0.11112684894E+04  0.12978434251E+04  0.92104300934E+02 0.  0.
         23    2    4    4    0    0  0.39140501230E+03 -0.37966007918E+03  0.70799020188E+03  0.89820815185E+03  0.90488113734E+02 0.  0.
          2    1    3    3  502    0  0.99336231770E+02  0.77939664675E+03  0.65600881876E+03  0.10235596662E+04  0.00000000000E+00 0. -1.
         -1    1    3    3    0  502 -0.56480555185E+01  0.53784431575E+02  0.69337345721E+02  0.87933685938E+02  0.00000000000E+00 0.  1.
         11    1    5    5    0    0 -0.12532386000E+03 -0.75349698665E+02  0.28913411096E+03  0.32400953859E+03  0.00000000000E+00 0. -1.
        -11    1    5    5    0    0 -0.35976932854E+03 -0.37817130048E+03  0.82213437840E+03  0.97383388646E+03  0.00000000000E+00 0.  1.
          4    1    6    6  503    0  0.46064772858E+02 -0.16620676743E+02  0.40296788384E+02  0.63419565970E+02  0.00000000000E+00 0. -1.
         -4    1    6    6    0  503  0.34534023944E+03 -0.36303940243E+03  0.66769341349E+03  0.83478858588E+03  0.00000000000E+00 0.  1.
<mgrwt>
<rscale>  0 0.21130167E+04</rscale>
<asrwt>0</asrwt>
<pdfrwt beam="1">  1        2 0.45016535E+00 0.21130167E+04</pdfrwt>
<pdfrwt beam="2">  1       -1 0.58687700E-01 0.21130167E+04</pdfrwt>
<totfact> 0.59763584E+00</totfact>
</mgrwt>
</event>
<event>
12    6  0.9491186E-008  0.1105234E+04  0.7818608E-02  0.9200106E-01
          2   -1    0    0  501    0  0.00000000000E+00  0.00000000000E+00  0.74069434765E+03  0.74069434765E+03  0.00000000000E+00 0. -1.
         -3   -1    0    0    0  501 -0.00000000000E+00 -0.00000000000E+00 -0.41229624503E+03  0.41229624503E+03  0.00000000000E+00 0.  1.
         24    2    1    2    0    0 -0.22375226542E+02  0.13460409226E+03  0.17004371248E+03  0.23237282325E+03  0.80394977559E+02 0.  0.
        254    2    1    2    0    0  0.22375226542E+02 -0.13460409226E+03  0.15835439013E+03  0.92061776943E+03  0.89657239089E+03 0.  0.
         23    2    4    4    0    0  0.34130955466E+03  0.21761146177E+03  0.12814318320E+02  0.41521289942E+03  0.91600134784E+02 0.  0.
         23    2    4    4    0    0 -0.31893432811E+03 -0.35221555403E+03  0.14554007181E+03  0.50540487001E+03  0.92072080336E+02 0.  0.
          2    1    3    3  502    0  0.20962625190E+02  0.10117521386E+03  0.11805053775E+03  0.15688143618E+03  0.00000000000E+00 0. -1.
         -1    1    3    3    0  502 -0.43337851732E+02  0.33428878396E+02  0.51993174735E+02  0.75491387076E+02  0.00000000000E+00 0.  1.
         11    1    5    5    0    0  0.36597985878E+02  0.31257611453E+02 -0.28045060312E+02  0.55704364748E+02  0.00000000000E+00 0. -1.
        -11    1    5    5    0    0  0.30471156878E+03  0.18635385032E+03  0.40859378633E+02  0.35950853467E+03  0.00000000000E+00 0.  1.
          1    1    6    6  503    0 -0.16287143832E+03 -0.22432780073E+03  0.11981238582E+03  0.30200178045E+03  0.00000000000E+00 0. -1.
         -1    1    6    6    0  503 -0.15606288980E+03 -0.12788775331E+03  0.25727685993E+02  0.20340308957E+03  0.00000000000E+00 0.  1.
<mgrwt>
<rscale>  0 0.11052339E+04</rscale>
<asrwt>0</asrwt>
<pdfrwt beam="1">  1        2 0.11395298E+00 0.11052339E+04</pdfrwt>
<pdfrwt beam="2">  1       -3 0.63430192E-01 0.11052339E+04</pdfrwt>
<totfact> 0.57893820E+01</totfact>
</mgrwt>
</event>
<event>
12    6  0.9491186E-008  0.2493077E+04  0.7818608E-02  0.8405456E-01
         -1   -1    0    0    0  501 -0.00000000000E+00  0.00000000000E+00  0.22489220199E+04  0.22489220199E+04  0.00000000000E+00 0.  1.
          2   -1    0    0  501    0  0.00000000000E+00 -0.00000000000E+00 -0.69093484887E+03  0.69093484887E+03  0.00000000000E+00 0. -1.
         24    2    1    2    0    0  0.25544323294E+03  0.21086587850E+01  0.19192032574E+04  0.19377836669E+04  0.80054386885E+02 0.  0.
        254    2    1    2    0    0 -0.25544323294E+03 -0.21086587850E+01 -0.36121608636E+03  0.10020732019E+04  0.89912065327E+03 0.  0.
         23    2    4    4    0    0 -0.48380307193E+02 -0.16115606882E+03 -0.60312211684E+03  0.63272638598E+03  0.90964053635E+02 0.  0.
         23    2    4    4    0    0 -0.20706292575E+03  0.15904741004E+03  0.24190603048E+03  0.36934681588E+03  0.98627627755E+02 0.  0.
          4    1    3    3  502    0  0.12858197362E+03 -0.23802269324E+01  0.12539548762E+04  0.12605323562E+04  0.00000000000E+00 0. -1.
         -3    1    3    3    0  502  0.12686125932E+03  0.44888857175E+01  0.66524838115E+03  0.67725131069E+03  0.00000000000E+00 0.  1.
         11    1    5    5    0    0 -0.38223928262E+02 -0.58382723554E+02 -0.38646008258E+03  0.39270982484E+03  0.00000000000E+00 0.  1.
        -11    1    5    5    0    0 -0.10156378931E+02 -0.10277334527E+03 -0.21666203427E+03  0.24001656114E+03  0.00000000000E+00 0. -1.
          2    1    6    6  503    0 -0.77543852625E+01 -0.64264373645E+01 -0.52072678313E+01  0.11337778718E+02  0.00000000000E+00 0.  1.
         -2    1    6    6    0  503 -0.19930854048E+03  0.16547384740E+03  0.24711329831E+03  0.35800903716E+03  0.00000000000E+00 0. -1.
<mgrwt>
<rscale>  0 0.24930773E+04</rscale>
<asrwt>0</asrwt>
<pdfrwt beam="1">  1        2 0.10629767E+00 0.24930773E+04</pdfrwt>
<pdfrwt beam="2">  1       -1 0.34598800E+00 0.24930773E+04</pdfrwt>
<totfact> 0.70068957E-01</totfact>
</mgrwt>
</event>
<event>
12    6  0.9491186E-008  0.1545022E+04  0.7818608E-02  0.8855054E-01
          2   -1    0    0  501    0  0.00000000000E+00  0.00000000000E+00  0.15558425772E+04  0.15558425772E+04  0.00000000000E+00 0. -1.
         -1   -1    0    0    0  501 -0.00000000000E+00 -0.00000000000E+00 -0.38356916808E+03  0.38356916808E+03  0.00000000000E+00 0.  1.
         24    2    1    2    0    0 -0.32099114027E+03 -0.54245478800E+02  0.87272748501E+03  0.93483197350E+03  0.79244378235E+02 0.  0.
        254    2    1    2    0    0  0.32099114027E+03  0.54245478800E+02  0.29954592407E+03  0.10045797717E+04  0.90192841903E+03 0.  0.
         23    2    4    4    0    0  0.31868166964E+03 -0.27382613065E+03 -0.13508865000E+03  0.45212770598E+03  0.98141544517E+02 0.  0.
         23    2    4    4    0    0  0.23094706369E+01  0.32807160945E+03  0.43463457408E+03  0.55245206577E+03  0.93057817537E+02 0.  0.
          4    1    3    3  502    0 -0.28171094721E+03 -0.73250663770E+02  0.77237062092E+03  0.82539874823E+03  0.00000000000E+00 0. -1.
         -3    1    3    3    0  502 -0.39280193064E+02  0.19005184970E+02  0.10035686409E+03  0.10943322527E+03  0.00000000000E+00 0.  1.
         11    1    5    5    0    0  0.12210307613E+03 -0.15087020684E+03 -0.97612668106E+02  0.21725379971E+03  0.00000000000E+00 0. -1.
        -11    1    5    5    0    0  0.19657859351E+03 -0.12295592381E+03 -0.37475981898E+02  0.23487390627E+03  0.00000000000E+00 0.  1.
          4    1    6    6  503    0  0.47182938966E+02  0.15518105998E+03  0.21648109976E+03  0.27050223226E+03  0.00000000000E+00 0. -1.
         -4    1    6    6    0  503 -0.44873468329E+02  0.17289054948E+03  0.21815347432E+03  0.28194983351E+03  0.00000000000E+00 0.  1.
<mgrwt>
<rscale>  0 0.15450220E+04</rscale>
<asrwt>0</asrwt>
<pdfrwt beam="1">  1        2 0.23936039E+00 0.15450220E+04</pdfrwt>
<pdfrwt beam="2">  1       -1 0.59010642E-01 0.15450220E+04</pdfrwt>
<totfact> 0.37703098E+01</totfact>
</mgrwt>
</event>
<event>
12    6  0.9491186E-008  0.1663586E+04  0.7818608E-02  0.8782410E-01
          2   -1    0    0  501    0  0.00000000000E+00  0.00000000000E+00  0.19139681120E+04  0.19139681120E+04  0.00000000000E+00 0. -1.
         -1   -1    0    0    0  501 -0.00000000000E+00 -0.00000000000E+00 -0.36148956989E+03  0.36148956989E+03  0.00000000000E+00 0.  1.
         24    2    1    2    0    0 -0.17346966102E+03 -0.29817713289E+03 -0.95201448261E+02  0.36832699137E+03  0.87178729919E+02 0.  0.
        254    2    1    2    0    0  0.17346966102E+03  0.29817713289E+03  0.16476799904E+04  0.19071306905E+04  0.89626826016E+03 0.  0.
         23    2    4    4    0    0  0.23111324687E+03 -0.52401082460E+02  0.14843193952E+04  0.15060342149E+04  0.93679149615E+02 0.  0.
         23    2    4    4    0    0 -0.57643585854E+02  0.35057821535E+03  0.16336059516E+03  0.40109647563E+03  0.89240297212E+02 0.  0.
          4    1    3    3  502    0  0.59908320464E+01 -0.12133651785E+02 -0.16969668646E+02  0.21704497879E+02  0.00000000000E+00 0. -1.
         -3    1    3    3    0  502 -0.17946049307E+03 -0.28604348110E+03 -0.78231779615E+02  0.34662249349E+03  0.00000000000E+00 0.  1.
         11    1    5    5    0    0  0.23745294952E+03 -0.52954858452E+02  0.14737579597E+04  0.14937036667E+04  0.00000000000E+00 0. -1.
        -11    1    5    5    0    0 -0.63397026422E+01  0.55377599139E+00  0.10561435549E+02  0.12330548175E+02  0.00000000000E+00 0.  1.
          3    1    6    6  503    0 -0.32089994781E+02  0.31207456276E+03  0.16576645400E+03  0.35482223403E+03  0.00000000000E+00 0. -1.
         -3    1    6    6    0  503 -0.25553591074E+02  0.38503652584E+02 -0.24058588424E+01  0.46274241602E+02  0.00000000000E+00 0.  1.
<mgrwt>
<rscale>  0 0.16635859E+04</rscale>
<asrwt>0</asrwt>
<pdfrwt beam="1">  1        2 0.29445663E+00 0.16635859E+04</pdfrwt>
<pdfrwt beam="2">  1       -1 0.55613781E-01 0.16635859E+04</pdfrwt>
<totfact> 0.26510004E+01</totfact>
</mgrwt>
</event>
<event>
12    6  0.9491186E-008  0.1871218E+04  0.7818608E-02  0.8669317E-01
         -1   -1    0    0    0  501 -0.00000000000E+00  0.00000000000E+00  0.25173164213E+03  0.25173164213E+03  0.00000000000E+00 0.  1.
          2   -1    0    0  501    0  0.00000000000E+00 -0.00000000000E+00 -0.34773689142E+04  0.34773689142E+04  0.00000000000E+00 0. -1.
         24    2    1    2    0    0 -0.16088219737E+03 -0.14947803490E+03 -0.26083917261E+04  0.26187128371E+04  0.75648937745E+02 0.  0.
        254    2    1    2    0    0  0.16088219737E+03  0.14947803490E+03 -0.61724554590E+03  0.11103877192E+04  0.89651662488E+03 0.  0.
         23    2    4    4    0    0  0.34021636576E+03  0.15874268627E+02  0.89274863254E+02  0.36377799857E+03  0.91461812259E+02 0.  0.
         23    2    4    4    0    0 -0.17933416839E+03  0.13360376627E+03 -0.70652040916E+03  0.74660972064E+03  0.90797996022E+02 0.  0.
          2    1    3    3  502    0 -0.16317080379E+03 -0.13640722546E+03 -0.25489868350E+04  0.25578439216E+04  0.00000000000E+00 0. -1.
         -1    1    3    3    0  502  0.22886064257E+01 -0.13070809439E+02 -0.59404891161E+02  0.60868915488E+02  0.00000000000E+00 0.  1.
         11    1    5    5    0    0  0.31955617472E+03  0.29843698376E+02  0.10066103547E+03  0.33636206563E+03  0.00000000000E+00 0. -1.
        -11    1    5    5    0    0  0.20660191041E+02 -0.13969429749E+02 -0.11386172216E+02  0.27415932942E+02  0.00000000000E+00 0.  1.
          1    1    6    6  503    0 -0.14018661863E+03  0.53765013912E+02 -0.49172025319E+03  0.51413205712E+03  0.00000000000E+00 0. -1.
         -1    1    6    6    0  503 -0.39147549766E+02  0.79838752356E+02 -0.21480015596E+03  0.23247766351E+03  0.00000000000E+00 0.  1.
<mgrwt>
<rscale>  0 0.18712176E+04</rscale>
<asrwt>0</asrwt>
<pdfrwt beam="1">  1        2 0.53497985E+00 0.18712176E+04</pdfrwt>
<pdfrwt beam="2">  1       -1 0.38727944E-01 0.18712176E+04</pdfrwt>
<totfact> 0.58624899E+00</totfact>
</mgrwt>
</event>
