<event>
12    3  0.4806716E-008  0.3061004E+04  0.7818608E-02  0.8226522E-01
         -1   -1    0    0    0  501 -0.00000000000E+00  0.00000000000E+00  0.10316613405E+04  0.10316613405E+04  0.00000000000E+00 0.  1.
          1   -1    0    0  501    0  0.00000000000E+00 -0.00000000000E+00 -0.22705482992E+04  0.22705482992E+04  0.00000000000E+00 0. -1.
         23    2    1    2    0    0 -0.16960112177E+01 -0.14271973299E+03 -0.20866982502E+04  0.20935785108E+04  0.91594733013E+02 0.  0.
        254    2    1    2    0    0  0.16960112177E+01  0.14271973299E+03  0.84781129153E+03  0.12086311289E+04  0.84949009473E+03 0.  0.
         23    2    4    4    0    0  0.87197126010E+02  0.33195027388E+02 -0.14892188801E+03  0.19789412045E+03  0.90989590351E+02 0.  0.
         23    2    4    4    0    0 -0.85501114792E+02  0.10952470560E+03  0.99673317954E+03  0.10107370084E+04  0.93841181177E+02 0.  0.
          3    1    3    3  502    0 -0.18805106848E+02 -0.14372328880E+03 -0.19972723860E+04  0.20025251558E+04  0.00000000000E+00 0. -1.
         -3    1    3    3    0  502  0.17109095630E+02  0.10035558117E+01 -0.89425864166E+02  0.91053355014E+02  0.00000000000E+00 0.  1.
         13    1    5    5    0    0  0.30695958330E+02 -0.30429365145E+02 -0.67304627598E+02  0.79988130476E+02  0.00000000000E+00 0. -1.
        -13    1    5    5    0    0  0.56501167680E+02  0.63624392533E+02 -0.81617260408E+02  0.11790598997E+03  0.00000000000E+00 0.  1.
          3    1    6    6  503    0 -0.41086976259E+02 -0.57374001000E+01  0.18021525156E+03  0.18492861939E+03  0.00000000000E+00 0. -1.
         -3    1    6    6    0  503 -0.44414138533E+02  0.11526210570E+03  0.81651792798E+03  0.82580838905E+03  0.00000000000E+00 0.  1.
<mgrwt>
<rscale>  0 0.30610043E+04</rscale>
<asrwt>0</asrwt>
<pdfrwt beam="1">  1        1 0.34931512E+00 0.30610043E+04</pdfrwt>
<pdfrwt beam="2">  1       -1 0.15871713E+00 0.30610043E+04</pdfrwt>
<totfact> 0.49324737E-01</totfact>
</mgrwt>
</event>
<event>
12    3  0.4806716E-008  0.1556659E+04  0.7818608E-02  0.8847625E-01
          2   -1    0    0  501    0  0.00000000000E+00  0.00000000000E+00  0.12102695252E+04  0.12102695252E+04  0.00000000000E+00 0.  1.
         -2   -1    0    0    0  501 -0.00000000000E+00 -0.00000000000E+00 -0.50054733510E+03  0.50054733510E+03  0.00000000000E+00 0. -1.
         23    2    1    2    0    0  0.86452898541E+02 -0.17571222718E+03 -0.28088798017E+03  0.35448846873E+03  0.91733999214E+02 0.  0.
        254    2    1    2    0    0 -0.86452898541E+02  0.17571222718E+03  0.99061017027E+03  0.13563283916E+04  0.90552156569E+03 0.  0.
         23    2    4    4    0    0 -0.27530062179E+03  0.44401876728E+03  0.81761880325E+03  0.97447142096E+03  0.90282582949E+02 0.  0.
         23    2    4    4    0    0  0.18884772325E+03 -0.26830654010E+03  0.17299136702E+03  0.38185697062E+03  0.90757208591E+02 0.  0.
          2    1    3    3  502    0  0.98357963190E+02 -0.17762206292E+03 -0.27239853669E+03  0.33974232729E+03  0.00000000000E+00 0. -1.
         -2    1    3    3    0  502 -0.11905064649E+02  0.19098357407E+01 -0.84894434751E+01  0.14746141440E+02  0.00000000000E+00 0.  1.
         13    1    5    5    0    0 -0.12595470143E+03  0.22715854985E+03  0.32645307004E+03  0.41717766062E+03  0.00000000000E+00 0. -1.
        -13    1    5    5    0    0 -0.14934592036E+03  0.21686021742E+03  0.49116573321E+03  0.55729376034E+03  0.00000000000E+00 0.  1.
          1    1    6    6  503    0  0.42598724170E+02 -0.66531278761E+02  0.88710209695E+02  0.11878789357E+03  0.00000000000E+00 0. -1.
         -1    1    6    6    0  503  0.14624899908E+03 -0.20177526134E+03  0.84281157321E+02  0.26306907705E+03  0.00000000000E+00 0.  1.
<mgrwt>
<rscale>  0 0.15566595E+04</rscale>
<asrwt>0</asrwt>
<pdfrwt beam="1">  1        2 0.18619531E+00 0.15566595E+04</pdfrwt>
<pdfrwt beam="2">  1       -2 0.77007283E-01 0.15566595E+04</pdfrwt>
<totfact> 0.27055008E+01</totfact>
</mgrwt>
</event>
<event>
12    3  0.4806716E-008  0.2345694E+04  0.7818608E-02  0.8460119E-01
         -2   -1    0    0    0  501 -0.00000000000E+00  0.00000000000E+00  0.14565704393E+04  0.14565704393E+04  0.00000000000E+00 0.  1.
          2   -1    0    0  501    0  0.00000000000E+00 -0.00000000000E+00 -0.94438982792E+03  0.94438982792E+03  0.00000000000E+00 0. -1.
         23    2    1    2    0    0  0.60996947172E+03 -0.48676469095E+03 -0.41105035739E+03  0.88677770367E+03  0.91704299964E+02 0.  0.
        254    2    1    2    0    0 -0.60996947172E+03  0.48676469095E+03  0.92323096873E+03  0.15141825635E+04  0.91180633537E+03 0.  0.
         23    2    4    4    0    0 -0.82910062111E+03  0.30451436237E+03  0.77819979939E+03  0.11807511942E+04  0.91878278009E+02 0.  0.
         23    2    4    4    0    0  0.21913114939E+03  0.18225032858E+03  0.14503116934E+03  0.33343136933E+03  0.94386413590E+02 0.  0.
          1    1    3    3  502    0  0.53399047270E+03 -0.42623604882E+03 -0.32331474270E+03  0.75588055743E+03  0.00000000000E+00 0. -1.
         -1    1    3    3    0  502  0.75978999018E+02 -0.60528642131E+02 -0.87735614686E+02  0.13089714624E+03  0.00000000000E+00 0.  1.
         13    1    5    5    0    0 -0.60769551707E+03  0.19725266470E+03  0.60480350901E+03  0.87976686668E+03  0.00000000000E+00 0. -1.
        -13    1    5    5    0    0 -0.22140510404E+03  0.10726169767E+03  0.17339629037E+03  0.30098432749E+03  0.00000000000E+00 0.  1.
          1    1    6    6  503    0  0.18954381974E+03  0.18990817954E+03  0.11999261540E+03  0.29392210534E+03  0.00000000000E+00 0. -1.
         -1    1    6    6    0  503  0.29587329651E+02 -0.76578509603E+01  0.25038553942E+02  0.39509263986E+02  0.00000000000E+00 0.  1.
<mgrwt>
<rscale>  0 0.23456942E+04</rscale>
<asrwt>0</asrwt>
<pdfrwt beam="1">  1        2 0.14529074E+00 0.23456942E+04</pdfrwt>
<pdfrwt beam="2">  1       -2 0.22408776E+00 0.23456942E+04</pdfrwt>
<totfact> 0.23027551E+00</totfact>
</mgrwt>
</event>
<event>
12    3  0.4806716E-008  0.2010055E+04  0.7818608E-02  0.8601934E-01
          1   -1    0    0  501    0  0.00000000000E+00  0.00000000000E+00  0.18988175399E+04  0.18988175399E+04  0.00000000000E+00 0. -1.
         -1   -1    0    0    0  501 -0.00000000000E+00 -0.00000000000E+00 -0.53195231832E+03  0.53195231832E+03  0.00000000000E+00 0.  1.
         23    2    1    2    0    0 -0.12475576292E+03  0.38143040391E+03 -0.29845854041E+03  0.51026856784E+03  0.10120947374E+03 0.  0.
        254    2    1    2    0    0  0.12475576292E+03 -0.38143040391E+03  0.16653237620E+04  0.19205012904E+04  0.86831378010E+03 0.  0.
         23    2    4    4    0    0  0.10617801940E+03 -0.49588612380E+03  0.41610794560E+03  0.66201775621E+03  0.89133986593E+02 0.  0.
         23    2    4    4    0    0  0.18577743514E+02  0.11445571989E+03  0.12492158164E+04  0.12584835341E+04  0.98971740953E+02 0.  0.
          1    1    3    3  502    0 -0.52593592544E+02  0.28609812070E+03 -0.24030239521E+03  0.37731082914E+03  0.00000000000E+00 0. -1.
         -1    1    3    3    0  502 -0.72162170373E+02  0.95332283206E+02 -0.58156145198E+02  0.13295773869E+03  0.00000000000E+00 0.  1.
         13    1    5    5    0    0  0.15821344160E+02 -0.12245949327E+02  0.44208260172E+01  0.20489556087E+02  0.00000000000E+00 0. -1.
        -13    1    5    5    0    0  0.90356675243E+02 -0.48364017447E+03  0.41168711958E+03  0.64152820012E+03  0.00000000000E+00 0.  1.
          1    1    6    6  503    0  0.33742302018E+02  0.60339197214E+02  0.31123932901E+03  0.31882484468E+03  0.00000000000E+00 0. -1.
         -1    1    6    6    0  503 -0.15164558504E+02  0.54116522680E+02  0.93797648735E+03  0.93965868946E+03  0.00000000000E+00 0.  1.
<mgrwt>
<rscale>  0 0.20100551E+04</rscale>
<asrwt>0</asrwt>
<pdfrwt beam="1">  1        1 0.29212577E+00 0.20100551E+04</pdfrwt>
<pdfrwt beam="2">  1       -1 0.81838820E-01 0.20100551E+04</pdfrwt>
<totfact> 0.48065305E+00</totfact>
</mgrwt>
</event>
<event>
12    3  0.4806716E-008  0.1065985E+04  0.7818608E-02  0.9238995E-01
          2   -1    0    0  501    0  0.00000000000E+00  0.00000000000E+00  0.11596240661E+04  0.11596240661E+04  0.00000000000E+00 0. -1.
         -2   -1    0    0    0  501 -0.00000000000E+00 -0.00000000000E+00 -0.24497665007E+03  0.24497665007E+03  0.00000000000E+00 0.  1.
         23    2    1    2    0    0 -0.41049565569E+01  0.10879482093E+03  0.13894364632E+03  0.19949859757E+03  0.92958000479E+02 0.  0.
        254    2    1    2    0    0  0.41049565569E+01 -0.10879482093E+03  0.77570376969E+03  0.12051021186E+04  0.91580653752E+03 0.  0.
         23    2    4    4    0    0  0.95838358204E+02  0.36297196057E+03  0.15841570361E+03  0.41775046945E+03  0.92121031873E+02 0.  0.
         23    2    4    4    0    0 -0.91733401647E+02 -0.47176678149E+03  0.61728806609E+03  0.78735164913E+03  0.88877161096E+02 0.  0.
          3    1    3    3  502    0 -0.13427129389E+02  0.82742594280E+02  0.14824831820E+03  0.17030616125E+03  0.00000000000E+00 0. -1.
         -3    1    3    3    0  502  0.93221728318E+01  0.26052226645E+02 -0.93046718815E+01  0.29192436320E+02  0.00000000000E+00 0.  1.
         13    1    5    5    0    0  0.85200862775E+02  0.36565419123E+03  0.15566548038E+03  0.40644054469E+03  0.00000000000E+00 0. -1.
        -13    1    5    5    0    0  0.10637495429E+02 -0.26822306631E+01  0.27502232225E+01  0.11309924761E+02  0.00000000000E+00 0.  1.
          2    1    6    6  503    0 -0.10602906393E+03 -0.36202923039E+03  0.49614516015E+03  0.62327148659E+03  0.00000000000E+00 0. -1.
         -2    1    6    6    0  503  0.14295662283E+02 -0.10973755110E+03  0.12114290593E+03  0.16408016255E+03  0.00000000000E+00 0.  1.
<mgrwt>
<rscale>  0 0.10659847E+04</rscale>
<asrwt>0</asrwt>
<pdfrwt beam="1">  1        2 0.17840370E+00 0.10659847E+04</pdfrwt>
<pdfrwt beam="2">  1       -2 0.37688716E-01 0.10659847E+04</pdfrwt>
<totfact> 0.13223311E+02</totfact>
</mgrwt>
</event>
<event>
12    3  0.4806716E-008  0.2040230E+04  0.7818608E-02  0.8588039E-01
          1   -1    0    0  501    0  0.00000000000E+00  0.00000000000E+00  0.11795292535E+04  0.11795292535E+04  0.00000000000E+00 0. -1.
         -1   -1    0    0    0  501 -0.00000000000E+00 -0.00000000000E+00 -0.88224561689E+03  0.88224561689E+03  0.00000000000E+00 0.  1.
         23    2    1    2    0    0  0.65753602034E+03 -0.32686833130E+03 -0.25120404557E+03  0.78353395344E+03  0.10782142471E+03 0.  0.
        254    2    1    2    0    0 -0.65753602034E+03  0.32686833130E+03  0.54848768216E+03  0.12782409169E+04  0.89099078568E+03 0.  0.
         23    2    4    4    0    0 -0.71075065163E+03  0.33522676589E+03  0.72326959579E+03  0.10720234399E+04  0.92584415862E+02 0.  0.
         23    2    4    4    0    0  0.53214631284E+02 -0.83584345850E+01 -0.17478191363E+03  0.20621747707E+03  0.95264212097E+02 0.  0.
          3    1    3    3  502    0  0.19812000897E+03 -0.53622408798E+02 -0.98218201950E+02  0.22753838329E+03  0.00000000000E+00 0. -1.
         -3    1    3    3    0  502  0.45941601138E+03 -0.27324592250E+03 -0.15298584362E+03  0.55599557015E+03  0.00000000000E+00 0.  1.
         13    1    5    5    0    0 -0.65032103040E+03  0.32153611799E+03  0.63464199226E+03  0.96388452425E+03  0.00000000000E+00 0. -1.
        -13    1    5    5    0    0 -0.60429621231E+02  0.13690647895E+02  0.88627603531E+02  0.10813891561E+03  0.00000000000E+00 0.  1.
          3    1    6    6  503    0  0.53088980175E+01 -0.24412141921E+02 -0.14589467926E+03  0.14801822357E+03  0.00000000000E+00 0. -1.
         -3    1    6    6    0  503  0.47905733267E+02  0.16053707336E+02 -0.28887234368E+02  0.58199253505E+02  0.00000000000E+00 0.  1.
<mgrwt>
<rscale>  0 0.20402299E+04</rscale>
<asrwt>0</asrwt>
<pdfrwt beam="1">  1        1 0.18146604E+00 0.20402299E+04</pdfrwt>
<pdfrwt beam="2">  1       -1 0.13573010E+00 0.20402299E+04</pdfrwt>
<totfact> 0.46461754E+00</totfact>
</mgrwt>
</event>
<event>
12    3  0.4806716E-008  0.2725065E+04  0.7818608E-02  0.8326918E-01
         -1   -1    0    0    0  501 -0.00000000000E+00  0.00000000000E+00  0.12856128098E+04  0.12856128098E+04  0.00000000000E+00 0.  1.
          1   -1    0    0  501    0  0.00000000000E+00 -0.00000000000E+00 -0.14440538738E+04  0.14440538738E+04  0.00000000000E+00 0. -1.
         23    2    1    2    0    0 -0.36264898557E+03 -0.11578932953E+04 -0.74429229168E+02  0.12190319407E+04  0.90928501010E+02 0.  0.
        254    2    1    2    0    0  0.36264898557E+03  0.11578932953E+04 -0.84011834795E+02  0.15106347428E+04  0.89595098514E+03 0.  0.
         23    2    4    4    0    0  0.59425875515E+03  0.10698687261E+04 -0.15477844186E+03  0.12371835659E+04  0.94362335634E+02 0.  0.
         23    2    4    4    0    0 -0.23160976959E+03  0.88024569211E+02  0.70766607062E+02  0.27345117697E+03  0.91521709766E+02 0.  0.
          1    1    3    3  502    0 -0.34061752242E+03 -0.10094894438E+04 -0.83892407433E+02  0.10687034994E+04  0.00000000000E+00 0. -1.
         -1    1    3    3    0  502 -0.22031463150E+02 -0.14840385154E+03  0.94631782649E+01  0.15032844130E+03  0.00000000000E+00 0.  1.
         13    1    5    5    0    0  0.57758182946E+03  0.99660466899E+03 -0.13722762366E+03  0.11600228690E+04  0.00000000000E+00 0.  1.
        -13    1    5    5    0    0  0.16676925694E+02  0.73264057107E+02 -0.17550818200E+02  0.77160696821E+02  0.00000000000E+00 0. -1.
          1    1    6    6  503    0  0.41553880534E+01 -0.19080834574E+01  0.14111606298E+02  0.14833929509E+02  0.00000000000E+00 0. -1.
         -1    1    6    6    0  503 -0.23576515764E+03  0.89932652668E+02  0.56655000764E+02  0.25861724746E+03  0.00000000000E+00 0.  1.
<mgrwt>
<rscale>  0 0.27250645E+04</rscale>
<asrwt>0</asrwt>
<pdfrwt beam="1">  1        1 0.22216213E+00 0.27250645E+04</pdfrwt>
<pdfrwt beam="2">  1       -1 0.19778659E+00 0.27250645E+04</pdfrwt>
<totfact> 0.97205108E-01</totfact>
</mgrwt>
</event>
<event>
12    3  0.4806716E-008  0.2288249E+04  0.7818608E-02  0.8482569E-01
         -2   -1    0    0    0  501 -0.00000000000E+00  0.00000000000E+00  0.18200177659E+04  0.18200177659E+04  0.00000000000E+00 0.  1.
          2   -1    0    0  501    0  0.00000000000E+00 -0.00000000000E+00 -0.71923538384E+03  0.71923538384E+03  0.00000000000E+00 0. -1.
         23    2    1    2    0    0 -0.43793283763E+03  0.22873787232E+02 -0.48702523512E+03  0.66162859451E+03  0.90831916243E+02 0.  0.
        254    2    1    2    0    0  0.43793283763E+03 -0.22873787232E+02  0.15878076172E+04  0.18776245552E+04  0.90112849294E+03 0.  0.
         23    2    4    4    0    0  0.51429238481E+03 -0.27354445055E+03  0.14554922672E+04  0.15703903494E+04  0.91350348269E+02 0.  0.
         23    2    4    4    0    0 -0.76359547185E+02  0.25067066331E+03  0.13231535000E+03  0.30723420584E+03  0.90658389017E+02 0.  0.
          3    1    3    3  502    0 -0.40938256531E+03  0.58028687486E+00 -0.42716998801E+03  0.59166597010E+03  0.00000000000E+00 0. -1.
         -3    1    3    3    0  502 -0.28550272316E+02  0.22293500357E+02 -0.59855247112E+02  0.69962624411E+02  0.00000000000E+00 0.  1.
         13    1    5    5    0    0  0.40696064281E+03 -0.17205862721E+03  0.10794099604E+04  0.11663391439E+04  0.00000000000E+00 0. -1.
        -13    1    5    5    0    0  0.10733174201E+03 -0.10148582334E+03  0.37608230678E+03  0.40405120549E+03  0.00000000000E+00 0.  1.
          1    1    6    6  503    0 -0.73696170156E+02  0.13546137680E+03  0.11108538700E+03  0.19005492181E+03  0.00000000000E+00 0. -1.
         -1    1    6    6    0  503 -0.26633770292E+01  0.11520928652E+03  0.21229963006E+02  0.11717928403E+03  0.00000000000E+00 0.  1.
<mgrwt>
<rscale>  0 0.22882493E+04</rscale>
<asrwt>0</asrwt>
<pdfrwt beam="1">  1        2 0.11065160E+00 0.22882493E+04</pdfrwt>
<pdfrwt beam="2">  1       -2 0.28000273E+00 0.22882493E+04</pdfrwt>
<totfact> 0.15128048E+00</totfact>
</mgrwt>
</event>
<event>
12    3  0.4806716E-008  0.1508680E+04  0.7818608E-02  0.8878701E-01
          1   -1    0    0  501    0  0.00000000000E+00  0.00000000000E+00  0.99971916066E+03  0.99971916066E+03  0.00000000000E+00 0. -1.
         -1   -1    0    0    0  501 -0.00000000000E+00 -0.00000000000E+00 -0.56918897108E+03  0.56918897108E+03  0.00000000000E+00 0.  1.
         23    2    1    2    0    0 -0.19400440714E+03 -0.91217115331E+02  0.59367908117E+03  0.63757537523E+03  0.89940177670E+02 0.  0.
        254    2    1    2    0    0  0.19400440714E+03  0.91217115331E+02 -0.16314889159E+03  0.93133275651E+03  0.89151829505E+03 0.  0.
         23    2    4    4    0    0 -0.20789982976E+03  0.16428767400E+03 -0.36989357946E+03  0.46403047989E+03  0.91050794068E+02 0.  0.
         23    2    4    4    0    0  0.40190423690E+03 -0.73070558674E+02  0.20674468787E+03  0.46730227662E+03  0.93604110967E+02 0.  0.
          1    1    3    3  502    0 -0.17827266984E+03 -0.85757019879E+02  0.58733374511E+03  0.61975506405E+03  0.00000000000E+00 0. -1.
         -1    1    3    3    0  502 -0.15731737302E+02 -0.54600954516E+01  0.63453360638E+01  0.17820311182E+02  0.00000000000E+00 0.  1.
         13    1    5    5    0    0 -0.29700402644E+02 -0.40050657747E+01 -0.73776560258E+02  0.79631245831E+02  0.00000000000E+00 0. -1.
        -13    1    5    5    0    0 -0.17819942711E+03  0.16829273978E+03 -0.29611701920E+03  0.38439923406E+03  0.00000000000E+00 0.  1.
          1    1    6    6  503    0  0.11334816762E+03  0.21206526815E+02  0.50537143343E+02  0.12590284643E+03  0.00000000000E+00 0. -1.
         -1    1    6    6    0  503  0.28855606928E+03 -0.94277085489E+02  0.15620754453E+03  0.34139943019E+03  0.00000000000E+00 0.  1.
<mgrwt>
<rscale>  0 0.15086804E+04</rscale>
<asrwt>0</asrwt>
<pdfrwt beam="1">  1        1 0.15380295E+00 0.15086804E+04</pdfrwt>
<pdfrwt beam="2">  1       -1 0.87567534E-01 0.15086804E+04</pdfrwt>
<totfact> 0.18780627E+01</totfact>
</mgrwt>
</event>
<event>
12    3  0.4806716E-008  0.1286162E+04  0.7818608E-02  0.9040611E-01
          1   -1    0    0  501    0  0.00000000000E+00  0.00000000000E+00  0.11879708969E+04  0.11879708969E+04  0.00000000000E+00 0. -1.
         -1   -1    0    0    0  501 -0.00000000000E+00 -0.00000000000E+00 -0.34811720532E+03  0.34811720532E+03  0.00000000000E+00 0.  1.
         23    2    1    2    0    0  0.23051034916E+03 -0.66090198325E+02  0.41118387693E+03  0.48655427532E+03  0.10079656144E+03 0.  0.
        254    2    1    2    0    0 -0.23051034916E+03  0.66090198325E+02  0.42866981462E+03  0.10495338269E+04  0.92750229564E+03 0.  0.
         23    2    4    4    0    0 -0.26414226351E+03  0.19381186624E+03 -0.20417087106E+03  0.39642940209E+03  0.90201726056E+02 0.  0.
         23    2    4    4    0    0  0.33631914348E+02 -0.12772166792E+03  0.63284068568E+03  0.65310442480E+03  0.92812316631E+02 0.  0.
          2    1    3    3  502    0  0.14961867646E+02 -0.27420471318E+01 -0.28667556969E+01  0.15478843437E+02  0.00000000000E+00 0. -1.
         -2    1    3    3    0  502  0.21554848151E+03 -0.63348151194E+02  0.41405063263E+03  0.47107543188E+03  0.00000000000E+00 0.  1.
         13    1    5    5    0    0 -0.26306988147E+02  0.57429048475E+01  0.58919796801E+01  0.27563635573E+02  0.00000000000E+00 0.  1.
        -13    1    5    5    0    0 -0.23783527536E+03  0.18806896140E+03 -0.21006285074E+03  0.36886576651E+03  0.00000000000E+00 0. -1.
          3    1    6    6  503    0 -0.63091929720E+01 -0.10203113600E+03  0.30106151866E+03  0.31794370043E+03  0.00000000000E+00 0. -1.
         -3    1    6    6    0  503  0.39941107320E+02 -0.25690531914E+02  0.33177916703E+03  0.33516072436E+03  0.00000000000E+00 0.  1.
<mgrwt>
<rscale>  0 0.12861619E+04</rscale>
<asrwt>0</asrwt>
<pdfrwt beam="1">  1        1 0.18276475E+00 0.12861619E+04</pdfrwt>
<pdfrwt beam="2">  1       -1 0.53556494E-01 0.12861619E+04</pdfrwt>
<totfact> 0.37724044E+01</totfact>
</mgrwt>
</event>
<event>
12    3  0.4806716E-008  0.2550186E+04  0.7818608E-02  0.8385322E-01
         -2   -1    0    0    0  501 -0.00000000000E+00  0.00000000000E+00  0.73016422612E+03  0.73016422612E+03  0.00000000000E+00 0.  1.
          2   -1    0    0  501    0  0.00000000000E+00 -0.00000000000E+00 -0.22267074914E+04  0.22267074914E+04  0.00000000000E+00 0. -1.
         23    2    1    2    0    0  0.27689542124E+03  0.77098853932E+03  0.23393373613E+03  0.85689123046E+03  0.91886810109E+02 0.  0.
        254    2    1    2    0    0 -0.27689542124E+03 -0.77098853932E+03 -0.17304770014E+04  0.20999804871E+04  0.86271257760E+03 0.  0.
         23    2    4    4    0    0 -0.34926000116E+03  0.42667720526E+02 -0.45722306899E+03  0.58454661316E+03  0.94014495489E+02 0.  0.
         23    2    4    4    0    0  0.72364579925E+02 -0.81365625985E+03 -0.12732539325E+04  0.15154338739E+04  0.89950586974E+02 0.  0.
          3    1    3    3  502    0 -0.71881405323E+01  0.25710970892E+02  0.57820396548E+01  0.27315844690E+02  0.00000000000E+00 0. -1.
         -3    1    3    3    0  502  0.28408356177E+03  0.74527756843E+03  0.22815169648E+03  0.82957538577E+03  0.00000000000E+00 0.  1.
         13    1    5    5    0    0 -0.27208650094E+03  0.27134276124E+02 -0.40978490841E+03  0.49263678719E+03  0.00000000000E+00 0.  1.
        -13    1    5    5    0    0 -0.77173500223E+02  0.15533444403E+02 -0.47438160580E+02  0.91909825976E+02  0.00000000000E+00 0. -1.
          3    1    6    6  503    0 -0.16526333210E+02 -0.27619655182E+03 -0.45007076370E+03  0.52831936105E+03  0.00000000000E+00 0. -1.
         -3    1    6    6    0  503  0.88890913135E+02 -0.53745970803E+03 -0.82318316876E+03  0.98711451287E+03  0.00000000000E+00 0.  1.
<mgrwt>
<rscale>  0 0.25501860E+04</rscale>
<asrwt>0</asrwt>
<pdfrwt beam="1">  1        2 0.34257038E+00 0.25501860E+04</pdfrwt>
<pdfrwt beam="2">  1       -2 0.11233296E+00 0.25501860E+04</pdfrwt>
<totfact> 0.27658005E+00</totfact>
</mgrwt>
</event>
<event>
12    3  0.4806716E-008  0.1789730E+04  0.7818608E-02  0.8711780E-01
          2   -1    0    0  501    0  0.00000000000E+00  0.00000000000E+00  0.62195676862E+03  0.62195676862E+03  0.00000000000E+00 0. -1.
         -2   -1    0    0    0  501 -0.00000000000E+00 -0.00000000000E+00 -0.12875230301E+04  0.12875230301E+04  0.00000000000E+00 0.  1.
         23    2    1    2    0    0  0.51013101809E+03  0.29207411697E+03  0.79076476729E+02  0.59958649824E+03  0.87806231443E+02 0.  0.
        254    2    1    2    0    0 -0.51013101809E+03 -0.29207411697E+03 -0.74464273821E+03  0.13098933005E+04  0.90320911512E+03 0.  0.
         23    2    4    4    0    0  0.53443216625E+02 -0.44320232116E+03 -0.48302420357E+03  0.66410601023E+03  0.91869128154E+02 0.  0.
         23    2    4    4    0    0 -0.56357423472E+03  0.15112820419E+03 -0.26161853464E+03  0.64578729024E+03  0.90229232687E+02 0.  0.
          2    1    3    3  502    0  0.47395097958E+03  0.29168522895E+03  0.63264276946E+02  0.56010014512E+03  0.00000000000E+00 0. -1.
         -2    1    3    3    0  502  0.36180038512E+02  0.38888802244E+00  0.15812199784E+02  0.39486353119E+02  0.00000000000E+00 0.  1.
         13    1    5    5    0    0  0.10942199710E+02 -0.28453956803E+02 -0.69272337075E+01  0.31262532832E+02  0.00000000000E+00 0.  1.
        -13    1    5    5    0    0  0.42501016915E+02 -0.41474836435E+03 -0.47609696987E+03  0.63284347740E+03  0.00000000000E+00 0. -1.
          4    1    6    6  503    0 -0.30294748073E+03  0.11147028621E+03 -0.10654655030E+03  0.33993377027E+03  0.00000000000E+00 0. -1.
         -4    1    6    6    0  503 -0.26062675399E+03  0.39657917979E+02 -0.15507198434E+03  0.30585351997E+03  0.00000000000E+00 0.  1.
<mgrwt>
<rscale>  0 0.17897303E+04</rscale>
<asrwt>0</asrwt>
<pdfrwt beam="1">  1        2 0.95685658E-01 0.17897303E+04</pdfrwt>
<pdfrwt beam="2">  1       -2 0.19808046E+00 0.17897303E+04</pdfrwt>
<totfact> 0.61366655E+00</totfact>
</mgrwt>
</event>
<event>
12    3  0.4806716E-008  0.1429351E+04  0.7818608E-02  0.8932843E-01
         -2   -1    0    0    0  501 -0.00000000000E+00  0.00000000000E+00  0.24551666924E+03  0.24551666924E+03  0.00000000000E+00 0.  1.
          2   -1    0    0  501    0  0.00000000000E+00 -0.00000000000E+00 -0.20803506764E+04  0.20803506764E+04  0.00000000000E+00 0. -1.
         23    2    1    2    0    0  0.34518548264E+03  0.23657196057E+03 -0.65224818838E+03  0.78032870605E+03  0.91465186227E+02 0.  0.
        254    2    1    2    0    0 -0.34518548264E+03 -0.23657196057E+03 -0.11825858188E+04  0.15455386396E+04  0.90280737578E+03 0.  0.
         23    2    4    4    0    0  0.43698975251E+02 -0.94229793905E+02 -0.11063060096E+04  0.11150114456E+04  0.92459085684E+02 0.  0.
         23    2    4    4    0    0 -0.38888445789E+03 -0.14234216666E+03 -0.76279809200E+02  0.43052719398E+03  0.89680775312E+02 0.  0.
          2    1    3    3  502    0  0.29570519006E+03  0.17122104510E+03 -0.47595432256E+03  0.58591016622E+03  0.00000000000E+00 0. -1.
         -2    1    3    3    0  502  0.49480292587E+02  0.65350915465E+02 -0.17629386582E+03  0.19441853984E+03  0.00000000000E+00 0.  1.
         13    1    5    5    0    0  0.53592014334E+01 -0.22874327039E+02 -0.46344823338E+02  0.51959585523E+02  0.00000000000E+00 0. -1.
        -13    1    5    5    0    0  0.38339773818E+02 -0.71355466865E+02 -0.10599611863E+04  0.10630518601E+04  0.00000000000E+00 0.  1.
          1    1    6    6  503    0 -0.57819817525E+02  0.65788165062E+01 -0.27101759513E+02  0.64194372759E+02  0.00000000000E+00 0. -1.
         -1    1    6    6    0  503 -0.33106464037E+03 -0.14892098317E+03 -0.49178049687E+02  0.36633282122E+03  0.00000000000E+00 0.  1.
<mgrwt>
<rscale>  0 0.14293506E+04</rscale>
<asrwt>0</asrwt>
<pdfrwt beam="1">  1        2 0.32005396E+00 0.14293506E+04</pdfrwt>
<pdfrwt beam="2">  1       -2 0.37771794E-01 0.14293506E+04</pdfrwt>
<totfact> 0.38743725E+01</totfact>
</mgrwt>
</event>
<event>
12    3  0.4806716E-008  0.1050384E+04  0.7818608E-02  0.9254948E-01
          3   -1    0    0  501    0  0.00000000000E+00  0.00000000000E+00  0.19848765863E+03  0.19848765863E+03  0.00000000000E+00 0. -1.
         -3   -1    0    0    0  501 -0.00000000000E+00 -0.00000000000E+00 -0.13896411731E+04  0.13896411731E+04  0.00000000000E+00 0.  1.
         23    2    1    2    0    0  0.29246347022E+02 -0.34433385914E+02 -0.71379079936E+01  0.10515987965E+03  0.94692363360E+02 0.  0.
        254    2    1    2    0    0 -0.29246347022E+02  0.34433385914E+02 -0.11840156065E+04  0.14829689521E+04  0.89177516761E+03 0.  0.
         23    2    4    4    0    0 -0.84109246425E+02 -0.23472401405E+03 -0.16960510754E+01  0.26577797798E+03  0.92007221916E+02 0.  0.
         23    2    4    4    0    0  0.54862899402E+02  0.26915739996E+03 -0.11823195554E+04  0.12171909741E+04  0.90657005674E+02 0.  0.
          4    1    3    3  502    0  0.44970684624E+02  0.18916691270E+02  0.18339825706E+01  0.48821789973E+02  0.00000000000E+00 0. -1.
         -4    1    3    3    0  502 -0.15724337602E+02 -0.53350077184E+02 -0.89718905642E+01  0.56338089681E+02  0.00000000000E+00 0.  1.
         13    1    5    5    0    0  0.75684745261E+01 -0.10482841056E+03 -0.15293101375E+02  0.10620808076E+03  0.00000000000E+00 0. -1.
        -13    1    5    5    0    0 -0.91677720951E+02 -0.12989560348E+03  0.13597050299E+02  0.15956989722E+03  0.00000000000E+00 0.  1.
          4    1    6    6  503    0 -0.24729143143E+02  0.46590576450E+02 -0.20103398010E+03  0.20783857556E+03  0.00000000000E+00 0. -1.
         -4    1    6    6    0  503  0.79592042546E+02  0.22256682351E+03 -0.98128557528E+03  0.10093523985E+04  0.00000000000E+00 0.  1.
<mgrwt>
<rscale>  0 0.10503840E+04</rscale>
<asrwt>0</asrwt>
<pdfrwt beam="1">  1        3 0.30536563E-01 0.10503840E+04</pdfrwt>
<pdfrwt beam="2">  1       -3 0.21379095E+00 0.10503840E+04</pdfrwt>
<totfact> 0.32990394E+00</totfact>
</mgrwt>
</event>
<event>
12    3  0.4806716E-008  0.1336387E+04  0.7818608E-02  0.9001197E-01
          2   -1    0    0  501    0  0.00000000000E+00  0.00000000000E+00  0.10197268368E+04  0.10197268368E+04  0.00000000000E+00 0. -1.
         -2   -1    0    0    0  501 -0.00000000000E+00 -0.00000000000E+00 -0.43784553422E+03  0.43784553422E+03  0.00000000000E+00 0.  1.
         23    2    1    2    0    0  0.36381663794E+02  0.25904036183E+03 -0.87732228180E+02  0.29145505178E+03  0.93933853463E+02 0.  0.
        254    2    1    2    0    0 -0.36381663794E+02 -0.25904036183E+03  0.66961353075E+03  0.11661173192E+04  0.91816217910E+03 0.  0.
         23    2    4    4    0    0 -0.17399903689E+03  0.18340477344E+03  0.63947058831E+03  0.69305605764E+03  0.86551082963E+02 0.  0.
         23    2    4    4    0    0  0.13761737309E+03 -0.44244513527E+03  0.30142942436E+02  0.47306126158E+03  0.90455077962E+02 0.  0.
          3    1    3    3  502    0  0.23051784370E+02  0.89931497708E+02  0.13646337117E+02  0.93836461779E+02  0.00000000000E+00 0. -1.
         -3    1    3    3    0  502  0.13329879424E+02  0.16910886413E+03 -0.10137856530E+03  0.19761859000E+03  0.00000000000E+00 0.  1.
         13    1    5    5    0    0 -0.72675358957E+02  0.13835809365E+03  0.38034942059E+03  0.41120597226E+03  0.00000000000E+00 0. -1.
        -13    1    5    5    0    0 -0.10132367793E+03  0.45046679784E+02  0.25912116772E+03  0.28185008538E+03  0.00000000000E+00 0.  1.
          4    1    6    6  503    0  0.86149080854E+02 -0.24060734079E+03  0.60327501878E+02  0.26258896408E+03  0.00000000000E+00 0. -1.
         -4    1    6    6    0  503  0.51468292238E+02 -0.20183779448E+03 -0.30184559442E+02  0.21047229750E+03  0.00000000000E+00 0.  1.
<mgrwt>
<rscale>  0 0.13363874E+04</rscale>
<asrwt>0</asrwt>
<pdfrwt beam="1">  1        2 0.15688105E+00 0.13363874E+04</pdfrwt>
<pdfrwt beam="2">  1       -2 0.67360852E-01 0.13363874E+04</pdfrwt>
<totfact> 0.48357637E+01</totfact>
</mgrwt>
</event>
<event>
12    3  0.4806716E-008  0.1277033E+04  0.7818608E-02  0.9047979E-01
          1   -1    0    0  501    0  0.00000000000E+00  0.00000000000E+00  0.24044989326E+03  0.24044989326E+03  0.00000000000E+00 0. -1.
         -1   -1    0    0    0  501 -0.00000000000E+00 -0.00000000000E+00 -0.16955862700E+04  0.16955862700E+04  0.00000000000E+00 0.  1.
         23    2    1    2    0    0 -0.65870622672E+02  0.73118300466E+02  0.84549244690E+02  0.15764109958E+03  0.89537236410E+02 0.  0.
        254    2    1    2    0    0  0.65870622672E+02 -0.73118300466E+02 -0.15396856214E+04  0.17783950637E+04  0.88451792795E+03 0.  0.
         23    2    4    4    0    0 -0.33490143253E+03  0.11482040766E+03 -0.10507499408E+04  0.11125776545E+04  0.91710980027E+02 0.  0.
         23    2    4    4    0    0  0.40077205521E+03 -0.18793870813E+03 -0.48893568066E+03  0.66581740912E+03  0.91189496196E+02 0.  0.
          1    1    3    3  502    0 -0.67024313111E+01  0.71948812612E+02  0.58543601538E+02  0.92999502702E+02  0.00000000000E+00 0. -1.
         -1    1    3    3    0  502 -0.59168191361E+02  0.11694878532E+01  0.26005643152E+02  0.64641596874E+02  0.00000000000E+00 0.  1.
         13    1    5    5    0    0 -0.17490618679E+03  0.59156281872E+02 -0.40720716770E+03  0.44711219765E+03  0.00000000000E+00 0. -1.
        -13    1    5    5    0    0 -0.15999524574E+03  0.55664125792E+02 -0.64354277307E+03  0.66546545690E+03  0.00000000000E+00 0.  1.
          3    1    6    6  503    0  0.29001541928E+03 -0.10026367741E+03 -0.29304873507E+03  0.42431039293E+03  0.00000000000E+00 0. -1.
         -3    1    6    6    0  503  0.11075663593E+03 -0.87675030718E+02 -0.19588694559E+03  0.24150701619E+03  0.00000000000E+00 0.  1.
<mgrwt>
<rscale>  0 0.12770333E+04</rscale>
<asrwt>0</asrwt>
<pdfrwt beam="1">  1        1 0.36992291E-01 0.12770333E+04</pdfrwt>
<pdfrwt beam="2">  1       -1 0.26085943E+00 0.12770333E+04</pdfrwt>
<totfact> 0.68369518E+00</totfact>
</mgrwt>
</event>
<event>
12    3  0.4806716E-008  0.1625684E+04  0.7818608E-02  0.8804923E-01
         -2   -1    0    0    0  501 -0.00000000000E+00  0.00000000000E+00  0.12026446620E+04  0.12026446620E+04  0.00000000000E+00 0.  1.
          2   -1    0    0  501    0  0.00000000000E+00 -0.00000000000E+00 -0.54938232698E+03  0.54938232698E+03  0.00000000000E+00 0. -1.
         23    2    1    2    0    0  0.38579952852E+03  0.36633216205E+03  0.18149070327E+02  0.53975711791E+03  0.89262693378E+02 0.  0.
        254    2    1    2    0    0 -0.38579952852E+03 -0.36633216205E+03  0.63511326467E+03  0.12122698710E+04  0.88497957724E+03 0.  0.
         23    2    4    4    0    0 -0.58144247886E+03 -0.44782899917E+03  0.28758861916E+03  0.79372753038E+03  0.93112887922E+02 0.  0.
         23    2    4    4    0    0  0.19564295034E+03  0.81496837124E+02  0.34752464551E+03  0.41854234066E+03  0.97398219735E+02 0.  0.
          4    1    3    3  502    0  0.37713873411E+03  0.35701309977E+03  0.32799823048E+02  0.52035353997E+03  0.00000000000E+00 0. -1.
         -4    1    3    3    0  502  0.86607944076E+01  0.93190622841E+01 -0.14650752721E+02  0.19403577941E+02  0.00000000000E+00 0.  1.
         13    1    5    5    0    0 -0.33604836184E+03 -0.21207935647E+03  0.18487808881E+03  0.43827624013E+03  0.00000000000E+00 0.  1.
        -13    1    5    5    0    0 -0.24539411702E+03 -0.23574964270E+03  0.10271053035E+03  0.35545129025E+03  0.00000000000E+00 0. -1.
          3    1    6    6  503    0  0.54618272804E+02  0.40462586030E+02  0.42954465204E+02  0.80408100794E+02  0.00000000000E+00 0. -1.
         -3    1    6    6    0  503  0.14102467754E+03  0.41034251094E+02  0.30457018031E+03  0.33813423987E+03  0.00000000000E+00 0.  1.
<mgrwt>
<rscale>  0 0.16256835E+04</rscale>
<asrwt>0</asrwt>
<pdfrwt beam="1">  1        2 0.84520358E-01 0.16256835E+04</pdfrwt>
<pdfrwt beam="2">  1       -2 0.18502225E+00 0.16256835E+04</pdfrwt>
<totfact> 0.88276816E+00</totfact>
</mgrwt>
</event>
<event>
12    3  0.4806716E-008  0.1362348E+04  0.7818608E-02  0.8981533E-01
          2   -1    0    0  501    0  0.00000000000E+00  0.00000000000E+00  0.66340074370E+03  0.66340074370E+03  0.00000000000E+00 0. -1.
         -2   -1    0    0    0  501 -0.00000000000E+00 -0.00000000000E+00 -0.69942342688E+03  0.69942342688E+03  0.00000000000E+00 0.  1.
         23    2    1    2    0    0  0.36216462876E+02  0.21698154129E+03 -0.31847133246E+03  0.40366054437E+03  0.11456537016E+03 0.  0.
        254    2    1    2    0    0 -0.36216462876E+02 -0.21698154129E+03  0.28244864929E+03  0.95916362620E+03  0.88984549271E+03 0.  0.
         23    2    4    4    0    0 -0.42802542136E+03 -0.69429489458E+02  0.29015849308E+03  0.53085512176E+03  0.97923408095E+02 0.  0.
         23    2    4    4    0    0  0.39180895848E+03 -0.14755205183E+03 -0.77098437912E+01  0.42830850445E+03  0.90015917182E+02 0.  0.
          1    1    3    3  502    0 -0.17484185793E+02  0.12207094691E+02 -0.92941953157E-01  0.21324130741E+02  0.00000000000E+00 0. -1.
         -1    1    3    3    0  502  0.53700648669E+02  0.20477444659E+03 -0.31837839051E+03  0.38233641363E+03  0.00000000000E+00 0.  1.
         13    1    5    5    0    0 -0.32657025745E+03 -0.70088802513E+02  0.17394913141E+03  0.37658846717E+03  0.00000000000E+00 0.  1.
        -13    1    5    5    0    0 -0.10145516391E+03  0.65931305534E+00  0.11620936167E+03  0.15426665459E+03  0.00000000000E+00 0. -1.
          2    1    6    6  503    0  0.14647150687E+03 -0.10255778795E+03 -0.39687560616E+01  0.17885120412E+03  0.00000000000E+00 0. -1.
         -2    1    6    6    0  503  0.24533745161E+03 -0.44994263881E+02 -0.37410877296E+01  0.24945730032E+03  0.00000000000E+00 0.  1.
<mgrwt>
<rscale>  0 0.13623480E+04</rscale>
<asrwt>0</asrwt>
<pdfrwt beam="1">  1        2 0.10206165E+00 0.13623480E+04</pdfrwt>
<pdfrwt beam="2">  1       -2 0.10760360E+00 0.13623480E+04</pdfrwt>
<totfact> 0.29648851E+01</totfact>
</mgrwt>
</event>
<event>
12    3  0.4806716E-008  0.1129662E+04  0.7818608E-02  0.9176754E-01
          1   -1    0    0  501    0  0.00000000000E+00  0.00000000000E+00  0.88525646441E+03  0.88525646441E+03  0.00000000000E+00 0. -1.
         -1   -1    0    0    0  501 -0.00000000000E+00 -0.00000000000E+00 -0.36038599834E+03  0.36038599834E+03  0.00000000000E+00 0.  1.
         23    2    1    2    0    0 -0.17390907318E+03  0.73056454716E+02  0.66531399290E+02  0.22011444738E+03  0.91882161175E+02 0.  0.
        254    2    1    2    0    0  0.17390907318E+03 -0.73056454716E+02  0.45833906678E+03  0.10255280154E+04  0.89780365273E+03 0.  0.
         23    2    4    4    0    0 -0.10877022318E+03 -0.23396804952E+03 -0.16357079348E+03  0.31804358776E+03  0.88455127553E+02 0.  0.
         23    2    4    4    0    0  0.28267929636E+03  0.16091159480E+03  0.62190986026E+03  0.70748442761E+03  0.89231245027E+02 0.  0.
          1    1    3    3  502    0 -0.38112877317E+02  0.17062130479E+02  0.59975556675E+02  0.73080606951E+02  0.00000000000E+00 0. -1.
         -1    1    3    3    0  502 -0.13579619587E+03  0.55994324237E+02  0.65558426155E+01  0.14703384043E+03  0.00000000000E+00 0.  1.
         13    1    5    5    0    0 -0.69911186187E+02 -0.11111325528E+03 -0.13029839903E+03  0.18496324565E+03  0.00000000000E+00 0.  1.
        -13    1    5    5    0    0 -0.38859036990E+02 -0.12285479424E+03 -0.33272394450E+02  0.13308034211E+03  0.00000000000E+00 0. -1.
          1    1    6    6  503    0  0.25313321858E+02 -0.85673756812E+01  0.30096484482E+02  0.40248758586E+02  0.00000000000E+00 0. -1.
         -1    1    6    6    0  503  0.25736597450E+03  0.16947897048E+03  0.59181337578E+03  0.66723566903E+03  0.00000000000E+00 0.  1.
<mgrwt>
<rscale>  0 0.11296620E+04</rscale>
<asrwt>0</asrwt>
<pdfrwt beam="1">  1        1 0.13619330E+00 0.11296620E+04</pdfrwt>
<pdfrwt beam="2">  1       -1 0.55444000E-01 0.11296620E+04</pdfrwt>
<totfact> 0.61209240E+01</totfact>
</mgrwt>
</event>
<event>
12    3  0.4806716E-008  0.1702670E+04  0.7818608E-02  0.8759843E-01
          1   -1    0    0  501    0  0.00000000000E+00  0.00000000000E+00  0.18723218633E+04  0.18723218633E+04  0.00000000000E+00 0. -1.
         -1   -1    0    0    0  501 -0.00000000000E+00 -0.00000000000E+00 -0.38709753403E+03  0.38709753403E+03  0.00000000000E+00 0.  1.
         23    2    1    2    0    0  0.53756002769E+02 -0.18416618334E+02 -0.26826076229E+03  0.28859191654E+03  0.89958757474E+02 0.  0.
        254    2    1    2    0    0 -0.53756002769E+02  0.18416618334E+02  0.17534850915E+04  0.19708274808E+04  0.89789872094E+03 0.  0.
         23    2    4    4    0    0 -0.17217555430E+02 -0.35519019672E+03  0.13979758479E+04  0.14457238690E+04  0.96563524277E+02 0.  0.
         23    2    4    4    0    0 -0.36538447339E+02  0.37360681505E+03  0.35550924370E+03  0.52510361176E+03  0.91814325376E+02 0.  0.
          3    1    3    3  502    0  0.38042157212E+02 -0.32430572419E+02 -0.55113678103E+02  0.74407427498E+02  0.00000000000E+00 0. -1.
         -3    1    3    3    0  502  0.15713845557E+02  0.14013954086E+02 -0.21314708418E+03  0.21418448904E+03  0.00000000000E+00 0.  1.
         13    1    5    5    0    0 -0.21254373546E+02 -0.35109980224E+02  0.27389648945E+03  0.27695441148E+03  0.00000000000E+00 0.  1.
        -13    1    5    5    0    0  0.40368181166E+01 -0.32008021650E+03  0.11240793584E+04  0.11687694575E+04  0.00000000000E+00 0. -1.
          3    1    6    6  503    0 -0.27233429888E+02  0.37535002927E+03  0.35100392982E+03  0.51461933789E+03  0.00000000000E+00 0. -1.
         -3    1    6    6    0  503 -0.93050174508E+01 -0.17432142179E+01  0.45053138731E+01  0.10484273874E+02  0.00000000000E+00 0.  1.
<mgrwt>
<rscale>  0 0.17026699E+04</rscale>
<asrwt>0</asrwt>
<pdfrwt beam="1">  1        1 0.28804951E+00 0.17026699E+04</pdfrwt>
<pdfrwt beam="2">  1       -1 0.59553468E-01 0.17026699E+04</pdfrwt>
<totfact> 0.98952950E+00</totfact>
</mgrwt>
</event>
<event>
12    3  0.4806716E-008  0.1680510E+04  0.7818608E-02  0.8772559E-01
         -2   -1    0    0    0  501 -0.00000000000E+00  0.00000000000E+00  0.31775408177E+03  0.31775408177E+03  0.00000000000E+00 0.  1.
          2   -1    0    0  501    0  0.00000000000E+00 -0.00000000000E+00 -0.22219337838E+04  0.22219337838E+04  0.00000000000E+00 0. -1.
         23    2    1    2    0    0 -0.21936240666E+03 -0.12316273207E+03 -0.16273040675E+04  0.16489685395E+04  0.87691459331E+02 0.  0.
        254    2    1    2    0    0  0.21936240666E+03  0.12316273207E+03 -0.27687563458E+03  0.89071932614E+03  0.80835133260E+03 0.  0.
         23    2    4    4    0    0 -0.41959278558E+02  0.33098071916E+03 -0.39487986687E+03  0.52487555937E+03  0.90859375140E+02 0.  0.
         23    2    4    4    0    0  0.26132168522E+03 -0.20781798708E+03  0.11800423229E+03  0.36584376678E+03  0.91865793038E+02 0.  0.
          1    1    3    3  502    0 -0.99711588977E+02 -0.96767613505E+02 -0.10206560565E+04  0.10300704625E+04  0.00000000000E+00 0. -1.
         -1    1    3    3    0  502 -0.11965081768E+03 -0.26395118569E+02 -0.60664801096E+03  0.61889807696E+03  0.00000000000E+00 0.  1.
         13    1    5    5    0    0  0.24960869047E+02  0.15021511054E+03 -0.15721060658E+03  0.21886708121E+03  0.00000000000E+00 0. -1.
        -13    1    5    5    0    0 -0.66920147605E+02  0.18076560862E+03 -0.23766926029E+03  0.30600847815E+03  0.00000000000E+00 0.  1.
          4    1    6    6  503    0  0.75115069147E+02 -0.81683943168E+02  0.82214826198E+02  0.13810799336E+03  0.00000000000E+00 0. -1.
         -4    1    6    6    0  503  0.18620661607E+03 -0.12613404392E+03  0.35789406089E+02  0.22773577341E+03  0.00000000000E+00 0.  1.
<mgrwt>
<rscale>  0 0.16805101E+04</rscale>
<asrwt>0</asrwt>
<pdfrwt beam="1">  1        2 0.34183598E+00 0.16805101E+04</pdfrwt>
<pdfrwt beam="2">  1       -2 0.48885242E-01 0.16805101E+04</pdfrwt>
<totfact> 0.18963607E+01</totfact>
</mgrwt>
</event>
<event>
12    3  0.4806716E-008  0.1550180E+04  0.7818608E-02  0.8851753E-01
         -2   -1    0    0    0  501 -0.00000000000E+00  0.00000000000E+00  0.81511948841E+03  0.81511948841E+03  0.00000000000E+00 0.  1.
          2   -1    0    0  501    0  0.00000000000E+00 -0.00000000000E+00 -0.73702653550E+03  0.73702653550E+03  0.00000000000E+00 0. -1.
         23    2    1    2    0    0 -0.26955273270E+03  0.79226038893E+01  0.46020370166E+03  0.54126101623E+03  0.91948884247E+02 0.  0.
        254    2    1    2    0    0  0.26955273270E+03 -0.79226038893E+01 -0.38211074875E+03  0.10108850077E+04  0.89619106840E+03 0.  0.
         23    2    4    4    0    0  0.52949887884E+03 -0.22769241833E+03 -0.23861212466E+03  0.63047652550E+03  0.91389294358E+02 0.  0.
         23    2    4    4    0    0 -0.25994614614E+03  0.21976981444E+03 -0.14349862409E+03  0.38040848217E+03  0.90818434056E+02 0.  0.
          4    1    3    3  502    0 -0.74247655487E+01 -0.87687089003E+01  0.69704585415E+02  0.70645216590E+02  0.00000000000E+00 0. -1.
         -4    1    3    3    0  502 -0.26212796715E+03  0.16691312790E+02  0.39049911624E+03  0.47061579964E+03  0.00000000000E+00 0.  1.
         13    1    5    5    0    0  0.46673051324E+03 -0.18276703174E+03 -0.17652235149E+03  0.53141443381E+03  0.00000000000E+00 0. -1.
        -13    1    5    5    0    0  0.62768365595E+02 -0.44925386588E+02 -0.62089773164E+02  0.99062091695E+02  0.00000000000E+00 0.  1.
          2    1    6    6  503    0 -0.95972404014E+02  0.66242681308E+02 -0.95454414585E+02  0.15069950372E+03  0.00000000000E+00 0. -1.
         -2    1    6    6    0  503 -0.16397374212E+03  0.15352713313E+03 -0.48044209503E+02  0.22970897845E+03  0.00000000000E+00 0.  1.
<mgrwt>
<rscale>  0 0.15501802E+04</rscale>
<asrwt>0</asrwt>
<pdfrwt beam="1">  1        2 0.11338870E+00 0.15501802E+04</pdfrwt>
<pdfrwt beam="2">  1       -2 0.12540300E+00 0.15501802E+04</pdfrwt>
<totfact> 0.17557240E+01</totfact>
</mgrwt>
</event>
<event>
12    3  0.4806716E-008  0.1652737E+04  0.7818608E-02  0.8788789E-01
          3   -1    0    0  501    0  0.00000000000E+00  0.00000000000E+00  0.10037793138E+04  0.10037793138E+04  0.00000000000E+00 0. -1.
         -3   -1    0    0    0  501 -0.00000000000E+00 -0.00000000000E+00 -0.68031408622E+03  0.68031408622E+03  0.00000000000E+00 0.  1.
         23    2    1    2    0    0 -0.16209420455E+03 -0.24424268129E+03 -0.39770214085E+03  0.50219664746E+03  0.90030335872E+02 0.  0.
        254    2    1    2    0    0  0.16209420455E+03  0.24424268129E+03  0.72116736847E+03  0.11818967526E+04  0.88930790054E+03 0.  0.
         23    2    4    4    0    0 -0.30215635350E+03  0.32763141977E+03  0.31263287636E+03  0.55189582876E+03  0.90602876571E+02 0.  0.
         23    2    4    4    0    0  0.46425055805E+03 -0.83388738482E+02  0.40853449210E+03  0.63000092384E+03  0.86709113998E+02 0.  0.
          3    1    3    3  502    0 -0.12930383198E+02 -0.31591781102E+02 -0.10719302763E+03  0.11249702492E+03  0.00000000000E+00 0. -1.
         -3    1    3    3    0  502 -0.14916382135E+03 -0.21265090019E+03 -0.29050911322E+03  0.38969962255E+03  0.00000000000E+00 0.  1.
         13    1    5    5    0    0 -0.23432672003E+03  0.21101977831E+03  0.18191144449E+03  0.36404688186E+03  0.00000000000E+00 0.  1.
        -13    1    5    5    0    0 -0.67829633472E+02  0.11661164146E+03  0.13072143188E+03  0.18784894690E+03  0.00000000000E+00 0. -1.
          3    1    6    6  503    0  0.16937490624E+03 -0.61560218503E+02  0.11763081677E+03  0.21520810491E+03  0.00000000000E+00 0. -1.
         -3    1    6    6    0  503  0.29487565181E+03 -0.21828519979E+02  0.29090367533E+03  0.41479281893E+03  0.00000000000E+00 0.  1.
<mgrwt>
<rscale>  0 0.16527374E+04</rscale>
<asrwt>0</asrwt>
<pdfrwt beam="1">  1        3 0.15442759E+00 0.16527374E+04</pdfrwt>
<pdfrwt beam="2">  1       -3 0.10466371E+00 0.16527374E+04</pdfrwt>
<totfact> 0.58855692E-01</totfact>
</mgrwt>
</event>
<event>
12    3  0.4806716E-008  0.1980082E+04  0.7818608E-02  0.8615990E-01
         -1   -1    0    0    0  501 -0.00000000000E+00  0.00000000000E+00  0.77549379455E+03  0.77549379455E+03  0.00000000000E+00 0.  1.
          1   -1    0    0  501    0  0.00000000000E+00 -0.00000000000E+00 -0.12639446272E+04  0.12639446272E+04  0.00000000000E+00 0. -1.
         23    2    1    2    0    0 -0.35917054890E+03 -0.70155326472E+03  0.72867393264E+02  0.79669804037E+03  0.90761468114E+02 0.  0.
        254    2    1    2    0    0  0.35917054890E+03  0.70155326472E+03 -0.56131822595E+03  0.12427403814E+04  0.77983654592E+03 0.  0.
         23    2    4    4    0    0 -0.13704027197E+03  0.53550641183E+03 -0.39735811913E+03  0.68691110418E+03  0.91685532951E+02 0.  0.
         23    2    4    4    0    0  0.49621082087E+03  0.16604685289E+03 -0.16396010682E+03  0.55582927722E+03  0.90920474508E+02 0.  0.
          1    1    3    3  502    0 -0.10632896813E+03 -0.12792513558E+03  0.21249577479E+02  0.16769685244E+03  0.00000000000E+00 0. -1.
         -1    1    3    3    0  502 -0.25284158077E+03 -0.57362812915E+03  0.51617815785E+02  0.62900118794E+03  0.00000000000E+00 0.  1.
         13    1    5    5    0    0 -0.25480053963E+02  0.23279106923E+02 -0.37990413115E+02  0.51326615491E+02  0.00000000000E+00 0. -1.
        -13    1    5    5    0    0 -0.11156021801E+03  0.51222730491E+03 -0.35936770602E+03  0.63558448869E+03  0.00000000000E+00 0.  1.
          3    1    6    6  503    0  0.38202826652E+02  0.36209465610E+02 -0.97220801227E+00  0.52645289935E+02  0.00000000000E+00 0. -1.
         -3    1    6    6    0  503  0.45800799422E+03  0.12983738728E+03 -0.16298789881E+03  0.50318398729E+03  0.00000000000E+00 0.  1.
<mgrwt>
<rscale>  0 0.19800820E+04</rscale>
<asrwt>0</asrwt>
<pdfrwt beam="1">  1        1 0.19445302E+00 0.19800820E+04</pdfrwt>
<pdfrwt beam="2">  1       -1 0.11930674E+00 0.19800820E+04</pdfrwt>
<totfact> 0.56029572E+00</totfact>
</mgrwt>
</event>
<event>
12    3  0.4806716E-008  0.2527566E+04  0.7818608E-02  0.8393230E-01
         -1   -1    0    0    0  501 -0.00000000000E+00  0.00000000000E+00  0.13015392601E+04  0.13015392601E+04  0.00000000000E+00 0.  1.
          1   -1    0    0  501    0  0.00000000000E+00 -0.00000000000E+00 -0.12271220880E+04  0.12271220880E+04  0.00000000000E+00 0. -1.
         23    2    1    2    0    0  0.80668990440E+03 -0.73435067377E+03 -0.14094910676E+03  0.11036417431E+04  0.90216032584E+02 0.  0.
        254    2    1    2    0    0 -0.80668990440E+03  0.73435067377E+03  0.21536627885E+03  0.14250196049E+04  0.89122316309E+03 0.  0.
         23    2    4    4    0    0 -0.71912825092E+03  0.48117352235E+03  0.51614592385E+03  0.10118586483E+04  0.93690499091E+02 0.  0.
         23    2    4    4    0    0 -0.87561653477E+02  0.25317715142E+03 -0.30077964501E+03  0.41316095659E+03  0.92021019536E+02 0.  0.
          3    1    3    3  502    0  0.36911839031E+03 -0.38347356694E+03 -0.97185076023E+02  0.54105942521E+03  0.00000000000E+00 0. -1.
         -3    1    3    3    0  502  0.43757151409E+03 -0.35087710683E+03 -0.43764030741E+02  0.56258231791E+03  0.00000000000E+00 0.  1.
         13    1    5    5    0    0 -0.47934440295E+03  0.36595485113E+03  0.33321705686E+03  0.68900480164E+03  0.00000000000E+00 0.  1.
        -13    1    5    5    0    0 -0.23978384797E+03  0.11521867122E+03  0.18292886700E+03  0.32285384669E+03  0.00000000000E+00 0. -1.
          1    1    6    6  503    0 -0.77849843391E+02  0.89583983914E+02 -0.14067891355E+03  0.18405554870E+03  0.00000000000E+00 0. -1.
         -1    1    6    6    0  503 -0.97118100866E+01  0.16359316750E+03 -0.16010073146E+03  0.22910540789E+03  0.00000000000E+00 0.  1.
<mgrwt>
<rscale>  0 0.25275661E+04</rscale>
<asrwt>0</asrwt>
<pdfrwt beam="1">  1        1 0.18878801E+00 0.25275661E+04</pdfrwt>
<pdfrwt beam="2">  1       -1 0.20023681E+00 0.25275661E+04</pdfrwt>
<totfact> 0.13567742E+00</totfact>
</mgrwt>
</event>
<event>
12    3  0.4806716E-008  0.1578659E+04  0.7818608E-02  0.8833767E-01
         -3   -1    0    0    0  501 -0.00000000000E+00  0.00000000000E+00  0.59213678367E+03  0.59213678367E+03  0.00000000000E+00 0.  1.
          3   -1    0    0  501    0  0.00000000000E+00 -0.00000000000E+00 -0.10521914422E+04  0.10521914422E+04  0.00000000000E+00 0. -1.
         23    2    1    2    0    0 -0.43176878921E+03  0.30875071577E+03 -0.19236190761E+03  0.57140303434E+03  0.88017227479E+02 0.  0.
        254    2    1    2    0    0  0.43176878921E+03 -0.30875071577E+03 -0.26769275087E+03  0.10729251915E+04  0.89317286447E+03 0.  0.
         23    2    4    4    0    0  0.40886950026E+03 -0.40501348374E+02 -0.53654150904E+03  0.68220191655E+03  0.93316861078E+02 0.  0.
         23    2    4    4    0    0  0.22899288947E+02 -0.26824936739E+03  0.26884875817E+03  0.39072327493E+03  0.88898381676E+02 0.  0.
          1    1    3    3  502    0 -0.16554759839E+03  0.13615718310E+03 -0.12122595595E+03  0.24625295579E+03  0.00000000000E+00 0. -1.
         -1    1    3    3    0  502 -0.26622119082E+03  0.17259353267E+03 -0.71135951665E+02  0.32515007855E+03  0.00000000000E+00 0.  1.
         13    1    5    5    0    0  0.21348640661E+03 -0.57361899921E+02 -0.23623068032E+03  0.32353016505E+03  0.00000000000E+00 0. -1.
        -13    1    5    5    0    0  0.19538309365E+03  0.16860551546E+02 -0.30031082872E+03  0.35867175150E+03  0.00000000000E+00 0.  1.
          2    1    6    6  503    0  0.30502040117E+02 -0.43170848586E+02  0.23996428983E+02  0.58051057035E+02  0.00000000000E+00 0.  1.
         -2    1    6    6    0  503 -0.76027511696E+01 -0.22507851881E+03  0.24485232918E+03  0.33267221790E+03  0.00000000000E+00 0. -1.
<mgrwt>
<rscale>  0 0.15786592E+04</rscale>
<asrwt>0</asrwt>
<pdfrwt beam="1">  1        3 0.16187560E+00 0.15786592E+04</pdfrwt>
<pdfrwt beam="2">  1       -3 0.91097968E-01 0.15786592E+04</pdfrwt>
<totfact> 0.72230023E-01</totfact>
</mgrwt>
</event>
<event>
12    3  0.4806716E-008  0.1532473E+04  0.7818608E-02  0.8863141E-01
         -1   -1    0    0    0  501 -0.00000000000E+00  0.00000000000E+00  0.53556529258E+03  0.53556529258E+03  0.00000000000E+00 0.  1.
          1   -1    0    0  501    0  0.00000000000E+00 -0.00000000000E+00 -0.10962589500E+04  0.10962589500E+04  0.00000000000E+00 0. -1.
         23    2    1    2    0    0  0.45262825754E+03 -0.11463399186E+03 -0.42989852799E+03  0.64107942115E+03  0.90314939166E+02 0.  0.
        254    2    1    2    0    0 -0.45262825754E+03  0.11463399186E+03 -0.13079512946E+03  0.99074482147E+03  0.86397606667E+03 0.  0.
         23    2    4    4    0    0  0.19590107309E+03  0.16518048664E+03 -0.18837276211E+03  0.33132636127E+03  0.92903372186E+02 0.  0.
         23    2    4    4    0    0 -0.64852933063E+03 -0.50546494781E+02  0.57577632644E+02  0.65941846020E+03  0.91500169680E+02 0.  0.
          3    1    3    3  502    0  0.96318992967E+02 -0.38552524107E+02 -0.14640151108E+03  0.17943535874E+03  0.00000000000E+00 0. -1.
         -3    1    3    3    0  502  0.35630926457E+03 -0.76081467752E+02 -0.28349701692E+03  0.46164406241E+03  0.00000000000E+00 0.  1.
         13    1    5    5    0    0  0.18381256336E+03  0.17570599353E+03 -0.16550311511E+03  0.30339897119E+03  0.00000000000E+00 0. -1.
        -13    1    5    5    0    0  0.12088509735E+02 -0.10525506886E+02 -0.22869646998E+02  0.27927390079E+02  0.00000000000E+00 0.  1.
          4    1    6    6  503    0 -0.34212199583E+03 -0.69271515633E+02  0.47427634733E+02  0.35227174659E+03  0.00000000000E+00 0. -1.
         -4    1    6    6    0  503 -0.30640733480E+03  0.18725020851E+02  0.10149997912E+02  0.30714671361E+03  0.00000000000E+00 0.  1.
<mgrwt>
<rscale>  0 0.15324728E+04</rscale>
<asrwt>0</asrwt>
<pdfrwt beam="1">  1        1 0.16865522E+00 0.15324728E+04</pdfrwt>
<pdfrwt beam="2">  1       -1 0.82394662E-01 0.15324728E+04</pdfrwt>
<totfact> 0.18033088E+01</totfact>
</mgrwt>
</event>
<event>
12    3  0.4806716E-008  0.2047440E+04  0.7818608E-02  0.8584756E-01
          1   -1    0    0  501    0  0.00000000000E+00  0.00000000000E+00  0.63621419122E+03  0.63621419122E+03  0.00000000000E+00 0. -1.
         -1   -1    0    0    0  501 -0.00000000000E+00 -0.00000000000E+00 -0.16472484646E+04  0.16472484646E+04  0.00000000000E+00 0.  1.
         23    2    1    2    0    0  0.47422886755E+03 -0.62988124093E+03 -0.78462353915E+03  0.11166847034E+04  0.98525286487E+02 0.  0.
        254    2    1    2    0    0 -0.47422886755E+03  0.62988124093E+03 -0.22641073420E+03  0.11667779524E+04  0.82973825583E+03 0.  0.
         23    2    4    4    0    0  0.16220197499E+02  0.19889995234E+03 -0.42483714639E+03  0.47828350601E+03  0.91892466097E+02 0.  0.
         23    2    4    4    0    0 -0.49044906505E+03  0.43098128859E+03  0.19842641219E+03  0.68849444640E+03  0.91468055381E+02 0.  0.
          4    1    3    3  502    0  0.15811870909E+03 -0.28446779245E+03 -0.29590593702E+03  0.43986790593E+03  0.00000000000E+00 0. -1.
         -4    1    3    3    0  502  0.31611015846E+03 -0.34541344848E+03 -0.48871760213E+03  0.67681679744E+03  0.00000000000E+00 0.  1.
         13    1    5    5    0    0 -0.16545472529E+02  0.10823788645E+02 -0.11217977804E+02  0.22732137775E+02  0.00000000000E+00 0. -1.
        -13    1    5    5    0    0  0.32765670028E+02  0.18807616370E+03 -0.41361916858E+03  0.45555136824E+03  0.00000000000E+00 0.  1.
          3    1    6    6  503    0 -0.18564147367E+03  0.14585396471E+03  0.11604146249E+03  0.26306226788E+03  0.00000000000E+00 0. -1.
         -3    1    6    6    0  503 -0.30480759138E+03  0.28512732388E+03  0.82384949704E+02  0.42543217852E+03  0.00000000000E+00 0.  1.
<mgrwt>
<rscale>  0 0.20474402E+04</rscale>
<asrwt>0</asrwt>
<pdfrwt beam="1">  1        1 0.97879106E-01 0.20474402E+04</pdfrwt>
<pdfrwt beam="2">  1       -1 0.25342284E+00 0.20474402E+04</pdfrwt>
<totfact> 0.19233770E+00</totfact>
</mgrwt>
</event>
<event>
12    3  0.4806716E-008  0.1820935E+04  0.7818608E-02  0.8695245E-01
          1   -1    0    0  501    0  0.00000000000E+00  0.00000000000E+00  0.33512988315E+04  0.33512988315E+04  0.00000000000E+00 0. -1.
         -1   -1    0    0    0  501 -0.00000000000E+00 -0.00000000000E+00 -0.24735220967E+03  0.24735220967E+03  0.00000000000E+00 0.  1.
         23    2    1    2    0    0 -0.16327958988E+03  0.10196680817E+03 -0.12106457369E+03  0.24532347786E+03  0.92030013299E+02 0.  0.
        254    2    1    2    0    0  0.16327958988E+03 -0.10196680817E+03  0.32250111955E+04  0.33533275633E+04  0.89836021795E+03 0.  0.
         23    2    4    4    0    0  0.30516405765E+03 -0.43443363651E+03  0.21015697856E+04  0.21695499028E+04  0.92160352817E+02 0.  0.
         23    2    4    4    0    0 -0.14188446778E+03  0.33246682835E+03  0.11234414099E+04  0.11837776605E+04  0.92431345987E+02 0.  0.
          3    1    3    3  502    0 -0.65105903677E+02  0.94681710234E+02 -0.63493237955E+02  0.13128136278E+03  0.00000000000E+00 0. -1.
         -3    1    3    3    0  502 -0.98173686201E+02  0.72850979312E+01 -0.57571335739E+02  0.11404211508E+03  0.00000000000E+00 0.  1.
         13    1    5    5    0    0  0.18604896502E+02 -0.37464233849E+00  0.81214172856E+02  0.83318811822E+02  0.00000000000E+00 0. -1.
        -13    1    5    5    0    0  0.28655916115E+03 -0.43405899417E+03  0.20203556127E+04  0.20862310910E+04  0.00000000000E+00 0.  1.
          1    1    6    6  503    0 -0.41017281717E+02  0.95691813467E+02  0.20449805158E+03  0.22947503931E+03  0.00000000000E+00 0. -1.
         -1    1    6    6    0  503 -0.10086718606E+03  0.23677501488E+03  0.91894335836E+03  0.95430262117E+03  0.00000000000E+00 0.  1.
<mgrwt>
<rscale>  0 0.18209351E+04</rscale>
<asrwt>0</asrwt>
<pdfrwt beam="1">  1        1 0.51558440E+00 0.18209351E+04</pdfrwt>
<pdfrwt beam="2">  1       -1 0.38054189E-01 0.18209351E+04</pdfrwt>
<totfact> 0.20607181E+00</totfact>
</mgrwt>
</event>
<event>
12    3  0.4806716E-008  0.1002650E+04  0.7818608E-02  0.9305643E-01
         -2   -1    0    0    0  501 -0.00000000000E+00  0.00000000000E+00  0.80673147326E+02  0.80673147326E+02  0.00000000000E+00 0.  1.
          2   -1    0    0  501    0  0.00000000000E+00 -0.00000000000E+00 -0.31153699122E+04  0.31153699122E+04  0.00000000000E+00 0. -1.
         23    2    1    2    0    0 -0.50694332942E+02  0.43292668019E+01 -0.29398294997E+03  0.31181156065E+03  0.90619073811E+02 0.  0.
        254    2    1    2    0    0  0.50694332942E+02 -0.43292668019E+01 -0.27407138149E+04  0.28842314988E+04  0.89704540908E+03 0.  0.
         23    2    4    4    0    0  0.17812455913E+03  0.26020534705E+03 -0.37214131737E+03  0.49576486772E+03  0.88647971041E+02 0.  0.
         23    2    4    4    0    0 -0.12743022619E+03 -0.26453461386E+03 -0.23685724975E+04  0.23884666311E+04  0.91761362225E+02 0.  0.
          3    1    3    3  502    0 -0.39604017904E+02  0.16432671373E+02 -0.29216560951E+03  0.29529519858E+03  0.00000000000E+00 0. -1.
         -3    1    3    3    0  502 -0.11090315038E+02 -0.12103404571E+02 -0.18173404634E+01  0.16516362076E+02  0.00000000000E+00 0.  1.
         13    1    5    5    0    0 -0.76217147756E+01  0.27578771731E+01 -0.24365637189E+01  0.84636437412E+01  0.00000000000E+00 0.  1.
        -13    1    5    5    0    0  0.18574627391E+03  0.25744746988E+03 -0.36970475365E+03  0.48730122398E+03  0.00000000000E+00 0. -1.
          3    1    6    6  503    0 -0.13742336976E+03 -0.26379015763E+03 -0.22759552687E+04  0.22953088714E+04  0.00000000000E+00 0. -1.
         -3    1    6    6    0  503  0.99931435678E+01 -0.74445622395E+00 -0.92617228791E+02  0.93157759754E+02  0.00000000000E+00 0.  1.
<mgrwt>
<rscale>  0 0.10026499E+04</rscale>
<asrwt>0</asrwt>
<pdfrwt beam="1">  1        2 0.47928770E+00 0.10026499E+04</pdfrwt>
<pdfrwt beam="2">  1       -2 0.12411253E-01 0.10026499E+04</pdfrwt>
<totfact> 0.72812775E+01</totfact>
</mgrwt>
</event>
<event>
12    3  0.4806716E-008  0.1746975E+04  0.7818608E-02  0.8735017E-01
         -3   -1    0    0    0  501 -0.00000000000E+00  0.00000000000E+00  0.14573898607E+04  0.14573898607E+04  0.00000000000E+00 0.  1.
          3   -1    0    0  501    0  0.00000000000E+00 -0.00000000000E+00 -0.52352530795E+03  0.52352530795E+03  0.00000000000E+00 0. -1.
         23    2    1    2    0    0  0.14148238337E+03  0.14911008778E+03  0.10416900187E+04  0.10657835609E+04  0.92333204229E+02 0.  0.
        254    2    1    2    0    0 -0.14148238337E+03 -0.14911008778E+03 -0.10782546593E+03  0.91513160774E+03  0.88520531251E+03 0.  0.
         23    2    4    4    0    0 -0.18019248637E+02  0.20638181489E+03  0.28348703752E+03  0.36429394811E+03  0.97092910906E+02 0.  0.
         23    2    4    4    0    0 -0.12346313473E+03 -0.35549190267E+03 -0.39131250346E+03  0.55083765963E+03  0.93161222601E+02 0.  0.
          4    1    3    3  502    0  0.48330144854E+02  0.87343800751E+02  0.31191795314E+03  0.32750198767E+03  0.00000000000E+00 0. -1.
         -4    1    3    3    0  502  0.93152238518E+02  0.61766287033E+02  0.72977206554E+03  0.73828157324E+03  0.00000000000E+00 0.  1.
         13    1    5    5    0    0 -0.44408952133E+02  0.38326931884E+02  0.70849288006E+02  0.91982228436E+02  0.00000000000E+00 0. -1.
        -13    1    5    5    0    0  0.26389703496E+02  0.16805488300E+03  0.21263774952E+03  0.27231171967E+03  0.00000000000E+00 0.  1.
          4    1    6    6  503    0  0.38541836681E+01 -0.50869977063E+01  0.39381987908E+01  0.74994457879E+01  0.00000000000E+00 0. -1.
         -4    1    6    6    0  503 -0.12731731840E+03 -0.35040490496E+03 -0.39525070225E+03  0.54333821384E+03  0.00000000000E+00 0.  1.
<mgrwt>
<rscale>  0 0.17469751E+04</rscale>
<asrwt>0</asrwt>
<pdfrwt beam="1">  1        3 0.80542356E-01 0.17469751E+04</pdfrwt>
<pdfrwt beam="2">  1       -3 0.22421382E+00 0.17469751E+04</pdfrwt>
<totfact> 0.36920358E-01</totfact>
</mgrwt>
</event>
<event>
12    3  0.4806716E-008  0.2249271E+04  0.7818608E-02  0.8498196E-01
         -4   -1    0    0    0  501 -0.00000000000E+00  0.00000000000E+00  0.16078758155E+04  0.16078758155E+04  0.00000000000E+00 0.  1.
          4   -1    0    0  501    0  0.00000000000E+00 -0.00000000000E+00 -0.78663078719E+03  0.78663078719E+03  0.00000000000E+00 0. -1.
         23    2    1    2    0    0 -0.81649377363E+03  0.13831134883E+03  0.82462958703E+03  0.11722150926E+04  0.91006351481E+02 0.  0.
        254    2    1    2    0    0  0.81649377363E+03 -0.13831134883E+03 -0.33845587388E+01  0.12222915100E+04  0.89899553318E+03 0.  0.
         23    2    4    4    0    0  0.42505259784E+03 -0.24031203465E+03 -0.40767455024E+03  0.64256968100E+03  0.90981707464E+02 0.  0.
         23    2    4    4    0    0  0.39144117579E+03  0.10200068583E+03  0.40428999150E+03  0.57972182904E+03  0.94850766067E+02 0.  0.
          1    1    3    3  502    0 -0.97083545606E+02  0.22460283983E+02  0.14391755469E+03  0.17504839825E+03  0.00000000000E+00 0. -1.
         -1    1    3    3    0  502 -0.71941022802E+03  0.11585106484E+03  0.68071203235E+03  0.99716669438E+03  0.00000000000E+00 0.  1.
         13    1    5    5    0    0  0.58939661869E+02 -0.51914197939E+02 -0.30729061155E+02  0.84340043208E+02  0.00000000000E+00 0. -1.
        -13    1    5    5    0    0  0.36611293597E+03 -0.18839783671E+03 -0.37694548908E+03  0.55822963779E+03  0.00000000000E+00 0.  1.
          3    1    6    6  503    0  0.14890218227E+03 -0.11069998262E+00  0.11130868829E+03  0.18590722479E+03  0.00000000000E+00 0. -1.
         -3    1    6    6    0  503  0.24253899351E+03  0.10211138581E+03  0.29298130321E+03  0.39381460425E+03  0.00000000000E+00 0.  1.
<mgrwt>
<rscale>  0 0.22492707E+04</rscale>
<asrwt>0</asrwt>
<pdfrwt beam="1">  1        4 0.12102012E+00 0.22492707E+04</pdfrwt>
<pdfrwt beam="2">  1       -4 0.24736551E+00 0.22492707E+04</pdfrwt>
<totfact> 0.61844090E-02</totfact>
</mgrwt>
</event>
<event>
12    3  0.4806716E-008  0.2079237E+04  0.7818608E-02  0.8570445E-01
         -1   -1    0    0    0  501 -0.00000000000E+00  0.00000000000E+00  0.15811324108E+04  0.15811324108E+04  0.00000000000E+00 0.  1.
          1   -1    0    0  501    0  0.00000000000E+00 -0.00000000000E+00 -0.68356480373E+03  0.68356480373E+03  0.00000000000E+00 0. -1.
         23    2    1    2    0    0 -0.23434522111E+03 -0.79790506264E+03  0.22474467664E+03  0.86636865220E+03  0.92272965618E+02 0.  0.
        254    2    1    2    0    0  0.23434522111E+03  0.79790506264E+03  0.67282293040E+03  0.13983285623E+04  0.90058975170E+03 0.  0.
         23    2    4    4    0    0  0.16279083534E+03  0.92393973041E+03  0.75140313813E+03  0.12054623655E+04  0.91473258518E+02 0.  0.
         23    2    4    4    0    0  0.71554385773E+02 -0.12603466777E+03 -0.78580207729E+02  0.19286619687E+03  0.10008872686E+03 0.  0.
          4    1    3    3  502    0 -0.16681710365E+03 -0.61124820424E+03  0.13169296666E+03  0.64714399536E+03  0.00000000000E+00 0. -1.
         -4    1    3    3    0  502 -0.67528117459E+02 -0.18665685840E+03  0.93051709987E+02  0.21922465684E+03  0.00000000000E+00 0.  1.
         13    1    5    5    0    0  0.14388763446E+03  0.58868697630E+03  0.45925735819E+03  0.76037709622E+03  0.00000000000E+00 0. -1.
        -13    1    5    5    0    0  0.18903200878E+02  0.33525275411E+03  0.29214577994E+03  0.44508526923E+03  0.00000000000E+00 0.  1.
          4    1    6    6  503    0 -0.44279564296E+00 -0.86834661747E+02 -0.12828992441E+02  0.87778343546E+02  0.00000000000E+00 0. -1.
         -4    1    6    6    0  503  0.71997181416E+02 -0.39200006020E+02 -0.65751215288E+02  0.10508785332E+03  0.00000000000E+00 0.  1.
<mgrwt>
<rscale>  0 0.20792368E+04</rscale>
<asrwt>0</asrwt>
<pdfrwt beam="1">  1        1 0.10516382E+00 0.20792368E+04</pdfrwt>
<pdfrwt beam="2">  1       -1 0.24325114E+00 0.20792368E+04</pdfrwt>
<totfact> 0.20083882E+00</totfact>
</mgrwt>
</event>
<event>
12    3  0.4806716E-008  0.1645734E+04  0.7818608E-02  0.8792934E-01
         -1   -1    0    0    0  501 -0.00000000000E+00  0.00000000000E+00  0.97741882524E+03  0.97741882524E+03  0.00000000000E+00 0.  1.
          1   -1    0    0  501    0  0.00000000000E+00 -0.00000000000E+00 -0.69275303254E+03  0.69275303254E+03  0.00000000000E+00 0. -1.
         23    2    1    2    0    0  0.43934384144E+03  0.23048299793E+03  0.38469547164E+03  0.63414540711E+03  0.89467134273E+02 0.  0.
        254    2    1    2    0    0 -0.43934384144E+03 -0.23048299793E+03 -0.10002967893E+03  0.10360264507E+04  0.90399084424E+03 0.  0.
         23    2    4    4    0    0 -0.38347672484E+03 -0.11149956766E+03 -0.47559772105E+03  0.62749615805E+03  0.89842551249E+02 0.  0.
         23    2    4    4    0    0 -0.55867116602E+02 -0.11898343026E+03  0.37556804212E+03  0.40853029261E+03  0.92560544111E+02 0.  0.
          2    1    3    3  502    0  0.32324466408E+02  0.23862370548E+02  0.66600176813E+02  0.77780893594E+02  0.00000000000E+00 0. -1.
         -2    1    3    3    0  502  0.40701937503E+03  0.20662062738E+03  0.31809529482E+03  0.55636451351E+03  0.00000000000E+00 0.  1.
         13    1    5    5    0    0 -0.35512195548E+02  0.48809764685E+01 -0.15608735223E+02  0.39096963811E+02  0.00000000000E+00 0.  1.
        -13    1    5    5    0    0 -0.34796452929E+03 -0.11638054413E+03 -0.45998898583E+03  0.58839919424E+03  0.00000000000E+00 0. -1.
          3    1    6    6  503    0 -0.60380970987E+02 -0.12303698956E+03  0.37793473500E+03  0.40201819160E+03  0.00000000000E+00 0. -1.
         -3    1    6    6    0  503  0.45138543850E+01  0.40535593014E+01 -0.23666928793E+01  0.65121010130E+01  0.00000000000E+00 0.  1.
<mgrwt>
<rscale>  0 0.16457337E+04</rscale>
<asrwt>0</asrwt>
<pdfrwt beam="1">  1        1 0.10657739E+00 0.16457337E+04</pdfrwt>
<pdfrwt beam="2">  1       -1 0.15037213E+00 0.16457337E+04</pdfrwt>
<totfact> 0.91705303E+00</totfact>
</mgrwt>
</event>
<event>
12    3  0.4806716E-008  0.1447918E+04  0.7818608E-02  0.8919845E-01
          2   -1    0    0  501    0  0.00000000000E+00  0.00000000000E+00  0.26866102319E+04  0.26866102319E+04  0.00000000000E+00 0. -1.
         -2   -1    0    0    0  501 -0.00000000000E+00 -0.00000000000E+00 -0.19508466596E+03  0.19508466596E+03  0.00000000000E+00 0.  1.
         23    2    1    2    0    0  0.21366343015E+03 -0.35461960541E+03  0.52913529957E+03  0.67869439918E+03  0.96097847545E+02 0.  0.
        254    2    1    2    0    0 -0.21366343015E+03  0.35461960541E+03  0.19623902664E+04  0.22030004987E+04  0.91149795048E+03 0.  0.
         23    2    4    4    0    0  0.71214954646E+02 -0.27760033430E+03  0.53658729874E+03  0.61504734796E+03  0.90685145987E+02 0.  0.
         23    2    4    4    0    0 -0.28487838480E+03  0.63221993971E+03  0.14258029677E+04  0.15879531507E+04  0.88449760270E+02 0.  0.
          4    1    3    3  502    0  0.18120744382E+03 -0.26577394144E+03  0.46095115550E+03  0.56209242425E+03  0.00000000000E+00 0. -1.
         -4    1    3    3    0  502  0.32455986332E+02 -0.88845663972E+02  0.68184144078E+02  0.11660197494E+03  0.00000000000E+00 0.  1.
         13    1    5    5    0    0  0.66929527618E+02 -0.15912674486E+03  0.23993339812E+03  0.29558233731E+03  0.00000000000E+00 0.  1.
        -13    1    5    5    0    0  0.42854270284E+01 -0.11847358943E+03  0.29665390061E+03  0.31946501065E+03  0.00000000000E+00 0. -1.
          3    1    6    6  503    0 -0.34356482928E+02  0.71291869338E+02  0.10701519520E+03  0.13309827406E+03  0.00000000000E+00 0. -1.
         -3    1    6    6    0  503 -0.25052190187E+03  0.56092807037E+03  0.13187877725E+04  0.14548548767E+04  0.00000000000E+00 0.  1.
<mgrwt>
<rscale>  0 0.14479178E+04</rscale>
<asrwt>0</asrwt>
<pdfrwt beam="1">  1        2 0.41332463E+00 0.14479178E+04</pdfrwt>
<pdfrwt beam="2">  1       -2 0.30013027E-01 0.14479178E+04</pdfrwt>
<totfact> 0.27009766E+01</totfact>
</mgrwt>
</event>
<event>
12    3  0.4806716E-008  0.1428251E+04  0.7818608E-02  0.8933619E-01
          1   -1    0    0  501    0  0.00000000000E+00  0.00000000000E+00  0.10169022653E+04  0.10169022653E+04  0.00000000000E+00 0. -1.
         -1   -1    0    0    0  501 -0.00000000000E+00 -0.00000000000E+00 -0.50149890133E+03  0.50149890133E+03  0.00000000000E+00 0.  1.
         23    2    1    2    0    0  0.19467523114E+03  0.19781090105E+03  0.49822558785E+03  0.57771613503E+03  0.92193264876E+02 0.  0.
        254    2    1    2    0    0 -0.19467523114E+03 -0.19781090105E+03  0.17177776065E+02  0.94068503156E+03  0.89864656813E+03 0.  0.
         23    2    4    4    0    0  0.19299451072E+03 -0.40212603635E+03 -0.12273970491E+03  0.47152526373E+03  0.91207504592E+02 0.  0.
         23    2    4    4    0    0 -0.38766974187E+03  0.20431513530E+03  0.13991748098E+03  0.46915976783E+03  0.92203486878E+02 0.  0.
          2    1    3    3  502    0  0.15840370305E+03  0.14471333987E+03  0.44582257650E+03  0.49476403830E+03  0.00000000000E+00 0. -1.
         -2    1    3    3    0  502  0.36271528090E+02  0.53097561177E+02  0.52403011349E+02  0.82952096727E+02  0.00000000000E+00 0.  1.
         13    1    5    5    0    0  0.46710083568E+02 -0.14036107210E+03 -0.81331317367E+02  0.16881304941E+03  0.00000000000E+00 0. -1.
        -13    1    5    5    0    0  0.14628442716E+03 -0.26176496425E+03 -0.41408387548E+02  0.30271221432E+03  0.00000000000E+00 0.  1.
          4    1    6    6  503    0 -0.24585117443E+03  0.13556432810E+03  0.13489375105E+03  0.31147521747E+03  0.00000000000E+00 0. -1.
         -4    1    6    6    0  503 -0.14181856743E+03  0.68750807199E+02  0.50237299253E+01  0.15768455036E+03  0.00000000000E+00 0.  1.
<mgrwt>
<rscale>  0 0.14282512E+04</rscale>
<asrwt>0</asrwt>
<pdfrwt beam="1">  1        1 0.15644650E+00 0.14282512E+04</pdfrwt>
<pdfrwt beam="2">  1       -1 0.77153677E-01 0.14282512E+04</pdfrwt>
<totfact> 0.24061675E+01</totfact>
</mgrwt>
</event>
<event>
12    3  0.4806716E-008  0.1821763E+04  0.7818608E-02  0.8694811E-01
         -2   -1    0    0    0  501 -0.00000000000E+00  0.00000000000E+00  0.69258208336E+03  0.69258208336E+03  0.00000000000E+00 0.  1.
          2   -1    0    0  501    0  0.00000000000E+00 -0.00000000000E+00 -0.11979876312E+04  0.11979876312E+04  0.00000000000E+00 0. -1.
         23    2    1    2    0    0 -0.32339958459E+03  0.28995776660E+03  0.35859790930E+03  0.57075269011E+03  0.92213746224E+02 0.  0.
        254    2    1    2    0    0  0.32339958459E+03 -0.28995776660E+03 -0.86400345719E+03  0.13198170245E+04  0.89819385791E+03 0.  0.
         23    2    4    4    0    0  0.16902779028E+03  0.30290653805E+03 -0.19659720152E+03  0.40932830338E+03  0.92609047189E+02 0.  0.
         23    2    4    4    0    0  0.15437179431E+03 -0.59286430465E+03 -0.66740625567E+03  0.91048872112E+03  0.90773710795E+02 0.  0.
          1    1    3    3  502    0 -0.11114308123E+03  0.71995218454E+02  0.15882646239E+03  0.20678960598E+03  0.00000000000E+00 0. -1.
         -1    1    3    3    0  502 -0.21225650335E+03  0.21796254815E+03  0.19977144691E+03  0.36396308413E+03  0.00000000000E+00 0.  1.
         13    1    5    5    0    0  0.13227307562E+03  0.14461923438E+03 -0.96283452097E+02  0.21836069388E+03  0.00000000000E+00 0. -1.
        -13    1    5    5    0    0  0.36754714664E+02  0.15828730367E+03 -0.10031374942E+03  0.19096760949E+03  0.00000000000E+00 0.  1.
          4    1    6    6  503    0  0.12836962000E+03 -0.43926503166E+03 -0.44006719761E+03  0.63489500375E+03  0.00000000000E+00 0.  1.
         -4    1    6    6    0  503  0.26002174312E+02 -0.15359927299E+03 -0.22733905806E+03  0.27559371737E+03  0.00000000000E+00 0. -1.
<mgrwt>
<rscale>  0 0.18217626E+04</rscale>
<asrwt>0</asrwt>
<pdfrwt beam="1">  1        2 0.18430579E+00 0.18217626E+04</pdfrwt>
<pdfrwt beam="2">  1       -2 0.10655109E+00 0.18217626E+04</pdfrwt>
<totfact> 0.12704088E+01</totfact>
</mgrwt>
</event>
<event>
12    3  0.4806716E-008  0.1442235E+04  0.7818608E-02  0.8923801E-01
          3   -1    0    0  501    0  0.00000000000E+00  0.00000000000E+00  0.45888022697E+04  0.45888022697E+04  0.00000000000E+00 0. -1.
         -3   -1    0    0    0  501 -0.00000000000E+00 -0.00000000000E+00 -0.11332167914E+03  0.11332167914E+03  0.00000000000E+00 0.  1.
         23    2    1    2    0    0  0.19070605186E+03  0.81177218638E+02  0.25923030681E+04  0.26021381694E+04  0.90162722164E+02 0.  0.
        254    2    1    2    0    0 -0.19070605186E+03 -0.81177218638E+02  0.18831775225E+04  0.20999857795E+04  0.90588307962E+03 0.  0.
         23    2    4    4    0    0 -0.54703309841E+03 -0.54598231553E+02  0.12062701840E+04  0.13286938468E+04  0.90074435991E+02 0.  0.
         23    2    4    4    0    0  0.35632704655E+03 -0.26578987085E+02  0.67690733849E+03  0.77129193274E+03  0.94933102510E+02 0.  0.
          1    1    3    3  502    0  0.11713413398E+03  0.94492675775E+02  0.18295556431E+04  0.18357350360E+04  0.00000000000E+00 0. -1.
         -1    1    3    3    0  502  0.73571917872E+02 -0.13315457137E+02  0.76274742504E+03  0.76640313341E+03  0.00000000000E+00 0.  1.
         13    1    5    5    0    0 -0.11988232743E+03 -0.42207966092E+02  0.22505623481E+03  0.25846391171E+03  0.00000000000E+00 0.  1.
        -13    1    5    5    0    0 -0.42715077098E+03 -0.12390265461E+02  0.98121394917E+03  0.10702299350E+04  0.00000000000E+00 0. -1.
          2    1    6    6  503    0  0.12656279087E+03  0.14018511746E+02  0.16254566731E+03  0.20648426736E+03  0.00000000000E+00 0. -1.
         -2    1    6    6    0  503  0.22976425568E+03 -0.40597498831E+02  0.51436167117E+03  0.56480766538E+03  0.00000000000E+00 0.  1.
<mgrwt>
<rscale>  0 0.14422355E+04</rscale>
<asrwt>0</asrwt>
<pdfrwt beam="1">  1        3 0.70596944E+00 0.14422355E+04</pdfrwt>
<pdfrwt beam="2">  1       -3 0.17434108E-01 0.14422355E+04</pdfrwt>
<totfact> 0.23707471E-02</totfact>
</mgrwt>
</event>
<event>
12    3  0.4806716E-008  0.1203984E+04  0.7818608E-02  0.9109376E-01
          2   -1    0    0  501    0  0.00000000000E+00  0.00000000000E+00  0.17572038723E+03  0.17572038723E+03  0.00000000000E+00 0. -1.
         -2   -1    0    0    0  501 -0.00000000000E+00 -0.00000000000E+00 -0.20623369464E+04  0.20623369464E+04  0.00000000000E+00 0.  1.
         23    2    1    2    0    0 -0.35460560618E+02 -0.28719557455E+03 -0.46381062583E+03  0.55423691953E+03  0.91211385991E+02 0.  0.
        254    2    1    2    0    0  0.35460560618E+02  0.28719557455E+03 -0.14228059333E+04  0.16838204141E+04  0.85272253027E+03 0.  0.
         23    2    4    4    0    0  0.93110603720E+02 -0.28758680761E+03 -0.47553803228E+03  0.57062153357E+03  0.89981987079E+02 0.  0.
         23    2    4    4    0    0 -0.57650043102E+02  0.57478238216E+03 -0.94726790105E+03  0.11131988805E+04  0.90537047337E+02 0.  0.
          2    1    3    3  502    0  0.94467906180E+01 -0.54377132621E+02 -0.38486251309E+02  0.67285258006E+02  0.00000000000E+00 0. -1.
         -2    1    3    3    0  502 -0.44907351236E+02 -0.23281844193E+03 -0.42532437452E+03  0.48695166152E+03  0.00000000000E+00 0.  1.
         13    1    5    5    0    0  0.62109290900E+02 -0.26413399036E+03 -0.37533328640E+03  0.46314080446E+03  0.00000000000E+00 0.  1.
        -13    1    5    5    0    0  0.31001312820E+02 -0.23452817250E+02 -0.10020474588E+03  0.10748072911E+03  0.00000000000E+00 0. -1.
          3    1    6    6  503    0 -0.37096214000E+02  0.49566665060E+03 -0.86226369470E+03  0.99526892687E+03  0.00000000000E+00 0.  1.
         -3    1    6    6    0  503 -0.20553829101E+02  0.79115731560E+02 -0.85004206347E+02  0.11792995365E+03  0.00000000000E+00 0. -1.
<mgrwt>
<rscale>  0 0.12039845E+04</rscale>
<asrwt>0</asrwt>
<pdfrwt beam="1">  1        2 0.27033906E-01 0.12039845E+04</pdfrwt>
<pdfrwt beam="2">  1       -2 0.31728260E+00 0.12039845E+04</pdfrwt>
<totfact> 0.49745520E+00</totfact>
</mgrwt>
</event>
<event>
12    3  0.4806716E-008  0.1842287E+04  0.7818608E-02  0.8684130E-01
         -1   -1    0    0    0  501 -0.00000000000E+00  0.00000000000E+00  0.42287459522E+03  0.42287459522E+03  0.00000000000E+00 0.  1.
          1   -1    0    0  501    0  0.00000000000E+00 -0.00000000000E+00 -0.20065169264E+04  0.20065169264E+04  0.00000000000E+00 0. -1.
         23    2    1    2    0    0  0.28342709778E+03  0.41428156991E+03 -0.12313214538E+04  0.13326581787E+04  0.88685736306E+02 0.  0.
        254    2    1    2    0    0 -0.28342709778E+03 -0.41428156991E+03 -0.35232087738E+03  0.10967333429E+04  0.90924907800E+03 0.  0.
         23    2    4    4    0    0 -0.49501314519E+03  0.75763362784E+01 -0.46907600429E+01  0.50324836072E+03  0.90230230843E+02 0.  0.
         23    2    4    4    0    0  0.21158604740E+03 -0.42185790619E+03 -0.34763011734E+03  0.59348498217E+03  0.92978369012E+02 0.  0.
          2    1    3    3  502    0  0.20944339898E+03  0.25274242481E+03 -0.71847798792E+03  0.78990878574E+03  0.00000000000E+00 0. -1.
         -2    1    3    3    0  502  0.73983698807E+02  0.16153914511E+03 -0.51284346589E+03  0.54274939299E+03  0.00000000000E+00 0.  1.
         13    1    5    5    0    0 -0.12888327988E+03  0.37063694230E+01 -0.41009512023E+02  0.13530120873E+03  0.00000000000E+00 0. -1.
        -13    1    5    5    0    0 -0.36612986531E+03  0.38699668555E+01  0.36318751981E+02  0.36794715199E+03  0.00000000000E+00 0.  1.
          4    1    6    6  503    0  0.17430105057E+03 -0.25007102520E+03 -0.20861638081E+03  0.36937402212E+03  0.00000000000E+00 0. -1.
         -4    1    6    6    0  503  0.37284996835E+02 -0.17178688099E+03 -0.13901373653E+03  0.22411096005E+03  0.00000000000E+00 0.  1.
<mgrwt>
<rscale>  0 0.18422867E+04</rscale>
<asrwt>0</asrwt>
<pdfrwt beam="1">  1        1 0.30869491E+00 0.18422867E+04</pdfrwt>
<pdfrwt beam="2">  1       -1 0.65057630E-01 0.18422867E+04</pdfrwt>
<totfact> 0.66438234E+00</totfact>
</mgrwt>
</event>
<event>
12    3  0.4806716E-008  0.1215568E+04  0.7818608E-02  0.9099338E-01
          2   -1    0    0  501    0  0.00000000000E+00  0.00000000000E+00  0.20129976139E+04  0.20129976139E+04  0.00000000000E+00 0.  1.
         -2   -1    0    0    0  501 -0.00000000000E+00 -0.00000000000E+00 -0.18350814099E+03  0.18350814099E+03  0.00000000000E+00 0. -1.
         23    2    1    2    0    0  0.22152932489E+03 -0.55701395838E+02  0.65021318817E+03  0.69524121932E+03  0.91680290601E+02 0.  0.
        254    2    1    2    0    0 -0.22152932489E+03  0.55701395838E+02  0.11792762847E+04  0.15012645356E+04  0.90051361051E+03 0.  0.
         23    2    4    4    0    0 -0.44899916966E+03  0.19483624942E+03  0.30797506640E+03  0.58558917518E+03  0.92220508152E+02 0.  0.
         23    2    4    4    0    0  0.22746984477E+03 -0.13913485359E+03  0.87130121833E+03  0.91567536038E+03  0.90523559208E+02 0.  0.
          3    1    3    3  502    0  0.58856943899E+02  0.22018853698E+01  0.79250693341E+02  0.98740369350E+02  0.00000000000E+00 0. -1.
         -3    1    3    3    0  502  0.16267238099E+03 -0.57903281208E+02  0.57096249483E+03  0.59650084997E+03  0.00000000000E+00 0.  1.
         13    1    5    5    0    0 -0.78343267864E+02 -0.12014813525E+01  0.40055207442E+02  0.87997334165E+02  0.00000000000E+00 0.  1.
        -13    1    5    5    0    0 -0.37065590180E+03  0.19603773078E+03  0.26791985895E+03  0.49759184102E+03  0.00000000000E+00 0. -1.
          2    1    6    6  503    0  0.23570812890E+02 -0.57144106774E+02  0.19503634720E+03  0.20459767566E+03  0.00000000000E+00 0.  1.
         -2    1    6    6    0  503  0.20389903188E+03 -0.81990746812E+02  0.67626487113E+03  0.71107768471E+03  0.00000000000E+00 0. -1.
<mgrwt>
<rscale>  0 0.12155681E+04</rscale>
<asrwt>0</asrwt>
<pdfrwt beam="1">  1        2 0.30969192E+00 0.12155681E+04</pdfrwt>
<pdfrwt beam="2">  1       -2 0.28232023E-01 0.12155681E+04</pdfrwt>
<totfact> 0.74461703E+01</totfact>
</mgrwt>
</event>
<event>
12    3  0.4806716E-008  0.1567409E+04  0.7818608E-02  0.8840824E-01
          1   -1    0    0  501    0  0.00000000000E+00  0.00000000000E+00  0.56996692723E+03  0.56996692723E+03  0.00000000000E+00 0. -1.
         -1   -1    0    0    0  501 -0.00000000000E+00 -0.00000000000E+00 -0.10775931572E+04  0.10775931572E+04  0.00000000000E+00 0.  1.
         23    2    1    2    0    0 -0.14735759435E+03  0.23143786792E+03 -0.65097374269E+03  0.71227898667E+03  0.91086738127E+02 0.  0.
        254    2    1    2    0    0  0.14735759435E+03 -0.23143786792E+03  0.14334751275E+03  0.93528109773E+03  0.88256698048E+03 0.  0.
         23    2    4    4    0    0 -0.22652037216E+03 -0.19225011040E+03  0.37359318556E+03  0.48591592951E+03  0.90944149357E+02 0.  0.
         23    2    4    4    0    0  0.37387796651E+03 -0.39187757520E+02 -0.23024567281E+03  0.44936516822E+03  0.87152569540E+02 0.  0.
          4    1    3    3  502    0 -0.41198009941E+02  0.26875892589E+02 -0.57750034705E+02  0.75859449866E+02  0.00000000000E+00 0. -1.
         -4    1    3    3    0  502 -0.10615958441E+03  0.20456197533E+03 -0.59322370799E+03  0.63641953681E+03  0.00000000000E+00 0.  1.
         13    1    5    5    0    0 -0.16015867524E+03 -0.18287291542E+03  0.30488478099E+03  0.38993337140E+03  0.00000000000E+00 0.  1.
        -13    1    5    5    0    0 -0.66361696914E+02 -0.93771949794E+01  0.68708404567E+02  0.95982558109E+02  0.00000000000E+00 0. -1.
          1    1    6    6  503    0  0.13253142097E+03 -0.49262797941E+02 -0.11224123066E+03  0.18052560668E+03  0.00000000000E+00 0. -1.
         -1    1    6    6    0  503  0.24134654554E+03  0.10075040420E+02 -0.11800444215E+03  0.26883956154E+03  0.00000000000E+00 0.  1.
<mgrwt>
<rscale>  0 0.15674086E+04</rscale>
<asrwt>0</asrwt>
<pdfrwt beam="1">  1        1 0.87687220E-01 0.15674086E+04</pdfrwt>
<pdfrwt beam="2">  1       -1 0.16578356E+00 0.15674086E+04</pdfrwt>
<totfact> 0.93793258E+00</totfact>
</mgrwt>
</event>
<event>
12    3  0.4806716E-008  0.1838708E+04  0.7818608E-02  0.8685982E-01
          1   -1    0    0  501    0  0.00000000000E+00  0.00000000000E+00  0.10589277114E+04  0.10589277114E+04  0.00000000000E+00 0. -1.
         -1   -1    0    0    0  501 -0.00000000000E+00 -0.00000000000E+00 -0.79817716029E+03  0.79817716029E+03  0.00000000000E+00 0.  1.
         23    2    1    2    0    0  0.60247537827E+03 -0.37647181195E+03 -0.34563255034E+02  0.71664419329E+03  0.87616634108E+02 0.  0.
        254    2    1    2    0    0 -0.60247537827E+03  0.37647181195E+03  0.29531380614E+03  0.11404606784E+04  0.84186264217E+03 0.  0.
         23    2    4    4    0    0 -0.40187965780E+03 -0.21907259197E+03  0.12559418503E+03  0.48326448883E+03  0.90942877374E+02 0.  0.
         23    2    4    4    0    0 -0.20059572046E+03  0.59554440392E+03  0.16971962112E+03  0.65719618958E+03  0.90500285615E+02 0.  0.
          1    1    3    3  502    0  0.23829664917E+03 -0.11025487848E+03  0.13941659823E+02  0.26293687666E+03  0.00000000000E+00 0. -1.
         -1    1    3    3    0  502  0.36417872910E+03 -0.26621693347E+03 -0.48504914858E+02  0.45370731663E+03  0.00000000000E+00 0.  1.
         13    1    5    5    0    0 -0.34736561112E+02 -0.38863262128E+02 -0.85923135640E+01  0.52828114423E+02  0.00000000000E+00 0. -1.
        -13    1    5    5    0    0 -0.36714309669E+03 -0.18020932984E+03  0.13418649859E+03  0.43043637441E+03  0.00000000000E+00 0.  1.
          1    1    6    6  503    0 -0.16643122736E+03  0.40915765389E+03  0.15088020904E+03  0.46676993975E+03  0.00000000000E+00 0. -1.
         -1    1    6    6    0  503 -0.34164493107E+02  0.18638675003E+03  0.18839412079E+02  0.19042624983E+03  0.00000000000E+00 0.  1.
<mgrwt>
<rscale>  0 0.18387081E+04</rscale>
<asrwt>0</asrwt>
<pdfrwt beam="1">  1        1 0.16291196E+00 0.18387081E+04</pdfrwt>
<pdfrwt beam="2">  1       -1 0.12279649E+00 0.18387081E+04</pdfrwt>
<totfact> 0.74951146E+00</totfact>
</mgrwt>
</event>
<event>
12    3  0.4806716E-008  0.1944277E+04  0.7818608E-02  0.8633125E-01
         -2   -1    0    0    0  501 -0.00000000000E+00  0.00000000000E+00  0.58913440048E+03  0.58913440048E+03  0.00000000000E+00 0.  1.
          2   -1    0    0  501    0  0.00000000000E+00 -0.00000000000E+00 -0.16041384970E+04  0.16041384970E+04  0.00000000000E+00 0. -1.
         23    2    1    2    0    0 -0.16049587868E+03 -0.43446289726E+03  0.28003227739E+03  0.54906472360E+03  0.92396202018E+02 0.  0.
        254    2    1    2    0    0  0.16049587868E+03  0.43446289726E+03 -0.12950363739E+04  0.16442081739E+04  0.90099077306E+03 0.  0.
         23    2    4    4    0    0 -0.27521792965E+03  0.26388454091E+02 -0.10439716560E+03  0.30923355575E+03  0.91023977647E+02 0.  0.
         23    2    4    4    0    0  0.43571380833E+03  0.40807444317E+03 -0.11906392083E+04  0.13349746181E+04  0.90356143991E+02 0.  0.
          2    1    3    3  502    0 -0.15761644370E+02 -0.11633775443E+03  0.35993654168E+02  0.12279432267E+03  0.00000000000E+00 0. -1.
         -2    1    3    3    0  502 -0.14473423431E+03 -0.31812514283E+03  0.24403862322E+03  0.42627040093E+03  0.00000000000E+00 0.  1.
         13    1    5    5    0    0 -0.27860858190E+03  0.35473671864E+02 -0.97368971128E+02  0.29725719477E+03  0.00000000000E+00 0. -1.
        -13    1    5    5    0    0  0.33906522552E+01 -0.90852177732E+01 -0.70281944710E+01  0.11976360976E+02  0.00000000000E+00 0.  1.
          1    1    6    6  503    0  0.28787887855E+03  0.32337846381E+03 -0.83115519527E+03  0.93715891832E+03  0.00000000000E+00 0. -1.
         -1    1    6    6    0  503  0.14783492978E+03  0.84695979362E+02 -0.35948401304E+03  0.39781569981E+03  0.00000000000E+00 0.  1.
<mgrwt>
<rscale>  0 0.19442769E+04</rscale>
<asrwt>0</asrwt>
<pdfrwt beam="1">  1        2 0.24679053E+00 0.19442769E+04</pdfrwt>
<pdfrwt beam="2">  1       -2 0.90636063E-01 0.19442769E+04</pdfrwt>
<totfact> 0.10763769E+01</totfact>
</mgrwt>
</event>
<event>
12    3  0.4806716E-008  0.1541429E+04  0.7818608E-02  0.8857361E-01
          1   -1    0    0  501    0  0.00000000000E+00  0.00000000000E+00  0.42724610399E+03  0.42724610399E+03  0.00000000000E+00 0. -1.
         -1   -1    0    0    0  501 -0.00000000000E+00 -0.00000000000E+00 -0.13903005583E+04  0.13903005583E+04  0.00000000000E+00 0.  1.
         23    2    1    2    0    0  0.23437527362E+03 -0.31692675746E+03  0.51352894361E+02  0.40780255386E+03  0.91057480172E+02 0.  0.
        254    2    1    2    0    0 -0.23437527362E+03  0.31692675746E+03 -0.10144073486E+04  0.14097441084E+04  0.89609254195E+03 0.  0.
         23    2    4    4    0    0  0.21259493203E+03  0.29378412911E+03 -0.84269787810E+03  0.92182242338E+03  0.90061905640E+02 0.  0.
         23    2    4    4    0    0 -0.44697020565E+03  0.23142628348E+02 -0.17170947053E+03  0.48792168502E+03  0.90914698804E+02 0.  0.
          2    1    3    3  502    0  0.75896887450E+02 -0.91694041354E+02  0.57812146195E+02  0.13232678864E+03  0.00000000000E+00 0. -1.
         -2    1    3    3    0  502  0.15847838617E+03 -0.22523271610E+03 -0.64592518345E+01  0.27547576522E+03  0.00000000000E+00 0.  1.
         13    1    5    5    0    0  0.18689672388E+03  0.24841513063E+03 -0.78359159158E+03  0.84300429709E+03  0.00000000000E+00 0.  1.
        -13    1    5    5    0    0  0.25698208143E+02  0.45368998478E+02 -0.59106286523E+02  0.78818126286E+02  0.00000000000E+00 0. -1.
          1    1    6    6  503    0  0.29572190537E+01  0.43278793127E+01  0.14781537175E+01  0.54461566530E+01  0.00000000000E+00 0. -1.
         -1    1    6    6    0  503 -0.44992742470E+03  0.18814749035E+02 -0.17318762425E+03  0.48247552837E+03  0.00000000000E+00 0.  1.
<mgrwt>
<rscale>  0 0.15414286E+04</rscale>
<asrwt>0</asrwt>
<pdfrwt beam="1">  1        1 0.65730170E-01 0.15414286E+04</pdfrwt>
<pdfrwt beam="2">  1       -1 0.21389239E+00 0.15414286E+04</pdfrwt>
<totfact> 0.64056442E+00</totfact>
</mgrwt>
</event>
<event>
12    3  0.4806716E-008  0.2068612E+04  0.7818608E-02  0.8575197E-01
         -2   -1    0    0    0  501 -0.00000000000E+00  0.00000000000E+00  0.54053692399E+03  0.54053692399E+03  0.00000000000E+00 0.  1.
          2   -1    0    0  501    0  0.00000000000E+00 -0.00000000000E+00 -0.19791235267E+04  0.19791235267E+04  0.00000000000E+00 0. -1.
         23    2    1    2    0    0 -0.62459885032E+03 -0.34593839756E+03 -0.11107309806E+04  0.13236749227E+04  0.92708635325E+02 0.  0.
        254    2    1    2    0    0  0.62459885032E+03  0.34593839756E+03 -0.32785562211E+03  0.11959855280E+04  0.90171779146E+03 0.  0.
         23    2    4    4    0    0  0.74265681684E+03  0.34152134329E+03  0.14747340593E+02  0.82258937239E+03  0.90883529839E+02 0.  0.
         23    2    4    4    0    0 -0.11805796652E+03  0.44170542613E+01 -0.34260296271E+03  0.37339615557E+03  0.89948346927E+02 0.  0.
          1    1    3    3  502    0 -0.51483991664E+03 -0.24396087804E+03 -0.89818594782E+03  0.10636329473E+04  0.00000000000E+00 0. -1.
         -1    1    3    3    0  502 -0.10975893368E+03 -0.10197751952E+03 -0.21254503276E+03  0.26004197538E+03  0.00000000000E+00 0.  1.
         13    1    5    5    0    0  0.32325263558E+02  0.37618345489E+02  0.56981277580E+01  0.49925256548E+02  0.00000000000E+00 0.  1.
        -13    1    5    5    0    0  0.71033155328E+03  0.30390299781E+03  0.90492128354E+01  0.77266411584E+03  0.00000000000E+00 0. -1.
          2    1    6    6  503    0 -0.11029348784E+03 -0.41501911031E+01 -0.18538258542E+03  0.21575120051E+03  0.00000000000E+00 0. -1.
         -2    1    6    6    0  503 -0.77644786840E+01  0.85672453644E+01 -0.15722037729E+03  0.15764495506E+03  0.00000000000E+00 0.  1.
<mgrwt>
<rscale>  0 0.20686124E+04</rscale>
<asrwt>0</asrwt>
<pdfrwt beam="1">  1        2 0.30448055E+00 0.20686124E+04</pdfrwt>
<pdfrwt beam="2">  1       -2 0.83159525E-01 0.20686124E+04</pdfrwt>
<totfact> 0.80284941E+00</totfact>
</mgrwt>
</event>
<event>
12    3  0.4806716E-008  0.1168429E+04  0.7818608E-02  0.9140948E-01
          2   -1    0    0  501    0  0.00000000000E+00  0.00000000000E+00  0.60560629727E+03  0.60560629727E+03  0.00000000000E+00 0.  1.
         -2   -1    0    0    0  501 -0.00000000000E+00 -0.00000000000E+00 -0.56357870454E+03  0.56357870454E+03  0.00000000000E+00 0. -1.
         23    2    1    2    0    0 -0.15454963467E+03 -0.93060023014E+02 -0.10790290413E+03  0.23529799533E+03  0.10571826913E+03 0.  0.
        254    2    1    2    0    0  0.15454963467E+03  0.93060023014E+02  0.14993049687E+03  0.93388700648E+03  0.90394691743E+03 0.  0.
         23    2    4    4    0    0  0.41039322085E+03  0.10460608436E+02 -0.21474814508E+03  0.47185079130E+03  0.89411315753E+02 0.  0.
         23    2    4    4    0    0 -0.25584358618E+03  0.82599414578E+02  0.36467864195E+03  0.46203621519E+03  0.90599935825E+02 0.  0.
          3    1    3    3  502    0 -0.10533972338E+03 -0.95048482298E+02 -0.33025551053E+02  0.14567552414E+03  0.00000000000E+00 0.  1.
         -3    1    3    3    0  502 -0.49209911283E+02  0.19884592845E+01 -0.74877353079E+02  0.89622471194E+02  0.00000000000E+00 0. -1.
         13    1    5    5    0    0  0.37357002107E+03  0.25937431647E+02 -0.21520768426E+03  0.43190468667E+03  0.00000000000E+00 0. -1.
        -13    1    5    5    0    0  0.36823199774E+02 -0.15476823211E+02  0.45953917956E+00  0.39946104623E+02  0.00000000000E+00 0.  1.
          1    1    6    6  503    0 -0.24927616632E+03  0.93757971287E+02  0.32435486942E+03  0.41968469783E+03  0.00000000000E+00 0. -1.
         -1    1    6    6    0  503 -0.65674198600E+01 -0.11158556709E+02  0.40323772532E+02  0.42351517359E+02  0.00000000000E+00 0.  1.
<mgrwt>
<rscale>  0 0.11684294E+04</rscale>
<asrwt>0</asrwt>
<pdfrwt beam="1">  1        2 0.93170200E-01 0.11684294E+04</pdfrwt>
<pdfrwt beam="2">  1       -2 0.86704416E-01 0.11684294E+04</pdfrwt>
<totfact> 0.55859327E+01</totfact>
</mgrwt>
</event>
<event>
12    3  0.4806716E-008  0.2412605E+04  0.7818608E-02  0.8434800E-01
          1   -1    0    0  501    0  0.00000000000E+00  0.00000000000E+00  0.20370679079E+04  0.20370679079E+04  0.00000000000E+00 0. -1.
         -1   -1    0    0    0  501 -0.00000000000E+00 -0.00000000000E+00 -0.71434301099E+03  0.71434301099E+03  0.00000000000E+00 0.  1.
         23    2    1    2    0    0 -0.30999127096E+03 -0.81054914661E+03  0.12045332257E+04  0.14873920086E+04  0.91379364418E+02 0.  0.
        254    2    1    2    0    0  0.30999127096E+03  0.81054914661E+03  0.11819167119E+03  0.12640189103E+04  0.91142198089E+03 0.  0.
         23    2    4    4    0    0 -0.16682445674E+00  0.90514912617E+03  0.16310697225E+03  0.92410688040E+03  0.89859187428E+02 0.  0.
         23    2    4    4    0    0  0.31015809542E+03 -0.94599979562E+02 -0.44915301067E+02  0.33991202988E+03  0.91518323285E+02 0.  0.
          3    1    3    3  502    0 -0.30574992354E+03 -0.74470850791E+03  0.10875310622E+04  0.13530696910E+04  0.00000000000E+00 0. -1.
         -3    1    3    3    0  502 -0.42413474187E+01 -0.65840638702E+02  0.11700216353E+03  0.13432231759E+03  0.00000000000E+00 0.  1.
         13    1    5    5    0    0  0.13974788587E+02  0.39396816296E+02 -0.49066843014E+01  0.42088946306E+02  0.00000000000E+00 0. -1.
        -13    1    5    5    0    0 -0.14141613044E+02  0.86575230988E+03  0.16801365656E+03  0.88201793409E+03  0.00000000000E+00 0.  1.
          1    1    6    6  503    0  0.14860063643E+03 -0.90730300682E+02 -0.88593791946E+01  0.17433480780E+03  0.00000000000E+00 0. -1.
         -1    1    6    6    0  503  0.16155745899E+03 -0.38696788794E+01 -0.36055921872E+02  0.16557722208E+03  0.00000000000E+00 0.  1.
<mgrwt>
<rscale>  0 0.24126046E+04</rscale>
<asrwt>0</asrwt>
<pdfrwt beam="1">  1        1 0.31339506E+00 0.24126046E+04</pdfrwt>
<pdfrwt beam="2">  1       -1 0.10989893E+00 0.24126046E+04</pdfrwt>
<totfact> 0.19249644E+00</totfact>
</mgrwt>
</event>
<event>
12    3  0.4806716E-008  0.1657709E+04  0.7818608E-02  0.8785859E-01
         -1   -1    0    0    0  501 -0.00000000000E+00  0.00000000000E+00  0.82034041838E+03  0.82034041838E+03  0.00000000000E+00 0.  1.
          1   -1    0    0  501    0  0.00000000000E+00 -0.00000000000E+00 -0.83745723400E+03  0.83745723400E+03  0.00000000000E+00 0. -1.
         23    2    1    2    0    0 -0.32708592766E+03  0.41233481603E+03  0.66867052286E+02  0.53906656708E+03  0.95479612893E+02 0.  0.
        254    2    1    2    0    0  0.32708592766E+03 -0.41233481603E+03 -0.83983867915E+02  0.11187310853E+04  0.98361615814E+03 0.  0.
         23    2    4    4    0    0  0.57710301195E+03  0.39448459738E+02 -0.63336227918E+00  0.58559355527E+03  0.91188505030E+02 0.  0.
         23    2    4    4    0    0 -0.25001708429E+03 -0.45178327577E+03 -0.83350505636E+02  0.53313753003E+03  0.10330367093E+03 0.  0.
          3    1    3    3  502    0 -0.63546217646E+01  0.10754197334E+02  0.19218522038E+02  0.22921290701E+02  0.00000000000E+00 0. -1.
         -3    1    3    3    0  502 -0.32073130589E+03  0.40158061870E+03  0.47648530248E+02  0.51614527638E+03  0.00000000000E+00 0.  1.
         13    1    5    5    0    0  0.16153837749E+03 -0.14623668271E+01 -0.39229777376E+02  0.16624007143E+03  0.00000000000E+00 0.  1.
        -13    1    5    5    0    0  0.41556463447E+03  0.40910826565E+02  0.38596415097E+02  0.41935348384E+03  0.00000000000E+00 0. -1.
          3    1    6    6  503    0 -0.23479645806E+03 -0.45235056519E+03 -0.73329582328E+02  0.51490546530E+03  0.00000000000E+00 0. -1.
         -3    1    6    6    0  503 -0.15220626238E+02  0.56728942386E+00 -0.10020923308E+02  0.18232064729E+02  0.00000000000E+00 0.  1.
<mgrwt>
<rscale>  0 0.16577093E+04</rscale>
<asrwt>0</asrwt>
<pdfrwt beam="1">  1        1 0.12883957E+00 0.16577093E+04</pdfrwt>
<pdfrwt beam="2">  1       -1 0.12620622E+00 0.16577093E+04</pdfrwt>
<totfact> 0.10711426E+01</totfact>
</mgrwt>
</event>
<event>
12    3  0.4806716E-008  0.1176908E+04  0.7818608E-02  0.9133313E-01
          3   -1    0    0  501    0  0.00000000000E+00  0.00000000000E+00  0.23301773072E+03  0.23301773072E+03  0.00000000000E+00 0. -1.
         -3   -1    0    0    0  501 -0.00000000000E+00 -0.00000000000E+00 -0.14860580739E+04  0.14860580739E+04  0.00000000000E+00 0.  1.
         23    2    1    2    0    0 -0.11527546231E+03  0.15065023114E+02 -0.54775867999E+03  0.56818750653E+03  0.96343572380E+02 0.  0.
        254    2    1    2    0    0  0.11527546231E+03 -0.15065023114E+02 -0.70528166320E+03  0.11508882981E+04  0.90200125450E+03 0.  0.
         23    2    4    4    0    0 -0.31534784062E+03  0.23488743201E+03 -0.30842721437E+03  0.50798499779E+03  0.91132020272E+02 0.  0.
         23    2    4    4    0    0  0.43062330294E+03 -0.24995245512E+03 -0.39685444883E+03  0.64290330031E+03  0.88986185062E+02 0.  0.
          4    1    3    3  502    0 -0.20704791853E+02  0.32123214986E+02 -0.60624722954E+02  0.71665517370E+02  0.00000000000E+00 0. -1.
         -4    1    3    3    0  502 -0.94570670462E+02 -0.17058191872E+02 -0.48713395703E+03  0.49652198916E+03  0.00000000000E+00 0.  1.
         13    1    5    5    0    0 -0.12298452196E+03  0.70070867061E+02 -0.61824348432E+02  0.15445830865E+03  0.00000000000E+00 0. -1.
        -13    1    5    5    0    0 -0.19236331867E+03  0.16481656495E+03 -0.24660286594E+03  0.35352668914E+03  0.00000000000E+00 0.  1.
          2    1    6    6  503    0  0.35850496469E+03 -0.16684402938E+03 -0.30067564875E+03  0.49675807553E+03  0.00000000000E+00 0. -1.
         -2    1    6    6    0  503  0.72118338243E+02 -0.83108425744E+02 -0.96178800083E+02  0.14614522478E+03  0.00000000000E+00 0.  1.
<mgrwt>
<rscale>  0 0.11769076E+04</rscale>
<asrwt>0</asrwt>
<pdfrwt beam="1">  1        3 0.35848882E-01 0.11769076E+04</pdfrwt>
<pdfrwt beam="2">  1       -3 0.22862432E+00 0.11769076E+04</pdfrwt>
<totfact> 0.19556265E+00</totfact>
</mgrwt>
</event>
<event>
12    3  0.4806716E-008  0.1521023E+04  0.7818608E-02  0.8870592E-01
          2   -1    0    0  501    0  0.00000000000E+00  0.00000000000E+00  0.21048347231E+04  0.21048347231E+04  0.00000000000E+00 0. -1.
         -2   -1    0    0    0  501 -0.00000000000E+00 -0.00000000000E+00 -0.27478532408E+03  0.27478532408E+03  0.00000000000E+00 0.  1.
         23    2    1    2    0    0 -0.25824363469E+02  0.43291954806E+03  0.24085831942E+03  0.50598977557E+03  0.99632776221E+02 0.  0.
        254    2    1    2    0    0  0.25824363469E+02 -0.43291954806E+03  0.15891910796E+04  0.18736302717E+04  0.89267904332E+03 0.  0.
         23    2    4    4    0    0 -0.21988016850E+03 -0.56809603369E+03  0.13845031719E+04  0.15153794446E+04  0.91899054737E+02 0.  0.
         23    2    4    4    0    0  0.24570453197E+03  0.13517648563E+03  0.20468790779E+03  0.35825082704E+03  0.88335248822E+02 0.  0.
          1    1    3    3  502    0 -0.22378439151E+02  0.16630180397E+02  0.22904000787E+02  0.36082553830E+02  0.00000000000E+00 0. -1.
         -1    1    3    3    0  502 -0.34459243178E+01  0.41628936767E+03  0.21795431864E+03  0.46990722174E+03  0.00000000000E+00 0.  1.
         13    1    5    5    0    0 -0.13618980559E+03 -0.45764618877E+03  0.10724178442E+04  0.11739112956E+04  0.00000000000E+00 0. -1.
        -13    1    5    5    0    0 -0.83690362916E+02 -0.11044984492E+03  0.31208532761E+03  0.34146814903E+03  0.00000000000E+00 0.  1.
          4    1    6    6  503    0  0.11353410525E+03  0.11084902071E+03  0.96407754390E+02  0.18566624237E+03  0.00000000000E+00 0. -1.
         -4    1    6    6    0  503  0.13217042672E+03  0.24327464919E+02  0.10828015340E+03  0.17258458468E+03  0.00000000000E+00 0.  1.
<mgrwt>
<rscale>  0 0.15210229E+04</rscale>
<asrwt>0</asrwt>
<pdfrwt beam="1">  1        2 0.32382072E+00 0.15210229E+04</pdfrwt>
<pdfrwt beam="2">  1       -2 0.42274667E-01 0.15210229E+04</pdfrwt>
<totfact> 0.29895155E+01</totfact>
</mgrwt>
</event>
<event>
12    3  0.4806716E-008  0.1677566E+04  0.7818608E-02  0.8774264E-01
          1   -1    0    0  501    0  0.00000000000E+00  0.00000000000E+00  0.41791288817E+03  0.41791288817E+03  0.00000000000E+00 0. -1.
         -1   -1    0    0    0  501 -0.00000000000E+00 -0.00000000000E+00 -0.16835006624E+04  0.16835006624E+04  0.00000000000E+00 0.  1.
         23    2    1    2    0    0 -0.38419077600E+03  0.43089941636E+03 -0.52227263041E+03  0.78412550478E+03  0.93846935984E+02 0.  0.
        254    2    1    2    0    0  0.38419077600E+03 -0.43089941636E+03 -0.74331514383E+03  0.13172880458E+04  0.92165803481E+03 0.  0.
         23    2    4    4    0    0 -0.34486044893E+01 -0.63312504362E+03 -0.41663339783E+03  0.76336325460E+03  0.90999211828E+02 0.  0.
         23    2    4    4    0    0  0.38763938049E+03  0.20222562726E+03 -0.32668174599E+03  0.55392479118E+03  0.94616158702E+02 0.  0.
          1    1    3    3  502    0 -0.12576068829E+02  0.41315850367E+02 -0.19172187951E+02  0.47251770227E+02  0.00000000000E+00 0. -1.
         -1    1    3    3    0  502 -0.37161470717E+03  0.38958356600E+03 -0.50310044246E+03  0.73687373456E+03  0.00000000000E+00 0.  1.
         13    1    5    5    0    0 -0.45842050832E+02 -0.31053041706E+03 -0.19149202611E+03  0.36769529451E+03  0.00000000000E+00 0.  1.
        -13    1    5    5    0    0  0.42393446342E+02 -0.32259462657E+03 -0.22514137173E+03  0.39566796010E+03  0.00000000000E+00 0. -1.
          2    1    6    6  503    0  0.55161403056E+02  0.70833867936E+02 -0.61936330158E+02  0.10907028114E+03  0.00000000000E+00 0. -1.
         -2    1    6    6    0  503  0.33247797744E+03  0.13139175933E+03 -0.26474541583E+03  0.44485451004E+03  0.00000000000E+00 0.  1.
<mgrwt>
<rscale>  0 0.16775656E+04</rscale>
<asrwt>0</asrwt>
<pdfrwt beam="1">  1        1 0.64294290E-01 0.16775656E+04</pdfrwt>
<pdfrwt beam="2">  1       -1 0.25900010E+00 0.16775656E+04</pdfrwt>
<totfact> 0.32869518E+00</totfact>
</mgrwt>
</event>
<event>
12    3  0.4806716E-008  0.2692325E+04  0.7818608E-02  0.8337499E-01
          2   -1    0    0  501    0  0.00000000000E+00  0.00000000000E+00  0.15803270501E+04  0.15803270501E+04  0.00000000000E+00 0. -1.
         -2   -1    0    0    0  501 -0.00000000000E+00 -0.00000000000E+00 -0.11466956162E+04  0.11466956162E+04  0.00000000000E+00 0.  1.
         23    2    1    2    0    0  0.27526954546E+03  0.35971640600E+03  0.13211258454E+04  0.13995986331E+04  0.91288656882E+02 0.  0.
        254    2    1    2    0    0 -0.27526954546E+03 -0.35971640600E+03 -0.88749441155E+03  0.13274240332E+04  0.87706272176E+03 0.  0.
         23    2    4    4    0    0  0.24921522065E+03 -0.17050886963E+03 -0.63391475309E+03  0.70797697828E+03  0.90564820747E+02 0.  0.
         23    2    4    4    0    0 -0.52448476611E+03 -0.18920753637E+03 -0.25357965846E+03  0.61944705490E+03  0.92348518833E+02 0.  0.
          1    1    3    3  502    0  0.17603699983E+03  0.19009333611E+03  0.86431189499E+03  0.90230790397E+03  0.00000000000E+00 0. -1.
         -1    1    3    3    0  502  0.99232545636E+02  0.16962306989E+03  0.45681395043E+03  0.49729072911E+03  0.00000000000E+00 0.  1.
         13    1    5    5    0    0  0.22323071769E+03 -0.11408202005E+03 -0.54028539405E+03  0.59561310231E+03  0.00000000000E+00 0.  1.
        -13    1    5    5    0    0  0.25984502961E+02 -0.56426849583E+02 -0.93629359036E+02  0.11236387596E+03  0.00000000000E+00 0. -1.
          1    1    6    6  503    0 -0.37986418372E+01 -0.73945551464E+01 -0.17799597398E+02  0.19645223164E+02  0.00000000000E+00 0. -1.
         -1    1    6    6    0  503 -0.52068612428E+03 -0.18181298122E+03 -0.23578006107E+03  0.59980183173E+03  0.00000000000E+00 0.  1.
<mgrwt>
<rscale>  0 0.26923255E+04</rscale>
<asrwt>0</asrwt>
<pdfrwt beam="1">  1        2 0.24312724E+00 0.26923255E+04</pdfrwt>
<pdfrwt beam="2">  1       -2 0.17641471E+00 0.26923255E+04</pdfrwt>
<totfact> 0.19286781E+00</totfact>
</mgrwt>
</event>
<event>
12    3  0.4806716E-008  0.2276678E+04  0.7818608E-02  0.8487174E-01
          2   -1    0    0  501    0  0.00000000000E+00  0.00000000000E+00  0.23242796731E+04  0.23242796731E+04  0.00000000000E+00 0. -1.
         -2   -1    0    0    0  501 -0.00000000000E+00 -0.00000000000E+00 -0.55751270116E+03  0.55751270116E+03  0.00000000000E+00 0.  1.
         23    2    1    2    0    0  0.94703104038E+03  0.10958706285E+03  0.66233098660E+03  0.11650652378E+04  0.99083584141E+02 0.  0.
        254    2    1    2    0    0 -0.94703104038E+03 -0.10958706285E+03  0.11044359853E+04  0.17167271365E+04  0.90470774268E+03 0.  0.
         23    2    4    4    0    0 -0.45250585066E+03 -0.48413586854E+03  0.70965163054E+03  0.97572887235E+03  0.96396636454E+02 0.  0.
         23    2    4    4    0    0 -0.49452518973E+03  0.37454880569E+03  0.39478435478E+03  0.74099826413E+03  0.91552004580E+02 0.  0.
          1    1    3    3  502    0  0.59350135327E+02  0.26996613111E+02  0.28266696624E+02  0.71065194159E+02  0.00000000000E+00 0. -1.
         -1    1    3    3    0  502  0.88768090506E+03  0.82590449740E+02  0.63406428997E+03  0.10940000436E+04  0.00000000000E+00 0.  1.
         13    1    5    5    0    0 -0.36278613278E+03 -0.37988639785E+03  0.50152451525E+03  0.72626048551E+03  0.00000000000E+00 0. -1.
        -13    1    5    5    0    0 -0.89719717873E+02 -0.10424947069E+03  0.20812711529E+03  0.24946838684E+03  0.00000000000E+00 0.  1.
          2    1    6    6  503    0 -0.28875377633E+03  0.27378968969E+03  0.24648212574E+03  0.46807368633E+03  0.00000000000E+00 0. -1.
         -2    1    6    6    0  503 -0.20577141340E+03  0.10075911601E+03  0.14830222904E+03  0.27292457780E+03  0.00000000000E+00 0.  1.
<mgrwt>
<rscale>  0 0.22766778E+04</rscale>
<asrwt>0</asrwt>
<pdfrwt beam="1">  1        2 0.35758148E+00 0.22766778E+04</pdfrwt>
<pdfrwt beam="2">  1       -2 0.85771186E-01 0.22766778E+04</pdfrwt>
<totfact> 0.47081029E+00</totfact>
</mgrwt>
</event>
<event>
12    3  0.4806716E-008  0.1350787E+04  0.7818608E-02  0.8990232E-01
         -1   -1    0    0    0  501 -0.00000000000E+00  0.00000000000E+00  0.24795365837E+03  0.24795365837E+03  0.00000000000E+00 0.  1.
          1   -1    0    0  501    0  0.00000000000E+00 -0.00000000000E+00 -0.18396844053E+04  0.18396844053E+04  0.00000000000E+00 0. -1.
         23    2    1    2    0    0  0.23219102207E+03  0.20943148602E+03 -0.73228207051E+03  0.80137017345E+03  0.90459416488E+02 0.  0.
        254    2    1    2    0    0 -0.23219102207E+03 -0.20943148602E+03 -0.85944867646E+03  0.12862678903E+04  0.90446605242E+03 0.  0.
         23    2    4    4    0    0 -0.29269139243E+03 -0.51747049858E+03 -0.40184472260E+03  0.72312230747E+03  0.89346082038E+02 0.  0.
         23    2    4    4    0    0  0.60500370361E+02  0.30803901256E+03 -0.45760395386E+03  0.56314558279E+03  0.95829227044E+02 0.  0.
          4    1    3    3  502    0  0.18029156880E+03  0.17641205925E+03 -0.65940073508E+03  0.70599971237E+03  0.00000000000E+00 0. -1.
         -4    1    3    3    0  502  0.51899453263E+02  0.33019426768E+02 -0.72881335431E+02  0.95370461084E+02  0.00000000000E+00 0.  1.
         13    1    5    5    0    0 -0.10691676669E+03 -0.11608548990E+03 -0.12506954732E+03  0.20136888447E+03  0.00000000000E+00 0. -1.
        -13    1    5    5    0    0 -0.18577462574E+03 -0.40138500868E+03 -0.27677517527E+03  0.52175342300E+03  0.00000000000E+00 0.  1.
          3    1    6    6  503    0 -0.24191791102E+02  0.43732625728E+02 -0.83782148172E+02  0.97556310212E+02  0.00000000000E+00 0. -1.
         -3    1    6    6    0  503  0.84692161462E+02  0.26430638683E+03 -0.37382180569E+03  0.46558927258E+03  0.00000000000E+00 0.  1.
<mgrwt>
<rscale>  0 0.13507871E+04</rscale>
<asrwt>0</asrwt>
<pdfrwt beam="1">  1        1 0.28302835E+00 0.13507871E+04</pdfrwt>
<pdfrwt beam="2">  1       -1 0.38146719E-01 0.13507871E+04</pdfrwt>
<totfact> 0.24903013E+01</totfact>
</mgrwt>
</event>
<event>
12    3  0.4806716E-008  0.1532294E+04  0.7818608E-02  0.8863257E-01
          2   -1    0    0  501    0  0.00000000000E+00  0.00000000000E+00  0.82489855867E+03  0.82489855867E+03  0.00000000000E+00 0. -1.
         -2   -1    0    0    0  501 -0.00000000000E+00 -0.00000000000E+00 -0.71158001647E+03  0.71158001647E+03  0.00000000000E+00 0.  1.
         23    2    1    2    0    0 -0.39795659081E+03 -0.28768770819E+03  0.10831337236E+03  0.51126929066E+03  0.92362521197E+02 0.  0.
        254    2    1    2    0    0  0.39795659081E+03  0.28768770819E+03  0.50051698379E+01  0.10252092845E+04  0.89994186459E+03 0.  0.
         23    2    4    4    0    0 -0.37169257008E+02 -0.24333157892E+03 -0.16623419620E+03  0.31187288421E+03  0.95074060339E+02 0.  0.
         23    2    4    4    0    0  0.43512584782E+03  0.53101928711E+03  0.17123936604E+03  0.71333640027E+03  0.90608568840E+02 0.  0.
          3    1    3    3  502    0 -0.45417541898E+01 -0.27749202852E+02  0.69505983601E+01  0.28964747671E+02  0.00000000000E+00 0. -1.
         -3    1    3    3    0  502 -0.39341483662E+03 -0.25993850534E+03  0.10136277400E+03  0.48230454299E+03  0.00000000000E+00 0.  1.
         13    1    5    5    0    0 -0.62954401306E+02 -0.17862445618E+03 -0.14660133113E+03  0.23950345149E+03  0.00000000000E+00 0.  1.
        -13    1    5    5    0    0  0.25785144298E+02 -0.64707122744E+02 -0.19632865075E+02  0.72369432714E+02  0.00000000000E+00 0. -1.
          1    1    6    6  503    0 -0.38703748855E+01  0.14691617121E+01  0.32616469059E+01  0.52703489856E+01  0.00000000000E+00 0. -1.
         -1    1    6    6    0  503  0.43899622271E+03  0.52955012540E+03  0.16797771913E+03  0.70806605129E+03  0.00000000000E+00 0.  1.
<mgrwt>
<rscale>  0 0.15322941E+04</rscale>
<asrwt>0</asrwt>
<pdfrwt beam="1">  1        2 0.12690747E+00 0.15322941E+04</pdfrwt>
<pdfrwt beam="2">  1       -2 0.10947385E+00 0.15322941E+04</pdfrwt>
<totfact> 0.21181808E+01</totfact>
</mgrwt>
</event>
<event>
12    3  0.4806716E-008  0.2025531E+04  0.7818608E-02  0.8594776E-01
          2   -1    0    0  501    0  0.00000000000E+00  0.00000000000E+00  0.15647309101E+04  0.15647309101E+04  0.00000000000E+00 0. -1.
         -2   -1    0    0    0  501 -0.00000000000E+00 -0.00000000000E+00 -0.65550852655E+03  0.65550852655E+03  0.00000000000E+00 0.  1.
         23    2    1    2    0    0 -0.23102603272E+03  0.52532459737E+03 -0.26316318777E+03  0.63745322002E+03  0.88049894461E+02 0.  0.
        254    2    1    2    0    0  0.23102603272E+03 -0.52532459737E+03  0.11723855713E+04  0.15827862166E+04  0.89520127307E+03 0.  0.
         23    2    4    4    0    0  0.38581708382E+03 -0.47488473714E+03  0.29414198605E+03  0.68502487267E+03  0.91483509325E+02 0.  0.
         23    2    4    4    0    0 -0.15479105110E+03 -0.50439860228E+02  0.87824358526E+03  0.89776134395E+03  0.90328216218E+02 0.  0.
          1    1    3    3  502    0 -0.12711801650E+03  0.24243889487E+03 -0.81715640338E+02  0.28567998484E+03  0.00000000000E+00 0. -1.
         -1    1    3    3    0  502 -0.10390801622E+03  0.28288570250E+03 -0.18144754743E+03  0.35177323517E+03  0.00000000000E+00 0.  1.
         13    1    5    5    0    0  0.79354832065E+02 -0.12771625271E+03  0.35061964357E+02  0.15439550487E+03  0.00000000000E+00 0. -1.
        -13    1    5    5    0    0  0.30646225176E+03 -0.34716848443E+03  0.25908002169E+03  0.53062936780E+03  0.00000000000E+00 0.  1.
          3    1    6    6  503    0  0.10922302349E+02 -0.11688930349E+02  0.75186623722E+02  0.76869735058E+02  0.00000000000E+00 0. -1.
         -3    1    6    6    0  503 -0.16571335345E+03 -0.38750929879E+02  0.80305696153E+03  0.82089160889E+03  0.00000000000E+00 0.  1.
<mgrwt>
<rscale>  0 0.20255315E+04</rscale>
<asrwt>0</asrwt>
<pdfrwt beam="1">  1        2 0.24072783E+00 0.20255315E+04</pdfrwt>
<pdfrwt beam="2">  1       -2 0.10084747E+00 0.20255315E+04</pdfrwt>
<totfact> 0.87615413E+00</totfact>
</mgrwt>
</event>
<event>
12    3  0.4806716E-008  0.1508516E+04  0.7818608E-02  0.8878810E-01
         -2   -1    0    0    0  501 -0.00000000000E+00  0.00000000000E+00  0.10741421046E+04  0.10741421046E+04  0.00000000000E+00 0.  1.
          2   -1    0    0  501    0  0.00000000000E+00 -0.00000000000E+00 -0.52963658885E+03  0.52963658885E+03  0.00000000000E+00 0. -1.
         23    2    1    2    0    0  0.26604675523E+03  0.28489817826E+03 -0.12210260813E+03  0.41882023414E+03  0.92485099702E+02 0.  0.
        254    2    1    2    0    0 -0.26604675523E+03 -0.28489817826E+03  0.66660812389E+03  0.11849584593E+04  0.89878379577E+03 0.  0.
         23    2    4    4    0    0 -0.58211351162E+03 -0.26017079597E+03  0.50072432550E+03  0.81564900809E+03  0.89517991342E+02 0.  0.
         23    2    4    4    0    0  0.31606675638E+03 -0.24727382295E+02  0.16588379839E+03  0.36930945123E+03  0.91446149586E+02 0.  0.
          4    1    3    3  502    0  0.22077051540E+03  0.27620991184E+03 -0.11692292356E+03  0.37242785331E+03  0.00000000000E+00 0. -1.
         -4    1    3    3    0  502  0.45276239833E+02  0.86882664229E+01 -0.51796845706E+01  0.46392380830E+02  0.00000000000E+00 0.  1.
         13    1    5    5    0    0 -0.18756261301E+03 -0.74786722604E+02  0.10844276997E+03  0.22919996081E+03  0.00000000000E+00 0.  1.
        -13    1    5    5    0    0 -0.39455089861E+03 -0.18538407336E+03  0.39228155553E+03  0.58644904728E+03  0.00000000000E+00 0. -1.
          4    1    6    6  503    0  0.16386135511E+03 -0.49977054880E+02  0.11704081248E+03  0.20747723127E+03  0.00000000000E+00 0.  1.
         -4    1    6    6    0  503  0.15220540128E+03  0.25249672585E+02  0.48842985918E+02  0.16183221996E+03  0.00000000000E+00 0. -1.
<mgrwt>
<rscale>  0 0.15085158E+04</rscale>
<asrwt>0</asrwt>
<pdfrwt beam="1">  1        2 0.81482552E-01 0.15085158E+04</pdfrwt>
<pdfrwt beam="2">  1       -2 0.16525263E+00 0.15085158E+04</pdfrwt>
<totfact> 0.12801320E+01</totfact>
</mgrwt>
</event>
<event>
12    3  0.4806716E-008  0.2742900E+04  0.7818608E-02  0.8321218E-01
         -2   -1    0    0    0  501 -0.00000000000E+00  0.00000000000E+00  0.10628726221E+04  0.10628726221E+04  0.00000000000E+00 0.  1.
          2   -1    0    0  501    0  0.00000000000E+00 -0.00000000000E+00 -0.17696152196E+04  0.17696152196E+04  0.00000000000E+00 0. -1.
         23    2    1    2    0    0  0.22431263398E+03  0.60787325772E+03 -0.13854881335E+04  0.15334131705E+04  0.10932761853E+03 0.  0.
        254    2    1    2    0    0 -0.22431263398E+03 -0.60787325772E+03  0.67874553597E+03  0.12990746712E+04  0.89837266400E+03 0.  0.
         23    2    4    4    0    0 -0.55497192436E+03 -0.45799992257E+03  0.37327441571E+03  0.81589845597E+03  0.92729364911E+02 0.  0.
         23    2    4    4    0    0  0.33065929038E+03 -0.14987333515E+03  0.30547112025E+03  0.48317621519E+03  0.91373227518E+02 0.  0.
          1    1    3    3  502    0  0.13597896737E+03  0.47934303521E+03 -0.99078075551E+03  0.11090115105E+04  0.00000000000E+00 0. -1.
         -1    1    3    3    0  502  0.88333666606E+02  0.12853022251E+03 -0.39470737796E+03  0.42440165995E+03  0.00000000000E+00 0.  1.
         13    1    5    5    0    0 -0.19676971708E+03 -0.20665313488E+03  0.11408939424E+03  0.30731129103E+03  0.00000000000E+00 0. -1.
        -13    1    5    5    0    0 -0.35820220728E+03 -0.25134678769E+03  0.25918502147E+03  0.50858716494E+03  0.00000000000E+00 0.  1.
          2    1    6    6  503    0  0.43177302145E+02 -0.38778729954E+01  0.75764707375E+02  0.87290367184E+02  0.00000000000E+00 0. -1.
         -2    1    6    6    0  503  0.28748198824E+03 -0.14599546215E+03  0.22970641288E+03  0.39588584800E+03  0.00000000000E+00 0.  1.
<mgrwt>
<rscale>  0 0.27429003E+04</rscale>
<asrwt>0</asrwt>
<pdfrwt beam="1">  1        2 0.27224850E+00 0.27429003E+04</pdfrwt>
<pdfrwt beam="2">  1       -2 0.16351886E+00 0.27429003E+04</pdfrwt>
<totfact> 0.18615510E+00</totfact>
</mgrwt>
</event>
<event>
12    3  0.4806716E-008  0.3383636E+04  0.7818608E-02  0.8141934E-01
          2   -1    0    0  501    0  0.00000000000E+00  0.00000000000E+00  0.28033074064E+04  0.28033074064E+04  0.00000000000E+00 0. -1.
         -2   -1    0    0    0  501 -0.00000000000E+00 -0.00000000000E+00 -0.10210255237E+04  0.10210255237E+04  0.00000000000E+00 0.  1.
         23    2    1    2    0    0  0.45115438301E+02  0.15607436807E+04  0.10362916959E+04  0.18761118933E+04  0.89101725407E+02 0.  0.
        254    2    1    2    0    0 -0.45115438301E+02 -0.15607436807E+04  0.74599018680E+03  0.19482210368E+04  0.89504614964E+03 0.  0.
         23    2    4    4    0    0 -0.44543982569E+03 -0.62899534601E+03  0.24977169291E+03  0.81539648263E+03  0.91835405440E+02 0.  0.
         23    2    4    4    0    0  0.40032438739E+03 -0.93174833468E+03  0.49621849389E+03  0.11328245542E+04  0.92973666214E+02 0.  0.
          1    1    3    3  502    0  0.36135962401E+02  0.15275714896E+04  0.10249639244E+04  0.18399270393E+04  0.00000000000E+00 0. -1.
         -1    1    3    3    0  502  0.89794759001E+01  0.33172191119E+02  0.11327771494E+02  0.36184853988E+02  0.00000000000E+00 0.  1.
         13    1    5    5    0    0 -0.28655481116E+03 -0.41539342473E+03  0.11754685009E+03  0.51815308460E+03  0.00000000000E+00 0. -1.
        -13    1    5    5    0    0 -0.15888501454E+03 -0.21360192127E+03  0.13222484282E+03  0.29724339804E+03  0.00000000000E+00 0.  1.
          4    1    6    6  503    0  0.37058306197E+03 -0.89622077586E+03  0.45688927908E+03  0.10720500447E+04  0.00000000000E+00 0. -1.
         -4    1    6    6    0  503  0.29741325421E+02 -0.35527558817E+02  0.39329214808E+02  0.60774509548E+02  0.00000000000E+00 0.  1.
<mgrwt>
<rscale>  0 0.33836362E+04</rscale>
<asrwt>0</asrwt>
<pdfrwt beam="1">  1        2 0.43127806E+00 0.33836362E+04</pdfrwt>
<pdfrwt beam="2">  1       -2 0.15708085E+00 0.33836362E+04</pdfrwt>
<totfact> 0.50540562E-01</totfact>
</mgrwt>
</event>
<event>
12    3  0.6102063E-008  0.1642371E+04  0.7818608E-02  0.8794933E-01
          2   -1    0    0  501    0  0.00000000000E+00  0.00000000000E+00  0.14478327401E+04  0.14478327401E+04  0.00000000000E+00 0. -1.
         -2   -1    0    0    0  501 -0.00000000000E+00 -0.00000000000E+00 -0.46576204520E+03  0.46576204520E+03  0.00000000000E+00 0.  1.
         23    2    1    2    0    0  0.30440089499E+03  0.21295194474E+03  0.87810150903E+03  0.96087806972E+03  0.11923073879E+03 0.  0.
        254    2    1    2    0    0 -0.30440089499E+03 -0.21295194474E+03  0.10396918585E+03  0.95271671556E+03  0.87112060753E+03 0.  0.
         23    2    4    4    0    0  0.16245459616E+03  0.72617585762E+02  0.30229278563E+03  0.36229168181E+03  0.90606428538E+02 0.  0.
         23    2    4    4    0    0 -0.46685549116E+03 -0.28556953050E+03 -0.19832359978E+03  0.59042503375E+03  0.98820361619E+02 0.  0.
          1    1    3    3  502    0  0.30825363968E+03  0.19677236487E+03  0.86674917046E+03  0.94074108789E+03  0.00000000000E+00 0. -1.
         -1    1    3    3    0  502 -0.38527446851E+01  0.16179579869E+02  0.11352338574E+02  0.20136981835E+02  0.00000000000E+00 0.  1.
         13    1    5    5    0    0  0.15972914104E+03  0.48624022277E+02  0.29130331446E+03  0.33576080036E+03  0.00000000000E+00 0. -1.
        -13    1    5    5    0    0  0.27254551175E+01  0.23993563485E+02  0.10989471169E+02  0.26530881457E+02  0.00000000000E+00 0.  1.
          4    1    6    6  503    0 -0.39936743213E+03 -0.20393374390E+03 -0.14146090874E+03  0.47020687623E+03  0.00000000000E+00 0. -1.
         -4    1    6    6    0  503 -0.67488059023E+02 -0.81635786604E+02 -0.56862691041E+02  0.12021815752E+03  0.00000000000E+00 0.  1.
<mgrwt>
<rscale>  0 0.16423709E+04</rscale>
<asrwt>0</asrwt>
<pdfrwt beam="1">  1        2 0.22274350E+00 0.16423709E+04</pdfrwt>
<pdfrwt beam="2">  1       -2 0.71655700E-01 0.16423709E+04</pdfrwt>
<totfact> 0.22937153E+01</totfact>
</mgrwt>
</event>
<event>
12    3  0.4806716E-008  0.2669862E+04  0.7818608E-02  0.8344851E-01
         -1   -1    0    0    0  501 -0.00000000000E+00  0.00000000000E+00  0.10869382624E+04  0.10869382624E+04  0.00000000000E+00 0.  1.
          1   -1    0    0  501    0  0.00000000000E+00 -0.00000000000E+00 -0.16395047229E+04  0.16395047229E+04  0.00000000000E+00 0. -1.
         23    2    1    2    0    0 -0.18582693951E+03 -0.86848342981E+03  0.55084677382E+03  0.10491270734E+04  0.91871261275E+02 0.  0.
        254    2    1    2    0    0  0.18582693951E+03  0.86848342981E+03 -0.11034132343E+04  0.16773159119E+04  0.89837229671E+03 0.  0.
         23    2    4    4    0    0  0.40955350381E+03  0.49180783530E+03 -0.10413308082E+04  0.12257419481E+04  0.92002455063E+02 0.  0.
         23    2    4    4    0    0 -0.22372656430E+03  0.37667559452E+03 -0.62082426046E+02  0.45157396385E+03  0.90148422785E+02 0.  0.
          4    1    3    3  502    0 -0.84916364156E+02 -0.28150110201E+03  0.14060553457E+03  0.32591958469E+03  0.00000000000E+00 0. -1.
         -4    1    3    3    0  502 -0.10091057535E+03 -0.58698232781E+03  0.41024123925E+03  0.72320748873E+03  0.00000000000E+00 0.  1.
         13    1    5    5    0    0  0.13423582870E+03  0.22474588099E+03 -0.46003122334E+03  0.52930019382E+03  0.00000000000E+00 0. -1.
        -13    1    5    5    0    0  0.27531767511E+03  0.26706195431E+03 -0.58129958488E+03  0.69644175424E+03  0.00000000000E+00 0.  1.
          2    1    6    6  503    0 -0.12262150653E+03  0.26854023159E+03 -0.12585880003E+02  0.29547976956E+03  0.00000000000E+00 0. -1.
         -2    1    6    6    0  503 -0.10110505776E+03  0.10813536293E+03 -0.49496546043E+02  0.15609419429E+03  0.00000000000E+00 0.  1.
<mgrwt>
<rscale>  0 0.26698617E+04</rscale>
<asrwt>0</asrwt>
<pdfrwt beam="1">  1        1 0.25223149E+00 0.26698617E+04</pdfrwt>
<pdfrwt beam="2">  1       -1 0.16722127E+00 0.26698617E+04</pdfrwt>
<totfact> 0.11839749E+00</totfact>
</mgrwt>
</event>
<event>
12    3  0.4806716E-008  0.1464653E+04  0.7818608E-02  0.8908304E-01
         -1   -1    0    0    0  501 -0.00000000000E+00  0.00000000000E+00  0.13401061132E+04  0.13401061132E+04  0.00000000000E+00 0.  1.
          1   -1    0    0  501    0  0.00000000000E+00 -0.00000000000E+00 -0.40019395082E+03  0.40019395082E+03  0.00000000000E+00 0. -1.
         23    2    1    2    0    0  0.23417673769E+03  0.33032969261E+03  0.89430599964E+02  0.42469500543E+03  0.91714585146E+02 0.  0.
        254    2    1    2    0    0 -0.23417673769E+03 -0.33032969261E+03  0.85048156239E+03  0.13156050586E+04  0.91844506197E+03 0.  0.
         23    2    4    4    0    0  0.23068391273E+03 -0.11981734275E+03 -0.46281440086E+02  0.27965305987E+03  0.92155298178E+02 0.  0.
         23    2    4    4    0    0 -0.46486065042E+03 -0.21051234985E+03  0.89676300248E+03  0.10359519987E+04  0.92745820565E+02 0.  0.
          1    1    3    3  502    0  0.16423147450E+03  0.20866538795E+03  0.10049250608E+03  0.28392246322E+03  0.00000000000E+00 0. -1.
         -1    1    3    3    0  502  0.69945263195E+02  0.12166430466E+03 -0.11061906115E+02  0.14077254221E+03  0.00000000000E+00 0.  1.
         13    1    5    5    0    0  0.34607505934E+02 -0.56481506544E+02  0.75930707561E+01  0.66674543658E+02  0.00000000000E+00 0.  1.
        -13    1    5    5    0    0  0.19607640679E+03 -0.63335836209E+02 -0.53874510842E+02  0.21297851621E+03  0.00000000000E+00 0. -1.
          1    1    6    6  503    0 -0.45607012968E+03 -0.21893779541E+03  0.88227784499E+03  0.10170289658E+04  0.00000000000E+00 0. -1.
         -1    1    6    6    0  503 -0.87905207453E+01  0.84254455568E+01  0.14485157487E+02  0.18923032929E+02  0.00000000000E+00 0.  1.
<mgrwt>
<rscale>  0 0.14646534E+04</rscale>
<asrwt>0</asrwt>
<pdfrwt beam="1">  1        1 0.61568301E-01 0.14646534E+04</pdfrwt>
<pdfrwt beam="2">  1       -1 0.20617017E+00 0.14646534E+04</pdfrwt>
<totfact> 0.79396725E+00</totfact>
</mgrwt>
</event>
<event>
12    3  0.4806716E-008  0.1480160E+04  0.7818608E-02  0.8897754E-01
         -2   -1    0    0    0  501 -0.00000000000E+00  0.00000000000E+00  0.35239917301E+03  0.35239917301E+03  0.00000000000E+00 0.  1.
          2   -1    0    0  501    0  0.00000000000E+00 -0.00000000000E+00 -0.15542562072E+04  0.15542562072E+04  0.00000000000E+00 0. -1.
         23    2    1    2    0    0  0.96549358858E+02 -0.39825100989E+03 -0.65861022210E+03  0.78477518085E+03  0.11907566609E+03 0.  0.
        254    2    1    2    0    0 -0.96549358858E+02  0.39825100989E+03 -0.54324681205E+03  0.11218801993E+04  0.89194867411E+03 0.  0.
         23    2    4    4    0    0 -0.23260318054E+03  0.34542193939E+03  0.11460197281E+03  0.44142834416E+03  0.91130757935E+02 0.  0.
         23    2    4    4    0    0  0.13605382168E+03  0.52829070497E+02 -0.65784878487E+03  0.68045185517E+03  0.94594663526E+02 0.  0.
          3    1    3    3  502    0  0.12191533990E+03 -0.32201922065E+03 -0.56236401710E+03  0.65940353070E+03  0.00000000000E+00 0. -1.
         -3    1    3    3    0  502 -0.25365981045E+02 -0.76231789240E+02 -0.96246204999E+02  0.12537165015E+03  0.00000000000E+00 0.  1.
         13    1    5    5    0    0 -0.23595011001E+02  0.26188271729E+02 -0.15198143944E+02  0.38386634388E+02  0.00000000000E+00 0.  1.
        -13    1    5    5    0    0 -0.20900816954E+03  0.31923366767E+03  0.12980011675E+03  0.40304170977E+03  0.00000000000E+00 0. -1.
          1    1    6    6  503    0  0.14553291058E+03  0.52654386112E+02 -0.52687283036E+03  0.54913321863E+03  0.00000000000E+00 0. -1.
         -1    1    6    6    0  503 -0.94790889055E+01  0.17468438494E+00 -0.13097595451E+03  0.13131863653E+03  0.00000000000E+00 0.  1.
<mgrwt>
<rscale>  0 0.14801603E+04</rscale>
<asrwt>0</asrwt>
<pdfrwt beam="1">  1        2 0.23911634E+00 0.14801603E+04</pdfrwt>
<pdfrwt beam="2">  1       -2 0.54215257E-01 0.14801603E+04</pdfrwt>
<totfact> 0.36663479E+01</totfact>
</mgrwt>
</event>
<event>
12    3  0.4806716E-008  0.1179146E+04  0.7818608E-02  0.9131308E-01
          1   -1    0    0  501    0  0.00000000000E+00  0.00000000000E+00  0.34887794911E+03  0.34887794911E+03  0.00000000000E+00 0. -1.
         -1   -1    0    0    0  501 -0.00000000000E+00 -0.00000000000E+00 -0.99632698769E+03  0.99632698769E+03  0.00000000000E+00 0.  1.
         23    2    1    2    0    0  0.16368363225E+03  0.10359797600E+03 -0.35680090661E+01  0.21413020716E+03  0.91181921623E+02 0.  0.
        254    2    1    2    0    0 -0.16368363225E+03 -0.10359797600E+03 -0.64388102952E+03  0.11310747296E+04  0.90951766984E+03 0.  0.
         23    2    4    4    0    0 -0.42383951183E+03  0.23495075279E+03 -0.32832634374E+03  0.59237740555E+03  0.90945118512E+02 0.  0.
         23    2    4    4    0    0  0.26015587958E+03 -0.33854872878E+03 -0.31555468578E+03  0.53869732409E+03  0.91234444307E+02 0.  0.
          2    1    3    3  502    0  0.13770900011E+03  0.97912419073E+02  0.29681392180E+02  0.17155639178E+03  0.00000000000E+00 0. -1.
         -2    1    3    3    0  502  0.25974632146E+02  0.56855569252E+01 -0.33249401246E+02  0.42573815378E+02  0.00000000000E+00 0.  1.
         13    1    5    5    0    0 -0.11841688127E+02  0.22985098140E+02 -0.25456469458E+01  0.25981159184E+02  0.00000000000E+00 0.  1.
        -13    1    5    5    0    0 -0.41199782371E+03  0.21196565465E+03 -0.32578069680E+03  0.56639624636E+03  0.00000000000E+00 0. -1.
          1    1    6    6  503    0  0.21361940918E+03 -0.24195474467E+03 -0.19385650738E+03  0.37650457620E+03  0.00000000000E+00 0. -1.
         -1    1    6    6    0  503  0.46536470404E+02 -0.96593984116E+02 -0.12169817839E+03  0.16219274789E+03  0.00000000000E+00 0.  1.
<mgrwt>
<rscale>  0 0.11791463E+04</rscale>
<asrwt>0</asrwt>
<pdfrwt beam="1">  1        1 0.53673532E-01 0.11791463E+04</pdfrwt>
<pdfrwt beam="2">  1       -1 0.15328107E+00 0.11791463E+04</pdfrwt>
<totfact> 0.23455510E+01</totfact>
</mgrwt>
</event>
<event>
12    3  0.4806716E-008  0.1999767E+04  0.7818608E-02  0.8606729E-01
          1   -1    0    0  501    0  0.00000000000E+00  0.00000000000E+00  0.68176247651E+03  0.68176247651E+03  0.00000000000E+00 0. -1.
         -1   -1    0    0    0  501 -0.00000000000E+00 -0.00000000000E+00 -0.14664452315E+04  0.14664452315E+04  0.00000000000E+00 0.  1.
         23    2    1    2    0    0 -0.76532411917E+03  0.20342476764E+03 -0.23763214268E+03  0.83171714577E+03  0.90452926159E+02 0.  0.
        254    2    1    2    0    0  0.76532411917E+03 -0.20342476764E+03 -0.54705061228E+03  0.13164905622E+04  0.89820954377E+03 0.  0.
         23    2    4    4    0    0 -0.17179786486E+03 -0.26480492188E+01  0.25730199707E+02  0.19642074869E+03  0.91638140544E+02 0.  0.
         23    2    4    4    0    0  0.93712198404E+03 -0.20077671842E+03 -0.57278081198E+03  0.11200698135E+04  0.89272756035E+02 0.  0.
          1    1    3    3  502    0 -0.88544506659E+02  0.54201845650E+02 -0.37194499084E+02  0.11027873999E+03  0.00000000000E+00 0. -1.
         -1    1    3    3    0  502 -0.67677961251E+03  0.14922292199E+03 -0.20043764359E+03  0.72143840578E+03  0.00000000000E+00 0.  1.
         13    1    5    5    0    0 -0.26571275298E+02 -0.34806124287E+02 -0.63752195169E+01  0.44250902621E+02  0.00000000000E+00 0. -1.
        -13    1    5    5    0    0 -0.14522658956E+03  0.32158075068E+02  0.32105419224E+02  0.15216984607E+03  0.00000000000E+00 0.  1.
          1    1    6    6  503    0  0.29874693403E+03 -0.10688351339E+03 -0.19014667378E+03  0.36990481692E+03  0.00000000000E+00 0. -1.
         -1    1    6    6    0  503  0.63837505000E+03 -0.93893205032E+02 -0.38263413820E+03  0.75016499661E+03  0.00000000000E+00 0.  1.
<mgrwt>
<rscale>  0 0.19997673E+04</rscale>
<asrwt>0</asrwt>
<pdfrwt beam="1">  1        1 0.10488654E+00 0.19997673E+04</pdfrwt>
<pdfrwt beam="2">  1       -1 0.22560696E+00 0.19997673E+04</pdfrwt>
<totfact> 0.26553654E+00</totfact>
</mgrwt>
</event>
<event>
12    3  0.4806716E-008  0.2025261E+04  0.7818608E-02  0.8594901E-01
          2   -1    0    0  501    0  0.00000000000E+00  0.00000000000E+00  0.18814923691E+04  0.18814923691E+04  0.00000000000E+00 0.  1.
         -2   -1    0    0    0  501 -0.00000000000E+00 -0.00000000000E+00 -0.54500370128E+03  0.54500370128E+03  0.00000000000E+00 0. -1.
         23    2    1    2    0    0  0.55540997909E+03  0.23109770717E+03 -0.83841056900E+02  0.61442818018E+03  0.92769987841E+02 0.  0.
        254    2    1    2    0    0 -0.55540997909E+03 -0.23109770717E+03  0.14203297247E+04  0.18120678902E+04  0.95098218523E+03 0.  0.
         23    2    4    4    0    0 -0.81670161182E+03 -0.13756040259E+03  0.10531000338E+04  0.13428938045E+04  0.91758933924E+02 0.  0.
         23    2    4    4    0    0  0.26129163273E+03 -0.93537304576E+02  0.36722969089E+03  0.46917408564E+03  0.90797203055E+02 0.  0.
          2    1    3    3  502    0  0.50925832569E+03  0.23058584175E+03 -0.94749639595E+02  0.56700208721E+03  0.00000000000E+00 0. -1.
         -2    1    3    3    0  502  0.46151653400E+02  0.51186542362E+00  0.10908582695E+02  0.47426092968E+02  0.00000000000E+00 0.  1.
         13    1    5    5    0    0 -0.49050265670E+03 -0.48460275636E+02  0.57579467572E+03  0.75794509243E+03  0.00000000000E+00 0. -1.
        -13    1    5    5    0    0 -0.32619895511E+03 -0.89100126958E+02  0.47730535806E+03  0.58494871209E+03  0.00000000000E+00 0.  1.
          3    1    6    6  503    0  0.13089880611E+03 -0.94753734555E+02  0.20531190880E+03  0.26127714701E+03  0.00000000000E+00 0. -1.
         -3    1    6    6    0  503  0.13039282662E+03  0.12164299790E+01  0.16191778209E+03  0.20789693863E+03  0.00000000000E+00 0.  1.
<mgrwt>
<rscale>  0 0.20252608E+04</rscale>
<asrwt>0</asrwt>
<pdfrwt beam="1">  1        2 0.28946036E+00 0.20252608E+04</pdfrwt>
<pdfrwt beam="2">  1       -2 0.83846724E-01 0.20252608E+04</pdfrwt>
<totfact> 0.89597487E+00</totfact>
</mgrwt>
</event>
<event>
12    3  0.4806716E-008  0.3223900E+04  0.7818608E-02  0.8182534E-01
          2   -1    0    0  501    0  0.00000000000E+00  0.00000000000E+00  0.25298661515E+04  0.25298661515E+04  0.00000000000E+00 0. -1.
         -2   -1    0    0    0  501 -0.00000000000E+00 -0.00000000000E+00 -0.10270831295E+04  0.10270831295E+04  0.00000000000E+00 0.  1.
         23    2    1    2    0    0 -0.74483735339E+03  0.11086364856E+04 -0.23217215045E+02  0.13409404172E+04  0.11715213682E+03 0.  0.
        254    2    1    2    0    0  0.74483735339E+03 -0.11086364856E+04  0.15260002370E+04  0.22160088638E+04  0.89339857893E+03 0.  0.
         23    2    4    4    0    0 -0.10395782281E+03  0.48276773580E+02  0.47575536811E+02  0.15386182532E+03  0.90951381501E+02 0.  0.
         23    2    4    4    0    0  0.84879517619E+03 -0.11569132592E+04  0.14784247002E+04  0.20621470385E+04  0.88370095134E+02 0.  0.
          3    1    3    3  502    0 -0.68411975322E+03  0.10425001260E+04 -0.47839804265E+02  0.12478441394E+04  0.00000000000E+00 0. -1.
         -3    1    3    3    0  502 -0.60717600166E+02  0.66136359624E+02  0.24622589220E+02  0.93096277767E+02  0.00000000000E+00 0.  1.
         13    1    5    5    0    0 -0.59898292997E+02  0.60196698960E+02 -0.39690190392E+01  0.85012947142E+02  0.00000000000E+00 0. -1.
        -13    1    5    5    0    0 -0.44059529812E+02 -0.11919925380E+02  0.51544555850E+02  0.68848878176E+02  0.00000000000E+00 0.  1.
          2    1    6    6  503    0  0.77796783356E+03 -0.10295787482E+04  0.13552189373E+04  0.18713323373E+04  0.00000000000E+00 0. -1.
         -2    1    6    6    0  503  0.70827342636E+02 -0.12733451100E+03  0.12320576291E+03  0.19081470114E+03  0.00000000000E+00 0.  1.
<mgrwt>
<rscale>  0 0.32239000E+04</rscale>
<asrwt>0</asrwt>
<pdfrwt beam="1">  1        2 0.38921018E+00 0.32239000E+04</pdfrwt>
<pdfrwt beam="2">  1       -2 0.15801279E+00 0.32239000E+04</pdfrwt>
<totfact> 0.73237355E-01</totfact>
</mgrwt>
</event>
<event>
12    3  0.4806716E-008  0.2217656E+04  0.7818608E-02  0.8511115E-01
         -2   -1    0    0    0  501 -0.00000000000E+00  0.00000000000E+00  0.14151014701E+04  0.14151014701E+04  0.00000000000E+00 0. -1.
          2   -1    0    0  501    0  0.00000000000E+00 -0.00000000000E+00 -0.86884185185E+03  0.86884185185E+03  0.00000000000E+00 0.  1.
         23    2    1    2    0    0 -0.49382199529E+03  0.14006320490E+03 -0.56455156708E+03  0.76820892404E+03  0.89155003696E+02 0.  0.
        254    2    1    2    0    0  0.49382199529E+03 -0.14006320490E+03  0.11108111853E+04  0.15157343979E+04  0.89446711015E+03 0.  0.
         23    2    4    4    0    0  0.67687355476E+03 -0.66624184161E+01  0.10691410826E+04  0.12687583574E+04  0.92102757734E+02 0.  0.
         23    2    4    4    0    0 -0.18305155948E+03 -0.13340078648E+03  0.41670102719E+02  0.24697604051E+03  0.89202712197E+02 0.  0.
          2    1    3    3  502    0 -0.68905843435E+02  0.50549224047E+02 -0.11379207566E+03  0.14230908542E+03  0.00000000000E+00 0. -1.
         -2    1    3    3    0  502 -0.42491615185E+03  0.89513980854E+02 -0.45075949142E+03  0.62589983862E+03  0.00000000000E+00 0.  1.
         13    1    5    5    0    0  0.63144831209E+03 -0.24943288275E+02  0.96252260300E+03  0.11514334109E+04  0.00000000000E+00 0. -1.
        -13    1    5    5    0    0  0.45425242675E+02  0.18280869859E+02  0.10661847957E+03  0.11732494645E+03  0.00000000000E+00 0.  1.
          1    1    6    6  503    0 -0.11809135160E+03 -0.66116310026E+02 -0.17254967344E+02  0.13643558067E+03  0.00000000000E+00 0. -1.
         -1    1    6    6    0  503 -0.64960207873E+02 -0.67284476459E+02  0.58925070063E+02  0.11054045984E+03  0.00000000000E+00 0.  1.
<mgrwt>
<rscale>  0 0.22176559E+04</rscale>
<asrwt>0</asrwt>
<pdfrwt beam="1">  1        2 0.13366798E+00 0.22176559E+04</pdfrwt>
<pdfrwt beam="2">  1       -2 0.21770792E+00 0.22176559E+04</pdfrwt>
<totfact> 0.28718145E+00</totfact>
</mgrwt>
</event>
<event>
12    3  0.4806716E-008  0.1490817E+04  0.7818608E-02  0.8890583E-01
         -2   -1    0    0    0  501 -0.00000000000E+00  0.00000000000E+00  0.84974472083E+03  0.84974472083E+03  0.00000000000E+00 0.  1.
          2   -1    0    0  501    0  0.00000000000E+00 -0.00000000000E+00 -0.65388317827E+03  0.65388317827E+03  0.00000000000E+00 0. -1.
         23    2    1    2    0    0 -0.32371213349E+03  0.28414924913E+03 -0.13319464030E+01  0.44012601615E+03  0.90436689822E+02 0.  0.
        254    2    1    2    0    0  0.32371213349E+03 -0.28414924913E+03  0.19719348897E+03  0.10635018829E+04  0.95216628894E+03 0.  0.
         23    2    4    4    0    0 -0.31507820483E+03  0.64508891577E+01  0.13255296312E+03  0.35340840022E+03  0.89505978445E+02 0.  0.
         23    2    4    4    0    0  0.63879033832E+03 -0.29060013829E+03  0.64640525847E+02  0.71009348273E+03  0.86906961341E+02 0.  0.
          1    1    3    3  502    0 -0.26856683391E+03  0.19234472124E+03 -0.21938033196E+02  0.33106783801E+03  0.00000000000E+00 0. -1.
         -1    1    3    3    0  502 -0.55145299579E+02  0.91804527895E+02  0.20606086793E+02  0.10905817815E+03  0.00000000000E+00 0.  1.
         13    1    5    5    0    0 -0.23671687654E+03  0.38076990772E+02  0.75183277272E+02  0.25127129173E+03  0.00000000000E+00 0. -1.
        -13    1    5    5    0    0 -0.78361328291E+02 -0.31626101615E+02  0.57369685851E+02  0.10213710848E+03  0.00000000000E+00 0.  1.
          2    1    6    6  503    0  0.37717279571E+03 -0.16072304964E+03 -0.41916658672E+01  0.41001071520E+03  0.00000000000E+00 0. -1.
         -2    1    6    6    0  503  0.26161754261E+03 -0.12987708865E+03  0.68832191714E+02  0.30008276754E+03  0.00000000000E+00 0.  1.
<mgrwt>
<rscale>  0 0.14908169E+04</rscale>
<asrwt>0</asrwt>
<pdfrwt beam="1">  1        2 0.10059741E+00 0.14908169E+04</pdfrwt>
<pdfrwt beam="2">  1       -2 0.13072996E+00 0.14908169E+04</pdfrwt>
<totfact> 0.18470167E+01</totfact>
</mgrwt>
</event>
<event>
12    3  0.4806716E-008  0.1439278E+04  0.7818608E-02  0.8925868E-01
          2   -1    0    0  501    0  0.00000000000E+00  0.00000000000E+00  0.11935251989E+04  0.11935251989E+04  0.00000000000E+00 0.  1.
         -2   -1    0    0    0  501 -0.00000000000E+00 -0.00000000000E+00 -0.43390796677E+03  0.43390796677E+03  0.00000000000E+00 0. -1.
         23    2    1    2    0    0  0.29282042962E+03 -0.24755519167E+03  0.49652905698E+03  0.63400226313E+03  0.91599062813E+02 0.  0.
        254    2    1    2    0    0 -0.29282042962E+03  0.24755519167E+03  0.26308817511E+03  0.99343090250E+03  0.87787367727E+03 0.  0.
         23    2    4    4    0    0  0.59777420985E+02  0.48416811141E+03  0.26220309088E+03  0.55993198408E+03  0.82348441139E+02 0.  0.
         23    2    4    4    0    0 -0.35259785060E+03 -0.23661291974E+03  0.88508423499E+00  0.43349891843E+03  0.87233083540E+02 0.  0.
          2    1    3    3  502    0  0.87903054556E+02 -0.11507707946E+03  0.13599716018E+03  0.19865776802E+03  0.00000000000E+00 0.  1.
         -2    1    3    3    0  502  0.20491737506E+03 -0.13247811222E+03  0.36053189680E+03  0.43534449512E+03  0.00000000000E+00 0. -1.
         13    1    5    5    0    0  0.65563527451E+02  0.44045237636E+03  0.21225729880E+03  0.49330521269E+03  0.00000000000E+00 0. -1.
        -13    1    5    5    0    0 -0.57861064665E+01  0.43715735051E+02  0.49945792076E+02  0.66626771385E+02  0.00000000000E+00 0.  1.
          1    1    6    6  503    0 -0.29199441611E+03 -0.22740193276E+03 -0.14201947485E+02  0.37037018424E+03  0.00000000000E+00 0. -1.
         -1    1    6    6    0  503 -0.60603434498E+02 -0.92109869806E+01  0.15087031720E+02  0.63128734188E+02  0.00000000000E+00 0.  1.
<mgrwt>
<rscale>  0 0.14392777E+04</rscale>
<asrwt>0</asrwt>
<pdfrwt beam="1">  1        2 0.18361926E+00 0.14392777E+04</pdfrwt>
<pdfrwt beam="2">  1       -2 0.66755072E-01 0.14392777E+04</pdfrwt>
<totfact> 0.38232096E+01</totfact>
</mgrwt>
</event>
<event>
12    3  0.4806716E-008  0.2859714E+04  0.7818608E-02  0.8284966E-01
         -1   -1    0    0    0  501 -0.00000000000E+00  0.00000000000E+00  0.85347325040E+03  0.85347325040E+03  0.00000000000E+00 0.  1.
          1   -1    0    0  501    0  0.00000000000E+00 -0.00000000000E+00 -0.23954947890E+04  0.23954947890E+04  0.00000000000E+00 0. -1.
         23    2    1    2    0    0 -0.12256920362E+03  0.32067053303E+03  0.71352580885E+03  0.79699674948E+03  0.90730030077E+02 0.  0.
        254    2    1    2    0    0  0.12256920362E+03 -0.32067053303E+03 -0.22555473474E+04  0.24519712899E+04  0.89822968640E+03 0.  0.
         23    2    4    4    0    0  0.27895573468E+03 -0.55310186525E+03 -0.11663742480E+04  0.13237833620E+04  0.90749809374E+02 0.  0.
         23    2    4    4    0    0 -0.15638653106E+03  0.23243133221E+03 -0.10891730995E+04  0.11281879279E+04  0.89604066825E+02 0.  0.
          1    1    3    3  502    0  0.85787876824E+01  0.23760666023E+02  0.23775862141E+02  0.34690870103E+02  0.00000000000E+00 0. -1.
         -1    1    3    3    0  502 -0.13114799130E+03  0.29690986701E+03  0.68974994671E+03  0.76230587938E+03  0.00000000000E+00 0.  1.
         13    1    5    5    0    0  0.10844923111E+03 -0.13380694056E+03 -0.28582110072E+03  0.33370531114E+03  0.00000000000E+00 0.  1.
        -13    1    5    5    0    0  0.17050650356E+03 -0.41929492469E+03 -0.88055314723E+03  0.99007805083E+03  0.00000000000E+00 0. -1.
          3    1    6    6  503    0 -0.10891982170E+03  0.21694352340E+03 -0.85767390608E+03  0.89136555300E+03  0.00000000000E+00 0. -1.
         -3    1    6    6    0  503 -0.47466709364E+02  0.15487808807E+02 -0.23149919339E+03  0.23682237492E+03  0.00000000000E+00 0.  1.
<mgrwt>
<rscale>  0 0.28597138E+04</rscale>
<asrwt>0</asrwt>
<pdfrwt beam="1">  1        1 0.36853765E+00 0.28597138E+04</pdfrwt>
<pdfrwt beam="2">  1       -1 0.13130358E+00 0.28597138E+04</pdfrwt>
<totfact> 0.68124910E-01</totfact>
</mgrwt>
</event>
<event>
12    3  0.4806716E-008  0.1742025E+04  0.7818608E-02  0.8737752E-01
          2   -1    0    0  501    0  0.00000000000E+00  0.00000000000E+00  0.91709339463E+03  0.91709339463E+03  0.00000000000E+00 0. -1.
         -2   -1    0    0    0  501 -0.00000000000E+00 -0.00000000000E+00 -0.82724702383E+03  0.82724702383E+03  0.00000000000E+00 0.  1.
         23    2    1    2    0    0  0.41441956378E+03  0.14836244463E+03 -0.42758108578E+03  0.62063453324E+03  0.92772027696E+02 0.  0.
        254    2    1    2    0    0 -0.41441956378E+03 -0.14836244463E+03  0.51742745658E+03  0.11237058852E+04  0.89511382171E+03 0.  0.
         23    2    4    4    0    0 -0.14968305023E+03 -0.99344392692E+02  0.73697215471E+03  0.76435929555E+03  0.94036439727E+02 0.  0.
         23    2    4    4    0    0 -0.26473651354E+03 -0.49018051940E+02 -0.21954469813E+03  0.35934658966E+03  0.91879845464E+02 0.  0.
          3    1    3    3  502    0  0.10288276002E+03  0.28208200766E+02 -0.16209162427E+03  0.19404705501E+03  0.00000000000E+00 0. -1.
         -3    1    3    3    0  502  0.31153680376E+03  0.12015424387E+03 -0.26548946150E+03  0.42658747823E+03  0.00000000000E+00 0.  1.
         13    1    5    5    0    0 -0.46922198207E+02 -0.62856628892E+02  0.17314291804E+03  0.19008187327E+03  0.00000000000E+00 0. -1.
        -13    1    5    5    0    0 -0.10276085203E+03 -0.36487763799E+02  0.56382923667E+03  0.57427742228E+03  0.00000000000E+00 0.  1.
          2    1    6    6  503    0 -0.10236919573E+03  0.17773806996E+02 -0.50107367888E+02  0.11535210777E+03  0.00000000000E+00 0. -1.
         -2    1    6    6    0  503 -0.16236731782E+03 -0.66791858936E+02 -0.16943733024E+03  0.24399448189E+03  0.00000000000E+00 0.  1.
<mgrwt>
<rscale>  0 0.17420250E+04</rscale>
<asrwt>0</asrwt>
<pdfrwt beam="1">  1        2 0.14109129E+00 0.17420250E+04</pdfrwt>
<pdfrwt beam="2">  1       -2 0.12726877E+00 0.17420250E+04</pdfrwt>
<totfact> 0.12409222E+01</totfact>
</mgrwt>
</event>
<event>
12    3  0.4806716E-008  0.2066078E+04  0.7818608E-02  0.8576335E-01
          1   -1    0    0  501    0  0.00000000000E+00  0.00000000000E+00  0.34427654535E+04  0.34427654535E+04  0.00000000000E+00 0. -1.
         -1   -1    0    0    0  501 -0.00000000000E+00 -0.00000000000E+00 -0.30997448633E+03  0.30997448633E+03  0.00000000000E+00 0.  1.
         23    2    1    2    0    0 -0.18420322196E+03  0.41447046779E+03  0.25125077840E+04  0.25547168134E+04  0.90366122338E+02 0.  0.
        254    2    1    2    0    0  0.18420322196E+03 -0.41447046779E+03  0.62028318315E+03  0.11980231265E+04  0.91912544771E+03 0.  0.
         23    2    4    4    0    0 -0.26197380499E+03 -0.23178036976E+03 -0.52533368209E+02  0.36511188084E+03  0.90523568487E+02 0.  0.
         23    2    4    4    0    0  0.44617702695E+03 -0.18269009803E+03  0.67281655136E+03  0.83291124563E+03  0.92786960382E+02 0.  0.
          1    1    3    3  502    0 -0.13287290440E+03  0.34564332721E+03  0.18525420895E+04  0.18891894325E+04  0.00000000000E+00 0. -1.
         -1    1    3    3    0  502 -0.51330317560E+02  0.68827140577E+02  0.65996569451E+03  0.66552738089E+03  0.00000000000E+00 0.  1.
         13    1    5    5    0    0 -0.25241465831E+03 -0.23584168971E+03 -0.62106650278E+02  0.35098674953E+03  0.00000000000E+00 0. -1.
        -13    1    5    5    0    0 -0.95591466873E+01  0.40613199573E+01  0.95732820688E+01  0.14125131318E+02  0.00000000000E+00 0.  1.
          1    1    6    6  503    0  0.44199724192E+03 -0.19048356267E+03  0.65295112264E+03  0.81116627030E+03  0.00000000000E+00 0. -1.
         -1    1    6    6    0  503  0.41797850280E+01  0.77934646373E+01  0.19865428722E+02  0.21744975333E+02  0.00000000000E+00 0.  1.
<mgrwt>
<rscale>  0 0.20660779E+04</rscale>
<asrwt>0</asrwt>
<pdfrwt beam="1">  1        1 0.52965620E+00 0.20660779E+04</pdfrwt>
<pdfrwt beam="2">  1       -1 0.47688385E-01 0.20660779E+04</pdfrwt>
<totfact> 0.11264401E+00</totfact>
</mgrwt>
</event>
<event>
12    3  0.4806716E-008  0.1087844E+04  0.7818608E-02  0.9217121E-01
         -2   -1    0    0    0  501 -0.00000000000E+00  0.00000000000E+00  0.25302871690E+03  0.25302871690E+03  0.00000000000E+00 0.  1.
          2   -1    0    0  501    0  0.00000000000E+00 -0.00000000000E+00 -0.11692400297E+04  0.11692400297E+04  0.00000000000E+00 0. -1.
         23    2    1    2    0    0  0.10443687395E+03  0.34718102160E+02 -0.16856520143E+02  0.14446119953E+03  0.92046122352E+02 0.  0.
        254    2    1    2    0    0 -0.10443687395E+03 -0.34718102160E+02 -0.89935479262E+03  0.12778075470E+04  0.90102201803E+03 0.  0.
         23    2    4    4    0    0 -0.41861953864E+03  0.68691604600E+02 -0.15945329718E+03  0.46253137147E+03  0.92461132037E+02 0.  0.
         23    2    4    4    0    0  0.31418266469E+03 -0.10340970676E+03 -0.73990149544E+03  0.81527617556E+03  0.88412132915E+02 0.  0.
          4    1    3    3  502    0  0.32012076423E+02  0.58304916930E+02 -0.30903238087E+00  0.66515651362E+02  0.00000000000E+00 0. -1.
         -4    1    3    3    0  502  0.72424797530E+02 -0.23586814770E+02 -0.16547487762E+02  0.77945548169E+02  0.00000000000E+00 0.  1.
         13    1    5    5    0    0  0.41987417092E+01 -0.19605220047E+01 -0.51445983663E+01  0.69238696421E+01  0.00000000000E+00 0.  1.
        -13    1    5    5    0    0 -0.42281828035E+03  0.70652126604E+02 -0.15430869882E+03  0.45560750183E+03  0.00000000000E+00 0. -1.
          2    1    6    6  503    0  0.10237288709E+03 -0.70937600390E+02 -0.33043436202E+03  0.35312776549E+03  0.00000000000E+00 0. -1.
         -2    1    6    6    0  503  0.21180977760E+03 -0.32472106369E+02 -0.40946713342E+03  0.46214841007E+03  0.00000000000E+00 0.  1.
<mgrwt>
<rscale>  0 0.10878443E+04</rscale>
<asrwt>0</asrwt>
<pdfrwt beam="1">  1        2 0.17988308E+00 0.10878443E+04</pdfrwt>
<pdfrwt beam="2">  1       -2 0.38927496E-01 0.10878443E+04</pdfrwt>
<totfact> 0.12237732E+02</totfact>
</mgrwt>
</event>
<event>
12    3  0.4806716E-008  0.4968672E+04  0.7818608E-02  0.7833358E-01
         -1   -1    0    0    0  501 -0.00000000000E+00  0.00000000000E+00  0.17324486724E+04  0.17324486724E+04  0.00000000000E+00 0.  1.
          1   -1    0    0  501    0  0.00000000000E+00 -0.00000000000E+00 -0.35625450320E+04  0.35625450320E+04  0.00000000000E+00 0. -1.
         23    2    1    2    0    0 -0.14664364828E+04 -0.37504082563E+03  0.11053897472E+04  0.18765246582E+04  0.91469780932E+02 0.  0.
        254    2    1    2    0    0  0.14664364828E+04  0.37504082563E+03 -0.29354861068E+04  0.34184690463E+04  0.88190722781E+03 0.  0.
         23    2    4    4    0    0  0.23112992070E+03 -0.21151568155E+03 -0.27968249592E+03  0.42985123779E+03  0.91596202552E+02 0.  0.
         23    2    4    4    0    0  0.12353065621E+04  0.58655650718E+03 -0.26558036108E+04  0.29886178085E+04  0.92264551341E+02 0.  0.
          3    1    3    3  502    0 -0.22960765191E+03 -0.32443969305E+02  0.14389367022E+03  0.27290597885E+03  0.00000000000E+00 0. -1.
         -3    1    3    3    0  502 -0.12368288308E+04 -0.34259685633E+03  0.96149607693E+03  0.16036186793E+04  0.00000000000E+00 0.  1.
         13    1    5    5    0    0  0.13655783264E+02  0.41272329253E+01  0.11643036486E+01  0.14313283032E+02  0.00000000000E+00 0. -1.
        -13    1    5    5    0    0  0.21747413743E+03 -0.21564291447E+03 -0.28084679957E+03  0.41553795476E+03  0.00000000000E+00 0.  1.
          2    1    6    6  503    0  0.92980222917E+02  0.27066242239E+02 -0.23000423552E+03  0.24955931495E+03  0.00000000000E+00 0. -1.
         -2    1    6    6    0  503  0.11423263391E+04  0.55949026494E+03 -0.24257993753E+04  0.27390584935E+04  0.00000000000E+00 0.  1.
<mgrwt>
<rscale>  0 0.49686724E+04</rscale>
<asrwt>0</asrwt>
<pdfrwt beam="1">  1        1 0.54808385E+00 0.49686724E+04</pdfrwt>
<pdfrwt beam="2">  1       -1 0.26653057E+00 0.49686724E+04</pdfrwt>
<totfact> 0.87671273E-03</totfact>
</mgrwt>
</event>
<event>
12    3  0.4806716E-008  0.1678507E+04  0.7818608E-02  0.8773718E-01
         -2   -1    0    0    0  501 -0.00000000000E+00  0.00000000000E+00  0.11762437252E+04  0.11762437252E+04  0.00000000000E+00 0.  1.
          2   -1    0    0  501    0  0.00000000000E+00 -0.00000000000E+00 -0.59881013001E+03  0.59881013001E+03  0.00000000000E+00 0. -1.
         23    2    1    2    0    0 -0.42028197739E+03  0.44870749872E+03  0.18959831642E+03  0.64927382253E+03  0.87370561996E+02 0.  0.
        254    2    1    2    0    0  0.42028197739E+03 -0.44870749872E+03  0.38783527873E+03  0.11257800326E+04  0.85964476300E+03 0.  0.
         23    2    4    4    0    0  0.23016338149E+03 -0.33127587477E+03 -0.22236842957E+03  0.46957485515E+03  0.91290408812E+02 0.  0.
         23    2    4    4    0    0  0.19011859591E+03 -0.11743162395E+03  0.61020370830E+03  0.65620517750E+03  0.91221721873E+02 0.  0.
          3    1    3    3  502    0 -0.38117441944E+03  0.43633862391E+03  0.18386406464E+03  0.60785798261E+03  0.00000000000E+00 0. -1.
         -3    1    3    3    0  502 -0.39107557952E+02  0.12368874809E+02  0.57342517795E+01  0.41415839923E+02  0.00000000000E+00 0.  1.
         13    1    5    5    0    0  0.65231152592E+02 -0.37329767550E+02 -0.55799088586E+02  0.93606373185E+02  0.00000000000E+00 0. -1.
        -13    1    5    5    0    0  0.16493222889E+03 -0.29394610722E+03 -0.16656934098E+03  0.37596848197E+03  0.00000000000E+00 0.  1.
          2    1    6    6  503    0  0.72789353406E+02 -0.97853880016E+02  0.32903230008E+03  0.35090729017E+03  0.00000000000E+00 0. -1.
         -2    1    6    6    0  503  0.11732924250E+03 -0.19577743934E+02  0.28117140822E+03  0.30529788732E+03  0.00000000000E+00 0.  1.
<mgrwt>
<rscale>  0 0.16785073E+04</rscale>
<asrwt>0</asrwt>
<pdfrwt beam="1">  1        2 0.92124636E-01 0.16785073E+04</pdfrwt>
<pdfrwt beam="2">  1       -2 0.18096057E+00 0.16785073E+04</pdfrwt>
<totfact> 0.84544563E+00</totfact>
</mgrwt>
</event>
<event>
12    3  0.4806716E-008  0.2413912E+04  0.7818608E-02  0.8434313E-01
         -1   -1    0    0    0  501 -0.00000000000E+00  0.00000000000E+00  0.10227987020E+04  0.10227987020E+04  0.00000000000E+00 0.  1.
          1   -1    0    0  501    0  0.00000000000E+00 -0.00000000000E+00 -0.14242713635E+04  0.14242713635E+04  0.00000000000E+00 0. -1.
         23    2    1    2    0    0 -0.66120529786E+02  0.79872375753E+03 -0.83259365171E+03  0.11591034273E+04  0.89314058200E+02 0.  0.
        254    2    1    2    0    0  0.66120529786E+02 -0.79872375753E+03  0.43112099025E+03  0.12879666382E+04  0.91140615944E+03 0.  0.
         23    2    4    4    0    0  0.10593004354E+03 -0.50113967509E+03 -0.22033964916E+03  0.56526907181E+03  0.92830030062E+02 0.  0.
         23    2    4    4    0    0 -0.39809513756E+02 -0.29758408245E+03  0.65146063941E+03  0.72269756635E+03  0.88032517855E+02 0.  0.
          3    1    3    3  502    0 -0.62700547924E+01  0.51129390210E+03 -0.49458748284E+03  0.71139127497E+03  0.00000000000E+00 0. -1.
         -3    1    3    3    0  502 -0.59850474994E+02  0.28742985543E+03 -0.33800616887E+03  0.44771215233E+03  0.00000000000E+00 0.  1.
         13    1    5    5    0    0 -0.10611705288E+02 -0.15092206790E+03 -0.57666459924E+02  0.16191201150E+03  0.00000000000E+00 0. -1.
        -13    1    5    5    0    0  0.11654174883E+03 -0.35021760719E+03 -0.16267318923E+03  0.40335706031E+03  0.00000000000E+00 0.  1.
          3    1    6    6  503    0 -0.21818813367E+02 -0.29024272723E+03  0.58428082451E+03  0.65276410993E+03  0.00000000000E+00 0. -1.
         -3    1    6    6    0  503 -0.17990700388E+02 -0.73413552186E+01  0.67179814893E+02  0.69933456414E+02  0.00000000000E+00 0.  1.
<mgrwt>
<rscale>  0 0.24139121E+04</rscale>
<asrwt>0</asrwt>
<pdfrwt beam="1">  1        1 0.21911867E+00 0.24139121E+04</pdfrwt>
<pdfrwt beam="2">  1       -1 0.15735365E+00 0.24139121E+04</pdfrwt>
<totfact> 0.20241860E+00</totfact>
</mgrwt>
</event>
<event>
12    3  0.4806716E-008  0.4268103E+04  0.7818608E-02  0.7952543E-01
         -2   -1    0    0    0  501 -0.00000000000E+00  0.00000000000E+00  0.17158314568E+04  0.17158314568E+04  0.00000000000E+00 0. -1.
          2   -1    0    0  501    0  0.00000000000E+00 -0.00000000000E+00 -0.26542098346E+04  0.26542098346E+04  0.00000000000E+00 0.  1.
         23    2    1    2    0    0  0.14131699692E+03  0.75969364101E+03  0.14764876916E+04  0.16688985825E+04  0.90009184919E+02 0.  0.
        254    2    1    2    0    0 -0.14131699692E+03 -0.75969364101E+03 -0.24148660695E+04  0.27011427089E+04  0.93139083033E+03 0.  0.
         23    2    4    4    0    0  0.13599533158E+03 -0.51906333322E+03 -0.21990883746E+04  0.22654037576E+04  0.90238745745E+02 0.  0.
         23    2    4    4    0    0 -0.27731232850E+03 -0.24063030779E+03 -0.21577769481E+03  0.43573895136E+03  0.92213597658E+02 0.  0.
          4    1    3    3  502    0  0.13209049736E+03  0.63887425954E+03  0.11748090152E+04  0.13437947913E+04  0.00000000000E+00 0. -1.
         -4    1    3    3    0  502  0.92264995584E+01  0.12081938148E+03  0.30167867644E+03  0.32510379120E+03  0.00000000000E+00 0.  1.
         13    1    5    5    0    0  0.98993650871E+02 -0.26271860394E+03 -0.12862340019E+04  0.13165176472E+04  0.00000000000E+00 0. -1.
        -13    1    5    5    0    0  0.37001680706E+02 -0.25634472929E+03 -0.91285437271E+03  0.94888611033E+03  0.00000000000E+00 0.  1.
          3    1    6    6  503    0 -0.27281236581E+03 -0.22240623982E+03 -0.18000199905E+03  0.39533763053E+03  0.00000000000E+00 0. -1.
         -3    1    6    6    0  503 -0.44999626818E+01 -0.18224067968E+02 -0.35775695766E+02  0.40401320832E+02  0.00000000000E+00 0.  1.
<mgrwt>
<rscale>  0 0.42681034E+04</rscale>
<asrwt>0</asrwt>
<pdfrwt beam="1">  1        2 0.40833997E+00 0.42681034E+04</pdfrwt>
<pdfrwt beam="2">  1       -2 0.26397407E+00 0.42681034E+04</pdfrwt>
<totfact> 0.11513776E-01</totfact>
</mgrwt>
</event>
<event>
12    3  0.4806716E-008  0.3299849E+04  0.7818608E-02  0.8162934E-01
          2   -1    0    0  501    0  0.00000000000E+00  0.00000000000E+00  0.26854437221E+04  0.26854437221E+04  0.00000000000E+00 0. -1.
         -2   -1    0    0    0  501 -0.00000000000E+00 -0.00000000000E+00 -0.10137063557E+04  0.10137063557E+04  0.00000000000E+00 0.  1.
         23    2    1    2    0    0 -0.54266554916E+02 -0.23981493414E+03 -0.91780381819E+03  0.95463697386E+03  0.92259642130E+02 0.  0.
        254    2    1    2    0    0  0.54266554916E+02  0.23981493414E+03  0.25895411845E+04  0.27445131039E+04  0.87531284108E+03 0.  0.
         23    2    4    4    0    0  0.31867726608E+03  0.27447947883E+03  0.23043620384E+04  0.23438442546E+04  0.81408238020E+02 0.  0.
         23    2    4    4    0    0 -0.26441071117E+03 -0.34664544692E+02  0.28517914608E+03  0.40066884938E+03  0.89965141400E+02 0.  0.
          4    1    3    3  502    0  0.11300752448E+02 -0.69441121095E+02 -0.38634239077E+03  0.39269609014E+03  0.00000000000E+00 0. -1.
         -4    1    3    3    0  502 -0.65567307363E+02 -0.17037381304E+03 -0.53146142741E+03  0.56194088372E+03  0.00000000000E+00 0.  1.
         13    1    5    5    0    0  0.16440763996E+03  0.10446991611E+03  0.12194101933E+04  0.12348704608E+04  0.00000000000E+00 0.  1.
        -13    1    5    5    0    0  0.15426962612E+03  0.17000956272E+03  0.10849518451E+04  0.11089737937E+04  0.00000000000E+00 0. -1.
          1    1    6    6  503    0 -0.48967610788E+02 -0.36798436346E+02  0.35173153180E+02  0.70633579326E+02  0.00000000000E+00 0. -1.
         -1    1    6    6    0  503 -0.21544310038E+03  0.21338916533E+01  0.25000599290E+03  0.33003527006E+03  0.00000000000E+00 0.  1.
<mgrwt>
<rscale>  0 0.32998493E+04</rscale>
<asrwt>0</asrwt>
<pdfrwt beam="1">  1        2 0.41314519E+00 0.32998493E+04</pdfrwt>
<pdfrwt beam="2">  1       -2 0.15595482E+00 0.32998493E+04</pdfrwt>
<totfact> 0.61074007E-01</totfact>
</mgrwt>
</event>
<event>
12    3  0.4806716E-008  0.2790505E+04  0.7818608E-02  0.8306222E-01
         -1   -1    0    0    0  501 -0.00000000000E+00  0.00000000000E+00  0.66154848694E+03  0.66154848694E+03  0.00000000000E+00 0.  1.
          1   -1    0    0  501    0  0.00000000000E+00 -0.00000000000E+00 -0.29426858659E+04  0.29426858659E+04  0.00000000000E+00 0. -1.
         23    2    1    2    0    0 -0.78983095342E+03 -0.67709070623E+03 -0.19165902291E+04  0.21826262475E+04  0.90854115889E+02 0.  0.
        254    2    1    2    0    0  0.78983095342E+03  0.67709070623E+03 -0.36454714983E+03  0.14216081054E+04  0.89765818735E+03 0.  0.
         23    2    4    4    0    0  0.55758544954E+03  0.88217319946E+03 -0.23667955415E+03  0.10738144400E+04  0.89045790017E+02 0.  0.
         23    2    4    4    0    0  0.23224550389E+03 -0.20508249323E+03 -0.12786759568E+03  0.34779366540E+03  0.92808989661E+02 0.  0.
          3    1    3    3  502    0 -0.57786320931E+03 -0.46688600330E+03 -0.14380049263E+04  0.16185693056E+04  0.00000000000E+00 0. -1.
         -3    1    3    3    0  502 -0.21196774412E+03 -0.21020470293E+03 -0.47858530276E+03  0.56405694190E+03  0.00000000000E+00 0.  1.
         13    1    5    5    0    0  0.12677969968E+03  0.25329318057E+03 -0.92816256155E+02  0.29806942980E+03  0.00000000000E+00 0.  1.
        -13    1    5    5    0    0  0.43080574986E+03  0.62888001889E+03 -0.14386329799E+03  0.77574501016E+03  0.00000000000E+00 0. -1.
          2    1    6    6  503    0  0.19340320557E+03 -0.14590598792E+03 -0.59684265716E+02  0.24951065871E+03  0.00000000000E+00 0. -1.
         -2    1    6    6    0  503  0.38842298317E+02 -0.59176505318E+02 -0.68183329961E+02  0.98283006693E+02  0.00000000000E+00 0.  1.
<mgrwt>
<rscale>  0 0.27905049E+04</rscale>
<asrwt>0</asrwt>
<pdfrwt beam="1">  1        1 0.45272091E+00 0.27905049E+04</pdfrwt>
<pdfrwt beam="2">  1       -1 0.10177669E+00 0.27905049E+04</pdfrwt>
<totfact> 0.52149396E-01</totfact>
</mgrwt>
</event>
<event>
12    3  0.4806716E-008  0.1477778E+04  0.7818608E-02  0.8899366E-01
         -2   -1    0    0    0  501 -0.00000000000E+00  0.00000000000E+00  0.40552819921E+03  0.40552819921E+03  0.00000000000E+00 0.  1.
          2   -1    0    0  501    0  0.00000000000E+00 -0.00000000000E+00 -0.13462861293E+04  0.13462861293E+04  0.00000000000E+00 0. -1.
         23    2    1    2    0    0 -0.25106595541E+03  0.10064581532E+03 -0.80785809683E+03  0.85653582094E+03  0.88629644233E+02 0.  0.
        254    2    1    2    0    0  0.25106595541E+03 -0.10064581532E+03 -0.13289983323E+03  0.89527850755E+03  0.84302879328E+03 0.  0.
         23    2    4    4    0    0 -0.16069136251E+03  0.25070079650E+02 -0.35603582766E+03  0.40210003451E+03  0.92047293810E+02 0.  0.
         23    2    4    4    0    0  0.41175731792E+03 -0.12571589497E+03  0.22313599443E+03  0.49317847304E+03  0.89926409639E+02 0.  0.
          4    1    3    3  502    0 -0.22739181086E+03  0.11085209485E+03 -0.77186229551E+03  0.81226019588E+03  0.00000000000E+00 0. -1.
         -4    1    3    3    0  502 -0.23674144552E+02 -0.10206279531E+02 -0.35995801316E+02  0.44275625061E+02  0.00000000000E+00 0.  1.
         13    1    5    5    0    0 -0.55913509841E+02 -0.33483800087E+02 -0.15190574525E+03  0.16529622165E+03  0.00000000000E+00 0. -1.
        -13    1    5    5    0    0 -0.10477785267E+03  0.58553879737E+02 -0.20413008241E+03  0.23680381286E+03  0.00000000000E+00 0.  1.
          3    1    6    6  503    0  0.12175570710E+03 -0.80867791044E+02  0.67226856205E+02  0.16088350455E+03  0.00000000000E+00 0. -1.
         -3    1    6    6    0  503  0.29000161082E+03 -0.44848103921E+02  0.15590913822E+03  0.33229496849E+03  0.00000000000E+00 0.  1.
<mgrwt>
<rscale>  0 0.14777780E+04</rscale>
<asrwt>0</asrwt>
<pdfrwt beam="1">  1        2 0.20712094E+00 0.14777780E+04</pdfrwt>
<pdfrwt beam="2">  1       -2 0.62388953E-01 0.14777780E+04</pdfrwt>
<totfact> 0.35843714E+01</totfact>
</mgrwt>
</event>
<event>
12    3  0.4806716E-008  0.1370127E+04  0.7818608E-02  0.8975730E-01
         -2   -1    0    0    0  501 -0.00000000000E+00  0.00000000000E+00  0.21638565868E+03  0.21638565868E+03  0.00000000000E+00 0.  1.
          2   -1    0    0  501    0  0.00000000000E+00 -0.00000000000E+00 -0.21688698630E+04  0.21688698630E+04  0.00000000000E+00 0. -1.
         23    2    1    2    0    0 -0.85845170458E+02 -0.42441718824E+01  0.88790299365E+02  0.15376688967E+03  0.91504823985E+02 0.  0.
        254    2    1    2    0    0  0.85845170458E+02  0.42441718824E+01 -0.20412745036E+04  0.22314886320E+04  0.89741434640E+03 0.  0.
         23    2    4    4    0    0  0.40107042371E+03  0.21951050500E+03 -0.76157199087E+03  0.89282022211E+03  0.89965021824E+02 0.  0.
         23    2    4    4    0    0 -0.31522525326E+03 -0.21526633311E+03 -0.12797025128E+04  0.13386684099E+04  0.93209634164E+02 0.  0.
          3    1    3    3  502    0  0.90758742901E+01  0.15581205481E+02  0.42801725361E+02  0.46444947543E+02  0.00000000000E+00 0. -1.
         -3    1    3    3    0  502 -0.94921044748E+02 -0.19825377364E+02  0.45988574004E+02  0.10732194213E+03  0.00000000000E+00 0.  1.
         13    1    5    5    0    0  0.34893814521E+03  0.15950940887E+03 -0.59066525758E+03  0.70433410198E+03  0.00000000000E+00 0.  1.
        -13    1    5    5    0    0  0.52132278506E+02  0.60001096127E+02 -0.17090673329E+03  0.18848612013E+03  0.00000000000E+00 0. -1.
          3    1    6    6  503    0 -0.47454284252E+02 -0.62366767286E+02 -0.36739816099E+03  0.37566332194E+03  0.00000000000E+00 0. -1.
         -3    1    6    6    0  503 -0.26777096900E+03 -0.15289956583E+03 -0.91230435178E+03  0.96300508791E+03  0.00000000000E+00 0.  1.
<mgrwt>
<rscale>  0 0.13701275E+04</rscale>
<asrwt>0</asrwt>
<pdfrwt beam="1">  1        2 0.33367230E+00 0.13701275E+04</pdfrwt>
<pdfrwt beam="2">  1       -2 0.33290100E-01 0.13701275E+04</pdfrwt>
<totfact> 0.44267489E+01</totfact>
</mgrwt>
</event>
<event>
12    3  0.4806716E-008  0.1596984E+04  0.7818608E-02  0.8822403E-01
         -2   -1    0    0    0  501 -0.00000000000E+00  0.00000000000E+00  0.14358126675E+04  0.14358126675E+04  0.00000000000E+00 0.  1.
          2   -1    0    0  501    0  0.00000000000E+00 -0.00000000000E+00 -0.44406147608E+03  0.44406147608E+03  0.00000000000E+00 0. -1.
         23    2    1    2    0    0 -0.17373808817E+03  0.15240219113E+03 -0.23625652934E+03  0.34421451014E+03  0.96203587202E+02 0.  0.
        254    2    1    2    0    0  0.17373808817E+03 -0.15240219113E+03  0.12280077207E+04  0.15356596334E+04  0.89265681894E+03 0.  0.
         23    2    4    4    0    0 -0.18489146386E+03  0.26824862969E+03  0.30481689835E+03  0.45564834184E+03  0.92519669043E+02 0.  0.
         23    2    4    4    0    0  0.35862955202E+03 -0.42065082082E+03  0.92319082239E+03  0.10800112916E+04  0.92632752235E+02 0.  0.
          1    1    3    3  502    0 -0.96500819237E+02  0.14087977760E+03 -0.14424467696E+03  0.22353086292E+03  0.00000000000E+00 0. -1.
         -1    1    3    3    0  502 -0.77237268930E+02  0.11522413535E+02 -0.92011852382E+02  0.12068364721E+03  0.00000000000E+00 0.  1.
         13    1    5    5    0    0 -0.71239717918E+02  0.18262104235E+03  0.18684693283E+03  0.27080863876E+03  0.00000000000E+00 0.  1.
        -13    1    5    5    0    0 -0.11365174594E+03  0.85627587336E+02  0.11796996552E+03  0.18483970307E+03  0.00000000000E+00 0. -1.
          1    1    6    6  503    0  0.29723039974E+02 -0.42804263300E+02  0.14932296929E+03  0.15815502907E+03  0.00000000000E+00 0. -1.
         -1    1    6    6    0  503  0.32890651205E+03 -0.37784655752E+03  0.77386785309E+03  0.92185626252E+03  0.00000000000E+00 0.  1.
<mgrwt>
<rscale>  0 0.15969835E+04</rscale>
<asrwt>0</asrwt>
<pdfrwt beam="1">  1        2 0.68317151E-01 0.15969835E+04</pdfrwt>
<pdfrwt beam="2">  1       -2 0.22089425E+00 0.15969835E+04</pdfrwt>
<totfact> 0.66029538E+00</totfact>
</mgrwt>
</event>
<event>
12    3  0.4806716E-008  0.1278027E+04  0.7818608E-02  0.9047174E-01
         -2   -1    0    0    0  501 -0.00000000000E+00  0.00000000000E+00  0.18336015507E+03  0.18336015507E+03  0.00000000000E+00 0.  1.
          2   -1    0    0  501    0  0.00000000000E+00 -0.00000000000E+00 -0.22269733944E+04  0.22269733944E+04  0.00000000000E+00 0. -1.
         23    2    1    2    0    0 -0.74569399906E+02 -0.28718755073E+03 -0.32075698047E+03  0.44673987592E+03  0.93027907219E+02 0.  0.
        254    2    1    2    0    0  0.74569399906E+02  0.28718755073E+03 -0.17228562589E+04  0.19635936736E+04  0.89410801443E+03 0.  0.
         23    2    4    4    0    0  0.25629535220E+03  0.18943836924E+03 -0.17051115530E+04  0.17373633056E+04  0.97219567398E+02 0.  0.
         23    2    4    4    0    0 -0.18172595229E+03  0.97749181486E+02 -0.17744705870E+02  0.22623036794E+03  0.91027910957E+02 0.  0.
          4    1    3    3  502    0  0.71088612920E+01 -0.15696733477E+03 -0.15624626102E+03  0.22159010396E+03  0.00000000000E+00 0. -1.
         -4    1    3    3    0  502 -0.81678261198E+02 -0.13022021596E+03 -0.16451071946E+03  0.22514977196E+03  0.00000000000E+00 0.  1.
         13    1    5    5    0    0  0.15827541104E+03  0.17142398729E+03 -0.11650108507E+04  0.11881445920E+04  0.00000000000E+00 0. -1.
        -13    1    5    5    0    0  0.98019941156E+02  0.18014381952E+02 -0.54010070228E+03  0.54921871365E+03  0.00000000000E+00 0.  1.
          1    1    6    6  503    0 -0.11391892624E+03  0.10917471538E+02 -0.19255545322E+02  0.11604951084E+03  0.00000000000E+00 0. -1.
         -1    1    6    6    0  503 -0.67807026045E+02  0.86831709948E+02  0.15108394525E+01  0.11018085709E+03  0.00000000000E+00 0.  1.
<mgrwt>
<rscale>  0 0.12780269E+04</rscale>
<asrwt>0</asrwt>
<pdfrwt beam="1">  1        2 0.34261127E+00 0.12780269E+04</pdfrwt>
<pdfrwt beam="2">  1       -2 0.28209256E-01 0.12780269E+04</pdfrwt>
<totfact> 0.56416540E+01</totfact>
</mgrwt>
</event>
<event>
12    3  0.4806716E-008  0.1175978E+04  0.7818608E-02  0.9134147E-01
          2   -1    0    0  501    0  0.00000000000E+00  0.00000000000E+00  0.82113532486E+03  0.82113532486E+03  0.00000000000E+00 0. -1.
         -2   -1    0    0    0  501 -0.00000000000E+00 -0.00000000000E+00 -0.42104000828E+03  0.42104000828E+03  0.00000000000E+00 0.  1.
         23    2    1    2    0    0  0.12229878888E+02 -0.22188091688E+03  0.11644058856E+03  0.26916704094E+03  0.97528324346E+02 0.  0.
        254    2    1    2    0    0 -0.12229878888E+02  0.22188091688E+03  0.28365472802E+03  0.97300829220E+03  0.90382764991E+03 0.  0.
         23    2    4    4    0    0 -0.24438689010E+03  0.43314043694E+03 -0.47385035569E+02  0.50770354555E+03  0.90454178495E+02 0.  0.
         23    2    4    4    0    0  0.23215701121E+03 -0.21125952006E+03  0.33103976359E+03  0.46530474665E+03  0.91617244569E+02 0.  0.
          3    1    3    3  502    0  0.29996216912E+02 -0.41415951493E+02  0.60883064555E+02  0.79509757997E+02  0.00000000000E+00 0. -1.
         -3    1    3    3    0  502 -0.17766338024E+02 -0.18046496539E+03  0.55557524005E+02  0.18965728294E+03  0.00000000000E+00 0.  1.
         13    1    5    5    0    0 -0.11632448201E+03  0.26673678464E+03 -0.60863229377E+02  0.29729485378E+03  0.00000000000E+00 0.  1.
        -13    1    5    5    0    0 -0.12806240809E+03  0.16640365229E+03  0.13478193809E+02  0.21040869177E+03  0.00000000000E+00 0. -1.
          4    1    6    6  503    0  0.19186818523E+03 -0.12650822828E+03  0.20354791995E+03  0.30700079485E+03  0.00000000000E+00 0. -1.
         -4    1    6    6    0  503  0.40288825980E+02 -0.84751291781E+02  0.12749184365E+03  0.15830395179E+03  0.00000000000E+00 0.  1.
<mgrwt>
<rscale>  0 0.11759776E+04</rscale>
<asrwt>0</asrwt>
<pdfrwt beam="1">  1        2 0.12632851E+00 0.11759776E+04</pdfrwt>
<pdfrwt beam="2">  1       -2 0.64775386E-01 0.11759776E+04</pdfrwt>
<totfact> 0.72329655E+01</totfact>
</mgrwt>
</event>
<event>
12    3  0.4806716E-008  0.1469582E+04  0.7818608E-02  0.8904937E-01
          2   -1    0    0  501    0  0.00000000000E+00  0.00000000000E+00  0.23925417902E+04  0.23925417902E+04  0.00000000000E+00 0. -1.
         -2   -1    0    0    0  501 -0.00000000000E+00 -0.00000000000E+00 -0.22566693362E+03  0.22566693362E+03  0.00000000000E+00 0.  1.
         23    2    1    2    0    0 -0.89919673340E+02  0.13922195900E+03  0.14241316821E+04  0.14366639686E+04  0.91564235566E+02 0.  0.
        254    2    1    2    0    0  0.89919673340E+02 -0.13922195900E+03  0.74274317446E+03  0.11815447552E+04  0.90383199974E+03 0.  0.
         23    2    4    4    0    0  0.46352275743E+02  0.34530642634E+03  0.53842506781E+03  0.64695219527E+03  0.85208730677E+02 0.  0.
         23    2    4    4    0    0  0.43567397597E+02 -0.48452838534E+03  0.20431810665E+03  0.53459255991E+03  0.85892037316E+02 0.  0.
          2    1    3    3  502    0 -0.40568517571E+02  0.72700403885E+02  0.10584419639E+04  0.10617111397E+04  0.00000000000E+00 0. -1.
         -2    1    3    3    0  502 -0.49351155769E+02  0.66521555114E+02  0.36568971821E+03  0.37495282887E+03  0.00000000000E+00 0.  1.
         13    1    5    5    0    0  0.47871231592E+01  0.12787309827E+03  0.13012388711E+03  0.18250115563E+03  0.00000000000E+00 0. -1.
        -13    1    5    5    0    0  0.41565152584E+02  0.21743332807E+03  0.40830118070E+03  0.46445103964E+03  0.00000000000E+00 0.  1.
          1    1    6    6  503    0  0.25448131646E+02 -0.42865307461E+03  0.20503812328E+03  0.47584839789E+03  0.00000000000E+00 0. -1.
         -1    1    6    6    0  503  0.18119265951E+02 -0.55875310731E+02 -0.72001662600E+00  0.58744162023E+02  0.00000000000E+00 0.  1.
<mgrwt>
<rscale>  0 0.14695817E+04</rscale>
<asrwt>0</asrwt>
<pdfrwt beam="1">  1        2 0.36808333E+00 0.14695817E+04</pdfrwt>
<pdfrwt beam="2">  1       -2 0.34717992E-01 0.14695817E+04</pdfrwt>
<totfact> 0.30318771E+01</totfact>
</mgrwt>
</event>
<event>
12    3  0.5773842E-008  0.2059161E+04  0.7818608E-02  0.8579450E-01
          1   -1    0    0  501    0  0.00000000000E+00  0.00000000000E+00  0.12608225192E+04  0.12608225192E+04  0.00000000000E+00 0. -1.
         -1   -1    0    0    0  501 -0.00000000000E+00 -0.00000000000E+00 -0.84074982047E+03  0.84074982047E+03  0.00000000000E+00 0.  1.
         23    2    1    2    0    0  0.45899100791E+03 -0.53204641819E+03 -0.27903086819E+03  0.76153448167E+03  0.91271051873E+02 0.  0.
        254    2    1    2    0    0 -0.45899100791E+03  0.53204641819E+03  0.69910356695E+03  0.13400378580E+04  0.90178130786E+03 0.  0.
         23    2    4    4    0    0 -0.71252224252E+03  0.45622700315E+03  0.60165430264E+03  0.10425238041E+04  0.95062914961E+02 0.  0.
         23    2    4    4    0    0  0.25353123461E+03  0.75819415039E+02  0.97449264303E+02  0.29751405391E+03  0.94823955522E+02 0.  0.
          3    1    3    3  502    0  0.65426589758E+02 -0.95015931957E+02 -0.13172793409E+02  0.11611282642E+03  0.00000000000E+00 0. -1.
         -3    1    3    3    0  502  0.39356441815E+03 -0.43703048624E+03 -0.26585807478E+03  0.64542165525E+03  0.00000000000E+00 0.  1.
         13    1    5    5    0    0 -0.23149360064E+02  0.10130510175E+02  0.41324773997E+02  0.48438177646E+02  0.00000000000E+00 0. -1.
        -13    1    5    5    0    0 -0.68937288245E+03  0.44609649298E+03  0.56032952865E+03  0.99408562649E+03  0.00000000000E+00 0.  1.
          1    1    6    6  503    0  0.91639032361E+01  0.21679800658E+02 -0.94310963062E+01  0.25356191683E+02  0.00000000000E+00 0. -1.
         -1    1    6    6    0  503  0.24436733137E+03  0.54139614380E+02  0.10688036061E+03  0.27215786222E+03  0.00000000000E+00 0.  1.
<mgrwt>
<rscale>  0 0.20591613E+04</rscale>
<asrwt>0</asrwt>
<pdfrwt beam="1">  1        1 0.19397270E+00 0.20591613E+04</pdfrwt>
<pdfrwt beam="2">  1       -1 0.12934613E+00 0.20591613E+04</pdfrwt>
<totfact> 0.45757527E+00</totfact>
</mgrwt>
</event>
<event>
12    3  0.4806716E-008  0.2129052E+04  0.7818608E-02  0.8548553E-01
         -3   -1    0    0    0  501 -0.00000000000E+00  0.00000000000E+00  0.17483925458E+04  0.17483925458E+04  0.00000000000E+00 0.  1.
          3   -1    0    0  501    0  0.00000000000E+00 -0.00000000000E+00 -0.64814688097E+03  0.64814688097E+03  0.00000000000E+00 0. -1.
         23    2    1    2    0    0 -0.25209386518E+03 -0.33476379960E+03 -0.40647076185E+03  0.59047669634E+03  0.88465418694E+02 0.  0.
        254    2    1    2    0    0  0.25209386518E+03  0.33476379960E+03  0.15067164267E+04  0.18060627305E+04  0.90335490116E+03 0.  0.
         23    2    4    4    0    0 -0.22433858717E+03  0.44689693020E+02  0.59919086058E+02  0.25281368744E+03  0.89439886664E+02 0.  0.
         23    2    4    4    0    0  0.47643245235E+03  0.29007410658E+03  0.14467973407E+04  0.15532490430E+04  0.90714804525E+02 0.  0.
          1    1    3    3  502    0 -0.12897578581E+03 -0.14485502194E+03 -0.24488360259E+03  0.31238711485E+03  0.00000000000E+00 0. -1.
         -1    1    3    3    0  502 -0.12311807937E+03 -0.18990877765E+03 -0.16158715926E+03  0.27808958150E+03  0.00000000000E+00 0.  1.
         13    1    5    5    0    0 -0.16234212705E+03  0.36974727245E+02  0.83215498672E+02  0.18613682035E+03  0.00000000000E+00 0. -1.
        -13    1    5    5    0    0 -0.61996460118E+02  0.77149657750E+01 -0.23296412614E+02  0.66676867088E+02  0.00000000000E+00 0.  1.
          2    1    6    6  503    0  0.47078299120E+01  0.12175207873E+02  0.76834464235E+02  0.77935449209E+02  0.00000000000E+00 0.  1.
         -2    1    6    6    0  503  0.47172462244E+03  0.27789889870E+03  0.13699628764E+04  0.14753135938E+04  0.00000000000E+00 0. -1.
<mgrwt>
<rscale>  0 0.21290516E+04</rscale>
<asrwt>0</asrwt>
<pdfrwt beam="1">  1        3 0.99714906E-01 0.21290516E+04</pdfrwt>
<pdfrwt beam="2">  1       -3 0.26898347E+00 0.21290516E+04</pdfrwt>
<totfact> 0.12028159E-01</totfact>
</mgrwt>
</event>
<event>
12    3  0.4806716E-008  0.2149445E+04  0.7818608E-02  0.8539770E-01
         -2   -1    0    0    0  501 -0.00000000000E+00  0.00000000000E+00  0.45369320419E+03  0.45369320419E+03  0.00000000000E+00 0.  1.
          2   -1    0    0  501    0  0.00000000000E+00 -0.00000000000E+00 -0.25458352923E+04  0.25458352923E+04  0.00000000000E+00 0. -1.
         23    2    1    2    0    0  0.88083503101E+03 -0.78128144771E+02 -0.90050599077E+03  0.12652992887E+04  0.89982730345E+02 0.  0.
        254    2    1    2    0    0 -0.88083503101E+03  0.78128144771E+02 -0.11916360974E+04  0.17342292078E+04  0.89754108414E+03 0.  0.
         23    2    4    4    0    0 -0.27785966802E+03 -0.39091209720E+03 -0.51680820710E+03  0.71081024482E+03  0.90234241655E+02 0.  0.
         23    2    4    4    0    0 -0.60297536300E+03  0.46904024197E+03 -0.67482789026E+03  0.10234189630E+04  0.91736880829E+02 0.  0.
          2    1    3    3  502    0  0.55760764120E+03 -0.21964605470E+02 -0.61440826517E+03  0.83000376006E+03  0.00000000000E+00 0. -1.
         -2    1    3    3    0  502  0.32322738982E+03 -0.56163539301E+02 -0.28609772561E+03  0.43529552866E+03  0.00000000000E+00 0.  1.
         13    1    5    5    0    0 -0.64065488089E+02 -0.51703520882E+02 -0.53938944623E+02  0.98422815357E+02  0.00000000000E+00 0. -1.
        -13    1    5    5    0    0 -0.21379417993E+03 -0.33920857632E+03 -0.46286926247E+03  0.61238742946E+03  0.00000000000E+00 0.  1.
          2    1    6    6  503    0 -0.23736352644E+03  0.23966854311E+03 -0.31419667998E+03  0.46097940078E+03  0.00000000000E+00 0. -1.
         -2    1    6    6    0  503 -0.36561183656E+03  0.22937169887E+03 -0.36063121028E+03  0.56243956218E+03  0.00000000000E+00 0.  1.
<mgrwt>
<rscale>  0 0.21494447E+04</rscale>
<asrwt>0</asrwt>
<pdfrwt beam="1">  1        2 0.39166698E+00 0.21494447E+04</pdfrwt>
<pdfrwt beam="2">  1       -2 0.69798953E-01 0.21494447E+04</pdfrwt>
<totfact> 0.56224728E+00</totfact>
</mgrwt>
</event>
<event>
12    3  0.4806716E-008  0.1551129E+04  0.7818608E-02  0.8851147E-01
         -1   -1    0    0    0  501 -0.00000000000E+00  0.00000000000E+00  0.64094527198E+03  0.64094527198E+03  0.00000000000E+00 0.  1.
          1   -1    0    0  501    0  0.00000000000E+00 -0.00000000000E+00 -0.93845755491E+03  0.93845755491E+03  0.00000000000E+00 0. -1.
         23    2    1    2    0    0  0.16741502119E+03 -0.11869887593E+03 -0.61967177215E+03  0.65909957593E+03  0.91114945628E+02 0.  0.
        254    2    1    2    0    0 -0.16741502119E+03  0.11869887593E+03  0.32215948922E+03  0.92030325096E+03  0.83728974959E+03 0.  0.
         23    2    4    4    0    0  0.87069786297E+01 -0.34298370806E+03  0.18139360933E+03  0.39852178990E+03  0.90566771199E+02 0.  0.
         23    2    4    4    0    0 -0.17612199982E+03  0.46168258399E+03  0.14076587989E+03  0.52178146107E+03  0.90945549600E+02 0.  0.
          1    1    3    3  502    0  0.12295503968E+03 -0.10909547830E+03 -0.56258779346E+03  0.58610987922E+03  0.00000000000E+00 0. -1.
         -1    1    3    3    0  502  0.44459981513E+02 -0.96033976275E+01 -0.57083978695E+02  0.72989696709E+02  0.00000000000E+00 0.  1.
         13    1    5    5    0    0 -0.96207506092E+01 -0.96426476731E+02  0.94342928284E+01  0.97363392187E+02  0.00000000000E+00 0.  1.
        -13    1    5    5    0    0  0.18327729239E+02 -0.24655723133E+03  0.17195931650E+03  0.30115839771E+03  0.00000000000E+00 0. -1.
          3    1    6    6  503    0 -0.15899526825E+03  0.36838182742E+03  0.79996846625E+02  0.40912609495E+03  0.00000000000E+00 0. -1.
         -3    1    6    6    0  503 -0.17126731570E+02  0.93300756565E+02  0.60769033267E+02  0.11265536611E+03  0.00000000000E+00 0.  1.
<mgrwt>
<rscale>  0 0.15511285E+04</rscale>
<asrwt>0</asrwt>
<pdfrwt beam="1">  1        1 0.14437808E+00 0.15511285E+04</pdfrwt>
<pdfrwt beam="2">  1       -1 0.98606965E-01 0.15511285E+04</pdfrwt>
<totfact> 0.16057888E+01</totfact>
</mgrwt>
</event>
<event>
12    3  0.4806716E-008  0.2103192E+04  0.7818608E-02  0.8559839E-01
          4   -1    0    0  501    0  0.00000000000E+00  0.00000000000E+00  0.11090806255E+04  0.11090806255E+04  0.00000000000E+00 0. -1.
         -4   -1    0    0    0  501 -0.00000000000E+00 -0.00000000000E+00 -0.99709054463E+03  0.99709054463E+03  0.00000000000E+00 0.  1.
         23    2    1    2    0    0 -0.76679186323E+03 -0.21119576359E+03 -0.27608155184E+03  0.84698132652E+03  0.92644115451E+02 0.  0.
        254    2    1    2    0    0  0.76679186323E+03  0.21119576359E+03  0.38807163267E+03  0.12591898436E+04  0.89576004487E+03 0.  0.
         23    2    4    4    0    0  0.66310656154E+03 -0.20040551539E+03  0.34752571582E+02  0.69924687685E+03  0.88689181953E+02 0.  0.
         23    2    4    4    0    0  0.10368530169E+03  0.41160127898E+03  0.35331906108E+03  0.55994296672E+03  0.92387836890E+02 0.  0.
          1    1    3    3  502    0 -0.77989315545E+02 -0.35091893849E+01 -0.51957216344E+01  0.78240930929E+02  0.00000000000E+00 0. -1.
         -1    1    3    3    0  502 -0.68880254769E+03 -0.20768657421E+03 -0.27088583021E+03  0.76874039559E+03  0.00000000000E+00 0.  1.
         13    1    5    5    0    0  0.48465164823E+03 -0.13705918285E+03 -0.13468621444E+02  0.50383910477E+03  0.00000000000E+00 0.  1.
        -13    1    5    5    0    0  0.17845491331E+03 -0.63346332535E+02  0.48221193026E+02  0.19540777208E+03  0.00000000000E+00 0. -1.
          2    1    6    6  503    0  0.98385400563E+02  0.23730030678E+03  0.17703703503E+03  0.31198274698E+03  0.00000000000E+00 0. -1.
         -2    1    6    6    0  503  0.52999011303E+01  0.17430097220E+03  0.17628202605E+03  0.24796021973E+03  0.00000000000E+00 0.  1.
<mgrwt>
<rscale>  0 0.21031917E+04</rscale>
<asrwt>0</asrwt>
<pdfrwt beam="1">  1        4 0.17062779E+00 0.21031917E+04</pdfrwt>
<pdfrwt beam="2">  1       -4 0.15339854E+00 0.21031917E+04</pdfrwt>
<totfact> 0.10818351E-01</totfact>
</mgrwt>
</event>
<event>
12    3  0.4806716E-008  0.1284498E+04  0.7818608E-02  0.9041949E-01
         -1   -1    0    0    0  501 -0.00000000000E+00  0.00000000000E+00  0.11723490911E+04  0.11723490911E+04  0.00000000000E+00 0.  1.
          1   -1    0    0  501    0  0.00000000000E+00 -0.00000000000E+00 -0.35184385349E+03  0.35184385349E+03  0.00000000000E+00 0. -1.
         23    2    1    2    0    0 -0.21150242503E+03  0.35973234942E+01 -0.76744084395E+02  0.23897578322E+03  0.80458398834E+02 0.  0.
        254    2    1    2    0    0  0.21150242503E+03 -0.35973234942E+01  0.89724932198E+03  0.12852171613E+04  0.89553368976E+03 0.  0.
         23    2    4    4    0    0  0.26219406054E+02 -0.31725465318E+03  0.20876071641E+02  0.33168304624E+03  0.90773677776E+02 0.  0.
         23    2    4    4    0    0  0.18528301898E+03  0.31365732969E+03  0.87637325034E+03  0.95353411510E+03  0.92122294579E+02 0.  0.
          1    1    3    3  502    0 -0.13013293518E+03  0.72245311848E+01 -0.87263106499E+02  0.15684904981E+03  0.00000000000E+00 0. -1.
         -1    1    3    3    0  502 -0.81369489848E+02 -0.36272076906E+01  0.10519022104E+02  0.82126733405E+02  0.00000000000E+00 0.  1.
         13    1    5    5    0    0  0.26586175787E+02 -0.70386534175E+02 -0.27520806475E+02  0.80115439992E+02  0.00000000000E+00 0. -1.
        -13    1    5    5    0    0 -0.36676973270E+00 -0.24686811901E+03  0.48396878116E+02  0.25156760625E+03  0.00000000000E+00 0.  1.
          3    1    6    6  503    0  0.12316873562E+03  0.21520366519E+03  0.69608003881E+03  0.73892528403E+03  0.00000000000E+00 0. -1.
         -3    1    6    6    0  503  0.62114283357E+02  0.98453664501E+02  0.18029321153E+03  0.21460883107E+03  0.00000000000E+00 0.  1.
<mgrwt>
<rscale>  0 0.12844981E+04</rscale>
<asrwt>0</asrwt>
<pdfrwt beam="1">  1        1 0.54129824E-01 0.12844981E+04</pdfrwt>
<pdfrwt beam="2">  1       -1 0.18036140E+00 0.12844981E+04</pdfrwt>
<totfact> 0.14472141E+01</totfact>
</mgrwt>
</event>
<event>
12    3  0.4806716E-008  0.1473592E+04  0.7818608E-02  0.8902206E-01
         -2   -1    0    0    0  501 -0.00000000000E+00  0.00000000000E+00  0.42365111879E+03  0.42365111879E+03  0.00000000000E+00 0.  1.
          2   -1    0    0  501    0  0.00000000000E+00 -0.00000000000E+00 -0.12814047593E+04  0.12814047593E+04  0.00000000000E+00 0. -1.
         23    2    1    2    0    0 -0.12665018071E+03 -0.21670589709E+02 -0.77988541142E+03  0.79549618369E+03  0.89905731678E+02 0.  0.
        254    2    1    2    0    0  0.12665018071E+03  0.21670589709E+02 -0.77868229080E+02  0.90955969439E+03  0.89706493290E+03 0.  0.
         23    2    4    4    0    0 -0.28740097527E+03  0.21737190580E+03 -0.20623601338E+03  0.42510140920E+03  0.91258144121E+02 0.  0.
         23    2    4    4    0    0  0.41405115598E+03 -0.19570131609E+03  0.12836778430E+03  0.48445828519E+03  0.92109593187E+02 0.  0.
          2    1    3    3  502    0 -0.10986500503E+03 -0.83087823430E+01 -0.75338994987E+03  0.76140381649E+03  0.00000000000E+00 0. -1.
         -2    1    3    3    0  502 -0.16785175684E+02 -0.13361807366E+02 -0.26495461545E+02  0.34092367201E+02  0.00000000000E+00 0.  1.
         13    1    5    5    0    0 -0.80532957007E+02  0.54647326909E+02 -0.10483126129E+03  0.14304363266E+03  0.00000000000E+00 0. -1.
        -13    1    5    5    0    0 -0.20686801827E+03  0.16272457889E+03 -0.10140475209E+03  0.28205777653E+03  0.00000000000E+00 0.  1.
          3    1    6    6  503    0  0.12769890553E+03 -0.10387530897E+03  0.65961581383E+02  0.17733589740E+03  0.00000000000E+00 0. -1.
         -3    1    6    6    0  503  0.28635225045E+03 -0.91826007116E+02  0.62406202918E+02  0.30712238779E+03  0.00000000000E+00 0.  1.
<mgrwt>
<rscale>  0 0.14735923E+04</rscale>
<asrwt>0</asrwt>
<pdfrwt beam="1">  1        2 0.19713920E+00 0.14735923E+04</pdfrwt>
<pdfrwt beam="2">  1       -2 0.65177095E-01 0.14735923E+04</pdfrwt>
<totfact> 0.35616067E+01</totfact>
</mgrwt>
</event>
<event>
12    3  0.4806716E-008  0.2311957E+04  0.7818608E-02  0.8473221E-01
         -2   -1    0    0    0  501 -0.00000000000E+00  0.00000000000E+00  0.42938019659E+03  0.42938019659E+03  0.00000000000E+00 0.  1.
          2   -1    0    0  501    0  0.00000000000E+00 -0.00000000000E+00 -0.31121287812E+04  0.31121287812E+04  0.00000000000E+00 0. -1.
         23    2    1    2    0    0 -0.41751998062E+03 -0.13429704204E+03 -0.24884555310E+04  0.25284775056E+04  0.91809241367E+02 0.  0.
        254    2    1    2    0    0  0.41751998062E+03  0.13429704204E+03 -0.19429305366E+03  0.10130314723E+04  0.89225800269E+03 0.  0.
         23    2    4    4    0    0  0.15792870304E+03  0.45289224279E+03 -0.30723526648E+03  0.57677655960E+03  0.90690859043E+02 0.  0.
         23    2    4    4    0    0  0.25959127758E+03 -0.31859520075E+03  0.11294221282E+03  0.43625491265E+03  0.93122886770E+02 0.  0.
          3    1    3    3  502    0 -0.26641190114E+03 -0.56811537523E+02 -0.13267184868E+04  0.13543946231E+04  0.00000000000E+00 0. -1.
         -3    1    3    3    0  502 -0.15110807948E+03 -0.77485504513E+02 -0.11617370442E+04  0.11740828825E+04  0.00000000000E+00 0.  1.
         13    1    5    5    0    0  0.20290791718E+02  0.72745180536E+01 -0.17011594140E+02  0.27459591705E+02  0.00000000000E+00 0.  1.
        -13    1    5    5    0    0  0.13763791132E+03  0.44561772473E+03 -0.29022367234E+03  0.54931696789E+03  0.00000000000E+00 0. -1.
          3    1    6    6  503    0  0.19954181816E+03 -0.29309593702E+03  0.81428925369E+02  0.36380329215E+03  0.00000000000E+00 0. -1.
         -3    1    6    6    0  503  0.60049459419E+02 -0.25499263729E+02  0.31513287455E+02  0.72451620503E+02  0.00000000000E+00 0.  1.
<mgrwt>
<rscale>  0 0.23119572E+04</rscale>
<asrwt>0</asrwt>
<pdfrwt beam="1">  1        2 0.47878905E+00 0.23119572E+04</pdfrwt>
<pdfrwt beam="2">  1       -2 0.66058491E-01 0.23119572E+04</pdfrwt>
<totfact> 0.28258609E+00</totfact>
</mgrwt>
</event>
<event>
12    3  0.4806716E-008  0.2748333E+04  0.7818608E-02  0.8319491E-01
         -1   -1    0    0    0  501 -0.00000000000E+00  0.00000000000E+00  0.89625753261E+03  0.89625753261E+03  0.00000000000E+00 0.  1.
          1   -1    0    0  501    0  0.00000000000E+00 -0.00000000000E+00 -0.21069090987E+04  0.21069090987E+04  0.00000000000E+00 0. -1.
         23    2    1    2    0    0 -0.32077052078E+02  0.63387126523E+03  0.60479193720E+03  0.88143636306E+03  0.91296531567E+02 0.  0.
        254    2    1    2    0    0  0.32077052078E+02 -0.63387126523E+03 -0.18154435032E+04  0.21217302682E+04  0.89614870385E+03 0.  0.
         23    2    4    4    0    0 -0.12851171797E+03 -0.65714220174E+03 -0.63761030644E+03  0.92922040753E+03  0.92479878475E+02 0.  0.
         23    2    4    4    0    0  0.16058877004E+03  0.23270936516E+02 -0.11778331968E+04  0.11925098607E+04  0.91969770980E+02 0.  0.
          4    1    3    3  502    0  0.24990677231E+02  0.17516193538E+03  0.19968170225E+03  0.26679396501E+03  0.00000000000E+00 0. -1.
         -4    1    3    3    0  502 -0.57067729309E+02  0.45870932985E+03  0.40511023495E+03  0.61464239805E+03  0.00000000000E+00 0.  1.
         13    1    5    5    0    0 -0.37994112868E+02 -0.21255782328E+03 -0.14839931399E+03  0.26200522369E+03  0.00000000000E+00 0. -1.
        -13    1    5    5    0    0 -0.90517605098E+02 -0.44458437846E+03 -0.48921099245E+03  0.66721518383E+03  0.00000000000E+00 0.  1.
          2    1    6    6  503    0  0.55271938453E+02 -0.21624161146E+02 -0.22023625315E+03  0.22809339913E+03  0.00000000000E+00 0. -1.
         -2    1    6    6    0  503  0.10531683159E+03  0.44895097662E+02 -0.95759694365E+03  0.96441646155E+03  0.00000000000E+00 0.  1.
<mgrwt>
<rscale>  0 0.27483327E+04</rscale>
<asrwt>0</asrwt>
<pdfrwt beam="1">  1        1 0.32413986E+00 0.27483327E+04</pdfrwt>
<pdfrwt beam="2">  1       -1 0.13788578E+00 0.27483327E+04</pdfrwt>
<totfact> 0.95593777E-01</totfact>
</mgrwt>
</event>
<event>
12    3  0.4806716E-008  0.1442590E+04  0.7818608E-02  0.8923554E-01
         -2   -1    0    0    0  501 -0.00000000000E+00  0.00000000000E+00  0.10550910370E+04  0.10550910370E+04  0.00000000000E+00 0.  1.
          2   -1    0    0  501    0  0.00000000000E+00 -0.00000000000E+00 -0.49310073126E+03  0.49310073126E+03  0.00000000000E+00 0. -1.
         23    2    1    2    0    0 -0.24948735816E+02 -0.33112403825E+03 -0.12454006417E+03  0.36742398623E+03  0.96044728866E+02 0.  0.
        254    2    1    2    0    0  0.24948735816E+02  0.33112403825E+03  0.68653036993E+03  0.11807677821E+04  0.90145606558E+03 0.  0.
         23    2    4    4    0    0  0.14528516796E+03 -0.18421804941E+03 -0.61726102452E+02  0.25964488837E+03  0.92527220735E+02 0.  0.
         23    2    4    4    0    0 -0.12033643215E+03  0.51534208766E+03  0.74825647238E+03  0.92112289368E+03  0.92310955929E+02 0.  0.
          2    1    3    3  502    0 -0.15450345592E+02 -0.26425648406E+03 -0.54761100719E+02  0.27031274609E+03  0.00000000000E+00 0.  1.
         -2    1    3    3    0  502 -0.94983902238E+01 -0.66867554193E+02 -0.69778963449E+02  0.97111240135E+02  0.00000000000E+00 0. -1.
         13    1    5    5    0    0  0.14237310735E+03 -0.11760857967E+03 -0.35780510029E+02  0.18810136790E+03  0.00000000000E+00 0. -1.
        -13    1    5    5    0    0  0.29120606164E+01 -0.66609469736E+02 -0.25945592422E+02  0.71543520473E+02  0.00000000000E+00 0.  1.
          3    1    6    6  503    0 -0.11635351384E+03  0.30472091386E+03  0.47094427072E+03  0.57287126097E+03  0.00000000000E+00 0. -1.
         -3    1    6    6    0  503 -0.39829183030E+01  0.21062117380E+03  0.27731220166E+03  0.34825163271E+03  0.00000000000E+00 0.  1.
<mgrwt>
<rscale>  0 0.14425896E+04</rscale>
<asrwt>0</asrwt>
<pdfrwt beam="1">  1        2 0.75861651E-01 0.14425896E+04</pdfrwt>
<pdfrwt beam="2">  1       -2 0.16232170E+00 0.14425896E+04</pdfrwt>
<totfact> 0.14690433E+01</totfact>
</mgrwt>
</event>
<event>
12    3  0.4806716E-008  0.1521609E+04  0.7818608E-02  0.8870209E-01
          1   -1    0    0  501    0  0.00000000000E+00  0.00000000000E+00  0.39294657050E+03  0.39294657050E+03  0.00000000000E+00 0. -1.
         -1   -1    0    0    0  501 -0.00000000000E+00 -0.00000000000E+00 -0.14730343000E+04  0.14730343000E+04  0.00000000000E+00 0.  1.
         23    2    1    2    0    0  0.17110446912E+03  0.44840000273E+03 -0.21996836515E+03  0.53562226685E+03  0.90364978179E+02 0.  0.
        254    2    1    2    0    0 -0.17110446912E+03 -0.44840000273E+03 -0.86011936439E+03  0.13303586037E+04  0.89426472122E+03 0.  0.
         23    2    4    4    0    0 -0.28809698943E+03 -0.10503139798E+03  0.69970697203E+02  0.32796974463E+03  0.92934304996E+02 0.  0.
         23    2    4    4    0    0  0.11699252031E+03 -0.34336860475E+03 -0.93009006159E+03  0.10023888591E+04  0.90147953790E+02 0.  0.
          2    1    3    3  502    0  0.13930435049E+03  0.42915221860E+03 -0.20273774332E+03  0.49465131291E+03  0.00000000000E+00 0. -1.
         -2    1    3    3    0  502  0.31800118626E+02  0.19247784132E+02 -0.17230621823E+02  0.40970953943E+02  0.00000000000E+00 0.  1.
         13    1    5    5    0    0 -0.21786671191E+03 -0.10977256396E+03  0.26874617048E+02  0.24543464506E+03  0.00000000000E+00 0.  1.
        -13    1    5    5    0    0 -0.70230277519E+02  0.47411659797E+01  0.43096080155E+02  0.82535099564E+02  0.00000000000E+00 0. -1.
          3    1    6    6  503    0  0.69955161713E+02 -0.14256245922E+03 -0.30050602315E+03  0.33988475897E+03  0.00000000000E+00 0. -1.
         -3    1    6    6    0  503  0.47037358592E+02 -0.20080614553E+03 -0.62958403844E+03  0.66250410010E+03  0.00000000000E+00 0.  1.
<mgrwt>
<rscale>  0 0.15216094E+04</rscale>
<asrwt>0</asrwt>
<pdfrwt beam="1">  1        1 0.60453317E-01 0.15216094E+04</pdfrwt>
<pdfrwt beam="2">  1       -1 0.22662067E+00 0.15216094E+04</pdfrwt>
<totfact> 0.58975569E+00</totfact>
</mgrwt>
</event>
<event>
12    3  0.4806716E-008  0.1445064E+04  0.7818608E-02  0.8921830E-01
          2   -1    0    0  501    0  0.00000000000E+00  0.00000000000E+00  0.19218962575E+04  0.19218962575E+04  0.00000000000E+00 0. -1.
         -2   -1    0    0    0  501 -0.00000000000E+00 -0.00000000000E+00 -0.27163398733E+03  0.27163398733E+03  0.00000000000E+00 0.  1.
         23    2    1    2    0    0 -0.19377214173E+03  0.22958990739E+03  0.98768528703E+03  0.10364867477E+04  0.92322171631E+02 0.  0.
        254    2    1    2    0    0  0.19377214173E+03 -0.22958990739E+03  0.66257698312E+03  0.11570434971E+04  0.89971230248E+03 0.  0.
         23    2    4    4    0    0 -0.14894368468E+03 -0.38480602657E+03  0.39581293449E+02  0.42364042188E+03  0.87433568936E+02 0.  0.
         23    2    4    4    0    0  0.34271582641E+03  0.15521611917E+03  0.62299568967E+03  0.73340307526E+03  0.90610485773E+02 0.  0.
          1    1    3    3  502    0 -0.13761571207E+03  0.19935196687E+03  0.86412977875E+03  0.89744056373E+03  0.00000000000E+00 0. -1.
         -1    1    3    3    0  502 -0.56156429667E+02  0.30237940522E+02  0.12355550827E+03  0.13904618393E+03  0.00000000000E+00 0.  1.
         13    1    5    5    0    0 -0.14972827985E+03 -0.37981841636E+03  0.25932956808E+02  0.40908813896E+03  0.00000000000E+00 0.  1.
        -13    1    5    5    0    0  0.78459517383E+00 -0.49876102092E+01  0.13648336641E+02  0.14552282922E+02  0.00000000000E+00 0. -1.
          4    1    6    6  503    0  0.20702329139E+03  0.44954774262E+02  0.35546151179E+03  0.41380244232E+03  0.00000000000E+00 0.  1.
         -4    1    6    6    0  503  0.13569253502E+03  0.11026134491E+03  0.26753417788E+03  0.31960063294E+03  0.00000000000E+00 0. -1.
<mgrwt>
<rscale>  0 0.14450638E+04</rscale>
<asrwt>0</asrwt>
<pdfrwt beam="1">  1        2 0.29567634E+00 0.14450638E+04</pdfrwt>
<pdfrwt beam="2">  1       -2 0.41789845E-01 0.14450638E+04</pdfrwt>
<totfact> 0.38878436E+01</totfact>
</mgrwt>
</event>
<event>
12    3  0.4806716E-008  0.1338459E+04  0.7818608E-02  0.8999610E-01
          1   -1    0    0  501    0  0.00000000000E+00  0.00000000000E+00  0.12086274053E+04  0.12086274053E+04  0.00000000000E+00 0. -1.
         -1   -1    0    0    0  501 -0.00000000000E+00 -0.00000000000E+00 -0.37055952723E+03  0.37055952723E+03  0.00000000000E+00 0.  1.
         23    2    1    2    0    0  0.91978260914E+01  0.29036934951E+03  0.48316631343E+03  0.57140319746E+03  0.93021333545E+02 0.  0.
        254    2    1    2    0    0 -0.91978260914E+01 -0.29036934951E+03  0.35490156467E+03  0.10077837351E+04  0.89737059067E+03 0.  0.
         23    2    4    4    0    0  0.27180010595E+03 -0.21426049495E+03  0.54258738034E+03  0.64977336978E+03  0.89562880009E+02 0.  0.
         23    2    4    4    0    0 -0.28099793204E+03 -0.76108854564E+02 -0.18768581567E+03  0.35801036532E+03  0.90515527494E+02 0.  0.
          2    1    3    3  502    0  0.33744498035E+02  0.24828766008E+03  0.43984286152E+03  0.50620864880E+03  0.00000000000E+00 0. -1.
         -2    1    3    3    0  502 -0.24546671943E+02  0.42081689437E+02  0.43323451912E+02  0.65194548659E+02  0.00000000000E+00 0.  1.
         13    1    5    5    0    0  0.21790096609E+03 -0.12452735412E+03  0.35164605788E+03  0.43202180844E+03  0.00000000000E+00 0.  1.
        -13    1    5    5    0    0  0.53899139862E+02 -0.89733140825E+02  0.19094132246E+03  0.21775156134E+03  0.00000000000E+00 0. -1.
          2    1    6    6  503    0 -0.10990479191E+03 -0.20662154692E+02 -0.12457296408E+03  0.16740493213E+03  0.00000000000E+00 0. -1.
         -2    1    6    6    0  503 -0.17109314013E+03 -0.55446699872E+02 -0.63112851597E+02  0.19060543320E+03  0.00000000000E+00 0.  1.
<mgrwt>
<rscale>  0 0.13384594E+04</rscale>
<asrwt>0</asrwt>
<pdfrwt beam="1">  1        1 0.18594268E+00 0.13384594E+04</pdfrwt>
<pdfrwt beam="2">  1       -1 0.57009159E-01 0.13384594E+04</pdfrwt>
<totfact> 0.32138584E+01</totfact>
</mgrwt>
</event>
<event>
12    3  0.4806716E-008  0.1432850E+04  0.7818608E-02  0.8930378E-01
         -1   -1    0    0    0  501 -0.00000000000E+00  0.00000000000E+00  0.55028017233E+03  0.55028017233E+03  0.00000000000E+00 0.  1.
          1   -1    0    0  501    0  0.00000000000E+00 -0.00000000000E+00 -0.93273330673E+03  0.93273330673E+03  0.00000000000E+00 0. -1.
         23    2    1    2    0    0 -0.56271544823E+02  0.24120035640E+03 -0.49130502786E+03  0.55770470619E+03  0.91158160532E+02 0.  0.
        254    2    1    2    0    0  0.56271544823E+02 -0.24120035640E+03  0.10885189346E+03  0.92530877287E+03  0.88487484525E+03 0.  0.
         23    2    4    4    0    0  0.50441417615E+02  0.31420461881E+03  0.14433387168E+03  0.36156441763E+03  0.92885319032E+02 0.  0.
         23    2    4    4    0    0  0.58301272084E+01 -0.55540497521E+03 -0.35481978216E+02  0.56374435523E+03  0.89666328166E+02 0.  0.
          4    1    3    3  502    0  0.19345610581E+02  0.97412356069E+02 -0.22181806078E+03  0.24303635911E+03  0.00000000000E+00 0. -1.
         -4    1    3    3    0  502 -0.75617155404E+02  0.14378800033E+03 -0.26948696708E+03  0.31466834708E+03  0.00000000000E+00 0.  1.
         13    1    5    5    0    0  0.86521567262E+01  0.11591906926E+03  0.10177993357E+03  0.15450322104E+03  0.00000000000E+00 0. -1.
        -13    1    5    5    0    0  0.41789260888E+02  0.19828554955E+03  0.42553938106E+02  0.20706119659E+03  0.00000000000E+00 0.  1.
          3    1    6    6  503    0  0.12983751844E+02 -0.50520803798E+03 -0.66552773297E+01  0.50541867018E+03  0.00000000000E+00 0.  1.
         -3    1    6    6    0  503 -0.71536246353E+01 -0.50196937231E+02 -0.28826700886E+02  0.58325685052E+02  0.00000000000E+00 0. -1.
<mgrwt>
<rscale>  0 0.14328498E+04</rscale>
<asrwt>0</asrwt>
<pdfrwt beam="1">  1        1 0.14349743E+00 0.14328498E+04</pdfrwt>
<pdfrwt beam="2">  1       -1 0.84658489E-01 0.14328498E+04</pdfrwt>
<totfact> 0.22993363E+01</totfact>
</mgrwt>
</event>
<event>
12    3  0.4806716E-008  0.1153408E+04  0.7818608E-02  0.9154645E-01
         -1   -1    0    0    0  501 -0.00000000000E+00  0.00000000000E+00  0.54720472304E+03  0.54720472304E+03  0.00000000000E+00 0.  1.
          1   -1    0    0  501    0  0.00000000000E+00 -0.00000000000E+00 -0.60779339859E+03  0.60779339859E+03  0.00000000000E+00 0. -1.
         23    2    1    2    0    0 -0.53036985948E+02  0.23868810087E+02 -0.20874756646E+03  0.24424487831E+03  0.11268261668E+03 0.  0.
        254    2    1    2    0    0  0.53036985948E+02 -0.23868810087E+02  0.14815889091E+03  0.91075324333E+03  0.89673729225E+03 0.  0.
         23    2    4    4    0    0 -0.26590461040E+03  0.22912804255E+03 -0.15571187162E+03  0.39535655236E+03  0.94104701338E+02 0.  0.
         23    2    4    4    0    0  0.31894159635E+03 -0.25299685263E+03  0.30387076253E+03  0.51539669097E+03  0.86977924893E+02 0.  0.
          4    1    3    3  502    0 -0.65928426052E+02 -0.16817676332E+02 -0.18092849837E+03  0.19329902515E+03  0.00000000000E+00 0. -1.
         -4    1    3    3    0  502  0.12891440104E+02  0.40686486419E+02 -0.27819068087E+02  0.50945853161E+02  0.00000000000E+00 0.  1.
         13    1    5    5    0    0 -0.20537381296E+03  0.21740830033E+03 -0.14646639425E+03  0.33301227717E+03  0.00000000000E+00 0. -1.
        -13    1    5    5    0    0 -0.60530797444E+02  0.11719742218E+02 -0.92454773674E+01  0.62344275187E+02  0.00000000000E+00 0.  1.
          3    1    6    6  503    0  0.18639350496E+03 -0.19644543956E+03  0.17805384701E+03  0.32409338446E+03  0.00000000000E+00 0. -1.
         -3    1    6    6    0  503  0.13254809139E+03 -0.56551413076E+02  0.12581691552E+03  0.19130330652E+03  0.00000000000E+00 0.  1.
<mgrwt>
<rscale>  0 0.11534079E+04</rscale>
<asrwt>0</asrwt>
<pdfrwt beam="1">  1        1 0.93506677E-01 0.11534079E+04</pdfrwt>
<pdfrwt beam="2">  1       -1 0.84185342E-01 0.11534079E+04</pdfrwt>
<totfact> 0.46684785E+01</totfact>
</mgrwt>
</event>
<event>
12    3  0.4806716E-008  0.2050350E+04  0.7818608E-02  0.8583435E-01
         -1   -1    0    0    0  501 -0.00000000000E+00  0.00000000000E+00  0.55109183906E+03  0.55109183906E+03  0.00000000000E+00 0.  1.
          1   -1    0    0  501    0  0.00000000000E+00 -0.00000000000E+00 -0.19070942612E+04  0.19070942612E+04  0.00000000000E+00 0. -1.
         23    2    1    2    0    0 -0.59952334796E+03  0.44769972803E+03 -0.13254980867E+03  0.76533828479E+03  0.91158911608E+02 0.  0.
        254    2    1    2    0    0  0.59952334796E+03 -0.44769972803E+03 -0.12234526135E+04  0.16928478155E+04  0.89946324978E+03 0.  0.
         23    2    4    4    0    0  0.38279143268E+03 -0.58491235690E+03 -0.36756038475E+03  0.79461936036E+03  0.87564520407E+02 0.  0.
         23    2    4    4    0    0  0.21673191527E+03  0.13721262887E+03 -0.85589222873E+03  0.89822845511E+03  0.91993596273E+02 0.  0.
          3    1    3    3  502    0 -0.53262363931E+03  0.40974911341E+03 -0.14488751272E+03  0.68744066539E+03  0.00000000000E+00 0. -1.
         -3    1    3    3    0  502 -0.66899708646E+02  0.37950614626E+02  0.12337704049E+02  0.77897619403E+02  0.00000000000E+00 0.  1.
         13    1    5    5    0    0  0.14501328362E+03 -0.30133675571E+03 -0.17688706589E+03  0.37831432281E+03  0.00000000000E+00 0.  1.
        -13    1    5    5    0    0  0.23777814906E+03 -0.28357560120E+03 -0.19067331886E+03  0.41630503755E+03  0.00000000000E+00 0. -1.
          2    1    6    6  503    0  0.57567207216E+02 -0.50715859320E+01 -0.21954384637E+03  0.22702247644E+03  0.00000000000E+00 0. -1.
         -2    1    6    6    0  503  0.15916470806E+03  0.14228421480E+03 -0.63634838236E+03  0.67120597867E+03  0.00000000000E+00 0.  1.
<mgrwt>
<rscale>  0 0.20503503E+04</rscale>
<asrwt>0</asrwt>
<pdfrwt beam="1">  1        1 0.29339912E+00 0.20503503E+04</pdfrwt>
<pdfrwt beam="2">  1       -1 0.84783360E-01 0.20503503E+04</pdfrwt>
<totfact> 0.43808887E+00</totfact>
</mgrwt>
</event>
<event>
12    3  0.4806716E-008  0.3095363E+04  0.7818608E-02  0.8217012E-01
         -2   -1    0    0    0  501 -0.00000000000E+00  0.00000000000E+00  0.65679379449E+03  0.65679379449E+03  0.00000000000E+00 0.  1.
          2   -1    0    0  501    0  0.00000000000E+00 -0.00000000000E+00 -0.36469856385E+04  0.36469856385E+04  0.00000000000E+00 0. -1.
         23    2    1    2    0    0 -0.69497988449E+03 -0.11000267816E+04 -0.20431281953E+04  0.24239758107E+04  0.90719061375E+02 0.  0.
        254    2    1    2    0    0  0.69497988449E+03  0.11000267816E+04 -0.94706364872E+03  0.18798036224E+04  0.97142994796E+03 0.  0.
         23    2    4    4    0    0 -0.18274364350E+03  0.42499613995E+03 -0.97976293532E+02  0.48164294804E+03  0.91452813500E+02 0.  0.
         23    2    4    4    0    0  0.87772352798E+03  0.67503064167E+03 -0.84908735519E+03  0.13981606743E+04  0.88537990137E+02 0.  0.
          4    1    3    3  502    0 -0.52055273129E+03 -0.75589431789E+03 -0.14748290620E+04  0.17370872540E+04  0.00000000000E+00 0. -1.
         -4    1    3    3    0  502 -0.17442715319E+03 -0.34413246372E+03 -0.56829913335E+03  0.68688855670E+03  0.00000000000E+00 0.  1.
         13    1    5    5    0    0  0.22361581422E+00  0.30004077450E+01  0.89345869253E+01  0.94275815666E+01  0.00000000000E+00 0.  1.
        -13    1    5    5    0    0 -0.18296725931E+03  0.42199573220E+03 -0.10691088046E+03  0.47221536648E+03  0.00000000000E+00 0. -1.
          4    1    6    6  503    0  0.71198125825E+03  0.58897111090E+03 -0.71095302079E+03  0.11658724113E+04  0.00000000000E+00 0. -1.
         -4    1    6    6    0  503  0.16574226974E+03  0.86059530766E+02 -0.13813433440E+03  0.23228826305E+03  0.00000000000E+00 0.  1.
<mgrwt>
<rscale>  0 0.30953627E+04</rscale>
<asrwt>0</asrwt>
<pdfrwt beam="1">  1        2 0.56107471E+00 0.30953627E+04</pdfrwt>
<pdfrwt beam="2">  1       -2 0.10104520E+00 0.30953627E+04</pdfrwt>
<totfact> 0.43645081E-01</totfact>
</mgrwt>
</event>
<event>
12    3  0.4806716E-008  0.1793859E+04  0.7818608E-02  0.8709572E-01
          1   -1    0    0  501    0  0.00000000000E+00  0.00000000000E+00  0.20311153060E+04  0.20311153060E+04  0.00000000000E+00 0. -1.
         -1   -1    0    0    0  501 -0.00000000000E+00 -0.00000000000E+00 -0.39607902326E+03  0.39607902326E+03  0.00000000000E+00 0.  1.
         23    2    1    2    0    0  0.13663988247E+03 -0.62402373542E+03  0.85337728586E+03  0.10697776968E+04  0.89974711841E+02 0.  0.
        254    2    1    2    0    0 -0.13663988247E+03  0.62402373542E+03  0.78165899689E+03  0.13574166324E+04  0.90747619624E+03 0.  0.
         23    2    4    4    0    0  0.87087706472E+02  0.70339695495E+03  0.83411266337E+03  0.10982374331E+04  0.89610152022E+02 0.  0.
         23    2    4    4    0    0 -0.22372758895E+03 -0.79373219529E+02 -0.52453666486E+02  0.25917919936E+03  0.89823873329E+02 0.  0.
          2    1    3    3  502    0  0.63514808172E+02 -0.26734726028E+03  0.44163230382E+03  0.52014207695E+03  0.00000000000E+00 0. -1.
         -2    1    3    3    0  502  0.73125074302E+02 -0.35667647514E+03  0.41174498204E+03  0.54963561988E+03  0.00000000000E+00 0.  1.
         13    1    5    5    0    0  0.68796937188E+01  0.28701536052E+03  0.38903089081E+03  0.48349786076E+03  0.00000000000E+00 0.  1.
        -13    1    5    5    0    0  0.80208012753E+02  0.41638159443E+03  0.44508177256E+03  0.61473957230E+03  0.00000000000E+00 0. -1.
          1    1    6    6  503    0 -0.16378446201E+03 -0.20201236958E+02 -0.11240202113E+02  0.16540792639E+03  0.00000000000E+00 0. -1.
         -1    1    6    6    0  503 -0.59943126937E+02 -0.59171982571E+02 -0.41213464373E+02  0.93771272968E+02  0.00000000000E+00 0.  1.
<mgrwt>
<rscale>  0 0.17938586E+04</rscale>
<asrwt>0</asrwt>
<pdfrwt beam="1">  1        1 0.31247927E+00 0.17938586E+04</pdfrwt>
<pdfrwt beam="2">  1       -1 0.60935235E-01 0.17938586E+04</pdfrwt>
<totfact> 0.73206522E+00</totfact>
</mgrwt>
</event>
<event>
12    3  0.4806716E-008  0.1612294E+04  0.7818608E-02  0.8813031E-01
         -2   -1    0    0    0  501 -0.00000000000E+00  0.00000000000E+00  0.30320369742E+03  0.30320369742E+03  0.00000000000E+00 0. -1.
          2   -1    0    0  501    0  0.00000000000E+00 -0.00000000000E+00 -0.21433542928E+04  0.21433542928E+04  0.00000000000E+00 0.  1.
         23    2    1    2    0    0 -0.77828193327E+02  0.19225229470E+03 -0.14610075759E+04  0.14783738646E+04  0.89598962572E+02 0.  0.
        254    2    1    2    0    0  0.77828193327E+02 -0.19225229470E+03 -0.37914301951E+03  0.96818412568E+03  0.86637918920E+03 0.  0.
         23    2    4    4    0    0 -0.21786302592E+03 -0.32581253710E+02  0.18780323447E+03  0.30330588817E+03  0.90545959400E+02 0.  0.
         23    2    4    4    0    0  0.29569121925E+03 -0.15967104099E+03 -0.56694625398E+03  0.66487823751E+03  0.87788822431E+02 0.  0.
          4    1    3    3  502    0  0.37281263391E+01 -0.44386324676E+01 -0.81802202344E+01  0.10025786117E+02  0.00000000000E+00 0. -1.
         -4    1    3    3    0  502 -0.81556319666E+02  0.19669092717E+03 -0.14528273557E+04  0.14683480784E+04  0.00000000000E+00 0.  1.
         13    1    5    5    0    0 -0.17175673926E+03  0.10467728045E+02  0.15771522678E+03  0.23341817318E+03  0.00000000000E+00 0.  1.
        -13    1    5    5    0    0 -0.46106286658E+02 -0.43048981755E+02  0.30088007690E+02  0.69887714989E+02  0.00000000000E+00 0. -1.
          1    1    6    6  503    0  0.48372965650E+02  0.67192850492E+01 -0.69077692179E+02  0.84597991431E+02  0.00000000000E+00 0. -1.
         -1    1    6    6    0  503  0.24731825360E+03 -0.16639032604E+03 -0.49786856180E+03  0.58028024608E+03  0.00000000000E+00 0.  1.
<mgrwt>
<rscale>  0 0.16122940E+04</rscale>
<asrwt>0</asrwt>
<pdfrwt beam="1">  1        2 0.32974681E+00 0.16122940E+04</pdfrwt>
<pdfrwt beam="2">  1       -2 0.46646723E-01 0.16122940E+04</pdfrwt>
<totfact> 0.23205538E+01</totfact>
</mgrwt>
</event>
<event>
12    3  0.4806716E-008  0.2247155E+04  0.7818608E-02  0.8499054E-01
          2   -1    0    0  501    0  0.00000000000E+00  0.00000000000E+00  0.26012428815E+04  0.26012428815E+04  0.00000000000E+00 0. -1.
         -2   -1    0    0    0  501 -0.00000000000E+00 -0.00000000000E+00 -0.48531656819E+03  0.48531656819E+03  0.00000000000E+00 0.  1.
         23    2    1    2    0    0  0.24064701184E+03  0.85128782002E+03  0.44356760946E+03  0.99390918786E+03  0.92202563592E+02 0.  0.
        254    2    1    2    0    0 -0.24064701184E+03 -0.85128782002E+03  0.16723587039E+04  0.20926502618E+04  0.89431512745E+03 0.  0.
         23    2    4    4    0    0 -0.31346643385E+03 -0.25824954927E+03  0.13114498973E+03  0.43721184297E+03  0.94874403616E+02 0.  0.
         23    2    4    4    0    0  0.72819422005E+02 -0.59303827075E+03  0.15412137141E+04  0.16554384189E+04  0.90219661096E+02 0.  0.
          3    1    3    3  502    0  0.19520263968E+03  0.70620390376E+03  0.40453150052E+03  0.83694310388E+03  0.00000000000E+00 0.  1.
         -3    1    3    3    0  502  0.45444372163E+02  0.14508391626E+03  0.39036108937E+02  0.15696608398E+03  0.00000000000E+00 0. -1.
         13    1    5    5    0    0 -0.80328787286E+02 -0.87611522941E+02 -0.24912796428E+01  0.11888944231E+03  0.00000000000E+00 0.  1.
        -13    1    5    5    0    0 -0.23313764656E+03 -0.17063802633E+03  0.13363626938E+03  0.31832240066E+03  0.00000000000E+00 0. -1.
          3    1    6    6  503    0  0.84007935991E+02 -0.37504893167E+03  0.92309515949E+03  0.99991185008E+03  0.00000000000E+00 0. -1.
         -3    1    6    6    0  503 -0.11188513986E+02 -0.21798933908E+03  0.61811855463E+03  0.65552656878E+03  0.00000000000E+00 0.  1.
<mgrwt>
<rscale>  0 0.22471549E+04</rscale>
<asrwt>0</asrwt>
<pdfrwt beam="1">  1        2 0.40019121E+00 0.22471549E+04</pdfrwt>
<pdfrwt beam="2">  1       -2 0.74664089E-01 0.22471549E+04</pdfrwt>
<totfact> 0.44621122E+00</totfact>
</mgrwt>
</event>
<event>
12    3  0.4806716E-008  0.2306188E+04  0.7818608E-02  0.8475485E-01
         -2   -1    0    0    0  501 -0.00000000000E+00  0.00000000000E+00  0.47338977193E+03  0.47338977193E+03  0.00000000000E+00 0.  1.
          2   -1    0    0  501    0  0.00000000000E+00 -0.00000000000E+00 -0.28087344984E+04  0.28087344984E+04  0.00000000000E+00 0. -1.
         23    2    1    2    0    0 -0.31672053614E+03  0.40299701256E+02  0.32114411739E+03  0.46186246451E+03  0.90815351431E+02 0.  0.
        254    2    1    2    0    0  0.31672053614E+03 -0.40299701256E+02 -0.26564888439E+04  0.28202618058E+04  0.89163204959E+03 0.  0.
         23    2    4    4    0    0 -0.29518506189E+03 -0.33117284614E+02 -0.11587111152E+04  0.11996544706E+04  0.91260204682E+02 0.  0.
         23    2    4    4    0    0  0.61190559802E+03 -0.71824166423E+01 -0.14977777286E+04  0.16206073352E+04  0.92466007800E+02 0.  0.
          1    1    3    3  502    0  0.44092864016E+01 -0.57443391274E+01  0.10087931318E+02  0.12417954617E+02  0.00000000000E+00 0. -1.
         -1    1    3    3    0  502 -0.32112982254E+03  0.46044040384E+02  0.31105618608E+03  0.44944450990E+03  0.00000000000E+00 0.  1.
         13    1    5    5    0    0 -0.24843310342E+02  0.10385918735E+02 -0.42214848193E+02  0.50071456786E+02  0.00000000000E+00 0. -1.
        -13    1    5    5    0    0 -0.27034175154E+03 -0.43503203349E+02 -0.11164962670E+04  0.11495830138E+04  0.00000000000E+00 0.  1.
          1    1    6    6  503    0  0.39754738632E+03  0.26901536263E+02 -0.10481308521E+04  0.11213143628E+04  0.00000000000E+00 0. -1.
         -1    1    6    6    0  503  0.21435821171E+03 -0.34083952905E+02 -0.44964687652E+03  0.49929297244E+03  0.00000000000E+00 0.  1.
<mgrwt>
<rscale>  0 0.23061884E+04</rscale>
<asrwt>0</asrwt>
<pdfrwt beam="1">  1        2 0.43211300E+00 0.23061884E+04</pdfrwt>
<pdfrwt beam="2">  1       -2 0.72829196E-01 0.23061884E+04</pdfrwt>
<totfact> 0.35286382E+00</totfact>
</mgrwt>
</event>
<event>
12    3  0.4806716E-008  0.1189768E+04  0.7818608E-02  0.9121860E-01
          1   -1    0    0  501    0  0.00000000000E+00  0.00000000000E+00  0.26457346567E+03  0.26457346567E+03  0.00000000000E+00 0. -1.
         -1   -1    0    0    0  501 -0.00000000000E+00 -0.00000000000E+00 -0.13375750695E+04  0.13375750695E+04  0.00000000000E+00 0.  1.
         23    2    1    2    0    0 -0.20396835322E+03  0.26224326917E+02 -0.32325630160E+03  0.39513885085E+03  0.96691625768E+02 0.  0.
        254    2    1    2    0    0  0.20396835322E+03 -0.26224326917E+02 -0.74974530225E+03  0.12070096843E+04  0.92328952956E+03 0.  0.
         23    2    4    4    0    0 -0.15671729291E+03 -0.38245441929E+03 -0.26335676523E+03  0.49866929947E+03  0.92100986489E+02 0.  0.
         23    2    4    4    0    0  0.36068564613E+03  0.35623009237E+03 -0.48638853702E+03  0.70834038486E+03  0.90433831334E+02 0.  0.
          1    1    3    3  502    0 -0.20778461375E+03  0.72865744106E+01 -0.29454557649E+03  0.36053382158E+03  0.00000000000E+00 0. -1.
         -1    1    3    3    0  502  0.38162605293E+01  0.18937752506E+02 -0.28710725110E+02  0.34605029270E+02  0.00000000000E+00 0.  1.
         13    1    5    5    0    0 -0.72618888062E+02 -0.15670780516E+03 -0.16369927238E+03  0.23796699536E+03  0.00000000000E+00 0. -1.
        -13    1    5    5    0    0 -0.84098404847E+02 -0.22574661413E+03 -0.99657492843E+02  0.26070230411E+03  0.00000000000E+00 0.  1.
          4    1    6    6  503    0  0.26107250640E+03  0.30339535283E+03 -0.40389031329E+03  0.56862551727E+03  0.00000000000E+00 0.  1.
         -4    1    6    6    0  503  0.99613139729E+02  0.52834739539E+02 -0.82498223734E+02  0.13971486760E+03  0.00000000000E+00 0. -1.
<mgrwt>
<rscale>  0 0.11897678E+04</rscale>
<asrwt>0</asrwt>
<pdfrwt beam="1">  1        1 0.40703611E-01 0.11897678E+04</pdfrwt>
<pdfrwt beam="2">  1       -1 0.20578077E+00 0.11897678E+04</pdfrwt>
<totfact> 0.14059427E+01</totfact>
</mgrwt>
</event>
<event>
12    3  0.4806716E-008  0.2137496E+04  0.7818608E-02  0.8544904E-01
          2   -1    0    0  501    0  0.00000000000E+00  0.00000000000E+00  0.12740488118E+04  0.12740488118E+04  0.00000000000E+00 0. -1.
         -2   -1    0    0    0  501 -0.00000000000E+00 -0.00000000000E+00 -0.89652929742E+03  0.89652929742E+03  0.00000000000E+00 0.  1.
         23    2    1    2    0    0 -0.21093640129E+03  0.45519668087E+03 -0.57552236973E+03  0.76903985100E+03  0.92185197812E+02 0.  0.
        254    2    1    2    0    0  0.21093640129E+03 -0.45519668087E+03  0.95304188413E+03  0.14015382582E+04  0.89684027158E+03 0.  0.
         23    2    4    4    0    0  0.75771563539E+02 -0.55602775481E+03  0.10440963047E+04  0.11890873239E+04  0.94251664425E+02 0.  0.
         23    2    4    4    0    0  0.13516483775E+03  0.10083107394E+03 -0.91054420611E+02  0.21245093437E+03  0.91695436998E+02 0.  0.
          3    1    3    3  502    0 -0.84611111117E+02  0.10122891277E+03 -0.11857322683E+03  0.17738642289E+03  0.00000000000E+00 0. -1.
         -3    1    3    3    0  502 -0.12632529017E+03  0.35396776810E+03 -0.45694914290E+03  0.59165342811E+03  0.00000000000E+00 0.  1.
         13    1    5    5    0    0  0.27667905602E+02 -0.33689827994E+03  0.53634576306E+03  0.63398165713E+03  0.00000000000E+00 0. -1.
        -13    1    5    5    0    0  0.48103657936E+02 -0.21912947487E+03  0.50775054168E+03  0.55510566674E+03  0.00000000000E+00 0.  1.
          1    1    6    6  503    0  0.95433016495E+02  0.11392818478E+03 -0.59653552731E+02  0.16014255611E+03  0.00000000000E+00 0. -1.
         -1    1    6    6    0  503  0.39731821255E+02 -0.13097110838E+02 -0.31400867880E+02  0.52308378259E+02  0.00000000000E+00 0.  1.
<mgrwt>
<rscale>  0 0.21374958E+04</rscale>
<asrwt>0</asrwt>
<pdfrwt beam="1">  1        2 0.19600751E+00 0.21374958E+04</pdfrwt>
<pdfrwt beam="2">  1       -2 0.13792758E+00 0.21374958E+04</pdfrwt>
<totfact> 0.58730046E+00</totfact>
</mgrwt>
</event>
<event>
12    3  0.4806716E-008  0.2986174E+04  0.7818608E-02  0.8247690E-01
         -1   -1    0    0    0  501 -0.00000000000E+00  0.00000000000E+00  0.74763868950E+03  0.74763868950E+03  0.00000000000E+00 0. -1.
          1   -1    0    0  501    0  0.00000000000E+00 -0.00000000000E+00 -0.29817998221E+04  0.29817998221E+04  0.00000000000E+00 0.  1.
         23    2    1    2    0    0  0.10365353064E+04 -0.82597964218E+03 -0.13599998383E+04  0.19012104462E+04  0.91399069497E+02 0.  0.
        254    2    1    2    0    0 -0.10365353064E+04  0.82597964218E+03 -0.87416129432E+03  0.18282280654E+04  0.90642819893E+03 0.  0.
         23    2    4    4    0    0  0.11730155990E+03  0.16532268715E+03 -0.31047332214E+03  0.38128486120E+03  0.88843766115E+02 0.  0.
         23    2    4    4    0    0 -0.11538368663E+04  0.66065695503E+03 -0.56368797218E+03  0.14469432042E+04  0.89963213810E+02 0.  0.
          3    1    3    3  502    0  0.18751270619E+03 -0.17255950783E+03 -0.30740556525E+03  0.39929435291E+03  0.00000000000E+00 0. -1.
         -3    1    3    3    0  502  0.84902260024E+03 -0.65342013436E+03 -0.10525942731E+04  0.15019160933E+04  0.00000000000E+00 0.  1.
         13    1    5    5    0    0  0.11059583116E+02  0.78690823913E+02 -0.77665911493E+02  0.11111504828E+03  0.00000000000E+00 0.  1.
        -13    1    5    5    0    0  0.10624197678E+03  0.86631863236E+02 -0.23280741065E+03  0.27016981292E+03  0.00000000000E+00 0. -1.
          3    1    6    6  503    0 -0.88140596334E+03  0.52731244220E+03 -0.39965705414E+03  0.11021164389E+04  0.00000000000E+00 0. -1.
         -3    1    6    6    0  503 -0.27243090299E+03  0.13334451283E+03 -0.16403091804E+03  0.34482676532E+03  0.00000000000E+00 0.  1.
<mgrwt>
<rscale>  0 0.29861741E+04</rscale>
<asrwt>0</asrwt>
<pdfrwt beam="1">  1        1 0.45873843E+00 0.29861741E+04</pdfrwt>
<pdfrwt beam="2">  1       -1 0.11502134E+00 0.29861741E+04</pdfrwt>
<totfact> 0.36002174E-01</totfact>
</mgrwt>
</event>
<event>
12    3  0.4806716E-008  0.2722003E+04  0.7818608E-02  0.8327901E-01
         -2   -1    0    0    0  501 -0.00000000000E+00  0.00000000000E+00  0.18892058193E+04  0.18892058193E+04  0.00000000000E+00 0.  1.
          2   -1    0    0  501    0  0.00000000000E+00 -0.00000000000E+00 -0.98047821995E+03  0.98047821995E+03  0.00000000000E+00 0. -1.
         23    2    1    2    0    0 -0.89385735420E+03 -0.80935706808E+03  0.50256163426E+03  0.13093591252E+04  0.88392812617E+02 0.  0.
        254    2    1    2    0    0  0.89385735420E+03  0.80935706808E+03  0.40616596510E+03  0.15603249140E+04  0.90310753112E+03 0.  0.
         23    2    4    4    0    0  0.71391846191E+03  0.83049573215E+03 -0.72967170613E+01  0.10997608295E+04  0.10008950301E+03 0.  0.
         23    2    4    4    0    0  0.17993889229E+03 -0.21138664068E+02  0.41346268216E+03  0.46056408453E+03  0.91340233962E+02 0.  0.
          1    1    3    3  502    0 -0.19478469188E+03 -0.22104465350E+03  0.10266165234E+03  0.31199556070E+03  0.00000000000E+00 0. -1.
         -1    1    3    3    0  502 -0.69907266232E+03 -0.58831241458E+03  0.39989998191E+03  0.99736356454E+03  0.00000000000E+00 0.  1.
         13    1    5    5    0    0  0.19767164996E+03  0.19938896704E+03  0.37040024400E+02  0.28319958472E+03  0.00000000000E+00 0. -1.
        -13    1    5    5    0    0  0.51624681195E+03  0.63110676511E+03 -0.44336741461E+02  0.81656124477E+03  0.00000000000E+00 0.  1.
          4    1    6    6  503    0  0.65790139045E+01  0.14150839092E+02  0.66798037374E+01  0.16974965358E+02  0.00000000000E+00 0. -1.
         -4    1    6    6    0  503  0.17335987838E+03 -0.35289503159E+02  0.40678287843E+03  0.44358911917E+03  0.00000000000E+00 0.  1.
<mgrwt>
<rscale>  0 0.27220031E+04</rscale>
<asrwt>0</asrwt>
<pdfrwt beam="1">  1        2 0.15084280E+00 0.27220031E+04</pdfrwt>
<pdfrwt beam="2">  1       -2 0.29064705E+00 0.27220031E+04</pdfrwt>
<totfact> 0.82336860E-01</totfact>
</mgrwt>
</event>
<event>
12    3  0.4806716E-008  0.1482087E+04  0.7818608E-02  0.8896453E-01
          2   -1    0    0  501    0  0.00000000000E+00  0.00000000000E+00  0.17525102630E+04  0.17525102630E+04  0.00000000000E+00 0. -1.
         -2   -1    0    0    0  501 -0.00000000000E+00 -0.00000000000E+00 -0.31334802042E+03  0.31334802042E+03  0.00000000000E+00 0.  1.
         23    2    1    2    0    0 -0.21484894460E+03 -0.37964733922E+02  0.10281680866E+04  0.10538706458E+04  0.76891701199E+02 0.  0.
        254    2    1    2    0    0  0.21484894460E+03  0.37964733922E+02  0.41099415593E+03  0.10119876376E+04  0.89866645226E+03 0.  0.
         23    2    4    4    0    0  0.70903342977E+02 -0.42059083352E+03  0.18918936148E+03  0.47506713573E+03  0.89287376902E+02 0.  0.
         23    2    4    4    0    0  0.14394560162E+03  0.45855556744E+03  0.22180479446E+03  0.53692050186E+03  0.89959512121E+02 0.  0.
          4    1    3    3  502    0 -0.15259671583E+03 -0.10379508770E+02  0.54969528955E+03  0.57057725440E+03  0.00000000000E+00 0.  1.
         -4    1    3    3    0  502 -0.62252228771E+02 -0.27585225152E+02  0.47847279710E+03  0.48329339143E+03  0.00000000000E+00 0. -1.
         13    1    5    5    0    0  0.27053000542E+02 -0.27498561103E+03  0.79349068610E+02  0.28748082684E+03  0.00000000000E+00 0. -1.
        -13    1    5    5    0    0  0.43850342435E+02 -0.14560522249E+03  0.10984029287E+03  0.18758630889E+03  0.00000000000E+00 0.  1.
          4    1    6    6  503    0  0.90162877163E+02  0.28231206083E+03  0.87844207692E+02  0.30910523925E+03  0.00000000000E+00 0. -1.
         -4    1    6    6    0  503  0.53782724458E+02  0.17624350661E+03  0.13396058676E+03  0.22781526261E+03  0.00000000000E+00 0.  1.
<mgrwt>
<rscale>  0 0.14820872E+04</rscale>
<asrwt>0</asrwt>
<pdfrwt beam="1">  1        2 0.26961696E+00 0.14820872E+04</pdfrwt>
<pdfrwt beam="2">  1       -2 0.48207389E-01 0.14820872E+04</pdfrwt>
<totfact> 0.36157883E+01</totfact>
</mgrwt>
</event>
<event>
12    3  0.4806716E-008  0.8901309E+03  0.7818608E-02  0.9438003E-01
         -2   -1    0    0    0  501 -0.00000000000E+00  0.00000000000E+00  0.16825164166E+03  0.16825164166E+03  0.00000000000E+00 0. -1.
          2   -1    0    0  501    0  0.00000000000E+00 -0.00000000000E+00 -0.11773036372E+04  0.11773036372E+04  0.00000000000E+00 0.  1.
         23    2    1    2    0    0 -0.64756212456E+01 -0.49101922131E+02 -0.75713892375E+02  0.12791837582E+03  0.90430000261E+02 0.  0.
        254    2    1    2    0    0  0.64756212456E+01  0.49101922131E+02 -0.93333810320E+03  0.12176369031E+04  0.78042724224E+03 0.  0.
         23    2    4    4    0    0 -0.21609649181E+03 -0.11337802852E+03 -0.88461749228E+03  0.92252337015E+03  0.94599099967E+02 0.  0.
         23    2    4    4    0    0  0.22257211305E+03  0.16247995065E+03 -0.48720610924E+02  0.29511353293E+03  0.93702825544E+02 0.  0.
          2    1    3    3  502    0  0.33895958432E+02 -0.38844828436E+02 -0.13927757941E+02  0.53402613565E+02  0.00000000000E+00 0. -1.
         -2    1    3    3    0  502 -0.40371579678E+02 -0.10257093695E+02 -0.61786134434E+02  0.74515762259E+02  0.00000000000E+00 0.  1.
         13    1    5    5    0    0  0.10058414253E+01 -0.21045400277E+01 -0.11804201496E+03  0.11806505876E+03  0.00000000000E+00 0. -1.
        -13    1    5    5    0    0 -0.21710233323E+03 -0.11127348849E+03 -0.76657547732E+03  0.80445831139E+03  0.00000000000E+00 0.  1.
          1    1    6    6  503    0  0.84596078398E+01 -0.86843367410E+01 -0.14446921929E+02  0.18859910462E+02  0.00000000000E+00 0. -1.
         -1    1    6    6    0  503  0.21411250521E+03  0.17116428739E+03 -0.34273688996E+02  0.27625362246E+03  0.00000000000E+00 0.  1.
<mgrwt>
<rscale>  0 0.89013093E+03</rscale>
<asrwt>0</asrwt>
<pdfrwt beam="1">  1        2 0.18112365E+00 0.89013093E+03</pdfrwt>
<pdfrwt beam="2">  1       -2 0.25884867E-01 0.89013093E+03</pdfrwt>
<totfact> 0.26355511E+02</totfact>
</mgrwt>
</event>
<event>
12    3  0.4926581E-008  0.1918193E+04  0.7818608E-02  0.8645853E-01
         -1   -1    0    0    0  501 -0.00000000000E+00  0.00000000000E+00  0.33427387786E+03  0.33427387786E+03  0.00000000000E+00 0.  1.
          1   -1    0    0  501    0  0.00000000000E+00 -0.00000000000E+00 -0.27518331643E+04  0.27518331643E+04  0.00000000000E+00 0. -1.
         23    2    1    2    0    0 -0.34458417006E+03 -0.49394523581E+03 -0.16468708094E+04  0.17557532463E+04  0.88124076432E+02 0.  0.
        254    2    1    2    0    0  0.34458417006E+03  0.49394523581E+03 -0.77068847700E+03  0.13303537958E+04  0.90175403920E+03 0.  0.
         23    2    4    4    0    0  0.20488972568E+02 -0.11381340662E+03 -0.59512633635E+03  0.61377789513E+03  0.95784439300E+02 0.  0.
         23    2    4    4    0    0  0.32409519749E+03  0.60775864243E+03 -0.17556214066E+03  0.71657590068E+03  0.90833318383E+02 0.  0.
          4    1    3    3  502    0 -0.33926264746E+03 -0.49228945632E+03 -0.15913561991E+04  0.16999595893E+04  0.00000000000E+00 0. -1.
         -4    1    3    3    0  502 -0.53215225905E+01 -0.16557794918E+01 -0.55514610286E+02  0.55793657019E+02  0.00000000000E+00 0.  1.
         13    1    5    5    0    0  0.22741809650E+01 -0.34384364591E+02 -0.41078362392E+03  0.41222644518E+03  0.00000000000E+00 0. -1.
        -13    1    5    5    0    0  0.18214791603E+02 -0.79429042028E+02 -0.18434271243E+03  0.20155144995E+03  0.00000000000E+00 0.  1.
          3    1    6    6  503    0  0.31592308351E+03  0.53359891796E+03 -0.15506515728E+03  0.63920294347E+03  0.00000000000E+00 0. -1.
         -3    1    6    6    0  503  0.81721139785E+01  0.74159724469E+02 -0.20496983374E+02  0.77372957211E+02  0.00000000000E+00 0.  1.
<mgrwt>
<rscale>  0 0.19181928E+04</rscale>
<asrwt>0</asrwt>
<pdfrwt beam="1">  1        1 0.42335895E+00 0.19181928E+04</pdfrwt>
<pdfrwt beam="2">  1       -1 0.51426750E-01 0.19181928E+04</pdfrwt>
<totfact> 0.32089866E+00</totfact>
</mgrwt>
</event>
<event>
12    3  0.4806716E-008  0.3200324E+04  0.7818608E-02  0.8188732E-01
          2   -1    0    0  501    0  0.00000000000E+00  0.00000000000E+00  0.17552523487E+04  0.17552523487E+04  0.00000000000E+00 0. -1.
         -2   -1    0    0    0  501 -0.00000000000E+00 -0.00000000000E+00 -0.14587749226E+04  0.14587749226E+04  0.00000000000E+00 0.  1.
         23    2    1    2    0    0  0.56844303442E+03  0.13077379441E+04  0.30592270541E+03  0.14611515928E+04  0.89829068744E+02 0.  0.
        254    2    1    2    0    0 -0.56844303442E+03 -0.13077379441E+04 -0.94452792749E+01  0.17528756785E+04  0.10194007638E+04 0.  0.
         23    2    4    4    0    0  0.27751230825E+03 -0.19201440506E+03  0.10886734651E+02  0.34962699603E+03  0.90762890973E+02 0.  0.
         23    2    4    4    0    0 -0.84595534267E+03 -0.11157235390E+04 -0.20332013926E+02  0.14032486825E+04  0.90631212754E+02 0.  0.
          1    1    3    3  502    0  0.10854750027E+03  0.34701665063E+03  0.72780070394E+02  0.37080999754E+03  0.00000000000E+00 0. -1.
         -1    1    3    3    0  502  0.45989553415E+03  0.96072129348E+03  0.23314263502E+03  0.10903415953E+04  0.00000000000E+00 0.  1.
         13    1    5    5    0    0  0.14256153070E+03 -0.14850352002E+03  0.23898063018E+02  0.20723948203E+03  0.00000000000E+00 0. -1.
        -13    1    5    5    0    0  0.13495077754E+03 -0.43510885046E+02 -0.13011328367E+02  0.14238751400E+03  0.00000000000E+00 0.  1.
          2    1    6    6  503    0 -0.27895704374E+02 -0.32993907290E+02  0.15070302659E+02  0.45758958281E+02  0.00000000000E+00 0. -1.
         -2    1    6    6    0  503 -0.81805963830E+03 -0.10827296318E+04 -0.35402316585E+02  0.13574897242E+04  0.00000000000E+00 0.  1.
<mgrwt>
<rscale>  0 0.32003238E+04</rscale>
<asrwt>0</asrwt>
<pdfrwt beam="1">  1        2 0.27003882E+00 0.32003238E+04</pdfrwt>
<pdfrwt beam="2">  1       -2 0.22442691E+00 0.32003238E+04</pdfrwt>
<totfact> 0.71303711E-01</totfact>
</mgrwt>
</event>
<event>
12    3  0.4806716E-008  0.1317232E+04  0.7818608E-02  0.9016011E-01
         -1   -1    0    0    0  501 -0.00000000000E+00  0.00000000000E+00  0.17526660582E+03  0.17526660582E+03  0.00000000000E+00 0.  1.
          1   -1    0    0  501    0  0.00000000000E+00 -0.00000000000E+00 -0.24749431072E+04  0.24749431072E+04  0.00000000000E+00 0. -1.
         23    2    1    2    0    0  0.26469659821E+03 -0.31509187246E+02 -0.52357396898E+03  0.59457670121E+03  0.91294220214E+02 0.  0.
        254    2    1    2    0    0 -0.26469659821E+03  0.31509187246E+02 -0.17761025324E+04  0.20556330118E+04  0.10000148777E+04 0.  0.
         23    2    4    4    0    0 -0.38740201617E+03 -0.40765627299E+03 -0.94623919134E+03  0.11042876653E+04  0.88423308419E+02 0.  0.
         23    2    4    4    0    0  0.12270541796E+03  0.43916546024E+03 -0.82986334101E+03  0.95134534646E+03  0.91988490654E+02 0.  0.
          3    1    3    3  502    0 -0.54106153220E+01 -0.84535564640E+01 -0.12262882597E+02  0.15846629441E+02  0.00000000000E+00 0. -1.
         -3    1    3    3    0  502  0.27010721353E+03 -0.23055630782E+02 -0.51131108638E+03  0.57873007177E+03  0.00000000000E+00 0.  1.
         13    1    5    5    0    0 -0.58752868579E+02 -0.11274287926E+03 -0.23282102692E+03  0.26527059198E+03  0.00000000000E+00 0.  1.
        -13    1    5    5    0    0 -0.32864914759E+03 -0.29491339373E+03 -0.71341816441E+03  0.83901707332E+03  0.00000000000E+00 0. -1.
          1    1    6    6  503    0  0.75278659748E+02  0.18180133018E+03 -0.43752916191E+03  0.47973989598E+03  0.00000000000E+00 0. -1.
         -1    1    6    6    0  503  0.47426758213E+02  0.25736413006E+03 -0.39233417910E+03  0.47160545049E+03  0.00000000000E+00 0.  1.
<mgrwt>
<rscale>  0 0.13172318E+04</rscale>
<asrwt>0</asrwt>
<pdfrwt beam="1">  1        1 0.38076046E+00 0.13172318E+04</pdfrwt>
<pdfrwt beam="2">  1       -1 0.26964094E-01 0.13172318E+04</pdfrwt>
<totfact> 0.17081435E+01</totfact>
</mgrwt>
</event>
<event>
12    3  0.4806716E-008  0.1673711E+04  0.7818608E-02  0.8776502E-01
          2   -1    0    0  501    0  0.00000000000E+00  0.00000000000E+00  0.12120559677E+04  0.12120559677E+04  0.00000000000E+00 0. -1.
         -2   -1    0    0    0  501 -0.00000000000E+00 -0.00000000000E+00 -0.57780083584E+03  0.57780083584E+03  0.00000000000E+00 0.  1.
         23    2    1    2    0    0  0.28379794702E+03 -0.52747007869E+03  0.29295647047E+03  0.67317705409E+03  0.92616920232E+02 0.  0.
        254    2    1    2    0    0 -0.28379794702E+03  0.52747007869E+03  0.34129866138E+03  0.11166797494E+04  0.87847761946E+03 0.  0.
         23    2    4    4    0    0 -0.23724596539E+03  0.44515858035E+03  0.62273035147E+03  0.80663008207E+03  0.91690724273E+02 0.  0.
         23    2    4    4    0    0 -0.46551981625E+02  0.82311498345E+02 -0.28143169009E+03  0.31004966736E+03  0.89357318067E+02 0.  0.
          3    1    3    3  502    0  0.19434495072E+03 -0.40349382035E+03  0.17815113693E+03  0.48199071622E+03  0.00000000000E+00 0. -1.
         -3    1    3    3    0  502  0.89452996293E+02 -0.12397625834E+03  0.11480533354E+03  0.19118633786E+03  0.00000000000E+00 0.  1.
         13    1    5    5    0    0 -0.23401479310E+03  0.37222076155E+03  0.53630955760E+03  0.69349777238E+03  0.00000000000E+00 0. -1.
        -13    1    5    5    0    0 -0.32311722960E+01  0.72937818794E+02  0.86420793861E+02  0.11313230969E+03  0.00000000000E+00 0.  1.
          4    1    6    6  503    0  0.19449785957E+02  0.53992403558E+02 -0.10718009371E+03  0.12157732644E+03  0.00000000000E+00 0. -1.
         -4    1    6    6    0  503 -0.66001767582E+02  0.28319094787E+02 -0.17425159637E+03  0.18847234092E+03  0.00000000000E+00 0.  1.
<mgrwt>
<rscale>  0 0.16737108E+04</rscale>
<asrwt>0</asrwt>
<pdfrwt beam="1">  1        2 0.18647015E+00 0.16737108E+04</pdfrwt>
<pdfrwt beam="2">  1       -2 0.88892436E-01 0.16737108E+04</pdfrwt>
<totfact> 0.19318885E+01</totfact>
</mgrwt>
</event>
<event>
12    3  0.4806716E-008  0.1047019E+04  0.7818608E-02  0.9258427E-01
          1   -1    0    0  501    0  0.00000000000E+00  0.00000000000E+00  0.66393658968E+03  0.66393658968E+03  0.00000000000E+00 0. -1.
         -1   -1    0    0    0  501 -0.00000000000E+00 -0.00000000000E+00 -0.41278370015E+03  0.41278370015E+03  0.00000000000E+00 0.  1.
         23    2    1    2    0    0  0.52782166988E+02  0.16299087923E+03  0.14874302544E+03  0.24598670135E+03  0.95042021006E+02 0.  0.
        254    2    1    2    0    0 -0.52782166988E+02 -0.16299087923E+03  0.10240986409E+03  0.83073358849E+03  0.80639849387E+03 0.  0.
         23    2    4    4    0    0 -0.15644803569E+03  0.19259993910E+03  0.30114460787E+03  0.40059924504E+03  0.90669486941E+02 0.  0.
         23    2    4    4    0    0  0.10366586870E+03 -0.35559081833E+03 -0.19873474378E+03  0.43013434345E+03  0.91261232815E+02 0.  0.
          3    1    3    3  502    0 -0.23936573228E+02  0.19610328772E+02  0.39089848048E+02  0.49855197852E+02  0.00000000000E+00 0. -1.
         -3    1    3    3    0  502  0.76718740216E+02  0.14338055046E+03  0.10965317739E+03  0.19613150349E+03  0.00000000000E+00 0.  1.
         13    1    5    5    0    0 -0.19169769368E+02 -0.82522415441E+01  0.25363927450E+02  0.32846740535E+02  0.00000000000E+00 0. -1.
        -13    1    5    5    0    0 -0.13727826632E+03  0.20085218064E+03  0.27578068042E+03  0.36775250450E+03  0.00000000000E+00 0.  1.
          3    1    6    6  503    0  0.25428109495E+01 -0.11948242327E+03 -0.96799703138E+02  0.15379433632E+03  0.00000000000E+00 0. -1.
         -3    1    6    6    0  503  0.10112305775E+03 -0.23610839506E+03 -0.10193504065E+03  0.27634000713E+03  0.00000000000E+00 0.  1.
<mgrwt>
<rscale>  0 0.10470190E+04</rscale>
<asrwt>0</asrwt>
<pdfrwt beam="1">  1        1 0.10214409E+00 0.10470190E+04</pdfrwt>
<pdfrwt beam="2">  1       -1 0.63505185E-01 0.10470190E+04</pdfrwt>
<totfact> 0.74213798E+01</totfact>
</mgrwt>
</event>
<event>
12    3  0.4806716E-008  0.1061546E+04  0.7818608E-02  0.9243504E-01
         -1   -1    0    0    0  501 -0.00000000000E+00  0.00000000000E+00  0.12006462704E+03  0.12006462704E+03  0.00000000000E+00 0.  1.
          1   -1    0    0  501    0  0.00000000000E+00 -0.00000000000E+00 -0.23464029036E+04  0.23464029036E+04  0.00000000000E+00 0. -1.
         23    2    1    2    0    0 -0.11899231128E+03  0.11601449608E+02 -0.37026501457E+03  0.39898810407E+03  0.88326453553E+02 0.  0.
        254    2    1    2    0    0  0.11899231128E+03 -0.11601449608E+02 -0.18560732620E+04  0.20674794266E+04  0.90286735551E+03 0.  0.
         23    2    4    4    0    0  0.39594849240E+03  0.27848570774E+03 -0.11457929721E+04  0.12467316003E+04  0.84667882848E+02 0.  0.
         23    2    4    4    0    0 -0.27695618113E+03 -0.29008715735E+03 -0.71028028993E+03  0.82074782625E+03  0.90959435456E+02 0.  0.
          1    1    3    3  502    0  0.24717920804E+01 -0.22015320292E+02 -0.44927973352E+02  0.50092982274E+02  0.00000000000E+00 0. -1.
         -1    1    3    3    0  502 -0.12146410336E+03  0.33616769899E+02 -0.32533704122E+03  0.34889512180E+03  0.00000000000E+00 0.  1.
         13    1    5    5    0    0  0.29005940447E+03  0.24693279916E+03 -0.88712786506E+03  0.96545642801E+03  0.00000000000E+00 0. -1.
        -13    1    5    5    0    0  0.10588908793E+03  0.31552908577E+02 -0.25866510701E+03  0.28127517233E+03  0.00000000000E+00 0.  1.
          4    1    6    6  503    0 -0.23802177127E+03 -0.27875751553E+03 -0.66927720865E+03  0.76308066289E+03  0.00000000000E+00 0. -1.
         -4    1    6    6    0  503 -0.38934409855E+02 -0.11329641819E+02 -0.41003081282E+02  0.57667163352E+02  0.00000000000E+00 0.  1.
<mgrwt>
<rscale>  0 0.10615460E+04</rscale>
<asrwt>0</asrwt>
<pdfrwt beam="1">  1        1 0.36098502E+00 0.10615460E+04</pdfrwt>
<pdfrwt beam="2">  1       -1 0.18471483E-01 0.10615460E+04</pdfrwt>
<totfact> 0.40672338E+01</totfact>
</mgrwt>
</event>
<event>
12    3  0.4806716E-008  0.2620459E+04  0.7818608E-02  0.8361285E-01
         -4   -1    0    0    0  501 -0.00000000000E+00  0.00000000000E+00  0.11208182178E+04  0.11208182178E+04  0.00000000000E+00 0. -1.
          4   -1    0    0  501    0  0.00000000000E+00 -0.00000000000E+00 -0.15316502713E+04  0.15316502713E+04  0.00000000000E+00 0.  1.
         23    2    1    2    0    0  0.47905755587E+03  0.50369879693E+03  0.74746882455E+03  0.10248075718E+04  0.91171792483E+02 0.  0.
        254    2    1    2    0    0 -0.47905755587E+03 -0.50369879693E+03 -0.11583008781E+04  0.16276609173E+04  0.90797054884E+03 0.  0.
         23    2    4    4    0    0 -0.61525794852E+03 -0.52510155689E+03 -0.12075596203E+04  0.14562516902E+04  0.90524916938E+02 0.  0.
         23    2    4    4    0    0  0.13620039265E+03  0.21402759968E+02  0.49258742142E+02  0.17140922705E+03  0.89140755807E+02 0.  0.
          2    1    3    3  502    0  0.38154400726E+03  0.41050638691E+03  0.65082865183E+03  0.85887674157E+03  0.00000000000E+00 0. -1.
         -2    1    3    3    0  502  0.97513548606E+02  0.93192410016E+02  0.96640172723E+02  0.16593083026E+03  0.00000000000E+00 0.  1.
         13    1    5    5    0    0 -0.39228066337E+03 -0.29228433226E+03 -0.78133697933E+03  0.92184690974E+03  0.00000000000E+00 0. -1.
        -13    1    5    5    0    0 -0.22297728515E+03 -0.23281722463E+03 -0.42622264093E+03  0.53440478050E+03  0.00000000000E+00 0.  1.
          1    1    6    6  503    0  0.11236155790E+03  0.52653408392E+02  0.44464828663E+02  0.13181282979E+03  0.00000000000E+00 0. -1.
         -1    1    6    6    0  503  0.23838834755E+02 -0.31250648424E+02  0.47939134790E+01  0.39596397258E+02  0.00000000000E+00 0.  1.
<mgrwt>
<rscale>  0 0.26204591E+04</rscale>
<asrwt>0</asrwt>
<pdfrwt beam="1">  1        4 0.23563850E+00 0.26204591E+04</pdfrwt>
<pdfrwt beam="2">  1       -4 0.17243357E+00 0.26204591E+04</pdfrwt>
<totfact> 0.27765988E-02</totfact>
</mgrwt>
</event>
<event>
12    3  0.4806716E-008  0.1860210E+04  0.7818608E-02  0.8674920E-01
         -2   -1    0    0    0  501 -0.00000000000E+00  0.00000000000E+00  0.78385167201E+03  0.78385167201E+03  0.00000000000E+00 0.  1.
          2   -1    0    0  501    0  0.00000000000E+00 -0.00000000000E+00 -0.11036468018E+04  0.11036468018E+04  0.00000000000E+00 0. -1.
         23    2    1    2    0    0 -0.15448780509E+03  0.33770875346E+03  0.49064710767E+03  0.62183152576E+03  0.89588939470E+02 0.  0.
        254    2    1    2    0    0  0.15448780509E+03 -0.33770875346E+03 -0.81044223742E+03  0.12656669480E+04  0.89843336926E+03 0.  0.
         23    2    4    4    0    0  0.19192566876E+03 -0.23850341192E+03 -0.98894963411E+03  0.10390881034E+04  0.89237704978E+02 0.  0.
         23    2    4    4    0    0 -0.37437863673E+02 -0.99205341547E+02  0.17850739670E+03  0.22657884461E+03  0.90718182955E+02 0.  0.
          3    1    3    3  502    0 -0.97194379160E+00 -0.52985666990E+01  0.13022730867E+02  0.14092941603E+02  0.00000000000E+00 0. -1.
         -3    1    3    3    0  502 -0.15351586130E+03  0.34300732016E+03  0.47762437680E+03  0.60773858415E+03  0.00000000000E+00 0.  1.
         13    1    5    5    0    0 -0.93069109597E+01 -0.18189284782E+02 -0.68544281611E+02  0.71524731485E+02  0.00000000000E+00 0. -1.
        -13    1    5    5    0    0  0.20123257972E+03 -0.22031412713E+03 -0.92040535250E+03  0.96756337192E+03  0.00000000000E+00 0.  1.
          2    1    6    6  503    0  0.50146896828E+01 -0.37233029646E+02  0.13421603081E+03  0.13937499251E+03  0.00000000000E+00 0. -1.
         -2    1    6    6    0  503 -0.42452553356E+02 -0.61972311902E+02  0.44291365888E+02  0.87203852100E+02  0.00000000000E+00 0.  1.
<mgrwt>
<rscale>  0 0.18602101E+04</rscale>
<asrwt>0</asrwt>
<pdfrwt beam="1">  1        2 0.16979181E+00 0.18602101E+04</pdfrwt>
<pdfrwt beam="2">  1       -2 0.12059257E+00 0.18602101E+04</pdfrwt>
<totfact> 0.10682393E+01</totfact>
</mgrwt>
</event>
<event>
12    3  0.4806716E-008  0.2017825E+04  0.7818608E-02  0.8598332E-01
          1   -1    0    0  501    0  0.00000000000E+00  0.00000000000E+00  0.12026913717E+04  0.12026913717E+04  0.00000000000E+00 0. -1.
         -1   -1    0    0    0  501 -0.00000000000E+00 -0.00000000000E+00 -0.84635572743E+03  0.84635572743E+03  0.00000000000E+00 0.  1.
         23    2    1    2    0    0 -0.74533147463E+03 -0.16452091802E+03 -0.11454488228E+03  0.77865087916E+03  0.10291026196E+03 0.  0.
        254    2    1    2    0    0  0.74533147463E+03  0.16452091802E+03  0.47088052651E+03  0.12703962199E+04  0.89977327467E+03 0.  0.
         23    2    4    4    0    0  0.45666658144E+03  0.37938708350E+03 -0.79617653914E+02  0.60562590579E+03  0.89245959118E+02 0.  0.
         23    2    4    4    0    0  0.28866489320E+03 -0.21486616548E+03  0.55049818042E+03  0.66477031413E+03  0.96831989945E+02 0.  0.
          4    1    3    3  502    0 -0.45833824741E+02  0.14611731431E+02 -0.66475908619E+01  0.48563696833E+02  0.00000000000E+00 0. -1.
         -4    1    3    3    0  502 -0.69949764989E+03 -0.17913264945E+03 -0.10789729142E+03  0.73008718233E+03  0.00000000000E+00 0.  1.
         13    1    5    5    0    0  0.42813126710E+02  0.73420414110E+02 -0.11162117321E+01  0.84998629138E+02  0.00000000000E+00 0.  1.
        -13    1    5    5    0    0  0.41385345473E+03  0.30596666939E+03 -0.78501442181E+02  0.52062727665E+03  0.00000000000E+00 0. -1.
          2    1    6    6  503    0  0.15681537048E+03 -0.14238553257E+03  0.39615559053E+03  0.44922594784E+03  0.00000000000E+00 0. -1.
         -2    1    6    6    0  503  0.13184952272E+03 -0.72480632913E+02  0.15434258989E+03  0.21554436630E+03  0.00000000000E+00 0.  1.
<mgrwt>
<rscale>  0 0.20178253E+04</rscale>
<asrwt>0</asrwt>
<pdfrwt beam="1">  1        1 0.18502944E+00 0.20178253E+04</pdfrwt>
<pdfrwt beam="2">  1       -1 0.13020857E+00 0.20178253E+04</pdfrwt>
<totfact> 0.49768952E+00</totfact>
</mgrwt>
</event>
<event>
12    3  0.4806716E-008  0.2722235E+04  0.7818608E-02  0.8327826E-01
         -2   -1    0    0    0  501 -0.00000000000E+00  0.00000000000E+00  0.11518262307E+04  0.11518262307E+04  0.00000000000E+00 0.  1.
          2   -1    0    0  501    0  0.00000000000E+00 -0.00000000000E+00 -0.16084374465E+04  0.16084374465E+04  0.00000000000E+00 0. -1.
         23    2    1    2    0    0  0.42883161313E+03  0.75088422436E+03  0.66066884848E+03  0.10922508757E+04  0.93834839954E+02 0.  0.
        254    2    1    2    0    0 -0.42883161313E+03 -0.75088422436E+03 -0.11172800643E+04  0.16680128016E+04  0.88669515250E+03 0.  0.
         23    2    4    4    0    0 -0.68935310449E+03 -0.44567932298E+03 -0.71190882221E+03  0.10902065852E+04  0.88873312201E+02 0.  0.
         23    2    4    4    0    0  0.26052149136E+03 -0.30520490138E+03 -0.40537124205E+03  0.57780621641E+03  0.92264297297E+02 0.  0.
          3    1    3    3  502    0  0.40744648398E+03  0.69442606891E+03  0.58384149649E+03  0.99454064548E+03  0.00000000000E+00 0.  1.
         -3    1    3    3    0  502  0.21385129156E+02  0.56458155451E+02  0.76827351995E+02  0.97710230173E+02  0.00000000000E+00 0. -1.
         13    1    5    5    0    0 -0.51609793631E+03 -0.36322688880E+03 -0.58196095363E+03  0.85846922144E+03  0.00000000000E+00 0.  1.
        -13    1    5    5    0    0 -0.17325516818E+03 -0.82452434182E+02 -0.12994786858E+03  0.23173736374E+03  0.00000000000E+00 0. -1.
          1    1    6    6  503    0  0.74240557274E+02 -0.78985565932E+02 -0.56668073383E+02  0.12231782581E+03  0.00000000000E+00 0. -1.
         -1    1    6    6    0  503  0.18628093409E+03 -0.22621933545E+03 -0.34870316866E+03  0.45548839060E+03  0.00000000000E+00 0.  1.
<mgrwt>
<rscale>  0 0.27222347E+04</rscale>
<asrwt>0</asrwt>
<pdfrwt beam="1">  1        2 0.24745191E+00 0.27222347E+04</pdfrwt>
<pdfrwt beam="2">  1       -2 0.17720404E+00 0.27222347E+04</pdfrwt>
<totfact> 0.18320463E+00</totfact>
</mgrwt>
</event>
<event>
12    3  0.4806716E-008  0.1306392E+04  0.7818608E-02  0.9024511E-01
         -1   -1    0    0    0  501 -0.00000000000E+00  0.00000000000E+00  0.36154399428E+03  0.36154399428E+03  0.00000000000E+00 0.  1.
          1   -1    0    0  501    0  0.00000000000E+00 -0.00000000000E+00 -0.11801197748E+04  0.11801197748E+04  0.00000000000E+00 0. -1.
         23    2    1    2    0    0 -0.49219294287E+02 -0.65763867935E+02 -0.60960405643E+03  0.62203462444E+03  0.92534010652E+02 0.  0.
        254    2    1    2    0    0  0.49219294287E+02  0.65763867935E+02 -0.20897172412E+03  0.91962914468E+03  0.89179658948E+03 0.  0.
         23    2    4    4    0    0 -0.22836992801E+03 -0.31197983074E+03 -0.19291133555E+03  0.44249090349E+03  0.95389608870E+02 0.  0.
         23    2    4    4    0    0  0.27758922230E+03  0.37774369867E+03 -0.16060388575E+02  0.47713824119E+03  0.87503639387E+02 0.  0.
          4    1    3    3  502    0 -0.73059831677E+02 -0.67973588377E+02 -0.49118774675E+03  0.50122205686E+03  0.00000000000E+00 0. -1.
         -4    1    3    3    0  502  0.23840537390E+02  0.22097204416E+01 -0.11841630968E+03  0.12081256758E+03  0.00000000000E+00 0.  1.
         13    1    5    5    0    0 -0.84369647891E+02 -0.71978003345E+02 -0.94825331315E+02  0.14591406344E+03  0.00000000000E+00 0.  1.
        -13    1    5    5    0    0 -0.14400028012E+03 -0.24000182739E+03 -0.98086004232E+02  0.29657684005E+03  0.00000000000E+00 0. -1.
          4    1    6    6  503    0  0.96345316930E+02  0.18824535718E+03 -0.34532625079E+02  0.21426907567E+03  0.00000000000E+00 0. -1.
         -4    1    6    6    0  503  0.18124390537E+03  0.18949834149E+03  0.18472236504E+02  0.26286916552E+03  0.00000000000E+00 0.  1.
<mgrwt>
<rscale>  0 0.13063923E+04</rscale>
<asrwt>0</asrwt>
<pdfrwt beam="1">  1        1 0.18155689E+00 0.13063923E+04</pdfrwt>
<pdfrwt beam="2">  1       -1 0.55622153E-01 0.13063923E+04</pdfrwt>
<totfact> 0.35470346E+01</totfact>
</mgrwt>
</event>
<event>
12    3  0.4806716E-008  0.2389795E+04  0.7818608E-02  0.8443334E-01
         -2   -1    0    0    0  501 -0.00000000000E+00  0.00000000000E+00  0.12280480932E+04  0.12280480932E+04  0.00000000000E+00 0. -1.
          2   -1    0    0  501    0  0.00000000000E+00 -0.00000000000E+00 -0.11626422148E+04  0.11626422148E+04  0.00000000000E+00 0.  1.
         23    2    1    2    0    0  0.84816582439E+03 -0.37516439213E+03  0.46692689135E+03  0.10423172791E+04  0.90945047521E+02 0.  0.
        254    2    1    2    0    0 -0.84816582439E+03  0.37516439213E+03 -0.40152101296E+03  0.13483730288E+04  0.89261252190E+03 0.  0.
         23    2    4    4    0    0 -0.48568750556E+03  0.55372548323E+03 -0.53305177253E+03  0.91387316985E+03  0.92280629306E+02 0.  0.
         23    2    4    4    0    0 -0.36247831882E+03 -0.17856109110E+03  0.13153075957E+03  0.43449985898E+03  0.90637695628E+02 0.  0.
          1    1    3    3  502    0  0.50130211797E+03 -0.26970562543E+03  0.27811109264E+03  0.63355403694E+03  0.00000000000E+00 0. -1.
         -1    1    3    3    0  502  0.34686370642E+03 -0.10545876670E+03  0.18881579871E+03  0.40876324216E+03  0.00000000000E+00 0.  1.
         13    1    5    5    0    0 -0.21340777652E+03  0.26622571621E+03 -0.30050324612E+03  0.45466604446E+03  0.00000000000E+00 0.  1.
        -13    1    5    5    0    0 -0.27227972904E+03  0.28749976701E+03 -0.23254852641E+03  0.45920712540E+03  0.00000000000E+00 0. -1.
          2    1    6    6  503    0 -0.36572660324E+03 -0.18110151205E+03  0.13417572873E+03  0.42960078232E+03  0.00000000000E+00 0. -1.
         -2    1    6    6    0  503  0.32482844219E+01  0.25404209493E+01 -0.26449691601E+01  0.48990766623E+01  0.00000000000E+00 0.  1.
<mgrwt>
<rscale>  0 0.23897954E+04</rscale>
<asrwt>0</asrwt>
<pdfrwt beam="1">  1        2 0.17886803E+00 0.23897954E+04</pdfrwt>
<pdfrwt beam="2">  1       -2 0.18893048E+00 0.23897954E+04</pdfrwt>
<totfact> 0.28289343E+00</totfact>
</mgrwt>
</event>
<event>
12    3  0.4806716E-008  0.1599897E+04  0.7818608E-02  0.8820611E-01
         -1   -1    0    0    0  501 -0.00000000000E+00  0.00000000000E+00  0.39976621563E+03  0.39976621563E+03  0.00000000000E+00 0.  1.
          1   -1    0    0  501    0  0.00000000000E+00 -0.00000000000E+00 -0.16007302692E+04  0.16007302692E+04  0.00000000000E+00 0. -1.
         23    2    1    2    0    0  0.44730177190E+03 -0.25948022533E+03 -0.60577232969E+03  0.80150591262E+03  0.89681380841E+02 0.  0.
        254    2    1    2    0    0 -0.44730177190E+03  0.25948022533E+03 -0.59519172389E+03  0.11989905722E+04  0.90328087636E+03 0.  0.
         23    2    4    4    0    0 -0.48393744827E+03  0.23291606777E+03 -0.80159081437E+03  0.96919094798E+03  0.91312165068E+02 0.  0.
         23    2    4    4    0    0  0.36635676372E+02  0.26564157554E+02  0.20639909048E+03  0.22979962424E+03  0.90329704413E+02 0.  0.
          3    1    3    3  502    0 -0.12821388748E+01 -0.12729055502E+02 -0.16882215478E+02  0.21182113528E+02  0.00000000000E+00 0. -1.
         -3    1    3    3    0  502  0.44858391077E+03 -0.24675116982E+03 -0.58889011421E+03  0.78032379909E+03  0.00000000000E+00 0.  1.
         13    1    5    5    0    0 -0.83324389221E+02  0.17924664348E+02 -0.17906802890E+03  0.19831693424E+03  0.00000000000E+00 0.  1.
        -13    1    5    5    0    0 -0.40061305905E+03  0.21499140342E+03 -0.62252278547E+03  0.77087401374E+03  0.00000000000E+00 0. -1.
          2    1    6    6  503    0  0.43095354934E+02  0.45901933428E+02  0.19796431582E+03  0.20773557098E+03  0.00000000000E+00 0. -1.
         -2    1    6    6    0  503 -0.64596785621E+01 -0.19337775873E+02  0.84347746567E+01  0.22064053262E+02  0.00000000000E+00 0.  1.
<mgrwt>
<rscale>  0 0.15998973E+04</rscale>
<asrwt>0</asrwt>
<pdfrwt beam="1">  1        1 0.24626619E+00 0.15998973E+04</pdfrwt>
<pdfrwt beam="2">  1       -1 0.61502495E-01 0.15998973E+04</pdfrwt>
<totfact> 0.14339965E+01</totfact>
</mgrwt>
</event>
<event>
12    3  0.4806716E-008  0.2367524E+04  0.7818608E-02  0.8451763E-01
          2   -1    0    0  501    0  0.00000000000E+00  0.00000000000E+00  0.17081809943E+04  0.17081809943E+04  0.00000000000E+00 0. -1.
         -2   -1    0    0    0  501 -0.00000000000E+00 -0.00000000000E+00 -0.82034220154E+03  0.82034220154E+03  0.00000000000E+00 0.  1.
         23    2    1    2    0    0 -0.93999593730E+02  0.68669911309E+02 -0.69164372291E+03  0.70811852204E+03  0.97515749889E+02 0.  0.
        254    2    1    2    0    0  0.93999593730E+02 -0.68669911309E+02  0.15794825157E+04  0.18204046738E+04  0.89752809355E+03 0.  0.
         23    2    4    4    0    0  0.30077346868E+03  0.31042165422E+03  0.99337547173E+03  0.10870722665E+04  0.90027783963E+02 0.  0.
         23    2    4    4    0    0 -0.20677387495E+03 -0.37909156552E+03  0.58610704394E+03  0.73333240729E+03  0.88255890545E+02 0.  0.
          1    1    3    3  502    0 -0.12594787272E+02  0.13756932505E+02 -0.13806148453E+02  0.23205421639E+02  0.00000000000E+00 0. -1.
         -1    1    3    3    0  502 -0.81404806459E+02  0.54912978804E+02 -0.67783757446E+03  0.68491310041E+03  0.00000000000E+00 0.  1.
         13    1    5    5    0    0  0.84021972867E+02  0.70680202514E+02  0.35424593092E+03  0.37087135576E+03  0.00000000000E+00 0.  1.
        -13    1    5    5    0    0  0.21675149581E+03  0.23974145170E+03  0.63912954080E+03  0.71620091073E+03  0.00000000000E+00 0. -1.
          4    1    6    6  503    0 -0.12739400407E+03 -0.29142441072E+03  0.47075993757E+03  0.56813056445E+03  0.00000000000E+00 0. -1.
         -4    1    6    6    0  503 -0.79379870875E+02 -0.87667154801E+02  0.11534710637E+03  0.16520184284E+03  0.00000000000E+00 0.  1.
<mgrwt>
<rscale>  0 0.23675244E+04</rscale>
<asrwt>0</asrwt>
<pdfrwt beam="1">  1        2 0.26279708E+00 0.23675244E+04</pdfrwt>
<pdfrwt beam="2">  1       -2 0.12620649E+00 0.23675244E+04</pdfrwt>
<totfact> 0.40958085E+00</totfact>
</mgrwt>
</event>
<event>
12    3  0.4806716E-008  0.1588059E+04  0.7818608E-02  0.8827917E-01
          2   -1    0    0  501    0  0.00000000000E+00  0.00000000000E+00  0.24739064912E+04  0.24739064912E+04  0.00000000000E+00 0.  1.
         -2   -1    0    0    0  501 -0.00000000000E+00 -0.00000000000E+00 -0.25485319564E+03  0.25485319564E+03  0.00000000000E+00 0. -1.
         23    2    1    2    0    0 -0.19579930578E+03  0.40360827599E+03  0.12508069184E+04  0.13316004081E+04  0.86050514591E+02 0.  0.
        254    2    1    2    0    0  0.19579930578E+03 -0.40360827599E+03  0.96824637716E+03  0.13971592788E+04  0.90184033774E+03 0.  0.
         23    2    4    4    0    0  0.45265152491E+03  0.59012235750E+02  0.52147896523E+03  0.69869304097E+03  0.88632992403E+02 0.  0.
         23    2    4    4    0    0 -0.25685221913E+03 -0.46262051174E+03  0.44676741193E+03  0.69846623780E+03  0.90901950693E+02 0.  0.
          2    1    3    3  502    0 -0.38846127397E+02  0.23189974324E+02  0.12612897326E+03  0.13399744184E+03  0.00000000000E+00 0. -1.
         -2    1    3    3    0  502 -0.15695317838E+03  0.38041830166E+03  0.11246779452E+04  0.11976029662E+04  0.00000000000E+00 0.  1.
         13    1    5    5    0    0  0.86739081074E+02  0.17640701811E+02  0.54341795587E+02  0.10386478370E+03  0.00000000000E+00 0. -1.
        -13    1    5    5    0    0  0.36591244384E+03  0.41371533939E+02  0.46713716964E+03  0.59482825726E+03  0.00000000000E+00 0.  1.
          1    1    6    6  503    0 -0.65869579471E+02 -0.17286590766E+03  0.11183486210E+03  0.21616766620E+03  0.00000000000E+00 0. -1.
         -1    1    6    6    0  503 -0.19098263966E+03 -0.28975460408E+03  0.33493254983E+03  0.48229857160E+03  0.00000000000E+00 0.  1.
<mgrwt>
<rscale>  0 0.15880592E+04</rscale>
<asrwt>0</asrwt>
<pdfrwt beam="1">  1        2 0.38060098E+00 0.15880592E+04</pdfrwt>
<pdfrwt beam="2">  1       -2 0.39208186E-01 0.15880592E+04</pdfrwt>
<totfact> 0.21321045E+01</totfact>
</mgrwt>
</event>
<event>
12    3  0.4806716E-008  0.2056945E+04  0.7818608E-02  0.8580450E-01
         -2   -1    0    0    0  501 -0.00000000000E+00  0.00000000000E+00  0.31439529173E+03  0.31439529173E+03  0.00000000000E+00 0.  1.
          2   -1    0    0  501    0  0.00000000000E+00 -0.00000000000E+00 -0.33644129786E+04  0.33644129786E+04  0.00000000000E+00 0. -1.
         23    2    1    2    0    0 -0.31839921291E+02 -0.18579964234E+03 -0.26691778342E+04  0.26773354415E+04  0.89885861494E+02 0.  0.
        254    2    1    2    0    0  0.31839921291E+02  0.18579964234E+03 -0.38083985268E+03  0.10014728288E+04  0.90684813823E+03 0.  0.
         23    2    4    4    0    0  0.24061791966E+03 -0.26992143031E+03 -0.31632468573E+03  0.48805506268E+03  0.85917842167E+02 0.  0.
         23    2    4    4    0    0 -0.20877799837E+03  0.45572107264E+03 -0.64515166952E+02  0.51341776616E+03  0.90363970608E+02 0.  0.
          4    1    3    3  502    0 -0.11716251704E+02 -0.10752366708E+02 -0.55726033867E+02  0.57950623762E+02  0.00000000000E+00 0.  1.
         -4    1    3    3    0  502 -0.20123669587E+02 -0.17504727563E+03 -0.26134518003E+04  0.26193848177E+04  0.00000000000E+00 0. -1.
         13    1    5    5    0    0  0.10136942273E+03 -0.11412991944E+03 -0.19061030990E+03  0.24420009954E+03  0.00000000000E+00 0.  1.
        -13    1    5    5    0    0  0.13924849692E+03 -0.15579151087E+03 -0.12571437583E+03  0.24385496313E+03  0.00000000000E+00 0. -1.
          1    1    6    6  503    0 -0.76797762851E+02  0.17889557182E+03 -0.69451815989E+02  0.20670045172E+03  0.00000000000E+00 0. -1.
         -1    1    6    6    0  503 -0.13198023552E+03  0.27682550082E+03  0.49366490370E+01  0.30671731444E+03  0.00000000000E+00 0.  1.
<mgrwt>
<rscale>  0 0.20569449E+04</rscale>
<asrwt>0</asrwt>
<pdfrwt beam="1">  1        2 0.51760199E+00 0.20569449E+04</pdfrwt>
<pdfrwt beam="2">  1       -2 0.48368507E-01 0.20569449E+04</pdfrwt>
<totfact> 0.37898587E+00</totfact>
</mgrwt>
</event>
<event>
12    3  0.4806716E-008  0.3357346E+04  0.7818608E-02  0.8148455E-01
          1   -1    0    0  501    0  0.00000000000E+00  0.00000000000E+00  0.19807144837E+04  0.19807144837E+04  0.00000000000E+00 0. -1.
         -1   -1    0    0    0  501 -0.00000000000E+00 -0.00000000000E+00 -0.14226901303E+04  0.14226901303E+04  0.00000000000E+00 0.  1.
         23    2    1    2    0    0 -0.11595843072E+04  0.96852115663E+03  0.69483208501E+03  0.16657425281E+04  0.96112159173E+02 0.  0.
        254    2    1    2    0    0  0.11595843072E+04 -0.96852115663E+03 -0.13680773165E+03  0.17376620858E+04  0.84739847338E+03 0.  0.
         23    2    4    4    0    0  0.12468355144E+04 -0.98797957022E+03 -0.69624952461E+02  0.15949221863E+04  0.90701242841E+02 0.  0.
         23    2    4    4    0    0 -0.87251207122E+02  0.19458413592E+02 -0.67182779187E+02  0.14273989949E+03  0.88711611889E+02 0.  0.
          4    1    3    3  502    0 -0.96354820053E+03  0.84905781703E+03  0.58345940085E+03  0.14105846957E+04  0.00000000000E+00 0. -1.
         -4    1    3    3    0  502 -0.19603610671E+03  0.11946333960E+03  0.11137268416E+03  0.25515783237E+03  0.00000000000E+00 0.  1.
         13    1    5    5    0    0  0.34410229072E+03 -0.22939537399E+03 -0.38867547003E+02  0.41537851448E+03  0.00000000000E+00 0. -1.
        -13    1    5    5    0    0  0.90273322364E+03 -0.75858419624E+03 -0.30757405458E+02  0.11795436719E+04  0.00000000000E+00 0.  1.
          3    1    6    6  503    0 -0.10735028707E+02 -0.31184694304E+02 -0.26766855063E+02  0.42475764033E+02  0.00000000000E+00 0. -1.
         -3    1    6    6    0  503 -0.76516178416E+02  0.50643107896E+02 -0.40415924124E+02  0.10026413546E+03  0.00000000000E+00 0.  1.
<mgrwt>
<rscale>  0 0.33573459E+04</rscale>
<asrwt>0</asrwt>
<pdfrwt beam="1">  1        1 0.30472531E+00 0.33573459E+04</pdfrwt>
<pdfrwt beam="2">  1       -1 0.21887540E+00 0.33573459E+04</pdfrwt>
<totfact> 0.28396654E-01</totfact>
</mgrwt>
</event>
<event>
12    3  0.4806716E-008  0.1783727E+04  0.7818608E-02  0.8715001E-01
          2   -1    0    0  501    0  0.00000000000E+00  0.00000000000E+00  0.12829460620E+04  0.12829460620E+04  0.00000000000E+00 0. -1.
         -2   -1    0    0    0  501 -0.00000000000E+00 -0.00000000000E+00 -0.61999534001E+03  0.61999534001E+03  0.00000000000E+00 0.  1.
         23    2    1    2    0    0 -0.54846978274E+03  0.23777574387E+03 -0.49245062788E+02  0.60691012812E+03  0.92511731453E+02 0.  0.
        254    2    1    2    0    0  0.54846978274E+03 -0.23777574387E+03  0.71219578480E+03  0.12960312739E+04  0.90283875643E+03 0.  0.
         23    2    4    4    0    0  0.63693880967E+03  0.10239125918E+03  0.22629914549E+03  0.68980645627E+03  0.91905531089E+02 0.  0.
         23    2    4    4    0    0 -0.88469026926E+02 -0.34016700305E+03  0.48589663930E+03  0.60622481764E+03  0.88727823956E+02 0.  0.
          2    1    3    3  502    0 -0.46781866422E+03  0.17712132794E+03 -0.15369001102E+02  0.50046225992E+03  0.00000000000E+00 0. -1.
         -2    1    3    3    0  502 -0.80651118516E+02  0.60654415931E+02 -0.33876061687E+02  0.10644786820E+03  0.00000000000E+00 0.  1.
         13    1    5    5    0    0  0.35962916782E+02 -0.15465919176E+02  0.15824156421E+02  0.42224755368E+02  0.00000000000E+00 0. -1.
        -13    1    5    5    0    0  0.60097589288E+03  0.11785717836E+03  0.21047498907E+03  0.64758170090E+03  0.00000000000E+00 0.  1.
          3    1    6    6  503    0 -0.85839000726E+02 -0.23031573846E+03  0.38662381437E+03  0.45813933171E+03  0.00000000000E+00 0. -1.
         -3    1    6    6    0  503 -0.26300262000E+01 -0.10985126460E+03  0.99272824936E+02  0.14808548593E+03  0.00000000000E+00 0.  1.
<mgrwt>
<rscale>  0 0.17837271E+04</rscale>
<asrwt>0</asrwt>
<pdfrwt beam="1">  1        2 0.19737632E+00 0.17837271E+04</pdfrwt>
<pdfrwt beam="2">  1       -2 0.95383899E-01 0.17837271E+04</pdfrwt>
<totfact> 0.14765141E+01</totfact>
</mgrwt>
</event>
<event>
12    3  0.4806716E-008  0.1732639E+04  0.7818608E-02  0.8742965E-01
          2   -1    0    0  501    0  0.00000000000E+00  0.00000000000E+00  0.11841393201E+04  0.11841393201E+04  0.00000000000E+00 0. -1.
         -2   -1    0    0    0  501 -0.00000000000E+00 -0.00000000000E+00 -0.63380201513E+03  0.63380201513E+03  0.00000000000E+00 0.  1.
         23    2    1    2    0    0  0.56037629186E+03 -0.27575759985E+03  0.12334382006E+03  0.64316884654E+03  0.91589436351E+02 0.  0.
        254    2    1    2    0    0 -0.56037629186E+03  0.27575759985E+03  0.42699348491E+03  0.11747724887E+04  0.89872305059E+03 0.  0.
         23    2    4    4    0    0 -0.46444810617E+03  0.35871244230E+03  0.66390614228E+03  0.89107393695E+03  0.94099605642E+02 0.  0.
         23    2    4    4    0    0 -0.95928185695E+02 -0.82954842447E+02 -0.23691265737E+03  0.28369855173E+03  0.90958992608E+02 0.  0.
          1    1    3    3  502    0  0.29056077631E+03 -0.17571844865E+03  0.31109149465E+02  0.34098433557E+03  0.00000000000E+00 0. -1.
         -1    1    3    3    0  502  0.26981551556E+03 -0.10003915120E+03  0.92234670595E+02  0.30218451096E+03  0.00000000000E+00 0.  1.
         13    1    5    5    0    0 -0.90974180192E+02  0.12184962625E+03  0.16634242409E+03  0.22537398903E+03  0.00000000000E+00 0. -1.
        -13    1    5    5    0    0 -0.37347392598E+03  0.23686281605E+03  0.49756371819E+03  0.66569994792E+03  0.00000000000E+00 0.  1.
          3    1    6    6  503    0 -0.10173069100E+02 -0.60356895155E+02 -0.59532305301E+02  0.85384667840E+02  0.00000000000E+00 0. -1.
         -3    1    6    6    0  503 -0.85755116595E+02 -0.22597947292E+02 -0.17738035207E+03  0.19831388389E+03  0.00000000000E+00 0.  1.
<mgrwt>
<rscale>  0 0.17326395E+04</rscale>
<asrwt>0</asrwt>
<pdfrwt beam="1">  1        2 0.18217528E+00 0.17326395E+04</pdfrwt>
<pdfrwt beam="2">  1       -2 0.97508002E-01 0.17326395E+04</pdfrwt>
<totfact> 0.16112961E+01</totfact>
</mgrwt>
</event>
<event>
12    3  0.4806716E-008  0.2155235E+04  0.7818608E-02  0.8537295E-01
          1   -1    0    0  501    0  0.00000000000E+00  0.00000000000E+00  0.58794320845E+03  0.58794320845E+03  0.00000000000E+00 0.  1.
         -1   -1    0    0    0  501 -0.00000000000E+00 -0.00000000000E+00 -0.19751223789E+04  0.19751223789E+04  0.00000000000E+00 0. -1.
         23    2    1    2    0    0 -0.17516174338E+03  0.82038414615E+03 -0.92123628792E+03  0.12491701306E+04  0.89654522987E+02 0.  0.
        254    2    1    2    0    0  0.17516174338E+03 -0.82038414615E+03 -0.46594288252E+03  0.13138954567E+04  0.89750026060E+03 0.  0.
         23    2    4    4    0    0 -0.12865258377E+03  0.21828330725E+02 -0.37710807523E+03  0.40953311440E+03  0.92080986370E+02 0.  0.
         23    2    4    4    0    0  0.30381432715E+03 -0.84221247687E+03 -0.88834807287E+02  0.90436234230E+03  0.91403619252E+02 0.  0.
          3    1    3    3  502    0 -0.38600007398E+02  0.94547599494E+02 -0.14864832808E+03  0.18034837006E+03  0.00000000000E+00 0.  1.
         -3    1    3    3    0  502 -0.13656173598E+03  0.72583654665E+03 -0.77258795984E+03  0.10688217606E+04  0.00000000000E+00 0. -1.
         13    1    5    5    0    0 -0.93707556790E+02  0.40515200308E+02 -0.16709877476E+03  0.19581774225E+03  0.00000000000E+00 0. -1.
        -13    1    5    5    0    0 -0.34945026977E+02 -0.18686869583E+02 -0.21000930047E+03  0.21371537214E+03  0.00000000000E+00 0.  1.
          1    1    6    6  503    0  0.19592691441E+03 -0.65749187544E+03 -0.69147755138E+02  0.68953921868E+03  0.00000000000E+00 0. -1.
         -1    1    6    6    0  503  0.10788741274E+03 -0.18472060144E+03 -0.19687052148E+02  0.21482312362E+03  0.00000000000E+00 0.  1.
<mgrwt>
<rscale>  0 0.21552353E+04</rscale>
<asrwt>0</asrwt>
<pdfrwt beam="1">  1        1 0.90452799E-01 0.21552353E+04</pdfrwt>
<pdfrwt beam="2">  1       -1 0.30386499E+00 0.21552353E+04</pdfrwt>
<totfact> 0.10066902E+00</totfact>
</mgrwt>
</event>
<event>
12    3  0.4806716E-008  0.1232117E+04  0.7818608E-02  0.9085200E-01
         -1   -1    0    0    0  501 -0.00000000000E+00  0.00000000000E+00  0.12113700679E+04  0.12113700679E+04  0.00000000000E+00 0.  1.
          1   -1    0    0  501    0  0.00000000000E+00 -0.00000000000E+00 -0.31330463919E+03  0.31330463919E+03  0.00000000000E+00 0. -1.
         23    2    1    2    0    0 -0.77599833047E+02  0.21910322735E+03  0.46069570040E+02  0.25423835724E+03  0.92123714012E+02 0.  0.
        254    2    1    2    0    0  0.77599833047E+02 -0.21910322735E+03  0.85199585867E+03  0.12704363498E+04  0.91328178428E+03 0.  0.
         23    2    4    4    0    0 -0.37222116380E+03 -0.13466503120E+03  0.16174106296E+03  0.43745786258E+03  0.92336042117E+02 0.  0.
         23    2    4    4    0    0  0.44982099685E+03 -0.84438196144E+02  0.69025479571E+03  0.83297848727E+03  0.89065925412E+02 0.  0.
          1    1    3    3  502    0 -0.78812143795E+02  0.19888115506E+03  0.11582102777E+02  0.21424101603E+03  0.00000000000E+00 0. -1.
         -1    1    3    3    0  502  0.12123107482E+01  0.20222072293E+02  0.34487467264E+02  0.39997341205E+02  0.00000000000E+00 0.  1.
         13    1    5    5    0    0 -0.64388923470E+02 -0.44299896163E+02 -0.33562765744E-01  0.78156352219E+02  0.00000000000E+00 0.  1.
        -13    1    5    5    0    0 -0.30783224033E+03 -0.90365135041E+02  0.16177462573E+03  0.35930151036E+03  0.00000000000E+00 0. -1.
          4    1    6    6  503    0  0.42168431786E+03 -0.61091262576E+02  0.65966735768E+03  0.78530938431E+03  0.00000000000E+00 0. -1.
         -4    1    6    6    0  503  0.28136678992E+02 -0.23346933567E+02  0.30587438034E+02  0.47669102961E+02  0.00000000000E+00 0.  1.
<mgrwt>
<rscale>  0 0.12321167E+04</rscale>
<asrwt>0</asrwt>
<pdfrwt beam="1">  1        1 0.48200714E-01 0.12321167E+04</pdfrwt>
<pdfrwt beam="2">  1       -1 0.18636462E+00 0.12321167E+04</pdfrwt>
<totfact> 0.15332884E+01</totfact>
</mgrwt>
</event>
<event>
12    3  0.4806716E-008  0.2110410E+04  0.7818608E-02  0.8556672E-01
         -1   -1    0    0    0  501 -0.00000000000E+00  0.00000000000E+00  0.16757694374E+04  0.16757694374E+04  0.00000000000E+00 0.  1.
          1   -1    0    0  501    0  0.00000000000E+00 -0.00000000000E+00 -0.66444546148E+03  0.66444546148E+03  0.00000000000E+00 0. -1.
         23    2    1    2    0    0  0.68168104619E+02 -0.79313859383E+03  0.50108928070E+02  0.80287047403E+03  0.91511605231E+02 0.  0.
        254    2    1    2    0    0 -0.68168104619E+02  0.79313859383E+03  0.96121504789E+03  0.15373444249E+04  0.89765126465E+03 0.  0.
         23    2    4    4    0    0 -0.45899984407E+03  0.27085829216E+03  0.45938594129E+03  0.70932445603E+03  0.89781231759E+02 0.  0.
         23    2    4    4    0    0  0.39083173946E+03  0.52228030166E+03  0.50182910660E+03  0.82801996885E+03  0.90876039280E+02 0.  0.
          2    1    3    3  502    0  0.83823470709E+00 -0.12933907021E+01 -0.59950388200E+01  0.61899909035E+01  0.00000000000E+00 0. -1.
         -2    1    3    3    0  502  0.67329869912E+02 -0.79184520313E+03  0.56103966890E+02  0.79668048313E+03  0.00000000000E+00 0.  1.
         13    1    5    5    0    0 -0.11922052199E+03  0.81087883492E+02  0.75856497671E+02  0.16292018276E+03  0.00000000000E+00 0.  1.
        -13    1    5    5    0    0 -0.33977932208E+03  0.18977040867E+03  0.38352944362E+03  0.54640427327E+03  0.00000000000E+00 0. -1.
          1    1    6    6  503    0  0.37214549298E+03  0.52036355433E+03  0.48508359894E+03  0.80285527624E+03  0.00000000000E+00 0. -1.
         -1    1    6    6    0  503  0.18686246475E+02  0.19167473343E+01  0.16745507657E+02  0.25164692614E+02  0.00000000000E+00 0.  1.
<mgrwt>
<rscale>  0 0.21104098E+04</rscale>
<asrwt>0</asrwt>
<pdfrwt beam="1">  1        1 0.10222238E+00 0.21104098E+04</pdfrwt>
<pdfrwt beam="2">  1       -1 0.25781068E+00 0.21104098E+04</pdfrwt>
<totfact> 0.16792205E+00</totfact>
</mgrwt>
</event>
<event>
12    3  0.4806716E-008  0.2903589E+04  0.7818608E-02  0.8271810E-01
          1   -1    0    0  501    0  0.00000000000E+00  0.00000000000E+00  0.16596497546E+04  0.16596497546E+04  0.00000000000E+00 0. -1.
         -1   -1    0    0    0  501 -0.00000000000E+00 -0.00000000000E+00 -0.12699712081E+04  0.12699712081E+04  0.00000000000E+00 0.  1.
         23    2    1    2    0    0  0.11773865180E+03 -0.25088462229E+03 -0.11175662360E+04  0.11545416112E+04  0.84891439086E+02 0.  0.
        254    2    1    2    0    0 -0.11773865180E+03  0.25088462229E+03  0.15072447825E+04  0.17750793514E+04  0.89572003747E+03 0.  0.
         23    2    4    4    0    0 -0.43016700439E+02 -0.28354392679E+03  0.20910553427E+03  0.36627783396E+03  0.90480562822E+02 0.  0.
         23    2    4    4    0    0 -0.74721951357E+02  0.53442854909E+03  0.12981392483E+04  0.14088015175E+04  0.91427368002E+02 0.  0.
          2    1    3    3  502    0 -0.99994376085E+01 -0.33412393041E+02 -0.19635577274E+03  0.19942910081E+03  0.00000000000E+00 0. -1.
         -2    1    3    3    0  502  0.12773808940E+03 -0.21747222925E+03 -0.92121046325E+03  0.95511251043E+03  0.00000000000E+00 0.  1.
         13    1    5    5    0    0  0.20032380549E+02 -0.15596404005E+03  0.12583699245E+03  0.20139768302E+03  0.00000000000E+00 0.  1.
        -13    1    5    5    0    0 -0.63049080988E+02 -0.12757988674E+03  0.83268541823E+02  0.16488015093E+03  0.00000000000E+00 0. -1.
          3    1    6    6  503    0 -0.17907918254E+02  0.41063546933E+03  0.96427454439E+03  0.10482211499E+04  0.00000000000E+00 0. -1.
         -3    1    6    6    0  503 -0.56814033103E+02  0.12379307976E+03  0.33386470386E+03  0.36058036751E+03  0.00000000000E+00 0.  1.
<mgrwt>
<rscale>  0 0.29035891E+04</rscale>
<asrwt>0</asrwt>
<pdfrwt beam="1">  1        1 0.25533073E+00 0.29035891E+04</pdfrwt>
<pdfrwt beam="2">  1       -1 0.19538019E+00 0.29035891E+04</pdfrwt>
<totfact> 0.70612524E-01</totfact>
</mgrwt>
</event>
<event>
12    3  0.4806716E-008  0.1611814E+04  0.7818608E-02  0.8813323E-01
         -2   -1    0    0    0  501 -0.00000000000E+00  0.00000000000E+00  0.33194918287E+03  0.33194918287E+03  0.00000000000E+00 0. -1.
          2   -1    0    0  501    0  0.00000000000E+00 -0.00000000000E+00 -0.19565838927E+04  0.19565838927E+04  0.00000000000E+00 0.  1.
         23    2    1    2    0    0 -0.13978585883E+03 -0.39362336987E+03 -0.54680989414E+02  0.43044596865E+03  0.88398403227E+02 0.  0.
        254    2    1    2    0    0  0.13978585883E+03  0.39362336987E+03 -0.15699537204E+04  0.18580871069E+04  0.90180572684E+03 0.  0.
         23    2    4    4    0    0 -0.60332440372E+02  0.34519753875E+03 -0.10467259681E+03  0.37568487236E+03  0.85915229573E+02 0.  0.
         23    2    4    4    0    0  0.20011829920E+03  0.48425831115E+02 -0.14652811236E+04  0.14824022345E+04  0.89862222423E+02 0.  0.
          3    1    3    3  502    0 -0.98491673576E+02 -0.22141708789E+03 -0.71229784746E+02  0.25258626014E+03  0.00000000000E+00 0. -1.
         -3    1    3    3    0  502 -0.41294185252E+02 -0.17220628197E+03  0.16548795331E+02  0.17785970852E+03  0.00000000000E+00 0.  1.
         13    1    5    5    0    0  0.85118172085E+01  0.88438596949E+02  0.29517860519E+01  0.88896285093E+02  0.00000000000E+00 0. -1.
        -13    1    5    5    0    0 -0.68844257580E+02  0.25675894180E+03 -0.10762438286E+03  0.28678858726E+03  0.00000000000E+00 0.  1.
          1    1    6    6  503    0  0.48167995494E+02  0.39062614840E+02 -0.65611355094E+03  0.65903796203E+03  0.00000000000E+00 0. -1.
         -1    1    6    6    0  503  0.15195030370E+03  0.93632162747E+01 -0.80916757263E+03  0.82336427249E+03  0.00000000000E+00 0.  1.
<mgrwt>
<rscale>  0 0.16118144E+04</rscale>
<asrwt>0</asrwt>
<pdfrwt beam="1">  1        2 0.30101291E+00 0.16118144E+04</pdfrwt>
<pdfrwt beam="2">  1       -2 0.51069104E-01 0.16118144E+04</pdfrwt>
<totfact> 0.24525927E+01</totfact>
</mgrwt>
</event>
<event>
12    3  0.4806716E-008  0.3081969E+04  0.7818608E-02  0.8220704E-01
          1   -1    0    0  501    0  0.00000000000E+00  0.00000000000E+00  0.34909361534E+04  0.34909361534E+04  0.00000000000E+00 0. -1.
         -1   -1    0    0    0  501 -0.00000000000E+00 -0.00000000000E+00 -0.68022805102E+03  0.68022805102E+03  0.00000000000E+00 0.  1.
         23    2    1    2    0    0  0.43579944934E+03  0.69824817237E+03  0.28304508550E+04  0.29492840315E+04  0.96708766240E+02 0.  0.
        254    2    1    2    0    0 -0.43579944934E+03 -0.69824817237E+03 -0.19742752688E+02  0.12218801729E+04  0.90284534131E+03 0.  0.
         23    2    4    4    0    0  0.18203077759E+01 -0.76393216887E+03 -0.19191860091E+02  0.76931163909E+03  0.88749075440E+02 0.  0.
         23    2    4    4    0    0 -0.43761975712E+03  0.65683996500E+02 -0.55089259666E+00  0.45256853379E+03  0.94828978055E+02 0.  0.
          4    1    3    3  502    0  0.37601414275E+03  0.65238921762E+03  0.25452232530E+04  0.26542719782E+04  0.00000000000E+00 0. -1.
         -4    1    3    3    0  502  0.59785306585E+02  0.45858954751E+02  0.28522760205E+03  0.29501205329E+03  0.00000000000E+00 0.  1.
         13    1    5    5    0    0 -0.34174545430E+02 -0.44770018819E+03 -0.37111060682E+02  0.45053367120E+03  0.00000000000E+00 0.  1.
        -13    1    5    5    0    0  0.35994853206E+02 -0.31623198068E+03  0.17919200590E+02  0.31877796789E+03  0.00000000000E+00 0. -1.
          1    1    6    6  503    0 -0.40909302387E+03  0.65781642843E+02 -0.24854078296E+02  0.41509282326E+03  0.00000000000E+00 0. -1.
         -1    1    6    6    0  503 -0.28526733243E+02 -0.97646342398E-01  0.24303185699E+02  0.37475710526E+02  0.00000000000E+00 0.  1.
<mgrwt>
<rscale>  0 0.30819687E+04</rscale>
<asrwt>0</asrwt>
<pdfrwt beam="1">  1        1 0.53706709E+00 0.30819687E+04</pdfrwt>
<pdfrwt beam="2">  1       -1 0.10465047E+00 0.30819687E+04</pdfrwt>
<totfact> 0.18401606E-01</totfact>
</mgrwt>
</event>
<event>
12    3  0.4806716E-008  0.2260133E+04  0.7818608E-02  0.8493808E-01
         -1   -1    0    0    0  501 -0.00000000000E+00  0.00000000000E+00  0.80843713069E+03  0.80843713069E+03  0.00000000000E+00 0.  1.
          1   -1    0    0  501    0  0.00000000000E+00 -0.00000000000E+00 -0.15796530630E+04  0.15796530630E+04  0.00000000000E+00 0. -1.
         23    2    1    2    0    0  0.62541248394E+02 -0.76808044176E+03 -0.92975556287E+03  0.12109885065E+04  0.90491897509E+02 0.  0.
        254    2    1    2    0    0 -0.62541248394E+02  0.76808044176E+03  0.15853963052E+03  0.11771016872E+04  0.87554245743E+03 0.  0.
         23    2    4    4    0    0 -0.27565126610E+03 -0.11385937028E+02  0.21586562976E+03  0.36195043503E+03  0.91087250713E+02 0.  0.
         23    2    4    4    0    0  0.21311001771E+03  0.77946637878E+03 -0.57325999242E+02  0.81515125215E+03  0.90562566180E+02 0.  0.
          4    1    3    3  502    0 -0.11088428359E+02 -0.18289604970E+02 -0.37787122530E+02  0.43420381419E+02  0.00000000000E+00 0.  1.
         -4    1    3    3    0  502  0.73629676752E+02 -0.74979083679E+03 -0.89196844034E+03  0.11675681251E+04  0.00000000000E+00 0. -1.
         13    1    5    5    0    0 -0.14323981393E+03 -0.36833330160E+02  0.71045389863E+02  0.16407859679E+03  0.00000000000E+00 0.  1.
        -13    1    5    5    0    0 -0.13241145218E+03  0.25447393132E+02  0.14482023990E+03  0.19787183824E+03  0.00000000000E+00 0. -1.
          4    1    6    6  503    0  0.94216895937E+02  0.19571442765E+03 -0.23012608263E+02  0.21842742687E+03  0.00000000000E+00 0. -1.
         -4    1    6    6    0  503  0.11889312177E+03  0.58375195113E+03 -0.34313390979E+02  0.59672382528E+03  0.00000000000E+00 0.  1.
<mgrwt>
<rscale>  0 0.22601329E+04</rscale>
<asrwt>0</asrwt>
<pdfrwt beam="1">  1        1 0.24302355E+00 0.22601329E+04</pdfrwt>
<pdfrwt beam="2">  1       -1 0.12437494E+00 0.22601329E+04</pdfrwt>
<totfact> 0.29618029E+00</totfact>
</mgrwt>
</event>
<event>
12    3  0.4806716E-008  0.1764363E+04  0.7818608E-02  0.8725484E-01
          2   -1    0    0  501    0  0.00000000000E+00  0.00000000000E+00  0.76079088285E+03  0.76079088285E+03  0.00000000000E+00 0. -1.
         -2   -1    0    0    0  501 -0.00000000000E+00 -0.00000000000E+00 -0.10229410344E+04  0.10229410344E+04  0.00000000000E+00 0.  1.
         23    2    1    2    0    0 -0.28474302073E+03  0.48081029960E+03  0.24028708177E+03  0.61501213869E+03  0.90801525371E+02 0.  0.
        254    2    1    2    0    0  0.28474302073E+03 -0.48081029960E+03 -0.50243723335E+03  0.11687197786E+04  0.89510089675E+03 0.  0.
         23    2    4    4    0    0  0.30514116734E+01  0.46016047244E+02  0.20988407699E+03  0.23436459745E+03  0.93534223943E+02 0.  0.
         23    2    4    4    0    0  0.28169160905E+03 -0.52682634685E+03 -0.71232131033E+03  0.93435518114E+03  0.93390540374E+02 0.  0.
          1    1    3    3  502    0 -0.13187167546E+03  0.15711336135E+03  0.11846065924E+03  0.23687058680E+03  0.00000000000E+00 0. -1.
         -1    1    3    3    0  502 -0.15287134527E+03  0.32369693825E+03  0.12182642253E+03  0.37814155189E+03  0.00000000000E+00 0.  1.
         13    1    5    5    0    0  0.31442070780E+01  0.10758736592E+02 -0.79204850297E+01  0.13724814546E+02  0.00000000000E+00 0.  1.
        -13    1    5    5    0    0 -0.92795404603E-01  0.35257310652E+02  0.21780456202E+03  0.22063978290E+03  0.00000000000E+00 0. -1.
          2    1    6    6  503    0  0.11851998747E+03 -0.16648307185E+03 -0.18905459973E+03  0.27839763347E+03  0.00000000000E+00 0. -1.
         -2    1    6    6    0  503  0.16317162159E+03 -0.36034327500E+03 -0.52326671060E+03  0.65595754768E+03  0.00000000000E+00 0.  1.
<mgrwt>
<rscale>  0 0.17643630E+04</rscale>
<asrwt>0</asrwt>
<pdfrwt beam="1">  1        2 0.11704475E+00 0.17643630E+04</pdfrwt>
<pdfrwt beam="2">  1       -2 0.15737555E+00 0.17643630E+04</pdfrwt>
<totfact> 0.91767946E+00</totfact>
</mgrwt>
</event>
<event>
12    3  0.4806716E-008  0.2107150E+04  0.7818608E-02  0.8558100E-01
         -1   -1    0    0    0  501 -0.00000000000E+00  0.00000000000E+00  0.11041370631E+04  0.11041370631E+04  0.00000000000E+00 0.  1.
          1   -1    0    0  501    0  0.00000000000E+00 -0.00000000000E+00 -0.10053283755E+04  0.10053283755E+04  0.00000000000E+00 0. -1.
         23    2    1    2    0    0  0.16715472032E+03  0.61118120594E+03  0.61016721643E+03  0.88448116138E+03  0.92302360859E+02 0.  0.
        254    2    1    2    0    0 -0.16715472032E+03 -0.61118120594E+03 -0.51135852880E+03  0.12249842773E+04  0.91521350928E+03 0.  0.
         23    2    4    4    0    0  0.18980241582E+03 -0.57384129912E+03 -0.22578021766E+02  0.61158611398E+03  0.90603609902E+02 0.  0.
         23    2    4    4    0    0 -0.35695713615E+03 -0.37339906826E+02 -0.48878050703E+03  0.61339816329E+03  0.92402689300E+02 0.  0.
          2    1    3    3  502    0  0.13929009417E+02  0.10523890472E+03  0.14907616917E+03  0.18301078816E+03  0.00000000000E+00 0. -1.
         -2    1    3    3    0  502  0.15322571090E+03  0.50594230122E+03  0.46109104726E+03  0.70147037322E+03  0.00000000000E+00 0.  1.
         13    1    5    5    0    0  0.17683331585E+03 -0.42765773897E+03  0.20277874793E+01  0.46277994254E+03  0.00000000000E+00 0. -1.
        -13    1    5    5    0    0  0.12969099974E+02 -0.14618356015E+03 -0.24605809245E+02  0.14880617144E+03  0.00000000000E+00 0.  1.
          4    1    6    6  503    0 -0.91360746905E+02 -0.48100577952E+02 -0.11249567782E+03  0.15269488925E+03  0.00000000000E+00 0. -1.
         -4    1    6    6    0  503 -0.26559638924E+03  0.10760671127E+02 -0.37628482921E+03  0.46070327404E+03  0.00000000000E+00 0.  1.
<mgrwt>
<rscale>  0 0.21071500E+04</rscale>
<asrwt>0</asrwt>
<pdfrwt beam="1">  1        1 0.15466590E+00 0.21071500E+04</pdfrwt>
<pdfrwt beam="2">  1       -1 0.16986724E+00 0.21071500E+04</pdfrwt>
<totfact> 0.33970874E+00</totfact>
</mgrwt>
</event>
<event>
12    3  0.4806716E-008  0.1873320E+04  0.7818608E-02  0.8668252E-01
          2   -1    0    0  501    0  0.00000000000E+00  0.00000000000E+00  0.12418352003E+04  0.12418352003E+04  0.00000000000E+00 0. -1.
         -2   -1    0    0    0  501 -0.00000000000E+00 -0.00000000000E+00 -0.70647987653E+03  0.70647987653E+03  0.00000000000E+00 0.  1.
         23    2    1    2    0    0 -0.17187583723E+02  0.12921031509E+02  0.95790877998E+03  0.96207696193E+03  0.86835959345E+02 0.  0.
        254    2    1    2    0    0  0.17187583723E+02 -0.12921031509E+02 -0.42255345616E+03  0.98623811494E+03  0.89087138801E+03 0.  0.
         23    2    4    4    0    0  0.11699665611E+03 -0.16205413896E+03 -0.64781347148E+03  0.68438143621E+03  0.93626357967E+02 0.  0.
         23    2    4    4    0    0 -0.99809072390E+02  0.14913310745E+03  0.22526001532E+03  0.30185667873E+03  0.90403790432E+02 0.  0.
          1    1    3    3  502    0 -0.35497981752E+02  0.22779664881E+02  0.89129833313E+03  0.89229576850E+03  0.00000000000E+00 0. -1.
         -1    1    3    3    0  502  0.18310398029E+02 -0.98586333718E+01  0.66610446850E+02  0.69781193437E+02  0.00000000000E+00 0.  1.
         13    1    5    5    0    0  0.42030421049E+00 -0.59802626070E+02 -0.11723609478E+03  0.13160863444E+03  0.00000000000E+00 0. -1.
        -13    1    5    5    0    0  0.11657635190E+03 -0.10225151289E+03 -0.53057737670E+03  0.55277280177E+03  0.00000000000E+00 0.  1.
          1    1    6    6  503    0 -0.82798049156E+02  0.12299586180E+03  0.11605953272E+03  0.18829050454E+03  0.00000000000E+00 0. -1.
         -1    1    6    6    0  503 -0.17011023234E+02  0.26137245654E+02  0.10920048260E+03  0.11356617420E+03  0.00000000000E+00 0.  1.
<mgrwt>
<rscale>  0 0.18733196E+04</rscale>
<asrwt>0</asrwt>
<pdfrwt beam="1">  1        2 0.19105157E+00 0.18733196E+04</pdfrwt>
<pdfrwt beam="2">  1       -2 0.10868921E+00 0.18733196E+04</pdfrwt>
<totfact> 0.11355928E+01</totfact>
</mgrwt>
</event>
<event>
12    3  0.4806716E-008  0.3377709E+04  0.7818608E-02  0.8143399E-01
         -1   -1    0    0    0  501 -0.00000000000E+00  0.00000000000E+00  0.12407452888E+04  0.12407452888E+04  0.00000000000E+00 0.  1.
          1   -1    0    0  501    0  0.00000000000E+00 -0.00000000000E+00 -0.22988027508E+04  0.22988027508E+04  0.00000000000E+00 0. -1.
         23    2    1    2    0    0  0.74888822926E+03  0.59674667904E+02 -0.19291236890E+04  0.20721775652E+04  0.89481887467E+02 0.  0.
        254    2    1    2    0    0 -0.74888822926E+03 -0.59674667904E+02  0.87106622701E+03  0.14673704745E+04  0.91105712862E+03 0.  0.
         23    2    4    4    0    0  0.25760543462E+02 -0.29097596346E+03  0.46598170647E+02  0.30965283790E+03  0.91558034084E+02 0.  0.
         23    2    4    4    0    0 -0.77464877273E+03  0.23130129555E+03  0.82446805636E+03  0.11577176366E+04  0.83555608140E+02 0.  0.
          3    1    3    3  502    0  0.28582174022E+03 -0.20653174002E+02 -0.73861837015E+03  0.79226114224E+03  0.00000000000E+00 0. -1.
         -3    1    3    3    0  502  0.46306648905E+03  0.80327841906E+02 -0.11905053189E+04  0.12799164230E+04  0.00000000000E+00 0.  1.
         13    1    5    5    0    0  0.49582585522E+02 -0.10442697143E+03 -0.12130057794E+01  0.11560664571E+03  0.00000000000E+00 0.  1.
        -13    1    5    5    0    0 -0.23822042060E+02 -0.18654899203E+03  0.47811176426E+02  0.19404619220E+03  0.00000000000E+00 0. -1.
          2    1    6    6  503    0 -0.75016963277E+03  0.21555717024E+03  0.81120783504E+03  0.11257342152E+04  0.00000000000E+00 0.  1.
         -2    1    6    6    0  503 -0.24479139951E+02  0.15744125318E+02  0.13260221321E+02  0.31983421397E+02  0.00000000000E+00 0. -1.
<mgrwt>
<rscale>  0 0.33777085E+04</rscale>
<asrwt>0</asrwt>
<pdfrwt beam="1">  1        1 0.35366196E+00 0.33777085E+04</pdfrwt>
<pdfrwt beam="2">  1       -1 0.19088389E+00 0.33777085E+04</pdfrwt>
<totfact> 0.26770630E-01</totfact>
</mgrwt>
</event>
<event>
12    3  0.5156842E-008  0.3169100E+04  0.7818608E-02  0.8197026E-01
          1   -1    0    0  501    0  0.00000000000E+00  0.00000000000E+00  0.22305519272E+04  0.22305519272E+04  0.00000000000E+00 0. -1.
         -1   -1    0    0    0  501 -0.00000000000E+00 -0.00000000000E+00 -0.11256399405E+04  0.11256399405E+04  0.00000000000E+00 0.  1.
         23    2    1    2    0    0  0.48042347199E+03 -0.50234905616E+03 -0.85035869535E+03  0.11019579769E+04  0.89667081383E+02 0.  0.
        254    2    1    2    0    0 -0.48042347199E+03  0.50234905616E+03  0.19552706820E+04  0.22542338907E+04  0.88052581306E+03 0.  0.
         23    2    4    4    0    0 -0.43069693345E+03  0.67306935936E+03  0.10256976197E+04  0.13034080711E+04  0.91075691682E+02 0.  0.
         23    2    4    4    0    0 -0.49726538544E+02 -0.17072030321E+03  0.92957306231E+03  0.95082581967E+03  0.91353766313E+02 0.  0.
          1    1    3    3  502    0  0.97264164034E+02 -0.14011117818E+03 -0.16577657068E+03  0.23785148989E+03  0.00000000000E+00 0. -1.
         -1    1    3    3    0  502  0.38315930796E+03 -0.36223787798E+03 -0.68458212467E+03  0.86410648704E+03  0.00000000000E+00 0.  1.
         13    1    5    5    0    0 -0.43468383076E+03  0.66132548851E+03  0.10038586573E+04  0.12782932521E+04  0.00000000000E+00 0.  1.
        -13    1    5    5    0    0  0.39868973119E+01  0.11743870852E+02  0.21838962450E+02  0.25114819005E+02  0.00000000000E+00 0. -1.
          2    1    6    6  503    0 -0.23777463661E+02  0.32316625135E+01  0.11761896966E+03  0.12004179874E+03  0.00000000000E+00 0. -1.
         -2    1    6    6    0  503 -0.25949074882E+02 -0.17395196572E+03  0.81195409265E+03  0.83078402094E+03  0.00000000000E+00 0.  1.
<mgrwt>
<rscale>  0 0.31690998E+04</rscale>
<asrwt>0</asrwt>
<pdfrwt beam="1">  1        1 0.34316184E+00 0.31690998E+04</pdfrwt>
<pdfrwt beam="2">  1       -1 0.17317538E+00 0.31690998E+04</pdfrwt>
<totfact> 0.40619291E-01</totfact>
</mgrwt>
</event>
<event>
12    3  0.4806716E-008  0.1674389E+04  0.7818608E-02  0.8776107E-01
          2   -1    0    0  501    0  0.00000000000E+00  0.00000000000E+00  0.80923375215E+03  0.80923375215E+03  0.00000000000E+00 0. -1.
         -2   -1    0    0    0  501 -0.00000000000E+00 -0.00000000000E+00 -0.86612148780E+03  0.86612148780E+03  0.00000000000E+00 0.  1.
         23    2    1    2    0    0 -0.31783368497E+03  0.15634524823E+03 -0.50420975009E+03  0.62287494129E+03  0.91014462877E+02 0.  0.
        254    2    1    2    0    0  0.31783368497E+03 -0.15634524823E+03  0.44732201445E+03  0.10524802987E+04  0.88439567305E+03 0.  0.
         23    2    4    4    0    0  0.19601592786E+03  0.52510818072E+02 -0.23468760218E+03  0.32328843976E+03  0.90870868135E+02 0.  0.
         23    2    4    4    0    0  0.12181775711E+03 -0.20885606631E+03  0.68200961663E+03  0.72919185890E+03  0.90128949427E+02 0.  0.
          4    1    3    3  502    0 -0.26145410032E+02  0.14144445784E+01 -0.91162747867E+01  0.27725251761E+02  0.00000000000E+00 0. -1.
         -4    1    3    3    0  502 -0.29168827494E+03  0.15493080366E+03 -0.49509347530E+03  0.59514968953E+03  0.00000000000E+00 0.  1.
         13    1    5    5    0    0  0.12288455788E+02 -0.11511277974E+02  0.19334187753E+01  0.16948562606E+02  0.00000000000E+00 0.  1.
        -13    1    5    5    0    0  0.18372747207E+03  0.64022096046E+02 -0.23662102096E+03  0.30633987716E+03  0.00000000000E+00 0. -1.
          1    1    6    6  503    0  0.11794531692E+03 -0.21678253674E+03  0.67181477153E+03  0.71571003434E+03  0.00000000000E+00 0. -1.
         -1    1    6    6    0  503  0.38724401866E+01  0.79264704360E+01  0.10194845106E+02  0.13481824554E+02  0.00000000000E+00 0.  1.
<mgrwt>
<rscale>  0 0.16743891E+04</rscale>
<asrwt>0</asrwt>
<pdfrwt beam="1">  1        2 0.12449750E+00 0.16743891E+04</pdfrwt>
<pdfrwt beam="2">  1       -2 0.13324946E+00 0.16743891E+04</pdfrwt>
<totfact> 0.13189289E+01</totfact>
</mgrwt>
</event>
<event>
12    3  0.4806716E-008  0.1821731E+04  0.7818608E-02  0.8694828E-01
         -2   -1    0    0    0  501 -0.00000000000E+00  0.00000000000E+00  0.12788231517E+04  0.12788231517E+04  0.00000000000E+00 0.  1.
          2   -1    0    0  501    0  0.00000000000E+00 -0.00000000000E+00 -0.64878105182E+03  0.64878105182E+03  0.00000000000E+00 0. -1.
         23    2    1    2    0    0 -0.60323260178E+02 -0.61392230623E+03 -0.74344449774E+02  0.62813132936E+03  0.92099814894E+02 0.  0.
        254    2    1    2    0    0  0.60323260178E+02  0.61392230623E+03  0.70438654964E+03  0.12994728741E+04  0.90107149854E+03 0.  0.
         23    2    4    4    0    0 -0.77204412428E+02 -0.21412800626E+03  0.19476334801E+03  0.31317465549E+03  0.91292271047E+02 0.  0.
         23    2    4    4    0    0  0.13752767261E+03  0.82805031249E+03  0.50962320163E+03  0.98629821864E+03  0.92125933884E+02 0.  0.
          1    1    3    3  502    0 -0.39811757265E+02 -0.58843302785E+03 -0.61473662520E+02  0.59297336826E+03  0.00000000000E+00 0. -1.
         -1    1    3    3    0  502 -0.20511502913E+02 -0.25489278381E+02 -0.12870787254E+02  0.35157961099E+02  0.00000000000E+00 0.  1.
         13    1    5    5    0    0 -0.68304584725E+02 -0.15412197044E+03  0.18739966705E+03  0.25206692222E+03  0.00000000000E+00 0.  1.
        -13    1    5    5    0    0 -0.88998277026E+01 -0.60006035825E+02  0.73636809516E+01  0.61107733272E+02  0.00000000000E+00 0. -1.
          2    1    6    6  503    0  0.70123579408E+02  0.27537694097E+03  0.21534626516E+03  0.35654423278E+03  0.00000000000E+00 0. -1.
         -2    1    6    6    0  503  0.67404093198E+02  0.55267337152E+03  0.29427693647E+03  0.62975398586E+03  0.00000000000E+00 0.  1.
<mgrwt>
<rscale>  0 0.18217313E+04</rscale>
<asrwt>0</asrwt>
<pdfrwt beam="1">  1        2 0.99812470E-01 0.18217313E+04</pdfrwt>
<pdfrwt beam="2">  1       -2 0.19674202E+00 0.18217313E+04</pdfrwt>
<totfact> 0.59308136E+00</totfact>
</mgrwt>
</event>
<event>
12    3  0.4806716E-008  0.1159523E+04  0.7818608E-02  0.9149043E-01
          2   -1    0    0  501    0  0.00000000000E+00  0.00000000000E+00  0.17587939090E+04  0.17587939090E+04  0.00000000000E+00 0. -1.
         -2   -1    0    0    0  501 -0.00000000000E+00 -0.00000000000E+00 -0.19111010902E+03  0.19111010902E+03  0.00000000000E+00 0.  1.
         23    2    1    2    0    0  0.19368476598E+03  0.91900798731E+02  0.37111652407E+03  0.43814858628E+03  0.91033860938E+02 0.  0.
        254    2    1    2    0    0 -0.19368476598E+03 -0.91900798731E+02  0.11965672759E+04  0.15117554317E+04  0.89870556592E+03 0.  0.
         23    2    4    4    0    0 -0.22469493187E+03 -0.45002510597E+03  0.91022367745E+03  0.10437875023E+04  0.89301727148E+02 0.  0.
         23    2    4    4    0    0  0.31010165889E+02  0.35812430724E+03  0.28634359842E+03  0.46796792944E+03  0.88242148703E+02 0.  0.
          2    1    3    3  502    0  0.17908930513E+03  0.93511237532E+02  0.37212323374E+03  0.42343007905E+03  0.00000000000E+00 0. -1.
         -2    1    3    3    0  502  0.14595460856E+02 -0.16104388003E+01 -0.10067096658E+01  0.14718507230E+02  0.00000000000E+00 0.  1.
         13    1    5    5    0    0 -0.43855820324E+02 -0.60178056040E+02  0.82386613122E+02  0.11105082362E+03  0.00000000000E+00 0. -1.
        -13    1    5    5    0    0 -0.18083911155E+03 -0.38984704993E+03  0.82783706432E+03  0.93273667863E+03  0.00000000000E+00 0.  1.
          1    1    6    6  503    0 -0.16990955662E+02  0.52848937432E+02  0.17056270276E+02  0.58074255205E+02  0.00000000000E+00 0. -1.
         -1    1    6    6    0  503  0.48001121550E+02  0.30527536981E+03  0.26928732815E+03  0.40989367424E+03  0.00000000000E+00 0.  1.
<mgrwt>
<rscale>  0 0.11595228E+04</rscale>
<asrwt>0</asrwt>
<pdfrwt beam="1">  1        2 0.27058367E+00 0.11595228E+04</pdfrwt>
<pdfrwt beam="2">  1       -2 0.29401556E-01 0.11595228E+04</pdfrwt>
<totfact> 0.95818567E+01</totfact>
</mgrwt>
</event>
<event>
12    3  0.4806716E-008  0.1753953E+04  0.7818608E-02  0.8731177E-01
          4   -1    0    0  501    0  0.00000000000E+00  0.00000000000E+00  0.64532765366E+03  0.64532765366E+03  0.00000000000E+00 0. -1.
         -4   -1    0    0    0  501 -0.00000000000E+00 -0.00000000000E+00 -0.11917788757E+04  0.11917788757E+04  0.00000000000E+00 0.  1.
         23    2    1    2    0    0 -0.18261474675E+03 -0.61711579478E+03 -0.16418499061E+03  0.67033050702E+03  0.90588231013E+02 0.  0.
        254    2    1    2    0    0  0.18261474675E+03  0.61711579478E+03 -0.38226623142E+03  0.11667760223E+04  0.89501886277E+03 0.  0.
         23    2    4    4    0    0  0.36026124285E+03  0.56889501314E+03 -0.57015257758E+03  0.88714523355E+03  0.92320120315E+02 0.  0.
         23    2    4    4    0    0 -0.17764649610E+03  0.48220781645E+02  0.18788634616E+03  0.27963078879E+03  0.94913526989E+02 0.  0.
          1    1    3    3  502    0 -0.14908780225E+03 -0.54641321564E+03 -0.17138890705E+03  0.59175056608E+03  0.00000000000E+00 0. -1.
         -1    1    3    3    0  502 -0.33526944498E+02 -0.70702579146E+02  0.72039164365E+01  0.78579940934E+02  0.00000000000E+00 0.  1.
         13    1    5    5    0    0  0.11674062405E+03  0.14210174939E+03 -0.20180614925E+03  0.27303296936E+03  0.00000000000E+00 0. -1.
        -13    1    5    5    0    0  0.24352061880E+03  0.42679326375E+03 -0.36834642833E+03  0.61411226419E+03  0.00000000000E+00 0.  1.
          3    1    6    6  503    0  0.66639013865E+01  0.12605143445E+02  0.34097462867E+02  0.36958547008E+02  0.00000000000E+00 0. -1.
         -3    1    6    6    0  503 -0.18431039749E+03  0.35615638200E+02  0.15378888329E+03  0.24267224178E+03  0.00000000000E+00 0.  1.
<mgrwt>
<rscale>  0 0.17539531E+04</rscale>
<asrwt>0</asrwt>
<pdfrwt beam="1">  1        4 0.99281179E-01 0.17539531E+04</pdfrwt>
<pdfrwt beam="2">  1       -4 0.18335059E+00 0.17539531E+04</pdfrwt>
<totfact> 0.27136310E-01</totfact>
</mgrwt>
</event>
<event>
12    3  0.4806716E-008  0.1413968E+04  0.7818608E-02  0.8943769E-01
         -3   -1    0    0    0  501 -0.00000000000E+00  0.00000000000E+00  0.11110424970E+04  0.11110424970E+04  0.00000000000E+00 0.  1.
          3   -1    0    0  501    0  0.00000000000E+00 -0.00000000000E+00 -0.44987181037E+03  0.44987181037E+03  0.00000000000E+00 0. -1.
         23    2    1    2    0    0 -0.36309175371E+03 -0.16951085999E+03  0.30289969705E+03  0.51052640131E+03  0.91210891330E+02 0.  0.
        254    2    1    2    0    0  0.36309175371E+03  0.16951085999E+03  0.35827098953E+03  0.10503879060E+04  0.90243398533E+03 0.  0.
         23    2    4    4    0    0  0.30704763471E+01  0.17162807571E+03  0.58403645958E+03  0.61573674895E+03  0.92560972850E+02 0.  0.
         23    2    4    4    0    0  0.36002127736E+03 -0.21172157196E+01 -0.22576547005E+03  0.43465115706E+03  0.91278574219E+02 0.  0.
          3    1    3    3  502    0 -0.52149331605E+02  0.80205680637E+01  0.34448412762E+02  0.63012502257E+02  0.00000000000E+00 0. -1.
         -3    1    3    3    0  502 -0.31094242210E+03 -0.17753142806E+03  0.26845128429E+03  0.44751389905E+03  0.00000000000E+00 0.  1.
         13    1    5    5    0    0  0.25628015796E+02  0.16545803252E+02  0.44875824878E+02  0.54262311574E+02  0.00000000000E+00 0.  1.
        -13    1    5    5    0    0 -0.22557539449E+02  0.15508227246E+03  0.53916063470E+03  0.56147443738E+03  0.00000000000E+00 0. -1.
          3    1    6    6  503    0  0.16362638659E+03  0.18839742569E+02 -0.15104602516E+03  0.22348027207E+03  0.00000000000E+00 0. -1.
         -3    1    6    6    0  503  0.19639489077E+03 -0.20956958288E+02 -0.74719444886E+02  0.21117088498E+03  0.00000000000E+00 0.  1.
<mgrwt>
<rscale>  0 0.14139685E+04</rscale>
<asrwt>0</asrwt>
<pdfrwt beam="1">  1        3 0.69211048E-01 0.14139685E+04</pdfrwt>
<pdfrwt beam="2">  1       -3 0.17092961E+00 0.14139685E+04</pdfrwt>
<totfact> 0.11613754E+00</totfact>
</mgrwt>
</event>
<event>
12    3  0.4806716E-008  0.2703518E+04  0.7818608E-02  0.8333864E-01
          1   -1    0    0  501    0  0.00000000000E+00  0.00000000000E+00  0.13692081137E+04  0.13692081137E+04  0.00000000000E+00 0. -1.
         -1   -1    0    0    0  501 -0.00000000000E+00 -0.00000000000E+00 -0.13345324647E+04  0.13345324647E+04  0.00000000000E+00 0.  1.
         23    2    1    2    0    0 -0.39268345482E+02  0.98514696583E+02  0.11962767697E+04  0.12045000285E+04  0.92168652598E+02 0.  0.
        254    2    1    2    0    0  0.39268345482E+02 -0.98514696583E+02 -0.11616011208E+04  0.14992405498E+04  0.94189060618E+03 0.  0.
         23    2    4    4    0    0  0.43302123010E+03 -0.24529830375E+03 -0.51093680820E+03  0.71935124171E+03  0.93440587792E+02 0.  0.
         23    2    4    4    0    0 -0.39375288462E+03  0.14678360717E+03 -0.65066431255E+03  0.77988930808E+03  0.90975401877E+02 0.  0.
          3    1    3    3  502    0 -0.49856529099E+01  0.79816369545E+02  0.10518933027E+04  0.10549289217E+04  0.00000000000E+00 0. -1.
         -3    1    3    3    0  502 -0.34282692572E+02  0.18698327038E+02  0.14438346702E+03  0.14957110681E+03  0.00000000000E+00 0.  1.
         13    1    5    5    0    0  0.95048196348E+00  0.41200885435E+01  0.11881386303E+01  0.43920631797E+01  0.00000000000E+00 0. -1.
        -13    1    5    5    0    0  0.43207074814E+03 -0.24941839229E+03 -0.51212494683E+03  0.71495917853E+03  0.00000000000E+00 0.  1.
          4    1    6    6  503    0 -0.99091852018E+02  0.58802159740E+02 -0.24590721221E+03  0.27156444197E+03  0.00000000000E+00 0. -1.
         -4    1    6    6    0  503 -0.29466103260E+03  0.87981447425E+02 -0.40475710034E+03  0.50832486611E+03  0.00000000000E+00 0.  1.
<mgrwt>
<rscale>  0 0.27035182E+04</rscale>
<asrwt>0</asrwt>
<pdfrwt beam="1">  1        1 0.21064740E+00 0.27035182E+04</pdfrwt>
<pdfrwt beam="2">  1       -1 0.20531269E+00 0.27035182E+04</pdfrwt>
<totfact> 0.97554512E-01</totfact>
</mgrwt>
</event>
<event>
12    3  0.4806716E-008  0.1729284E+04  0.7818608E-02  0.8744836E-01
         -3   -1    0    0    0  501 -0.00000000000E+00  0.00000000000E+00  0.73265874509E+03  0.73265874509E+03  0.00000000000E+00 0.  1.
          3   -1    0    0  501    0  0.00000000000E+00 -0.00000000000E+00 -0.10204014399E+04  0.10204014399E+04  0.00000000000E+00 0. -1.
         23    2    1    2    0    0 -0.34024947245E+03  0.49058530913E+03  0.11179587632E+03  0.61370817075E+03  0.87725434419E+02 0.  0.
        254    2    1    2    0    0  0.34024947245E+03 -0.49058530913E+03 -0.39953857116E+03  0.11393520143E+04  0.88433494421E+03 0.  0.
         23    2    4    4    0    0 -0.16813033759E+03 -0.27477803347E+03  0.13793233409E+03  0.36340500869E+03  0.96265743940E+02 0.  0.
         23    2    4    4    0    0  0.50837981004E+03 -0.21580727566E+03 -0.53747090525E+03  0.77594700559E+03  0.90531596767E+02 0.  0.
          1    1    3    3  502    0 -0.32145377300E+03  0.47051479089E+03  0.12471501349E+03  0.58332712196E+03  0.00000000000E+00 0. -1.
         -1    1    3    3    0  502 -0.18795699448E+02  0.20070518241E+02 -0.12919137174E+02  0.30381048789E+02  0.00000000000E+00 0.  1.
         13    1    5    5    0    0 -0.10006640786E+03 -0.23195711362E+03  0.12535837981E+03  0.28201438249E+03  0.00000000000E+00 0. -1.
        -13    1    5    5    0    0 -0.68063929729E+02 -0.42820919849E+02  0.12573954277E+02  0.81390626199E+02  0.00000000000E+00 0.  1.
          2    1    6    6  503    0  0.48176928028E+03 -0.20391609542E+03 -0.47333716021E+03  0.70550087217E+03  0.00000000000E+00 0. -1.
         -2    1    6    6    0  503  0.26610529759E+02 -0.11891180237E+02 -0.64133745038E+02  0.70446133422E+02  0.00000000000E+00 0.  1.
<mgrwt>
<rscale>  0 0.17292843E+04</rscale>
<asrwt>0</asrwt>
<pdfrwt beam="1">  1        3 0.15698484E+00 0.17292843E+04</pdfrwt>
<pdfrwt beam="2">  1       -3 0.11271673E+00 0.17292843E+04</pdfrwt>
<totfact> 0.46944936E-01</totfact>
</mgrwt>
</event>
<event>
12    3  0.4806716E-008  0.2609036E+04  0.7818608E-02  0.8365138E-01
          1   -1    0    0  501    0  0.00000000000E+00  0.00000000000E+00  0.21050764863E+04  0.21050764863E+04  0.00000000000E+00 0. -1.
         -1   -1    0    0    0  501 -0.00000000000E+00 -0.00000000000E+00 -0.80841126870E+03  0.80841126870E+03  0.00000000000E+00 0.  1.
         23    2    1    2    0    0 -0.16613113516E+03 -0.35609208795E+03  0.17773117341E+04  0.18225271941E+04  0.91472640779E+02 0.  0.
        254    2    1    2    0    0  0.16613113516E+03  0.35609208795E+03 -0.48064651648E+03  0.10909605609E+04  0.89709126761E+03 0.  0.
         23    2    4    4    0    0  0.36868433872E+03  0.34893135641E+02  0.97532300346E+02  0.39318472370E+03  0.89084256804E+02 0.  0.
         23    2    4    4    0    0 -0.20255320356E+03  0.32119895231E+03 -0.57817881682E+03  0.69777583718E+03  0.91672283048E+02 0.  0.
          4    1    3    3  502    0 -0.16703797391E+03 -0.32344806995E+03  0.15116237850E+04  0.15548398007E+04  0.00000000000E+00 0. -1.
         -4    1    3    3    0  502  0.90683875039E+00 -0.32644018008E+02  0.26568794913E+03  0.26768739339E+03  0.00000000000E+00 0.  1.
         13    1    5    5    0    0  0.24051810932E+03  0.10286201248E+02  0.10461353029E+03  0.26248572831E+03  0.00000000000E+00 0.  1.
        -13    1    5    5    0    0  0.12816622940E+03  0.24606934392E+02 -0.70812299464E+01  0.13069899539E+03  0.00000000000E+00 0. -1.
          3    1    6    6  503    0 -0.26865630717E+02  0.38819683299E+02 -0.27992288240E+02  0.54884406949E+02  0.00000000000E+00 0. -1.
         -3    1    6    6    0  503 -0.17568757285E+03  0.28237926902E+03 -0.55018652858E+03  0.64289143023E+03  0.00000000000E+00 0.  1.
<mgrwt>
<rscale>  0 0.26090363E+04</rscale>
<asrwt>0</asrwt>
<pdfrwt beam="1">  1        1 0.32385792E+00 0.26090363E+04</pdfrwt>
<pdfrwt beam="2">  1       -1 0.12437097E+00 0.26090363E+04</pdfrwt>
<totfact> 0.12606460E+00</totfact>
</mgrwt>
</event>
<event>
12    3  0.4806716E-008  0.2621916E+04  0.7818608E-02  0.8360795E-01
          2   -1    0    0  501    0  0.00000000000E+00  0.00000000000E+00  0.19295029576E+04  0.19295029576E+04  0.00000000000E+00 0. -1.
         -2   -1    0    0    0  501 -0.00000000000E+00 -0.00000000000E+00 -0.89070142541E+03  0.89070142541E+03  0.00000000000E+00 0.  1.
         23    2    1    2    0    0  0.50426086503E+03  0.64297191377E+02 -0.65776464514E+03  0.83695459505E+03  0.97085101583E+02 0.  0.
        254    2    1    2    0    0 -0.50426086503E+03 -0.64297191377E+02  0.16965661773E+04  0.19832497879E+04  0.89248516992E+03 0.  0.
         23    2    4    4    0    0  0.13369650530E+03  0.18695428705E+03  0.14911706865E+03  0.28823697816E+03  0.89543254589E+02 0.  0.
         23    2    4    4    0    0 -0.63795737033E+03 -0.25125147843E+03  0.15474491087E+04  0.16950128098E+04  0.91393487930E+02 0.  0.
          1    1    3    3  502    0  0.56720546843E+02 -0.23608430922E+02 -0.78823760859E+02  0.99938799876E+02  0.00000000000E+00 0. -1.
         -1    1    3    3    0  502  0.44754031819E+03  0.87905622299E+02 -0.57894088428E+03  0.73701579517E+03  0.00000000000E+00 0.  1.
         13    1    5    5    0    0 -0.37069918558E+00  0.36293242040E+02 -0.18106777454E+01  0.36340272282E+02  0.00000000000E+00 0.  1.
        -13    1    5    5    0    0  0.13406720448E+03  0.15066104501E+03  0.15092774639E+03  0.25189670588E+03  0.00000000000E+00 0. -1.
          2    1    6    6  503    0 -0.62541331734E+03 -0.25796229647E+03  0.15264151198E+04  0.16696195620E+04  0.00000000000E+00 0. -1.
         -2    1    6    6    0  503 -0.12544052986E+02  0.67108180492E+01  0.21033988834E+02  0.25393247734E+02  0.00000000000E+00 0.  1.
<mgrwt>
<rscale>  0 0.26219161E+04</rscale>
<asrwt>0</asrwt>
<pdfrwt beam="1">  1        2 0.29684661E+00 0.26219161E+04</pdfrwt>
<pdfrwt beam="2">  1       -2 0.13703099E+00 0.26219161E+04</pdfrwt>
<totfact> 0.24516444E+00</totfact>
</mgrwt>
</event>
<event>
12    3  0.4806716E-008  0.2681393E+04  0.7818608E-02  0.8341068E-01
          2   -1    0    0  501    0  0.00000000000E+00  0.00000000000E+00  0.80413284349E+03  0.80413284349E+03  0.00000000000E+00 0. -1.
         -2   -1    0    0    0  501 -0.00000000000E+00 -0.00000000000E+00 -0.22352862636E+04  0.22352862636E+04  0.00000000000E+00 0.  1.
         23    2    1    2    0    0 -0.10526557289E+04  0.44503246895E+03 -0.34222675367E+03  0.11991605672E+04  0.12136281532E+03 0.  0.
        254    2    1    2    0    0  0.10526557289E+04 -0.44503246895E+03 -0.10889266664E+04  0.18402585399E+04  0.94586057479E+03 0.  0.
         23    2    4    4    0    0  0.75917920518E+03  0.84582563451E+02 -0.26569003859E+03  0.81390838423E+03  0.91369500971E+02 0.  0.
         23    2    4    4    0    0  0.29347652370E+03 -0.52961503240E+03 -0.82323662783E+03  0.10263501557E+04  0.95160622991E+02 0.  0.
          4    1    3    3  502    0 -0.91230971662E+03  0.42169601690E+03 -0.32248153379E+03  0.10555239881E+04  0.00000000000E+00 0. -1.
         -4    1    3    3    0  502 -0.14034601225E+03  0.23336452047E+02 -0.19745219881E+02  0.14363657910E+03  0.00000000000E+00 0.  1.
         13    1    5    5    0    0  0.39396115809E+03  0.38381928754E+02 -0.18554679336E+03  0.43715692727E+03  0.00000000000E+00 0.  1.
        -13    1    5    5    0    0  0.36521804709E+03  0.46200634698E+02 -0.80143245231E+02  0.37675145696E+03  0.00000000000E+00 0. -1.
          1    1    6    6  503    0  0.89762702381E+02 -0.83935604054E+02 -0.16406674655E+03  0.20498884284E+03  0.00000000000E+00 0. -1.
         -1    1    6    6    0  503  0.20371382131E+03 -0.44567942835E+03 -0.65916988128E+03  0.82136131284E+03  0.00000000000E+00 0.  1.
<mgrwt>
<rscale>  0 0.26813930E+04</rscale>
<asrwt>0</asrwt>
<pdfrwt beam="1">  1        2 0.12371275E+00 0.26813930E+04</pdfrwt>
<pdfrwt beam="2">  1       -2 0.34389019E+00 0.26813930E+04</pdfrwt>
<totfact> 0.51100616E-01</totfact>
</mgrwt>
</event>
<event>
12    3  0.4806716E-008  0.1607441E+04  0.7818608E-02  0.8815990E-01
          2   -1    0    0  501    0  0.00000000000E+00  0.00000000000E+00  0.18163177592E+04  0.18163177592E+04  0.00000000000E+00 0. -1.
         -2   -1    0    0    0  501 -0.00000000000E+00 -0.00000000000E+00 -0.35564622097E+03  0.35564622097E+03  0.00000000000E+00 0.  1.
         23    2    1    2    0    0 -0.12278321644E+03  0.79471125457E+02 -0.20314625592E+03  0.26507035511E+03  0.87192395562E+02 0.  0.
        254    2    1    2    0    0  0.12278321644E+03 -0.79471125457E+02  0.16638177941E+04  0.19068936250E+04  0.92008818444E+03 0.  0.
         23    2    4    4    0    0 -0.31075208194E+02 -0.12587686871E+03 -0.62777361912E+02  0.17036875980E+03  0.90960774542E+02 0.  0.
         23    2    4    4    0    0  0.15385842463E+03  0.46405743258E+02  0.17265951560E+04  0.17365248652E+04  0.92530356692E+02 0.  0.
          1    1    3    3  502    0 -0.22461608730E+02  0.63320673385E+02 -0.98268616387E+02  0.11904096989E+03  0.00000000000E+00 0. -1.
         -1    1    3    3    0  502 -0.10032160771E+03  0.16150452072E+02 -0.10487763953E+03  0.14602938522E+03  0.00000000000E+00 0.  1.
         13    1    5    5    0    0 -0.17961560872E+02 -0.74257656368E+01 -0.46103854542E+02  0.50033239630E+02  0.00000000000E+00 0. -1.
        -13    1    5    5    0    0 -0.13113647322E+02 -0.11845110308E+03 -0.16673507370E+02  0.12033552017E+03  0.00000000000E+00 0.  1.
          1    1    6    6  503    0  0.16489117930E+03  0.38523270681E+02  0.15006808374E+04  0.15102039992E+04  0.00000000000E+00 0. -1.
         -1    1    6    6    0  503 -0.11032754673E+02  0.78824725778E+01  0.22591431858E+03  0.22632086600E+03  0.00000000000E+00 0.  1.
<mgrwt>
<rscale>  0 0.16074409E+04</rscale>
<asrwt>0</asrwt>
<pdfrwt beam="1">  1        2 0.27943350E+00 0.16074409E+04</pdfrwt>
<pdfrwt beam="2">  1       -2 0.54714804E-01 0.16074409E+04</pdfrwt>
<totfact> 0.25452255E+01</totfact>
</mgrwt>
</event>
<event>
12    3  0.4806716E-008  0.1686422E+04  0.7818608E-02  0.8769146E-01
          1   -1    0    0  501    0  0.00000000000E+00  0.00000000000E+00  0.10002224722E+04  0.10002224722E+04  0.00000000000E+00 0. -1.
         -1   -1    0    0    0  501 -0.00000000000E+00 -0.00000000000E+00 -0.71084706294E+03  0.71084706294E+03  0.00000000000E+00 0.  1.
         23    2    1    2    0    0 -0.45192116650E+03 -0.32790339058E+03  0.25326910020E+03  0.61972971918E+03  0.90367656992E+02 0.  0.
        254    2    1    2    0    0  0.45192116650E+03  0.32790339058E+03  0.36106309098E+02  0.10913398160E+04  0.93699816122E+03 0.  0.
         23    2    4    4    0    0  0.61988353771E+02 -0.29925288328E+03  0.12538809783E+03  0.34125725984E+03  0.85670871123E+02 0.  0.
         23    2    4    4    0    0  0.38993281273E+03  0.62715627386E+03 -0.89281788737E+02  0.75008255616E+03  0.96332823924E+02 0.  0.
          4    1    3    3  502    0 -0.28335011837E+03 -0.21103178328E+03  0.20692138530E+03  0.40943639656E+03  0.00000000000E+00 0. -1.
         -4    1    3    3    0  502 -0.16857104813E+03 -0.11687160730E+03  0.46347714901E+02  0.21029332261E+03  0.00000000000E+00 0.  1.
         13    1    5    5    0    0  0.26736963975E+01 -0.77077720084E+01  0.26513299112E+02  0.27740105111E+02  0.00000000000E+00 0. -1.
        -13    1    5    5    0    0  0.59314657373E+02 -0.29154511127E+03  0.98874798722E+02  0.31351715473E+03  0.00000000000E+00 0.  1.
          4    1    6    6  503    0  0.30336427392E+03  0.42306880556E+03 -0.90442969552E+02  0.52839097993E+03  0.00000000000E+00 0. -1.
         -4    1    6    6    0  503  0.86568538805E+02  0.20408746831E+03  0.11611808155E+01  0.22169157623E+03  0.00000000000E+00 0.  1.
<mgrwt>
<rscale>  0 0.16864225E+04</rscale>
<asrwt>0</asrwt>
<pdfrwt beam="1">  1        1 0.15388038E+00 0.16864225E+04</pdfrwt>
<pdfrwt beam="2">  1       -1 0.10936109E+00 0.16864225E+04</pdfrwt>
<totfact> 0.11151962E+01</totfact>
</mgrwt>
</event>
<event>
12    3  0.4806716E-008  0.1184460E+04  0.7818608E-02  0.9126569E-01
         -1   -1    0    0    0  501 -0.00000000000E+00  0.00000000000E+00  0.11583031668E+03  0.11583031668E+03  0.00000000000E+00 0.  1.
          1   -1    0    0  501    0  0.00000000000E+00 -0.00000000000E+00 -0.30280178404E+04  0.30280178404E+04  0.00000000000E+00 0. -1.
         23    2    1    2    0    0  0.50760571000E+02  0.18734294492E+03 -0.26036546145E+03  0.33787888420E+03  0.93262813032E+02 0.  0.
        254    2    1    2    0    0 -0.50760571000E+02 -0.18734294492E+03 -0.26518220623E+04  0.28059692729E+04  0.89645373319E+03 0.  0.
         23    2    4    4    0    0 -0.39566930494E+03 -0.24068286145E+03 -0.20562033991E+04  0.21096979531E+04  0.91490961542E+02 0.  0.
         23    2    4    4    0    0  0.34490873394E+03  0.53339916523E+02 -0.59561866318E+03  0.69627131981E+03  0.90691661239E+02 0.  0.
          4    1    3    3  502    0  0.52220703573E+01  0.10743516484E+03 -0.20227906805E+03  0.22909911836E+03  0.00000000000E+00 0. -1.
         -4    1    3    3    0  502  0.45538500642E+02  0.79907780084E+02 -0.58086393399E+02  0.10877976584E+03  0.00000000000E+00 0.  1.
         13    1    5    5    0    0 -0.33191960734E+03 -0.23086403081E+03 -0.16771591574E+04  0.17252048185E+04  0.00000000000E+00 0.  1.
        -13    1    5    5    0    0 -0.63749697601E+02 -0.98188306324E+01 -0.37904424165E+03  0.38449313454E+03  0.00000000000E+00 0. -1.
          1    1    6    6  503    0  0.23783942136E+02 -0.12730321501E+02 -0.87498713321E+02  0.91562884521E+02  0.00000000000E+00 0. -1.
         -1    1    6    6    0  503  0.32112479180E+03  0.66070238024E+02 -0.50811994985E+03  0.60470843528E+03  0.00000000000E+00 0.  1.
<mgrwt>
<rscale>  0 0.11844598E+04</rscale>
<asrwt>0</asrwt>
<pdfrwt beam="1">  1        1 0.46584888E+00 0.11844598E+04</pdfrwt>
<pdfrwt beam="2">  1       -1 0.17820049E-01 0.11844598E+04</pdfrwt>
<totfact> 0.14206520E+01</totfact>
</mgrwt>
</event>
<event>
12    3  0.4806716E-008  0.1636397E+04  0.7818608E-02  0.8798495E-01
         -1   -1    0    0    0  501 -0.00000000000E+00  0.00000000000E+00  0.32756371492E+04  0.32756371492E+04  0.00000000000E+00 0.  1.
          1   -1    0    0  501    0  0.00000000000E+00 -0.00000000000E+00 -0.20437214819E+03  0.20437214819E+03  0.00000000000E+00 0. -1.
         23    2    1    2    0    0  0.40503468117E+03  0.36941553114E+03  0.83817301097E+03  0.10056915863E+04  0.91436551163E+02 0.  0.
        254    2    1    2    0    0 -0.40503468117E+03 -0.36941553114E+03  0.22330919901E+04  0.24743177111E+04  0.91379832115E+03 0.  0.
         23    2    4    4    0    0 -0.48716856525E+03 -0.11805893881E+03  0.21066745452E+04  0.21673790977E+04  0.90462089734E+02 0.  0.
         23    2    4    4    0    0  0.82133884077E+02 -0.25135659233E+03  0.12641744482E+03  0.30693861337E+03  0.91125356521E+02 0.  0.
          4    1    3    3  502    0  0.27770113308E+03  0.28629847835E+03  0.66299212527E+03  0.77372042508E+03  0.00000000000E+00 0. -1.
         -4    1    3    3    0  502  0.12733354809E+03  0.83117052789E+02  0.17518088571E+03  0.23197116125E+03  0.00000000000E+00 0.  1.
         13    1    5    5    0    0 -0.14871444685E+03 -0.64508057315E+02  0.54744787258E+03  0.57094347300E+03  0.00000000000E+00 0.  1.
        -13    1    5    5    0    0 -0.33845411840E+03 -0.53550881500E+02  0.15592266727E+04  0.15964356247E+04  0.00000000000E+00 0. -1.
          4    1    6    6  503    0  0.92173744415E+01 -0.95109879731E+02  0.43025097058E+01  0.95652291159E+02  0.00000000000E+00 0. -1.
         -4    1    6    6    0  503  0.72916509635E+02 -0.15624671260E+03  0.12211493512E+03  0.21128632221E+03  0.00000000000E+00 0.  1.
<mgrwt>
<rscale>  0 0.16363973E+04</rscale>
<asrwt>0</asrwt>
<pdfrwt beam="1">  1        1 0.31441871E-01 0.16363973E+04</pdfrwt>
<pdfrwt beam="2">  1       -1 0.50394414E+00 0.16363973E+04</pdfrwt>
<totfact> 0.19400320E-01</totfact>
</mgrwt>
</event>
<event>
12    3  0.4806716E-008  0.1485243E+04  0.7818608E-02  0.8894326E-01
         -1   -1    0    0    0  501 -0.00000000000E+00  0.00000000000E+00  0.49802518195E+03  0.49802518195E+03  0.00000000000E+00 0.  1.
          1   -1    0    0  501    0  0.00000000000E+00 -0.00000000000E+00 -0.11073466441E+04  0.11073466441E+04  0.00000000000E+00 0. -1.
         23    2    1    2    0    0  0.26431273546E+03  0.12775676771E+03 -0.58150493956E+03  0.65791809830E+03  0.92332093619E+02 0.  0.
        254    2    1    2    0    0 -0.26431273546E+03 -0.12775676771E+03 -0.27816522632E+02  0.94745372779E+03  0.90039535403E+03 0.  0.
         23    2    4    4    0    0 -0.40223681276E+01 -0.35820496953E+03 -0.31458322426E+03  0.48776487068E+03  0.10307756518E+03 0.  0.
         23    2    4    4    0    0 -0.26029036733E+03  0.23044820182E+03  0.28676670162E+03  0.45968885712E+03  0.90671137349E+02 0.  0.
          3    1    3    3  502    0 -0.63526529758E+01 -0.19845817442E+01 -0.22021953984E+02  0.23005678034E+02  0.00000000000E+00 0. -1.
         -3    1    3    3    0  502  0.27066538844E+03  0.12974134945E+03 -0.55948298558E+03  0.63491242026E+03  0.00000000000E+00 0.  1.
         13    1    5    5    0    0 -0.29210119929E+02 -0.28251346113E+03 -0.19691394002E+03  0.34560408939E+03  0.00000000000E+00 0.  1.
        -13    1    5    5    0    0  0.25187751802E+02 -0.75691508396E+02 -0.11766928424E+03  0.14216078129E+03  0.00000000000E+00 0. -1.
          3    1    6    6  503    0 -0.95527709960E+01 -0.31913659384E+01  0.29445343063E+02  0.31120226193E+02  0.00000000000E+00 0. -1.
         -3    1    6    6    0  503 -0.25073759634E+03  0.23363956776E+03  0.25732135856E+03  0.42856863092E+03  0.00000000000E+00 0.  1.
<mgrwt>
<rscale>  0 0.14852428E+04</rscale>
<asrwt>0</asrwt>
<pdfrwt beam="1">  1        1 0.17036102E+00 0.14852428E+04</pdfrwt>
<pdfrwt beam="2">  1       -1 0.76619260E-01 0.14852428E+04</pdfrwt>
<totfact> 0.20727908E+01</totfact>
</mgrwt>
</event>
<event>
12    3  0.4806716E-008  0.1839980E+04  0.7818608E-02  0.8685323E-01
         -2   -1    0    0    0  501 -0.00000000000E+00  0.00000000000E+00  0.97692934570E+03  0.97692934570E+03  0.00000000000E+00 0.  1.
          2   -1    0    0  501    0  0.00000000000E+00 -0.00000000000E+00 -0.86636898709E+03  0.86636898709E+03  0.00000000000E+00 0. -1.
         23    2    1    2    0    0 -0.28331085240E+03  0.63833348730E+03  0.19752648069E+02  0.70446564520E+03  0.90260722739E+02 0.  0.
        254    2    1    2    0    0  0.28331085240E+03 -0.63833348730E+03  0.90807710541E+02  0.11388326876E+04  0.89496322266E+03 0.  0.
         23    2    4    4    0    0  0.55730442095E+03 -0.27919400248E+03  0.20696099535E+03  0.66252653820E+03  0.87011789999E+02 0.  0.
         23    2    4    4    0    0 -0.27399356855E+03 -0.35913948483E+03 -0.11615328481E+03  0.47630614938E+03  0.96552147559E+02 0.  0.
          1    1    3    3  502    0 -0.43287721413E+02  0.14309703602E+03 -0.27854457967E+02  0.15207386156E+03  0.00000000000E+00 0.  1.
         -1    1    3    3    0  502 -0.24002313098E+03  0.49523645128E+03  0.47607106035E+02  0.55239178364E+03  0.00000000000E+00 0. -1.
         13    1    5    5    0    0  0.66588791945E+01 -0.25331126994E+01  0.15776996723E+02  0.17311006836E+02  0.00000000000E+00 0. -1.
        -13    1    5    5    0    0  0.55064554175E+03 -0.27666088978E+03  0.19118399863E+03  0.64521553137E+03  0.00000000000E+00 0.  1.
          3    1    6    6  503    0 -0.46894078699E+02 -0.13470385451E+03 -0.36807261622E+02  0.14730566026E+03  0.00000000000E+00 0. -1.
         -3    1    6    6    0  503 -0.22709948985E+03 -0.22443563032E+03 -0.79346023186E+02  0.32900048912E+03  0.00000000000E+00 0.  1.
<mgrwt>
<rscale>  0 0.18399797E+04</rscale>
<asrwt>0</asrwt>
<pdfrwt beam="1">  1        2 0.13328754E+00 0.18399797E+04</pdfrwt>
<pdfrwt beam="2">  1       -2 0.15029682E+00 0.18399797E+04</pdfrwt>
<totfact> 0.86694278E+00</totfact>
</mgrwt>
</event>
<event>
12    3  0.4806716E-008  0.2569593E+04  0.7818608E-02  0.8378604E-01
         -1   -1    0    0    0  501 -0.00000000000E+00  0.00000000000E+00  0.69331520016E+03  0.69331520016E+03  0.00000000000E+00 0.  1.
          1   -1    0    0  501    0  0.00000000000E+00 -0.00000000000E+00 -0.23808821565E+04  0.23808821565E+04  0.00000000000E+00 0. -1.
         23    2    1    2    0    0  0.31331680792E+03  0.31904042799E+03 -0.19701818969E+04  0.20223578896E+04  0.91435823023E+02 0.  0.
        254    2    1    2    0    0 -0.31331680792E+03 -0.31904042799E+03  0.28261494061E+03  0.10518394671E+04  0.90914291670E+03 0.  0.
         23    2    4    4    0    0 -0.34385813584E+03  0.10045984669E+03  0.45673541067E+03  0.58716899743E+03  0.88485014578E+02 0.  0.
         23    2    4    4    0    0  0.30541327915E+02 -0.41950027468E+03 -0.17412047006E+03  0.46467046963E+03  0.93206513090E+02 0.  0.
          2    1    3    3  502    0  0.26457581440E+03  0.25189384682E+03 -0.17329296573E+04  0.17710155473E+04  0.00000000000E+00 0. -1.
         -2    1    3    3    0  502  0.48740993526E+02  0.67146581168E+02 -0.23725223963E+03  0.25134234228E+03  0.00000000000E+00 0.  1.
         13    1    5    5    0    0 -0.12458785026E+03  0.49578558962E+02  0.23871947449E+03  0.27380130285E+03  0.00000000000E+00 0.  1.
        -13    1    5    5    0    0 -0.21927028558E+03  0.50881287732E+02  0.21801593617E+03  0.31336769458E+03  0.00000000000E+00 0. -1.
          1    1    6    6  503    0 -0.95100410606E+01 -0.17381948876E+01  0.13982628363E+01  0.97681800455E+01  0.00000000000E+00 0. -1.
         -1    1    6    6    0  503  0.40051368976E+02 -0.41776207980E+03 -0.17551873290E+03  0.45490228958E+03  0.00000000000E+00 0.  1.
<mgrwt>
<rscale>  0 0.25695928E+04</rscale>
<asrwt>0</asrwt>
<pdfrwt beam="1">  1        1 0.36628956E+00 0.25695928E+04</pdfrwt>
<pdfrwt beam="2">  1       -1 0.10666388E+00 0.25695928E+04</pdfrwt>
<totfact> 0.11863135E+00</totfact>
</mgrwt>
</event>
<event>
12    3  0.4806716E-008  0.1885424E+04  0.7818608E-02  0.8662146E-01
          2   -1    0    0  501    0  0.00000000000E+00  0.00000000000E+00  0.69160137544E+03  0.69160137544E+03  0.00000000000E+00 0. -1.
         -2   -1    0    0    0  501 -0.00000000000E+00 -0.00000000000E+00 -0.12849975078E+04  0.12849975078E+04  0.00000000000E+00 0.  1.
         23    2    1    2    0    0 -0.61698966335E+03 -0.31706646008E+03 -0.45376602998E+03  0.83396955972E+03  0.91620040323E+02 0.  0.
        254    2    1    2    0    0  0.61698966335E+03  0.31706646008E+03 -0.13963010240E+03  0.11426293235E+04  0.89716097816E+03 0.  0.
         23    2    4    4    0    0  0.75638424998E+03  0.47353620468E+03 -0.64830592748E+02  0.89940779335E+03  0.91529788748E+02 0.  0.
         23    2    4    4    0    0 -0.13939458663E+03 -0.15646974460E+03 -0.74799509654E+02  0.24322153019E+03  0.98224815338E+02 0.  0.
          3    1    3    3  502    0 -0.53016526881E+02 -0.55879166846E+02 -0.35488199192E+02  0.84809466994E+02  0.00000000000E+00 0. -1.
         -3    1    3    3    0  502 -0.56397313647E+03 -0.26118729323E+03 -0.41827783079E+03  0.74916009272E+03  0.00000000000E+00 0.  1.
         13    1    5    5    0    0  0.75059730705E+03  0.47425214754E+03 -0.71264781060E+02  0.89072447245E+03  0.00000000000E+00 0. -1.
        -13    1    5    5    0    0  0.57869429213E+01 -0.71594286437E+00  0.64341883119E+01  0.86833208965E+01  0.00000000000E+00 0.  1.
          2    1    6    6  503    0 -0.10057123321E+03 -0.15640359219E+03 -0.38127747449E+02  0.18981670560E+03  0.00000000000E+00 0. -1.
         -2    1    6    6    0  503 -0.38823353423E+02 -0.66152413734E-01 -0.36671762204E+02  0.53404824597E+02  0.00000000000E+00 0.  1.
<mgrwt>
<rscale>  0 0.18854241E+04</rscale>
<asrwt>0</asrwt>
<pdfrwt beam="1">  1        2 0.10640021E+00 0.18854241E+04</pdfrwt>
<pdfrwt beam="2">  1       -2 0.19769192E+00 0.18854241E+04</pdfrwt>
<totfact> 0.53695036E+00</totfact>
</mgrwt>
</event>
<event>
12    3  0.4806716E-008  0.1705107E+04  0.7818608E-02  0.8758457E-01
         -1   -1    0    0    0  501 -0.00000000000E+00  0.00000000000E+00  0.27065269871E+03  0.27065269871E+03  0.00000000000E+00 0.  1.
          1   -1    0    0  501    0  0.00000000000E+00 -0.00000000000E+00 -0.26855368846E+04  0.26855368846E+04  0.00000000000E+00 0. -1.
         23    2    1    2    0    0 -0.21055377627E+03 -0.55539131883E+03 -0.66828258172E+03  0.89845205872E+03  0.88442540967E+02 0.  0.
        254    2    1    2    0    0  0.21055377627E+03  0.55539131883E+03 -0.17466016041E+04  0.20577375246E+04  0.91152298198E+03 0.  0.
         23    2    4    4    0    0  0.30412397430E+03  0.55369616082E+03 -0.18050244195E+04  0.19145251201E+04  0.90677728494E+02 0.  0.
         23    2    4    4    0    0 -0.93570198026E+02  0.16951580014E+01  0.58422815326E+02  0.14321240444E+03  0.91314357668E+02 0.  0.
          1    1    3    3  502    0 -0.89434054678E+02 -0.18161739345E+03 -0.28480255817E+03  0.34942212993E+03  0.00000000000E+00 0. -1.
         -1    1    3    3    0  502 -0.12111972160E+03 -0.37377392537E+03 -0.38348002355E+03  0.54902992879E+03  0.00000000000E+00 0.  1.
         13    1    5    5    0    0  0.67671656501E+02  0.72638785656E+02 -0.22131263347E+03  0.24255953498E+03  0.00000000000E+00 0. -1.
        -13    1    5    5    0    0  0.23645231780E+03  0.48105737517E+03 -0.15837117860E+04  0.16719655851E+04  0.00000000000E+00 0.  1.
          1    1    6    6  503    0 -0.47384337168E+02 -0.70436858711E+01 -0.19894541104E+02  0.51871781203E+02  0.00000000000E+00 0. -1.
         -1    1    6    6    0  503 -0.46185860858E+02  0.87388438725E+01  0.78317356430E+02  0.91340623239E+02  0.00000000000E+00 0.  1.
<mgrwt>
<rscale>  0 0.17051074E+04</rscale>
<asrwt>0</asrwt>
<pdfrwt beam="1">  1        1 0.41315951E+00 0.17051074E+04</pdfrwt>
<pdfrwt beam="2">  1       -1 0.41638878E-01 0.17051074E+04</pdfrwt>
<totfact> 0.54188707E+00</totfact>
</mgrwt>
</event>
<event>
12    3  0.4806716E-008  0.2208615E+04  0.7818608E-02  0.8514851E-01
          1   -1    0    0  501    0  0.00000000000E+00  0.00000000000E+00  0.56941345252E+03  0.56941345252E+03  0.00000000000E+00 0. -1.
         -1   -1    0    0    0  501 -0.00000000000E+00 -0.00000000000E+00 -0.21416686435E+04  0.21416686435E+04  0.00000000000E+00 0.  1.
         23    2    1    2    0    0 -0.51141274784E+03  0.50339455417E+03 -0.13583085579E+04  0.15389964147E+04  0.92513512855E+02 0.  0.
        254    2    1    2    0    0  0.51141274784E+03 -0.50339455417E+03 -0.21394663304E+03  0.11720856813E+04  0.90169984294E+03 0.  0.
         23    2    4    4    0    0  0.34347599481E+03  0.11314202317E+03  0.18140539300E+03  0.41479245221E+03  0.91476693128E+02 0.  0.
         23    2    4    4    0    0  0.16793675303E+03 -0.61653657734E+03 -0.39535202604E+03  0.75729322911E+03  0.94179117365E+02 0.  0.
          2    1    3    3  502    0 -0.43368125715E+03  0.40527447531E+03 -0.10485411604E+04  0.12048922766E+04  0.00000000000E+00 0. -1.
         -2    1    3    3    0  502 -0.77731490692E+02  0.98120078852E+02 -0.30976739753E+03  0.33410413809E+03  0.00000000000E+00 0.  1.
         13    1    5    5    0    0  0.18463383930E+02  0.86138716999E+01 -0.10736771748E+02  0.23029841497E+02  0.00000000000E+00 0. -1.
        -13    1    5    5    0    0  0.32501261088E+03  0.10452815147E+03  0.19214216475E+03  0.39176261072E+03  0.00000000000E+00 0.  1.
          2    1    6    6  503    0  0.13003288757E+03 -0.40542856770E+03 -0.21456024598E+03  0.47677769926E+03  0.00000000000E+00 0. -1.
         -2    1    6    6    0  503  0.37903865466E+02 -0.21110800964E+03 -0.18079178006E+03  0.28051552985E+03  0.00000000000E+00 0.  1.
<mgrwt>
<rscale>  0 0.22086149E+04</rscale>
<asrwt>0</asrwt>
<pdfrwt beam="1">  1        1 0.87602072E-01 0.22086149E+04</pdfrwt>
<pdfrwt beam="2">  1       -1 0.32948748E+00 0.22086149E+04</pdfrwt>
<totfact> 0.71415471E-01</totfact>
</mgrwt>
</event>
<event>
12    3  0.4806716E-008  0.1741210E+04  0.7818608E-02  0.8738204E-01
         -1   -1    0    0    0  501 -0.00000000000E+00  0.00000000000E+00  0.37616194460E+03  0.37616194460E+03  0.00000000000E+00 0.  1.
          1   -1    0    0  501    0  0.00000000000E+00 -0.00000000000E+00 -0.20149640708E+04  0.20149640708E+04  0.00000000000E+00 0. -1.
         23    2    1    2    0    0 -0.35076969981E+03 -0.47374181759E+03 -0.28001609164E+03  0.65880023858E+03  0.90211145321E+02 0.  0.
        254    2    1    2    0    0  0.35076969981E+03  0.47374181759E+03 -0.13587860346E+04  0.17323257768E+04  0.89843331265E+03 0.  0.
         23    2    4    4    0    0 -0.28892033835E+03  0.66624021160E+02 -0.36632588439E+03  0.48000073934E+03  0.91062253853E+02 0.  0.
         23    2    4    4    0    0  0.63969003817E+03  0.40711779643E+03 -0.99246015020E+03  0.12523250375E+04  0.91611160575E+02 0.  0.
          1    1    3    3  502    0 -0.33897428985E+03 -0.46824375941E+03 -0.28544752286E+03  0.64469843781E+03  0.00000000000E+00 0. -1.
         -1    1    3    3    0  502 -0.11795409965E+02 -0.54980581759E+01  0.54314312202E+01  0.14101800773E+02  0.00000000000E+00 0.  1.
         13    1    5    5    0    0 -0.10071782880E+02  0.26523994357E+02 -0.30412169349E+02  0.41591623334E+02  0.00000000000E+00 0.  1.
        -13    1    5    5    0    0 -0.27884855547E+03  0.40100026803E+02 -0.33591371504E+03  0.43840911600E+03  0.00000000000E+00 0. -1.
          4    1    6    6  503    0  0.44754714616E+03  0.31108203953E+03 -0.76681379187E+03  0.94078364928E+03  0.00000000000E+00 0. -1.
         -4    1    6    6    0  503  0.19214289201E+03  0.96035756899E+02 -0.22564635833E+03  0.31154138823E+03  0.00000000000E+00 0.  1.
<mgrwt>
<rscale>  0 0.17412097E+04</rscale>
<asrwt>0</asrwt>
<pdfrwt beam="1">  1        1 0.30999446E+00 0.17412097E+04</pdfrwt>
<pdfrwt beam="2">  1       -1 0.57871070E-01 0.17412097E+04</pdfrwt>
<totfact> 0.83522573E+00</totfact>
</mgrwt>
</event>
<event>
12    3  0.4806716E-008  0.2232355E+04  0.7818608E-02  0.8505081E-01
          2   -1    0    0  501    0  0.00000000000E+00  0.00000000000E+00  0.10597933746E+04  0.10597933746E+04  0.00000000000E+00 0. -1.
         -2   -1    0    0    0  501 -0.00000000000E+00 -0.00000000000E+00 -0.11755612191E+04  0.11755612191E+04  0.00000000000E+00 0.  1.
         23    2    1    2    0    0 -0.42845990540E+03  0.90103798306E+02 -0.88048722161E+03  0.98773186246E+03  0.93058582038E+02 0.  0.
        254    2    1    2    0    0  0.42845990540E+03 -0.90103798306E+02  0.76471937712E+03  0.12476227313E+04  0.88321581101E+03 0.  0.
         23    2    4    4    0    0 -0.17145843164E+03  0.20033132521E+03  0.38392009679E+03  0.47465761757E+03  0.91512728919E+02 0.  0.
         23    2    4    4    0    0  0.59991833703E+03 -0.29043512351E+03  0.38079928033E+03  0.77296511370E+03  0.90622309671E+02 0.  0.
          3    1    3    3  502    0 -0.80107779038E+02 -0.18226056431E+02 -0.14202672245E+03  0.16407630934E+03  0.00000000000E+00 0. -1.
         -3    1    3    3    0  502 -0.34835212636E+03  0.10832985474E+03 -0.73846049916E+03  0.82365555312E+03  0.00000000000E+00 0.  1.
         13    1    5    5    0    0 -0.62254518184E+02  0.10534907457E+03  0.24590459532E+03  0.27466911465E+03  0.00000000000E+00 0. -1.
        -13    1    5    5    0    0 -0.10920391345E+03  0.94982250641E+02  0.13801550148E+03  0.19998850292E+03  0.00000000000E+00 0.  1.
          4    1    6    6  503    0  0.82294762365E+02 -0.32083583968E+02  0.18126459588E+02  0.90168469047E+02  0.00000000000E+00 0. -1.
         -4    1    6    6    0  503  0.51762357467E+03 -0.25835153955E+03  0.36267282074E+03  0.68279664465E+03  0.00000000000E+00 0.  1.
<mgrwt>
<rscale>  0 0.22323548E+04</rscale>
<asrwt>0</asrwt>
<pdfrwt beam="1">  1        2 0.16304513E+00 0.22323548E+04</pdfrwt>
<pdfrwt beam="2">  1       -2 0.18085557E+00 0.22323548E+04</pdfrwt>
<totfact> 0.37629345E+00</totfact>
</mgrwt>
</event>
<event>
12    3  0.4806716E-008  0.2229605E+04  0.7818608E-02  0.8506206E-01
          2   -1    0    0  501    0  0.00000000000E+00  0.00000000000E+00  0.27269907512E+04  0.27269907512E+04  0.00000000000E+00 0.  1.
         -2   -1    0    0    0  501 -0.00000000000E+00 -0.00000000000E+00 -0.45573476220E+03  0.45573476220E+03  0.00000000000E+00 0. -1.
         23    2    1    2    0    0 -0.73326452494E+03 -0.13324178014E+03  0.17327649002E+04  0.18882562461E+04  0.87219355272E+02 0.  0.
        254    2    1    2    0    0  0.73326452494E+03  0.13324178014E+03  0.53849108877E+03  0.12944692673E+04  0.91117934338E+03 0.  0.
         23    2    4    4    0    0  0.54123632935E+03  0.50534088265E+03  0.39094959850E+03  0.84226341107E+03  0.90883954426E+02 0.  0.
         23    2    4    4    0    0  0.19202819559E+03 -0.37209910251E+03  0.14754149027E+03  0.45220585624E+03  0.85959729391E+02 0.  0.
          1    1    3    3  502    0 -0.72799472397E+03 -0.12478375854E+03  0.16901728069E+04  0.18445138713E+04  0.00000000000E+00 0. -1.
         -1    1    3    3    0  502 -0.52698009715E+01 -0.84580215955E+01  0.42592093322E+02  0.43742374708E+02  0.00000000000E+00 0.  1.
         13    1    5    5    0    0  0.35098081751E+03  0.29300871272E+03  0.19946115535E+03  0.49882501189E+03  0.00000000000E+00 0. -1.
        -13    1    5    5    0    0  0.19025551183E+03  0.21233216993E+03  0.19148844315E+03  0.34343839917E+03  0.00000000000E+00 0.  1.
          4    1    6    6  503    0  0.10412244410E+03 -0.17372374955E+03  0.11468298846E+03  0.23275225534E+03  0.00000000000E+00 0. -1.
         -4    1    6    6    0  503  0.87905751496E+02 -0.19837535296E+03  0.32858501806E+02  0.21945360090E+03  0.00000000000E+00 0.  1.
<mgrwt>
<rscale>  0 0.22296049E+04</rscale>
<asrwt>0</asrwt>
<pdfrwt beam="1">  1        2 0.41953703E+00 0.22296049E+04</pdfrwt>
<pdfrwt beam="2">  1       -2 0.70113042E-01 0.22296049E+04</pdfrwt>
<totfact> 0.43235072E+00</totfact>
</mgrwt>
</event>
<event>
12    3  0.4806716E-008  0.1370268E+04  0.7818608E-02  0.8975626E-01
         -3   -1    0    0    0  501 -0.00000000000E+00  0.00000000000E+00  0.45338501273E+03  0.45338501273E+03  0.00000000000E+00 0.  1.
          3   -1    0    0  501    0  0.00000000000E+00 -0.00000000000E+00 -0.10353416906E+04  0.10353416906E+04  0.00000000000E+00 0. -1.
         23    2    1    2    0    0 -0.24338220698E+03  0.56075219478E+02 -0.50535683183E+03  0.57046510028E+03  0.87553265202E+02 0.  0.
        254    2    1    2    0    0  0.24338220698E+03 -0.56075219478E+02 -0.76599845993E+02  0.91826160300E+03  0.88031670791E+03 0.  0.
         23    2    4    4    0    0  0.23436091257E+03 -0.41742691949E+03 -0.19746070202E+03  0.52638217867E+03  0.94430920329E+02 0.  0.
         23    2    4    4    0    0  0.90212944097E+01  0.36135170002E+03  0.12086085603E+03  0.39187942434E+03  0.91135623336E+02 0.  0.
          3    1    3    3  502    0 -0.25009721064E+03  0.57158934818E+02 -0.49932309332E+03  0.56137270162E+03  0.00000000000E+00 0. -1.
         -3    1    3    3    0  502  0.67150036570E+01 -0.10837153405E+01 -0.60337385081E+01  0.90923986624E+01  0.00000000000E+00 0.  1.
         13    1    5    5    0    0  0.10569875313E+02 -0.89713146024E+02 -0.48329578303E+02  0.10244959235E+03  0.00000000000E+00 0. -1.
        -13    1    5    5    0    0  0.22379103726E+03 -0.32771377347E+03 -0.14913112372E+03  0.42393258632E+03  0.00000000000E+00 0.  1.
          4    1    6    6  503    0 -0.13036621365E+02  0.33283617997E+03  0.91624469115E+02  0.34546334036E+03  0.00000000000E+00 0.  1.
         -4    1    6    6    0  503  0.22057915775E+02  0.28515520050E+02  0.29236386914E+02  0.46416083977E+02  0.00000000000E+00 0. -1.
<mgrwt>
<rscale>  0 0.13702677E+04</rscale>
<asrwt>0</asrwt>
<pdfrwt beam="1">  1        3 0.15928333E+00 0.13702677E+04</pdfrwt>
<pdfrwt beam="2">  1       -3 0.69751541E-01 0.13702677E+04</pdfrwt>
<totfact> 0.13896690E+00</totfact>
</mgrwt>
</event>
<event>
12    3  0.4806716E-008  0.2558275E+04  0.7818608E-02  0.8382514E-01
         -2   -1    0    0    0  501 -0.00000000000E+00  0.00000000000E+00  0.11817654734E+04  0.11817654734E+04  0.00000000000E+00 0. -1.
          2   -1    0    0  501    0  0.00000000000E+00 -0.00000000000E+00 -0.13845329293E+04  0.13845329293E+04  0.00000000000E+00 0.  1.
         23    2    1    2    0    0  0.43607269717E+03  0.46003036366E+03 -0.10051199611E+04  0.11922906100E+04  0.97485536425E+02 0.  0.
        254    2    1    2    0    0 -0.43607269717E+03 -0.46003036366E+03  0.80235250512E+03  0.13740077927E+04  0.91779111962E+03 0.  0.
         23    2    4    4    0    0  0.13907425697E+01 -0.19553698040E+03 -0.16859441319E+03  0.27264498200E+03  0.87604595662E+02 0.  0.
         23    2    4    4    0    0 -0.43746343974E+03 -0.26449338325E+03  0.97094691831E+03  0.11013628107E+04  0.94504559465E+02 0.  0.
          3    1    3    3  502    0  0.13285440960E+02 -0.36771699317E+01 -0.20247523437E+02  0.24494626462E+02  0.00000000000E+00 0. -1.
         -3    1    3    3    0  502  0.42278725621E+03  0.46370753359E+03 -0.98487243765E+03  0.11677959835E+04  0.00000000000E+00 0.  1.
         13    1    5    5    0    0 -0.29409615042E+02 -0.17370336560E+03 -0.13281272282E+03  0.22062865639E+03  0.00000000000E+00 0. -1.
        -13    1    5    5    0    0  0.30800357612E+02 -0.21833614807E+02 -0.35781690365E+02  0.52016325610E+02  0.00000000000E+00 0.  1.
          2    1    6    6  503    0 -0.56674412173E+02 -0.65893476109E+01  0.14811389676E+03  0.15872345419E+03  0.00000000000E+00 0. -1.
         -2    1    6    6    0  503 -0.38078902757E+03 -0.25790403564E+03  0.82283302155E+03  0.94263935652E+03  0.00000000000E+00 0.  1.
<mgrwt>
<rscale>  0 0.25582754E+04</rscale>
<asrwt>0</asrwt>
<pdfrwt beam="1">  1        2 0.21300507E+00 0.25582754E+04</pdfrwt>
<pdfrwt beam="2">  1       -2 0.18181007E+00 0.25582754E+04</pdfrwt>
<totfact> 0.23099951E+00</totfact>
</mgrwt>
</event>
<event>
12    3  0.4806716E-008  0.1452549E+04  0.7818608E-02  0.8916635E-01
          2   -1    0    0  501    0  0.00000000000E+00  0.00000000000E+00  0.42493688692E+03  0.42493688692E+03  0.00000000000E+00 0. -1.
         -2   -1    0    0    0  501 -0.00000000000E+00 -0.00000000000E+00 -0.12413012838E+04  0.12413012838E+04  0.00000000000E+00 0.  1.
         23    2    1    2    0    0 -0.22898611273E+03 -0.35159905068E+03 -0.37179007280E+03  0.56785129330E+03  0.90391928925E+02 0.  0.
        254    2    1    2    0    0  0.22898611273E+03  0.35159905068E+03 -0.44457432410E+03  0.10983868774E+04  0.91255184544E+03 0.  0.
         23    2    4    4    0    0  0.16939113276E+03  0.29799402732E+03 -0.71711464198E+03  0.79982035970E+03  0.89249100075E+02 0.  0.
         23    2    4    4    0    0  0.59594979973E+02  0.53605023356E+02  0.27254031788E+03  0.29856651774E+03  0.91862290835E+02 0.  0.
          3    1    3    3  502    0 -0.11865674731E+03 -0.22590663354E+03 -0.27263904226E+03  0.37342372464E+03  0.00000000000E+00 0.  1.
         -3    1    3    3    0  502 -0.11032936541E+03 -0.12569241713E+03 -0.99151030533E+02  0.19442756866E+03  0.00000000000E+00 0. -1.
         13    1    5    5    0    0  0.15274829307E+00 -0.25786488772E+01 -0.38336213475E+02  0.38423144401E+02  0.00000000000E+00 0. -1.
        -13    1    5    5    0    0  0.16923838446E+03  0.30057267620E+03 -0.67877842851E+03  0.76139721530E+03  0.00000000000E+00 0.  1.
          2    1    6    6  503    0 -0.11909812601E+02 -0.38801254124E+01  0.17397128503E+01  0.12646169784E+02  0.00000000000E+00 0. -1.
         -2    1    6    6    0  503  0.71504792574E+02  0.57485148769E+02  0.27080060503E+03  0.28592034796E+03  0.00000000000E+00 0.  1.
<mgrwt>
<rscale>  0 0.14525491E+04</rscale>
<asrwt>0</asrwt>
<pdfrwt beam="1">  1        2 0.65374906E-01 0.14525491E+04</pdfrwt>
<pdfrwt beam="2">  1       -2 0.19096943E+00 0.14525491E+04</pdfrwt>
<totfact> 0.10980831E+01</totfact>
</mgrwt>
</event>
<event>
12    3  0.4806716E-008  0.1816269E+04  0.7818608E-02  0.8697696E-01
         -1   -1    0    0    0  501 -0.00000000000E+00  0.00000000000E+00  0.71685098318E+03  0.71685098318E+03  0.00000000000E+00 0.  1.
          1   -1    0    0  501    0  0.00000000000E+00 -0.00000000000E+00 -0.11504592215E+04  0.11504592215E+04  0.00000000000E+00 0. -1.
         23    2    1    2    0    0 -0.91617071572E+02 -0.61018746063E+03  0.12930744839E+03  0.63710291541E+03  0.91963491130E+02 0.  0.
        254    2    1    2    0    0  0.91617071572E+02  0.61018746063E+03 -0.56291568669E+03  0.12302072892E+04  0.90322393640E+03 0.  0.
         23    2    4    4    0    0  0.74002809906E+02 -0.10187553089E+03 -0.48258894242E+03  0.50722979070E+03  0.92384704118E+02 0.  0.
         23    2    4    4    0    0  0.17614261666E+02  0.71206299152E+03 -0.80326744263E+02  0.72297749855E+03  0.94340402028E+02 0.  0.
          1    1    3    3  502    0 -0.13598728106E+02 -0.21414212648E+02  0.21976427794E+02  0.33562736599E+02  0.00000000000E+00 0. -1.
         -1    1    3    3    0  502 -0.78018343466E+02 -0.58877324798E+03  0.10733102059E+03  0.60354017881E+03  0.00000000000E+00 0.  1.
         13    1    5    5    0    0 -0.12594040168E+02 -0.52809516416E+02 -0.21440866642E+03  0.22117534019E+03  0.00000000000E+00 0.  1.
        -13    1    5    5    0    0  0.86596850074E+02 -0.49066014478E+02 -0.26818027600E+03  0.28605445051E+03  0.00000000000E+00 0. -1.
          3    1    6    6  503    0  0.59696664165E+01  0.49287558567E+02 -0.30414771043E+02  0.58223351365E+02  0.00000000000E+00 0. -1.
         -3    1    6    6    0  503  0.11644595249E+02  0.66277543295E+03 -0.49911973220E+02  0.66475414718E+03  0.00000000000E+00 0.  1.
<mgrwt>
<rscale>  0 0.18162685E+04</rscale>
<asrwt>0</asrwt>
<pdfrwt beam="1">  1        1 0.17699373E+00 0.18162685E+04</pdfrwt>
<pdfrwt beam="2">  1       -1 0.11028477E+00 0.18162685E+04</pdfrwt>
<totfact> 0.83088024E+00</totfact>
</mgrwt>
</event>
<event>
12    3  0.4806716E-008  0.2578275E+04  0.7818608E-02  0.8375618E-01
         -2   -1    0    0    0  501 -0.00000000000E+00  0.00000000000E+00  0.10011629886E+04  0.10011629886E+04  0.00000000000E+00 0. -1.
          2   -1    0    0  501    0  0.00000000000E+00 -0.00000000000E+00 -0.16599443649E+04  0.16599443649E+04  0.00000000000E+00 0.  1.
         23    2    1    2    0    0  0.19736222561E+03  0.57959596190E+03  0.69250602300E+03  0.92877665653E+03  0.90433172352E+02 0.  0.
        254    2    1    2    0    0 -0.19736222561E+03 -0.57959596190E+03 -0.13512873993E+04  0.17323306970E+04  0.89448794356E+03 0.  0.
         23    2    4    4    0    0  0.11774468225E+03 -0.30981160698E+03 -0.30449468290E+02  0.34483951064E+03  0.90222369530E+02 0.  0.
         23    2    4    4    0    0 -0.31510690786E+03 -0.26978435492E+03 -0.13208379310E+04  0.13874911864E+04  0.91885748269E+02 0.  0.
          2    1    3    3  502    0  0.19675517643E+03  0.49307951480E+03  0.57164156670E+03  0.78013722393E+03  0.00000000000E+00 0. -1.
         -2    1    3    3    0  502  0.60704917870E+00  0.86516447101E+02  0.12086445630E+03  0.14863943260E+03  0.00000000000E+00 0.  1.
         13    1    5    5    0    0  0.11523753340E+03 -0.29741519108E+03 -0.79855267778E+01  0.31905995303E+03  0.00000000000E+00 0. -1.
        -13    1    5    5    0    0  0.25071488422E+01 -0.12396415906E+02 -0.22463941512E+02  0.25779557616E+02  0.00000000000E+00 0.  1.
          1    1    6    6  503    0 -0.11700999591E+03 -0.48430295549E+02 -0.34880933742E+03  0.37108595573E+03  0.00000000000E+00 0. -1.
         -1    1    6    6    0  503 -0.19809691195E+03 -0.22135405937E+03 -0.97202859357E+03  0.10164052306E+04  0.00000000000E+00 0.  1.
<mgrwt>
<rscale>  0 0.25782745E+04</rscale>
<asrwt>0</asrwt>
<pdfrwt beam="1">  1        2 0.25537605E+00 0.25782745E+04</pdfrwt>
<pdfrwt beam="2">  1       -2 0.15402508E+00 0.25782745E+04</pdfrwt>
<totfact> 0.25547734E+00</totfact>
</mgrwt>
</event>
<event>
12    3  0.4806716E-008  0.1816220E+04  0.7818608E-02  0.8697721E-01
         -2   -1    0    0    0  501 -0.00000000000E+00  0.00000000000E+00  0.40557340338E+03  0.40557340338E+03  0.00000000000E+00 0.  1.
          2   -1    0    0  501    0  0.00000000000E+00 -0.00000000000E+00 -0.20333273648E+04  0.20333273648E+04  0.00000000000E+00 0. -1.
         23    2    1    2    0    0  0.41299484913E+01  0.19151131054E+03  0.25424728023E+03  0.33131248354E+03  0.91829427233E+02 0.  0.
        254    2    1    2    0    0 -0.41299484913E+01 -0.19151131054E+03 -0.18820012417E+04  0.21075882847E+04  0.92914265077E+03 0.  0.
         23    2    4    4    0    0  0.12276286105E+03 -0.25939801697E+03 -0.99610455945E+02  0.31703763104E+03  0.90733485003E+02 0.  0.
         23    2    4    4    0    0 -0.12689280954E+03  0.67886706428E+02 -0.17823907857E+04  0.17905506536E+04  0.91893090859E+02 0.  0.
          3    1    3    3  502    0 -0.41976159191E+02  0.62081946106E+02  0.94427601543E+02  0.12055180590E+03  0.00000000000E+00 0. -1.
         -3    1    3    3    0  502  0.46106107683E+02  0.12942936443E+03  0.15981967869E+03  0.21076067764E+03  0.00000000000E+00 0.  1.
         13    1    5    5    0    0  0.12745380923E+03 -0.17556845208E+03 -0.68769190454E+02  0.22759164398E+03  0.00000000000E+00 0. -1.
        -13    1    5    5    0    0 -0.46909481811E+01 -0.83829564883E+02 -0.30841265491E+02  0.89445987056E+02  0.00000000000E+00 0.  1.
          3    1    6    6  503    0 -0.80055999355E+02 -0.89369578083E+01 -0.88733428219E+03  0.89098314271E+03  0.00000000000E+00 0. -1.
         -3    1    6    6    0  503 -0.46836810185E+02  0.76823664236E+02 -0.89505650353E+03  0.89956751091E+03  0.00000000000E+00 0.  1.
<mgrwt>
<rscale>  0 0.18162197E+04</rscale>
<asrwt>0</asrwt>
<pdfrwt beam="1">  1        2 0.31281960E+00 0.18162197E+04</pdfrwt>
<pdfrwt beam="2">  1       -2 0.62395908E-01 0.18162197E+04</pdfrwt>
<totfact> 0.14384139E+01</totfact>
</mgrwt>
</event>
<event>
12    3  0.4806716E-008  0.1326141E+04  0.7818608E-02  0.9009088E-01
         -2   -1    0    0    0  501 -0.00000000000E+00  0.00000000000E+00  0.19274975529E+03  0.19274975529E+03  0.00000000000E+00 0. -1.
          2   -1    0    0  501    0  0.00000000000E+00 -0.00000000000E+00 -0.22810003866E+04  0.22810003866E+04  0.00000000000E+00 0.  1.
         23    2    1    2    0    0  0.27241709427E+03  0.20034802621E+02 -0.99438793728E+03  0.10351549782E+04  0.90144287373E+02 0.  0.
        254    2    1    2    0    0 -0.27241709427E+03 -0.20034802621E+02 -0.10938626940E+04  0.14385951636E+04  0.89353678433E+03 0.  0.
         23    2    4    4    0    0  0.14042003671E+03  0.21571533287E+03 -0.85638541796E+03  0.89926253264E+03  0.95006457601E+02 0.  0.
         23    2    4    4    0    0 -0.41283713098E+03 -0.23575013549E+03 -0.23747727604E+03  0.53933263099E+03  0.92041333757E+02 0.  0.
          1    1    3    3  502    0  0.25297629344E+03 -0.37310792457E+01 -0.82204233322E+03  0.86009564794E+03  0.00000000000E+00 0. -1.
         -1    1    3    3    0  502  0.19440800826E+02  0.23765881866E+02 -0.17234560405E+03  0.17505933027E+03  0.00000000000E+00 0.  1.
         13    1    5    5    0    0  0.12406160779E+03  0.12330550300E+03 -0.46575133206E+03  0.49751365098E+03  0.00000000000E+00 0. -1.
        -13    1    5    5    0    0  0.16358428918E+02  0.92409829869E+02 -0.39063408590E+03  0.40174888167E+03  0.00000000000E+00 0.  1.
          4    1    6    6  503    0 -0.45951738388E+02 -0.27534121793E+01 -0.46188797422E+01  0.46265295737E+02  0.00000000000E+00 0.  1.
         -4    1    6    6    0  503 -0.36688539259E+03 -0.23299672331E+03 -0.23285839630E+03  0.49306733525E+03  0.00000000000E+00 0. -1.
<mgrwt>
<rscale>  0 0.13261407E+04</rscale>
<asrwt>0</asrwt>
<pdfrwt beam="1">  1        2 0.35092315E+00 0.13261407E+04</pdfrwt>
<pdfrwt beam="2">  1       -2 0.29653807E-01 0.13261407E+04</pdfrwt>
<totfact> 0.47770825E+01</totfact>
</mgrwt>
</event>
<event>
12    3  0.4806716E-008  0.1842343E+04  0.7818608E-02  0.8684100E-01
          2   -1    0    0  501    0  0.00000000000E+00  0.00000000000E+00  0.11211849618E+04  0.11211849618E+04  0.00000000000E+00 0. -1.
         -2   -1    0    0    0  501 -0.00000000000E+00 -0.00000000000E+00 -0.75683949336E+03  0.75683949336E+03  0.00000000000E+00 0.  1.
         23    2    1    2    0    0  0.31258889164E+03  0.58902833978E+03 -0.86212733964E+02  0.67850722864E+03  0.90957262415E+02 0.  0.
        254    2    1    2    0    0 -0.31258889164E+03 -0.58902833978E+03  0.45055820243E+03  0.11995172265E+04  0.88947888269E+03 0.  0.
         23    2    4    4    0    0 -0.59245187513E+03 -0.41450752878E+03  0.14828860901E+03  0.74364573469E+03  0.90574562642E+02 0.  0.
         23    2    4    4    0    0  0.27986298348E+03 -0.17452081100E+03  0.30226959342E+03  0.45587149185E+03  0.87584855887E+02 0.  0.
          2    1    3    3  502    0  0.25642500075E+03  0.53705908305E+03 -0.62553573538E+02  0.59841389461E+03  0.00000000000E+00 0. -1.
         -2    1    3    3    0  502  0.56163890895E+02  0.51969256725E+02 -0.23659160427E+02  0.80093334037E+02  0.00000000000E+00 0.  1.
         13    1    5    5    0    0 -0.51747851508E+03 -0.36532394236E+03  0.98404483844E+02  0.64103747073E+03  0.00000000000E+00 0. -1.
        -13    1    5    5    0    0 -0.74973360045E+02 -0.49183586418E+02  0.49884125164E+02  0.10260826396E+03  0.00000000000E+00 0.  1.
          3    1    6    6  503    0  0.20239172346E+03 -0.15201800330E+03  0.26672548250E+03  0.36771506097E+03  0.00000000000E+00 0. -1.
         -3    1    6    6    0  503  0.77471260024E+02 -0.22502807693E+02  0.35544110924E+02  0.88156430878E+02  0.00000000000E+00 0.  1.
<mgrwt>
<rscale>  0 0.18423431E+04</rscale>
<asrwt>0</asrwt>
<pdfrwt beam="1">  1        2 0.17248999E+00 0.18423431E+04</pdfrwt>
<pdfrwt beam="2">  1       -2 0.11643684E+00 0.18423431E+04</pdfrwt>
<totfact> 0.11379747E+01</totfact>
</mgrwt>
</event>
<event>
12    3  0.4806716E-008  0.1570702E+04  0.7818608E-02  0.8838752E-01
          1   -1    0    0  501    0  0.00000000000E+00  0.00000000000E+00  0.64094494469E+03  0.64094494469E+03  0.00000000000E+00 0. -1.
         -1   -1    0    0    0  501 -0.00000000000E+00 -0.00000000000E+00 -0.96229146984E+03  0.96229146984E+03  0.00000000000E+00 0.  1.
         23    2    1    2    0    0 -0.28720142864E+03 -0.15154524556E+03 -0.52563903432E+03  0.62458563456E+03  0.91434120726E+02 0.  0.
        254    2    1    2    0    0  0.28720142864E+03  0.15154524556E+03  0.20429250917E+03  0.97865077997E+03  0.90031733170E+03 0.  0.
         23    2    4    4    0    0  0.29405601088E+03  0.43392608261E+03 -0.11351363156E+03  0.54355769484E+03  0.88367643246E+02 0.  0.
         23    2    4    4    0    0 -0.68545822363E+01 -0.28238083705E+03  0.31780614073E+03  0.43509308513E+03  0.92300201581E+02 0.  0.
          1    1    3    3  502    0 -0.10992522072E+03 -0.42751367028E+02 -0.11741090750E+03  0.16642281915E+03  0.00000000000E+00 0. -1.
         -1    1    3    3    0  502 -0.17727620792E+03 -0.10879387853E+03 -0.40822812682E+03  0.45816281542E+03  0.00000000000E+00 0.  1.
         13    1    5    5    0    0  0.67742982944E+02  0.13019744092E+03 -0.69003597618E+02  0.16217885758E+03  0.00000000000E+00 0. -1.
        -13    1    5    5    0    0  0.22631302793E+03  0.30372864169E+03 -0.44510033937E+02  0.38137883727E+03  0.00000000000E+00 0.  1.
          4    1    6    6  503    0 -0.27372385409E+02 -0.26395626582E+03  0.26236412312E+03  0.37317166405E+03  0.00000000000E+00 0.  1.
         -4    1    6    6    0  503  0.20517803172E+02 -0.18424571225E+02  0.55442017601E+02  0.61921421072E+02  0.00000000000E+00 0. -1.
<mgrwt>
<rscale>  0 0.15707016E+04</rscale>
<asrwt>0</asrwt>
<pdfrwt beam="1">  1        1 0.98606915E-01 0.15707016E+04</pdfrwt>
<pdfrwt beam="2">  1       -1 0.14804484E+00 0.15707016E+04</pdfrwt>
<totfact> 0.10811421E+01</totfact>
</mgrwt>
</event>
<event>
12    3  0.4806716E-008  0.1711559E+04  0.7818608E-02  0.8754799E-01
         -2   -1    0    0    0  501 -0.00000000000E+00  0.00000000000E+00  0.42047392134E+03  0.42047392134E+03  0.00000000000E+00 0. -1.
          2   -1    0    0  501    0  0.00000000000E+00 -0.00000000000E+00 -0.17417461541E+04  0.17417461541E+04  0.00000000000E+00 0.  1.
         23    2    1    2    0    0 -0.32062618420E+03 -0.10764768575E+03 -0.11151620106E+04  0.11688000599E+04  0.90100476663E+02 0.  0.
        254    2    1    2    0    0  0.32062618420E+03  0.10764768575E+03 -0.20611022214E+03  0.99342001552E+03  0.91105034401E+03 0.  0.
         23    2    4    4    0    0  0.34437757057E+03  0.77899535725E+02 -0.53630279886E+03  0.64860223467E+03  0.91651066410E+02 0.  0.
         23    2    4    4    0    0 -0.23751386370E+02  0.29748150029E+02  0.33019257672E+03  0.34481778085E+03  0.91777358243E+02 0.  0.
          2    1    3    3  502    0 -0.27878146807E+03 -0.10324152687E+03 -0.10496751680E+04  0.10909609884E+04  0.00000000000E+00 0.  1.
         -2    1    3    3    0  502 -0.41844716133E+02 -0.44061588862E+01 -0.65486842592E+02  0.77839071533E+02  0.00000000000E+00 0. -1.
         13    1    5    5    0    0  0.33448454570E+03  0.90308885360E+02 -0.49368649011E+03  0.60312681635E+03  0.00000000000E+00 0. -1.
        -13    1    5    5    0    0  0.98930248696E+01 -0.12409349635E+02 -0.42616308754E+02  0.45475418318E+02  0.00000000000E+00 0.  1.
          3    1    6    6  503    0 -0.28444906707E+02  0.57243253585E+02  0.28183149189E+03  0.28898943340E+03  0.00000000000E+00 0. -1.
         -3    1    6    6    0  503  0.46935203363E+01 -0.27495103557E+02  0.48361084826E+02  0.55828347444E+02  0.00000000000E+00 0.  1.
<mgrwt>
<rscale>  0 0.17115593E+04</rscale>
<asrwt>0</asrwt>
<pdfrwt beam="1">  1        2 0.26796095E+00 0.17115593E+04</pdfrwt>
<pdfrwt beam="2">  1       -2 0.64688296E-01 0.17115593E+04</pdfrwt>
<totfact> 0.19492946E+01</totfact>
</mgrwt>
</event>
<event>
12    3  0.4806716E-008  0.1874625E+04  0.7818608E-02  0.8667591E-01
          1   -1    0    0  501    0  0.00000000000E+00  0.00000000000E+00  0.20699993370E+04  0.20699993370E+04  0.00000000000E+00 0. -1.
         -1   -1    0    0    0  501 -0.00000000000E+00 -0.00000000000E+00 -0.42442289129E+03  0.42442289129E+03  0.00000000000E+00 0.  1.
         23    2    1    2    0    0  0.60451269181E+03 -0.16449238043E+03  0.17717374719E+03  0.65918381749E+03  0.10314761643E+03 0.  0.
        254    2    1    2    0    0 -0.60451269181E+03  0.16449238043E+03  0.14684026986E+04  0.18352384108E+04  0.90520727002E+03 0.  0.
         23    2    4    4    0    0 -0.43999739050E+03 -0.31939089786E+03  0.96130110189E+03  0.11082173204E+04  0.91856254390E+02 0.  0.
         23    2    4    4    0    0 -0.16451530131E+03  0.48388327829E+03  0.50710159668E+03  0.72702109044E+03  0.10099170867E+03 0.  0.
          1    1    3    3  502    0  0.49876709498E+02 -0.72171088926E+01 -0.13136947544E+02  0.52080247713E+02  0.00000000000E+00 0. -1.
         -1    1    3    3    0  502  0.55463598231E+03 -0.15727527153E+03  0.19031069473E+03  0.60710356978E+03  0.00000000000E+00 0.  1.
         13    1    5    5    0    0 -0.37099184339E+03 -0.27804448502E+03  0.87500723666E+03  0.99024307507E+03  0.00000000000E+00 0. -1.
        -13    1    5    5    0    0 -0.69005547113E+02 -0.41346412841E+02  0.86293865230E+02  0.11797424534E+03  0.00000000000E+00 0.  1.
          4    1    6    6  503    0 -0.79126521612E+02  0.28545134069E+03  0.22645221857E+03  0.37285933222E+03  0.00000000000E+00 0. -1.
         -4    1    6    6    0  503 -0.85388779699E+02  0.19843193759E+03  0.28064937810E+03  0.35416175822E+03  0.00000000000E+00 0.  1.
<mgrwt>
<rscale>  0 0.18746254E+04</rscale>
<asrwt>0</asrwt>
<pdfrwt beam="1">  1        1 0.31846143E+00 0.18746254E+04</pdfrwt>
<pdfrwt beam="2">  1       -1 0.65295831E-01 0.18746254E+04</pdfrwt>
<totfact> 0.59554423E+00</totfact>
</mgrwt>
</event>
<event>
12    3  0.4806716E-008  0.2379059E+04  0.7818608E-02  0.8447386E-01
          2   -1    0    0  501    0  0.00000000000E+00  0.00000000000E+00  0.13032777943E+04  0.13032777943E+04  0.00000000000E+00 0. -1.
         -2   -1    0    0    0  501 -0.00000000000E+00 -0.00000000000E+00 -0.10857086719E+04  0.10857086719E+04  0.00000000000E+00 0.  1.
         23    2    1    2    0    0  0.88949607088E+03 -0.30377431537E+03 -0.29867252721E+03  0.99019982811E+03  0.88364734429E+02 0.  0.
        254    2    1    2    0    0 -0.88949607088E+03  0.30377431537E+03  0.51624164965E+03  0.13987866381E+04  0.89811832362E+03 0.  0.
         23    2    4    4    0    0 -0.60119956166E+03 -0.16672785179E+03  0.55272925622E+03  0.83835154709E+03  0.89914383315E+02 0.  0.
         23    2    4    4    0    0 -0.28829650922E+03  0.47050216716E+03 -0.36487606566E+02  0.56043509098E+03  0.90933927893E+02 0.  0.
          3    1    3    3  502    0  0.21143589874E+03 -0.33824717000E+02 -0.74829359955E+02  0.22682302323E+03  0.00000000000E+00 0. -1.
         -3    1    3    3    0  502  0.67806017214E+03 -0.26994959837E+03 -0.22384316726E+03  0.76337680488E+03  0.00000000000E+00 0.  1.
         13    1    5    5    0    0 -0.23155198681E+01  0.61269081858E+01  0.28511256427E+01  0.71434972953E+01  0.00000000000E+00 0. -1.
        -13    1    5    5    0    0 -0.59888404179E+03 -0.17285475997E+03  0.54987813057E+03  0.83120804979E+03  0.00000000000E+00 0.  1.
          1    1    6    6  503    0 -0.61109774771E+01  0.47899006566E+02 -0.19262842155E+02  0.51987652030E+02  0.00000000000E+00 0. -1.
         -1    1    6    6    0  503 -0.28218553174E+03  0.42260316059E+03 -0.17224764411E+02  0.50844743895E+03  0.00000000000E+00 0.  1.
<mgrwt>
<rscale>  0 0.23790586E+04</rscale>
<asrwt>0</asrwt>
<pdfrwt beam="1">  1        2 0.20050428E+00 0.23790586E+04</pdfrwt>
<pdfrwt beam="2">  1       -2 0.16703210E+00 0.23790586E+04</pdfrwt>
<totfact> 0.33185896E+00</totfact>
</mgrwt>
</event>
<event>
12    3  0.4806716E-008  0.1380616E+04  0.7818608E-02  0.8967970E-01
          1   -1    0    0  501    0  0.00000000000E+00  0.00000000000E+00  0.18755453258E+04  0.18755453258E+04  0.00000000000E+00 0. -1.
         -1   -1    0    0    0  501 -0.00000000000E+00 -0.00000000000E+00 -0.25407285217E+03  0.25407285217E+03  0.00000000000E+00 0.  1.
         23    2    1    2    0    0  0.25556618314E+03  0.28931417991E+03  0.43972180388E+03  0.59198044114E+03  0.89826550754E+02 0.  0.
        254    2    1    2    0    0 -0.25556618314E+03 -0.28931417991E+03  0.11817506698E+04  0.15376377369E+04  0.90486374424E+03 0.  0.
         23    2    4    4    0    0  0.41094411807E+02 -0.55913513239E+03  0.61104011272E+03  0.83427390869E+03  0.91225481215E+02 0.  0.
         23    2    4    4    0    0 -0.29666059495E+03  0.26982095248E+03  0.57071055705E+03  0.70336382816E+03  0.90549874900E+02 0.  0.
          1    1    3    3  502    0  0.16037887211E+03  0.13596495207E+03  0.18672728847E+03  0.28120265125E+03  0.00000000000E+00 0. -1.
         -1    1    3    3    0  502  0.95187311032E+02  0.15334922784E+03  0.25299451541E+03  0.31077778989E+03  0.00000000000E+00 0.  1.
         13    1    5    5    0    0  0.51313531924E+02 -0.23411542263E+03  0.21632228094E+03  0.32285978210E+03  0.00000000000E+00 0. -1.
        -13    1    5    5    0    0 -0.10219120117E+02 -0.32501970976E+03  0.39471783178E+03  0.51141412659E+03  0.00000000000E+00 0.  1.
          2    1    6    6  503    0 -0.17835388228E+03  0.16688389771E+03  0.26910626670E+03  0.36342609347E+03  0.00000000000E+00 0.  1.
         -2    1    6    6    0  503 -0.11830671266E+03  0.10293705477E+03  0.30160429036E+03  0.33993773469E+03  0.00000000000E+00 0. -1.
<mgrwt>
<rscale>  0 0.13806160E+04</rscale>
<asrwt>0</asrwt>
<pdfrwt beam="1">  1        1 0.28854543E+00 0.13806160E+04</pdfrwt>
<pdfrwt beam="2">  1       -1 0.39088132E-01 0.13806160E+04</pdfrwt>
<totfact> 0.22471453E+01</totfact>
</mgrwt>
</event>
<event>
12    3  0.4806716E-008  0.1831654E+04  0.7818608E-02  0.8689645E-01
         -2   -1    0    0    0  501 -0.00000000000E+00  0.00000000000E+00  0.16502919902E+04  0.16502919902E+04  0.00000000000E+00 0.  1.
          2   -1    0    0  501    0  0.00000000000E+00 -0.00000000000E+00 -0.50823661593E+03  0.50823661593E+03  0.00000000000E+00 0. -1.
         23    2    1    2    0    0 -0.29865974867E+03  0.60209749449E+03  0.60898117132E+03  0.91173198189E+03  0.93156327941E+02 0.  0.
        254    2    1    2    0    0  0.29865974867E+03 -0.60209749449E+03  0.53307420289E+03  0.12467966242E+04  0.90477327434E+03 0.  0.
         23    2    4    4    0    0 -0.65362327801E+01  0.18691508761E+03  0.30016193597E+03  0.36518272304E+03  0.91001434533E+02 0.  0.
         23    2    4    4    0    0  0.30519598145E+03 -0.78901258210E+03  0.23291226693E+03  0.88161390115E+03  0.85495642081E+02 0.  0.
          1    1    3    3  502    0 -0.20912492588E+03  0.37022117779E+03  0.33115070361E+03  0.53894131741E+03  0.00000000000E+00 0. -1.
         -1    1    3    3    0  502 -0.89534822792E+02  0.23187631670E+03  0.27783046771E+03  0.37279066449E+03  0.00000000000E+00 0.  1.
         13    1    5    5    0    0  0.12586700976E+02  0.15395019225E+03  0.28500129667E+03  0.32416789761E+03  0.00000000000E+00 0. -1.
        -13    1    5    5    0    0 -0.19122933757E+02  0.32964895354E+02  0.15160639300E+02  0.41014825431E+02  0.00000000000E+00 0.  1.
          2    1    6    6  503    0  0.19912068567E+03 -0.45579062454E+03  0.17426655098E+03  0.52703223020E+03  0.00000000000E+00 0. -1.
         -2    1    6    6    0  503  0.10607529578E+03 -0.33322195756E+03  0.58645715944E+02  0.35458167095E+03  0.00000000000E+00 0.  1.
<mgrwt>
<rscale>  0 0.18316537E+04</rscale>
<asrwt>0</asrwt>
<pdfrwt beam="1">  1        2 0.78190249E-01 0.18316537E+04</pdfrwt>
<pdfrwt beam="2">  1       -2 0.25389107E+00 0.18316537E+04</pdfrwt>
<totfact> 0.34601328E+00</totfact>
</mgrwt>
</event>
<event>
12    3  0.4806716E-008  0.2050595E+04  0.7818608E-02  0.8583325E-01
         -2   -1    0    0    0  501 -0.00000000000E+00  0.00000000000E+00  0.22591194445E+04  0.22591194445E+04  0.00000000000E+00 0.  1.
          2   -1    0    0  501    0  0.00000000000E+00 -0.00000000000E+00 -0.46532937281E+03  0.46532937281E+03  0.00000000000E+00 0. -1.
         23    2    1    2    0    0 -0.59033131643E+03  0.40004353353E+03  0.17177911664E+03  0.73907797412E+03  0.90566522717E+02 0.  0.
        254    2    1    2    0    0  0.59033131643E+03 -0.40004353353E+03  0.16220109550E+04  0.19853708432E+04  0.89568518733E+03 0.  0.
         23    2    4    4    0    0  0.37933764505E+03 -0.43995649923E+03  0.33412292051E+03  0.67655720176E+03  0.92912599088E+02 0.  0.
         23    2    4    4    0    0  0.21099367138E+03  0.39912965698E+02  0.12878880345E+04  0.13088136414E+04  0.90698314861E+02 0.  0.
          3    1    3    3  502    0 -0.42896074672E+03  0.31961256508E+03  0.95943166326E+02  0.54347456716E+03  0.00000000000E+00 0. -1.
         -3    1    3    3    0  502 -0.16137056970E+03  0.80430968448E+02  0.75835950315E+02  0.19560340695E+03  0.00000000000E+00 0.  1.
         13    1    5    5    0    0  0.20774716847E+03 -0.25318124948E+03  0.13558447960E+03  0.35446125628E+03  0.00000000000E+00 0.  1.
        -13    1    5    5    0    0  0.17159047658E+03 -0.18677524975E+03  0.19853844091E+03  0.32209594548E+03  0.00000000000E+00 0. -1.
          3    1    6    6  503    0  0.78256018436E+02  0.46622964048E+02  0.71111826514E+03  0.71692879159E+03  0.00000000000E+00 0. -1.
         -3    1    6    6    0  503  0.13273765294E+03 -0.67099983500E+01  0.57676976936E+03  0.59188484981E+03  0.00000000000E+00 0.  1.
<mgrwt>
<rscale>  0 0.20505947E+04</rscale>
<asrwt>0</asrwt>
<pdfrwt beam="1">  1        2 0.71589136E-01 0.20505947E+04</pdfrwt>
<pdfrwt beam="2">  1       -2 0.34755683E+00 0.20505947E+04</pdfrwt>
<totfact> 0.10002184E+00</totfact>
</mgrwt>
</event>
<event>
12    3  0.4806716E-008  0.1584274E+04  0.7818608E-02  0.8830268E-01
          2   -1    0    0  501    0  0.00000000000E+00  0.00000000000E+00  0.54027655273E+03  0.54027655273E+03  0.00000000000E+00 0. -1.
         -2   -1    0    0    0  501 -0.00000000000E+00 -0.00000000000E+00 -0.11614072462E+04  0.11614072462E+04  0.00000000000E+00 0.  1.
         23    2    1    2    0    0 -0.27157059734E+03  0.43204326162E+03 -0.43004995521E+02  0.52074022024E+03  0.94387383074E+02 0.  0.
        254    2    1    2    0    0  0.27157059734E+03 -0.43204326162E+03 -0.57812569797E+03  0.11809435787E+04  0.89441961304E+03 0.  0.
         23    2    4    4    0    0  0.24103455067E+03 -0.69264492718E+03 -0.49439658632E+03  0.88897272917E+03  0.89386122387E+02 0.  0.
         23    2    4    4    0    0  0.30536046674E+02  0.26060166556E+03 -0.83729111650E+02  0.29197084954E+03  0.96905802724E+02 0.  0.
          4    1    3    3  502    0 -0.74909961188E+02  0.14319510570E+03 -0.56068568811E+02  0.17105561958E+03  0.00000000000E+00 0.  1.
         -4    1    3    3    0  502 -0.19666063615E+03  0.28884815592E+03  0.13063573290E+02  0.34968460066E+03  0.00000000000E+00 0. -1.
         13    1    5    5    0    0  0.13122038571E+03 -0.24996334909E+03 -0.20332181929E+03  0.34790836108E+03  0.00000000000E+00 0. -1.
        -13    1    5    5    0    0  0.10981416496E+03 -0.44268157809E+03 -0.29107476703E+03  0.54106436808E+03  0.00000000000E+00 0.  1.
          4    1    6    6  503    0 -0.22006715467E+02  0.24520863414E+02  0.69506667754E+01  0.33673135239E+02  0.00000000000E+00 0. -1.
         -4    1    6    6    0  503  0.52542762142E+02  0.23608080215E+03 -0.90679778425E+02  0.25829771430E+03  0.00000000000E+00 0.  1.
<mgrwt>
<rscale>  0 0.15842741E+04</rscale>
<asrwt>0</asrwt>
<pdfrwt beam="1">  1        2 0.83119471E-01 0.15842741E+04</pdfrwt>
<pdfrwt beam="2">  1       -2 0.17867804E+00 0.15842741E+04</pdfrwt>
<totfact> 0.99870958E+00</totfact>
</mgrwt>
</event>
<event>
12    3  0.4806716E-008  0.1148586E+04  0.7818608E-02  0.9159089E-01
         -2   -1    0    0    0  501 -0.00000000000E+00  0.00000000000E+00  0.13626230258E+03  0.13626230258E+03  0.00000000000E+00 0.  1.
          2   -1    0    0  501    0  0.00000000000E+00 -0.00000000000E+00 -0.24204222163E+04  0.24204222163E+04  0.00000000000E+00 0. -1.
         23    2    1    2    0    0  0.28814116242E+01  0.17115599415E+03 -0.21132770975E+03  0.28965560686E+03  0.99690986606E+02 0.  0.
        254    2    1    2    0    0 -0.28814116242E+01 -0.17115599415E+03 -0.20728322040E+04  0.22670289120E+04  0.90193351486E+03 0.  0.
         23    2    4    4    0    0  0.84581028033E+02  0.34594575272E+03 -0.10741528882E+04  0.11353693013E+04  0.91796563679E+02 0.  0.
         23    2    4    4    0    0 -0.87462439657E+02 -0.51710174688E+03 -0.99867931582E+03  0.11316596107E+04  0.90825126903E+02 0.  0.
          2    1    3    3  502    0  0.11930933065E+01  0.16820163314E+03 -0.22195834345E+03  0.27849366077E+03  0.00000000000E+00 0. -1.
         -2    1    3    3    0  502  0.16883183176E+01  0.29543610085E+01  0.10630633697E+02  0.11161946090E+02  0.00000000000E+00 0.  1.
         13    1    5    5    0    0  0.55323719932E+01  0.19051653771E+03 -0.63047127416E+03  0.65865103494E+03  0.00000000000E+00 0.  1.
        -13    1    5    5    0    0  0.79048656040E+02  0.15542921501E+03 -0.44368161401E+03  0.47671826639E+03  0.00000000000E+00 0. -1.
          4    1    6    6  503    0 -0.78007802643E+02 -0.26912153291E+03 -0.59736617688E+03  0.65981661545E+03  0.00000000000E+00 0. -1.
         -4    1    6    6    0  503 -0.94546370142E+01 -0.24798021397E+03 -0.40131313895E+03  0.47184299526E+03  0.00000000000E+00 0.  1.
<mgrwt>
<rscale>  0 0.11485857E+04</rscale>
<asrwt>0</asrwt>
<pdfrwt beam="1">  1        2 0.37237263E+00 0.11485857E+04</pdfrwt>
<pdfrwt beam="2">  1       -2 0.20963432E-01 0.11485857E+04</pdfrwt>
<totfact> 0.75840171E+01</totfact>
</mgrwt>
</event>
<event>
12    3  0.4806716E-008  0.1681235E+04  0.7818608E-02  0.8772140E-01
          2   -1    0    0  501    0  0.00000000000E+00  0.00000000000E+00  0.24274234338E+04  0.24274234338E+04  0.00000000000E+00 0. -1.
         -2   -1    0    0    0  501 -0.00000000000E+00 -0.00000000000E+00 -0.29110608824E+03  0.29110608824E+03  0.00000000000E+00 0.  1.
         23    2    1    2    0    0 -0.43795030735E+02  0.27270835547E+02  0.17324334692E+04  0.17355322521E+04  0.89915348121E+02 0.  0.
        254    2    1    2    0    0  0.43795030735E+02 -0.27270835547E+02  0.40388387638E+03  0.98299726992E+03  0.89470651270E+03 0.  0.
         23    2    4    4    0    0  0.18511403495E+03  0.20685304856E+03  0.57677144863E+03  0.64651678910E+03  0.90902502658E+02 0.  0.
         23    2    4    4    0    0 -0.14131900421E+03 -0.23412388411E+03 -0.17288757225E+03  0.33648048082E+03  0.92433474846E+02 0.  0.
          4    1    3    3  502    0 -0.76119363369E+01  0.10968497048E+02  0.14747688830E+04  0.14748293148E+04  0.00000000000E+00 0. -1.
         -4    1    3    3    0  502 -0.36183094398E+02  0.16302338500E+02  0.25766458615E+03  0.26070293730E+03  0.00000000000E+00 0.  1.
         13    1    5    5    0    0  0.11960613705E+03  0.74101391169E+02  0.23236567696E+03  0.27164398028E+03  0.00000000000E+00 0. -1.
        -13    1    5    5    0    0  0.65507897897E+02  0.13275165739E+03  0.34440577167E+03  0.37487280881E+03  0.00000000000E+00 0.  1.
          4    1    6    6  503    0 -0.43260255487E+02 -0.86975069624E+02 -0.11473855436E+03  0.15033645033E+03  0.00000000000E+00 0.  1.
         -4    1    6    6    0  503 -0.98058748723E+02 -0.14714881448E+03 -0.58149017893E+02  0.18614403049E+03  0.00000000000E+00 0. -1.
<mgrwt>
<rscale>  0 0.16812350E+04</rscale>
<asrwt>0</asrwt>
<pdfrwt beam="1">  1        2 0.37344975E+00 0.16812350E+04</pdfrwt>
<pdfrwt beam="2">  1       -2 0.44785553E-01 0.16812350E+04</pdfrwt>
<totfact> 0.17298363E+01</totfact>
</mgrwt>
</event>
<event>
12    3  0.4806716E-008  0.1357292E+04  0.7818608E-02  0.8985327E-01
          1   -1    0    0  501    0  0.00000000000E+00  0.00000000000E+00  0.67952193784E+03  0.67952193784E+03  0.00000000000E+00 0. -1.
         -1   -1    0    0    0  501 -0.00000000000E+00 -0.00000000000E+00 -0.67777103085E+03  0.67777103085E+03  0.00000000000E+00 0.  1.
         23    2    1    2    0    0 -0.10509559431E+03  0.24739499639E+03 -0.28098576547E+03  0.39958875453E+03  0.92026105921E+02 0.  0.
        254    2    1    2    0    0  0.10509559431E+03 -0.24739499639E+03  0.28273667246E+03  0.95770421415E+03  0.87464733903E+03 0.  0.
         23    2    4    4    0    0 -0.46989293069E+02 -0.38981761515E+03 -0.17969989891E+03  0.44224689156E+03  0.95522210424E+02 0.  0.
         23    2    4    4    0    0  0.15208488738E+03  0.14242261876E+03  0.46243657137E+03  0.51545732259E+03  0.91840370072E+02 0.  0.
          4    1    3    3  502    0  0.68363571074E+00  0.10047521818E+03 -0.75187408543E+02  0.12549455458E+03  0.00000000000E+00 0. -1.
         -4    1    3    3    0  502 -0.10577923002E+03  0.14691977820E+03 -0.20579835693E+03  0.27409419995E+03  0.00000000000E+00 0.  1.
         13    1    5    5    0    0 -0.14398241380E+01 -0.12864014794E+03 -0.10702689217E+03  0.16734729278E+03  0.00000000000E+00 0. -1.
        -13    1    5    5    0    0 -0.45549468931E+02 -0.26117746721E+03 -0.72673006737E+02  0.27489959877E+03  0.00000000000E+00 0.  1.
          3    1    6    6  503    0  0.13701805331E+03  0.12893583078E+03  0.45745020895E+03  0.49463025490E+03  0.00000000000E+00 0. -1.
         -3    1    6    6    0  503  0.15066834068E+02  0.13486787977E+02  0.49863624215E+01  0.20827067700E+02  0.00000000000E+00 0.  1.
<mgrwt>
<rscale>  0 0.13572918E+04</rscale>
<asrwt>0</asrwt>
<pdfrwt beam="1">  1        1 0.10454184E+00 0.13572918E+04</pdfrwt>
<pdfrwt beam="2">  1       -1 0.10427247E+00 0.13572918E+04</pdfrwt>
<totfact> 0.24134120E+01</totfact>
</mgrwt>
</event>
<event>
12    3  0.4806716E-008  0.1451477E+04  0.7818608E-02  0.8917377E-01
         -1   -1    0    0    0  501 -0.00000000000E+00  0.00000000000E+00  0.73142958671E+03  0.73142958671E+03  0.00000000000E+00 0.  1.
          1   -1    0    0  501    0  0.00000000000E+00 -0.00000000000E+00 -0.72009137924E+03  0.72009137924E+03  0.00000000000E+00 0. -1.
         23    2    1    2    0    0  0.27476628985E+02 -0.25867358213E+03  0.42070514548E+03  0.50310302715E+03  0.91939378172E+02 0.  0.
        254    2    1    2    0    0 -0.27476628985E+02  0.25867358213E+03 -0.40936693802E+03  0.94841793880E+03  0.81501430016E+03 0.  0.
         23    2    4    4    0    0 -0.61879476174E+02  0.48855250131E+03 -0.42587388353E+02  0.50300212146E+03  0.93192448379E+02 0.  0.
         23    2    4    4    0    0  0.34402847190E+02 -0.22987891918E+03 -0.36677954967E+03  0.44541581734E+03  0.99197474287E+02 0.  0.
          1    1    3    3  502    0 -0.87075251491E+01 -0.21420958244E+03  0.36416868297E+03  0.42258773747E+03  0.00000000000E+00 0.  1.
         -1    1    3    3    0  502  0.36184154134E+02 -0.44463999691E+02  0.56536462514E+02  0.80515289682E+02  0.00000000000E+00 0. -1.
         13    1    5    5    0    0 -0.23520413755E+02  0.39963875681E+03 -0.59415891514E+02  0.40471544816E+03  0.00000000000E+00 0. -1.
        -13    1    5    5    0    0 -0.38359062419E+02  0.88913744499E+02  0.16828503161E+02  0.98286673304E+02  0.00000000000E+00 0.  1.
          1    1    6    6  503    0 -0.20874049989E+02 -0.14937435378E+03 -0.26104243425E+03  0.30148229800E+03  0.00000000000E+00 0. -1.
         -1    1    6    6    0  503  0.55276897179E+02 -0.80504565405E+02 -0.10573711542E+03  0.14393351934E+03  0.00000000000E+00 0.  1.
<mgrwt>
<rscale>  0 0.14514767E+04</rscale>
<asrwt>0</asrwt>
<pdfrwt beam="1">  1        1 0.11078329E+00 0.14514767E+04</pdfrwt>
<pdfrwt beam="2">  1       -1 0.11252763E+00 0.14514767E+04</pdfrwt>
<totfact> 0.18325950E+01</totfact>
</mgrwt>
</event>
<event>
12    3  0.4806716E-008  0.2423099E+04  0.7818608E-02  0.8430906E-01
         -2   -1    0    0    0  501 -0.00000000000E+00  0.00000000000E+00  0.46184495739E+03  0.46184495739E+03  0.00000000000E+00 0.  1.
          2   -1    0    0  501    0  0.00000000000E+00 -0.00000000000E+00 -0.31782350118E+04  0.31782350118E+04  0.00000000000E+00 0. -1.
         23    2    1    2    0    0 -0.13889172690E+03  0.93084204401E+03 -0.18351979845E+04  0.20644729875E+04  0.91319500740E+02 0.  0.
        254    2    1    2    0    0  0.13889172690E+03 -0.93084204401E+03 -0.88119206992E+03  0.15756069817E+04  0.90569314556E+03 0.  0.
         23    2    4    4    0    0  0.25233666378E+03 -0.69647030855E+03 -0.10211379795E+04  0.12649187967E+04  0.92477599478E+02 0.  0.
         23    2    4    4    0    0 -0.11344493688E+03 -0.23437173546E+03  0.13994590960E+03  0.31068818499E+03  0.95616037336E+02 0.  0.
          1    1    3    3  502    0 -0.47306276203E+02  0.49655687498E+03 -0.10517625522E+04  0.11640494320E+04  0.00000000000E+00 0. -1.
         -1    1    3    3    0  502 -0.91585450695E+02  0.43428516903E+03 -0.78343543230E+03  0.90042355555E+03  0.00000000000E+00 0.  1.
         13    1    5    5    0    0  0.17146965882E+03 -0.35742137759E+03 -0.50271923557E+03  0.64021755276E+03  0.00000000000E+00 0.  1.
        -13    1    5    5    0    0  0.80867004959E+02 -0.33904893097E+03 -0.51841874395E+03  0.62470124392E+03  0.00000000000E+00 0. -1.
          2    1    6    6  503    0 -0.96099231912E+02 -0.24045575882E+03  0.12910540828E+03  0.28934795796E+03  0.00000000000E+00 0.  1.
         -2    1    6    6    0  503 -0.17345704971E+02  0.60840233662E+01  0.10840501314E+02  0.21340227037E+02  0.00000000000E+00 0. -1.
<mgrwt>
<rscale>  0 0.24230987E+04</rscale>
<asrwt>0</asrwt>
<pdfrwt beam="1">  1        2 0.48895921E+00 0.24230987E+04</pdfrwt>
<pdfrwt beam="2">  1       -2 0.71053073E-01 0.24230987E+04</pdfrwt>
<totfact> 0.21651579E+00</totfact>
</mgrwt>
</event>
<event>
12    3  0.4806716E-008  0.1871153E+04  0.7818608E-02  0.8669350E-01
         -2   -1    0    0    0  501 -0.00000000000E+00  0.00000000000E+00  0.44456208489E+03  0.44456208489E+03  0.00000000000E+00 0.  1.
          2   -1    0    0  501    0  0.00000000000E+00 -0.00000000000E+00 -0.19689114005E+04  0.19689114005E+04  0.00000000000E+00 0. -1.
         23    2    1    2    0    0 -0.60330769601E+03  0.16182625584E+03 -0.97684368891E+03  0.11630785297E+04  0.91433913982E+02 0.  0.
        254    2    1    2    0    0  0.60330769601E+03 -0.16182625584E+03 -0.54750562667E+03  0.12503949556E+04  0.93464283053E+03 0.  0.
         23    2    4    4    0    0 -0.66681300273E+02  0.25633511221E+03 -0.31615441085E+03  0.42241082874E+03  0.91231634757E+02 0.  0.
         23    2    4    4    0    0  0.66998899629E+03 -0.41816136805E+03 -0.23135121581E+03  0.82798412688E+03  0.91050230298E+02 0.  0.
          1    1    3    3  502    0 -0.57813682957E+03  0.13873528722E+03 -0.89601954762E+03  0.10753328337E+04  0.00000000000E+00 0. -1.
         -1    1    3    3    0  502 -0.25170866449E+02  0.23090968617E+02 -0.80824141291E+02  0.87745695990E+02  0.00000000000E+00 0.  1.
         13    1    5    5    0    0 -0.74762169372E+02  0.18225791535E+03 -0.27183481730E+03  0.33571043709E+03  0.00000000000E+00 0.  1.
        -13    1    5    5    0    0  0.80808690988E+01  0.74077196856E+02 -0.44319593557E+02  0.86700391651E+02  0.00000000000E+00 0. -1.
          4    1    6    6  503    0  0.49553639525E+03 -0.28575575575E+03 -0.20381623015E+03  0.60725095853E+03  0.00000000000E+00 0. -1.
         -4    1    6    6    0  503  0.17445260104E+03 -0.13240561229E+03 -0.27534985667E+02  0.22073316835E+03  0.00000000000E+00 0.  1.
<mgrwt>
<rscale>  0 0.18711530E+04</rscale>
<asrwt>0</asrwt>
<pdfrwt beam="1">  1        2 0.30290945E+00 0.18711530E+04</pdfrwt>
<pdfrwt beam="2">  1       -2 0.68394166E-01 0.18711530E+04</pdfrwt>
<totfact> 0.12761548E+01</totfact>
</mgrwt>
</event>
<event>
12    3  0.4806716E-008  0.1675447E+04  0.7818608E-02  0.8775493E-01
          1   -1    0    0  501    0  0.00000000000E+00  0.00000000000E+00  0.16674115406E+04  0.16674115406E+04  0.00000000000E+00 0. -1.
         -1   -1    0    0    0  501 -0.00000000000E+00 -0.00000000000E+00 -0.42088029951E+03  0.42088029951E+03  0.00000000000E+00 0.  1.
         23    2    1    2    0    0 -0.52859478317E+03 -0.23448101292E+03  0.65370113813E+03  0.87757095049E+03  0.91715892477E+02 0.  0.
        254    2    1    2    0    0  0.52859478317E+03  0.23448101292E+03  0.59283010299E+03  0.12107208896E+04  0.88317821044E+03 0.  0.
         23    2    4    4    0    0  0.55753297353E+03 -0.15015031446E+03  0.56496613833E+03  0.81286496752E+03  0.90413408692E+02 0.  0.
         23    2    4    4    0    0 -0.28938190354E+02  0.38463132738E+03  0.27863964661E+02  0.39785592212E+03  0.93457248908E+02 0.  0.
          2    1    3    3  502    0 -0.53045504873E+03 -0.23424394505E+03  0.63954269283E+03  0.86328885112E+03  0.00000000000E+00 0. -1.
         -2    1    3    3    0  502  0.18602655565E+01 -0.23706787125E+00  0.14158445299E+02  0.14282099369E+02  0.00000000000E+00 0.  1.
         13    1    5    5    0    0  0.39592097009E+02 -0.22068467285E+02  0.17998398519E+02  0.48769803599E+02  0.00000000000E+00 0. -1.
        -13    1    5    5    0    0  0.51794087652E+03 -0.12808184717E+03  0.54696773981E+03  0.76409516393E+03  0.00000000000E+00 0.  1.
          4    1    6    6  503    0 -0.27634685829E+02  0.36594125335E+02 -0.12377826142E+02  0.47497541515E+02  0.00000000000E+00 0. -1.
         -4    1    6    6    0  503 -0.13035045254E+01  0.34803720205E+03  0.40241790803E+02  0.35035838060E+03  0.00000000000E+00 0.  1.
<mgrwt>
<rscale>  0 0.16754470E+04</rscale>
<asrwt>0</asrwt>
<pdfrwt beam="1">  1        1 0.25652485E+00 0.16754470E+04</pdfrwt>
<pdfrwt beam="2">  1       -1 0.64750816E-01 0.16754470E+04</pdfrwt>
<totfact> 0.11568759E+01</totfact>
</mgrwt>
</event>
<event>
12    3  0.4806716E-008  0.1458500E+04  0.7818608E-02  0.8912529E-01
          2   -1    0    0  501    0  0.00000000000E+00  0.00000000000E+00  0.39596573285E+03  0.39596573285E+03  0.00000000000E+00 0. -1.
         -2   -1    0    0    0  501 -0.00000000000E+00 -0.00000000000E+00 -0.13430592975E+04  0.13430592975E+04  0.00000000000E+00 0.  1.
         23    2    1    2    0    0 -0.67936813761E+02 -0.13020679828E+03  0.19749629291E+03  0.26398717132E+03  0.95473660893E+02 0.  0.
        254    2    1    2    0    0  0.67936813761E+02  0.13020679828E+03 -0.11445898576E+04  0.14750378591E+04  0.91873909387E+03 0.  0.
         23    2    4    4    0    0  0.92365880265E+02 -0.33331568680E+03 -0.83949098301E+03  0.91214163854E+03  0.87329578584E+02 0.  0.
         23    2    4    4    0    0 -0.24429066504E+02  0.46352248509E+03 -0.30509887460E+03  0.56289622054E+03  0.91197359317E+02 0.  0.
          4    1    3    3  502    0 -0.88043929787E+02 -0.11101266635E+03  0.13552856721E+03  0.19607023790E+03  0.00000000000E+00 0. -1.
         -4    1    3    3    0  502  0.20107116026E+02 -0.19194131935E+02  0.61967725708E+02  0.67916933419E+02  0.00000000000E+00 0.  1.
         13    1    5    5    0    0  0.36583148507E+01  0.10135626371E+01  0.39542423996E+00  0.38166657039E+01  0.00000000000E+00 0. -1.
        -13    1    5    5    0    0  0.88707565414E+02 -0.33432924944E+03 -0.83988640725E+03  0.90832497283E+03  0.00000000000E+00 0.  1.
          1    1    6    6  503    0 -0.31192307968E+02  0.57135461167E+02 -0.27307444956E+02  0.70591200225E+02  0.00000000000E+00 0. -1.
         -1    1    6    6    0  503  0.67632414641E+01  0.40638702392E+03 -0.27779142964E+03  0.49230502032E+03  0.00000000000E+00 0.  1.
<mgrwt>
<rscale>  0 0.14584999E+04</rscale>
<asrwt>0</asrwt>
<pdfrwt beam="1">  1        2 0.60917806E-01 0.14584999E+04</pdfrwt>
<pdfrwt beam="2">  1       -2 0.20662450E+00 0.14584999E+04</pdfrwt>
<totfact> 0.93777173E+00</totfact>
</mgrwt>
</event>
<event>
12    3  0.4806716E-008  0.1730043E+04  0.7818608E-02  0.8744413E-01
          2   -1    0    0  501    0  0.00000000000E+00  0.00000000000E+00  0.12489842592E+04  0.12489842592E+04  0.00000000000E+00 0. -1.
         -2   -1    0    0    0  501 -0.00000000000E+00 -0.00000000000E+00 -0.59909639059E+03  0.59909639059E+03  0.00000000000E+00 0.  1.
         23    2    1    2    0    0 -0.42483307699E+01  0.41790065884E+03 -0.26076205859E+03  0.50208726880E+03  0.97137867568E+02 0.  0.
        254    2    1    2    0    0  0.42483307699E+01 -0.41790065884E+03  0.91064992719E+03  0.13459933810E+04  0.89875240351E+03 0.  0.
         23    2    4    4    0    0 -0.24005251280E+03 -0.60097854195E+03  0.48299353533E+03  0.81263342670E+03  0.91048966104E+02 0.  0.
         23    2    4    4    0    0  0.24430084357E+03  0.18307788312E+03  0.42765639186E+03  0.53335995429E+03  0.91555654580E+02 0.  0.
          2    1    3    3  502    0 -0.41221690113E+02  0.27454402009E+03 -0.13940379375E+03  0.31065586171E+03  0.00000000000E+00 0. -1.
         -2    1    3    3    0  502  0.36973359343E+02  0.14335663875E+03 -0.12135826483E+03  0.19143140708E+03  0.00000000000E+00 0.  1.
         13    1    5    5    0    0 -0.21445734986E+03 -0.54371789864E+03  0.39850507829E+03  0.70740893805E+03  0.00000000000E+00 0. -1.
        -13    1    5    5    0    0 -0.25595162942E+02 -0.57260643315E+02  0.84488457040E+02  0.10522448865E+03  0.00000000000E+00 0.  1.
          3    1    6    6  503    0  0.16122206287E+03  0.11271510537E+03  0.34316359171E+03  0.39554835256E+03  0.00000000000E+00 0. -1.
         -3    1    6    6    0  503  0.83078780703E+02  0.70362777748E+02  0.84492800149E+02  0.13781160173E+03  0.00000000000E+00 0.  1.
<mgrwt>
<rscale>  0 0.17300427E+04</rscale>
<asrwt>0</asrwt>
<pdfrwt beam="1">  1        2 0.19215142E+00 0.17300427E+04</pdfrwt>
<pdfrwt beam="2">  1       -2 0.92168676E-01 0.17300427E+04</pdfrwt>
<totfact> 0.16818660E+01</totfact>
</mgrwt>
</event>
<event>
12    3  0.4806716E-008  0.1766151E+04  0.7818608E-02  0.8724510E-01
          2   -1    0    0  501    0  0.00000000000E+00  0.00000000000E+00  0.23164715223E+04  0.23164715223E+04  0.00000000000E+00 0. -1.
         -2   -1    0    0    0  501 -0.00000000000E+00 -0.00000000000E+00 -0.33664243754E+03  0.33664243754E+03  0.00000000000E+00 0.  1.
         23    2    1    2    0    0 -0.15833110845E+03  0.55011594404E+03  0.28122270493E+03  0.64423616915E+03  0.90872108400E+02 0.  0.
        254    2    1    2    0    0  0.15833110845E+03 -0.55011594404E+03  0.16986063798E+04  0.20088777907E+04  0.90698955483E+03 0.  0.
         23    2    4    4    0    0 -0.31786247121E+03  0.83795432128E+01  0.43611037465E+03  0.54567400759E+03  0.80380945129E+02 0.  0.
         23    2    4    4    0    0  0.47619357966E+03 -0.55849548725E+03  0.12624960052E+04  0.14632037831E+04  0.91605748684E+02 0.  0.
          1    1    3    3  502    0 -0.61115358564E+02  0.32665375746E+03  0.19740610986E+03  0.38653193467E+03  0.00000000000E+00 0. -1.
         -1    1    3    3    0  502 -0.97215749885E+02  0.22346218658E+03  0.83816595069E+02  0.25770423447E+03  0.00000000000E+00 0.  1.
         13    1    5    5    0    0 -0.20472881679E+03  0.15451567681E+01  0.34088157091E+03  0.39763868187E+03  0.00000000000E+00 0. -1.
        -13    1    5    5    0    0 -0.11313365442E+03  0.68343864447E+01  0.95228803736E+02  0.14803532572E+03  0.00000000000E+00 0.  1.
          1    1    6    6  503    0  0.36969527762E+03 -0.46239415126E+03  0.95018204987E+03  0.11195217181E+04  0.00000000000E+00 0. -1.
         -1    1    6    6    0  503  0.10649830204E+03 -0.96101335987E+02  0.31231395532E+03  0.34368206500E+03  0.00000000000E+00 0.  1.
<mgrwt>
<rscale>  0 0.17661513E+04</rscale>
<asrwt>0</asrwt>
<pdfrwt beam="1">  1        2 0.35638022E+00 0.17661513E+04</pdfrwt>
<pdfrwt beam="2">  1       -2 0.51791146E-01 0.17661513E+04</pdfrwt>
<totfact> 0.14797565E+01</totfact>
</mgrwt>
</event>
<event>
12    3  0.4806716E-008  0.2573329E+04  0.7818608E-02  0.8377317E-01
          2   -1    0    0  501    0  0.00000000000E+00  0.00000000000E+00  0.35838811704E+04  0.35838811704E+04  0.00000000000E+00 0.  1.
         -2   -1    0    0    0  501 -0.00000000000E+00 -0.00000000000E+00 -0.46193102646E+03  0.46193102646E+03  0.00000000000E+00 0. -1.
         23    2    1    2    0    0  0.46379025203E+03 -0.70271672284E+03  0.25880751917E+04  0.27232244306E+04  0.94371134730E+02 0.  0.
        254    2    1    2    0    0 -0.46379025203E+03  0.70271672284E+03  0.53387495228E+03  0.13225877663E+04  0.86908212758E+03 0.  0.
         23    2    4    4    0    0  0.23623736590E+03  0.18798951061E+03  0.25134551030E+03  0.40427491112E+03  0.95475070379E+02 0.  0.
         23    2    4    4    0    0 -0.70002761793E+03  0.51472721223E+03  0.28252944198E+03  0.91831285519E+03  0.92156635946E+02 0.  0.
          2    1    3    3  502    0  0.12147545987E+03 -0.20328739631E+03  0.60201182551E+03  0.64691598442E+03  0.00000000000E+00 0. -1.
         -2    1    3    3    0  502  0.34231479216E+03 -0.49942932653E+03  0.19860633662E+04  0.20763084462E+04  0.00000000000E+00 0.  1.
         13    1    5    5    0    0  0.53276632760E+02  0.28886777634E+02  0.10452562852E+03  0.12082405612E+03  0.00000000000E+00 0.  1.
        -13    1    5    5    0    0  0.18296073314E+03  0.15910273298E+03  0.14681988178E+03  0.28345085500E+03  0.00000000000E+00 0. -1.
          3    1    6    6  503    0 -0.55077410331E+03  0.40069601800E+03  0.26037954593E+03  0.72918236379E+03  0.00000000000E+00 0. -1.
         -3    1    6    6    0  503 -0.14925351462E+03  0.11403119422E+03  0.22149896047E+02  0.18913049140E+03  0.00000000000E+00 0.  1.
<mgrwt>
<rscale>  0 0.25733293E+04</rscale>
<asrwt>0</asrwt>
<pdfrwt beam="1">  1        2 0.55136632E+00 0.25733293E+04</pdfrwt>
<pdfrwt beam="2">  1       -2 0.71066314E-01 0.25733293E+04</pdfrwt>
<totfact> 0.11316414E+00</totfact>
</mgrwt>
</event>
<event>
12    3  0.4806716E-008  0.1323764E+04  0.7818608E-02  0.9010929E-01
          1   -1    0    0  501    0  0.00000000000E+00  0.00000000000E+00  0.32790645009E+03  0.32790645009E+03  0.00000000000E+00 0. -1.
         -1   -1    0    0    0  501 -0.00000000000E+00 -0.00000000000E+00 -0.13360155282E+04  0.13360155282E+04  0.00000000000E+00 0.  1.
         23    2    1    2    0    0 -0.10413629523E+03 -0.30907975901E+03 -0.43792072373E+03  0.55357046279E+03  0.91055101975E+02 0.  0.
        254    2    1    2    0    0  0.10413629523E+03  0.30907975901E+03 -0.57018835435E+03  0.11103515155E+04  0.89520448114E+03 0.  0.
         23    2    4    4    0    0 -0.24932202244E+03  0.47443755865E+03 -0.39693711342E+03  0.67371074282E+03  0.95260826408E+02 0.  0.
         23    2    4    4    0    0  0.35345831767E+03 -0.16535779964E+03 -0.17325124093E+03  0.43664077265E+03  0.91450465399E+02 0.  0.
          1    1    3    3  502    0 -0.16399430887E+02 -0.15678126149E+01 -0.96830461934E+01  0.19109179820E+02  0.00000000000E+00 0. -1.
         -1    1    3    3    0  502 -0.87736864345E+02 -0.30751194639E+03 -0.42823767753E+03  0.53446128297E+03  0.00000000000E+00 0.  1.
         13    1    5    5    0    0 -0.16870701550E+03  0.38560711397E+03 -0.33928387716E+03  0.54061858341E+03  0.00000000000E+00 0. -1.
        -13    1    5    5    0    0 -0.80615006938E+02  0.88830444675E+02 -0.57653236260E+02  0.13309215941E+03  0.00000000000E+00 0.  1.
          4    1    6    6  503    0  0.26368429664E+02 -0.36356203623E+02 -0.56774771728E+00  0.44915364435E+02  0.00000000000E+00 0.  1.
         -4    1    6    6    0  503  0.32708988801E+03 -0.12900159602E+03 -0.17268349321E+03  0.39172540821E+03  0.00000000000E+00 0. -1.
<mgrwt>
<rscale>  0 0.13237645E+04</rscale>
<asrwt>0</asrwt>
<pdfrwt beam="1">  1        1 0.50447146E-01 0.13237645E+04</pdfrwt>
<pdfrwt beam="2">  1       -1 0.20554085E+00 0.13237645E+04</pdfrwt>
<totfact> 0.10552951E+01</totfact>
</mgrwt>
</event>
<event>
12    3  0.4806716E-008  0.1657079E+04  0.7818608E-02  0.8786230E-01
          1   -1    0    0  501    0  0.00000000000E+00  0.00000000000E+00  0.97353032263E+03  0.97353032263E+03  0.00000000000E+00 0. -1.
         -1   -1    0    0    0  501 -0.00000000000E+00 -0.00000000000E+00 -0.70514252269E+03  0.70514252269E+03  0.00000000000E+00 0.  1.
         23    2    1    2    0    0 -0.19615322355E+03  0.39264913373E+03  0.46871322909E+03  0.64912838719E+03  0.95006013475E+02 0.  0.
        254    2    1    2    0    0  0.19615322355E+03 -0.39264913373E+03 -0.20032542915E+03  0.10295444581E+04  0.90949551091E+03 0.  0.
         23    2    4    4    0    0  0.42009063281E+03 -0.30932060190E+03  0.19015952950E+03  0.56281667144E+03  0.91905301588E+02 0.  0.
         23    2    4    4    0    0 -0.22393740925E+03 -0.83328531832E+02 -0.39048495865E+03  0.46672778669E+03  0.90910485942E+02 0.  0.
          1    1    3    3  502    0 -0.19001188366E+03  0.32138600543E+03  0.42319035160E+03  0.56434347175E+03  0.00000000000E+00 0. -1.
         -1    1    3    3    0  502 -0.61413398952E+01  0.71263128301E+02  0.45522877495E+02  0.84784915442E+02  0.00000000000E+00 0.  1.
         13    1    5    5    0    0  0.24962872463E+03 -0.23319905048E+03  0.10309274372E+03  0.35682546309E+03  0.00000000000E+00 0.  1.
        -13    1    5    5    0    0  0.17046190818E+03 -0.76121551421E+02  0.87066785779E+02  0.20599120835E+03  0.00000000000E+00 0. -1.
          2    1    6    6  503    0 -0.14939141700E+03 -0.81264643811E+02 -0.32787332187E+03  0.36935437320E+03  0.00000000000E+00 0. -1.
         -2    1    6    6    0  503 -0.74545992246E+02 -0.20638880211E+01 -0.62611636782E+02  0.97373413487E+02  0.00000000000E+00 0.  1.
<mgrwt>
<rscale>  0 0.16570789E+04</rscale>
<asrwt>0</asrwt>
<pdfrwt beam="1">  1        1 0.14977390E+00 0.16570789E+04</pdfrwt>
<pdfrwt beam="2">  1       -1 0.10848346E+00 0.16570789E+04</pdfrwt>
<totfact> 0.11959041E+01</totfact>
</mgrwt>
</event>
<event>
12    3  0.4806716E-008  0.1517526E+04  0.7818608E-02  0.8872881E-01
          2   -1    0    0  501    0  0.00000000000E+00  0.00000000000E+00  0.11854226576E+04  0.11854226576E+04  0.00000000000E+00 0.  1.
         -2   -1    0    0    0  501 -0.00000000000E+00 -0.00000000000E+00 -0.48566765653E+03  0.48566765653E+03  0.00000000000E+00 0. -1.
         23    2    1    2    0    0  0.36451592851E+02  0.29248631397E+02 -0.30470933278E+03  0.32490787158E+03  0.10263111844E+03 0.  0.
        254    2    1    2    0    0 -0.36451592851E+02 -0.29248631397E+02  0.10044643338E+04  0.13461824425E+04  0.89502758036E+03 0.  0.
         23    2    4    4    0    0  0.30082158956E+03  0.15963883210E+03  0.84934326500E+03  0.91962137638E+03  0.91330765043E+02 0.  0.
         23    2    4    4    0    0 -0.33727318242E+03 -0.18888746349E+03  0.15512106883E+03  0.42656106616E+03  0.91978930857E+02 0.  0.
          1    1    3    3  502    0  0.29418849286E+01  0.22241961921E+02 -0.28402538907E+03  0.28491012827E+03  0.00000000000E+00 0. -1.
         -1    1    3    3    0  502  0.33509707923E+02  0.70066694765E+01 -0.20683943711E+02  0.39997743307E+02  0.00000000000E+00 0.  1.
         13    1    5    5    0    0  0.28310681801E+03  0.16539314638E+03  0.74986260359E+03  0.81841205241E+03  0.00000000000E+00 0. -1.
        -13    1    5    5    0    0  0.17714771556E+02 -0.57543142878E+01  0.99480661412E+02  0.10120932397E+03  0.00000000000E+00 0.  1.
          4    1    6    6  503    0 -0.30537852148E+03 -0.14270962883E+03  0.15358225250E+03  0.37041812567E+03  0.00000000000E+00 0. -1.
         -4    1    6    6    0  503 -0.31894660937E+02 -0.46177834668E+02  0.15388163332E+01  0.56142940488E+02  0.00000000000E+00 0.  1.
<mgrwt>
<rscale>  0 0.15175262E+04</rscale>
<asrwt>0</asrwt>
<pdfrwt beam="1">  1        2 0.18237272E+00 0.15175262E+04</pdfrwt>
<pdfrwt beam="2">  1       -2 0.74718101E-01 0.15175262E+04</pdfrwt>
<totfact> 0.30031008E+01</totfact>
</mgrwt>
</event>
<event>
12    3  0.4806716E-008  0.4946451E+04  0.7818608E-02  0.7836821E-01
         -2   -1    0    0    0  501 -0.00000000000E+00  0.00000000000E+00  0.22217116055E+04  0.22217116055E+04  0.00000000000E+00 0.  1.
          2   -1    0    0  501    0  0.00000000000E+00 -0.00000000000E+00 -0.27532124103E+04  0.27532124103E+04  0.00000000000E+00 0. -1.
         23    2    1    2    0    0  0.38867896295E+03 -0.19054955956E+04 -0.16613454788E+04  0.25591682329E+04  0.85372381620E+02 0.  0.
        254    2    1    2    0    0 -0.38867896295E+03  0.19054955956E+04  0.11298446739E+04  0.24157557829E+04  0.88167012807E+03 0.  0.
         23    2    4    4    0    0 -0.15246256986E+03  0.18313378731E+03 -0.11057705823E+03  0.27815005177E+03  0.91418522357E+02 0.  0.
         23    2    4    4    0    0 -0.23621639309E+03  0.17223618082E+04  0.12404217321E+04  0.21376057312E+04  0.91563123262E+02 0.  0.
          4    1    3    3  502    0  0.29996423509E+03 -0.16230226537E+04 -0.14127854226E+04  0.21725891758E+04  0.00000000000E+00 0. -1.
         -4    1    3    3    0  502  0.88714727862E+02 -0.28247294188E+03 -0.24856005618E+03  0.38657905707E+03  0.00000000000E+00 0.  1.
         13    1    5    5    0    0 -0.80794041950E+02  0.15755284931E+03 -0.93208729352E+02  0.20009608883E+03  0.00000000000E+00 0.  1.
        -13    1    5    5    0    0 -0.71668527909E+02  0.25580938004E+02 -0.17368328874E+02  0.78053962934E+02  0.00000000000E+00 0. -1.
          2    1    6    6  503    0 -0.15238467212E+03  0.10094126592E+04  0.78071030674E+03  0.12851628644E+04  0.00000000000E+00 0.  1.
         -2    1    6    6    0  503 -0.83831720974E+02  0.71294914904E+03  0.45971142535E+03  0.85244286680E+03  0.00000000000E+00 0. -1.
<mgrwt>
<rscale>  0 0.49464508E+04</rscale>
<asrwt>0</asrwt>
<pdfrwt beam="1">  1        2 0.42357114E+00 0.49464508E+04</pdfrwt>
<pdfrwt beam="2">  1       -2 0.34180179E+00 0.49464508E+04</pdfrwt>
<totfact> 0.31605597E-02</totfact>
</mgrwt>
</event>
<event>
12    3  0.4806716E-008  0.1321005E+04  0.7818608E-02  0.9013072E-01
         -2   -1    0    0    0  501 -0.00000000000E+00  0.00000000000E+00  0.27124963251E+03  0.27124963251E+03  0.00000000000E+00 0.  1.
          2   -1    0    0  501    0  0.00000000000E+00 -0.00000000000E+00 -0.16083464662E+04  0.16083464662E+04  0.00000000000E+00 0. -1.
         23    2    1    2    0    0  0.33975681643E+03  0.26678794251E+02 -0.26033104251E+03  0.43786389764E+03  0.88352072886E+02 0.  0.
        254    2    1    2    0    0 -0.33975681643E+03 -0.26678794251E+02 -0.10767657912E+04  0.14417322011E+04  0.89611423281E+03 0.  0.
         23    2    4    4    0    0 -0.34614029203E+03  0.28339986939E+03 -0.10140852442E+04  0.11120077782E+04  0.89798823556E+02 0.  0.
         23    2    4    4    0    0  0.63834756035E+01 -0.31007866364E+03 -0.62680547062E+02  0.32972442288E+03  0.92735201835E+02 0.  0.
          1    1    3    3  502    0  0.33704708648E+02 -0.18636608799E+01  0.19213498836E+01  0.33810829660E+02  0.00000000000E+00 0. -1.
         -1    1    3    3    0  502  0.30605210778E+03  0.28542455131E+02 -0.26225239240E+03  0.40405306798E+03  0.00000000000E+00 0.  1.
         13    1    5    5    0    0 -0.31121798691E+03  0.27789175745E+03 -0.96662514489E+03  0.10528269730E+04  0.00000000000E+00 0. -1.
        -13    1    5    5    0    0 -0.34922305129E+02  0.55081119405E+01 -0.47460099257E+02  0.59180805285E+02  0.00000000000E+00 0.  1.
          3    1    6    6  503    0 -0.98735268849E+01 -0.15036934963E+03  0.14897474810E+02  0.15142774711E+03  0.00000000000E+00 0. -1.
         -3    1    6    6    0  503  0.16257002488E+02 -0.15970931401E+03 -0.77578021872E+02  0.17829667577E+03  0.00000000000E+00 0.  1.
<mgrwt>
<rscale>  0 0.13210048E+04</rscale>
<asrwt>0</asrwt>
<pdfrwt beam="1">  1        2 0.24743792E+00 0.13210048E+04</pdfrwt>
<pdfrwt beam="2">  1       -2 0.41730712E-01 0.13210048E+04</pdfrwt>
<totfact> 0.58739242E+01</totfact>
</mgrwt>
</event>
<event>
12    3  0.4806716E-008  0.1242706E+04  0.7818608E-02  0.9076276E-01
         -2   -1    0    0    0  501 -0.00000000000E+00  0.00000000000E+00  0.29112400159E+03  0.29112400159E+03  0.00000000000E+00 0.  1.
          2   -1    0    0  501    0  0.00000000000E+00 -0.00000000000E+00 -0.13261686754E+04  0.13261686754E+04  0.00000000000E+00 0. -1.
         23    2    1    2    0    0 -0.15188535235E+03 -0.22269594371E+03 -0.31371559475E+03  0.42356107112E+03  0.91235206867E+02 0.  0.
        254    2    1    2    0    0  0.15188535235E+03  0.22269594371E+03 -0.72132907910E+03  0.11937316059E+04  0.91214958367E+03 0.  0.
         23    2    4    4    0    0  0.50347331768E+03  0.27216028537E+03 -0.50337371647E+03  0.76764086760E+03  0.91273219594E+02 0.  0.
         23    2    4    4    0    0 -0.35158796533E+03 -0.49464341660E+02 -0.21795536262E+03  0.42609073831E+03  0.89375380943E+02 0.  0.
          4    1    3    3  502    0 -0.33717104077E+02 -0.10191654005E+03 -0.17333210497E+03  0.20388193361E+03  0.00000000000E+00 0. -1.
         -4    1    3    3    0  502 -0.11816824828E+03 -0.12077940367E+03 -0.14038348978E+03  0.21967913750E+03  0.00000000000E+00 0.  1.
         13    1    5    5    0    0  0.36688874611E+03  0.15250332586E+03 -0.36215148815E+03  0.53760423807E+03  0.00000000000E+00 0. -1.
        -13    1    5    5    0    0  0.13658457157E+03  0.11965695952E+03 -0.14122222833E+03  0.23003662953E+03  0.00000000000E+00 0.  1.
          4    1    6    6  503    0 -0.25471079760E+03 -0.65501770966E+02 -0.12624690187E+03  0.29172993101E+03  0.00000000000E+00 0. -1.
         -4    1    6    6    0  503 -0.96877167727E+02  0.16037429306E+02 -0.91708460748E+02  0.13436080730E+03  0.00000000000E+00 0.  1.
<mgrwt>
<rscale>  0 0.12427060E+04</rscale>
<asrwt>0</asrwt>
<pdfrwt beam="1">  1        2 0.20402594E+00 0.12427060E+04</pdfrwt>
<pdfrwt beam="2">  1       -2 0.44788309E-01 0.12427060E+04</pdfrwt>
<totfact> 0.74217106E+01</totfact>
</mgrwt>
</event>
<event>
12    3  0.4806716E-008  0.1209382E+04  0.7818608E-02  0.9104684E-01
          2   -1    0    0  501    0  0.00000000000E+00  0.00000000000E+00  0.39077146993E+04  0.39077146993E+04  0.00000000000E+00 0. -1.
         -2   -1    0    0    0  501 -0.00000000000E+00 -0.00000000000E+00 -0.93571628728E+02  0.93571628728E+02  0.00000000000E+00 0.  1.
         23    2    1    2    0    0 -0.16863865215E+03  0.91462647094E+02  0.29829099858E+03  0.36641448636E+03  0.92074128664E+02 0.  0.
        254    2    1    2    0    0  0.16863865215E+03 -0.91462647094E+02  0.35158520720E+04  0.36348718416E+04  0.90237082310E+03 0.  0.
         23    2    4    4    0    0  0.34997282155E+03  0.18004206954E+03  0.29346934778E+04  0.29624167036E+04  0.92686540840E+02 0.  0.
         23    2    4    4    0    0 -0.18133416939E+03 -0.27150471664E+03  0.58115859417E+03  0.67245513798E+03  0.88621153668E+02 0.  0.
          4    1    3    3  502    0 -0.22791531438E+02 -0.19028956579E+02  0.37335192137E+02  0.47701904215E+02  0.00000000000E+00 0. -1.
         -4    1    3    3    0  502 -0.14584712071E+03  0.11049160367E+03  0.26095580644E+03  0.31871258215E+03  0.00000000000E+00 0.  1.
         13    1    5    5    0    0  0.40902753375E+02 -0.14683874754E+01  0.18583900302E+03  0.19029273880E+03  0.00000000000E+00 0. -1.
        -13    1    5    5    0    0  0.30907006817E+03  0.18151045702E+03  0.27488544748E+04  0.27721239648E+04  0.00000000000E+00 0.  1.
          4    1    6    6  503    0 -0.59289788583E+02 -0.12505152151E+03  0.32417165513E+03  0.35247755113E+03  0.00000000000E+00 0. -1.
         -4    1    6    6    0  503 -0.12204438081E+03 -0.14645319513E+03  0.25698693904E+03  0.31997758686E+03  0.00000000000E+00 0.  1.
<mgrwt>
<rscale>  0 0.12093820E+04</rscale>
<asrwt>0</asrwt>
<pdfrwt beam="1">  1        2 0.60118675E+00 0.12093820E+04</pdfrwt>
<pdfrwt beam="2">  1       -2 0.14395638E-01 0.12093820E+04</pdfrwt>
<totfact> 0.15609678E+01</totfact>
</mgrwt>
</event>
<event>
12    3  0.4806716E-008  0.1955995E+04  0.7818608E-02  0.8627475E-01
          1   -1    0    0  501    0  0.00000000000E+00  0.00000000000E+00  0.19753648360E+04  0.19753648360E+04  0.00000000000E+00 0. -1.
         -1   -1    0    0    0  501 -0.00000000000E+00 -0.00000000000E+00 -0.48420377849E+03  0.48420377849E+03  0.00000000000E+00 0.  1.
         23    2    1    2    0    0 -0.29938477549E+03  0.33521183531E+03 -0.19142308426E+03  0.49634483454E+03  0.87847477270E+02 0.  0.
        254    2    1    2    0    0  0.29938477549E+03 -0.33521183531E+03  0.16825841418E+04  0.19632237799E+04  0.90617878902E+03 0.  0.
         23    2    4    4    0    0  0.36345088278E+03 -0.57995886783E+03  0.89095463872E+03  0.11273900238E+04  0.93590944954E+02 0.  0.
         23    2    4    4    0    0 -0.64066107291E+02  0.24474703252E+03  0.79162950305E+03  0.83583375612E+03  0.89079861629E+02 0.  0.
          3    1    3    3  502    0 -0.48616378881E+01  0.24965861825E+02  0.45037384781E+01  0.25830475023E+02  0.00000000000E+00 0. -1.
         -3    1    3    3    0  502 -0.29452313760E+03  0.31024597348E+03 -0.19592682274E+03  0.47051435952E+03  0.00000000000E+00 0.  1.
         13    1    5    5    0    0  0.18642540730E+03 -0.38246686075E+03  0.55818916931E+03  0.70186215228E+03  0.00000000000E+00 0. -1.
        -13    1    5    5    0    0  0.17702547547E+03 -0.19749200708E+03  0.33276546941E+03  0.42552787154E+03  0.00000000000E+00 0.  1.
          1    1    6    6  503    0 -0.17543674422E+02  0.18140142881E+03  0.45479963706E+03  0.48995608860E+03  0.00000000000E+00 0. -1.
         -1    1    6    6    0  503 -0.46522432869E+02  0.63345603711E+02  0.33682986599E+03  0.34587766752E+03  0.00000000000E+00 0.  1.
<mgrwt>
<rscale>  0 0.19559950E+04</rscale>
<asrwt>0</asrwt>
<pdfrwt beam="1">  1        1 0.30390228E+00 0.19559950E+04</pdfrwt>
<pdfrwt beam="2">  1       -1 0.74492890E-01 0.19559950E+04</pdfrwt>
<totfact> 0.52293801E+00</totfact>
</mgrwt>
</event>
<event>
12    3  0.4806716E-008  0.1431410E+04  0.7818608E-02  0.8931391E-01
         -2   -1    0    0    0  501 -0.00000000000E+00  0.00000000000E+00  0.26507925735E+03  0.26507925735E+03  0.00000000000E+00 0.  1.
          2   -1    0    0  501    0  0.00000000000E+00 -0.00000000000E+00 -0.19323792084E+04  0.19323792084E+04  0.00000000000E+00 0. -1.
         23    2    1    2    0    0  0.12648546750E+03  0.11660982961E+03 -0.11107503834E+04  0.11281493249E+04  0.96737061631E+02 0.  0.
        254    2    1    2    0    0 -0.12648546750E+03 -0.11660982961E+03 -0.55654956758E+03  0.10693091408E+04  0.89670407139E+03 0.  0.
         23    2    4    4    0    0  0.45876395868E+02  0.37018202842E+03 -0.28850331151E+03  0.48074303387E+03  0.93489710639E+02 0.  0.
         23    2    4    4    0    0 -0.17236186336E+03 -0.48679185803E+03 -0.26804625607E+03  0.58856610697E+03  0.88805078058E+02 0.  0.
          3    1    3    3  502    0  0.91754849240E+02  0.78239907046E+02 -0.98216510184E+03  0.98953965190E+03  0.00000000000E+00 0. -1.
         -3    1    3    3    0  502  0.34730618256E+02  0.38369922568E+02 -0.12858528159E+03  0.13860967298E+03  0.00000000000E+00 0.  1.
         13    1    5    5    0    0  0.51732276720E+01  0.51732460530E+02 -0.88073096643E+02  0.10227355528E+03  0.00000000000E+00 0.  1.
        -13    1    5    5    0    0  0.40703168196E+02  0.31844956789E+03 -0.20043021487E+03  0.37846947859E+03  0.00000000000E+00 0. -1.
          3    1    6    6  503    0 -0.67730707428E+02 -0.28790119272E+03 -0.18567153242E+03  0.34921120178E+03  0.00000000000E+00 0. -1.
         -3    1    6    6    0  503 -0.10463115594E+03 -0.19889066531E+03 -0.82374723656E+02  0.23935490519E+03  0.00000000000E+00 0.  1.
<mgrwt>
<rscale>  0 0.14314100E+04</rscale>
<asrwt>0</asrwt>
<pdfrwt beam="1">  1        2 0.29728910E+00 0.14314100E+04</pdfrwt>
<pdfrwt beam="2">  1       -2 0.40781425E-01 0.14314100E+04</pdfrwt>
<totfact> 0.40295536E+01</totfact>
</mgrwt>
</event>
<event>
12    3  0.4806716E-008  0.1095042E+04  0.7818608E-02  0.9210038E-01
         -2   -1    0    0    0  501 -0.00000000000E+00  0.00000000000E+00  0.23169543765E+03  0.23169543765E+03  0.00000000000E+00 0.  1.
          2   -1    0    0  501    0  0.00000000000E+00 -0.00000000000E+00 -0.12938508675E+04  0.12938508675E+04  0.00000000000E+00 0. -1.
         23    2    1    2    0    0  0.73017734258E+01 -0.26808016507E+01  0.41659666336E+02  0.10042662612E+03  0.91046564143E+02 0.  0.
        254    2    1    2    0    0 -0.73017734258E+01  0.26808016507E+01 -0.11038150962E+04  0.14251196790E+04  0.90138661536E+03 0.  0.
         23    2    4    4    0    0  0.43220395889E+03  0.27937490147E+02 -0.44585621051E+03  0.62807299455E+03  0.90039772325E+02 0.  0.
         23    2    4    4    0    0 -0.43950573231E+03 -0.25256688496E+02 -0.65795888565E+03  0.79704668445E+03  0.92576092671E+02 0.  0.
          4    1    3    3  502    0  0.19539458095E+02  0.39980052925E+02  0.32515251329E+02  0.55112944247E+02  0.00000000000E+00 0. -1.
         -4    1    3    3    0  502 -0.12237684669E+02 -0.42660854576E+02  0.91444150071E+01  0.45313681874E+02  0.00000000000E+00 0.  1.
         13    1    5    5    0    0  0.34273032867E+03 -0.61955226622E+01 -0.31219231868E+03  0.46364480644E+03  0.00000000000E+00 0. -1.
        -13    1    5    5    0    0  0.89473630214E+02  0.34133012809E+02 -0.13366389183E+03  0.16442818812E+03  0.00000000000E+00 0.  1.
          3    1    6    6  503    0 -0.33165942429E+03 -0.47163303124E+02 -0.54207927173E+03  0.63723801497E+03  0.00000000000E+00 0. -1.
         -3    1    6    6    0  503 -0.10784630802E+03  0.21906614628E+02 -0.11587961392E+03  0.15980866947E+03  0.00000000000E+00 0.  1.
<mgrwt>
<rscale>  0 0.10950422E+04</rscale>
<asrwt>0</asrwt>
<pdfrwt beam="1">  1        2 0.19905398E+00 0.10950422E+04</pdfrwt>
<pdfrwt beam="2">  1       -2 0.35645453E-01 0.10950422E+04</pdfrwt>
<totfact> 0.12233412E+02</totfact>
</mgrwt>
</event>
<event>
12    3  0.4806716E-008  0.1281795E+04  0.7818608E-02  0.9044128E-01
          2   -1    0    0  501    0  0.00000000000E+00  0.00000000000E+00  0.25636885849E+04  0.25636885849E+04  0.00000000000E+00 0. -1.
         -2   -1    0    0    0  501 -0.00000000000E+00 -0.00000000000E+00 -0.16021814363E+03  0.16021814363E+03  0.00000000000E+00 0.  1.
         23    2    1    2    0    0  0.17080599310E+02  0.93552268649E+02 -0.37603060854E+02  0.13705703803E+03  0.91251672022E+02 0.  0.
        254    2    1    2    0    0 -0.17080599310E+02 -0.93552268649E+02  0.24410735021E+04  0.25868496905E+04  0.85082765856E+03 0.  0.
         23    2    4    4    0    0  0.40622352527E+03 -0.33187791834E+02  0.11231860753E+04  0.11983540103E+04  0.91577247402E+02 0.  0.
         23    2    4    4    0    0 -0.42330412458E+03 -0.60364476815E+02  0.13178874268E+04  0.13884956801E+04  0.90899572005E+02 0.  0.
          1    1    3    3  502    0  0.11249133481E+02  0.43482169176E+02 -0.65518560271E+02  0.79435028673E+02  0.00000000000E+00 0. -1.
         -1    1    3    3    0  502  0.58314658296E+01  0.50070099473E+02  0.27915499417E+02  0.57622009360E+02  0.00000000000E+00 0.  1.
         13    1    5    5    0    0  0.22891426655E+03  0.21126764772E+02  0.55710136310E+03  0.60266907203E+03  0.00000000000E+00 0.  1.
        -13    1    5    5    0    0  0.17730925872E+03 -0.54314556606E+02  0.56608471224E+03  0.59568493830E+03  0.00000000000E+00 0. -1.
          1    1    6    6  503    0 -0.26225000580E+03  0.50527498543E+01  0.83818628983E+03  0.87826923678E+03  0.00000000000E+00 0. -1.
         -1    1    6    6    0  503 -0.16105411878E+03 -0.65417226669E+02  0.47970113695E+03  0.51022644337E+03  0.00000000000E+00 0.  1.
<mgrwt>
<rscale>  0 0.12817947E+04</rscale>
<asrwt>0</asrwt>
<pdfrwt beam="1">  1        2 0.39441360E+00 0.12817947E+04</pdfrwt>
<pdfrwt beam="2">  1       -2 0.24648947E-01 0.12817947E+04</pdfrwt>
<totfact> 0.46433776E+01</totfact>
</mgrwt>
</event>
<event>
12    3  0.4806716E-008  0.2826530E+04  0.7818608E-02  0.8295079E-01
          2   -1    0    0  501    0  0.00000000000E+00  0.00000000000E+00  0.10576556576E+04  0.10576556576E+04  0.00000000000E+00 0. -1.
         -2   -1    0    0    0  501 -0.00000000000E+00 -0.00000000000E+00 -0.18884381195E+04  0.18884381195E+04  0.00000000000E+00 0.  1.
         23    2    1    2    0    0 -0.46517100362E+03  0.10725071317E+04  0.13622646411E+03  0.11803513320E+04  0.89532157797E+02 0.  0.
        254    2    1    2    0    0  0.46517100362E+03 -0.10725071317E+04 -0.96700892602E+03  0.17657424452E+04  0.90337395887E+03 0.  0.
         23    2    4    4    0    0 -0.25813134750E+03 -0.21685394227E+03 -0.28924053761E+03  0.45317050487E+03  0.89699459561E+02 0.  0.
         23    2    4    4    0    0  0.72330235111E+03 -0.85565318941E+03 -0.67776838841E+03  0.13125719403E+04  0.90368348816E+02 0.  0.
          1    1    3    3  502    0 -0.18225660213E+03  0.47846325735E+03  0.97796376581E+02  0.52125683585E+03  0.00000000000E+00 0. -1.
         -1    1    3    3    0  502 -0.28291440149E+03  0.59404387433E+03  0.38430087527E+02  0.65909449613E+03  0.00000000000E+00 0.  1.
         13    1    5    5    0    0 -0.93232231887E+02 -0.76687676666E+02 -0.16228079654E+03  0.20225801775E+03  0.00000000000E+00 0. -1.
        -13    1    5    5    0    0 -0.16489911561E+03 -0.14016626560E+03 -0.12695974107E+03  0.25091248712E+03  0.00000000000E+00 0.  1.
          4    1    6    6  503    0  0.51521225913E+03 -0.59518780000E+03 -0.42823438654E+03  0.89614556800E+03  0.00000000000E+00 0. -1.
         -4    1    6    6    0  503  0.20809009199E+03 -0.26046538940E+03 -0.24953400187E+03  0.41642637230E+03  0.00000000000E+00 0.  1.
<mgrwt>
<rscale>  0 0.28265295E+04</rscale>
<asrwt>0</asrwt>
<pdfrwt beam="1">  1        2 0.16271625E+00 0.28265295E+04</pdfrwt>
<pdfrwt beam="2">  1       -2 0.29052894E+00 0.28265295E+04</pdfrwt>
<totfact> 0.73000814E-01</totfact>
</mgrwt>
</event>
<event>
12    3  0.4806716E-008  0.2355495E+04  0.7818608E-02  0.8456356E-01
          1   -1    0    0  501    0  0.00000000000E+00  0.00000000000E+00  0.13073178240E+04  0.13073178240E+04  0.00000000000E+00 0. -1.
         -1   -1    0    0    0  501 -0.00000000000E+00 -0.00000000000E+00 -0.10610192445E+04  0.10610192445E+04  0.00000000000E+00 0.  1.
         23    2    1    2    0    0  0.85122961661E+03  0.17310231645E+03  0.60877048248E+03  0.10646593453E+04  0.91333176310E+02 0.  0.
        254    2    1    2    0    0 -0.85122961661E+03 -0.17310231645E+03 -0.36247190302E+03  0.13036777232E+04  0.90201632647E+03 0.  0.
         23    2    4    4    0    0 -0.87034915856E+03  0.22796429107E+02  0.64787395166E+01  0.87556652077E+03  0.92452275452E+02 0.  0.
         23    2    4    4    0    0  0.19119541951E+02 -0.19589874556E+03 -0.36895064254E+03  0.42811120239E+03  0.91721042193E+02 0.  0.
          1    1    3    3  502    0  0.46880712518E+03  0.13636686813E+03  0.31507169355E+03  0.58107333050E+03  0.00000000000E+00 0. -1.
         -1    1    3    3    0  502  0.38242249143E+03  0.36735448322E+02  0.29369878893E+03  0.48358601482E+03  0.00000000000E+00 0.  1.
         13    1    5    5    0    0 -0.26535548410E+03  0.40665259884E+02  0.28121180190E+02  0.26992220560E+03  0.00000000000E+00 0.  1.
        -13    1    5    5    0    0 -0.60499367446E+03 -0.17868830777E+02 -0.21642440673E+02  0.60564431516E+03  0.00000000000E+00 0. -1.
          1    1    6    6  503    0  0.45246591571E+02 -0.53848047670E+02 -0.92485774042E+02  0.11619158613E+03  0.00000000000E+00 0. -1.
         -1    1    6    6    0  503 -0.26127049620E+02 -0.14205069789E+03 -0.27646486850E+03  0.31191961626E+03  0.00000000000E+00 0.  1.
<mgrwt>
<rscale>  0 0.23554952E+04</rscale>
<asrwt>0</asrwt>
<pdfrwt beam="1">  1        1 0.20112582E+00 0.23554952E+04</pdfrwt>
<pdfrwt beam="2">  1       -1 0.16323373E+00 0.23554952E+04</pdfrwt>
<totfact> 0.22213076E+00</totfact>
</mgrwt>
</event>
<event>
12    3  0.4806716E-008  0.3125671E+04  0.7818608E-02  0.8208728E-01
          2   -1    0    0  501    0  0.00000000000E+00  0.00000000000E+00  0.15209678958E+04  0.15209678958E+04  0.00000000000E+00 0. -1.
         -2   -1    0    0    0  501 -0.00000000000E+00 -0.00000000000E+00 -0.16058554682E+04  0.16058554682E+04  0.00000000000E+00 0.  1.
         23    2    1    2    0    0 -0.12460215985E+03  0.53993686362E+03  0.12814701696E+04  0.13989376859E+04  0.88336506341E+02 0.  0.
        254    2    1    2    0    0  0.12460215985E+03 -0.53993686362E+03 -0.13663577421E+04  0.17278856781E+04  0.90088729729E+03 0.  0.
         23    2    4    4    0    0 -0.27201413122E+03  0.55046952707E+02 -0.64628192239E+03  0.70894422096E+03  0.88880428864E+02 0.  0.
         23    2    4    4    0    0  0.39661629108E+03 -0.59498381633E+03 -0.72007581969E+03  0.10189414572E+04  0.91772997147E+02 0.  0.
          1    1    3    3  502    0 -0.12398137325E+03  0.50889296135E+03  0.11470608016E+04  0.12609884653E+04  0.00000000000E+00 0. -1.
         -1    1    3    3    0  502 -0.62078660072E+00  0.31043902274E+02  0.13440936803E+03  0.13794922058E+03  0.00000000000E+00 0.  1.
         13    1    5    5    0    0  0.20413983582E+01 -0.46764922759E+01 -0.46935530052E+02  0.47212083924E+02  0.00000000000E+00 0. -1.
        -13    1    5    5    0    0 -0.27405552958E+03  0.59723444983E+02 -0.59934639234E+03  0.66173213704E+03  0.00000000000E+00 0.  1.
          3    1    6    6  503    0  0.12427190169E+03 -0.12722986370E+03 -0.14783166347E+03  0.23126855492E+03  0.00000000000E+00 0. -1.
         -3    1    6    6    0  503  0.27234438939E+03 -0.46775395263E+03 -0.57224415622E+03  0.78767290226E+03  0.00000000000E+00 0.  1.
<mgrwt>
<rscale>  0 0.31256709E+04</rscale>
<asrwt>0</asrwt>
<pdfrwt beam="1">  1        2 0.23399506E+00 0.31256709E+04</pdfrwt>
<pdfrwt beam="2">  1       -2 0.24705469E+00 0.31256709E+04</pdfrwt>
<totfact> 0.70124297E-01</totfact>
</mgrwt>
</event>
<event>
12    3  0.4806716E-008  0.1293995E+04  0.7818608E-02  0.9034341E-01
          1   -1    0    0  501    0  0.00000000000E+00  0.00000000000E+00  0.74262600588E+03  0.74262600588E+03  0.00000000000E+00 0. -1.
         -1   -1    0    0    0  501 -0.00000000000E+00 -0.00000000000E+00 -0.56368333803E+03  0.56368333803E+03  0.00000000000E+00 0.  1.
         23    2    1    2    0    0 -0.26536008066E+02 -0.57053640940E+02 -0.27087387047E+03  0.29283213296E+03  0.91753619646E+02 0.  0.
        254    2    1    2    0    0  0.26536008066E+02  0.57053640940E+02  0.44981653833E+03  0.10134772109E+04  0.90600323470E+03 0.  0.
         23    2    4    4    0    0  0.10464393739E+03 -0.38704489241E+03  0.35462892243E+03  0.54358429218E+03  0.94700093505E+02 0.  0.
         23    2    4    4    0    0 -0.78107929320E+02  0.44409853335E+03  0.95187615898E+02  0.46989291877E+03  0.91729585943E+02 0.  0.
          1    1    3    3  502    0  0.27882208448E+01  0.23944340938E+02 -0.44281067937E+02  0.50417443569E+02  0.00000000000E+00 0. -1.
         -1    1    3    3    0  502 -0.29324228911E+02 -0.80997981878E+02 -0.22659280254E+03  0.24241468939E+03  0.00000000000E+00 0.  1.
         13    1    5    5    0    0 -0.99182118121E+01 -0.68459297836E+02  0.33131586236E+02  0.76699076867E+02  0.00000000000E+00 0. -1.
        -13    1    5    5    0    0  0.11456214920E+03 -0.31858559458E+03  0.32149733619E+03  0.46688521532E+03  0.00000000000E+00 0.  1.
          4    1    6    6  503    0  0.67574759042E+01 -0.11104511707E+01  0.38667611139E+00  0.68590160237E+01  0.00000000000E+00 0. -1.
         -4    1    6    6    0  503 -0.84865405225E+02  0.44520898452E+03  0.94800939787E+02  0.46303390274E+03  0.00000000000E+00 0.  1.
<mgrwt>
<rscale>  0 0.12939952E+04</rscale>
<asrwt>0</asrwt>
<pdfrwt beam="1">  1        1 0.11425016E+00 0.12939952E+04</pdfrwt>
<pdfrwt beam="2">  1       -1 0.86720513E-01 0.12939952E+04</pdfrwt>
<totfact> 0.32058954E+01</totfact>
</mgrwt>
</event>
<event>
12    3  0.4806716E-008  0.1798692E+04  0.7818608E-02  0.8706995E-01
          2   -1    0    0  501    0  0.00000000000E+00  0.00000000000E+00  0.47217150161E+03  0.47217150161E+03  0.00000000000E+00 0. -1.
         -2   -1    0    0    0  501 -0.00000000000E+00 -0.00000000000E+00 -0.17129856200E+04  0.17129856200E+04  0.00000000000E+00 0.  1.
         23    2    1    2    0    0 -0.57417500799E+03  0.19935302960E+03 -0.82898735640E+02  0.62107174765E+03  0.97156292340E+02 0.  0.
        254    2    1    2    0    0  0.57417500799E+03 -0.19935302960E+03 -0.11579153827E+04  0.15640853739E+04  0.85800725708E+03 0.  0.
         23    2    4    4    0    0  0.34301457717E+03 -0.40492662455E+03 -0.23751999852E+03  0.58858460267E+03  0.91605203882E+02 0.  0.
         23    2    4    4    0    0  0.23116043082E+03  0.20557359495E+03 -0.92039538422E+03  0.97550077128E+03  0.93693349622E+02 0.  0.
          4    1    3    3  502    0 -0.45402606694E+03  0.19261244511E+03 -0.46656895466E+02  0.49539488226E+03  0.00000000000E+00 0. -1.
         -4    1    3    3    0  502 -0.12014894105E+03  0.67405844932E+01 -0.36241840174E+02  0.12567686539E+03  0.00000000000E+00 0.  1.
         13    1    5    5    0    0  0.13552530909E+02 -0.13932245994E+02 -0.32187436382E+02  0.37600660012E+02  0.00000000000E+00 0. -1.
        -13    1    5    5    0    0  0.32946204627E+03 -0.39099437856E+03 -0.20533256214E+03  0.55098394266E+03  0.00000000000E+00 0.  1.
          2    1    6    6  503    0 -0.21433751993E+01  0.29485928987E+02 -0.11377472341E+03  0.11755297424E+03  0.00000000000E+00 0. -1.
         -2    1    6    6    0  503  0.23330380601E+03  0.17608766596E+03 -0.80662066080E+03  0.85794779704E+03  0.00000000000E+00 0.  1.
<mgrwt>
<rscale>  0 0.17986917E+04</rscale>
<asrwt>0</asrwt>
<pdfrwt beam="1">  1        2 0.72641771E-01 0.17986917E+04</pdfrwt>
<pdfrwt beam="2">  1       -2 0.26353624E+00 0.17986917E+04</pdfrwt>
<totfact> 0.32992578E+00</totfact>
</mgrwt>
</event>
<event>
12    3  0.4806716E-008  0.2173302E+04  0.7818608E-02  0.8529623E-01
         -2   -1    0    0    0  501 -0.00000000000E+00  0.00000000000E+00  0.39501822955E+03  0.39501822955E+03  0.00000000000E+00 0.  1.
          2   -1    0    0  501    0  0.00000000000E+00 -0.00000000000E+00 -0.29892563690E+04  0.29892563690E+04  0.00000000000E+00 0. -1.
         23    2    1    2    0    0 -0.30183085166E+03 -0.33122856648E+03  0.13229647716E+03  0.47605775367E+03  0.91183335618E+02 0.  0.
        254    2    1    2    0    0  0.30183085166E+03  0.33122856648E+03 -0.27265346166E+04  0.29082168449E+04  0.90714936755E+03 0.  0.
         23    2    4    4    0    0 -0.14846038350E+03  0.59922483005E+02 -0.19915918141E+04  0.20000319814E+04  0.89770726845E+02 0.  0.
         23    2    4    4    0    0  0.45029123517E+03  0.27130608347E+03 -0.73494280255E+03  0.90818486347E+03  0.91047437260E+02 0.  0.
          4    1    3    3  502    0 -0.47333751957E+02 -0.11682740886E+02  0.12071915697E+02  0.50226503537E+02  0.00000000000E+00 0. -1.
         -4    1    3    3    0  502 -0.25449709971E+03 -0.31954582559E+03  0.12022456146E+03  0.42583125013E+03  0.00000000000E+00 0.  1.
         13    1    5    5    0    0 -0.15430664510E+03  0.64989629416E+02 -0.19698809174E+04  0.19769838192E+04  0.00000000000E+00 0. -1.
        -13    1    5    5    0    0  0.58462615947E+01 -0.50671464112E+01 -0.21710896649E+02  0.23048162198E+02  0.00000000000E+00 0.  1.
          3    1    6    6  503    0  0.32210399979E+03  0.23939860566E+03 -0.54492235084E+03  0.67675922419E+03  0.00000000000E+00 0. -1.
         -3    1    6    6    0  503  0.12818723538E+03  0.31907477807E+02 -0.19002045170E+03  0.23142563929E+03  0.00000000000E+00 0.  1.
<mgrwt>
<rscale>  0 0.21733023E+04</rscale>
<asrwt>0</asrwt>
<pdfrwt beam="1">  1        2 0.45988560E+00 0.21733023E+04</pdfrwt>
<pdfrwt beam="2">  1       -2 0.60772034E-01 0.21733023E+04</pdfrwt>
<totfact> 0.40887118E+00</totfact>
</mgrwt>
</event>
<event>
12    3  0.4806716E-008  0.2259673E+04  0.7818608E-02  0.8493994E-01
          2   -1    0    0  501    0  0.00000000000E+00  0.00000000000E+00  0.32566514374E+04  0.32566514374E+04  0.00000000000E+00 0. -1.
         -2   -1    0    0    0  501 -0.00000000000E+00 -0.00000000000E+00 -0.39197623769E+03  0.39197623769E+03  0.00000000000E+00 0.  1.
         23    2    1    2    0    0  0.21740539047E+03 -0.16975891372E+03 -0.25797431274E+03  0.38815215571E+03  0.89599985211E+02 0.  0.
        254    2    1    2    0    0 -0.21740539047E+03  0.16975891372E+03  0.31226495124E+04  0.32604755194E+04  0.89648058669E+03 0.  0.
         23    2    4    4    0    0 -0.53744552863E+03  0.14091198427E+03  0.23853229134E+04  0.24510255704E+04  0.95168597021E+02 0.  0.
         23    2    4    4    0    0  0.32004013816E+03  0.28846929447E+02  0.73732659901E+03  0.80944994897E+03  0.91109115450E+02 0.  0.
          4    1    3    3  502    0 -0.39351398575E+01  0.61428546050E+01 -0.65028187436E+01  0.97727498693E+01  0.00000000000E+00 0. -1.
         -4    1    3    3    0  502  0.22134053033E+03 -0.17590176833E+03 -0.25147149400E+03  0.37837940584E+03  0.00000000000E+00 0.  1.
         13    1    5    5    0    0 -0.43448442368E+03  0.11558225801E+03  0.17452681927E+04  0.18022477735E+04  0.00000000000E+00 0. -1.
        -13    1    5    5    0    0 -0.10296110495E+03  0.25329726265E+02  0.64005472075E+03  0.64877779687E+03  0.00000000000E+00 0.  1.
          3    1    6    6  503    0  0.27203829111E+03  0.43210493585E+02  0.54432465815E+03  0.61005025372E+03  0.00000000000E+00 0.  1.
         -3    1    6    6    0  503  0.48001847046E+02 -0.14363564137E+02  0.19300194086E+03  0.19939969526E+03  0.00000000000E+00 0. -1.
<mgrwt>
<rscale>  0 0.22596725E+04</rscale>
<asrwt>0</asrwt>
<pdfrwt beam="1">  1        2 0.50102328E+00 0.22596725E+04</pdfrwt>
<pdfrwt beam="2">  1       -2 0.60304039E-01 0.22596725E+04</pdfrwt>
<totfact> 0.27792728E+00</totfact>
</mgrwt>
</event>
<event>
12    3  0.4806716E-008  0.2004928E+04  0.7818608E-02  0.8604320E-01
          2   -1    0    0  501    0  0.00000000000E+00  0.00000000000E+00  0.34108824263E+04  0.34108824263E+04  0.00000000000E+00 0. -1.
         -2   -1    0    0    0  501 -0.00000000000E+00 -0.00000000000E+00 -0.29462580319E+03  0.29462580319E+03  0.00000000000E+00 0.  1.
         23    2    1    2    0    0  0.51005747806E+03  0.55981960478E+03  0.17787127579E+04  0.19353069212E+04  0.89650339323E+02 0.  0.
        254    2    1    2    0    0 -0.51005747806E+03 -0.55981960478E+03  0.13375438652E+04  0.17702013083E+04  0.87808454018E+03 0.  0.
         23    2    4    4    0    0 -0.65647293135E+03 -0.49752000058E+03  0.13537772137E+04  0.15868246916E+04  0.82565107299E+02 0.  0.
         23    2    4    4    0    0  0.14641545329E+03 -0.62299604194E+02 -0.16233348487E+02  0.18337661670E+03  0.89692453987E+02 0.  0.
          4    1    3    3  502    0  0.65669571032E+02  0.97090580266E+02  0.21045075468E+03  0.24089124825E+03  0.00000000000E+00 0.  1.
         -4    1    3    3    0  502  0.44438790702E+03  0.46272902451E+03  0.15682620032E+04  0.16944156729E+04  0.00000000000E+00 0. -1.
         13    1    5    5    0    0 -0.32728050351E+03 -0.20849449158E+03  0.58518263089E+03  0.70215467846E+03  0.00000000000E+00 0. -1.
        -13    1    5    5    0    0 -0.32919242784E+03 -0.28902550900E+03  0.76859458283E+03  0.88467001315E+03  0.00000000000E+00 0.  1.
          1    1    6    6  503    0  0.68047579290E+02 -0.50073705535E+02  0.32232273134E+02  0.90425485704E+02  0.00000000000E+00 0. -1.
         -1    1    6    6    0  503  0.78367874004E+02 -0.12225898659E+02 -0.48465621621E+02  0.92951130994E+02  0.00000000000E+00 0.  1.
<mgrwt>
<rscale>  0 0.20049279E+04</rscale>
<asrwt>0</asrwt>
<pdfrwt beam="1">  1        2 0.52475112E+00 0.20049279E+04</pdfrwt>
<pdfrwt beam="2">  1       -2 0.45327049E-01 0.20049279E+04</pdfrwt>
<totfact> 0.40370536E+00</totfact>
</mgrwt>
</event>
<event>
12    3  0.4806716E-008  0.1145900E+04  0.7818608E-02  0.9161575E-01
         -1   -1    0    0    0  501 -0.00000000000E+00  0.00000000000E+00  0.39758815616E+03  0.39758815616E+03  0.00000000000E+00 0. -1.
          1   -1    0    0  501    0  0.00000000000E+00 -0.00000000000E+00 -0.82565695665E+03  0.82565695665E+03  0.00000000000E+00 0.  1.
         23    2    1    2    0    0  0.14520224269E+03 -0.96859423390E+02  0.31543108100E+02  0.19981065025E+03  0.91999397293E+02 0.  0.
        254    2    1    2    0    0 -0.14520224269E+03  0.96859423390E+02 -0.45961190859E+03  0.10234344626E+04  0.89761325383E+03 0.  0.
         23    2    4    4    0    0  0.10481213868E+02 -0.37673449162E+03 -0.10132333111E+03  0.40261280289E+03  0.98954123751E+02 0.  0.
         23    2    4    4    0    0 -0.15568345656E+03  0.47359391501E+03 -0.35828857748E+03  0.62082165966E+03  0.92305435259E+02 0.  0.
          3    1    3    3  502    0  0.13508476677E+03 -0.55639278588E+02  0.48747317210E+02  0.15401274126E+03  0.00000000000E+00 0. -1.
         -3    1    3    3    0  502  0.10117475919E+02 -0.41220144802E+02 -0.17204209110E+02  0.45797908987E+02  0.00000000000E+00 0.  1.
         13    1    5    5    0    0  0.22971690896E+02 -0.15123843319E+02 -0.30081500979E+01  0.27667276453E+02  0.00000000000E+00 0. -1.
        -13    1    5    5    0    0 -0.12490477028E+02 -0.36161064830E+03 -0.98315181016E+02  0.37494552644E+03  0.00000000000E+00 0.  1.
          4    1    6    6  503    0 -0.22209362114E+02  0.18526759487E+02 -0.47589072267E+01  0.29311154542E+02  0.00000000000E+00 0. -1.
         -4    1    6    6    0  503 -0.13347409445E+03  0.45506715552E+03 -0.35352967025E+03  0.59151050512E+03  0.00000000000E+00 0.  1.
<mgrwt>
<rscale>  0 0.11458995E+04</rscale>
<asrwt>0</asrwt>
<pdfrwt beam="1">  1        1 0.12702415E+00 0.11458995E+04</pdfrwt>
<pdfrwt beam="2">  1       -1 0.61167409E-01 0.11458995E+04</pdfrwt>
<totfact> 0.56576853E+01</totfact>
</mgrwt>
</event>
<event>
12    3  0.4806716E-008  0.1557381E+04  0.7818608E-02  0.8847167E-01
          2   -1    0    0  501    0  0.00000000000E+00  0.00000000000E+00  0.63742991172E+03  0.63742991172E+03  0.00000000000E+00 0. -1.
         -2   -1    0    0    0  501 -0.00000000000E+00 -0.00000000000E+00 -0.95125564353E+03  0.95125564353E+03  0.00000000000E+00 0.  1.
         23    2    1    2    0    0  0.17861288405E+03  0.26473405314E+03 -0.51112938021E+03  0.60940546792E+03  0.90194788005E+02 0.  0.
        254    2    1    2    0    0 -0.17861288405E+03 -0.26473405314E+03  0.19730364839E+03  0.97928008733E+03  0.90447447644E+03 0.  0.
         23    2    4    4    0    0  0.26259530546E+03  0.17543172780E+03  0.75437573744E+02  0.33762578194E+03  0.92562171157E+02 0.  0.
         23    2    4    4    0    0 -0.44120818951E+03 -0.44016578093E+03  0.12186607465E+03  0.64165430539E+03  0.91969159419E+02 0.  0.
          1    1    3    3  502    0  0.32522816969E+01  0.36599166960E+02 -0.24807151647E+02  0.44333634311E+02  0.00000000000E+00 0. -1.
         -1    1    3    3    0  502  0.17536060236E+03  0.22813488618E+03 -0.48632222856E+03  0.56507183361E+03  0.00000000000E+00 0.  1.
         13    1    5    5    0    0  0.23052800241E+03  0.15697764829E+03  0.96414417459E+02  0.29509469980E+03  0.00000000000E+00 0.  1.
        -13    1    5    5    0    0  0.32067303051E+02  0.18454079509E+02 -0.20976843715E+02  0.42531082137E+02  0.00000000000E+00 0. -1.
          3    1    6    6  503    0 -0.15918667560E+03 -0.18079639169E+03  0.90083135309E+02  0.25718223928E+03  0.00000000000E+00 0. -1.
         -3    1    6    6    0  503 -0.28202151391E+03 -0.25936938925E+03  0.31782939337E+02  0.38447206611E+03  0.00000000000E+00 0.  1.
<mgrwt>
<rscale>  0 0.15573809E+04</rscale>
<asrwt>0</asrwt>
<pdfrwt beam="1">  1        2 0.98066140E-01 0.15573809E+04</pdfrwt>
<pdfrwt beam="2">  1       -2 0.14634702E+00 0.15573809E+04</pdfrwt>
<totfact> 0.14162371E+01</totfact>
</mgrwt>
</event>
<event>
12    3  0.4806716E-008  0.1698892E+04  0.7818608E-02  0.8761997E-01
         -2   -1    0    0    0  501 -0.00000000000E+00  0.00000000000E+00  0.65488295483E+03  0.65488295483E+03  0.00000000000E+00 0.  1.
          2   -1    0    0  501    0  0.00000000000E+00 -0.00000000000E+00 -0.11018129601E+04  0.11018129601E+04  0.00000000000E+00 0. -1.
         23    2    1    2    0    0  0.36145571325E+02  0.47340165082E+03 -0.55241214233E+03  0.73413251328E+03  0.91519105853E+02 0.  0.
        254    2    1    2    0    0 -0.36145571325E+02 -0.47340165082E+03  0.10548213705E+03  0.10225634017E+04  0.89949641680E+03 0.  0.
         23    2    4    4    0    0 -0.39781065586E+03 -0.42832315423E+03  0.21762440847E+03  0.63027335313E+03  0.90388462419E+02 0.  0.
         23    2    4    4    0    0  0.36166508454E+03 -0.45078496588E+02 -0.11214227142E+03  0.39229004852E+03  0.92097170963E+02 0.  0.
          1    1    3    3  502    0 -0.34988069481E+01  0.36136059010E+02 -0.87164476775E+02  0.94422997317E+02  0.00000000000E+00 0. -1.
         -1    1    3    3    0  502  0.39644378273E+02  0.43726559181E+03 -0.46524766555E+03  0.63970951596E+03  0.00000000000E+00 0.  1.
         13    1    5    5    0    0 -0.39454099326E+03 -0.41406570785E+03  0.19685040137E+03  0.60486617223E+03  0.00000000000E+00 0. -1.
        -13    1    5    5    0    0 -0.32696626000E+01 -0.14257446381E+02  0.20774007095E+02  0.25407180906E+02  0.00000000000E+00 0.  1.
          1    1    6    6  503    0  0.28108875407E+03 -0.72214256713E+02 -0.76741479986E+02  0.30019167425E+03  0.00000000000E+00 0. -1.
         -1    1    6    6    0  503  0.80576330466E+02  0.27135760125E+02 -0.35400791435E+02  0.92098374270E+02  0.00000000000E+00 0.  1.
<mgrwt>
<rscale>  0 0.16988920E+04</rscale>
<asrwt>0</asrwt>
<pdfrwt beam="1">  1        2 0.16950969E+00 0.16988920E+04</pdfrwt>
<pdfrwt beam="2">  1       -2 0.10075122E+00 0.16988920E+04</pdfrwt>
<totfact> 0.16782755E+01</totfact>
</mgrwt>
</event>
<event>
12    3  0.4806716E-008  0.1324980E+04  0.7818608E-02  0.9009987E-01
         -1   -1    0    0    0  501 -0.00000000000E+00  0.00000000000E+00  0.29234637746E+03  0.29234637746E+03  0.00000000000E+00 0.  1.
          1   -1    0    0  501    0  0.00000000000E+00 -0.00000000000E+00 -0.15012772166E+04  0.15012772166E+04  0.00000000000E+00 0. -1.
         23    2    1    2    0    0 -0.14817802018E+03 -0.16790296251E+03  0.37772574134E+02  0.24479858410E+03  0.91386262281E+02 0.  0.
        254    2    1    2    0    0  0.14817802018E+03  0.16790296251E+03 -0.12467034132E+04  0.15488250099E+04  0.89131441157E+03 0.  0.
         23    2    4    4    0    0  0.32562962388E+03  0.24589215487E+02 -0.70171597581E+02  0.34699640650E+03  0.94038138801E+02 0.  0.
         23    2    4    4    0    0 -0.17745160370E+03  0.14331374703E+03 -0.11765318157E+04  0.12018286034E+04  0.90205193823E+02 0.  0.
          2    1    3    3  502    0 -0.10673103979E+02 -0.74110835042E+02  0.19349670580E+02  0.77335249212E+02  0.00000000000E+00 0. -1.
         -2    1    3    3    0  502 -0.13750491620E+03 -0.93792127473E+02  0.18422903554E+02  0.16746333489E+03  0.00000000000E+00 0.  1.
         13    1    5    5    0    0  0.20863171669E+03  0.18910628510E+02 -0.90341712131E+02  0.22813686688E+03  0.00000000000E+00 0. -1.
        -13    1    5    5    0    0  0.11699790720E+03  0.56785869769E+01  0.20170114550E+02  0.11885953962E+03  0.00000000000E+00 0.  1.
          3    1    6    6  503    0  0.63144688156E+01 -0.47993789824E+01 -0.67178758217E+02  0.67645340642E+02  0.00000000000E+00 0. -1.
         -3    1    6    6    0  503 -0.18376607251E+03  0.14811312601E+03 -0.11093530574E+04  0.11341832628E+04  0.00000000000E+00 0.  1.
<mgrwt>
<rscale>  0 0.13249799E+04</rscale>
<asrwt>0</asrwt>
<pdfrwt beam="1">  1        1 0.23096572E+00 0.13249799E+04</pdfrwt>
<pdfrwt beam="2">  1       -1 0.44976366E-01 0.13249799E+04</pdfrwt>
<totfact> 0.31381474E+01</totfact>
</mgrwt>
</event>
<event>
12    3  0.4806716E-008  0.2287371E+04  0.7818608E-02  0.8482917E-01
         -2   -1    0    0    0  501 -0.00000000000E+00  0.00000000000E+00  0.48872395432E+03  0.48872395432E+03  0.00000000000E+00 0.  1.
          2   -1    0    0  501    0  0.00000000000E+00 -0.00000000000E+00 -0.26763907964E+04  0.26763907964E+04  0.00000000000E+00 0. -1.
         23    2    1    2    0    0 -0.71360637756E+03  0.64151284119E+03 -0.10711212463E+04  0.14408870139E+04  0.89899248829E+02 0.  0.
        254    2    1    2    0    0  0.71360637756E+03 -0.64151284119E+03 -0.11165455958E+04  0.17242277368E+04  0.89750455906E+03 0.  0.
         23    2    4    4    0    0  0.60516554185E+02 -0.42990787824E+03 -0.41790994053E+02  0.44561011903E+03  0.91317325276E+02 0.  0.
         23    2    4    4    0    0  0.65308982338E+03 -0.21160496295E+03 -0.10747546017E+04  0.12786176178E+04  0.91992287245E+02 0.  0.
          3    1    3    3  502    0 -0.28587281333E+03  0.21903476564E+03 -0.45145396219E+03  0.57750339734E+03  0.00000000000E+00 0. -1.
         -3    1    3    3    0  502 -0.42773356424E+03  0.42247807555E+03 -0.61966728411E+03  0.86338361653E+03  0.00000000000E+00 0.  1.
         13    1    5    5    0    0  0.35193975495E+02 -0.12621416114E+03  0.25584297138E+02  0.13350350798E+03  0.00000000000E+00 0.  1.
        -13    1    5    5    0    0  0.25322578690E+02 -0.30369371710E+03 -0.67375291191E+02  0.31210661105E+03  0.00000000000E+00 0. -1.
          4    1    6    6  503    0  0.65408468058E+03 -0.20570075730E+03 -0.10573295332E+04  0.12601925697E+04  0.00000000000E+00 0. -1.
         -4    1    6    6    0  503 -0.99485720455E+00 -0.59042056471E+01 -0.17425068546E+02  0.18425048141E+02  0.00000000000E+00 0.  1.
<mgrwt>
<rscale>  0 0.22873708E+04</rscale>
<asrwt>0</asrwt>
<pdfrwt beam="1">  1        2 0.41175244E+00 0.22873708E+04</pdfrwt>
<pdfrwt beam="2">  1       -2 0.75188299E-01 0.22873708E+04</pdfrwt>
<totfact> 0.39535314E+00</totfact>
</mgrwt>
</event>
<event>
12    3  0.4806716E-008  0.4220711E+04  0.7818608E-02  0.7961444E-01
         -1   -1    0    0    0  501 -0.00000000000E+00  0.00000000000E+00  0.17709620579E+04  0.17709620579E+04  0.00000000000E+00 0.  1.
          1   -1    0    0  501    0  0.00000000000E+00 -0.00000000000E+00 -0.25147909717E+04  0.25147909717E+04  0.00000000000E+00 0. -1.
         23    2    1    2    0    0  0.59695807704E+03  0.55914692623E+03 -0.22286847018E+04  0.23757669589E+04  0.90713351036E+02 0.  0.
        254    2    1    2    0    0 -0.59695807704E+03 -0.55914692623E+03  0.14848557880E+04  0.19099860707E+04  0.87991240947E+03 0.  0.
         23    2    4    4    0    0 -0.74955962426E+01 -0.41579325288E+03  0.11166673899E+04  0.11950915879E+04  0.91420077435E+02 0.  0.
         23    2    4    4    0    0 -0.58946248080E+03 -0.14335367335E+03  0.36818839809E+03  0.71489448287E+03  0.86574437430E+02 0.  0.
          1    1    3    3  502    0  0.58420656524E+03  0.55027175251E+03 -0.21361332330E+04  0.22819205730E+04  0.00000000000E+00 0. -1.
         -1    1    3    3    0  502  0.12751511802E+02  0.88751737131E+01 -0.92551468834E+02  0.93846385892E+02  0.00000000000E+00 0.  1.
         13    1    5    5    0    0  0.12333778934E+01 -0.17594402583E+03  0.35004116581E+03  0.39177370918E+03  0.00000000000E+00 0. -1.
        -13    1    5    5    0    0 -0.87289741360E+01 -0.23984922705E+03  0.76662622411E+03  0.80331787868E+03  0.00000000000E+00 0.  1.
          3    1    6    6  503    0 -0.57122361584E+03 -0.13884372032E+03  0.37207161528E+03  0.69570919561E+03  0.00000000000E+00 0. -1.
         -3    1    6    6    0  503 -0.18238864960E+02 -0.45099530263E+01 -0.38832171892E+01  0.19185287255E+02  0.00000000000E+00 0.  1.
<mgrwt>
<rscale>  0 0.42207106E+04</rscale>
<asrwt>0</asrwt>
<pdfrwt beam="1">  1        1 0.38689092E+00 0.42207106E+04</pdfrwt>
<pdfrwt beam="2">  1       -1 0.27245570E+00 0.42207106E+04</pdfrwt>
<totfact> 0.50658366E-02</totfact>
</mgrwt>
</event>
<event>
12    3  0.4806716E-008  0.2102876E+04  0.7818608E-02  0.8559978E-01
         -2   -1    0    0    0  501 -0.00000000000E+00  0.00000000000E+00  0.12719146831E+04  0.12719146831E+04  0.00000000000E+00 0.  1.
          2   -1    0    0  501    0  0.00000000000E+00 -0.00000000000E+00 -0.86917904130E+03  0.86917904130E+03  0.00000000000E+00 0. -1.
         23    2    1    2    0    0  0.16968363155E+03  0.30083749061E+03 -0.64003953370E+03  0.73157913082E+03  0.79130837107E+02 0.  0.
        254    2    1    2    0    0 -0.16968363155E+03 -0.30083749061E+03  0.10427751755E+04  0.14095145936E+04  0.88320755903E+03 0.  0.
         23    2    4    4    0    0 -0.27912924377E+03 -0.43305469806E+03  0.22617430750E+03  0.56982003150E+03  0.89947455113E+02 0.  0.
         23    2    4    4    0    0  0.10944561222E+03  0.13221720745E+03  0.81660086803E+03  0.83969456211E+03  0.93756322444E+02 0.  0.
          1    1    3    3  502    0  0.13288461424E+03  0.16608631592E+03 -0.42311523961E+03  0.47357099893E+03  0.00000000000E+00 0. -1.
         -1    1    3    3    0  502  0.36799017308E+02  0.13475117469E+03 -0.21692429409E+03  0.25800813189E+03  0.00000000000E+00 0.  1.
         13    1    5    5    0    0 -0.13765266044E+03 -0.25172879676E+03  0.16843280682E+03  0.33269393210E+03  0.00000000000E+00 0. -1.
        -13    1    5    5    0    0 -0.14147658333E+03 -0.18132590130E+03  0.57741500685E+02  0.23712609940E+03  0.00000000000E+00 0.  1.
          3    1    6    6  503    0  0.49431652696E+02  0.88187500086E+02  0.27483089824E+03  0.29283535662E+03  0.00000000000E+00 0. -1.
         -3    1    6    6    0  503  0.60013959525E+02  0.44029707368E+02  0.54176996979E+03  0.54685920549E+03  0.00000000000E+00 0.  1.
<mgrwt>
<rscale>  0 0.21028757E+04</rscale>
<asrwt>0</asrwt>
<pdfrwt beam="1">  1        2 0.13371985E+00 0.21028757E+04</pdfrwt>
<pdfrwt beam="2">  1       -2 0.19567918E+00 0.21028757E+04</pdfrwt>
<totfact> 0.40262521E+00</totfact>
</mgrwt>
</event>
<event>
12    3  0.5722938E-008  0.1782488E+04  0.7818608E-02  0.8715668E-01
         -1   -1    0    0    0  501 -0.00000000000E+00  0.00000000000E+00  0.12926854674E+04  0.12926854674E+04  0.00000000000E+00 0.  1.
          1   -1    0    0  501    0  0.00000000000E+00 -0.00000000000E+00 -0.61446972572E+03  0.61446972572E+03  0.00000000000E+00 0. -1.
         23    2    1    2    0    0  0.14505240073E+03  0.77365368886E+02  0.93808470438E+03  0.95682520330E+03  0.92119258710E+02 0.  0.
        254    2    1    2    0    0 -0.14505240073E+03 -0.77365368886E+02 -0.25986896274E+03  0.95032998977E+03  0.89920498909E+03 0.  0.
         23    2    4    4    0    0  0.33081765217E+03 -0.79906710481E+02 -0.30233416653E+03  0.46390687844E+03  0.89321006740E+02 0.  0.
         23    2    4    4    0    0 -0.47587005290E+03  0.25413415944E+01  0.42465203795E+02  0.48642311134E+03  0.91353073529E+02 0.  0.
          3    1    3    3  502    0 -0.13320816730E+02  0.80410304778E+01  0.75721796637E+02  0.77303899096E+02  0.00000000000E+00 0. -1.
         -3    1    3    3    0  502  0.15837321746E+03  0.69324338409E+02  0.86236290774E+03  0.87952130420E+03  0.00000000000E+00 0.  1.
         13    1    5    5    0    0  0.33635681542E+03 -0.78564244868E+02 -0.29286887035E+03  0.45285806062E+03  0.00000000000E+00 0. -1.
        -13    1    5    5    0    0 -0.55391632472E+01 -0.13424656126E+01 -0.94652961833E+01  0.11048817821E+02  0.00000000000E+00 0.  1.
          2    1    6    6  503    0 -0.46571288825E+03 -0.13118957652E+02  0.40529314035E+02  0.46765716784E+03  0.00000000000E+00 0. -1.
         -2    1    6    6    0  503 -0.10157164648E+02  0.15660299246E+02  0.19358897603E+01  0.18765943497E+02  0.00000000000E+00 0.  1.
<mgrwt>
<rscale>  0 0.17824882E+04</rscale>
<asrwt>0</asrwt>
<pdfrwt beam="1">  1        1 0.94533804E-01 0.17824882E+04</pdfrwt>
<pdfrwt beam="2">  1       -1 0.19887469E+00 0.17824882E+04</pdfrwt>
<totfact> 0.47894702E+00</totfact>
</mgrwt>
</event>
<event>
12    3  0.4806716E-008  0.1987128E+04  0.7818608E-02  0.8612662E-01
          1   -1    0    0  501    0  0.00000000000E+00  0.00000000000E+00  0.13310912374E+04  0.13310912374E+04  0.00000000000E+00 0. -1.
         -1   -1    0    0    0  501 -0.00000000000E+00 -0.00000000000E+00 -0.74162436636E+03  0.74162436636E+03  0.00000000000E+00 0.  1.
         23    2    1    2    0    0  0.74019485449E+03  0.16906966415E+03  0.46023916565E+03  0.89239257194E+03  0.89841187142E+02 0.  0.
        254    2    1    2    0    0 -0.74019485449E+03 -0.16906966415E+03  0.12922770536E+03  0.11803230318E+04  0.89442142506E+03 0.  0.
         23    2    4    4    0    0 -0.37800627395E+03  0.29709762034E+03 -0.16143867896E+03  0.51590506989E+03  0.94550806036E+02 0.  0.
         23    2    4    4    0    0 -0.36218858053E+03 -0.46616728448E+03  0.29066638431E+03  0.66441796190E+03  0.92042251902E+02 0.  0.
          2    1    3    3  502    0  0.48253964349E+03  0.13402311425E+03  0.34396922972E+03  0.60755372906E+03  0.00000000000E+00 0. -1.
         -2    1    3    3    0  502  0.25765521100E+03  0.35046549894E+02  0.11626993592E+03  0.28483884288E+03  0.00000000000E+00 0.  1.
         13    1    5    5    0    0 -0.86123768776E+01  0.63157051800E+01  0.10842181910E+02  0.15218872362E+02  0.00000000000E+00 0. -1.
        -13    1    5    5    0    0 -0.36939389708E+03  0.29078191516E+03 -0.17228086087E+03  0.50068619753E+03  0.00000000000E+00 0.  1.
          3    1    6    6  503    0 -0.48295868337E+02 -0.25329057909E+02  0.42082147563E+02  0.68883664366E+02  0.00000000000E+00 0. -1.
         -3    1    6    6    0  503 -0.31389271220E+03 -0.44083822658E+03  0.24858423675E+03  0.59553429754E+03  0.00000000000E+00 0.  1.
<mgrwt>
<rscale>  0 0.19871283E+04</rscale>
<asrwt>0</asrwt>
<pdfrwt beam="1">  1        1 0.20478327E+00 0.19871283E+04</pdfrwt>
<pdfrwt beam="2">  1       -1 0.11409606E+00 0.19871283E+04</pdfrwt>
<totfact> 0.55839467E+00</totfact>
</mgrwt>
</event>
<event>
12    3  0.4806716E-008  0.1145487E+04  0.7818608E-02  0.9161957E-01
         -1   -1    0    0    0  501 -0.00000000000E+00  0.00000000000E+00  0.18373732268E+03  0.18373732268E+03  0.00000000000E+00 0.  1.
          1   -1    0    0  501    0  0.00000000000E+00 -0.00000000000E+00 -0.17853491506E+04  0.17853491506E+04  0.00000000000E+00 0. -1.
         23    2    1    2    0    0 -0.92747442371E+02  0.16061169768E+02 -0.42310461936E+01  0.13059132888E+03  0.90422033745E+02 0.  0.
        254    2    1    2    0    0  0.92747442371E+02 -0.16061169768E+02 -0.15973807818E+04  0.18384951444E+04  0.90530601727E+03 0.  0.
         23    2    4    4    0    0  0.74485193864E+02 -0.32960237363E+03 -0.20039708203E+03  0.40362723966E+03  0.92575316896E+02 0.  0.
         23    2    4    4    0    0  0.18262248507E+02  0.31354120387E+03 -0.13969836997E+04  0.14348679048E+04  0.92956175528E+02 0.  0.
          2    1    3    3  502    0 -0.58535651887E+02 -0.21187278723E+02 -0.34975169599E+02  0.71404382288E+02  0.00000000000E+00 0. -1.
         -2    1    3    3    0  502 -0.34211790484E+02  0.37248448491E+02  0.30744123406E+02  0.59186946593E+02  0.00000000000E+00 0.  1.
         13    1    5    5    0    0 -0.19511530143E+02 -0.52859280189E+02 -0.18173439506E+02  0.59203692572E+02  0.00000000000E+00 0. -1.
        -13    1    5    5    0    0  0.93996724007E+02 -0.27674309344E+03 -0.18222364252E+03  0.34442354709E+03  0.00000000000E+00 0.  1.
          3    1    6    6  503    0  0.37702556726E+02  0.47540012314E+02 -0.24223643703E+03  0.24971989705E+03  0.00000000000E+00 0. -1.
         -3    1    6    6    0  503 -0.19440308220E+02  0.26600119155E+03 -0.11547472627E+04  0.11851480077E+04  0.00000000000E+00 0.  1.
<mgrwt>
<rscale>  0 0.11454873E+04</rscale>
<asrwt>0</asrwt>
<pdfrwt beam="1">  1        1 0.27466909E+00 0.11454873E+04</pdfrwt>
<pdfrwt beam="2">  1       -1 0.28267281E-01 0.11454873E+04</pdfrwt>
<totfact> 0.46942176E+01</totfact>
</mgrwt>
</event>
<event>
12    3  0.4806716E-008  0.2119799E+04  0.7818608E-02  0.8552572E-01
         -2   -1    0    0    0  501 -0.00000000000E+00  0.00000000000E+00  0.32180737900E+03  0.32180737900E+03  0.00000000000E+00 0.  1.
          2   -1    0    0  501    0  0.00000000000E+00 -0.00000000000E+00 -0.34908680379E+04  0.34908680379E+04  0.00000000000E+00 0. -1.
         23    2    1    2    0    0  0.59993343452E+02 -0.60125063424E+03 -0.24213736563E+04  0.24972913907E+04  0.91172255286E+02 0.  0.
        254    2    1    2    0    0 -0.59993343452E+02  0.60125063424E+03 -0.74768700256E+03  0.13153840262E+04  0.89782946938E+03 0.  0.
         23    2    4    4    0    0  0.31717689843E+03 -0.37688906026E+02 -0.27196928771E+03  0.42922546259E+03  0.90805097593E+02 0.  0.
         23    2    4    4    0    0 -0.37717024188E+03  0.63893954027E+03 -0.47571771485E+03  0.88615856358E+03  0.92024606032E+02 0.  0.
          3    1    3    3  502    0  0.40432421488E+02 -0.49398946694E+03 -0.18289965251E+04  0.18949640268E+04  0.00000000000E+00 0. -1.
         -3    1    3    3    0  502  0.19560921964E+02 -0.10726116730E+03 -0.59237713121E+03  0.60232736386E+03  0.00000000000E+00 0.  1.
         13    1    5    5    0    0  0.14617410613E+03  0.11736777138E+02 -0.78522302135E+02  0.16634414078E+03  0.00000000000E+00 0. -1.
        -13    1    5    5    0    0  0.17100279230E+03 -0.49425683164E+02 -0.19344698557E+03  0.26288132181E+03  0.00000000000E+00 0.  1.
          1    1    6    6  503    0 -0.96313583334E+01  0.59944585631E+02 -0.52654486996E+02  0.80365486439E+02  0.00000000000E+00 0. -1.
         -1    1    6    6    0  503 -0.36753888354E+03  0.57899495463E+03 -0.42306322785E+03  0.80579307714E+03  0.00000000000E+00 0.  1.
<mgrwt>
<rscale>  0 0.21197991E+04</rscale>
<asrwt>0</asrwt>
<pdfrwt beam="1">  1        2 0.53705659E+00 0.21197991E+04</pdfrwt>
<pdfrwt beam="2">  1       -2 0.49508830E-01 0.21197991E+04</pdfrwt>
<totfact> 0.29435566E+00</totfact>
</mgrwt>
</event>
<event>
12    3  0.4806716E-008  0.2943057E+04  0.7818608E-02  0.8260181E-01
          2   -1    0    0  501    0  0.00000000000E+00  0.00000000000E+00  0.17560813820E+04  0.17560813820E+04  0.00000000000E+00 0. -1.
         -2   -1    0    0    0  501 -0.00000000000E+00 -0.00000000000E+00 -0.12330840263E+04  0.12330840263E+04  0.00000000000E+00 0.  1.
         23    2    1    2    0    0  0.99442237591E+03 -0.58925043329E+03  0.90161584582E+03  0.14688040669E+04  0.91555003856E+02 0.  0.
        254    2    1    2    0    0 -0.99442237591E+03  0.58925043329E+03 -0.37861849018E+03  0.15203613414E+04  0.91217033088E+03 0.  0.
         23    2    4    4    0    0 -0.12099179457E+03 -0.13667739583E+03 -0.31964508491E+03  0.37952799505E+03  0.92459687650E+02 0.  0.
         23    2    4    4    0    0 -0.87343058134E+03  0.72592782911E+03 -0.58973405272E+02  0.11408333464E+04  0.90391748217E+02 0.  0.
          4    1    3    3  502    0  0.46867558231E+03 -0.30062161160E+03  0.38185151450E+03  0.67515978401E+03  0.00000000000E+00 0. -1.
         -4    1    3    3    0  502  0.52574679360E+03 -0.28862882169E+03  0.51976433132E+03  0.79364428291E+03  0.00000000000E+00 0.  1.
         13    1    5    5    0    0 -0.89357466362E+02 -0.72491508142E+02 -0.26685355049E+03  0.29060384195E+03  0.00000000000E+00 0. -1.
        -13    1    5    5    0    0 -0.31634328205E+02 -0.64185887685E+02 -0.52791534420E+02  0.88924153104E+02  0.00000000000E+00 0.  1.
          2    1    6    6  503    0 -0.38295500054E+00  0.29427313030E+01  0.46389258925E+01  0.55069007155E+01  0.00000000000E+00 0.  1.
         -2    1    6    6    0  503 -0.87304762634E+03  0.72298509781E+03 -0.63612331164E+02  0.11353264456E+04  0.00000000000E+00 0. -1.
<mgrwt>
<rscale>  0 0.29430568E+04</rscale>
<asrwt>0</asrwt>
<pdfrwt beam="1">  1        2 0.27016637E+00 0.29430568E+04</pdfrwt>
<pdfrwt beam="2">  1       -2 0.18970523E+00 0.29430568E+04</pdfrwt>
<totfact> 0.12224283E+00</totfact>
</mgrwt>
</event>
<event>
12    3  0.4806716E-008  0.1412041E+04  0.7818608E-02  0.8945149E-01
         -1   -1    0    0    0  501 -0.00000000000E+00  0.00000000000E+00  0.41435409057E+03  0.41435409057E+03  0.00000000000E+00 0. -1.
          1   -1    0    0  501    0  0.00000000000E+00 -0.00000000000E+00 -0.12029919679E+04  0.12029919679E+04  0.00000000000E+00 0.  1.
         23    2    1    2    0    0 -0.32626767942E+03  0.13540846368E+03  0.71418612642E+01  0.36375853639E+03  0.86505583323E+02 0.  0.
        254    2    1    2    0    0  0.32626767942E+03 -0.13540846368E+03 -0.79577973855E+03  0.12535875220E+04  0.90190367138E+03 0.  0.
         23    2    4    4    0    0  0.28820183631E+03  0.70339695974E+02  0.10407726010E+03  0.32508622340E+03  0.82710369936E+02 0.  0.
         23    2    4    4    0    0  0.38065843114E+02 -0.20574815965E+03 -0.89985699865E+03  0.92850129864E+03  0.92686190663E+02 0.  0.
          1    1    3    3  502    0 -0.79242616088E+02  0.81204300714E+01  0.29557438671E+02  0.84964555962E+02  0.00000000000E+00 0. -1.
         -1    1    3    3    0  502 -0.24702506333E+03  0.12728803361E+03 -0.22415577407E+02  0.27879398043E+03  0.00000000000E+00 0.  1.
         13    1    5    5    0    0  0.18112051192E+02  0.27678072064E+02  0.21500262223E+02  0.39451024666E+02  0.00000000000E+00 0.  1.
        -13    1    5    5    0    0  0.27008978511E+03  0.42661623910E+02  0.82576997874E+02  0.28563519873E+03  0.00000000000E+00 0. -1.
          4    1    6    6  503    0 -0.16112437238E+01 -0.17538513531E+03 -0.76036953560E+03  0.78033606379E+03  0.00000000000E+00 0. -1.
         -4    1    6    6    0  503  0.39677086838E+02 -0.30363024345E+02 -0.13948746305E+03  0.14816523484E+03  0.00000000000E+00 0.  1.
<mgrwt>
<rscale>  0 0.14120406E+04</rscale>
<asrwt>0</asrwt>
<pdfrwt beam="1">  1        1 0.18507568E+00 0.14120406E+04</pdfrwt>
<pdfrwt beam="2">  1       -1 0.63746784E-01 0.14120406E+04</pdfrwt>
<totfact> 0.25848093E+01</totfact>
</mgrwt>
</event>
<event>
12    3  0.4806716E-008  0.1747728E+04  0.7818608E-02  0.8734602E-01
          1   -1    0    0  501    0  0.00000000000E+00  0.00000000000E+00  0.19460257790E+04  0.19460257790E+04  0.00000000000E+00 0. -1.
         -1   -1    0    0    0  501 -0.00000000000E+00 -0.00000000000E+00 -0.39240901029E+03  0.39240901029E+03  0.00000000000E+00 0.  1.
         23    2    1    2    0    0 -0.13239005481E+03  0.61483764008E+03  0.69315263263E+03  0.94029041355E+03  0.90183365483E+02 0.  0.
        254    2    1    2    0    0  0.13239005481E+03 -0.61483764008E+03  0.86046413604E+03  0.13981443757E+04  0.90490702044E+03 0.  0.
         23    2    4    4    0    0  0.49230400276E+03 -0.23938390903E+03  0.56859784689E+03  0.79464299938E+03  0.92120019177E+02 0.  0.
         23    2    4    4    0    0 -0.35991394795E+03 -0.37545373106E+03  0.29186628915E+03  0.60350137633E+03  0.92327820286E+02 0.  0.
          4    1    3    3  502    0 -0.13903812679E+03  0.58325502340E+03  0.63218500614E+03  0.87130700963E+03  0.00000000000E+00 0. -1.
         -4    1    3    3    0  502  0.66480719775E+01  0.31582616679E+02  0.60967626489E+02  0.68983403925E+02  0.00000000000E+00 0.  1.
         13    1    5    5    0    0  0.40585692692E+03 -0.16186970966E+03  0.47591236383E+03  0.64607602191E+03  0.00000000000E+00 0. -1.
        -13    1    5    5    0    0  0.86447075845E+02 -0.77514199364E+02  0.92685483058E+02  0.14856697747E+03  0.00000000000E+00 0.  1.
          4    1    6    6  503    0 -0.31587579601E+03 -0.27934853488E+03  0.21947384889E+03  0.47537552818E+03  0.00000000000E+00 0. -1.
         -4    1    6    6    0  503 -0.44038151942E+02 -0.96105196172E+02  0.72392440261E+02  0.12812584815E+03  0.00000000000E+00 0.  1.
<mgrwt>
<rscale>  0 0.17477277E+04</rscale>
<asrwt>0</asrwt>
<pdfrwt beam="1">  1        1 0.29938858E+00 0.17477277E+04</pdfrwt>
<pdfrwt beam="2">  1       -1 0.60370618E-01 0.17477277E+04</pdfrwt>
<totfact> 0.85512874E+00</totfact>
</mgrwt>
</event>
<event>
12    3  0.4806716E-008  0.1806554E+04  0.7818608E-02  0.8702822E-01
         -1   -1    0    0    0  501 -0.00000000000E+00  0.00000000000E+00  0.10608616273E+04  0.10608616273E+04  0.00000000000E+00 0.  1.
          1   -1    0    0  501    0  0.00000000000E+00 -0.00000000000E+00 -0.76910033587E+03  0.76910033587E+03  0.00000000000E+00 0. -1.
         23    2    1    2    0    0 -0.11868634104E+03 -0.32580048669E+02  0.77998646641E+03  0.79481898494E+03  0.90611389564E+02 0.  0.
        254    2    1    2    0    0  0.11868634104E+03  0.32580048669E+02 -0.48822517496E+03  0.10351429783E+04  0.90443864185E+03 0.  0.
         23    2    4    4    0    0  0.16764648173E+03  0.44269310981E+03 -0.32765406950E+03  0.58288641445E+03  0.91196768470E+02 0.  0.
         23    2    4    4    0    0 -0.48960140689E+02 -0.41011306114E+03 -0.16057110546E+03  0.45225656382E+03  0.90349882759E+02 0.  0.
          4    1    3    3  502    0 -0.50403123178E+02 -0.54338432381E+02  0.27664180798E+03  0.28639802719E+03  0.00000000000E+00 0. -1.
         -4    1    3    3    0  502 -0.68283217861E+02  0.21758383712E+02  0.50334465843E+03  0.50842095774E+03  0.00000000000E+00 0.  1.
         13    1    5    5    0    0  0.15682826733E+03  0.33440516821E+03 -0.22052708431E+03  0.43017916834E+03  0.00000000000E+00 0. -1.
        -13    1    5    5    0    0  0.10818214403E+02  0.10828794160E+03 -0.10712698518E+03  0.15270724610E+03  0.00000000000E+00 0.  1.
          2    1    6    6  503    0 -0.35758646628E+02 -0.34158003551E+03 -0.16751032821E+03  0.38211949901E+03  0.00000000000E+00 0. -1.
         -2    1    6    6    0  503 -0.13201494061E+02 -0.68533025630E+02  0.69392227498E+01  0.70137064807E+02  0.00000000000E+00 0.  1.
<mgrwt>
<rscale>  0 0.18065537E+04</rscale>
<asrwt>0</asrwt>
<pdfrwt beam="1">  1        1 0.11832313E+00 0.18065537E+04</pdfrwt>
<pdfrwt beam="2">  1       -1 0.16320948E+00 0.18065537E+04</pdfrwt>
<totfact> 0.61367653E+00</totfact>
</mgrwt>
</event>
<event>
12    3  0.4806716E-008  0.2071024E+04  0.7818608E-02  0.8574116E-01
         -1   -1    0    0    0  501 -0.00000000000E+00  0.00000000000E+00  0.43162439393E+04  0.43162439393E+04  0.00000000000E+00 0.  1.
          1   -1    0    0  501    0  0.00000000000E+00 -0.00000000000E+00 -0.24843010304E+03  0.24843010304E+03  0.00000000000E+00 0. -1.
         23    2    1    2    0    0 -0.24158440889E+03  0.15060210316E+03  0.34265827436E+04  0.34395762674E+04  0.90396795009E+02 0.  0.
        254    2    1    2    0    0  0.24158440889E+03 -0.15060210316E+03  0.64123109268E+03  0.11250977749E+04  0.87955879216E+03 0.  0.
         23    2    4    4    0    0 -0.18577051526E+03 -0.66382241068E+02  0.64512492984E+03  0.68018777937E+03  0.86901978319E+02 0.  0.
         23    2    4    4    0    0  0.42735492414E+03 -0.84219862088E+02 -0.38938371630E+01  0.44490999556E+03  0.90578837622E+02 0.  0.
          1    1    3    3  502    0 -0.42059005133E+02  0.56611477865E+02  0.54111306302E+03  0.54568962453E+03  0.00000000000E+00 0. -1.
         -1    1    3    3    0  502 -0.19952540375E+03  0.93990625290E+02  0.28854696805E+04  0.28938866428E+04  0.00000000000E+00 0.  1.
         13    1    5    5    0    0 -0.17350644926E+03 -0.85021643715E+02  0.57440582553E+03  0.60603235907E+03  0.00000000000E+00 0. -1.
        -13    1    5    5    0    0 -0.12264066000E+02  0.18639402648E+02  0.70719104312E+02  0.74155420305E+02  0.00000000000E+00 0.  1.
          1    1    6    6  503    0  0.31582243277E+03 -0.20605927054E+02 -0.25341294363E+01  0.31650408384E+03  0.00000000000E+00 0. -1.
         -1    1    6    6    0  503  0.11153249137E+03 -0.63613935033E+02 -0.13597077267E+01  0.12840591173E+03  0.00000000000E+00 0.  1.
<mgrwt>
<rscale>  0 0.20710238E+04</rscale>
<asrwt>0</asrwt>
<pdfrwt beam="1">  1        1 0.38220019E-01 0.20710238E+04</pdfrwt>
<pdfrwt beam="2">  1       -1 0.66403747E+00 0.20710238E+04</pdfrwt>
<totfact> 0.26726547E-02</totfact>
</mgrwt>
</event>
<event>
12    3  0.4806716E-008  0.1784180E+04  0.7818608E-02  0.8714758E-01
         -1   -1    0    0    0  501 -0.00000000000E+00  0.00000000000E+00  0.32440352170E+03  0.32440352170E+03  0.00000000000E+00 0.  1.
          1   -1    0    0  501    0  0.00000000000E+00 -0.00000000000E+00 -0.24531941477E+04  0.24531941477E+04  0.00000000000E+00 0. -1.
         23    2    1    2    0    0  0.30560465976E+03  0.53655186751E+03 -0.41895143384E+03  0.75174584429E+03  0.91210722523E+02 0.  0.
        254    2    1    2    0    0 -0.30560465976E+03 -0.53655186751E+03 -0.17098391921E+04  0.20258518251E+04  0.89400416084E+03 0.  0.
         23    2    4    4    0    0 -0.51440180514E+03 -0.17119606100E+03 -0.50369220555E+03  0.74522900074E+03  0.87994983793E+02 0.  0.
         23    2    4    4    0    0  0.20879714538E+03 -0.36535580651E+03 -0.12061469866E+04  0.12806228243E+04  0.90128528815E+02 0.  0.
          2    1    3    3  502    0  0.25645677295E+03  0.50205565461E+03 -0.38607290295E+03  0.68328781864E+03  0.00000000000E+00 0. -1.
         -2    1    3    3    0  502  0.49147886811E+02  0.34496212902E+02 -0.32878530891E+02  0.68458025651E+02  0.00000000000E+00 0.  1.
         13    1    5    5    0    0 -0.29221073153E+03 -0.13414187742E+03 -0.26120116611E+03  0.41425499886E+03  0.00000000000E+00 0.  1.
        -13    1    5    5    0    0 -0.22219107361E+03 -0.37054183584E+02 -0.24249103944E+03  0.33097400188E+03  0.00000000000E+00 0. -1.
          1    1    6    6  503    0  0.72328984509E+02 -0.16287188211E+03 -0.39116644925E+03  0.42984872107E+03  0.00000000000E+00 0. -1.
         -1    1    6    6    0  503  0.13646816087E+03 -0.20248392440E+03 -0.81498053733E+03  0.85077410327E+03  0.00000000000E+00 0.  1.
<mgrwt>
<rscale>  0 0.17841803E+04</rscale>
<asrwt>0</asrwt>
<pdfrwt beam="1">  1        1 0.37741446E+00 0.17841803E+04</pdfrwt>
<pdfrwt beam="2">  1       -1 0.49908237E-01 0.17841803E+04</pdfrwt>
<totfact> 0.55616820E+00</totfact>
</mgrwt>
</event>
<event>
12    3  0.4806716E-008  0.2686666E+04  0.7818608E-02  0.8339344E-01
          1   -1    0    0  501    0  0.00000000000E+00  0.00000000000E+00  0.14605975957E+04  0.14605975957E+04  0.00000000000E+00 0. -1.
         -1   -1    0    0    0  501 -0.00000000000E+00 -0.00000000000E+00 -0.12354826722E+04  0.12354826722E+04  0.00000000000E+00 0.  1.
         23    2    1    2    0    0 -0.11067398531E+04 -0.61606388008E+02  0.52733515519E+03  0.12308377978E+04  0.90613845633E+02 0.  0.
        254    2    1    2    0    0  0.11067398531E+04  0.61606388008E+02 -0.30222023164E+03  0.14652424701E+04  0.90935690362E+03 0.  0.
         23    2    4    4    0    0  0.45065562132E+03 -0.33946402405E+03  0.11990583430E+03  0.58325049901E+03  0.86472092809E+02 0.  0.
         23    2    4    4    0    0  0.65608423182E+03  0.40107041206E+03 -0.42212606594E+03  0.88199197108E+03  0.91735635600E+02 0.  0.
          1    1    3    3  502    0 -0.62340593040E+03  0.85506987445E+01  0.30955917639E+03  0.69608544891E+03  0.00000000000E+00 0. -1.
         -1    1    3    3    0  502 -0.48333392274E+03 -0.70157086752E+02  0.21777597880E+03  0.53475234889E+03  0.00000000000E+00 0.  1.
         13    1    5    5    0    0  0.25964757829E+03 -0.23808545432E+03  0.99402941617E+02  0.36603619121E+03  0.00000000000E+00 0. -1.
        -13    1    5    5    0    0  0.19100804303E+03 -0.10137856973E+03  0.20502892681E+02  0.21721430780E+03  0.00000000000E+00 0.  1.
          2    1    6    6  503    0  0.23659826778E+03  0.97155830724E+02 -0.12281202071E+03  0.28372660818E+03  0.00000000000E+00 0. -1.
         -2    1    6    6    0  503  0.41948596403E+03  0.30391458134E+03 -0.29931404523E+03  0.59826536290E+03  0.00000000000E+00 0.  1.
<mgrwt>
<rscale>  0 0.26866656E+04</rscale>
<asrwt>0</asrwt>
<pdfrwt beam="1">  1        1 0.22470732E+00 0.26866656E+04</pdfrwt>
<pdfrwt beam="2">  1       -1 0.19007426E+00 0.26866656E+04</pdfrwt>
<totfact> 0.10750245E+00</totfact>
</mgrwt>
</event>
<event>
12    3  0.4806716E-008  0.1760325E+04  0.7818608E-02  0.8727688E-01
          2   -1    0    0  501    0  0.00000000000E+00  0.00000000000E+00  0.20299734706E+04  0.20299734706E+04  0.00000000000E+00 0. -1.
         -2   -1    0    0    0  501 -0.00000000000E+00 -0.00000000000E+00 -0.38162362692E+03  0.38162362692E+03  0.00000000000E+00 0.  1.
         23    2    1    2    0    0 -0.31015087689E+03  0.52613849649E+03  0.32407503850E+03  0.69573830280E+03  0.77536259149E+02 0.  0.
        254    2    1    2    0    0  0.31015087689E+03 -0.52613849649E+03  0.13242748052E+04  0.17158587947E+04  0.90413072053E+03 0.  0.
         23    2    4    4    0    0  0.14938116315E+03 -0.47482465783E+03  0.15167149900E+03  0.52839654032E+03  0.91790373281E+02 0.  0.
         23    2    4    4    0    0  0.16076971374E+03 -0.51313838661E+02  0.11726033062E+04  0.11874622544E+04  0.81166994800E+02 0.  0.
          1    1    3    3  502    0 -0.12539931760E+03  0.17895639265E+03  0.15359350516E+03  0.26709800477E+03  0.00000000000E+00 0. -1.
         -1    1    3    3    0  502 -0.18475155929E+03  0.34718210384E+03  0.17048153334E+03  0.42864029804E+03  0.00000000000E+00 0.  1.
         13    1    5    5    0    0  0.25461667745E+02 -0.14453644624E+02  0.11556588630E+02  0.31476326152E+02  0.00000000000E+00 0.  1.
        -13    1    5    5    0    0  0.12391949541E+03 -0.46037101320E+03  0.14011491037E+03  0.49692021417E+03  0.00000000000E+00 0. -1.
          4    1    6    6  503    0  0.92259434860E+02 -0.64167757952E+02  0.58119676919E+03  0.59196198273E+03  0.00000000000E+00 0. -1.
         -4    1    6    6    0  503  0.68510278883E+02  0.12853919291E+02  0.59140653697E+03  0.59550027164E+03  0.00000000000E+00 0.  1.
<mgrwt>
<rscale>  0 0.17603248E+04</rscale>
<asrwt>0</asrwt>
<pdfrwt beam="1">  1        2 0.31230360E+00 0.17603248E+04</pdfrwt>
<pdfrwt beam="2">  1       -2 0.58711328E-01 0.17603248E+04</pdfrwt>
<totfact> 0.16511081E+01</totfact>
</mgrwt>
</event>
<event>
12    3  0.4806716E-008  0.3025361E+04  0.7818608E-02  0.8236526E-01
         -2   -1    0    0    0  501 -0.00000000000E+00  0.00000000000E+00  0.96726075946E+03  0.96726075946E+03  0.00000000000E+00 0.  1.
          2   -1    0    0  501    0  0.00000000000E+00 -0.00000000000E+00 -0.23656518943E+04  0.23656518943E+04  0.00000000000E+00 0. -1.
         23    2    1    2    0    0 -0.39296075843E+02  0.12212121722E+04 -0.13273402104E+04  0.18064138426E+04  0.91627426357E+02 0.  0.
        254    2    1    2    0    0  0.39296075843E+02 -0.12212121722E+04 -0.71050924368E+02  0.15264988111E+04  0.91227574523E+03 0.  0.
         23    2    4    4    0    0  0.36918410951E+03 -0.67812086315E+03 -0.31477036498E+03  0.83999977647E+03  0.10185494609E+03 0.  0.
         23    2    4    4    0    0 -0.32988803367E+03 -0.54309130909E+03  0.24371944061E+03  0.68649903467E+03  0.90041513219E+02 0.  0.
          4    1    3    3  502    0 -0.37689323573E+02  0.44495276255E+03 -0.43025703287E+03  0.62010044375E+03  0.00000000000E+00 0.  1.
         -4    1    3    3    0  502 -0.16067522701E+01  0.77625940970E+03 -0.89708317757E+03  0.11863133988E+04  0.00000000000E+00 0. -1.
         13    1    5    5    0    0  0.36966764509E+03 -0.67874000373E+03 -0.31868744755E+03  0.83600469480E+03  0.00000000000E+00 0. -1.
        -13    1    5    5    0    0 -0.48353558147E+00  0.61914058092E+00  0.39170825701E+01  0.39950816736E+01  0.00000000000E+00 0.  1.
          1    1    6    6  503    0 -0.33109045692E+03 -0.54604930749E+03  0.24263105084E+03  0.68312558414E+03  0.00000000000E+00 0. -1.
         -1    1    6    6    0  503  0.12024232508E+01  0.29579983978E+01  0.10883897688E+01  0.33734505309E+01  0.00000000000E+00 0.  1.
<mgrwt>
<rscale>  0 0.30253610E+04</rscale>
<asrwt>0</asrwt>
<pdfrwt beam="1">  1        2 0.36394644E+00 0.30253610E+04</pdfrwt>
<pdfrwt beam="2">  1       -2 0.14880935E+00 0.30253610E+04</pdfrwt>
<totfact> 0.10872325E+00</totfact>
</mgrwt>
</event>
<event>
12    3  0.4806716E-008  0.2341313E+04  0.7818608E-02  0.8461808E-01
          3   -1    0    0  501    0  0.00000000000E+00  0.00000000000E+00  0.55497558332E+03  0.55497558332E+03  0.00000000000E+00 0. -1.
         -3   -1    0    0    0  501 -0.00000000000E+00 -0.00000000000E+00 -0.24693636919E+04  0.24693636919E+04  0.00000000000E+00 0.  1.
         23    2    1    2    0    0 -0.97165898178E+03 -0.14747427131E+03 -0.62204954424E+03  0.11668819721E+04  0.93797994762E+02 0.  0.
        254    2    1    2    0    0  0.97165898178E+03  0.14747427131E+03 -0.12923385643E+04  0.18574573031E+04  0.90229642045E+03 0.  0.
         23    2    4    4    0    0  0.10214723097E+04 -0.22517395473E+02 -0.73039004868E+03  0.12597826874E+04  0.98336582792E+02 0.  0.
         23    2    4    4    0    0 -0.49813327956E+02  0.16999166678E+03 -0.56194851564E+03  0.59767461572E+03  0.10025107291E+03 0.  0.
          4    1    3    3  502    0 -0.56038797721E+03 -0.10349266079E+03 -0.41037385407E+03  0.70224790205E+03  0.00000000000E+00 0. -1.
         -4    1    3    3    0  502 -0.41127100457E+03 -0.43981610519E+02 -0.21167569017E+03  0.46463407007E+03  0.00000000000E+00 0.  1.
         13    1    5    5    0    0  0.48055338104E+03  0.37678038268E+02 -0.35400518398E+03  0.59805589779E+03  0.00000000000E+00 0.  1.
        -13    1    5    5    0    0  0.54091892870E+03 -0.60195433741E+02 -0.37638486471E+03  0.66172678958E+03  0.00000000000E+00 0. -1.
          4    1    6    6  503    0 -0.38239250222E+02  0.16538157245E+03 -0.55987944283E+03  0.58504554974E+03  0.00000000000E+00 0. -1.
         -4    1    6    6    0  503 -0.11574077734E+02  0.46100943290E+01 -0.20690728114E+01  0.12629065976E+02  0.00000000000E+00 0.  1.
<mgrwt>
<rscale>  0 0.23413129E+04</rscale>
<asrwt>0</asrwt>
<pdfrwt beam="1">  1        3 0.85380859E-01 0.23413129E+04</pdfrwt>
<pdfrwt beam="2">  1       -3 0.37990210E+00 0.23413129E+04</pdfrwt>
<totfact> 0.40514205E-02</totfact>
</mgrwt>
</event>
<event>
12    3  0.4806716E-008  0.1445162E+04  0.7818608E-02  0.8921761E-01
         -2   -1    0    0    0  501 -0.00000000000E+00  0.00000000000E+00  0.16597060774E+04  0.16597060774E+04  0.00000000000E+00 0. -1.
          2   -1    0    0  501    0  0.00000000000E+00 -0.00000000000E+00 -0.31458802107E+03  0.31458802107E+03  0.00000000000E+00 0.  1.
         23    2    1    2    0    0  0.39976489630E+03  0.92864624128E+02  0.63579810693E+03  0.76233150058E+03  0.92055816068E+02 0.  0.
        254    2    1    2    0    0 -0.39976489630E+03 -0.92864624128E+02  0.70931994942E+03  0.12119625979E+04  0.89290690296E+03 0.  0.
         23    2    4    4    0    0 -0.61378755160E+03 -0.20067191261E+03  0.27561797841E+03  0.70800437394E+03  0.91107346011E+02 0.  0.
         23    2    4    4    0    0  0.21402265530E+03  0.10780728848E+03  0.43370197101E+03  0.50395822397E+03  0.91915088060E+02 0.  0.
          3    1    3    3  502    0  0.36324864514E+03  0.56176752945E+02  0.53626166318E+03  0.65013996736E+03  0.00000000000E+00 0. -1.
         -3    1    3    3    0  502  0.36516251158E+02  0.36687871183E+02  0.99536443754E+02  0.11219153322E+03  0.00000000000E+00 0.  1.
         13    1    5    5    0    0 -0.59144389968E+03 -0.19564523549E+03  0.24418001434E+03  0.66910897771E+03  0.00000000000E+00 0.  1.
        -13    1    5    5    0    0 -0.22343651913E+02 -0.50266771103E+01  0.31437964070E+02  0.38895396237E+02  0.00000000000E+00 0. -1.
          1    1    6    6  503    0  0.45822481793E+02  0.56998340930E+02  0.18942683474E+03  0.20305426965E+03  0.00000000000E+00 0. -1.
         -1    1    6    6    0  503  0.16820017350E+03  0.50808947547E+02  0.24427513628E+03  0.30090395431E+03  0.00000000000E+00 0.  1.
<mgrwt>
<rscale>  0 0.14451625E+04</rscale>
<asrwt>0</asrwt>
<pdfrwt beam="1">  1        2 0.48398158E-01 0.14451625E+04</pdfrwt>
<pdfrwt beam="2">  1       -2 0.25533939E+00 0.14451625E+04</pdfrwt>
<totfact> 0.60259163E+00</totfact>
</mgrwt>
</event>
<event>
12    3  0.4806716E-008  0.4009834E+04  0.7818608E-02  0.8002566E-01
         -2   -1    0    0    0  501 -0.00000000000E+00  0.00000000000E+00  0.25343339613E+04  0.25343339613E+04  0.00000000000E+00 0. -1.
          2   -1    0    0  501    0  0.00000000000E+00 -0.00000000000E+00 -0.15860943691E+04  0.15860943691E+04  0.00000000000E+00 0.  1.
         23    2    1    2    0    0 -0.64471690527E+03 -0.92251338228E+03  0.20203478374E+04  0.23143918855E+04  0.88958343819E+02 0.  0.
        254    2    1    2    0    0  0.64471690527E+03  0.92251338228E+03 -0.10721082452E+04  0.18060364449E+04  0.91959813090E+03 0.  0.
         23    2    4    4    0    0  0.12580830265E+03 -0.15291568200E+03 -0.34146806986E+03  0.40337683732E+03  0.83075239013E+02 0.  0.
         23    2    4    4    0    0  0.51890860262E+03  0.10754290643E+04 -0.73064017538E+03  0.14026596076E+04  0.88346469501E+02 0.  0.
          3    1    3    3  502    0 -0.18619449819E+03 -0.32726810978E+03  0.72293368403E+03  0.81511098529E+03  0.00000000000E+00 0. -1.
         -3    1    3    3    0  502 -0.45852240708E+03 -0.59524527250E+03  0.12974141534E+04  0.14992809002E+04  0.00000000000E+00 0.  1.
         13    1    5    5    0    0  0.23771883219E+00 -0.23794220369E+02 -0.93552996358E+01  0.25568399724E+02  0.00000000000E+00 0.  1.
        -13    1    5    5    0    0  0.12557058382E+03 -0.12912146163E+03 -0.33211277022E+03  0.37780843760E+03  0.00000000000E+00 0. -1.
          1    1    6    6  503    0  0.48208894793E+03  0.94273333190E+03 -0.62998880601E+03  0.12320883834E+04  0.00000000000E+00 0. -1.
         -1    1    6    6    0  503  0.36819654688E+02  0.13269573238E+03 -0.10065136937E+03  0.17057122418E+03  0.00000000000E+00 0.  1.
<mgrwt>
<rscale>  0 0.40098343E+04</rscale>
<asrwt>0</asrwt>
<pdfrwt beam="1">  1        2 0.24401452E+00 0.40098343E+04</pdfrwt>
<pdfrwt beam="2">  1       -2 0.38989753E+00 0.40098343E+04</pdfrwt>
<totfact> 0.77274168E-02</totfact>
</mgrwt>
</event>
<event>
12    3  0.4806716E-008  0.2719230E+04  0.7818608E-02  0.8328792E-01
          2   -1    0    0  501    0  0.00000000000E+00  0.00000000000E+00  0.11909683798E+04  0.11909683798E+04  0.00000000000E+00 0. -1.
         -2   -1    0    0    0  501 -0.00000000000E+00 -0.00000000000E+00 -0.15521424911E+04  0.15521424911E+04  0.00000000000E+00 0.  1.
         23    2    1    2    0    0 -0.31676191936E+02 -0.11472425405E+04  0.23480102992E+03  0.11749347794E+04  0.90395709777E+02 0.  0.
        254    2    1    2    0    0  0.31676191936E+02  0.11472425405E+04 -0.59597514125E+03  0.15681760914E+04  0.88702934385E+03 0.  0.
         23    2    4    4    0    0 -0.31447766644E+03  0.99322627263E+03 -0.53211311698E+03  0.11734313442E+04  0.91663073014E+02 0.  0.
         23    2    4    4    0    0  0.34615385838E+03  0.15401626788E+03 -0.63862024272E+02  0.39474474723E+03  0.90562425330E+02 0.  0.
          1    1    3    3  502    0 -0.17804153371E+02 -0.44411592576E+03  0.46499110951E+02  0.44689832256E+03  0.00000000000E+00 0. -1.
         -1    1    3    3    0  502 -0.13872038564E+02 -0.70312661476E+03  0.18830191897E+03  0.72803645687E+03  0.00000000000E+00 0.  1.
         13    1    5    5    0    0  0.64035210264E+01  0.22031103624E+02 -0.96799776826E+01  0.24901336839E+02  0.00000000000E+00 0. -1.
        -13    1    5    5    0    0 -0.32088118747E+03  0.97119516901E+03 -0.52243313929E+03  0.11485300074E+04  0.00000000000E+00 0.  1.
          4    1    6    6  503    0  0.75782229505E+02  0.14185801617E+01  0.75642412396E+01  0.76172018642E+02  0.00000000000E+00 0. -1.
         -4    1    6    6    0  503  0.27037162887E+03  0.15259768772E+03 -0.71426265512E+02  0.31857272859E+03  0.00000000000E+00 0.  1.
<mgrwt>
<rscale>  0 0.27192298E+04</rscale>
<asrwt>0</asrwt>
<pdfrwt beam="1">  1        2 0.18322590E+00 0.27192298E+04</pdfrwt>
<pdfrwt beam="2">  1       -2 0.23879115E+00 0.27192298E+04</pdfrwt>
<totfact> 0.12659997E+00</totfact>
</mgrwt>
</event>
<event>
12    3  0.4806716E-008  0.3027118E+04  0.7818608E-02  0.8236029E-01
         -1   -1    0    0    0  501 -0.00000000000E+00  0.00000000000E+00  0.18512546020E+04  0.18512546020E+04  0.00000000000E+00 0.  1.
          1   -1    0    0  501    0  0.00000000000E+00 -0.00000000000E+00 -0.12374640131E+04  0.12374640131E+04  0.00000000000E+00 0. -1.
         23    2    1    2    0    0 -0.89513828576E+03  0.78772754921E+03 -0.42765066542E+03  0.12696586426E+04  0.85794724446E+02 0.  0.
        254    2    1    2    0    0  0.89513828576E+03 -0.78772754921E+03  0.10414412544E+04  0.18190599724E+04  0.89587502176E+03 0.  0.
         23    2    4    4    0    0  0.49293494458E+03 -0.30148113102E+03  0.10259797541E+04  0.11810290425E+04  0.91210806887E+02 0.  0.
         23    2    4    4    0    0  0.40220334118E+03 -0.48624641819E+03  0.15461500212E+02  0.63803092996E+03  0.92958607661E+02 0.  0.
          4    1    3    3  502    0 -0.81973670951E+03  0.73005529734E+03 -0.41656406527E+03  0.11740845926E+04  0.00000000000E+00 0. -1.
         -4    1    3    3    0  502 -0.75401576244E+02  0.57672251867E+02 -0.11086600151E+02  0.95574050026E+02  0.00000000000E+00 0.  1.
         13    1    5    5    0    0  0.30965540702E+03 -0.16347421309E+03  0.69613433331E+03  0.77923892322E+03  0.00000000000E+00 0.  1.
        -13    1    5    5    0    0  0.18327953756E+03 -0.13800691793E+03  0.32984542084E+03  0.40179011926E+03  0.00000000000E+00 0. -1.
          3    1    6    6  503    0  0.34401740218E+02 -0.45894483517E+02  0.28684942786E+02  0.64129628800E+02  0.00000000000E+00 0. -1.
         -3    1    6    6    0  503  0.36780160096E+03 -0.44035193467E+03 -0.13223442574E+02  0.57390130116E+03  0.00000000000E+00 0.  1.
<mgrwt>
<rscale>  0 0.30271181E+04</rscale>
<asrwt>0</asrwt>
<pdfrwt beam="1">  1        1 0.19037908E+00 0.30271181E+04</pdfrwt>
<pdfrwt beam="2">  1       -1 0.28480840E+00 0.30271181E+04</pdfrwt>
<totfact> 0.35294309E-01</totfact>
</mgrwt>
</event>
<event>
12    3  0.4806716E-008  0.1895857E+04  0.7818608E-02  0.8656921E-01
         -2   -1    0    0    0  501 -0.00000000000E+00  0.00000000000E+00  0.71324546897E+03  0.71324546897E+03  0.00000000000E+00 0. -1.
          2   -1    0    0  501    0  0.00000000000E+00 -0.00000000000E+00 -0.12598308294E+04  0.12598308294E+04  0.00000000000E+00 0.  1.
         23    2    1    2    0    0  0.66737299536E+03  0.18676170335E+03  0.19686818965E+02  0.69923525983E+03  0.90971033670E+02 0.  0.
        254    2    1    2    0    0 -0.66737299536E+03 -0.18676170335E+03 -0.56627217937E+03  0.12738410385E+04  0.90649884804E+03 0.  0.
         23    2    4    4    0    0 -0.55163396666E+03  0.25692210407E+03 -0.51733019783E+03  0.80379783610E+03  0.90285253495E+02 0.  0.
         23    2    4    4    0    0 -0.11573902870E+03 -0.44368380742E+03 -0.48941981547E+02  0.47004320242E+03  0.91073875758E+02 0.  0.
          1    1    3    3  502    0  0.62809658009E+03  0.19703516100E+03  0.21071968148E+02  0.65861384470E+03  0.00000000000E+00 0. -1.
         -1    1    3    3    0  502  0.39276415274E+02 -0.10273457645E+02 -0.13851491826E+01  0.40621415128E+02  0.00000000000E+00 0.  1.
         13    1    5    5    0    0 -0.25839893580E+03  0.97288945852E+02 -0.18260129266E+03  0.33102625438E+03  0.00000000000E+00 0.  1.
        -13    1    5    5    0    0 -0.29323503086E+03  0.15963315822E+03 -0.33472890517E+03  0.47277158172E+03  0.00000000000E+00 0. -1.
          3    1    6    6  503    0 -0.11298188942E+03 -0.31852330174E+03 -0.70896964858E+01  0.33804180938E+03  0.00000000000E+00 0. -1.
         -3    1    6    6    0  503 -0.27571392759E+01 -0.12516050568E+03 -0.41852285061E+02  0.13200139304E+03  0.00000000000E+00 0.  1.
<mgrwt>
<rscale>  0 0.18958572E+04</rscale>
<asrwt>0</asrwt>
<pdfrwt beam="1">  1        2 0.19382012E+00 0.18958572E+04</pdfrwt>
<pdfrwt beam="2">  1       -2 0.10973007E+00 0.18958572E+04</pdfrwt>
<totfact> 0.10809193E+01</totfact>
</mgrwt>
</event>
<event>
12    3  0.4806716E-008  0.1642487E+04  0.7818608E-02  0.8794864E-01
          2   -1    0    0  501    0  0.00000000000E+00  0.00000000000E+00  0.29605078051E+04  0.29605078051E+04  0.00000000000E+00 0. -1.
         -2   -1    0    0    0  501 -0.00000000000E+00 -0.00000000000E+00 -0.22781247468E+03  0.22781247468E+03  0.00000000000E+00 0.  1.
         23    2    1    2    0    0  0.29961559228E+02  0.34879841015E+03  0.10386053735E+03  0.37660004408E+03  0.92100792758E+02 0.  0.
        254    2    1    2    0    0 -0.29961559228E+02 -0.34879841015E+03  0.26288347931E+04  0.28117202357E+04  0.93404512133E+03 0.  0.
         23    2    4    4    0    0  0.56296592833E+02 -0.69487135716E+02 -0.33355757865E+02  0.13201865066E+03  0.91206080631E+02 0.  0.
         23    2    4    4    0    0 -0.86258152061E+02 -0.27931127443E+03  0.26621905509E+04  0.26797015850E+04  0.89926629043E+02 0.  0.
          1    1    3    3  502    0  0.93013849728E+01  0.23332274200E+03  0.11205956764E+03  0.25900456443E+03  0.00000000000E+00 0. -1.
         -1    1    3    3    0  502  0.20660174255E+02  0.11547566815E+03 -0.81990302968E+01  0.11759547964E+03  0.00000000000E+00 0.  1.
         13    1    5    5    0    0  0.54060223584E+02 -0.30992377496E+02  0.20662003656E+02  0.65650237105E+02  0.00000000000E+00 0.  1.
        -13    1    5    5    0    0  0.22363692493E+01 -0.38494758220E+02 -0.54017761521E+02  0.66368413553E+02  0.00000000000E+00 0. -1.
          1    1    6    6  503    0 -0.33660277216E+02 -0.23384889601E+03  0.20334425704E+04  0.20471216397E+04  0.00000000000E+00 0. -1.
         -1    1    6    6    0  503 -0.52597874845E+02 -0.45462378425E+02  0.62874798052E+03  0.63257994538E+03  0.00000000000E+00 0.  1.
<mgrwt>
<rscale>  0 0.16424867E+04</rscale>
<asrwt>0</asrwt>
<pdfrwt beam="1">  1        2 0.45546271E+00 0.16424867E+04</pdfrwt>
<pdfrwt beam="2">  1       -2 0.35048075E-01 0.16424867E+04</pdfrwt>
<totfact> 0.13528521E+01</totfact>
</mgrwt>
</event>
<event>
12    3  0.4806716E-008  0.1579847E+04  0.7818608E-02  0.8833025E-01
          2   -1    0    0  501    0  0.00000000000E+00  0.00000000000E+00  0.55769754236E+03  0.55769754236E+03  0.00000000000E+00 0.  1.
         -2   -1    0    0    0  501 -0.00000000000E+00 -0.00000000000E+00 -0.11188491503E+04  0.11188491503E+04  0.00000000000E+00 0. -1.
         23    2    1    2    0    0  0.44806148317E+03 -0.87762698610E+02  0.11815017100E+03  0.48049347159E+03  0.91940901492E+02 0.  0.
        254    2    1    2    0    0 -0.44806148317E+03  0.87762698610E+02 -0.67930177890E+03  0.11960532210E+04  0.87214162654E+03 0.  0.
         23    2    4    4    0    0 -0.56939258581E+03  0.34329126134E+03 -0.36746460849E+03  0.76495374897E+03  0.89817552236E+02 0.  0.
         23    2    4    4    0    0  0.12133110264E+03 -0.25552856273E+03 -0.31183717041E+03  0.43109947206E+03  0.92672817592E+02 0.  0.
          4    1    3    3  502    0  0.49771569451E+02  0.25412700139E+01 -0.13087348289E+02  0.51526166790E+02  0.00000000000E+00 0.  1.
         -4    1    3    3    0  502  0.39828991372E+03 -0.90303968624E+02  0.13123751929E+03  0.42896730480E+03  0.00000000000E+00 0. -1.
         13    1    5    5    0    0 -0.44290435622E+03  0.26100146006E+03 -0.32495923046E+03  0.60818133182E+03  0.00000000000E+00 0.  1.
        -13    1    5    5    0    0 -0.12648822958E+03  0.82289801282E+02 -0.42505378032E+02  0.15677241715E+03  0.00000000000E+00 0. -1.
          4    1    6    6  503    0  0.11369879150E+03 -0.20476272073E+03 -0.29584054383E+03  0.37732852313E+03  0.00000000000E+00 0. -1.
         -4    1    6    6    0  503  0.76323111335E+01 -0.50765841995E+02 -0.15996626578E+02  0.53770948928E+02  0.00000000000E+00 0.  1.
<mgrwt>
<rscale>  0 0.15798474E+04</rscale>
<asrwt>0</asrwt>
<pdfrwt beam="1">  1        2 0.85799622E-01 0.15798474E+04</pdfrwt>
<pdfrwt beam="2">  1       -2 0.17213064E+00 0.15798474E+04</pdfrwt>
<totfact> 0.10694447E+01</totfact>
</mgrwt>
</event>
<event>
12    3  0.4806716E-008  0.2426755E+04  0.7818608E-02  0.8429554E-01
          2   -1    0    0  501    0  0.00000000000E+00  0.00000000000E+00  0.14690858037E+04  0.14690858037E+04  0.00000000000E+00 0. -1.
         -2   -1    0    0    0  501 -0.00000000000E+00 -0.00000000000E+00 -0.10021777737E+04  0.10021777737E+04  0.00000000000E+00 0.  1.
         23    2    1    2    0    0 -0.90010587858E+03 -0.30211269796E+03  0.42766166136E+03  0.10448658896E+04  0.85950891716E+02 0.  0.
        254    2    1    2    0    0  0.90010587858E+03  0.30211269796E+03  0.39246368602E+02  0.14263976877E+04  0.10637703752E+04 0.  0.
         23    2    4    4    0    0  0.70761413288E+01  0.21131321274E+03 -0.37030830872E+03  0.43565410052E+03  0.89235117173E+02 0.  0.
         23    2    4    4    0    0  0.89302973725E+03  0.90799485225E+02  0.40955467732E+03  0.99074358723E+03  0.89950896528E+02 0.  0.
          3    1    3    3  502    0 -0.11653471049E+03 -0.50465710527E+02  0.88197541396E+02  0.15461543582E+03  0.00000000000E+00 0. -1.
         -3    1    3    3    0  502 -0.78357116809E+03 -0.25164698744E+03  0.33946411996E+03  0.89025045380E+03  0.00000000000E+00 0.  1.
         13    1    5    5    0    0  0.27276693466E+02  0.20704459634E+03 -0.33575414437E+03  0.39540147742E+03  0.00000000000E+00 0. -1.
        -13    1    5    5    0    0 -0.20200552137E+02  0.42686163938E+01 -0.34554164349E+02  0.40252623100E+02  0.00000000000E+00 0.  1.
          1    1    6    6  503    0  0.52954417267E+03  0.19029730559E+02  0.21061462502E+03  0.57020845463E+03  0.00000000000E+00 0. -1.
         -1    1    6    6    0  503  0.36348556458E+03  0.71769754666E+02  0.19894005230E+03  0.42053513260E+03  0.00000000000E+00 0.  1.
<mgrwt>
<rscale>  0 0.24267552E+04</rscale>
<asrwt>0</asrwt>
<pdfrwt beam="1">  1        2 0.22601320E+00 0.24267552E+04</pdfrwt>
<pdfrwt beam="2">  1       -2 0.15418120E+00 0.24267552E+04</pdfrwt>
<totfact> 0.33024282E+00</totfact>
</mgrwt>
</event>
<event>
12    3  0.4806716E-008  0.1379632E+04  0.7818608E-02  0.8968695E-01
         -3   -1    0    0    0  501 -0.00000000000E+00  0.00000000000E+00  0.10722271249E+04  0.10722271249E+04  0.00000000000E+00 0.  1.
          3   -1    0    0  501    0  0.00000000000E+00 -0.00000000000E+00 -0.44379246942E+03  0.44379246942E+03  0.00000000000E+00 0. -1.
         23    2    1    2    0    0  0.86062288007E+02 -0.20444383286E+02 -0.21890145936E+03  0.25313278168E+03  0.91288915126E+02 0.  0.
        254    2    1    2    0    0 -0.86062288007E+02  0.20444383286E+02  0.84733611489E+03  0.12628868127E+04  0.93224456010E+03 0.  0.
         23    2    4    4    0    0  0.25742318881E+03 -0.24312625973E+03  0.70858699063E+03  0.79743065336E+03  0.91777161236E+02 0.  0.
         23    2    4    4    0    0 -0.34348547682E+03  0.26357064301E+03  0.13874912427E+03  0.46545615933E+03  0.99731440025E+02 0.  0.
          1    1    3    3  502    0  0.98250348188E+02  0.55470982572E+01 -0.16895586053E+03  0.19552489362E+03  0.00000000000E+00 0. -1.
         -1    1    3    3    0  502 -0.12188060182E+02 -0.25991481543E+02 -0.49945598830E+02  0.57607888056E+02  0.00000000000E+00 0.  1.
         13    1    5    5    0    0  0.20693367040E+03 -0.21181885349E+03  0.50566745877E+03  0.58599347223E+03  0.00000000000E+00 0.  1.
        -13    1    5    5    0    0  0.50489518411E+02 -0.31307406241E+02  0.20291953185E+03  0.21143718113E+03  0.00000000000E+00 0. -1.
          4    1    6    6  503    0 -0.17534871620E+03  0.80258711333E+02  0.86152489205E+02  0.21121288884E+03  0.00000000000E+00 0. -1.
         -4    1    6    6    0  503 -0.16813676062E+03  0.18331193168E+03  0.52596635064E+02  0.25424327049E+03  0.00000000000E+00 0.  1.
<mgrwt>
<rscale>  0 0.13796323E+04</rscale>
<asrwt>0</asrwt>
<pdfrwt beam="1">  1        3 0.68275765E-01 0.13796323E+04</pdfrwt>
<pdfrwt beam="2">  1       -3 0.16495802E+00 0.13796323E+04</pdfrwt>
<totfact> 0.13201235E+00</totfact>
</mgrwt>
</event>
<event>
12    3  0.4806716E-008  0.1930375E+04  0.7818608E-02  0.8639883E-01
         -1   -1    0    0    0  501 -0.00000000000E+00  0.00000000000E+00  0.26367618371E+03  0.26367618371E+03  0.00000000000E+00 0.  1.
          1   -1    0    0  501    0  0.00000000000E+00 -0.00000000000E+00 -0.35330726541E+04  0.35330726541E+04  0.00000000000E+00 0. -1.
         23    2    1    2    0    0 -0.33735902115E+03  0.10450855821E+03  0.25334531332E+02  0.36611855873E+03  0.93101088520E+02 0.  0.
        254    2    1    2    0    0  0.33735902115E+03 -0.10450855821E+03 -0.32947310017E+04  0.34306302791E+04  0.88839101197E+03 0.  0.
         23    2    4    4    0    0  0.55573817730E+03 -0.29989637855E+03 -0.19633590897E+04  0.20643620952E+04  0.89605721060E+02 0.  0.
         23    2    4    4    0    0 -0.21837915616E+03  0.19538782034E+03 -0.13313719120E+04  0.13662681839E+04  0.90949030193E+02 0.  0.
          2    1    3    3  502    0 -0.57504030092E+01  0.89499966041E+01 -0.15296950527E+02  0.18632398381E+02  0.00000000000E+00 0. -1.
         -2    1    3    3    0  502 -0.33160861814E+03  0.95558561603E+02  0.40631481859E+02  0.34748616035E+03  0.00000000000E+00 0.  1.
         13    1    5    5    0    0  0.37885801964E+03 -0.18527234031E+03 -0.14291184517E+04  0.14900465724E+04  0.00000000000E+00 0. -1.
        -13    1    5    5    0    0  0.17688015767E+03 -0.11462403824E+03 -0.53424063803E+03  0.57431552272E+03  0.00000000000E+00 0.  1.
          3    1    6    6  503    0 -0.20553341640E+02 -0.52484010636E+01 -0.50547967010E+02  0.54818633102E+02  0.00000000000E+00 0. -1.
         -3    1    6    6    0  503 -0.19782581452E+03  0.20063622141E+03 -0.12808239450E+04  0.13114495508E+04  0.00000000000E+00 0.  1.
<mgrwt>
<rscale>  0 0.19303752E+04</rscale>
<asrwt>0</asrwt>
<pdfrwt beam="1">  1        1 0.54354960E+00 0.19303752E+04</pdfrwt>
<pdfrwt beam="2">  1       -1 0.40565569E-01 0.19303752E+04</pdfrwt>
<totfact> 0.13102736E+00</totfact>
</mgrwt>
</event>
<event>
12    3  0.4806716E-008  0.2186010E+04  0.7818608E-02  0.8524274E-01
          1   -1    0    0  501    0  0.00000000000E+00  0.00000000000E+00  0.17487758904E+04  0.17487758904E+04  0.00000000000E+00 0. -1.
         -1   -1    0    0    0  501 -0.00000000000E+00 -0.00000000000E+00 -0.68314047496E+03  0.68314047496E+03  0.00000000000E+00 0.  1.
         23    2    1    2    0    0 -0.15332639712E+03 -0.34088673430E+03 -0.47254463950E+03  0.60951103120E+03  0.92154821653E+02 0.  0.
        254    2    1    2    0    0  0.15332639712E+03  0.34088673430E+03  0.15381800550E+04  0.18224053342E+04  0.90302301792E+03 0.  0.
         23    2    4    4    0    0 -0.25617249315E+03  0.21107426635E+03  0.12495414245E+04  0.12960580489E+04  0.90752424256E+02 0.  0.
         23    2    4    4    0    0  0.40949889028E+03  0.12981246795E+03  0.28863863048E+03  0.52634728525E+03  0.95857121371E+02 0.  0.
          2    1    3    3  502    0 -0.46083350682E+02 -0.78639266528E+02 -0.18279079217E+03  0.20425543604E+03  0.00000000000E+00 0. -1.
         -2    1    3    3    0  502 -0.10724304644E+03 -0.26224746777E+03 -0.28975384733E+03  0.40525559516E+03  0.00000000000E+00 0.  1.
         13    1    5    5    0    0 -0.25037601894E+01 -0.74284394658E+01  0.15010145069E+02  0.16933841353E+02  0.00000000000E+00 0.  1.
        -13    1    5    5    0    0 -0.25366873297E+03  0.21850270582E+03  0.12345312794E+04  0.12791242076E+04  0.00000000000E+00 0. -1.
          3    1    6    6  503    0  0.37665575330E+03  0.13222019546E+03  0.23447470652E+03  0.46295801600E+03  0.00000000000E+00 0. -1.
         -3    1    6    6    0  503  0.32843136981E+02 -0.24077275161E+01  0.54163923951E+02  0.63389269252E+02  0.00000000000E+00 0.  1.
<mgrwt>
<rscale>  0 0.21860097E+04</rscale>
<asrwt>0</asrwt>
<pdfrwt beam="1">  1        1 0.26904244E+00 0.21860097E+04</pdfrwt>
<pdfrwt beam="2">  1       -1 0.10509854E+00 0.21860097E+04</pdfrwt>
<totfact> 0.34228878E+00</totfact>
</mgrwt>
</event>
<event>
12    3  0.4806716E-008  0.2373350E+04  0.7818608E-02  0.8449549E-01
          2   -1    0    0  501    0  0.00000000000E+00  0.00000000000E+00  0.22326747373E+04  0.22326747373E+04  0.00000000000E+00 0. -1.
         -2   -1    0    0    0  501 -0.00000000000E+00 -0.00000000000E+00 -0.63072246022E+03  0.63072246022E+03  0.00000000000E+00 0.  1.
         23    2    1    2    0    0 -0.25358630669E+03 -0.56208063642E+03 -0.28435534587E+03  0.68518266190E+03  0.91524098817E+02 0.  0.
        254    2    1    2    0    0  0.25358630669E+03  0.56208063642E+03  0.18863076230E+04  0.21782145356E+04  0.89789835616E+03 0.  0.
         23    2    4    4    0    0 -0.32708411052E+03  0.21205116776E+03  0.78466520821E+03  0.88111649018E+03  0.93365235403E+02 0.  0.
         23    2    4    4    0    0  0.58067041721E+03  0.35002946866E+03  0.11016424148E+04  0.12970980455E+04  0.95648142568E+02 0.  0.
          3    1    3    3  502    0 -0.11007472334E+02 -0.84429197929E+02 -0.61133768498E+02  0.10481789714E+03  0.00000000000E+00 0. -1.
         -3    1    3    3    0  502 -0.24257883436E+03 -0.47765143849E+03 -0.22322157738E+03  0.58036476476E+03  0.00000000000E+00 0.  1.
         13    1    5    5    0    0 -0.31516645219E+03  0.19498299298E+03  0.77300951216E+03  0.85725840097E+03  0.00000000000E+00 0. -1.
        -13    1    5    5    0    0 -0.11917658332E+02  0.17068174775E+02  0.11655696047E+02  0.23858089207E+02  0.00000000000E+00 0.  1.
          2    1    6    6  503    0  0.48484853230E+02  0.20479240055E+02  0.46393668906E+02  0.70160906354E+02  0.00000000000E+00 0.  1.
         -2    1    6    6    0  503  0.53218556398E+03  0.32955022861E+03  0.10552487458E+04  0.12269371391E+04  0.00000000000E+00 0. -1.
<mgrwt>
<rscale>  0 0.23733505E+04</rscale>
<asrwt>0</asrwt>
<pdfrwt beam="1">  1        2 0.34348842E+00 0.23733505E+04</pdfrwt>
<pdfrwt beam="2">  1       -2 0.97034226E-01 0.23733505E+04</pdfrwt>
<totfact> 0.39550768E+00</totfact>
</mgrwt>
</event>
<event>
12    3  0.4806716E-008  0.1295821E+04  0.7818608E-02  0.9032886E-01
         -2   -1    0    0    0  501 -0.00000000000E+00  0.00000000000E+00  0.18729175175E+03  0.18729175175E+03  0.00000000000E+00 0.  1.
          2   -1    0    0  501    0  0.00000000000E+00 -0.00000000000E+00 -0.22413596819E+04  0.22413596819E+04  0.00000000000E+00 0. -1.
         23    2    1    2    0    0  0.28219687595E+03 -0.15894734129E+03 -0.73810397913E+03  0.81135665525E+03  0.92751301430E+02 0.  0.
        254    2    1    2    0    0 -0.28219687595E+03  0.15894734129E+03 -0.13159639510E+04  0.16172947784E+04  0.88259953871E+03 0.  0.
         23    2    4    4    0    0 -0.58807497402E+03  0.38058606025E+02 -0.88861826132E+03  0.10701291785E+04  0.90848290031E+02 0.  0.
         23    2    4    4    0    0  0.30587809807E+03  0.12088873527E+03 -0.42734568966E+03  0.54716559984E+03  0.92684184107E+02 0.  0.
          4    1    3    3  502    0  0.21781352611E+03 -0.15799076620E+03 -0.63685874853E+03  0.69137029148E+03  0.00000000000E+00 0. -1.
         -4    1    3    3    0  502  0.64383349846E+02 -0.95657509899E+00 -0.10124523060E+03  0.11998636377E+03  0.00000000000E+00 0.  1.
         13    1    5    5    0    0 -0.32910378996E+03  0.66326187084E+02 -0.50622830678E+03  0.60743358999E+03  0.00000000000E+00 0. -1.
        -13    1    5    5    0    0 -0.25897118407E+03 -0.28267581058E+02 -0.38238995454E+03  0.46269558854E+03  0.00000000000E+00 0.  1.
          3    1    6    6  503    0  0.71362627432E+01 -0.12073470267E+02 -0.11388473484E+02  0.18066329415E+02  0.00000000000E+00 0. -1.
         -3    1    6    6    0  503  0.29874183533E+03  0.13296220554E+03 -0.41595721617E+03  0.52909927042E+03  0.00000000000E+00 0.  1.
<mgrwt>
<rscale>  0 0.12958213E+04</rscale>
<asrwt>0</asrwt>
<pdfrwt beam="1">  1        2 0.34482459E+00 0.12958213E+04</pdfrwt>
<pdfrwt beam="2">  1       -2 0.28814114E-01 0.12958213E+04</pdfrwt>
<totfact> 0.53171005E+01</totfact>
</mgrwt>
</event>
<event>
12    3  0.4806716E-008  0.1485269E+04  0.7818608E-02  0.8894309E-01
          1   -1    0    0  501    0  0.00000000000E+00  0.00000000000E+00  0.94862147612E+03  0.94862147612E+03  0.00000000000E+00 0. -1.
         -1   -1    0    0    0  501 -0.00000000000E+00 -0.00000000000E+00 -0.58137586949E+03  0.58137586949E+03  0.00000000000E+00 0.  1.
         23    2    1    2    0    0 -0.30087645332E+03  0.27519793268E+02 -0.24750409645E+03  0.40284927804E+03  0.98718204386E+02 0.  0.
        254    2    1    2    0    0  0.30087645332E+03 -0.27519793268E+02  0.61474970307E+03  0.11271480676E+04  0.89513216321E+03 0.  0.
         23    2    4    4    0    0  0.38514685054E+03  0.46986566718E+02 -0.88721039112E+02  0.40894071656E+03  0.93889578485E+02 0.  0.
         23    2    4    4    0    0 -0.84270397219E+02 -0.74506359985E+02  0.70347074218E+03  0.71820735101E+03  0.91093448787E+02 0.  0.
          3    1    3    3  502    0 -0.14152118122E+03  0.58371198609E+02 -0.95234646974E+02  0.18029165134E+03  0.00000000000E+00 0. -1.
         -3    1    3    3    0  502 -0.15935527210E+03 -0.30851405341E+02 -0.15226944948E+03  0.22255762670E+03  0.00000000000E+00 0.  1.
         13    1    5    5    0    0  0.10728232535E+03  0.29001662585E+02 -0.66728725569E+02  0.12962760733E+03  0.00000000000E+00 0. -1.
        -13    1    5    5    0    0  0.27786452519E+03  0.17984904132E+02 -0.21992313544E+02  0.27931310923E+03  0.00000000000E+00 0.  1.
          4    1    6    6  503    0  0.84024213752E+01 -0.14815958407E+02  0.21718379178E+02  0.27600748225E+02  0.00000000000E+00 0. -1.
         -4    1    6    6    0  503 -0.92672818594E+02 -0.59690401578E+02  0.68175236301E+03  0.69060660279E+03  0.00000000000E+00 0.  1.
<mgrwt>
<rscale>  0 0.14852685E+04</rscale>
<asrwt>0</asrwt>
<pdfrwt beam="1">  1        1 0.14594176E+00 0.14852685E+04</pdfrwt>
<pdfrwt beam="2">  1       -1 0.89442442E-01 0.14852685E+04</pdfrwt>
<totfact> 0.19714357E+01</totfact>
</mgrwt>
</event>
<event>
12    3  0.4806716E-008  0.1774727E+04  0.7818608E-02  0.8719856E-01
          1   -1    0    0  501    0  0.00000000000E+00  0.00000000000E+00  0.48438514193E+03  0.48438514193E+03  0.00000000000E+00 0. -1.
         -1   -1    0    0    0  501 -0.00000000000E+00 -0.00000000000E+00 -0.16255942942E+04  0.16255942942E+04  0.00000000000E+00 0.  1.
         23    2    1    2    0    0  0.45981504546E+03  0.26468068914E+02 -0.99970253075E+03  0.11042737081E+04  0.88796608375E+02 0.  0.
        254    2    1    2    0    0 -0.45981504546E+03 -0.26468068914E+02 -0.14150662150E+03  0.10057057280E+04  0.88277372681E+03 0.  0.
         23    2    4    4    0    0  0.87184153421E+02 -0.33717681611E+03 -0.61001740208E+02  0.36484896900E+03  0.90023752103E+02 0.  0.
         23    2    4    4    0    0 -0.54699919888E+03  0.31070874720E+03 -0.80504881289E+02  0.64085675902E+03  0.92023369360E+02 0.  0.
          4    1    3    3  502    0  0.79587391373E+01  0.11033165424E+02 -0.12544000553E+02  0.18504707990E+02  0.00000000000E+00 0. -1.
         -4    1    3    3    0  502  0.45185630632E+03  0.15434903490E+02 -0.98715853019E+03  0.10857690001E+04  0.00000000000E+00 0.  1.
         13    1    5    5    0    0  0.74268452371E+02 -0.29782482926E+03 -0.82976509615E+02  0.31796310020E+03  0.00000000000E+00 0. -1.
        -13    1    5    5    0    0  0.12915701050E+02 -0.39351986850E+02  0.21974769407E+02  0.46885868800E+02  0.00000000000E+00 0.  1.
          3    1    6    6  503    0 -0.15149500889E+03  0.11862761238E+03  0.70514803938E+01  0.19254342760E+03  0.00000000000E+00 0. -1.
         -3    1    6    6    0  503 -0.39550419000E+03  0.19208113481E+03 -0.87556361683E+02  0.44831333142E+03  0.00000000000E+00 0.  1.
<mgrwt>
<rscale>  0 0.17747267E+04</rscale>
<asrwt>0</asrwt>
<pdfrwt beam="1">  1        1 0.74520792E-01 0.17747267E+04</pdfrwt>
<pdfrwt beam="2">  1       -1 0.25009143E+00 0.17747267E+04</pdfrwt>
<totfact> 0.30490733E+00</totfact>
</mgrwt>
</event>
<event>
12    3  0.4806716E-008  0.1427960E+04  0.7818608E-02  0.8933824E-01
         -2   -1    0    0    0  501 -0.00000000000E+00  0.00000000000E+00  0.12796103998E+04  0.12796103998E+04  0.00000000000E+00 0.  1.
          2   -1    0    0  501    0  0.00000000000E+00 -0.00000000000E+00 -0.39837725529E+03  0.39837725529E+03  0.00000000000E+00 0. -1.
         23    2    1    2    0    0  0.31824686273E+03  0.25949244669E+03  0.16333337770E+03  0.45112594363E+03  0.90661067828E+02 0.  0.
        254    2    1    2    0    0 -0.31824686273E+03 -0.25949244669E+03  0.71789976681E+03  0.12268617115E+04  0.90619655061E+03 0.  0.
         23    2    4    4    0    0  0.27493366449E+03 -0.21946446813E+03  0.42211414812E+03  0.55688357337E+03  0.90475342521E+02 0.  0.
         23    2    4    4    0    0 -0.59318052722E+03 -0.40027978562E+02  0.29578561869E+03  0.66997813809E+03  0.88973009130E+02 0.  0.
          3    1    3    3  502    0  0.27863069219E+03  0.24155574741E+03  0.11537782464E+03  0.38638877333E+03  0.00000000000E+00 0. -1.
         -3    1    3    3    0  502  0.39616170542E+02  0.17936699280E+02  0.47955553060E+02  0.64737170303E+02  0.00000000000E+00 0.  1.
         13    1    5    5    0    0  0.26340423289E+03 -0.22743756318E+03  0.39555645687E+03  0.52685343847E+03  0.00000000000E+00 0.  1.
        -13    1    5    5    0    0  0.11529431597E+02  0.79730950543E+01  0.26557691254E+02  0.30030134906E+02  0.00000000000E+00 0. -1.
          2    1    6    6  503    0 -0.36447077123E+03 -0.35771982518E+02  0.22800207826E+03  0.43139717837E+03  0.00000000000E+00 0. -1.
         -2    1    6    6    0  503 -0.22870975599E+03 -0.42559960445E+01  0.67783540426E+02  0.23858095972E+03  0.00000000000E+00 0.  1.
<mgrwt>
<rscale>  0 0.14279603E+04</rscale>
<asrwt>0</asrwt>
<pdfrwt beam="1">  1        2 0.61288809E-01 0.14279603E+04</pdfrwt>
<pdfrwt beam="2">  1       -2 0.19686314E+00 0.14279603E+04</pdfrwt>
<totfact> 0.10812635E+01</totfact>
</mgrwt>
</event>
<event>
12    3  0.4806716E-008  0.2079651E+04  0.7818608E-02  0.8570260E-01
         -3   -1    0    0    0  501 -0.00000000000E+00  0.00000000000E+00  0.20082658444E+04  0.20082658444E+04  0.00000000000E+00 0.  1.
          3   -1    0    0  501    0  0.00000000000E+00 -0.00000000000E+00 -0.53839354641E+03  0.53839354641E+03  0.00000000000E+00 0. -1.
         23    2    1    2    0    0  0.33775696380E+03  0.35195680091E+03 -0.23770663440E+03  0.55010897379E+03  0.90344245532E+02 0.  0.
        254    2    1    2    0    0 -0.33775696380E+03 -0.35195680091E+03  0.17075789324E+04  0.19965504170E+04  0.91237843082E+03 0.  0.
         23    2    4    4    0    0 -0.35826503988E+03  0.23599049039E+03  0.70264914983E+03  0.82859283236E+03  0.93834448555E+02 0.  0.
         23    2    4    4    0    0  0.20508076081E+02 -0.58794729130E+03  0.10049297825E+04  0.11679575846E+04  0.90213375578E+02 0.  0.
          2    1    3    3  502    0  0.30086600718E+03  0.29988326596E+03 -0.17136903525E+03  0.45805859202E+03  0.00000000000E+00 0. -1.
         -2    1    3    3    0  502  0.36890956620E+02  0.52073534952E+02 -0.66337599154E+02  0.92050381771E+02  0.00000000000E+00 0.  1.
         13    1    5    5    0    0 -0.99524473402E+02  0.52878122606E+02  0.11568082596E+03  0.16150315833E+03  0.00000000000E+00 0. -1.
        -13    1    5    5    0    0 -0.25874056648E+03  0.18311236778E+03  0.58696832386E+03  0.66708967403E+03  0.00000000000E+00 0.  1.
          2    1    6    6  503    0  0.23224113917E+02 -0.59074227743E+03  0.99981243547E+03  0.11615251628E+04  0.00000000000E+00 0.  1.
         -2    1    6    6    0  503 -0.27160378359E+01  0.27949861283E+01  0.51173470738E+01  0.64324217879E+01  0.00000000000E+00 0. -1.
<mgrwt>
<rscale>  0 0.20796513E+04</rscale>
<asrwt>0</asrwt>
<pdfrwt beam="1">  1        3 0.82829777E-01 0.20796513E+04</pdfrwt>
<pdfrwt beam="2">  1       -3 0.30896397E+00 0.20796513E+04</pdfrwt>
<totfact> 0.10999979E-01</totfact>
</mgrwt>
</event>
<event>
12    3  0.4806716E-008  0.1863825E+04  0.7818608E-02  0.8673076E-01
         -1   -1    0    0    0  501 -0.00000000000E+00  0.00000000000E+00  0.24402422533E+04  0.24402422533E+04  0.00000000000E+00 0.  1.
          1   -1    0    0  501    0  0.00000000000E+00 -0.00000000000E+00 -0.35589112678E+03  0.35589112678E+03  0.00000000000E+00 0. -1.
         23    2    1    2    0    0 -0.30554954546E+03  0.59287796421E+03  0.43952495206E+03  0.80343368499E+03  0.86363751141E+02 0.  0.
        254    2    1    2    0    0  0.30554954546E+03 -0.59287796421E+03  0.16448261745E+04  0.19926996951E+04  0.90583338724E+03 0.  0.
         23    2    4    4    0    0  0.47830432321E+02 -0.72006583531E+03  0.14802865134E+04  0.16493400217E+04  0.91059255369E+02 0.  0.
         23    2    4    4    0    0  0.25771911314E+03  0.12718787110E+03  0.16453966109E+03  0.34335967342E+03  0.90700989093E+02 0.  0.
          3    1    3    3  502    0 -0.29992291324E+03  0.59509880360E+03  0.43679255371E+03  0.79679613133E+03  0.00000000000E+00 0. -1.
         -3    1    3    3    0  502 -0.56266322251E+01 -0.22208393890E+01  0.27323983534E+01  0.66375536570E+01  0.00000000000E+00 0.  1.
         13    1    5    5    0    0 -0.27330188627E+02 -0.21177340249E+03  0.44094061642E+03  0.48992197381E+03  0.00000000000E+00 0. -1.
        -13    1    5    5    0    0  0.75160620948E+02 -0.50829243282E+03  0.10393458970E+04  0.11594180479E+04  0.00000000000E+00 0.  1.
          1    1    6    6  503    0  0.10133847056E+03  0.93884129605E+02  0.10180868240E+03  0.17160630297E+03  0.00000000000E+00 0. -1.
         -1    1    6    6    0  503  0.15638064258E+03  0.33303741494E+02  0.62730978692E+02  0.17175337045E+03  0.00000000000E+00 0.  1.
<mgrwt>
<rscale>  0 0.18638246E+04</rscale>
<asrwt>0</asrwt>
<pdfrwt beam="1">  1        1 0.54752483E-01 0.18638246E+04</pdfrwt>
<pdfrwt beam="2">  1       -1 0.37542187E+00 0.18638246E+04</pdfrwt>
<totfact> 0.69251630E-01</totfact>
</mgrwt>
</event>
<event>
12    3  0.4806716E-008  0.1931153E+04  0.7818608E-02  0.8639503E-01
          1   -1    0    0  501    0  0.00000000000E+00  0.00000000000E+00  0.14253658015E+04  0.14253658015E+04  0.00000000000E+00 0. -1.
         -1   -1    0    0    0  501 -0.00000000000E+00 -0.00000000000E+00 -0.65410422980E+03  0.65410422980E+03  0.00000000000E+00 0.  1.
         23    2    1    2    0    0 -0.46526202924E+03  0.45113223823E+03  0.71223494253E+03  0.96711472373E+03  0.89684019012E+02 0.  0.
        254    2    1    2    0    0  0.46526202924E+03 -0.45113223823E+03  0.59026629198E+02  0.11123553076E+04  0.90214252486E+03 0.  0.
         23    2    4    4    0    0  0.35564225277E+03  0.10165859405E+03  0.30805519076E+03  0.49000169230E+03  0.91584803369E+02 0.  0.
         23    2    4    4    0    0  0.10961977647E+03 -0.55279083228E+03 -0.24902856156E+03  0.62235361530E+03  0.87832786329E+02 0.  0.
          2    1    3    3  502    0 -0.33176180502E+03  0.34295809633E+03  0.57506445679E+03  0.74725181871E+03  0.00000000000E+00 0. -1.
         -2    1    3    3    0  502 -0.13350022422E+03  0.10817414191E+03  0.13717048574E+03  0.21986290502E+03  0.00000000000E+00 0.  1.
         13    1    5    5    0    0  0.21871979870E+03  0.10643151713E+03  0.21220816025E+03  0.32279764785E+03  0.00000000000E+00 0.  1.
        -13    1    5    5    0    0  0.13692245407E+03 -0.47729230871E+01  0.95847030506E+02  0.16720404445E+03  0.00000000000E+00 0. -1.
          1    1    6    6  503    0  0.51335951827E+02 -0.34497347925E+03 -0.19610519261E+03  0.40012414062E+03  0.00000000000E+00 0. -1.
         -1    1    6    6    0  503  0.58283824648E+02 -0.20781735303E+03 -0.52923368950E+02  0.22222947468E+03  0.00000000000E+00 0.  1.
<mgrwt>
<rscale>  0 0.19311528E+04</rscale>
<asrwt>0</asrwt>
<pdfrwt beam="1">  1        1 0.21928705E+00 0.19311528E+04</pdfrwt>
<pdfrwt beam="2">  1       -1 0.10063142E+00 0.19311528E+04</pdfrwt>
<totfact> 0.64644575E+00</totfact>
</mgrwt>
</event>
<event>
12    3  0.4806716E-008  0.2337658E+04  0.7818608E-02  0.8463219E-01
         -1   -1    0    0    0  501 -0.00000000000E+00  0.00000000000E+00  0.11646454521E+04  0.11646454521E+04  0.00000000000E+00 0.  1.
          1   -1    0    0  501    0  0.00000000000E+00 -0.00000000000E+00 -0.11730273800E+04  0.11730273800E+04  0.00000000000E+00 0. -1.
         23    2    1    2    0    0  0.35528064244E+03  0.85686946906E+03 -0.34584486439E+03  0.99402172957E+03  0.89559515033E+02 0.  0.
        254    2    1    2    0    0 -0.35528064244E+03 -0.85686946906E+03  0.33746293641E+03  0.13436511025E+04  0.91162899797E+03 0.  0.
         23    2    4    4    0    0 -0.26100951356E+03 -0.10038694727E+04  0.11625444080E+03  0.10476101718E+04  0.89956060626E+02 0.  0.
         23    2    4    4    0    0 -0.94271128878E+02  0.14700000360E+03  0.22120849561E+03  0.29604093067E+03  0.90614498305E+02 0.  0.
          3    1    3    3  502    0  0.65312352951E+02  0.19529438153E+03 -0.11410659074E+03  0.23542708628E+03  0.00000000000E+00 0. -1.
         -3    1    3    3    0  502  0.28996828949E+03  0.66157508753E+03 -0.23173827365E+03  0.75859464329E+03  0.00000000000E+00 0.  1.
         13    1    5    5    0    0 -0.14025923232E+03 -0.47349683549E+03  0.13331234293E+02  0.49401379260E+03  0.00000000000E+00 0. -1.
        -13    1    5    5    0    0 -0.12075028124E+03 -0.53037263717E+03  0.10292320651E+03  0.55359637925E+03  0.00000000000E+00 0.  1.
          3    1    6    6  503    0 -0.40918200733E+02  0.74441037790E+02  0.17564708078E+03  0.19510936483E+03  0.00000000000E+00 0. -1.
         -3    1    6    6    0  503 -0.53352928145E+02  0.72558965811E+02  0.45561414830E+02  0.10093156584E+03  0.00000000000E+00 0.  1.
<mgrwt>
<rscale>  0 0.23376578E+04</rscale>
<asrwt>0</asrwt>
<pdfrwt beam="1">  1        1 0.18046575E+00 0.23376578E+04</pdfrwt>
<pdfrwt beam="2">  1       -1 0.17917622E+00 0.23376578E+04</pdfrwt>
<totfact> 0.21260468E+00</totfact>
</mgrwt>
</event>
<event>
12    3  0.4806716E-008  0.1719963E+04  0.7818608E-02  0.8750060E-01
          1   -1    0    0  501    0  0.00000000000E+00  0.00000000000E+00  0.12987819915E+04  0.12987819915E+04  0.00000000000E+00 0.  1.
         -1   -1    0    0    0  501 -0.00000000000E+00 -0.00000000000E+00 -0.56943195424E+03  0.56943195424E+03  0.00000000000E+00 0. -1.
         23    2    1    2    0    0  0.65501014039E+02  0.32793151601E+03 -0.29857468335E+03  0.45763008597E+03  0.91918398654E+02 0.  0.
        254    2    1    2    0    0 -0.65501014039E+02 -0.32793151601E+03  0.10279247206E+04  0.14105838598E+04  0.90624948673E+03 0.  0.
         23    2    4    4    0    0 -0.73230352719E+02 -0.38990167061E+03  0.32002818482E+02  0.40852946789E+03  0.92120293291E+02 0.  0.
         23    2    4    4    0    0  0.77293386807E+01  0.61970154598E+02  0.99592190217E+03  0.10020543919E+04  0.91392157277E+02 0.  0.
          2    1    3    3  502    0  0.58303050172E+02  0.21494319388E+03 -0.24890578423E+03  0.33399687376E+03  0.00000000000E+00 0. -1.
         -2    1    3    3    0  502  0.71979638668E+01  0.11298832213E+03 -0.49668899117E+02  0.12363321221E+03  0.00000000000E+00 0.  1.
         13    1    5    5    0    0 -0.74670502965E+02 -0.16431119952E+03 -0.13167459371E+01  0.18048708575E+03  0.00000000000E+00 0. -1.
        -13    1    5    5    0    0  0.14401502459E+01 -0.22559047109E+03  0.33319564419E+02  0.22804238214E+03  0.00000000000E+00 0.  1.
          3    1    6    6  503    0  0.41534776031E+02  0.21334347737E+02  0.25431428052E+03  0.25856535981E+03  0.00000000000E+00 0. -1.
         -3    1    6    6    0  503 -0.33805437350E+02  0.40635806861E+02  0.74160762164E+03  0.74348903211E+03  0.00000000000E+00 0.  1.
<mgrwt>
<rscale>  0 0.17199628E+04</rscale>
<asrwt>0</asrwt>
<pdfrwt beam="1">  1        1 0.19981261E+00 0.17199628E+04</pdfrwt>
<pdfrwt beam="2">  1       -1 0.87604916E-01 0.17199628E+04</pdfrwt>
<totfact> 0.11038107E+01</totfact>
</mgrwt>
</event>
<event>
12    3  0.4806716E-008  0.2524700E+04  0.7818608E-02  0.8394239E-01
         -3   -1    0    0    0  501 -0.00000000000E+00  0.00000000000E+00  0.49293072967E+03  0.49293072967E+03  0.00000000000E+00 0.  1.
          3   -1    0    0  501    0  0.00000000000E+00 -0.00000000000E+00 -0.32327611526E+04  0.32327611526E+04  0.00000000000E+00 0. -1.
         23    2    1    2    0    0 -0.60865498410E+03 -0.66791258413E+03 -0.27582841490E+03  0.94980556532E+03  0.97371390719E+02 0.  0.
        254    2    1    2    0    0  0.60865498410E+03  0.66791258413E+03 -0.24640020080E+04  0.27758863170E+04  0.90425153549E+03 0.  0.
         23    2    4    4    0    0  0.53039728398E+03 -0.53524770210E+02 -0.11847218423E+04  0.13021558008E+04  0.88643702199E+02 0.  0.
         23    2    4    4    0    0  0.78257700117E+02  0.72143735434E+03 -0.12792801657E+04  0.14737305162E+04  0.93422524608E+02 0.  0.
          3    1    3    3  502    0 -0.62223931141E+02 -0.63238607828E+02  0.20441994205E+01  0.88741860911E+02  0.00000000000E+00 0. -1.
         -3    1    3    3    0  502 -0.54643105296E+03 -0.60467397630E+03 -0.27787261432E+03  0.86106370441E+03  0.00000000000E+00 0.  1.
         13    1    5    5    0    0  0.22621312809E+03 -0.45885027334E+02 -0.60283932247E+03  0.64551767115E+03  0.00000000000E+00 0. -1.
        -13    1    5    5    0    0  0.30418415590E+03 -0.76397428763E+01 -0.58188251986E+03  0.65663812963E+03  0.00000000000E+00 0.  1.
          3    1    6    6  503    0  0.68715904572E+02  0.49589521340E+03 -0.79632499958E+03  0.94062077543E+03  0.00000000000E+00 0. -1.
         -3    1    6    6    0  503  0.95417955441E+01  0.22554214094E+03 -0.48295516611E+03  0.53310974074E+03  0.00000000000E+00 0.  1.
<mgrwt>
<rscale>  0 0.25246998E+04</rscale>
<asrwt>0</asrwt>
<pdfrwt beam="1">  1        3 0.49734787E+00 0.25246998E+04</pdfrwt>
<pdfrwt beam="2">  1       -3 0.75835497E-01 0.25246998E+04</pdfrwt>
<totfact> 0.13412419E-02</totfact>
</mgrwt>
</event>
<event>
12    3  0.4806716E-008  0.3110108E+04  0.7818608E-02  0.8212969E-01
         -2   -1    0    0    0  501 -0.00000000000E+00  0.00000000000E+00  0.56801940496E+03  0.56801940496E+03  0.00000000000E+00 0.  1.
          2   -1    0    0  501    0  0.00000000000E+00 -0.00000000000E+00 -0.42572359080E+04  0.42572359080E+04  0.00000000000E+00 0. -1.
         23    2    1    2    0    0  0.11643887491E+04 -0.54477062890E+03 -0.74869895805E+03  0.14904867215E+04  0.91784204655E+02 0.  0.
        254    2    1    2    0    0 -0.11643887491E+04  0.54477062890E+03 -0.29405175450E+04  0.33347685914E+04  0.90634536960E+03 0.  0.
         23    2    4    4    0    0 -0.94227851499E+03  0.32980520499E+03 -0.28162402510E+04  0.29893507630E+04  0.91370454980E+02 0.  0.
         23    2    4    4    0    0 -0.22211023406E+03  0.21496542392E+03 -0.12427729396E+03  0.34541782838E+03  0.91244401547E+02 0.  0.
          3    1    3    3  502    0  0.71942229838E+02 -0.58989791723E+02 -0.47716449999E+02  0.10455782879E+03  0.00000000000E+00 0. -1.
         -3    1    3    3    0  502  0.10924465192E+04 -0.48578083718E+03 -0.70098250805E+03  0.13859288927E+04  0.00000000000E+00 0.  1.
         13    1    5    5    0    0 -0.30453642711E+03  0.10071354515E+03 -0.78266660305E+03  0.84584435043E+03  0.00000000000E+00 0. -1.
        -13    1    5    5    0    0 -0.63774208789E+03  0.22909165984E+03 -0.20335736480E+04  0.21435064126E+04  0.00000000000E+00 0.  1.
          4    1    6    6  503    0 -0.82539151413E+02  0.26506306045E+02 -0.21170734959E+02  0.89238421068E+02  0.00000000000E+00 0. -1.
         -4    1    6    6    0  503 -0.13957108265E+03  0.18845911787E+03 -0.10310655900E+03  0.25617940731E+03  0.00000000000E+00 0.  1.
<mgrwt>
<rscale>  0 0.31101078E+04</rscale>
<asrwt>0</asrwt>
<pdfrwt beam="1">  1        2 0.65495936E+00 0.31101078E+04</pdfrwt>
<pdfrwt beam="2">  1       -2 0.87387602E-01 0.31101078E+04</pdfrwt>
<totfact> 0.19843228E-01</totfact>
</mgrwt>
</event>
<event>
12    3  0.4806716E-008  0.2303269E+04  0.7818608E-02  0.8476633E-01
          2   -1    0    0  501    0  0.00000000000E+00  0.00000000000E+00  0.35248752916E+04  0.35248752916E+04  0.00000000000E+00 0. -1.
         -2   -1    0    0    0  501 -0.00000000000E+00 -0.00000000000E+00 -0.37625779168E+03  0.37625779168E+03  0.00000000000E+00 0.  1.
         23    2    1    2    0    0  0.68227766969E+03  0.68054553665E+03  0.14945104749E+04  0.17806735476E+04  0.92691301622E+02 0.  0.
        254    2    1    2    0    0 -0.68227766969E+03 -0.68054553665E+03  0.16541070250E+04  0.21204595357E+04  0.91193944227E+03 0.  0.
         23    2    4    4    0    0  0.83567366306E+02 -0.76563466321E+02  0.82409053038E+03  0.83671760611E+03  0.90142559442E+02 0.  0.
         23    2    4    4    0    0 -0.76584503600E+03 -0.60398207033E+03  0.83001649465E+03  0.12837419296E+04  0.88051121583E+02 0.  0.
          3    1    3    3  502    0  0.42310365606E+03  0.48089311036E+03  0.96407144408E+03  0.11574578336E+04  0.00000000000E+00 0. -1.
         -3    1    3    3    0  502  0.25917401364E+03  0.19965242629E+03  0.53043903084E+03  0.62321571394E+03  0.00000000000E+00 0.  1.
         13    1    5    5    0    0 -0.19275378142E+02 -0.18346689157E+02  0.15771898058E+03  0.15994817298E+03  0.00000000000E+00 0. -1.
        -13    1    5    5    0    0  0.10284274445E+03 -0.58216777164E+02  0.66637154980E+03  0.67676943312E+03  0.00000000000E+00 0.  1.
          2    1    6    6  503    0 -0.20854049462E+03 -0.14894543744E+03  0.17116324342E+03  0.30817322585E+03  0.00000000000E+00 0. -1.
         -2    1    6    6    0  503 -0.55730454138E+03 -0.45503663290E+03  0.65885325123E+03  0.97556870377E+03  0.00000000000E+00 0.  1.
<mgrwt>
<rscale>  0 0.23032688E+04</rscale>
<asrwt>0</asrwt>
<pdfrwt beam="1">  1        2 0.54228848E+00 0.23032688E+04</pdfrwt>
<pdfrwt beam="2">  1       -2 0.57885816E-01 0.23032688E+04</pdfrwt>
<totfact> 0.19827409E+00</totfact>
</mgrwt>
</event>
<event>
12    3  0.4806716E-008  0.1701850E+04  0.7818608E-02  0.8760310E-01
          1   -1    0    0  501    0  0.00000000000E+00  0.00000000000E+00  0.16314106352E+04  0.16314106352E+04  0.00000000000E+00 0. -1.
         -1   -1    0    0    0  501 -0.00000000000E+00 -0.00000000000E+00 -0.44383259180E+03  0.44383259180E+03  0.00000000000E+00 0.  1.
         23    2    1    2    0    0  0.30115205352E+03  0.20834118584E+03  0.10559783605E+04  0.11216673550E+04  0.94597824468E+02 0.  0.
        254    2    1    2    0    0 -0.30115205352E+03 -0.20834118584E+03  0.13159968297E+03  0.95357587205E+03  0.87056869812E+03 0.  0.
         23    2    4    4    0    0  0.10218480316E+03  0.25294649042E+03 -0.81625222721E+02  0.29856193577E+03  0.89737904446E+02 0.  0.
         23    2    4    4    0    0 -0.40333685668E+03 -0.46128767626E+03  0.21322490569E+03  0.65501393628E+03  0.90063622446E+02 0.  0.
          1    1    3    3  502    0  0.23642483912E+03  0.16265980470E+03  0.92599100769E+03  0.96944018017E+03  0.00000000000E+00 0. -1.
         -1    1    3    3    0  502  0.64727214405E+02  0.45681381134E+02  0.12998735280E+03  0.15222717482E+03  0.00000000000E+00 0.  1.
         13    1    5    5    0    0  0.11812805303E+01  0.11493540380E+03 -0.46374633256E+02  0.12394413693E+03  0.00000000000E+00 0. -1.
        -13    1    5    5    0    0  0.10100352263E+03  0.13801108662E+03 -0.35250589465E+02  0.17461779884E+03  0.00000000000E+00 0.  1.
          1    1    6    6  503    0 -0.15786014267E+03 -0.11796860559E+03  0.75970437568E+02  0.21120588044E+03  0.00000000000E+00 0. -1.
         -1    1    6    6    0  503 -0.24547671401E+03 -0.34331907067E+03  0.13725446812E+03  0.44380805584E+03  0.00000000000E+00 0.  1.
<mgrwt>
<rscale>  0 0.17018498E+04</rscale>
<asrwt>0</asrwt>
<pdfrwt beam="1">  1        1 0.25098625E+00 0.17018498E+04</pdfrwt>
<pdfrwt beam="2">  1       -1 0.68281938E-01 0.17018498E+04</pdfrwt>
<totfact> 0.10968222E+01</totfact>
</mgrwt>
</event>
<event>
12    3  0.6219083E-008  0.1802901E+04  0.7818608E-02  0.8704758E-01
         -1   -1    0    0    0  501 -0.00000000000E+00  0.00000000000E+00  0.25383420707E+03  0.25383420707E+03  0.00000000000E+00 0.  1.
          1   -1    0    0  501    0  0.00000000000E+00 -0.00000000000E+00 -0.32013519443E+04  0.32013519443E+04  0.00000000000E+00 0. -1.
         23    2    1    2    0    0 -0.16586454277E+03 -0.37330170213E+03 -0.75210016282E+02  0.42468195450E+03  0.88504285589E+02 0.  0.
        254    2    1    2    0    0  0.16586454277E+03  0.37330170213E+03 -0.28723077209E+04  0.30305041968E+04  0.87575044164E+03 0.  0.
         23    2    4    4    0    0  0.37155141394E+03 -0.59663274430E+02 -0.19406704767E+04  0.19788643918E+04  0.89956781011E+02 0.  0.
         23    2    4    4    0    0 -0.20568687117E+03  0.43296497656E+03 -0.93163724418E+03  0.10516398050E+04  0.90733482435E+02 0.  0.
          3    1    3    3  502    0 -0.33896508927E+02 -0.46506110940E+02  0.17693994528E+02  0.60206885940E+02  0.00000000000E+00 0. -1.
         -3    1    3    3    0  502 -0.13196803384E+03 -0.32679559119E+03 -0.92904010810E+02  0.36447506856E+03  0.00000000000E+00 0.  1.
         13    1    5    5    0    0  0.33921393643E+03 -0.75758759520E+02 -0.18205080048E+04  0.18533901046E+04  0.00000000000E+00 0.  1.
        -13    1    5    5    0    0  0.32337477506E+02  0.16095485090E+02 -0.12016247196E+03  0.12547428725E+03  0.00000000000E+00 0. -1.
          4    1    6    6  503    0 -0.51516798330E+02  0.41380604565E+02 -0.15002474547E+03  0.16393217865E+03  0.00000000000E+00 0. -1.
         -4    1    6    6    0  503 -0.15417007284E+03  0.39158437200E+03 -0.78161249871E+03  0.88770762636E+03  0.00000000000E+00 0.  1.
<mgrwt>
<rscale>  0 0.18029006E+04</rscale>
<asrwt>0</asrwt>
<pdfrwt beam="1">  1        1 0.49251569E+00 0.18029006E+04</pdfrwt>
<pdfrwt beam="2">  1       -1 0.39051416E-01 0.18029006E+04</pdfrwt>
<totfact> 0.25572012E+00</totfact>
</mgrwt>
</event>
<event>
12    3  0.4806716E-008  0.3425159E+04  0.7818608E-02  0.8131759E-01
          2   -1    0    0  501    0  0.00000000000E+00  0.00000000000E+00  0.29171154140E+04  0.29171154140E+04  0.00000000000E+00 0. -1.
         -2   -1    0    0    0  501 -0.00000000000E+00 -0.00000000000E+00 -0.10054208510E+04  0.10054208510E+04  0.00000000000E+00 0.  1.
         23    2    1    2    0    0 -0.11239961953E+04 -0.99142836649E+03  0.27256981588E+03  0.15261419665E+04  0.92289460821E+02 0.  0.
        254    2    1    2    0    0  0.11239961953E+04  0.99142836649E+03  0.16391247471E+04  0.23963942984E+04  0.89982111781E+03 0.  0.
         23    2    4    4    0    0  0.34907894943E+03  0.20916817914E+03  0.10808353402E+04  0.11586669291E+04  0.93255453824E+02 0.  0.
         23    2    4    4    0    0  0.77491724586E+03  0.78226018735E+03  0.55828940687E+03  0.12377273694E+04  0.88624152669E+02 0.  0.
          2    1    3    3  502    0 -0.36903770109E+03 -0.35107569546E+03  0.52802776065E+02  0.51208505341E+03  0.00000000000E+00 0. -1.
         -2    1    3    3    0  502 -0.75495849419E+03 -0.64035267103E+03  0.21976703981E+03  0.10140569131E+04  0.00000000000E+00 0.  1.
         13    1    5    5    0    0  0.82233006107E+02  0.71953882226E+01  0.23139978826E+03  0.24568252464E+03  0.00000000000E+00 0. -1.
        -13    1    5    5    0    0  0.26684594332E+03  0.20197279091E+03  0.84943555199E+03  0.91298440442E+03  0.00000000000E+00 0.  1.
          1    1    6    6  503    0  0.11518445315E+03  0.13014828350E+03  0.54617080471E+02  0.18217864701E+03  0.00000000000E+00 0. -1.
         -1    1    6    6    0  503  0.65973279270E+03  0.65211190385E+03  0.50367232640E+03  0.10555487224E+04  0.00000000000E+00 0.  1.
<mgrwt>
<rscale>  0 0.34251591E+04</rscale>
<asrwt>0</asrwt>
<pdfrwt beam="1">  1        2 0.44878698E+00 0.34251591E+04</pdfrwt>
<pdfrwt beam="2">  1       -2 0.15468013E+00 0.34251591E+04</pdfrwt>
<totfact> 0.44722857E-01</totfact>
</mgrwt>
</event>
<event>
12    3  0.4806716E-008  0.1383136E+04  0.7818608E-02  0.8966117E-01
          2   -1    0    0  501    0  0.00000000000E+00  0.00000000000E+00  0.16878995244E+04  0.16878995244E+04  0.00000000000E+00 0.  1.
         -2   -1    0    0    0  501 -0.00000000000E+00 -0.00000000000E+00 -0.28335009367E+03  0.28335009367E+03  0.00000000000E+00 0. -1.
         23    2    1    2    0    0  0.27009624277E+03  0.14571162448E+03  0.75810327474E+02  0.33107562350E+03  0.98387015685E+02 0.  0.
        254    2    1    2    0    0 -0.27009624277E+03 -0.14571162448E+03  0.13287391033E+04  0.16401739946E+04  0.91128440681E+03 0.  0.
         23    2    4    4    0    0 -0.48056214960E+03  0.21332908363E+03  0.68048562336E+03  0.86442171694E+03  0.87834751463E+02 0.  0.
         23    2    4    4    0    0  0.21046590684E+03 -0.35904070812E+03  0.64825347993E+03  0.77575227766E+03  0.91394168465E+02 0.  0.
          1    1    3    3  502    0  0.24869950074E+03  0.15916953935E+03  0.78839739241E+02  0.30561755253E+03  0.00000000000E+00 0. -1.
         -1    1    3    3    0  502  0.21396742025E+02 -0.13457914871E+02 -0.30294117665E+01  0.25458070972E+02  0.00000000000E+00 0.  1.
         13    1    5    5    0    0 -0.25083282767E+03  0.15371442911E+03  0.34370997731E+03  0.45241770705E+03  0.00000000000E+00 0. -1.
        -13    1    5    5    0    0 -0.22972932193E+03  0.59614654520E+02  0.33677564606E+03  0.41200400989E+03  0.00000000000E+00 0.  1.
          2    1    6    6  503    0  0.20077157375E+03 -0.33585475234E+03  0.55429800748E+03  0.67849386187E+03  0.00000000000E+00 0. -1.
         -2    1    6    6    0  503  0.96943330815E+01 -0.23185955778E+02  0.93955472450E+02  0.97258415792E+02  0.00000000000E+00 0.  1.
<mgrwt>
<rscale>  0 0.13831363E+04</rscale>
<asrwt>0</asrwt>
<pdfrwt beam="1">  1        2 0.25967684E+00 0.13831363E+04</pdfrwt>
<pdfrwt beam="2">  1       -2 0.43592323E-01 0.13831363E+04</pdfrwt>
<totfact> 0.48426998E+01</totfact>
</mgrwt>
</event>
<event>
12    3  0.4806716E-008  0.3703632E+04  0.7818608E-02  0.8067157E-01
          1   -1    0    0  501    0  0.00000000000E+00  0.00000000000E+00  0.18777685336E+04  0.18777685336E+04  0.00000000000E+00 0. -1.
         -1   -1    0    0    0  501 -0.00000000000E+00 -0.00000000000E+00 -0.18262219771E+04  0.18262219771E+04  0.00000000000E+00 0.  1.
         23    2    1    2    0    0  0.71396025797E+03 -0.73312235753E+03 -0.13780309270E+04  0.17190148452E+04  0.93995539086E+02 0.  0.
        254    2    1    2    0    0 -0.71396025797E+03  0.73312235753E+03  0.14295774835E+04  0.19849756654E+04  0.92153620107E+03 0.  0.
         23    2    4    4    0    0 -0.55919653474E+03  0.88087503277E+03  0.81328610421E+03  0.13260130793E+04  0.90745861696E+02 0.  0.
         23    2    4    4    0    0 -0.15476372323E+03 -0.14775267525E+03  0.61629137928E+03  0.65896258608E+03  0.92919118614E+02 0.  0.
          3    1    3    3  502    0  0.61712744764E+02 -0.10509269645E+03 -0.15009030702E+03  0.19333917859E+03  0.00000000000E+00 0. -1.
         -3    1    3    3    0  502  0.65224751321E+03 -0.62802966107E+03 -0.12279406200E+04  0.15256756667E+04  0.00000000000E+00 0.  1.
         13    1    5    5    0    0 -0.47807062211E+03  0.70787807560E+03  0.63149006386E+03  0.10622723711E+04  0.00000000000E+00 0. -1.
        -13    1    5    5    0    0 -0.81125912635E+02  0.17299695717E+03  0.18179604035E+03  0.26374070823E+03  0.00000000000E+00 0.  1.
          2    1    6    6  503    0 -0.14480139230E+03 -0.13812322225E+03  0.61283862928E+03  0.64468337443E+03  0.00000000000E+00 0. -1.
         -2    1    6    6    0  503 -0.99623309279E+01 -0.96294530005E+01  0.34527500037E+01  0.14279211645E+02  0.00000000000E+00 0.  1.
<mgrwt>
<rscale>  0 0.37036318E+04</rscale>
<asrwt>0</asrwt>
<pdfrwt beam="1">  1        1 0.28888747E+00 0.37036318E+04</pdfrwt>
<pdfrwt beam="2">  1       -1 0.28095723E+00 0.37036318E+04</pdfrwt>
<totfact> 0.12695126E-01</totfact>
</mgrwt>
</event>
<event>
12    3  0.4806716E-008  0.1714100E+04  0.7818608E-02  0.8753363E-01
         -2   -1    0    0    0  501 -0.00000000000E+00  0.00000000000E+00  0.66770488724E+03  0.66770488724E+03  0.00000000000E+00 0.  1.
          2   -1    0    0  501    0  0.00000000000E+00 -0.00000000000E+00 -0.11000884588E+04  0.11000884588E+04  0.00000000000E+00 0. -1.
         23    2    1    2    0    0 -0.21417099842E+03 -0.33508982166E+03  0.32712973142E+03  0.52292034815E+03  0.90980350562E+02 0.  0.
        254    2    1    2    0    0  0.21417099842E+03  0.33508982166E+03 -0.75951330301E+03  0.12448729979E+04  0.90260396539E+03 0.  0.
         23    2    4    4    0    0 -0.14630366899E+03 -0.98198290588E+02 -0.62841769828E+03  0.65910480738E+03  0.91992802743E+02 0.  0.
         23    2    4    4    0    0  0.36047466741E+03  0.43328811224E+03 -0.13109560473E+03  0.58576819054E+03  0.90872115684E+02 0.  0.
          3    1    3    3  502    0 -0.35430107469E+02 -0.19480348735E+02  0.11311056686E+02  0.41984717523E+02  0.00000000000E+00 0. -1.
         -3    1    3    3    0  502 -0.17874089095E+03 -0.31560947292E+03  0.31581867474E+03  0.48093563063E+03  0.00000000000E+00 0.  1.
         13    1    5    5    0    0  0.88981982096E+01 -0.25556744488E+02 -0.73063987754E+02  0.77914513582E+02  0.00000000000E+00 0.  1.
        -13    1    5    5    0    0 -0.15520186720E+03 -0.72641546100E+02 -0.55535371053E+03  0.58119029379E+03  0.00000000000E+00 0. -1.
          4    1    6    6  503    0  0.32014668446E+03  0.41030610672E+03 -0.13902954410E+03  0.53867821092E+03  0.00000000000E+00 0. -1.
         -4    1    6    6    0  503  0.40327982948E+02  0.22982005522E+02  0.79339393725E+01  0.47089979618E+02  0.00000000000E+00 0.  1.
<mgrwt>
<rscale>  0 0.17140997E+04</rscale>
<asrwt>0</asrwt>
<pdfrwt beam="1">  1        2 0.16924438E+00 0.17140997E+04</pdfrwt>
<pdfrwt beam="2">  1       -2 0.10272383E+00 0.17140997E+04</pdfrwt>
<totfact> 0.16043917E+01</totfact>
</mgrwt>
</event>
<event>
12    3  0.4806716E-008  0.1499845E+04  0.7818608E-02  0.8884556E-01
          2   -1    0    0  501    0  0.00000000000E+00  0.00000000000E+00  0.63336812699E+03  0.63336812699E+03  0.00000000000E+00 0. -1.
         -2   -1    0    0    0  501 -0.00000000000E+00 -0.00000000000E+00 -0.88792520421E+03  0.88792520421E+03  0.00000000000E+00 0.  1.
         23    2    1    2    0    0  0.89328229706E+02  0.33460374609E+03 -0.41319424884E+03  0.54629850441E+03  0.88166712137E+02 0.  0.
        254    2    1    2    0    0 -0.89328229706E+02 -0.33460374609E+03  0.15863717161E+03  0.97499482679E+03  0.89750206714E+03 0.  0.
         23    2    4    4    0    0  0.36011732186E+03  0.30062009769E+02  0.26886193661E+02  0.37416375802E+03  0.93206440077E+02 0.  0.
         23    2    4    4    0    0 -0.44944555157E+03 -0.36466575586E+03  0.13175097795E+03  0.60083106877E+03  0.93044267319E+02 0.  0.
          1    1    3    3  502    0  0.28111977051E+02  0.22445467564E+02 -0.67700365861E+02  0.76664345074E+02  0.00000000000E+00 0. -1.
         -1    1    3    3    0  502  0.61216252655E+02  0.31215827853E+03 -0.34549388298E+03  0.46963415934E+03  0.00000000000E+00 0.  1.
         13    1    5    5    0    0  0.12904239338E+03  0.18478577283E+02  0.54229262935E+02  0.14118856210E+03  0.00000000000E+00 0. -1.
        -13    1    5    5    0    0  0.23107492848E+03  0.11583432486E+02 -0.27343069274E+02  0.23297519592E+03  0.00000000000E+00 0.  1.
          1    1    6    6  503    0 -0.13949715483E+03 -0.79957692273E+02  0.33754041857E+01  0.16082313923E+03  0.00000000000E+00 0. -1.
         -1    1    6    6    0  503 -0.30994839674E+03 -0.28470806359E+03  0.12837557377E+03  0.44000792954E+03  0.00000000000E+00 0.  1.
<mgrwt>
<rscale>  0 0.14998447E+04</rscale>
<asrwt>0</asrwt>
<pdfrwt beam="1">  1        2 0.97441250E-01 0.14998447E+04</pdfrwt>
<pdfrwt beam="2">  1       -2 0.13660388E+00 0.14998447E+04</pdfrwt>
<totfact> 0.17160472E+01</totfact>
</mgrwt>
</event>
<event>
12    3  0.4806716E-008  0.1208838E+04  0.7818608E-02  0.9105156E-01
          1   -1    0    0  501    0  0.00000000000E+00  0.00000000000E+00  0.13983250421E+04  0.13983250421E+04  0.00000000000E+00 0. -1.
         -1   -1    0    0    0  501 -0.00000000000E+00 -0.00000000000E+00 -0.26125688085E+03  0.26125688085E+03  0.00000000000E+00 0.  1.
         23    2    1    2    0    0  0.16217340764E+03 -0.11416130369E+03  0.53684084307E+03  0.57925936706E+03  0.89500313596E+02 0.  0.
        254    2    1    2    0    0 -0.16217340764E+03  0.11416130369E+03  0.60022731821E+03  0.10803225559E+04  0.87606562192E+03 0.  0.
         23    2    4    4    0    0  0.29092980980E+03  0.25167361539E+03  0.15792725735E+03  0.42583640127E+03  0.91737991716E+02 0.  0.
         23    2    4    4    0    0 -0.45310321743E+03 -0.13751231170E+03  0.44230006087E+03  0.65448615465E+03  0.92253028519E+02 0.  0.
          1    1    3    3  502    0  0.14821825864E+03 -0.12934023673E+03  0.47727221756E+03  0.51622312878E+03  0.00000000000E+00 0. -1.
         -1    1    3    3    0  502  0.13955149000E+02  0.15178933036E+02  0.59568625509E+02  0.63036238282E+02  0.00000000000E+00 0.  1.
         13    1    5    5    0    0  0.17927855490E+03  0.94565341213E+02  0.83887429559E+02  0.21936386404E+03  0.00000000000E+00 0. -1.
        -13    1    5    5    0    0  0.11165125489E+03  0.15710827418E+03  0.74039827788E+02  0.20647253724E+03  0.00000000000E+00 0.  1.
          3    1    6    6  503    0 -0.40287517424E+03 -0.96928891731E+02  0.40732424322E+03  0.58104789406E+03  0.00000000000E+00 0. -1.
         -3    1    6    6    0  503 -0.50228043190E+02 -0.40583419968E+02  0.34975817644E+02  0.73438260592E+02  0.00000000000E+00 0.  1.
<mgrwt>
<rscale>  0 0.12088375E+04</rscale>
<asrwt>0</asrwt>
<pdfrwt beam="1">  1        1 0.21512692E+00 0.12088375E+04</pdfrwt>
<pdfrwt beam="2">  1       -1 0.40193367E-01 0.12088375E+04</pdfrwt>
<totfact> 0.45986355E+01</totfact>
</mgrwt>
</event>
<event>
12    3  0.4806716E-008  0.1781034E+04  0.7818608E-02  0.8716451E-01
         -2   -1    0    0    0  501 -0.00000000000E+00  0.00000000000E+00  0.74382089885E+03  0.74382089885E+03  0.00000000000E+00 0.  1.
          2   -1    0    0  501    0  0.00000000000E+00 -0.00000000000E+00 -0.10661446470E+04  0.10661446470E+04  0.00000000000E+00 0. -1.
         23    2    1    2    0    0 -0.12847262937E+03 -0.33413661931E+03  0.42302923222E+03  0.56049288394E+03  0.83940721769E+02 0.  0.
        254    2    1    2    0    0  0.12847262937E+03  0.33413661931E+03 -0.74535298036E+03  0.12494726619E+04  0.93673815478E+03 0.  0.
         23    2    4    4    0    0  0.45602432782E+03  0.35031050814E+03 -0.69278072683E+03  0.90487776122E+03  0.90459867443E+02 0.  0.
         23    2    4    4    0    0 -0.32755169844E+03 -0.16173888834E+02 -0.52572253529E+02  0.34459490067E+03  0.91815542763E+02 0.  0.
          1    1    3    3  502    0 -0.15008102768E+02 -0.26904741668E+02  0.80528352380E+01  0.31842682492E+02  0.00000000000E+00 0. -1.
         -1    1    3    3    0  502 -0.11346452661E+03 -0.30723187764E+03  0.41497639699E+03  0.52865020145E+03  0.00000000000E+00 0.  1.
         13    1    5    5    0    0  0.26411033997E+03  0.15658538902E+03 -0.40758921680E+03  0.51029621337E+03  0.00000000000E+00 0. -1.
        -13    1    5    5    0    0  0.19191398785E+03  0.19372511913E+03 -0.28519151003E+03  0.39458154785E+03  0.00000000000E+00 0.  1.
          3    1    6    6  503    0 -0.13153395421E+02  0.20110172293E+02 -0.51688409888E+01  0.24579417363E+02  0.00000000000E+00 0. -1.
         -3    1    6    6    0  503 -0.31439830302E+03 -0.36284061127E+02 -0.47403412540E+02  0.32001548331E+03  0.00000000000E+00 0.  1.
<mgrwt>
<rscale>  0 0.17810342E+04</rscale>
<asrwt>0</asrwt>
<pdfrwt beam="1">  1        2 0.16402225E+00 0.17810342E+04</pdfrwt>
<pdfrwt beam="2">  1       -2 0.11443399E+00 0.17810342E+04</pdfrwt>
<totfact> 0.12905578E+01</totfact>
</mgrwt>
</event>
<event>
12    3  0.4806716E-008  0.1569902E+04  0.7818608E-02  0.8839255E-01
         -1   -1    0    0    0  501 -0.00000000000E+00  0.00000000000E+00  0.39289654872E+03  0.39289654872E+03  0.00000000000E+00 0.  1.
          1   -1    0    0  501    0  0.00000000000E+00 -0.00000000000E+00 -0.15682201567E+04  0.15682201567E+04  0.00000000000E+00 0. -1.
         23    2    1    2    0    0 -0.35773091758E+03  0.35683369422E+03 -0.56832180753E+03  0.76589412782E+03  0.91117744678E+02 0.  0.
        254    2    1    2    0    0  0.35773091758E+03 -0.35683369422E+03 -0.60700180044E+03  0.11952225776E+04  0.89710876125E+03 0.  0.
         23    2    4    4    0    0  0.61056358804E+03 -0.40257342565E+03 -0.32972167419E+03  0.80640990447E+03  0.82020079909E+02 0.  0.
         23    2    4    4    0    0 -0.25283267046E+03  0.45739731436E+02 -0.27728012625E+03  0.38881267312E+03  0.90964520987E+02 0.  0.
          3    1    3    3  502    0 -0.61315811350E+02  0.11291114016E+03 -0.16447315238E+03  0.20871025885E+03  0.00000000000E+00 0. -1.
         -3    1    3    3    0  502 -0.29641510623E+03  0.24392255405E+03 -0.40384865515E+03  0.55718386897E+03  0.00000000000E+00 0.  1.
         13    1    5    5    0    0  0.35224894169E+03 -0.22019427114E+03 -0.14381439978E+03  0.43959915326E+03  0.00000000000E+00 0. -1.
        -13    1    5    5    0    0  0.25831464635E+03 -0.18237915451E+03 -0.18590727441E+03  0.36681075120E+03  0.00000000000E+00 0.  1.
          4    1    6    6  503    0 -0.72979017058E+02 -0.65432583524E+01 -0.31389545681E+02  0.79712324886E+02  0.00000000000E+00 0. -1.
         -4    1    6    6    0  503 -0.17985365340E+03  0.52282989788E+02 -0.24589058057E+03  0.30910034823E+03  0.00000000000E+00 0.  1.
<mgrwt>
<rscale>  0 0.15699023E+04</rscale>
<asrwt>0</asrwt>
<pdfrwt beam="1">  1        1 0.24126464E+00 0.15699023E+04</pdfrwt>
<pdfrwt beam="2">  1       -1 0.60445622E-01 0.15699023E+04</pdfrwt>
<totfact> 0.15666129E+01</totfact>
</mgrwt>
</event>
<event>
12    3  0.4806716E-008  0.1742326E+04  0.7818608E-02  0.8737586E-01
          2   -1    0    0  501    0  0.00000000000E+00  0.00000000000E+00  0.40634596001E+04  0.40634596001E+04  0.00000000000E+00 0. -1.
         -2   -1    0    0    0  501 -0.00000000000E+00 -0.00000000000E+00 -0.18676823065E+03  0.18676823065E+03  0.00000000000E+00 0.  1.
         23    2    1    2    0    0  0.44856980750E+03  0.44185644033E+03  0.16356037334E+04  0.17550667829E+04  0.92778518539E+02 0.  0.
        254    2    1    2    0    0 -0.44856980750E+03 -0.44185644033E+03  0.22410876361E+04  0.24951610479E+04  0.89827772790E+03 0.  0.
         23    2    4    4    0    0 -0.48808118777E+03  0.70112137917E+02  0.65128064300E+03  0.82194506573E+03  0.91039867062E+02 0.  0.
         23    2    4    4    0    0  0.39511380273E+02 -0.51196857824E+03  0.15898069931E+04  0.16732159822E+04  0.92154617569E+02 0.  0.
          3    1    3    3  502    0  0.11183303517E+02  0.19601107373E+00  0.11339691127E+02  0.15927752281E+02  0.00000000000E+00 0. -1.
         -3    1    3    3    0  502  0.43738650398E+03  0.44166042925E+03  0.16242640423E+04  0.17391390306E+04  0.00000000000E+00 0.  1.
         13    1    5    5    0    0 -0.42748006062E+03  0.32387681070E+02  0.53604183627E+03  0.68638838448E+03  0.00000000000E+00 0. -1.
        -13    1    5    5    0    0 -0.60601127153E+02  0.37724456847E+02  0.11523880673E+03  0.13555668125E+03  0.00000000000E+00 0.  1.
          3    1    6    6  503    0  0.12827390747E+02 -0.38514975805E+03  0.12963774731E+04  0.13524420249E+04  0.00000000000E+00 0. -1.
         -3    1    6    6    0  503  0.26683989527E+02 -0.12681882019E+03  0.29342951999E+03  0.32077395725E+03  0.00000000000E+00 0.  1.
<mgrwt>
<rscale>  0 0.17423262E+04</rscale>
<asrwt>0</asrwt>
<pdfrwt beam="1">  1        2 0.62514757E+00 0.17423262E+04</pdfrwt>
<pdfrwt beam="2">  1       -2 0.28733577E-01 0.17423262E+04</pdfrwt>
<totfact> 0.32541178E+00</totfact>
</mgrwt>
</event>
<event>
12    3  0.4806716E-008  0.1227964E+04  0.7818608E-02  0.9088726E-01
          2   -1    0    0  501    0  0.00000000000E+00  0.00000000000E+00  0.12372197710E+04  0.12372197710E+04  0.00000000000E+00 0.  1.
         -2   -1    0    0    0  501 -0.00000000000E+00 -0.00000000000E+00 -0.30469440627E+03  0.30469440627E+03  0.00000000000E+00 0. -1.
         23    2    1    2    0    0 -0.21202326499E+03 -0.49951836618E+01  0.22965000310E+02  0.23489393703E+03  0.98330837775E+02 0.  0.
        254    2    1    2    0    0  0.21202326499E+03  0.49951836618E+01  0.90956036446E+03  0.13070202403E+04  0.91434295269E+03 0.  0.
         23    2    4    4    0    0 -0.36717105400E+02  0.34170912881E+03  0.68740695469E+02  0.36298352911E+03  0.94437728942E+02 0.  0.
         23    2    4    4    0    0  0.24874037039E+03 -0.33671394515E+03  0.84081966899E+03  0.94403671116E+03  0.94760453461E+02 0.  0.
          2    1    3    3  502    0 -0.19992180130E+03  0.25079943726E+01 -0.87503461239E+01  0.20012892152E+03  0.00000000000E+00 0. -1.
         -2    1    3    3    0  502 -0.12101463689E+02 -0.75031780344E+01  0.31715346434E+02  0.34765015511E+02  0.00000000000E+00 0.  1.
         13    1    5    5    0    0  0.12367124757E+02  0.45357027252E+02 -0.17968852657E+02  0.50329766160E+02  0.00000000000E+00 0. -1.
        -13    1    5    5    0    0 -0.49084230157E+02  0.29635210156E+03  0.86709548127E+02  0.31265376295E+03  0.00000000000E+00 0.  1.
          3    1    6    6  503    0  0.13683886743E+03 -0.13285528331E+03  0.45790632243E+03  0.49603790386E+03  0.00000000000E+00 0. -1.
         -3    1    6    6    0  503  0.11190150296E+03 -0.20385866184E+03  0.38291334656E+03  0.44799880731E+03  0.00000000000E+00 0.  1.
<mgrwt>
<rscale>  0 0.12279641E+04</rscale>
<asrwt>0</asrwt>
<pdfrwt beam="1">  1        2 0.19034150E+00 0.12279641E+04</pdfrwt>
<pdfrwt beam="2">  1       -2 0.46876063E-01 0.12279641E+04</pdfrwt>
<totfact> 0.76445733E+01</totfact>
</mgrwt>
</event>
<event>
12    3  0.4806716E-008  0.2057816E+04  0.7818608E-02  0.8580057E-01
          1   -1    0    0  501    0  0.00000000000E+00  0.00000000000E+00  0.14703123883E+04  0.14703123883E+04  0.00000000000E+00 0. -1.
         -1   -1    0    0    0  501 -0.00000000000E+00 -0.00000000000E+00 -0.72001803084E+03  0.72001803084E+03  0.00000000000E+00 0.  1.
         23    2    1    2    0    0  0.35494610963E+03  0.17011166145E+03  0.10538835932E+04  0.11287219997E+04  0.91749694274E+02 0.  0.
        254    2    1    2    0    0 -0.35494610963E+03 -0.17011166145E+03 -0.30358923574E+03  0.10616084195E+04  0.93804120066E+03 0.  0.
         23    2    4    4    0    0  0.31246387298E+03 -0.67175927009E+02 -0.14427568137E+03  0.36212965252E+03  0.90421988024E+02 0.  0.
         23    2    4    4    0    0 -0.66740998261E+03 -0.10293573444E+03 -0.15931355438E+03  0.69947876696E+03  0.88644720685E+02 0.  0.
          2    1    3    3  502    0  0.34987978767E+03  0.16650980998E+03  0.96884864034E+03  0.10434601432E+04  0.00000000000E+00 0. -1.
         -2    1    3    3    0  502  0.50663219592E+01  0.36018514701E+01  0.85034952891E+02  0.85261856451E+02  0.00000000000E+00 0.  1.
         13    1    5    5    0    0  0.38955013447E+02 -0.29192125916E+02 -0.51405695137E+02  0.70797025225E+02  0.00000000000E+00 0. -1.
        -13    1    5    5    0    0  0.27350885953E+03 -0.37983801093E+02 -0.92869986231E+02  0.29133262730E+03  0.00000000000E+00 0.  1.
          3    1    6    6  503    0 -0.49149273533E+03 -0.47080024815E+02 -0.87539194495E+02  0.50144266690E+03  0.00000000000E+00 0. -1.
         -3    1    6    6    0  503 -0.17591724728E+03 -0.55855709629E+02 -0.71774359881E+02  0.19803610005E+03  0.00000000000E+00 0.  1.
<mgrwt>
<rscale>  0 0.20578158E+04</rscale>
<asrwt>0</asrwt>
<pdfrwt beam="1">  1        1 0.22620191E+00 0.20578158E+04</pdfrwt>
<pdfrwt beam="2">  1       -1 0.11077201E+00 0.20578158E+04</pdfrwt>
<totfact> 0.47530006E+00</totfact>
</mgrwt>
</event>
<event>
12    3  0.6291741E-008  0.2524286E+04  0.7818608E-02  0.8394384E-01
         -1   -1    0    0    0  501 -0.00000000000E+00  0.00000000000E+00  0.89234734767E+03  0.89234734767E+03  0.00000000000E+00 0.  1.
          1   -1    0    0  501    0  0.00000000000E+00 -0.00000000000E+00 -0.17851847790E+04  0.17851847790E+04  0.00000000000E+00 0. -1.
         23    2    1    2    0    0 -0.56181266488E+03  0.55606938916E+03 -0.11948823204E+04  0.14356552078E+04  0.92279358795E+02 0.  0.
        254    2    1    2    0    0  0.56181266488E+03 -0.55606938916E+03  0.30204488903E+03  0.12418769189E+04  0.90894473471E+03 0.  0.
         23    2    4    4    0    0 -0.37618014799E+02 -0.46248315419E+03 -0.13161602030E+03  0.49062140878E+03  0.89893309045E+02 0.  0.
         23    2    4    4    0    0  0.59943067968E+03 -0.93586234974E+02  0.43366090933E+03  0.75125551013E+03  0.90815935266E+02 0.  0.
          1    1    3    3  502    0 -0.55913935111E+03  0.55448953745E+03 -0.11683937385E+04  0.14089852339E+04  0.00000000000E+00 0. -1.
         -1    1    3    3    0  502 -0.26733137781E+01  0.15798517059E+01 -0.26488581863E+02  0.26669973886E+02  0.00000000000E+00 0.  1.
         13    1    5    5    0    0 -0.29921797824E+02 -0.46382861836E+03 -0.13016262921E+03  0.48267443607E+03  0.00000000000E+00 0.  1.
        -13    1    5    5    0    0 -0.76962169751E+01  0.13454641742E+01 -0.14533910942E+01  0.79469727095E+01  0.00000000000E+00 0. -1.
          4    1    6    6  503    0  0.43225314129E+03 -0.70249608200E+02  0.36077080503E+03  0.56739171598E+03  0.00000000000E+00 0. -1.
         -4    1    6    6    0  503  0.16717753840E+03 -0.23336626774E+02  0.72890104302E+02  0.18386379415E+03  0.00000000000E+00 0.  1.
<mgrwt>
<rscale>  0 0.25242860E+04</rscale>
<asrwt>0</asrwt>
<pdfrwt beam="1">  1        1 0.27464381E+00 0.25242860E+04</pdfrwt>
<pdfrwt beam="2">  1       -1 0.13728421E+00 0.25242860E+04</pdfrwt>
<totfact> 0.16305842E+00</totfact>
</mgrwt>
</event>
<event>
12    3  0.4806716E-008  0.1019935E+04  0.7818608E-02  0.9286947E-01
          2   -1    0    0  501    0  0.00000000000E+00  0.00000000000E+00  0.65580955865E+03  0.65580955865E+03  0.00000000000E+00 0.  1.
         -2   -1    0    0    0  501 -0.00000000000E+00 -0.00000000000E+00 -0.39655825197E+03  0.39655825197E+03  0.00000000000E+00 0. -1.
         23    2    1    2    0    0  0.64656430118E+02  0.25307076224E+02  0.14467715624E+02  0.11722421464E+03  0.93334343308E+02 0.  0.
        254    2    1    2    0    0 -0.64656430118E+02 -0.25307076224E+02  0.24478359106E+03  0.93514359598E+03  0.89986312103E+03 0.  0.
         23    2    4    4    0    0 -0.23636305043E+03  0.34099340028E+03 -0.50290341379E+02  0.42623538496E+03  0.83686882602E+02 0.  0.
         23    2    4    4    0    0  0.17170662031E+03 -0.36630047650E+03  0.29507393244E+03  0.50890821102E+03  0.90883106753E+02 0.  0.
          4    1    3    3  502    0  0.70405017702E+02  0.51514105297E+02  0.20741424236E+02  0.89670375495E+02  0.00000000000E+00 0. -1.
         -4    1    3    3    0  502 -0.57485875840E+01 -0.26207029073E+02 -0.62737086126E+01  0.27553839148E+02  0.00000000000E+00 0.  1.
         13    1    5    5    0    0 -0.44819642128E+02  0.13247249219E+03 -0.95251511501E+01  0.14017307163E+03  0.00000000000E+00 0.  1.
        -13    1    5    5    0    0 -0.19154340830E+03  0.20852090809E+03 -0.40765190229E+02  0.28606231333E+03  0.00000000000E+00 0. -1.
          3    1    6    6  503    0  0.10034518259E+03 -0.15210390815E+03  0.17738772755E+03  0.25430525050E+03  0.00000000000E+00 0. -1.
         -3    1    6    6    0  503  0.71361437717E+02 -0.21419656835E+03  0.11768620489E+03  0.25460296052E+03  0.00000000000E+00 0.  1.
<mgrwt>
<rscale>  0 0.10199347E+04</rscale>
<asrwt>0</asrwt>
<pdfrwt beam="1">  1        2 0.10089378E+00 0.10199347E+04</pdfrwt>
<pdfrwt beam="2">  1       -2 0.61008962E-01 0.10199347E+04</pdfrwt>
<totfact> 0.11093753E+02</totfact>
</mgrwt>
</event>
<event>
12    3  0.4806716E-008  0.2270592E+04  0.7818608E-02  0.8489607E-01
          2   -1    0    0  501    0  0.00000000000E+00  0.00000000000E+00  0.26628145894E+04  0.26628145894E+04  0.00000000000E+00 0. -1.
         -2   -1    0    0    0  501 -0.00000000000E+00 -0.00000000000E+00 -0.48403567022E+03  0.48403567022E+03  0.00000000000E+00 0.  1.
         23    2    1    2    0    0  0.62035363830E+02 -0.56250636292E+03  0.19919237976E+04  0.20727699128E+04  0.91394209099E+02 0.  0.
        254    2    1    2    0    0 -0.62035363830E+02  0.56250636292E+03  0.18685512158E+03  0.10740803468E+04  0.89357258250E+03 0.  0.
         23    2    4    4    0    0  0.35295077593E+03  0.17303831757E+02  0.34119476923E+02  0.36622837846E+03  0.89918928248E+02 0.  0.
         23    2    4    4    0    0 -0.41498613976E+03  0.54520253116E+03  0.15273564465E+03  0.70785196833E+03  0.90922690990E+02 0.  0.
          4    1    3    3  502    0  0.75264012523E+02 -0.54637078183E+03  0.18951795716E+04  0.19738012340E+04  0.00000000000E+00 0. -1.
         -4    1    3    3    0  502 -0.13228648693E+02 -0.16135581087E+02  0.96744226006E+02  0.98968678827E+02  0.00000000000E+00 0.  1.
         13    1    5    5    0    0  0.35148477608E+03  0.10655740766E+02  0.43832029927E+02  0.35436752034E+03  0.00000000000E+00 0.  1.
        -13    1    5    5    0    0  0.14659998551E+01  0.66480909907E+01 -0.97125530039E+01  0.11860858116E+02  0.00000000000E+00 0. -1.
          1    1    6    6  503    0 -0.34140404090E+03  0.49579298583E+03  0.12336681371E+03  0.61448089853E+03  0.00000000000E+00 0.  1.
         -1    1    6    6    0  503 -0.73582098865E+02  0.49409545332E+02  0.29368830939E+02  0.93371069792E+02  0.00000000000E+00 0. -1.
<mgrwt>
<rscale>  0 0.22705922E+04</rscale>
<asrwt>0</asrwt>
<pdfrwt beam="1">  1        2 0.40966377E+00 0.22705922E+04</pdfrwt>
<pdfrwt beam="2">  1       -2 0.74467028E-01 0.22705922E+04</pdfrwt>
<totfact> 0.41202973E+00</totfact>
</mgrwt>
</event>
<event>
12    3  0.4806716E-008  0.1952447E+04  0.7818608E-02  0.8629182E-01
          1   -1    0    0  501    0  0.00000000000E+00  0.00000000000E+00  0.85195230999E+03  0.85195230999E+03  0.00000000000E+00 0. -1.
         -1   -1    0    0    0  501 -0.00000000000E+00 -0.00000000000E+00 -0.11186215413E+04  0.11186215413E+04  0.00000000000E+00 0.  1.
         23    2    1    2    0    0  0.43492169468E+03  0.19164185124E+01  0.53382814594E+03  0.69990291942E+03  0.12542349878E+03 0.  0.
        254    2    1    2    0    0 -0.43492169468E+03 -0.19164185124E+01 -0.80049737729E+03  0.12706709319E+04  0.88580359731E+03 0.  0.
         23    2    4    4    0    0  0.17043054264E+03  0.20736183082E+03 -0.64372479061E+02  0.29050042738E+03  0.90560385932E+02 0.  0.
         23    2    4    4    0    0 -0.60535223732E+03 -0.20927824933E+03 -0.73612489823E+03  0.98017050454E+03  0.92766563489E+02 0.  0.
          4    1    3    3  502    0  0.31093720209E+03 -0.55179116335E+02  0.38527940488E+03  0.49816352571E+03  0.00000000000E+00 0. -1.
         -4    1    3    3    0  502  0.12398449259E+03  0.57095534847E+02  0.14854874107E+03  0.20173939371E+03  0.00000000000E+00 0.  1.
         13    1    5    5    0    0  0.50696457955E+02  0.20660484388E+02 -0.39088884872E+02  0.67267580489E+02  0.00000000000E+00 0. -1.
        -13    1    5    5    0    0  0.11973408469E+03  0.18670134643E+03 -0.25283594189E+02  0.22323284689E+03  0.00000000000E+00 0.  1.
          1    1    6    6  503    0 -0.23270202721E+03 -0.10103277900E+03 -0.23021833624E+03  0.34257603279E+03  0.00000000000E+00 0. -1.
         -1    1    6    6    0  503 -0.37265021011E+03 -0.10824547033E+03 -0.50590656199E+03  0.63759447175E+03  0.00000000000E+00 0.  1.
<mgrwt>
<rscale>  0 0.19524469E+04</rscale>
<asrwt>0</asrwt>
<pdfrwt beam="1">  1        1 0.13106959E+00 0.19524469E+04</pdfrwt>
<pdfrwt beam="2">  1       -1 0.17209562E+00 0.19524469E+04</pdfrwt>
<totfact> 0.44136825E+00</totfact>
</mgrwt>
</event>
<event>
12    3  0.4806716E-008  0.1856576E+04  0.7818608E-02  0.8676779E-01
          2   -1    0    0  501    0  0.00000000000E+00  0.00000000000E+00  0.10235311715E+04  0.10235311715E+04  0.00000000000E+00 0.  1.
         -2   -1    0    0    0  501 -0.00000000000E+00 -0.00000000000E+00 -0.84190712615E+03  0.84190712615E+03  0.00000000000E+00 0. -1.
         23    2    1    2    0    0 -0.54560772585E+03  0.35829133276E+03  0.34399276366E+03  0.74365169060E+03  0.92878123631E+02 0.  0.
        254    2    1    2    0    0  0.54560772585E+03 -0.35829133276E+03 -0.16236871829E+03  0.11217866071E+04  0.89776451338E+03 0.  0.
         23    2    4    4    0    0  0.16164811849E+03  0.27453322406E+03  0.73290252137E+02  0.33980175837E+03  0.92710132179E+02 0.  0.
         23    2    4    4    0    0  0.38395960736E+03 -0.63282455683E+03 -0.23565897043E+03  0.78198484870E+03  0.89851285124E+02 0.  0.
          4    1    3    3  502    0 -0.39215018153E+02  0.24860173171E+02 -0.25379047019E+00  0.46431780801E+02  0.00000000000E+00 0.  1.
         -4    1    3    3    0  502 -0.50639270769E+03  0.33343115959E+03  0.34424655413E+03  0.69721990980E+03  0.00000000000E+00 0. -1.
         13    1    5    5    0    0  0.15575188543E+03  0.19663125356E+03  0.36633023439E+02  0.25350439464E+03  0.00000000000E+00 0.  1.
        -13    1    5    5    0    0  0.58962330576E+01  0.77901970500E+02  0.36657228698E+02  0.86297363737E+02  0.00000000000E+00 0. -1.
          2    1    6    6  503    0  0.13273396664E+03 -0.14282759222E+03 -0.62476667113E+02  0.20474706575E+03  0.00000000000E+00 0. -1.
         -2    1    6    6    0  503  0.25122564072E+03 -0.48999696461E+03 -0.17318230332E+03  0.57723778295E+03  0.00000000000E+00 0.  1.
<mgrwt>
<rscale>  0 0.18565755E+04</rscale>
<asrwt>0</asrwt>
<pdfrwt beam="1">  1        2 0.15746633E+00 0.18565755E+04</pdfrwt>
<pdfrwt beam="2">  1       -2 0.12952417E+00 0.18565755E+04</pdfrwt>
<totfact> 0.10023452E+01</totfact>
</mgrwt>
</event>
<event>
12    3  0.4806716E-008  0.1110072E+04  0.7818608E-02  0.9195430E-01
          2   -1    0    0  501    0  0.00000000000E+00  0.00000000000E+00  0.15067478693E+04  0.15067478693E+04  0.00000000000E+00 0. -1.
         -2   -1    0    0    0  501 -0.00000000000E+00 -0.00000000000E+00 -0.20445690732E+03  0.20445690732E+03  0.00000000000E+00 0.  1.
         23    2    1    2    0    0 -0.15976590393E+03 -0.40021194032E+01  0.31004195774E+03  0.36094052992E+03  0.92794878957E+02 0.  0.
        254    2    1    2    0    0  0.15976590393E+03  0.40021194032E+01  0.99224900420E+03  0.13502642467E+04  0.90172850041E+03 0.  0.
         23    2    4    4    0    0  0.40913857928E+03 -0.93523504087E+02  0.14206927708E+03  0.45364415967E+03  0.97305299112E+02 0.  0.
         23    2    4    4    0    0 -0.24937267535E+03  0.97525623490E+02  0.85017972712E+03  0.89662008700E+03  0.97077461570E+02 0.  0.
          2    1    3    3  502    0 -0.10462531552E+03  0.30308666699E+02  0.13034080163E+03  0.16986405297E+03  0.00000000000E+00 0.  1.
         -2    1    3    3    0  502 -0.55140588415E+02 -0.34310786102E+02  0.17970115611E+03  0.19107647694E+03  0.00000000000E+00 0. -1.
         13    1    5    5    0    0  0.36435111938E+03 -0.53214424319E+02  0.13808527804E+03  0.39325698615E+03  0.00000000000E+00 0. -1.
        -13    1    5    5    0    0  0.44787459905E+02 -0.40309079769E+02  0.39839990401E+01  0.60387173513E+02  0.00000000000E+00 0.  1.
          4    1    6    6  503    0 -0.21064189320E+03  0.41208828214E+02  0.68560428260E+03  0.71841590114E+03  0.00000000000E+00 0. -1.
         -4    1    6    6    0  503 -0.38730782154E+02  0.56316795276E+02  0.16457544453E+03  0.17820418586E+03  0.00000000000E+00 0.  1.
<mgrwt>
<rscale>  0 0.11100721E+04</rscale>
<asrwt>0</asrwt>
<pdfrwt beam="1">  1        2 0.23180736E+00 0.11100721E+04</pdfrwt>
<pdfrwt beam="2">  1       -2 0.31454910E-01 0.11100721E+04</pdfrwt>
<totfact> 0.11706752E+02</totfact>
</mgrwt>
</event>
<event>
12    3  0.4806716E-008  0.2716085E+04  0.7818608E-02  0.8329805E-01
         -2   -1    0    0    0  501 -0.00000000000E+00  0.00000000000E+00  0.10314562626E+04  0.10314562626E+04  0.00000000000E+00 0.  1.
          2   -1    0    0  501    0  0.00000000000E+00 -0.00000000000E+00 -0.17880339609E+04  0.17880339609E+04  0.00000000000E+00 0. -1.
         23    2    1    2    0    0 -0.23890160270E+03 -0.11107225220E+04 -0.77403537553E+03  0.13778267811E+04  0.92181232449E+02 0.  0.
        254    2    1    2    0    0  0.23890160270E+03  0.11107225220E+04  0.17457677213E+02  0.14416634424E+04  0.88730502874E+03 0.  0.
         23    2    4    4    0    0  0.21802960395E+03  0.78056475084E+03 -0.39389549288E+03  0.90584651567E+03  0.92660737025E+02 0.  0.
         23    2    4    4    0    0  0.20871998753E+02  0.33015777111E+03  0.41135317009E+03  0.53581692670E+03  0.91916017293E+02 0.  0.
          2    1    3    3  502    0 -0.11214306872E+03 -0.39209553244E+03 -0.32008420084E+03  0.51842923341E+03  0.00000000000E+00 0. -1.
         -2    1    3    3    0  502 -0.12675853399E+03 -0.71862698951E+03 -0.45395117469E+03  0.85939754770E+03  0.00000000000E+00 0.  1.
         13    1    5    5    0    0  0.94956904323E+02  0.49236385686E+03 -0.26307732220E+03  0.56625847338E+03  0.00000000000E+00 0. -1.
        -13    1    5    5    0    0  0.12307269963E+03  0.28820089399E+03 -0.13081817068E+03  0.33958804229E+03  0.00000000000E+00 0.  1.
          3    1    6    6  503    0  0.52314663057E+02  0.26886648749E+03  0.34049754541E+03  0.43699495477E+03  0.00000000000E+00 0. -1.
         -3    1    6    6    0  503 -0.31442664304E+02  0.61291283625E+02  0.70855624689E+02  0.98821971935E+02  0.00000000000E+00 0.  1.
<mgrwt>
<rscale>  0 0.27160846E+04</rscale>
<asrwt>0</asrwt>
<pdfrwt beam="1">  1        2 0.27508215E+00 0.27160846E+04</pdfrwt>
<pdfrwt beam="2">  1       -2 0.15868558E+00 0.27160846E+04</pdfrwt>
<totfact> 0.19778801E+00</totfact>
</mgrwt>
</event>
<event>
12    3  0.4806716E-008  0.1295745E+04  0.7818608E-02  0.9032946E-01
          1   -1    0    0  501    0  0.00000000000E+00  0.00000000000E+00  0.13252555063E+04  0.13252555063E+04  0.00000000000E+00 0. -1.
         -1   -1    0    0    0  501 -0.00000000000E+00 -0.00000000000E+00 -0.31672291594E+03  0.31672291594E+03  0.00000000000E+00 0.  1.
         23    2    1    2    0    0  0.79480482854E+02  0.11764020168E+03  0.64509964463E+03  0.66711314810E+03  0.93434665192E+02 0.  0.
        254    2    1    2    0    0 -0.79480482854E+02 -0.11764020168E+03  0.36343294576E+03  0.97486527418E+03  0.89337698231E+03 0.  0.
         23    2    4    4    0    0  0.23257534650E+02 -0.38387817948E+03 -0.11293456392E+03  0.41152985452E+03  0.93269694101E+02 0.  0.
         23    2    4    4    0    0 -0.10273801750E+03  0.26623797780E+03  0.47636750968E+03  0.56333541966E+03  0.94778846229E+02 0.  0.
          4    1    3    3  502    0  0.68952094770E+02  0.47203825136E+02  0.20645681043E+03  0.22272630526E+03  0.00000000000E+00 0. -1.
         -4    1    3    3    0  502  0.10528388084E+02  0.70436376542E+02  0.43864283420E+03  0.44438684284E+03  0.00000000000E+00 0.  1.
         13    1    5    5    0    0 -0.64690234545E+01 -0.24192048634E+03 -0.11156966041E+03  0.26648669591E+03  0.00000000000E+00 0. -1.
        -13    1    5    5    0    0  0.29726558104E+02 -0.14195769314E+03 -0.13649035156E+01  0.14504315861E+03  0.00000000000E+00 0.  1.
          4    1    6    6  503    0 -0.20467985513E+02  0.77851426098E+02  0.22287939021E+03  0.23697047402E+03  0.00000000000E+00 0. -1.
         -4    1    6    6    0  503 -0.82270031991E+02  0.18838655170E+03  0.25348811947E+03  0.32636494564E+03  0.00000000000E+00 0.  1.
<mgrwt>
<rscale>  0 0.12957450E+04</rscale>
<asrwt>0</asrwt>
<pdfrwt beam="1">  1        1 0.20388546E+00 0.12957450E+04</pdfrwt>
<pdfrwt beam="2">  1       -1 0.48726603E-01 0.12957450E+04</pdfrwt>
<totfact> 0.35947580E+01</totfact>
</mgrwt>
</event>
<event>
12    3  0.4806716E-008  0.1117522E+04  0.7818608E-02  0.9188280E-01
         -1   -1    0    0    0  501 -0.00000000000E+00  0.00000000000E+00  0.14448486101E+04  0.14448486101E+04  0.00000000000E+00 0.  1.
          1   -1    0    0  501    0  0.00000000000E+00 -0.00000000000E+00 -0.21608751470E+03  0.21608751470E+03  0.00000000000E+00 0. -1.
         23    2    1    2    0    0  0.17182810880E+03  0.33096538891E+02  0.29542019873E+03  0.35593729786E+03  0.93797581670E+02 0.  0.
        254    2    1    2    0    0 -0.17182810880E+03 -0.33096538891E+02  0.93334089667E+03  0.13049988269E+04  0.89514045215E+03 0.  0.
         23    2    4    4    0    0  0.34802127145E+03 -0.11503319256E+03  0.42431735980E+03  0.56787489992E+03  0.89917959050E+02 0.  0.
         23    2    4    4    0    0 -0.51984938026E+03  0.81936653668E+02  0.50902353688E+03  0.73712392703E+03  0.85379911785E+02 0.  0.
          4    1    3    3  502    0  0.67667494915E+02  0.59611970592E+02  0.15154496744E+03  0.17634725420E+03  0.00000000000E+00 0.  1.
         -4    1    3    3    0  502  0.10416061389E+03 -0.26515431701E+02  0.14387523129E+03  0.17959004366E+03  0.00000000000E+00 0. -1.
         13    1    5    5    0    0  0.55540531787E+02 -0.68650771487E+01  0.11875941673E+03  0.13128472500E+03  0.00000000000E+00 0. -1.
        -13    1    5    5    0    0  0.29248073967E+03 -0.10816811541E+03  0.30555794306E+03  0.43659017492E+03  0.00000000000E+00 0.  1.
          1    1    6    6  503    0 -0.18254701222E+03  0.68215950056E+02  0.20453952701E+03  0.28251238136E+03  0.00000000000E+00 0. -1.
         -1    1    6    6    0  503 -0.33730236803E+03  0.13720703612E+02  0.30448400987E+03  0.45461154567E+03  0.00000000000E+00 0.  1.
<mgrwt>
<rscale>  0 0.11175218E+04</rscale>
<asrwt>0</asrwt>
<pdfrwt beam="1">  1        1 0.33244234E-01 0.11175218E+04</pdfrwt>
<pdfrwt beam="2">  1       -1 0.22228439E+00 0.11175218E+04</pdfrwt>
<totfact> 0.14246227E+01</totfact>
</mgrwt>
</event>
<event>
12    3  0.4806716E-008  0.3600613E+04  0.7818608E-02  0.8090351E-01
          2   -1    0    0  501    0  0.00000000000E+00  0.00000000000E+00  0.27586378886E+04  0.27586378886E+04  0.00000000000E+00 0.  1.
         -2   -1    0    0    0  501 -0.00000000000E+00 -0.00000000000E+00 -0.11748928338E+04  0.11748928338E+04  0.00000000000E+00 0. -1.
         23    2    1    2    0    0  0.14272767814E+04  0.54684831276E+03 -0.39667535530E+02  0.15326899607E+04  0.10678442917E+03 0.  0.
        254    2    1    2    0    0 -0.14272767814E+04 -0.54684831276E+03  0.16234125904E+04  0.24008407617E+04  0.89017180173E+03 0.  0.
         23    2    4    4    0    0 -0.76513831184E+03 -0.49211670260E+01  0.31058077737E+03  0.83091835612E+03  0.92217358119E+02 0.  0.
         23    2    4    4    0    0 -0.66213846961E+03 -0.54192714574E+03  0.13128318130E+04  0.15699224056E+04  0.94955811842E+02 0.  0.
          3    1    3    3  502    0  0.87556464952E+03  0.32613281343E+03  0.27116673127E+02  0.93472529732E+03  0.00000000000E+00 0. -1.
         -3    1    3    3    0  502  0.55171213192E+03  0.22071549934E+03 -0.66784208656E+02  0.59796466341E+03  0.00000000000E+00 0.  1.
         13    1    5    5    0    0 -0.72077509207E+03  0.14319159373E+02  0.30285976670E+03  0.78195000477E+03  0.00000000000E+00 0. -1.
        -13    1    5    5    0    0 -0.44363219769E+02 -0.19240326399E+02  0.77210106659E+01  0.48968351350E+02  0.00000000000E+00 0.  1.
          3    1    6    6  503    0 -0.27223768731E+03 -0.20289978068E+03  0.60200238878E+03  0.69115016855E+03  0.00000000000E+00 0.  1.
         -3    1    6    6    0  503 -0.38990078230E+03 -0.33902736506E+03  0.71082942422E+03  0.87877223707E+03  0.00000000000E+00 0. -1.
<mgrwt>
<rscale>  0 0.36006132E+04</rscale>
<asrwt>0</asrwt>
<pdfrwt beam="1">  1        2 0.42440583E+00 0.36006132E+04</pdfrwt>
<pdfrwt beam="2">  1       -2 0.18075274E+00 0.36006132E+04</pdfrwt>
<totfact> 0.35752006E-01</totfact>
</mgrwt>
</event>
<event>
12    3  0.4806716E-008  0.2229513E+04  0.7818608E-02  0.8506244E-01
         -1   -1    0    0    0  501 -0.00000000000E+00  0.00000000000E+00  0.11852910129E+04  0.11852910129E+04  0.00000000000E+00 0.  1.
          1   -1    0    0  501    0  0.00000000000E+00 -0.00000000000E+00 -0.10484196403E+04  0.10484196403E+04  0.00000000000E+00 0. -1.
         23    2    1    2    0    0 -0.29364100362E+03  0.81772070210E+03  0.39090965099E+03  0.95690559198E+03  0.89251168471E+02 0.  0.
        254    2    1    2    0    0  0.29364100362E+03 -0.81772070210E+03 -0.25403827847E+03  0.12768050612E+04  0.90044629587E+03 0.  0.
         23    2    4    4    0    0  0.33783500638E+03 -0.34063816995E+01  0.12684052680E+03  0.37217337965E+03  0.90996759867E+02 0.  0.
         23    2    4    4    0    0 -0.44194002756E+02 -0.81431432040E+03 -0.38087880527E+03  0.90463168157E+03  0.90713244347E+02 0.  0.
          2    1    3    3  502    0 -0.27628285348E+02  0.11743788680E+03  0.85826290590E+02  0.14805786559E+03  0.00000000000E+00 0. -1.
         -2    1    3    3    0  502 -0.26601271828E+03  0.70028281531E+03  0.30508336040E+03  0.80884772639E+03  0.00000000000E+00 0.  1.
         13    1    5    5    0    0  0.10254883692E+03 -0.38589570982E+02  0.19991249883E+02  0.11137804548E+03  0.00000000000E+00 0. -1.
        -13    1    5    5    0    0  0.23528616946E+03  0.35183189283E+02  0.10684927691E+03  0.26079533417E+03  0.00000000000E+00 0.  1.
          4    1    6    6  503    0 -0.29039847309E+02 -0.73114865526E+03 -0.36823165621E+03  0.81915579804E+03  0.00000000000E+00 0.  1.
         -4    1    6    6    0  503 -0.15154155447E+02 -0.83165665140E+02 -0.12647149053E+02  0.85475883527E+02  0.00000000000E+00 0. -1.
<mgrwt>
<rscale>  0 0.22295133E+04</rscale>
<asrwt>0</asrwt>
<pdfrwt beam="1">  1        1 0.16129533E+00 0.22295133E+04</pdfrwt>
<pdfrwt beam="2">  1       -1 0.18235246E+00 0.22295133E+04</pdfrwt>
<totfact> 0.25264470E+00</totfact>
</mgrwt>
</event>
<event>
12    3  0.4806716E-008  0.1306661E+04  0.7818608E-02  0.9024300E-01
         -2   -1    0    0    0  501 -0.00000000000E+00  0.00000000000E+00  0.38059168759E+03  0.38059168759E+03  0.00000000000E+00 0.  1.
          2   -1    0    0  501    0  0.00000000000E+00 -0.00000000000E+00 -0.11215185149E+04  0.11215185149E+04  0.00000000000E+00 0. -1.
         23    2    1    2    0    0 -0.52755151989E+02  0.38432162619E+02 -0.58967563848E+03  0.60021749825E+03  0.91014006676E+02 0.  0.
        254    2    1    2    0    0  0.52755151989E+02 -0.38432162619E+02 -0.15125118878E+03  0.90189270419E+03  0.88672058202E+03 0.  0.
         23    2    4    4    0    0  0.16173258412E+03  0.39216930311E+03 -0.88760285076E+02  0.44434098820E+03  0.98011910096E+02 0.  0.
         23    2    4    4    0    0 -0.10897743213E+03 -0.43060146573E+03 -0.62490903706E+02  0.45755171599E+03  0.90303691866E+02 0.  0.
          4    1    3    3  502    0 -0.43098787443E+02 -0.20799532478E+02 -0.34427668517E+03  0.34758676900E+03  0.00000000000E+00 0. -1.
         -4    1    3    3    0  502 -0.96563645464E+01  0.59231695096E+02 -0.24539895331E+03  0.25263072926E+03  0.00000000000E+00 0.  1.
         13    1    5    5    0    0  0.14269148579E+03  0.38968785512E+03 -0.91460355971E+02  0.42494997501E+03  0.00000000000E+00 0.  1.
        -13    1    5    5    0    0  0.19041098325E+02  0.24814479838E+01  0.27000708948E+01  0.19391013186E+02  0.00000000000E+00 0. -1.
          4    1    6    6  503    0 -0.57233506004E+02 -0.35210506555E+03 -0.68891071855E+02  0.36331753492E+03  0.00000000000E+00 0.  1.
         -4    1    6    6    0  503 -0.51743926123E+02 -0.78496400174E+02  0.64001681488E+01  0.94234181077E+02  0.00000000000E+00 0. -1.
<mgrwt>
<rscale>  0 0.13066608E+04</rscale>
<asrwt>0</asrwt>
<pdfrwt beam="1">  1        2 0.17254131E+00 0.13066608E+04</pdfrwt>
<pdfrwt beam="2">  1       -2 0.58552567E-01 0.13066608E+04</pdfrwt>
<totfact> 0.56458310E+01</totfact>
</mgrwt>
</event>
<event>
12    3  0.4806716E-008  0.1251093E+04  0.7818608E-02  0.9069274E-01
          1   -1    0    0  501    0  0.00000000000E+00  0.00000000000E+00  0.10544562582E+04  0.10544562582E+04  0.00000000000E+00 0. -1.
         -1   -1    0    0    0  501 -0.00000000000E+00 -0.00000000000E+00 -0.37109978984E+03  0.37109978984E+03  0.00000000000E+00 0.  1.
         23    2    1    2    0    0 -0.98319931623E+02  0.72824334926E+01  0.45533201560E+03  0.47286925247E+03  0.80982977882E+02 0.  0.
        254    2    1    2    0    0  0.98319931623E+02 -0.72824334926E+01  0.22802445273E+03  0.95268679554E+03  0.91972666404E+03 0.  0.
         23    2    4    4    0    0  0.78511504289E+02  0.44555096761E+03  0.92667010061E+02  0.47090872046E+03  0.92131032817E+02 0.  0.
         23    2    4    4    0    0  0.19808427334E+02 -0.45283340111E+03  0.13535744267E+03  0.48177807507E+03  0.91312722996E+02 0.  0.
          2    1    3    3  502    0 -0.45907034477E+02 -0.36805804559E+02  0.19556018687E+03  0.20422024814E+03  0.00000000000E+00 0. -1.
         -2    1    3    3    0  502 -0.52412897146E+02  0.44088238051E+02  0.25977182874E+03  0.26864900433E+03  0.00000000000E+00 0.  1.
         13    1    5    5    0    0  0.46270979973E+02  0.37500151968E+03  0.10547569726E+03  0.39229104764E+03  0.00000000000E+00 0. -1.
        -13    1    5    5    0    0  0.32240524316E+02  0.70549447939E+02 -0.12808687196E+02  0.78617672824E+02  0.00000000000E+00 0.  1.
          2    1    6    6  503    0  0.23158036271E+02 -0.18959887868E+03  0.12924446057E+02  0.19144469370E+03  0.00000000000E+00 0. -1.
         -2    1    6    6    0  503 -0.33496089374E+01 -0.26323452243E+03  0.12243299661E+03  0.29033338137E+03  0.00000000000E+00 0.  1.
<mgrwt>
<rscale>  0 0.12510931E+04</rscale>
<asrwt>0</asrwt>
<pdfrwt beam="1">  1        1 0.16222404E+00 0.12510931E+04</pdfrwt>
<pdfrwt beam="2">  1       -1 0.57092276E-01 0.12510931E+04</pdfrwt>
<totfact> 0.42055186E+01</totfact>
</mgrwt>
</event>
<event>
12    3  0.4806716E-008  0.2407065E+04  0.7818608E-02  0.8436863E-01
         -2   -1    0    0    0  501 -0.00000000000E+00  0.00000000000E+00  0.75210154185E+03  0.75210154185E+03  0.00000000000E+00 0.  1.
          2   -1    0    0  501    0  0.00000000000E+00 -0.00000000000E+00 -0.19259245079E+04  0.19259245079E+04  0.00000000000E+00 0. -1.
         23    2    1    2    0    0 -0.30551895433E+03 -0.17012454142E+03  0.57403933667E+03  0.67821061751E+03  0.90356464106E+02 0.  0.
        254    2    1    2    0    0  0.30551895433E+03  0.17012454142E+03 -0.17478623027E+04  0.19998154322E+04  0.90661730772E+03 0.  0.
         23    2    4    4    0    0 -0.28237720370E+03 -0.50035981317E+02 -0.32831242801E+03  0.44497718707E+03  0.89303762690E+02 0.  0.
         23    2    4    4    0    0  0.58789615804E+03  0.22016052273E+03 -0.14195498747E+04  0.15548382452E+04  0.91145890799E+02 0.  0.
          1    1    3    3  502    0 -0.13577606256E+03 -0.12581571507E+03  0.31484339620E+03  0.36522745989E+03  0.00000000000E+00 0. -1.
         -1    1    3    3    0  502 -0.16974289177E+03 -0.44308826348E+02  0.25919594047E+03  0.31298315762E+03  0.00000000000E+00 0.  1.
         13    1    5    5    0    0 -0.20746142852E+02 -0.26846143614E+02 -0.17930384415E+02  0.38374686389E+02  0.00000000000E+00 0. -1.
        -13    1    5    5    0    0 -0.26163106085E+03 -0.23189837703E+02 -0.31038204360E+03  0.40660250068E+03  0.00000000000E+00 0.  1.
          4    1    6    6  503    0  0.57274114199E+02  0.52887374979E+02 -0.17941299379E+03  0.19561804858E+03  0.00000000000E+00 0. -1.
         -4    1    6    6    0  503  0.53062204384E+03  0.16727314776E+03 -0.12401368809E+04  0.13592201966E+04  0.00000000000E+00 0.  1.
<mgrwt>
<rscale>  0 0.24070653E+04</rscale>
<asrwt>0</asrwt>
<pdfrwt beam="1">  1        2 0.29629607E+00 0.24070653E+04</pdfrwt>
<pdfrwt beam="2">  1       -2 0.11570793E+00 0.24070653E+04</pdfrwt>
<totfact> 0.38348219E+00</totfact>
</mgrwt>
</event>
<event>
12    3  0.4806716E-008  0.1259221E+04  0.7818608E-02  0.9062544E-01
         -2   -1    0    0    0  501 -0.00000000000E+00  0.00000000000E+00  0.31343415335E+03  0.31343415335E+03  0.00000000000E+00 0.  1.
          2   -1    0    0  501    0  0.00000000000E+00 -0.00000000000E+00 -0.12647290193E+04  0.12647290193E+04  0.00000000000E+00 0. -1.
         23    2    1    2    0    0 -0.19335842395E+02  0.24174679755E+03 -0.41738456595E+02  0.26274290271E+03  0.92067069255E+02 0.  0.
        254    2    1    2    0    0  0.19335842395E+02 -0.24174679755E+03 -0.90955640935E+03  0.13154202699E+04  0.91881567022E+03 0.  0.
         23    2    4    4    0    0  0.30124918322E+03 -0.44898564318E+03 -0.72773965152E+03  0.91114265801E+03  0.90756623347E+02 0.  0.
         23    2    4    4    0    0 -0.28191334082E+03  0.20723884563E+03 -0.18181675783E+03  0.40427761192E+03  0.89218737945E+02 0.  0.
          1    1    3    3  502    0 -0.33813743146E+02  0.42097732783E+02  0.12350431595E+02  0.55390626387E+02  0.00000000000E+00 0. -1.
         -1    1    3    3    0  502  0.14477900751E+02  0.19964906476E+03 -0.54088888190E+02  0.20735227632E+03  0.00000000000E+00 0.  1.
         13    1    5    5    0    0  0.21917948320E+03 -0.30374294761E+03 -0.56649017375E+03  0.67912483465E+03  0.00000000000E+00 0.  1.
        -13    1    5    5    0    0  0.82069700019E+02 -0.14524269557E+03 -0.16124947777E+03  0.23201782337E+03  0.00000000000E+00 0. -1.
          2    1    6    6  503    0 -0.74174948465E+02  0.48274831259E+02 -0.92122948258E+02  0.12774591934E+03  0.00000000000E+00 0. -1.
         -2    1    6    6    0  503 -0.20773839236E+03  0.15896401437E+03 -0.89693809569E+02  0.27653169258E+03  0.00000000000E+00 0.  1.
<mgrwt>
<rscale>  0 0.12592208E+04</rscale>
<asrwt>0</asrwt>
<pdfrwt beam="1">  1        2 0.19457370E+00 0.12592208E+04</pdfrwt>
<pdfrwt beam="2">  1       -2 0.48220639E-01 0.12592208E+04</pdfrwt>
<totfact> 0.69401745E+01</totfact>
</mgrwt>
</event>
<event>
12    3  0.4806716E-008  0.2458909E+04  0.7818608E-02  0.8417772E-01
          1   -1    0    0  501    0  0.00000000000E+00  0.00000000000E+00  0.20472424806E+04  0.20472424806E+04  0.00000000000E+00 0.  1.
         -1   -1    0    0    0  501 -0.00000000000E+00 -0.00000000000E+00 -0.73833851319E+03  0.73833851319E+03  0.00000000000E+00 0. -1.
         23    2    1    2    0    0 -0.81288990433E+03 -0.53018058595E+03  0.79211273326E+02  0.97825261283E+03  0.93927090900E+02 0.  0.
        254    2    1    2    0    0  0.81288990433E+03  0.53018058595E+03  0.12296926941E+04  0.18073283810E+04  0.90133806338E+03 0.  0.
         23    2    4    4    0    0  0.94358665064E+03  0.48529060955E+03  0.12522460955E+04  0.16438918914E+04  0.91638004555E+02 0.  0.
         23    2    4    4    0    0 -0.13069674631E+03  0.44889976395E+02 -0.22553401350E+02  0.16343648963E+03  0.84297572639E+02 0.  0.
          3    1    3    3  502    0 -0.63695294990E+03 -0.37902977915E+03  0.34261297149E+02  0.74198818748E+03  0.00000000000E+00 0. -1.
         -3    1    3    3    0  502 -0.17593695443E+03 -0.15115080679E+03  0.44949976177E+02  0.23626442535E+03  0.00000000000E+00 0.  1.
         13    1    5    5    0    0  0.21340203185E+03  0.90361768318E+02  0.22328304030E+03  0.32180893781E+03  0.00000000000E+00 0. -1.
        -13    1    5    5    0    0  0.73018461879E+03  0.39492884123E+03  0.10289630552E+04  0.13220829535E+04  0.00000000000E+00 0.  1.
          2    1    6    6  503    0 -0.12295065133E+03  0.21397042050E+02  0.68805064822E+01  0.12498814920E+03  0.00000000000E+00 0. -1.
         -2    1    6    6    0  503 -0.77460949833E+01  0.23492934345E+02 -0.29433907832E+02  0.38448340431E+02  0.00000000000E+00 0.  1.
<mgrwt>
<rscale>  0 0.24589087E+04</rscale>
<asrwt>0</asrwt>
<pdfrwt beam="1">  1        1 0.31496038E+00 0.24589087E+04</pdfrwt>
<pdfrwt beam="2">  1       -1 0.11359054E+00 0.24589087E+04</pdfrwt>
<totfact> 0.17443039E+00</totfact>
</mgrwt>
</event>
<event>
12    3  0.4806716E-008  0.1710279E+04  0.7818608E-02  0.8755524E-01
         -1   -1    0    0    0  501 -0.00000000000E+00  0.00000000000E+00  0.26471668798E+03  0.26471668798E+03  0.00000000000E+00 0.  1.
          1   -1    0    0  501    0  0.00000000000E+00 -0.00000000000E+00 -0.27624378849E+04  0.27624378849E+04  0.00000000000E+00 0. -1.
         23    2    1    2    0    0  0.42346868033E+03 -0.17691628111E+03 -0.16309567828E+04  0.16968473639E+04  0.92983089840E+02 0.  0.
        254    2    1    2    0    0 -0.42346868033E+03  0.17691628111E+03 -0.86676441408E+03  0.13303072090E+04  0.89878341502E+03 0.  0.
         23    2    4    4    0    0  0.19963095102E+03 -0.14286458005E+03 -0.80968655939E+02  0.27382430616E+03  0.90338378128E+02 0.  0.
         23    2    4    4    0    0 -0.62309963135E+03  0.31978086115E+03 -0.78579575814E+03  0.10564829029E+04  0.90378098990E+02 0.  0.
          1    1    3    3  502    0  0.42694500612E+03 -0.17923748537E+03 -0.16240824003E+04  0.16888018703E+04  0.00000000000E+00 0. -1.
         -1    1    3    3    0  502 -0.34763257857E+01  0.23212042579E+01 -0.68743825733E+01  0.80454935174E+01  0.00000000000E+00 0.  1.
         13    1    5    5    0    0  0.14470904075E+03 -0.13018145881E+03 -0.28327560331E+02  0.19669867658E+03  0.00000000000E+00 0. -1.
        -13    1    5    5    0    0  0.54921910269E+02 -0.12683121237E+02 -0.52641095608E+02  0.77125629584E+02  0.00000000000E+00 0.  1.
          2    1    6    6  503    0 -0.36520373988E+03  0.16879787029E+03 -0.38795828207E+03  0.55890797208E+03  0.00000000000E+00 0. -1.
         -2    1    6    6    0  503 -0.25789589147E+03  0.15098299087E+03 -0.39783747608E+03  0.49757493078E+03  0.00000000000E+00 0.  1.
<mgrwt>
<rscale>  0 0.17102788E+04</rscale>
<asrwt>0</asrwt>
<pdfrwt beam="1">  1        1 0.42499048E+00 0.17102788E+04</pdfrwt>
<pdfrwt beam="2">  1       -1 0.40725641E-01 0.17102788E+04</pdfrwt>
<totfact> 0.49791848E+00</totfact>
</mgrwt>
</event>
<event>
12    3  0.4806716E-008  0.2149691E+04  0.7818608E-02  0.8539665E-01
         -2   -1    0    0    0  501 -0.00000000000E+00  0.00000000000E+00  0.62624938629E+03  0.62624938629E+03  0.00000000000E+00 0. -1.
          2   -1    0    0  501    0  0.00000000000E+00 -0.00000000000E+00 -0.18447802148E+04  0.18447802148E+04  0.00000000000E+00 0.  1.
         23    2    1    2    0    0  0.22749787952E+03 -0.40757695040E+03  0.36657417302E+03  0.60028107211E+03  0.89924888259E+02 0.  0.
        254    2    1    2    0    0 -0.22749787952E+03  0.40757695040E+03 -0.15851050015E+04  0.18707485290E+04  0.87707920802E+03 0.  0.
         23    2    4    4    0    0  0.19231821601E+03  0.51072626802E+03 -0.88380781046E+03  0.10418415363E+04  0.80560064132E+02 0.  0.
         23    2    4    4    0    0 -0.41981609553E+03 -0.10314931762E+03 -0.70129719107E+03  0.82890699266E+03  0.91562636966E+02 0.  0.
          3    1    3    3  502    0  0.23289607380E+03 -0.37342695480E+03  0.33106019729E+03  0.55071692001E+03  0.00000000000E+00 0. -1.
         -3    1    3    3    0  502 -0.53981942786E+01 -0.34149995608E+02  0.35513975730E+02  0.49564152103E+02  0.00000000000E+00 0.  1.
         13    1    5    5    0    0 -0.29702064299E+00  0.32656908162E+02 -0.86362431590E+02  0.92331096940E+02  0.00000000000E+00 0.  1.
        -13    1    5    5    0    0  0.19261523665E+03  0.47806935986E+03 -0.79744537887E+03  0.94951043938E+03  0.00000000000E+00 0. -1.
          3    1    6    6  503    0 -0.34576379607E+03 -0.61362409516E+02 -0.61206741082E+03  0.70565180037E+03  0.00000000000E+00 0. -1.
         -3    1    6    6    0  503 -0.74052299458E+02 -0.41786908100E+02 -0.89229780255E+02  0.12325519230E+03  0.00000000000E+00 0.  1.
<mgrwt>
<rscale>  0 0.21496907E+04</rscale>
<asrwt>0</asrwt>
<pdfrwt beam="1">  1        2 0.28381233E+00 0.21496907E+04</pdfrwt>
<pdfrwt beam="2">  1       -2 0.96346062E-01 0.21496907E+04</pdfrwt>
<totfact> 0.67443493E+00</totfact>
</mgrwt>
</event>
<event>
12    3  0.4806716E-008  0.2423405E+04  0.7818608E-02  0.8430793E-01
          2   -1    0    0  501    0  0.00000000000E+00  0.00000000000E+00  0.14008028524E+04  0.14008028524E+04  0.00000000000E+00 0. -1.
         -2   -1    0    0    0  501 -0.00000000000E+00 -0.00000000000E+00 -0.10481295040E+04  0.10481295040E+04  0.00000000000E+00 0.  1.
         23    2    1    2    0    0 -0.64862663267E+03 -0.62651084626E+03  0.68688359683E+03  0.11374069342E+04  0.93022089807E+02 0.  0.
        254    2    1    2    0    0  0.64862663267E+03  0.62651084626E+03 -0.33421024840E+03  0.13115254222E+04  0.89172310380E+03 0.  0.
         23    2    4    4    0    0  0.64818795313E+03  0.64541079394E+03  0.45149228824E+02  0.92043617992E+03  0.91986917081E+02 0.  0.
         23    2    4    4    0    0  0.43867953710E+00 -0.18899947683E+02 -0.37935947722E+03  0.39108924228E+03  0.93165347682E+02 0.  0.
          2    1    3    3  502    0 -0.21900759812E+02 -0.18140257395E+02  0.45935892401E+02  0.54026090266E+02  0.00000000000E+00 0.  1.
         -2    1    3    3    0  502 -0.62672587286E+03 -0.60837058887E+03  0.64094770443E+03  0.10833808439E+04  0.00000000000E+00 0. -1.
         13    1    5    5    0    0  0.28922115732E+03  0.23593181019E+03  0.44503306249E+02  0.37588993225E+03  0.00000000000E+00 0. -1.
        -13    1    5    5    0    0  0.35896679581E+03  0.40947898375E+03  0.64592257549E+00  0.54454624767E+03  0.00000000000E+00 0.  1.
          4    1    6    6  503    0  0.71987992582E+01  0.36916340920E+02 -0.18374791266E+03  0.18755781600E+03  0.00000000000E+00 0. -1.
         -4    1    6    6    0  503 -0.67601197211E+01 -0.55816288603E+02 -0.19561156456E+03  0.20353142628E+03  0.00000000000E+00 0.  1.
<mgrwt>
<rscale>  0 0.24234049E+04</rscale>
<asrwt>0</asrwt>
<pdfrwt beam="1">  1        2 0.21550813E+00 0.24234049E+04</pdfrwt>
<pdfrwt beam="2">  1       -2 0.16125069E+00 0.24234049E+04</pdfrwt>
<totfact> 0.31997086E+00</totfact>
</mgrwt>
</event>
<event>
12    3  0.4806716E-008  0.1152315E+04  0.7818608E-02  0.9155650E-01
          1   -1    0    0  501    0  0.00000000000E+00  0.00000000000E+00  0.20286314002E+04  0.20286314002E+04  0.00000000000E+00 0. -1.
         -1   -1    0    0    0  501 -0.00000000000E+00 -0.00000000000E+00 -0.16363620396E+03  0.16363620396E+03  0.00000000000E+00 0.  1.
         23    2    1    2    0    0 -0.73630090987E+02 -0.19877507992E+03  0.32483789954E+03  0.39866910255E+03  0.92111180949E+02 0.  0.
        254    2    1    2    0    0  0.73630090987E+02  0.19877507992E+03  0.15401572967E+04  0.17935985016E+04  0.89441498408E+03 0.  0.
         23    2    4    4    0    0 -0.20760720582E+03 -0.16590488707E+03  0.11483924031E+04  0.11822691533E+04  0.91269139710E+02 0.  0.
         23    2    4    4    0    0  0.28123729681E+03  0.36467996699E+03  0.39176489358E+03  0.61132934831E+03  0.90321342003E+02 0.  0.
          2    1    3    3  502    0 -0.50617841353E+02 -0.85933649772E+02  0.22554044331E+03  0.24660748082E+03  0.00000000000E+00 0. -1.
         -2    1    3    3    0  502 -0.23012249634E+02 -0.11284143014E+03  0.99297456228E+02  0.15206162173E+03  0.00000000000E+00 0.  1.
         13    1    5    5    0    0 -0.60526021721E+01 -0.38193495973E+02  0.10374586559E+03  0.11071847974E+03  0.00000000000E+00 0.  1.
        -13    1    5    5    0    0 -0.20155460365E+03 -0.12771139110E+03  0.10446465375E+04  0.10715506736E+04  0.00000000000E+00 0. -1.
          2    1    6    6  503    0  0.24552144785E+03  0.28585524609E+03  0.27741208131E+03  0.46792249992E+03  0.00000000000E+00 0. -1.
         -2    1    6    6    0  503  0.35715848964E+02  0.78824720897E+02  0.11435281227E+03  0.14340684839E+03  0.00000000000E+00 0.  1.
<mgrwt>
<rscale>  0 0.11523151E+04</rscale>
<asrwt>0</asrwt>
<pdfrwt beam="1">  1        1 0.31209712E+00 0.11523151E+04</pdfrwt>
<pdfrwt beam="2">  1       -1 0.25174802E-01 0.11523151E+04</pdfrwt>
<totfact> 0.39263486E+01</totfact>
</mgrwt>
</event>
<event>
12    3  0.4806716E-008  0.1802714E+04  0.7818608E-02  0.8704857E-01
         -1   -1    0    0    0  501 -0.00000000000E+00  0.00000000000E+00  0.51083930215E+03  0.51083930215E+03  0.00000000000E+00 0.  1.
          1   -1    0    0  501    0  0.00000000000E+00 -0.00000000000E+00 -0.15904111590E+04  0.15904111590E+04  0.00000000000E+00 0. -1.
         23    2    1    2    0    0 -0.24531608538E+03 -0.62234237490E+03 -0.48827666777E+03  0.83290135613E+03  0.88433881568E+02 0.  0.
        254    2    1    2    0    0  0.24531608538E+03  0.62234237490E+03 -0.59129518905E+03  0.12683491050E+04  0.90088258847E+03 0.  0.
         23    2    4    4    0    0  0.28456951361E+03  0.78112643000E+03 -0.66372920082E+03  0.10677731246E+04  0.92003728038E+02 0.  0.
         23    2    4    4    0    0 -0.39253428222E+02 -0.15878405510E+03  0.72434011764E+02  0.20057598036E+03  0.90723922183E+02 0.  0.
          3    1    3    3  502    0 -0.12347912196E+03 -0.40846362525E+03 -0.27919339593E+03  0.50993977982E+03  0.00000000000E+00 0. -1.
         -3    1    3    3    0  502 -0.12183696342E+03 -0.21387874965E+03 -0.20908327184E+03  0.32296157631E+03  0.00000000000E+00 0.  1.
         13    1    5    5    0    0  0.43499575147E+02  0.48495717889E+02 -0.50919183475E+02  0.82685010354E+02  0.00000000000E+00 0.  1.
        -13    1    5    5    0    0  0.24106993846E+03  0.73263071211E+03 -0.61281001734E+03  0.98508811429E+03  0.00000000000E+00 0. -1.
          1    1    6    6  503    0 -0.36067560501E+02 -0.16468671549E+03  0.83114155775E+02  0.18796421486E+03  0.00000000000E+00 0. -1.
         -1    1    6    6    0  503 -0.31858677205E+01  0.59026603914E+01 -0.10680144011E+02  0.12611765496E+02  0.00000000000E+00 0.  1.
<mgrwt>
<rscale>  0 0.18027141E+04</rscale>
<asrwt>0</asrwt>
<pdfrwt beam="1">  1        1 0.24467864E+00 0.18027141E+04</pdfrwt>
<pdfrwt beam="2">  1       -1 0.78590662E-01 0.18027141E+04</pdfrwt>
<totfact> 0.86580254E+00</totfact>
</mgrwt>
</event>
<event>
12    3  0.4806716E-008  0.1901965E+04  0.7818608E-02  0.8653879E-01
          2   -1    0    0  501    0  0.00000000000E+00  0.00000000000E+00  0.17632514633E+04  0.17632514633E+04  0.00000000000E+00 0. -1.
         -2   -1    0    0    0  501 -0.00000000000E+00 -0.00000000000E+00 -0.51289789673E+03  0.51289789673E+03  0.00000000000E+00 0.  1.
         23    2    1    2    0    0 -0.27247249436E+02  0.30973583596E+02 -0.38826313353E+03  0.40469228940E+03  0.10642280186E+03 0.  0.
        254    2    1    2    0    0  0.27247249436E+02 -0.30973583596E+02  0.16386167001E+04  0.18714570706E+04  0.90309750409E+03 0.  0.
         23    2    4    4    0    0  0.22774936483E+03 -0.26664177702E+02  0.16326258282E+04  0.16511483489E+04  0.90791098063E+02 0.  0.
         23    2    4    4    0    0 -0.20050211539E+03 -0.43094058942E+01  0.59908719169E+01  0.22030872179E+03  0.90996555387E+02 0.  0.
          2    1    3    3  502    0 -0.26202298194E+02  0.68243532918E+02 -0.20418427014E+03  0.21687543980E+03  0.00000000000E+00 0. -1.
         -2    1    3    3    0  502 -0.10449512421E+01 -0.37269949322E+02 -0.18407886339E+03  0.18781684959E+03  0.00000000000E+00 0.  1.
         13    1    5    5    0    0  0.10211494562E+03  0.21304527914E+02  0.92446663236E+03  0.93033321954E+03  0.00000000000E+00 0.  1.
        -13    1    5    5    0    0  0.12563441921E+03 -0.47968705616E+02  0.70815919583E+03  0.72081512932E+03  0.00000000000E+00 0. -1.
          2    1    6    6  503    0 -0.56925626336E+02  0.37811431314E+02  0.16532414741E+02  0.70310397587E+02  0.00000000000E+00 0. -1.
         -2    1    6    6    0  503 -0.14357648906E+03 -0.42120837209E+02 -0.10541542824E+02  0.14999832420E+03  0.00000000000E+00 0.  1.
<mgrwt>
<rscale>  0 0.19019653E+04</rscale>
<asrwt>0</asrwt>
<pdfrwt beam="1">  1        2 0.27126945E+00 0.19019653E+04</pdfrwt>
<pdfrwt beam="2">  1       -2 0.78907369E-01 0.19019653E+04</pdfrwt>
<totfact> 0.12073119E+01</totfact>
</mgrwt>
</event>
<event>
12    3  0.4806716E-008  0.1608276E+04  0.7818608E-02  0.8815480E-01
         -1   -1    0    0    0  501 -0.00000000000E+00  0.00000000000E+00  0.40278124190E+03  0.40278124190E+03  0.00000000000E+00 0.  1.
          1   -1    0    0  501    0  0.00000000000E+00 -0.00000000000E+00 -0.16054328805E+04  0.16054328805E+04  0.00000000000E+00 0. -1.
         23    2    1    2    0    0 -0.42282612693E+03  0.12854322820E+03 -0.11479977772E+02  0.45127865810E+03  0.90638525086E+02 0.  0.
        254    2    1    2    0    0  0.42282612693E+03 -0.12854322820E+03 -0.11911716608E+04  0.15569354643E+04  0.89991822922E+03 0.  0.
         23    2    4    4    0    0 -0.26810723952E+03 -0.29704952367E+02 -0.23192655352E+03  0.36706745929E+03  0.90469427768E+02 0.  0.
         23    2    4    4    0    0  0.69093336645E+03 -0.98838275837E+02 -0.95924510729E+03  0.11898680050E+04  0.92069385904E+02 0.  0.
          1    1    3    3  502    0 -0.52042163412E+02  0.16009857731E+02 -0.32168834748E+02  0.63241886801E+02  0.00000000000E+00 0. -1.
         -1    1    3    3    0  502 -0.37078396352E+03  0.11253337047E+03  0.20688856976E+02  0.38803677129E+03  0.00000000000E+00 0.  1.
         13    1    5    5    0    0 -0.13680826231E+03  0.67337703160E+01 -0.65077462359E+02  0.15164735542E+03  0.00000000000E+00 0. -1.
        -13    1    5    5    0    0 -0.13129897720E+03 -0.36438722683E+02 -0.16684909117E+03  0.21542010386E+03  0.00000000000E+00 0.  1.
          2    1    6    6  503    0  0.47176908760E+03 -0.44456570999E+02 -0.70932270862E+03  0.85304229889E+03  0.00000000000E+00 0. -1.
         -2    1    6    6    0  503  0.21916427884E+03 -0.54381704838E+02 -0.24992239867E+03  0.33682570611E+03  0.00000000000E+00 0.  1.
<mgrwt>
<rscale>  0 0.16082764E+04</rscale>
<asrwt>0</asrwt>
<pdfrwt beam="1">  1        1 0.24698967E+00 0.16082764E+04</pdfrwt>
<pdfrwt beam="2">  1       -1 0.61966345E-01 0.16082764E+04</pdfrwt>
<totfact> 0.14012207E+01</totfact>
</mgrwt>
</event>
<event>
12    3  0.4806716E-008  0.2499889E+04  0.7818608E-02  0.8403025E-01
          1   -1    0    0  501    0  0.00000000000E+00  0.00000000000E+00  0.89443818657E+03  0.89443818657E+03  0.00000000000E+00 0. -1.
         -1   -1    0    0    0  501 -0.00000000000E+00 -0.00000000000E+00 -0.17467515638E+04  0.17467515638E+04  0.00000000000E+00 0.  1.
         23    2    1    2    0    0 -0.78294660388E+02 -0.78442772745E+03 -0.11564149735E+04  0.14029623847E+04  0.97728954512E+02 0.  0.
        254    2    1    2    0    0  0.78294660388E+02  0.78442772745E+03  0.30410159628E+03  0.12382273656E+04  0.90513662765E+03 0.  0.
         23    2    4    4    0    0 -0.25127503909E+03  0.17461599742E+03  0.42138924112E+03  0.52902819851E+03  0.93123844786E+02 0.  0.
         23    2    4    4    0    0  0.32956969948E+03  0.60981173003E+03 -0.11728764484E+03  0.70919916713E+03  0.93383800154E+02 0.  0.
          3    1    3    3  502    0 -0.19777302259E+02 -0.38084956969E+03 -0.47901150810E+03  0.61228225624E+03  0.00000000000E+00 0.  1.
         -3    1    3    3    0  502 -0.58517358128E+02 -0.40357815776E+03 -0.67740346541E+03  0.79068012848E+03  0.00000000000E+00 0. -1.
         13    1    5    5    0    0 -0.22056313425E+03  0.14528948099E+03  0.40500031732E+03  0.48351048232E+03  0.00000000000E+00 0. -1.
        -13    1    5    5    0    0 -0.30711904834E+02  0.29326516428E+02  0.16388923791E+02  0.45517716192E+02  0.00000000000E+00 0.  1.
          4    1    6    6  503    0  0.29016949045E+03  0.47327988088E+03 -0.70593967330E+02  0.55962102092E+03  0.00000000000E+00 0. -1.
         -4    1    6    6    0  503  0.39400209022E+02  0.13653184915E+03 -0.46693677507E+02  0.14957814621E+03  0.00000000000E+00 0.  1.
<mgrwt>
<rscale>  0 0.24998890E+04</rscale>
<asrwt>0</asrwt>
<pdfrwt beam="1">  1        1 0.13760587E+00 0.24998890E+04</pdfrwt>
<pdfrwt beam="2">  1       -1 0.26873101E+00 0.24998890E+04</pdfrwt>
<totfact> 0.86027025E-01</totfact>
</mgrwt>
</event>
<event>
12    3  0.4806716E-008  0.1729219E+04  0.7818608E-02  0.8744873E-01
         -2   -1    0    0    0  501 -0.00000000000E+00  0.00000000000E+00  0.24689784990E+03  0.24689784990E+03  0.00000000000E+00 0.  1.
          2   -1    0    0  501    0  0.00000000000E+00 -0.00000000000E+00 -0.30277678608E+04  0.30277678608E+04  0.00000000000E+00 0. -1.
         23    2    1    2    0    0 -0.24063149963E+03  0.10469817296E+02  0.67792041379E+02  0.26679980147E+03  0.92591778814E+02 0.  0.
        254    2    1    2    0    0  0.24063149963E+03 -0.10469817296E+02 -0.28486620523E+04  0.30078659092E+04  0.93507684396E+03 0.  0.
         23    2    4    4    0    0  0.13175231497E+03 -0.34365077572E+03 -0.24056245443E+04  0.24353232413E+04  0.91188339399E+02 0.  0.
         23    2    4    4    0    0  0.10887918467E+03  0.33318095843E+03 -0.44303750793E+03  0.57254266790E+03  0.93051841560E+02 0.  0.
          4    1    3    3  502    0 -0.21633079973E+03  0.25687890123E+02  0.84441974020E+02  0.23364359522E+03  0.00000000000E+00 0.  1.
         -4    1    3    3    0  502 -0.24300699897E+02 -0.15218072827E+02 -0.16649932641E+02  0.33156206252E+02  0.00000000000E+00 0. -1.
         13    1    5    5    0    0 -0.13062221042E+02 -0.39046614034E+02 -0.21842431281E+03  0.22227109599E+03  0.00000000000E+00 0. -1.
        -13    1    5    5    0    0  0.14481453601E+03 -0.30460416169E+03 -0.21872002315E+04  0.22130521453E+04  0.00000000000E+00 0.  1.
          1    1    6    6  503    0  0.85271149474E+02  0.12606456138E+03 -0.15762523313E+03  0.21910991919E+03  0.00000000000E+00 0. -1.
         -1    1    6    6    0  503  0.23608035191E+02  0.20711639705E+03 -0.28541227480E+03  0.35343274870E+03  0.00000000000E+00 0.  1.
<mgrwt>
<rscale>  0 0.17292188E+04</rscale>
<asrwt>0</asrwt>
<pdfrwt beam="1">  1        2 0.46581041E+00 0.17292188E+04</pdfrwt>
<pdfrwt beam="2">  1       -2 0.37984287E-01 0.17292188E+04</pdfrwt>
<totfact> 0.10437632E+01</totfact>
</mgrwt>
</event>
<event>
12    3  0.4806716E-008  0.1153369E+04  0.7818608E-02  0.9154681E-01
         -1   -1    0    0    0  501 -0.00000000000E+00  0.00000000000E+00  0.21724551473E+03  0.21724551473E+03  0.00000000000E+00 0.  1.
          1   -1    0    0  501    0  0.00000000000E+00 -0.00000000000E+00 -0.15308256291E+04  0.15308256291E+04  0.00000000000E+00 0. -1.
         23    2    1    2    0    0 -0.69750633989E+01  0.19554275917E+03 -0.12717081155E+03  0.25005435431E+03  0.89828406563E+02 0.  0.
        254    2    1    2    0    0  0.69750633989E+01 -0.19554275917E+03 -0.11864093028E+04  0.14980167895E+04  0.89342131476E+03 0.  0.
         23    2    4    4    0    0  0.43937079391E+03 -0.75530166712E+02 -0.54925091124E+03  0.71336254828E+03  0.91967718091E+02 0.  0.
         23    2    4    4    0    0 -0.43239573051E+03 -0.12001259246E+03 -0.63715839156E+03  0.78465424122E+03  0.91336587480E+02 0.  0.
          4    1    3    3  502    0  0.14010352083E+02  0.15425113609E+03 -0.13197527730E+03  0.20348753467E+03  0.00000000000E+00 0. -1.
         -4    1    3    3    0  502 -0.20985415482E+02  0.41291623089E+02  0.48044657487E+01  0.46566819640E+02  0.00000000000E+00 0.  1.
         13    1    5    5    0    0  0.85591835380E+02 -0.32198920911E+02 -0.16918467281E+03  0.19231793027E+03  0.00000000000E+00 0. -1.
        -13    1    5    5    0    0  0.35377895853E+03 -0.43331245800E+02 -0.38006623843E+03  0.52104461801E+03  0.00000000000E+00 0.  1.
          3    1    6    6  503    0 -0.20039058607E+03 -0.23753547399E+02 -0.34188761433E+03  0.39699843681E+03  0.00000000000E+00 0.  1.
         -3    1    6    6    0  503 -0.23200514443E+03 -0.96259045064E+02 -0.29527077723E+03  0.38765580440E+03  0.00000000000E+00 0. -1.
<mgrwt>
<rscale>  0 0.11533690E+04</rscale>
<asrwt>0</asrwt>
<pdfrwt beam="1">  1        1 0.23551164E+00 0.11533690E+04</pdfrwt>
<pdfrwt beam="2">  1       -1 0.33422386E-01 0.11533690E+04</pdfrwt>
<totfact> 0.52104880E+01</totfact>
</mgrwt>
</event>
<event>
12    3  0.4806716E-008  0.1911051E+04  0.7818608E-02  0.8649375E-01
          2   -1    0    0  501    0  0.00000000000E+00  0.00000000000E+00  0.31749039644E+04  0.31749039644E+04  0.00000000000E+00 0. -1.
         -2   -1    0    0    0  501 -0.00000000000E+00 -0.00000000000E+00 -0.28757682405E+03  0.28757682405E+03  0.00000000000E+00 0.  1.
         23    2    1    2    0    0  0.60632577397E+03  0.14198186025E+03  0.40520659196E+03  0.75037531210E+03  0.10526601549E+03 0.  0.
        254    2    1    2    0    0 -0.60632577397E+03 -0.14198186025E+03  0.24821205484E+04  0.27121054763E+04  0.89822263684E+03 0.  0.
         23    2    4    4    0    0  0.81830044655E+02  0.50531483557E+02  0.14314645700E+04  0.14381545176E+04  0.99739732359E+02 0.  0.
         23    2    4    4    0    0 -0.68815581862E+03 -0.19251334381E+03  0.10506559783E+04  0.12739509587E+04  0.91941515055E+02 0.  0.
          3    1    3    3  502    0  0.74109591962E+02  0.25163468130E+02  0.96032451104E+02  0.12388568688E+03  0.00000000000E+00 0. -1.
         -3    1    3    3    0  502  0.53221618201E+03  0.11681839212E+03  0.30917414086E+03  0.62648962522E+03  0.00000000000E+00 0.  1.
         13    1    5    5    0    0  0.53923480284E+02  0.46152428556E+02  0.39638265368E+03  0.40268721923E+03  0.00000000000E+00 0.  1.
        -13    1    5    5    0    0  0.27906564370E+02  0.43790550007E+01  0.10350819164E+04  0.10354672984E+04  0.00000000000E+00 0. -1.
          3    1    6    6  503    0 -0.59424859013E+03 -0.14178006762E+03  0.93163289856E+03  0.11140793653E+04  0.00000000000E+00 0. -1.
         -3    1    6    6    0  503 -0.93907228498E+02 -0.50733276186E+02  0.11902307978E+03  0.15987159347E+03  0.00000000000E+00 0.  1.
<mgrwt>
<rscale>  0 0.19110508E+04</rscale>
<asrwt>0</asrwt>
<pdfrwt beam="1">  1        2 0.48844674E+00 0.19110508E+04</pdfrwt>
<pdfrwt beam="2">  1       -2 0.44242591E-01 0.19110508E+04</pdfrwt>
<totfact> 0.61295147E+00</totfact>
</mgrwt>
</event>
<event>
12    3  0.4806716E-008  0.2991952E+04  0.7818608E-02  0.8246033E-01
          2   -1    0    0  501    0  0.00000000000E+00  0.00000000000E+00  0.19544406602E+04  0.19544406602E+04  0.00000000000E+00 0. -1.
         -2   -1    0    0    0  501 -0.00000000000E+00 -0.00000000000E+00 -0.11450560854E+04  0.11450560854E+04  0.00000000000E+00 0.  1.
         23    2    1    2    0    0 -0.31109644265E+03 -0.13317351709E+04  0.15557233582E+03  0.13793903251E+04  0.90638597895E+02 0.  0.
        254    2    1    2    0    0  0.31109644265E+03  0.13317351709E+04  0.65381223904E+03  0.17201064205E+04  0.81301666148E+03 0.  0.
         23    2    4    4    0    0 -0.14184771359E+02  0.27656680071E+03 -0.17291465411E+03  0.33761673158E+03  0.85995214067E+02 0.  0.
         23    2    4    4    0    0  0.32528121401E+03  0.10551683702E+04  0.82672689315E+03  0.13824896889E+04  0.92802082082E+02 0.  0.
          4    1    3    3  502    0 -0.25630868914E+03 -0.11297834056E+04  0.99507021430E+02  0.11627580724E+04  0.00000000000E+00 0. -1.
         -4    1    3    3    0  502 -0.54787753512E+02 -0.20195176529E+03  0.56065314394E+02  0.21663225272E+03  0.00000000000E+00 0.  1.
         13    1    5    5    0    0 -0.14596567444E+02  0.26736055863E+03 -0.18271847792E+03  0.32416164219E+03  0.00000000000E+00 0. -1.
        -13    1    5    5    0    0  0.41179608519E+00  0.92062420839E+01  0.98038238097E+01  0.13455089395E+02  0.00000000000E+00 0.  1.
          4    1    6    6  503    0  0.38853718006E+02  0.22756940262E+03  0.20170453264E+03  0.30656510386E+03  0.00000000000E+00 0.  1.
         -4    1    6    6    0  503  0.28642749600E+03  0.82759896754E+03  0.62502236051E+03  0.10759245850E+04  0.00000000000E+00 0. -1.
<mgrwt>
<rscale>  0 0.29919520E+04</rscale>
<asrwt>0</asrwt>
<pdfrwt beam="1">  1        2 0.30068318E+00 0.29919520E+04</pdfrwt>
<pdfrwt beam="2">  1       -2 0.17616248E+00 0.29919520E+04</pdfrwt>
<totfact> 0.11699605E+00</totfact>
</mgrwt>
</event>
<event>
12    3  0.4806716E-008  0.3513589E+04  0.7818608E-02  0.8110577E-01
          2   -1    0    0  501    0  0.00000000000E+00  0.00000000000E+00  0.25890881482E+04  0.25890881482E+04  0.00000000000E+00 0.  1.
         -2   -1    0    0    0  501 -0.00000000000E+00 -0.00000000000E+00 -0.11920517337E+04  0.11920517337E+04  0.00000000000E+00 0. -1.
         23    2    1    2    0    0 -0.87086387629E+03  0.62210868024E+03  0.19909479362E+04  0.22623170903E+04  0.93711424754E+02 0.  0.
        254    2    1    2    0    0  0.87086387629E+03 -0.62210868024E+03 -0.59391152171E+03  0.15188227915E+04  0.89926007108E+03 0.  0.
         23    2    4    4    0    0  0.69441675521E+03 -0.18220620935E+03  0.37211057446E+02  0.72470007269E+03  0.91606767901E+02 0.  0.
         23    2    4    4    0    0  0.17644712108E+03 -0.43990247089E+03 -0.63112257916E+03  0.79412271885E+03  0.87563760979E+02 0.  0.
          3    1    3    3  502    0 -0.17127469645E+02  0.30568287453E+02  0.52028332111E+02  0.62727328626E+02  0.00000000000E+00 0. -1.
         -3    1    3    3    0  502 -0.85373640664E+03  0.59154039279E+03  0.19389196041E+04  0.21995897616E+04  0.00000000000E+00 0.  1.
         13    1    5    5    0    0  0.76149383932E+02 -0.16618015636E+02 -0.24430976781E+02  0.81680840737E+02  0.00000000000E+00 0. -1.
        -13    1    5    5    0    0  0.61826737127E+03 -0.16558819371E+03  0.61642034227E+02  0.64301923195E+03  0.00000000000E+00 0.  1.
          4    1    6    6  503    0  0.64939130133E+02 -0.86662162162E+02 -0.18388920315E+03  0.21340726325E+03  0.00000000000E+00 0. -1.
         -4    1    6    6    0  503  0.11150799095E+03 -0.35324030873E+03 -0.44723337601E+03  0.58071545560E+03  0.00000000000E+00 0.  1.
<mgrwt>
<rscale>  0 0.35135891E+04</rscale>
<asrwt>0</asrwt>
<pdfrwt beam="1">  1        2 0.39832125E+00 0.35135891E+04</pdfrwt>
<pdfrwt beam="2">  1       -2 0.18339257E+00 0.35135891E+04</pdfrwt>
<totfact> 0.43553661E-01</totfact>
</mgrwt>
</event>
<event>
12    3  0.4806716E-008  0.1433738E+04  0.7818608E-02  0.8929753E-01
          1   -1    0    0  501    0  0.00000000000E+00  0.00000000000E+00  0.24440573183E+04  0.24440573183E+04  0.00000000000E+00 0. -1.
         -1   -1    0    0    0  501 -0.00000000000E+00 -0.00000000000E+00 -0.21026560819E+03  0.21026560819E+03  0.00000000000E+00 0.  1.
         23    2    1    2    0    0  0.16899380137E+03  0.37602917003E+03  0.41872148496E+03  0.59449985924E+03  0.90252750966E+02 0.  0.
        254    2    1    2    0    0 -0.16899380137E+03 -0.37602917003E+03  0.18150702251E+04  0.20598230672E+04  0.88228924085E+03 0.  0.
         23    2    4    4    0    0 -0.11716289988E+03 -0.57854237842E+03  0.69636939840E+03  0.91812650843E+03  0.97915870580E+02 0.  0.
         23    2    4    4    0    0 -0.51830901486E+02  0.20251320840E+03  0.11187008267E+04  0.11416965588E+04  0.91002476447E+02 0.  0.
          1    1    3    3  502    0  0.11428998752E+03  0.14974863417E+03  0.20604559149E+03  0.27918030098E+03  0.00000000000E+00 0. -1.
         -1    1    3    3    0  502  0.54703813847E+02  0.22628053585E+03  0.21267589347E+03  0.31531955825E+03  0.00000000000E+00 0.  1.
         13    1    5    5    0    0 -0.47535628665E+02 -0.76913676372E+02  0.13003246202E+03  0.15837863109E+03  0.00000000000E+00 0. -1.
        -13    1    5    5    0    0 -0.69627271220E+02 -0.50162870205E+03  0.56633693638E+03  0.75974787734E+03  0.00000000000E+00 0.  1.
          4    1    6    6  503    0  0.10089273094E+02 -0.41499125679E+01  0.86920593893E+02  0.87602539053E+02  0.00000000000E+00 0. -1.
         -4    1    6    6    0  503 -0.61920174581E+02  0.20666312097E+03  0.10317802329E+04  0.10540940198E+04  0.00000000000E+00 0.  1.
<mgrwt>
<rscale>  0 0.14337380E+04</rscale>
<asrwt>0</asrwt>
<pdfrwt beam="1">  1        1 0.37600880E+00 0.14337380E+04</pdfrwt>
<pdfrwt beam="2">  1       -1 0.32348557E-01 0.14337380E+04</pdfrwt>
<totfact> 0.12902528E+01</totfact>
</mgrwt>
</event>
<event>
12    3  0.4806716E-008  0.2614140E+04  0.7818608E-02  0.8363414E-01
         -2   -1    0    0    0  501 -0.00000000000E+00  0.00000000000E+00  0.95131313852E+03  0.95131313852E+03  0.00000000000E+00 0.  1.
          2   -1    0    0  501    0  0.00000000000E+00 -0.00000000000E+00 -0.17958674591E+04  0.17958674591E+04  0.00000000000E+00 0. -1.
         23    2    1    2    0    0  0.90145782132E+03 -0.34933118537E+03 -0.10236323889E+04  0.14105609677E+04  0.84855731764E+02 0.  0.
        254    2    1    2    0    0 -0.90145782132E+03  0.34933118537E+03  0.17907806831E+03  0.13366196300E+04  0.90544166015E+03 0.  0.
         23    2    4    4    0    0 -0.85082169224E+03  0.13098754956E+03  0.44794858919E+03  0.97465000723E+03  0.90716084093E+02 0.  0.
         23    2    4    4    0    0 -0.50636129080E+02  0.21834363581E+03 -0.26887052088E+03  0.36196962272E+03  0.92155791517E+02 0.  0.
          1    1    3    3  502    0  0.69253346121E+03 -0.23981159878E+03 -0.80955528631E+03  0.10920128018E+04  0.00000000000E+00 0. -1.
         -1    1    3    3    0  502  0.20892436012E+03 -0.10951958659E+03 -0.21407710257E+03  0.31854816581E+03  0.00000000000E+00 0.  1.
         13    1    5    5    0    0 -0.47322235010E+03  0.11643811372E+03  0.26690214916E+03  0.55563835738E+03  0.00000000000E+00 0.  1.
        -13    1    5    5    0    0 -0.37759934214E+03  0.14549435844E+02  0.18104644003E+03  0.41901164985E+03  0.00000000000E+00 0. -1.
          3    1    6    6  503    0 -0.79432750434E+01  0.62818477477E+02 -0.21891790658E+02  0.66996322505E+02  0.00000000000E+00 0. -1.
         -3    1    6    6    0  503 -0.42692854037E+02  0.15552515833E+03 -0.24697873022E+03  0.29497330022E+03  0.00000000000E+00 0.  1.
<mgrwt>
<rscale>  0 0.26141402E+04</rscale>
<asrwt>0</asrwt>
<pdfrwt beam="1">  1        2 0.27628730E+00 0.26141402E+04</pdfrwt>
<pdfrwt beam="2">  1       -2 0.14635587E+00 0.26141402E+04</pdfrwt>
<totfact> 0.24509566E+00</totfact>
</mgrwt>
</event>
<event>
12    3  0.4806716E-008  0.1193388E+04  0.7818608E-02  0.9118664E-01
         -2   -1    0    0    0  501 -0.00000000000E+00  0.00000000000E+00  0.33947514530E+03  0.33947514530E+03  0.00000000000E+00 0.  1.
          2   -1    0    0  501    0  0.00000000000E+00 -0.00000000000E+00 -0.10488061153E+04  0.10488061153E+04  0.00000000000E+00 0. -1.
         23    2    1    2    0    0  0.70938467817E+02  0.25999181571E+02  0.12974621333E+03  0.17390250350E+03  0.87748374299E+02 0.  0.
        254    2    1    2    0    0 -0.70938467817E+02 -0.25999181571E+02 -0.83907718335E+03  0.12143787571E+04  0.87461821525E+03 0.  0.
         23    2    4    4    0    0 -0.26505503616E+03 -0.37411147949E+03 -0.45558228736E+03  0.65279749708E+03  0.91519289528E+02 0.  0.
         23    2    4    4    0    0  0.19411656834E+03  0.34811229791E+03 -0.38349489599E+03  0.56158126003E+03  0.97168731104E+02 0.  0.
          2    1    3    3  502    0  0.15097819984E+02  0.20367217889E+02  0.11230474410E+03  0.11513089629E+03  0.00000000000E+00 0.  1.
         -2    1    3    3    0  502  0.55840647833E+02  0.56319636817E+01  0.17441469228E+02  0.58771607211E+02  0.00000000000E+00 0. -1.
         13    1    5    5    0    0 -0.26836325614E+03 -0.34047444533E+03 -0.41733619342E+03  0.60175674779E+03  0.00000000000E+00 0. -1.
        -13    1    5    5    0    0  0.33082199819E+01 -0.33637034155E+02 -0.38246093938E+02  0.51040749286E+02  0.00000000000E+00 0.  1.
          3    1    6    6  503    0  0.11781591249E+03  0.28006725772E+03 -0.31982152006E+03  0.44113950489E+03  0.00000000000E+00 0. -1.
         -3    1    6    6    0  503  0.76300655857E+02  0.68045040200E+02 -0.63673375929E+02  0.12044175514E+03  0.00000000000E+00 0.  1.
<mgrwt>
<rscale>  0 0.11933878E+04</rscale>
<asrwt>0</asrwt>
<pdfrwt beam="1">  1        2 0.16135479E+00 0.11933878E+04</pdfrwt>
<pdfrwt beam="2">  1       -2 0.52226946E-01 0.11933878E+04</pdfrwt>
<totfact> 0.80095117E+01</totfact>
</mgrwt>
</event>
<event>
12    3  0.4806716E-008  0.1738588E+04  0.7818608E-02  0.8739657E-01
          2   -1    0    0  501    0  0.00000000000E+00  0.00000000000E+00  0.46892981789E+03  0.46892981789E+03  0.00000000000E+00 0. -1.
         -2   -1    0    0    0  501 -0.00000000000E+00 -0.00000000000E+00 -0.16114826673E+04  0.16114826673E+04  0.00000000000E+00 0.  1.
         23    2    1    2    0    0 -0.17830546615E+03 -0.13489976521E+03  0.28790151022E+03  0.37529066722E+03  0.89246957362E+02 0.  0.
        254    2    1    2    0    0  0.17830546615E+03  0.13489976521E+03 -0.14304543597E+04  0.17051218180E+04  0.90069415077E+03 0.  0.
         23    2    4    4    0    0  0.19378826483E+03 -0.28333704484E+03 -0.11236670315E+04  0.11783840955E+04  0.90153792104E+02 0.  0.
         23    2    4    4    0    0 -0.15482798677E+02  0.41823681005E+03 -0.30678732816E+03  0.52673772252E+03  0.90401422945E+02 0.  0.
          1    1    3    3  502    0 -0.12419744566E+03 -0.12283057030E+03  0.25999625646E+03  0.31322580973E+03  0.00000000000E+00 0. -1.
         -1    1    3    3    0  502 -0.54108020490E+02 -0.12069194917E+02  0.27905253762E+02  0.62064857487E+02  0.00000000000E+00 0.  1.
         13    1    5    5    0    0  0.11703815582E+02 -0.11669310612E+02 -0.15752667538E+03  0.15839130520E+03  0.00000000000E+00 0.  1.
        -13    1    5    5    0    0  0.18208444924E+03 -0.27166773423E+03 -0.96614035612E+03  0.10199927903E+04  0.00000000000E+00 0. -1.
          2    1    6    6  503    0 -0.26534769118E+02  0.31526724779E+03 -0.27276914219E+03  0.41773261356E+03  0.00000000000E+00 0. -1.
         -2    1    6    6    0  503  0.11051970441E+02  0.10296956226E+03 -0.34018185970E+02  0.10900510896E+03  0.00000000000E+00 0.  1.
<mgrwt>
<rscale>  0 0.17385882E+04</rscale>
<asrwt>0</asrwt>
<pdfrwt beam="1">  1        2 0.72143049E-01 0.17385882E+04</pdfrwt>
<pdfrwt beam="2">  1       -2 0.24792041E+00 0.17385882E+04</pdfrwt>
<totfact> 0.41646316E+00</totfact>
</mgrwt>
</event>
<event>
12    3  0.4806716E-008  0.1719564E+04  0.7818608E-02  0.8750284E-01
         -1   -1    0    0    0  501 -0.00000000000E+00  0.00000000000E+00  0.62845642640E+03  0.62845642640E+03  0.00000000000E+00 0.  1.
          1   -1    0    0  501    0  0.00000000000E+00 -0.00000000000E+00 -0.11762556800E+04  0.11762556800E+04  0.00000000000E+00 0. -1.
         23    2    1    2    0    0  0.24101444460E+03  0.41235528238E+03 -0.61155313861E+03  0.78115368882E+03  0.89883273218E+02 0.  0.
        254    2    1    2    0    0 -0.24101444460E+03 -0.41235528238E+03  0.63753884972E+02  0.10235584176E+04  0.90304066077E+03 0.  0.
         23    2    4    4    0    0  0.25282902747E+03  0.44980247589E+02  0.19073895991E+03  0.33288076013E+03  0.92100541977E+02 0.  0.
         23    2    4    4    0    0 -0.49384347207E+03 -0.45733552997E+03 -0.12698507494E+03  0.69067765748E+03  0.88731366523E+02 0.  0.
          3    1    3    3  502    0  0.98147516513E+02  0.12110068709E+03 -0.25704065379E+03  0.30061305546E+03  0.00000000000E+00 0. -1.
         -3    1    3    3    0  502  0.14286692808E+03  0.29125459530E+03 -0.35451248481E+03  0.48054063336E+03  0.00000000000E+00 0.  1.
         13    1    5    5    0    0  0.15189696270E+03  0.33393654109E+02  0.16768054599E+03  0.22870196527E+03  0.00000000000E+00 0. -1.
        -13    1    5    5    0    0  0.10093206477E+03  0.11586593480E+02  0.23058413921E+02  0.10417879487E+03  0.00000000000E+00 0.  1.
          3    1    6    6  503    0 -0.41203233293E+03 -0.40746557480E+03 -0.13344256115E+03  0.59464758904E+03  0.00000000000E+00 0. -1.
         -3    1    6    6    0  503 -0.81811139137E+02 -0.49869955172E+02  0.64574862121E+01  0.96030068436E+02  0.00000000000E+00 0.  1.
<mgrwt>
<rscale>  0 0.17195644E+04</rscale>
<asrwt>0</asrwt>
<pdfrwt beam="1">  1        1 0.18096241E+00 0.17195644E+04</pdfrwt>
<pdfrwt beam="2">  1       -1 0.96685605E-01 0.17195644E+04</pdfrwt>
<totfact> 0.10876930E+01</totfact>
</mgrwt>
</event>
<event>
12    3  0.4806716E-008  0.2155715E+04  0.7818608E-02  0.8537090E-01
         -2   -1    0    0    0  501 -0.00000000000E+00  0.00000000000E+00  0.53961148059E+03  0.53961148059E+03  0.00000000000E+00 0. -1.
          2   -1    0    0  501    0  0.00000000000E+00 -0.00000000000E+00 -0.21529879357E+04  0.21529879357E+04  0.00000000000E+00 0.  1.
         23    2    1    2    0    0  0.11809460651E+03 -0.43321640117E+03  0.30206620475E+03  0.54825340604E+03  0.87835180056E+02 0.  0.
        254    2    1    2    0    0 -0.11809460651E+03  0.43321640117E+03 -0.19154426598E+04  0.21443460102E+04  0.85303953142E+03 0.  0.
         23    2    4    4    0    0  0.28456737145E+03  0.10329225793E+03 -0.12734312082E+04  0.13122989844E+04  0.94094117577E+02 0.  0.
         23    2    4    4    0    0 -0.40266197796E+03  0.32992414324E+03 -0.64201145162E+03  0.83204702583E+03  0.95587344375E+02 0.  0.
          3    1    3    3  502    0  0.88862616075E+02 -0.23561486800E+03  0.21183693490E+03  0.32906810473E+03  0.00000000000E+00 0. -1.
         -3    1    3    3    0  502  0.29231990433E+02 -0.19760153317E+03  0.90229269840E+02  0.21918530131E+03  0.00000000000E+00 0.  1.
         13    1    5    5    0    0  0.22446194522E+03  0.47497589272E+02 -0.81911464293E+03  0.85063974989E+03  0.00000000000E+00 0. -1.
        -13    1    5    5    0    0  0.60105426227E+02  0.55794668657E+02 -0.45431656526E+03  0.46165923449E+03  0.00000000000E+00 0.  1.
          3    1    6    6  503    0 -0.36389342646E+03  0.32123780298E+03 -0.56118816417E+03  0.74198672999E+03  0.00000000000E+00 0. -1.
         -3    1    6    6    0  503 -0.38768551499E+02  0.86863402565E+01 -0.80823287452E+02  0.90060295841E+02  0.00000000000E+00 0.  1.
<mgrwt>
<rscale>  0 0.21557152E+04</rscale>
<asrwt>0</asrwt>
<pdfrwt beam="1">  1        2 0.33122892E+00 0.21557152E+04</pdfrwt>
<pdfrwt beam="2">  1       -2 0.83017150E-01 0.21557152E+04</pdfrwt>
<totfact> 0.63995548E+00</totfact>
</mgrwt>
</event>
<event>
12    3  0.4806716E-008  0.2205601E+04  0.7818608E-02  0.8516101E-01
         -2   -1    0    0    0  501 -0.00000000000E+00  0.00000000000E+00  0.11447450878E+04  0.11447450878E+04  0.00000000000E+00 0.  1.
          2   -1    0    0  501    0  0.00000000000E+00 -0.00000000000E+00 -0.10623924321E+04  0.10623924321E+04  0.00000000000E+00 0. -1.
         23    2    1    2    0    0  0.58238507171E+03 -0.42641072486E+03 -0.52857569372E+03  0.89934760136E+03  0.91844248833E+02 0.  0.
        254    2    1    2    0    0 -0.58238507171E+03  0.42641072486E+03  0.61092834937E+03  0.13077899185E+04  0.90337287143E+03 0.  0.
         23    2    4    4    0    0  0.98506259107E+02  0.18330132829E+03  0.52697685276E+03  0.57370774600E+03  0.90183781495E+02 0.  0.
         23    2    4    4    0    0 -0.68089133082E+03  0.24310939657E+03  0.83951496612E+02  0.73408217250E+03  0.95465172204E+02 0.  0.
          1    1    3    3  502    0  0.45495116992E+03 -0.35162588069E+03 -0.37639744042E+03  0.68723821208E+03  0.00000000000E+00 0. -1.
         -1    1    3    3    0  502  0.12743390179E+03 -0.74784844174E+02 -0.15217825330E+03  0.21210938928E+03  0.00000000000E+00 0.  1.
         13    1    5    5    0    0  0.58278008224E+02  0.72622444156E+02  0.34180575907E+03  0.35426194062E+03  0.00000000000E+00 0. -1.
        -13    1    5    5    0    0  0.40228250883E+02  0.11067888414E+03  0.18517109368E+03  0.21944580538E+03  0.00000000000E+00 0.  1.
          1    1    6    6  503    0 -0.29979435418E+03  0.13669788426E+03 -0.52937836919E+00  0.32948937252E+03  0.00000000000E+00 0. -1.
         -1    1    6    6    0  503 -0.38109697664E+03  0.10641151231E+03  0.84480874981E+02  0.40459279998E+03  0.00000000000E+00 0.  1.
<mgrwt>
<rscale>  0 0.22056006E+04</rscale>
<asrwt>0</asrwt>
<pdfrwt beam="1">  1        2 0.16344499E+00 0.22056006E+04</pdfrwt>
<pdfrwt beam="2">  1       -2 0.17611463E+00 0.22056006E+04</pdfrwt>
<totfact> 0.40531851E+00</totfact>
</mgrwt>
</event>
<event>
12    3  0.4806716E-008  0.1456297E+04  0.7818608E-02  0.8914047E-01
          1   -1    0    0  501    0  0.00000000000E+00  0.00000000000E+00  0.11466213180E+04  0.11466213180E+04  0.00000000000E+00 0. -1.
         -1   -1    0    0    0  501 -0.00000000000E+00 -0.00000000000E+00 -0.46240225518E+03  0.46240225518E+03  0.00000000000E+00 0.  1.
         23    2    1    2    0    0 -0.44307680753E+03 -0.40994727974E+02  0.19705794545E+03  0.49527171842E+03  0.92003348372E+02 0.  0.
        254    2    1    2    0    0  0.44307680753E+03  0.40994727974E+02  0.48716111741E+03  0.11137518548E+04  0.89728457842E+03 0.  0.
         23    2    4    4    0    0 -0.17759872048E+03  0.17865008739E+02  0.44055334641E+03  0.48417211967E+03  0.92059363343E+02 0.  0.
         23    2    4    4    0    0  0.62067552801E+03  0.23129719236E+02  0.46607771001E+02  0.62957973513E+03  0.91789234624E+02 0.  0.
          2    1    3    3  502    0 -0.32836588711E+03 -0.69700970066E+02  0.15531631035E+03  0.36987232569E+03  0.00000000000E+00 0. -1.
         -2    1    3    3    0  502 -0.11471092042E+03  0.28706242091E+02  0.41741635102E+02  0.12539939274E+03  0.00000000000E+00 0.  1.
         13    1    5    5    0    0 -0.13750945747E+03 -0.18777094242E+02  0.36973883686E+03  0.39492814238E+03  0.00000000000E+00 0. -1.
        -13    1    5    5    0    0 -0.40089263010E+02  0.36642102980E+02  0.70814509549E+02  0.89243977288E+02  0.00000000000E+00 0.  1.
          3    1    6    6  503    0  0.48499605442E+03  0.55710362712E+02  0.41579554063E+02  0.48995272897E+03  0.00000000000E+00 0. -1.
         -3    1    6    6    0  503  0.13567947359E+03 -0.32580643476E+02  0.50282169389E+01  0.13962700616E+03  0.00000000000E+00 0.  1.
<mgrwt>
<rscale>  0 0.14562971E+04</rscale>
<asrwt>0</asrwt>
<pdfrwt beam="1">  1        1 0.17640328E+00 0.14562971E+04</pdfrwt>
<pdfrwt beam="2">  1       -1 0.71138809E-01 0.14562971E+04</pdfrwt>
<totfact> 0.22668275E+01</totfact>
</mgrwt>
</event>
<event>
12    3  0.4806716E-008  0.1699782E+04  0.7818608E-02  0.8761489E-01
          2   -1    0    0  501    0  0.00000000000E+00  0.00000000000E+00  0.17788411136E+04  0.17788411136E+04  0.00000000000E+00 0.  1.
         -2   -1    0    0    0  501 -0.00000000000E+00 -0.00000000000E+00 -0.40605907879E+03  0.40605907879E+03  0.00000000000E+00 0. -1.
         23    2    1    2    0    0  0.58331612655E+03 -0.71268232956E+02  0.29851795737E+03  0.66555797842E+03  0.92290775514E+02 0.  0.
        254    2    1    2    0    0 -0.58331612655E+03  0.71268232956E+02  0.10742640774E+04  0.15193422139E+04  0.89945571903E+03 0.  0.
         23    2    4    4    0    0 -0.34566379542E+03 -0.70223054885E+02 -0.40258271044E+02  0.36716940788E+03  0.93690494711E+02 0.  0.
         23    2    4    4    0    0 -0.23765233114E+03  0.14149128784E+03  0.11145223484E+04  0.11521728060E+04  0.94040920737E+02 0.  0.
          3    1    3    3  502    0  0.33007833865E+03 -0.23629681675E+02  0.21520541017E+03  0.39474477839E+03  0.00000000000E+00 0. -1.
         -3    1    3    3    0  502  0.25323778790E+03 -0.47638551281E+02  0.83312547206E+02  0.27081320003E+03  0.00000000000E+00 0.  1.
         13    1    5    5    0    0 -0.30419053422E+03 -0.89327578367E+02 -0.48639616443E+02  0.32074461750E+03  0.00000000000E+00 0. -1.
        -13    1    5    5    0    0 -0.41473261193E+02  0.19104523481E+02  0.83813453985E+01  0.46424790383E+02  0.00000000000E+00 0.  1.
          1    1    6    6  503    0 -0.22032735549E+03  0.14010278708E+03  0.90447036496E+03  0.94140298258E+03  0.00000000000E+00 0. -1.
         -1    1    6    6    0  503 -0.17324975641E+02  0.13885007620E+01  0.21005198348E+03  0.21076982345E+03  0.00000000000E+00 0.  1.
<mgrwt>
<rscale>  0 0.16997818E+04</rscale>
<asrwt>0</asrwt>
<pdfrwt beam="1">  1        2 0.27366786E+00 0.16997818E+04</pdfrwt>
<pdfrwt beam="2">  1       -2 0.62470628E-01 0.16997818E+04</pdfrwt>
<totfact> 0.20050776E+01</totfact>
</mgrwt>
</event>
<event>
12    3  0.4806716E-008  0.2003956E+04  0.7818608E-02  0.8604774E-01
         -2   -1    0    0    0  501 -0.00000000000E+00  0.00000000000E+00  0.31855709938E+03  0.31855709938E+03  0.00000000000E+00 0.  1.
          2   -1    0    0  501    0  0.00000000000E+00 -0.00000000000E+00 -0.31515841724E+04  0.31515841724E+04  0.00000000000E+00 0. -1.
         23    2    1    2    0    0  0.71078764991E+03  0.20900090403E+03 -0.15920861859E+04  0.17583743007E+04  0.90781588965E+02 0.  0.
        254    2    1    2    0    0 -0.71078764991E+03 -0.20900090403E+03 -0.12409408872E+04  0.17117669711E+04  0.91723029651E+03 0.  0.
         23    2    4    4    0    0  0.47627143006E+02  0.58431394015E+02 -0.76243854662E+03  0.77162297817E+03  0.91689206139E+02 0.  0.
         23    2    4    4    0    0 -0.75841479291E+03 -0.26743229805E+03 -0.47850234058E+03  0.94014399297E+03  0.90516326849E+02 0.  0.
          1    1    3    3  502    0  0.49115017728E+03  0.12679349810E+03 -0.11762952890E+04  0.12810057356E+04  0.00000000000E+00 0. -1.
         -1    1    3    3    0  502  0.21963747263E+03  0.82207405936E+02 -0.41579089690E+03  0.47736856507E+03  0.00000000000E+00 0.  1.
         13    1    5    5    0    0  0.12195382808E+02  0.66820624258E+02 -0.29281484905E+03  0.30058985181E+03  0.00000000000E+00 0.  1.
        -13    1    5    5    0    0  0.35431760198E+02 -0.83892302435E+01 -0.46962369756E+03  0.47103312636E+03  0.00000000000E+00 0. -1.
          3    1    6    6  503    0 -0.13876366329E+03 -0.27894782632E+02 -0.52554667612E+02  0.15098167516E+03  0.00000000000E+00 0. -1.
         -3    1    6    6    0  503 -0.61965112962E+03 -0.23953751542E+03 -0.42594767297E+03  0.78916231781E+03  0.00000000000E+00 0.  1.
<mgrwt>
<rscale>  0 0.20039556E+04</rscale>
<asrwt>0</asrwt>
<pdfrwt beam="1">  1        2 0.48485910E+00 0.20039556E+04</pdfrwt>
<pdfrwt beam="2">  1       -2 0.49008785E-01 0.20039556E+04</pdfrwt>
<totfact> 0.51206609E+00</totfact>
</mgrwt>
</event>
<event>
12    3  0.4806716E-008  0.1401433E+04  0.7818608E-02  0.8952782E-01
         -1   -1    0    0    0  501 -0.00000000000E+00  0.00000000000E+00  0.40787361087E+03  0.40787361087E+03  0.00000000000E+00 0.  1.
          1   -1    0    0  501    0  0.00000000000E+00 -0.00000000000E+00 -0.12038128080E+04  0.12038128080E+04  0.00000000000E+00 0. -1.
         23    2    1    2    0    0 -0.26510800870E+03 -0.97637230105E+02  0.89919134540E+02  0.30990575682E+03  0.90226616794E+02 0.  0.
        254    2    1    2    0    0  0.26510800870E+03  0.97637230105E+02 -0.88585833169E+03  0.13017806621E+04  0.91108321427E+03 0.  0.
         23    2    4    4    0    0  0.39905390278E+03 -0.24958937320E+03 -0.75826638647E+03  0.89716713059E+03  0.91662832293E+02 0.  0.
         23    2    4    4    0    0 -0.13394589408E+03  0.34722660330E+03 -0.12759194522E+03  0.40461353148E+03  0.94470041739E+02 0.  0.
          1    1    3    3  502    0 -0.12901394196E+02  0.85083617373E+01 -0.10216340425E+02  0.18525976448E+02  0.00000000000E+00 0. -1.
         -1    1    3    3    0  502 -0.25220661450E+03 -0.10614559184E+03  0.10013547497E+03  0.29137978038E+03  0.00000000000E+00 0.  1.
         13    1    5    5    0    0  0.20066435655E+03 -0.94063541986E+02 -0.28580066196E+03  0.36165750690E+03  0.00000000000E+00 0. -1.
        -13    1    5    5    0    0  0.19838954623E+03 -0.15552583121E+03 -0.47246572451E+03  0.53550962369E+03  0.00000000000E+00 0.  1.
          1    1    6    6  503    0 -0.13190361832E+03  0.22403968178E+03 -0.98520045125E+02  0.27802615494E+03  0.00000000000E+00 0. -1.
         -1    1    6    6    0  503 -0.20422757679E+01  0.12318692152E+03 -0.29071900100E+02  0.12658737654E+03  0.00000000000E+00 0.  1.
<mgrwt>
<rscale>  0 0.14014328E+04</rscale>
<asrwt>0</asrwt>
<pdfrwt beam="1">  1        1 0.18520197E+00 0.14014328E+04</pdfrwt>
<pdfrwt beam="2">  1       -1 0.62749788E-01 0.14014328E+04</pdfrwt>
<totfact> 0.26663806E+01</totfact>
</mgrwt>
</event>
<event>
12    3  0.4806716E-008  0.2488990E+04  0.7818608E-02  0.8406918E-01
         -2   -1    0    0    0  501 -0.00000000000E+00  0.00000000000E+00  0.70527751882E+03  0.70527751882E+03  0.00000000000E+00 0.  1.
          2   -1    0    0  501    0  0.00000000000E+00 -0.00000000000E+00 -0.21959693241E+04  0.21959693241E+04  0.00000000000E+00 0. -1.
         23    2    1    2    0    0 -0.61493237501E+03  0.83836316116E+03 -0.92666927298E+03  0.13957695233E+04  0.91989156474E+02 0.  0.
        254    2    1    2    0    0  0.61493237501E+03 -0.83836316116E+03 -0.56402253234E+03  0.15054773196E+04  0.93131408620E+03 0.  0.
         23    2    4    4    0    0 -0.17108041085E+03 -0.46721216055E+03 -0.31319800892E+03  0.59636167521E+03  0.99992724377E+02 0.  0.
         23    2    4    4    0    0  0.78601278586E+03 -0.37115100061E+03 -0.25082452342E+03  0.90911564443E+03  0.89493846755E+02 0.  0.
          2    1    3    3  502    0 -0.36899893942E+03  0.46519016445E+03 -0.58133987223E+03  0.83097421948E+03  0.00000000000E+00 0. -1.
         -2    1    3    3    0  502 -0.24593343559E+03  0.37317299671E+03 -0.34532940075E+03  0.56479530384E+03  0.00000000000E+00 0.  1.
         13    1    5    5    0    0 -0.11030125972E+03 -0.37789206310E+03 -0.20657189959E+03  0.44456802512E+03  0.00000000000E+00 0. -1.
        -13    1    5    5    0    0 -0.60779151129E+02 -0.89320097446E+02 -0.10662610933E+03  0.15179365010E+03  0.00000000000E+00 0.  1.
          3    1    6    6  503    0  0.29367942043E+03 -0.10909728946E+03 -0.12541039827E+03  0.33745753591E+03  0.00000000000E+00 0. -1.
         -3    1    6    6    0  503  0.49233336544E+03 -0.26205371115E+03 -0.12541412515E+03  0.57165810852E+03  0.00000000000E+00 0.  1.
<mgrwt>
<rscale>  0 0.24889900E+04</rscale>
<asrwt>0</asrwt>
<pdfrwt beam="1">  1        2 0.33784143E+00 0.24889900E+04</pdfrwt>
<pdfrwt beam="2">  1       -2 0.10850424E+00 0.24889900E+04</pdfrwt>
<totfact> 0.31467235E+00</totfact>
</mgrwt>
</event>
<event>
12    3  0.4806716E-008  0.1843731E+04  0.7818608E-02  0.8683384E-01
          2   -1    0    0  501    0  0.00000000000E+00  0.00000000000E+00  0.19327061055E+04  0.19327061055E+04  0.00000000000E+00 0. -1.
         -2   -1    0    0    0  501 -0.00000000000E+00 -0.00000000000E+00 -0.43971276456E+03  0.43971276456E+03  0.00000000000E+00 0.  1.
         23    2    1    2    0    0 -0.21571828683E+03  0.52076403508E+03  0.11098269425E+04  0.12482479059E+04  0.93152738538E+02 0.  0.
        254    2    1    2    0    0  0.21571828683E+03 -0.52076403508E+03  0.38316639840E+03  0.11241709642E+04  0.89398786809E+03 0.  0.
         23    2    4    4    0    0  0.15897849559E+02 -0.73779661384E+03  0.31822350482E+03  0.80850787883E+03  0.88443236606E+02 0.  0.
         23    2    4    4    0    0  0.19982043727E+03  0.21703257876E+03  0.64942893579E+02  0.31566308532E+03  0.91620175802E+02 0.  0.
          3    1    3    3  502    0 -0.16539046828E+03  0.46978148845E+03  0.99930843232E+03  0.11165419817E+04  0.00000000000E+00 0. -1.
         -3    1    3    3    0  502 -0.50327818547E+02  0.50982546632E+02  0.11051851018E+03  0.13170592422E+03  0.00000000000E+00 0.  1.
         13    1    5    5    0    0  0.49727926330E+02 -0.48177394619E+03  0.22378068923E+03  0.53353237835E+03  0.00000000000E+00 0.  1.
        -13    1    5    5    0    0 -0.33830076771E+02 -0.25602266765E+03  0.94442815593E+02  0.27497550048E+03  0.00000000000E+00 0. -1.
          3    1    6    6  503    0  0.13356739215E+03  0.97373576139E+02  0.68293201365E+02  0.17884580769E+03  0.00000000000E+00 0. -1.
         -3    1    6    6    0  503  0.66253045123E+02  0.11965900262E+03 -0.33503077863E+01  0.13681727763E+03  0.00000000000E+00 0.  1.
<mgrwt>
<rscale>  0 0.18437305E+04</rscale>
<asrwt>0</asrwt>
<pdfrwt beam="1">  1        2 0.29733940E+00 0.18437305E+04</pdfrwt>
<pdfrwt beam="2">  1       -2 0.67648119E-01 0.18437305E+04</pdfrwt>
<totfact> 0.13718954E+01</totfact>
</mgrwt>
</event>
<event>
12    3  0.4806716E-008  0.2268725E+04  0.7818608E-02  0.8490355E-01
         -1   -1    0    0    0  501 -0.00000000000E+00  0.00000000000E+00  0.89409781166E+03  0.89409781166E+03  0.00000000000E+00 0.  1.
          1   -1    0    0  501    0  0.00000000000E+00 -0.00000000000E+00 -0.14391924212E+04  0.14391924212E+04  0.00000000000E+00 0. -1.
         23    2    1    2    0    0  0.60800573137E+03  0.16353705283E+03 -0.96544626109E+03  0.11561282406E+04  0.90170331607E+02 0.  0.
        254    2    1    2    0    0 -0.60800573137E+03 -0.16353705283E+03  0.42035165158E+03  0.11771619922E+04  0.90144301423E+03 0.  0.
         23    2    4    4    0    0 -0.20367811297E+03  0.35514496976E+03  0.26341075186E+03  0.49501464973E+03  0.89674723295E+02 0.  0.
         23    2    4    4    0    0 -0.40432761840E+03 -0.51868202259E+03  0.15694089972E+03  0.68214734249E+03  0.90458207511E+02 0.  0.
          4    1    3    3  502    0  0.58295778372E+03  0.17405330846E+03 -0.91432165815E+03  0.10982342311E+04  0.00000000000E+00 0. -1.
         -4    1    3    3    0  502  0.25047947641E+02 -0.10516255636E+02 -0.51124602943E+02  0.57894009532E+02  0.00000000000E+00 0.  1.
         13    1    5    5    0    0 -0.20823071471E+02  0.11711560272E+03  0.75517458889E+02  0.14089908198E+03  0.00000000000E+00 0. -1.
        -13    1    5    5    0    0 -0.18285504150E+03  0.23802936704E+03  0.18789329297E+03  0.35411556774E+03  0.00000000000E+00 0.  1.
          3    1    6    6  503    0 -0.14532492141E+03 -0.15485094855E+03  0.89612932753E+02  0.23049647886E+03  0.00000000000E+00 0. -1.
         -3    1    6    6    0  503 -0.25900269699E+03 -0.36383107404E+03  0.67327966966E+02  0.45165086363E+03  0.00000000000E+00 0.  1.
<mgrwt>
<rscale>  0 0.22687255E+04</rscale>
<asrwt>0</asrwt>
<pdfrwt beam="1">  1        1 0.22141422E+00 0.22687255E+04</pdfrwt>
<pdfrwt beam="2">  1       -1 0.13755351E+00 0.22687255E+04</pdfrwt>
<totfact> 0.28688046E+00</totfact>
</mgrwt>
</event>
<event>
12    3  0.4806716E-008  0.2461351E+04  0.7818608E-02  0.8416885E-01
          2   -1    0    0  501    0  0.00000000000E+00  0.00000000000E+00  0.24605013266E+04  0.24605013266E+04  0.00000000000E+00 0. -1.
         -2   -1    0    0    0  501 -0.00000000000E+00 -0.00000000000E+00 -0.61555010063E+03  0.61555010063E+03  0.00000000000E+00 0.  1.
         23    2    1    2    0    0  0.66700893770E+03 -0.26701621238E+02 -0.23777438769E+03  0.71391949972E+03  0.86778413770E+02 0.  0.
        254    2    1    2    0    0 -0.66700893770E+03  0.26701621238E+02  0.20827256137E+04  0.23621319275E+04  0.89236055586E+03 0.  0.
         23    2    4    4    0    0 -0.61052579644E+03  0.16031053971E+03  0.62010936946E+03  0.88973538637E+03  0.93017258722E+02 0.  0.
         23    2    4    4    0    0 -0.56483141261E+02 -0.13360891847E+03  0.14626162442E+04  0.14723965411E+04  0.87542036924E+02 0.  0.
          3    1    3    3  502    0  0.15421073927E+03 -0.36253820447E+02 -0.78986939773E+02  0.17701476848E+03  0.00000000000E+00 0. -1.
         -3    1    3    3    0  502  0.51279819843E+03  0.95521992089E+01 -0.15878744791E+03  0.53690473124E+03  0.00000000000E+00 0.  1.
         13    1    5    5    0    0 -0.42666597486E+03  0.70686142636E+02  0.39720417851E+03  0.58720656016E+03  0.00000000000E+00 0.  1.
        -13    1    5    5    0    0 -0.18385982157E+03  0.89624397076E+02  0.22290519095E+03  0.30252882622E+03  0.00000000000E+00 0. -1.
          3    1    6    6  503    0 -0.26714145444E+02 -0.11711708775E+03  0.80636759162E+03  0.81526606125E+03  0.00000000000E+00 0. -1.
         -3    1    6    6    0  503 -0.29768995817E+02 -0.16491830728E+02  0.65624865258E+03  0.65713047989E+03  0.00000000000E+00 0.  1.
<mgrwt>
<rscale>  0 0.24613507E+04</rscale>
<asrwt>0</asrwt>
<pdfrwt beam="1">  1        2 0.37853866E+00 0.24613507E+04</pdfrwt>
<pdfrwt beam="2">  1       -2 0.94700017E-01 0.24613507E+04</pdfrwt>
<totfact> 0.30819572E+00</totfact>
</mgrwt>
</event>
<event>
12    3  0.4806716E-008  0.1533592E+04  0.7818608E-02  0.8862417E-01
          1   -1    0    0  501    0  0.00000000000E+00  0.00000000000E+00  0.16415317729E+04  0.16415317729E+04  0.00000000000E+00 0. -1.
         -1   -1    0    0    0  501 -0.00000000000E+00 -0.00000000000E+00 -0.35818743389E+03  0.35818743389E+03  0.00000000000E+00 0.  1.
         23    2    1    2    0    0  0.24297722811E+02  0.44518132722E+03  0.69562548537E+03  0.83125042878E+03  0.91135426790E+02 0.  0.
        254    2    1    2    0    0 -0.24297722811E+02 -0.44518132722E+03  0.58771885366E+03  0.11684687780E+04  0.90616170789E+03 0.  0.
         23    2    4    4    0    0  0.30935092653E+03 -0.12196539443E+03 -0.76075810297E+02  0.35342211414E+03  0.92445165749E+02 0.  0.
         23    2    4    4    0    0 -0.33364864934E+03 -0.32321593279E+03  0.66379466395E+03  0.81504666389E+03  0.88812994595E+02 0.  0.
          3    1    3    3  502    0  0.17400002006E+01  0.34125633964E+03  0.46024193722E+03  0.57295860035E+03  0.00000000000E+00 0. -1.
         -3    1    3    3    0  502  0.22557722610E+02  0.10392498758E+03  0.23538354815E+03  0.25829182843E+03  0.00000000000E+00 0.  1.
         13    1    5    5    0    0  0.28433023976E+03 -0.10945443744E+03 -0.95590059489E+02  0.31931398121E+03  0.00000000000E+00 0. -1.
        -13    1    5    5    0    0  0.25020686762E+02 -0.12510956990E+02  0.19514249192E+02  0.34108132936E+02  0.00000000000E+00 0.  1.
          2    1    6    6  503    0 -0.31367171117E+03 -0.26648530865E+03  0.59741434124E+03  0.72547105885E+03  0.00000000000E+00 0. -1.
         -2    1    6    6    0  503 -0.19976938163E+02 -0.56730624138E+02  0.66380322716E+02  0.89575605035E+02  0.00000000000E+00 0.  1.
<mgrwt>
<rscale>  0 0.15335919E+04</rscale>
<asrwt>0</asrwt>
<pdfrwt beam="1">  1        1 0.25254335E+00 0.15335919E+04</pdfrwt>
<pdfrwt beam="2">  1       -1 0.55105760E-01 0.15335919E+04</pdfrwt>
<totfact> 0.16780676E+01</totfact>
</mgrwt>
</event>
<event>
12    3  0.4806716E-008  0.2189268E+04  0.7818608E-02  0.8522909E-01
          1   -1    0    0  501    0  0.00000000000E+00  0.00000000000E+00  0.25272139151E+04  0.25272139151E+04  0.00000000000E+00 0. -1.
         -1   -1    0    0    0  501 -0.00000000000E+00 -0.00000000000E+00 -0.47412807960E+03  0.47412807960E+03  0.00000000000E+00 0.  1.
         23    2    1    2    0    0  0.79645272158E+03  0.42723297483E+03  0.76354315737E+03  0.11868148987E+04  0.93094028759E+02 0.  0.
        254    2    1    2    0    0 -0.79645272158E+03 -0.42723297483E+03  0.12895426781E+04  0.18145270959E+04  0.90151168086E+03 0.  0.
         23    2    4    4    0    0 -0.49570959031E+02 -0.49961678310E+03  0.40879374653E+03  0.65388125847E+03  0.91510453213E+02 0.  0.
         23    2    4    4    0    0 -0.74688176255E+03  0.72383808268E+02  0.88074893156E+03  0.11606458375E+04  0.91149858020E+02 0.  0.
          2    1    3    3  502    0  0.79555451752E+02  0.28267976778E+02  0.42313961127E+02  0.94438444084E+02  0.00000000000E+00 0. -1.
         -2    1    3    3    0  502  0.71689726983E+03  0.39896499805E+03  0.72122919624E+03  0.10923764546E+04  0.00000000000E+00 0.  1.
         13    1    5    5    0    0 -0.16900838781E+02 -0.21390780200E+02  0.63317318405E+01  0.27987401758E+02  0.00000000000E+00 0. -1.
        -13    1    5    5    0    0 -0.32670120250E+02 -0.47822600290E+03  0.40246201469E+03  0.62589385672E+03  0.00000000000E+00 0.  1.
          3    1    6    6  503    0 -0.32476114117E+03 -0.26718478173E+01  0.42560428679E+03  0.53536524590E+03  0.00000000000E+00 0. -1.
         -3    1    6    6    0  503 -0.42212062139E+03  0.75055656085E+02  0.45514464477E+03  0.62528059155E+03  0.00000000000E+00 0.  1.
<mgrwt>
<rscale>  0 0.21892675E+04</rscale>
<asrwt>0</asrwt>
<pdfrwt beam="1">  1        1 0.38880213E+00 0.21892675E+04</pdfrwt>
<pdfrwt beam="2">  1       -1 0.72942783E-01 0.21892675E+04</pdfrwt>
<totfact> 0.22428559E+00</totfact>
</mgrwt>
</event>
<event>
12    3  0.6288689E-008  0.2171381E+04  0.7818608E-02  0.8530435E-01
         -2   -1    0    0    0  501 -0.00000000000E+00  0.00000000000E+00  0.10694317808E+04  0.10694317808E+04  0.00000000000E+00 0.  1.
          2   -1    0    0  501    0  0.00000000000E+00 -0.00000000000E+00 -0.11021960372E+04  0.11021960372E+04  0.00000000000E+00 0. -1.
         23    2    1    2    0    0 -0.75946287727E+02 -0.47768802640E+01 -0.90730310499E+03  0.91577690039E+03  0.98273850786E+02 0.  0.
        254    2    1    2    0    0  0.75946287727E+02  0.47768802640E+01  0.87453884863E+03  0.12558509177E+04  0.89808277592E+03 0.  0.
         23    2    4    4    0    0  0.15116153379E+03  0.40168491665E+03  0.24192761909E+03  0.49969575291E+03  0.83464309951E+02 0.  0.
         23    2    4    4    0    0 -0.75215246063E+02 -0.39690803638E+03  0.63261122954E+03  0.75615516475E+03  0.91544212552E+02 0.  0.
          3    1    3    3  502    0 -0.74837438150E+02 -0.26975633414E+00 -0.90800391094E+03  0.91108277187E+03  0.00000000000E+00 0. -1.
         -3    1    3    3    0  502 -0.11088495773E+01 -0.45071239298E+01  0.70080595171E+00  0.46941285119E+01  0.00000000000E+00 0.  1.
         13    1    5    5    0    0  0.17959106023E+02  0.28201638093E+02 -0.30908348229E+01  0.33577003145E+02  0.00000000000E+00 0.  1.
        -13    1    5    5    0    0  0.13320242777E+03  0.37348327855E+03  0.24501845391E+03  0.46611874976E+03  0.00000000000E+00 0. -1.
          2    1    6    6  503    0 -0.56974317298E+02 -0.37201836911E+03  0.53749834619E+03  0.65616172698E+03  0.00000000000E+00 0. -1.
         -2    1    6    6    0  503 -0.18240928764E+02 -0.24889667269E+02  0.95112883346E+02  0.99993437771E+02  0.00000000000E+00 0.  1.
<mgrwt>
<rscale>  0 0.21713806E+04</rscale>
<asrwt>0</asrwt>
<pdfrwt beam="1">  1        2 0.16956862E+00 0.21713806E+04</pdfrwt>
<pdfrwt beam="2">  1       -2 0.16452797E+00 0.21713806E+04</pdfrwt>
<totfact> 0.46430334E+00</totfact>
</mgrwt>
</event>
<event>
12    3  0.4806716E-008  0.2297043E+04  0.7818608E-02  0.8479088E-01
          2   -1    0    0  501    0  0.00000000000E+00  0.00000000000E+00  0.45261900936E+03  0.45261900936E+03  0.00000000000E+00 0. -1.
         -2   -1    0    0    0  501 -0.00000000000E+00 -0.00000000000E+00 -0.29143755074E+04  0.29143755074E+04  0.00000000000E+00 0.  1.
         23    2    1    2    0    0 -0.72443445608E+03  0.28620613081E+03 -0.20326259996E+03  0.80999546119E+03  0.89764871424E+02 0.  0.
        254    2    1    2    0    0  0.72443445608E+03 -0.28620613081E+03 -0.22584938981E+04  0.25569990556E+04  0.91144404772E+03 0.  0.
         23    2    4    4    0    0  0.22433792878E+03  0.29943221841E+03 -0.10793338882E+04  0.11459507429E+04  0.90853195762E+02 0.  0.
         23    2    4    4    0    0  0.50009652729E+03 -0.58563834922E+03 -0.11791600099E+04  0.14110483127E+04  0.87006891617E+02 0.  0.
          2    1    3    3  502    0 -0.62825223955E+03  0.26518427888E+03 -0.15065901592E+03  0.69837075922E+03  0.00000000000E+00 0. -1.
         -2    1    3    3    0  502 -0.96182216529E+02  0.21021851929E+02 -0.52603584041E+02  0.11162470197E+03  0.00000000000E+00 0.  1.
         13    1    5    5    0    0  0.17585718233E+02  0.84175918682E+02 -0.26810747016E+03  0.28156075424E+03  0.00000000000E+00 0. -1.
        -13    1    5    5    0    0  0.20675221055E+03  0.21525629973E+03 -0.81122641807E+03  0.86438998867E+03  0.00000000000E+00 0.  1.
          2    1    6    6  503    0  0.49804943881E+03 -0.56062115501E+03 -0.11421398539E+04  0.13663208880E+04  0.00000000000E+00 0. -1.
         -2    1    6    6    0  503  0.20470884837E+01 -0.25017194205E+02 -0.37020155956E+02  0.44727424743E+02  0.00000000000E+00 0.  1.
<mgrwt>
<rscale>  0 0.22970431E+04</rscale>
<asrwt>0</asrwt>
<pdfrwt beam="1">  1        2 0.69633696E-01 0.22970431E+04</pdfrwt>
<pdfrwt beam="2">  1       -2 0.44836545E+00 0.22970431E+04</pdfrwt>
<totfact> 0.22290695E-01</totfact>
</mgrwt>
</event>
<event>
12    3  0.4806716E-008  0.3325888E+04  0.7818608E-02  0.8156339E-01
          2   -1    0    0  501    0  0.00000000000E+00  0.00000000000E+00  0.14657815261E+04  0.14657815261E+04  0.00000000000E+00 0. -1.
         -2   -1    0    0    0  501 -0.00000000000E+00 -0.00000000000E+00 -0.18866266567E+04  0.18866266567E+04  0.00000000000E+00 0.  1.
         23    2    1    2    0    0  0.77747788266E+03  0.63053369686E+03 -0.13666458121E+04  0.16967195743E+04  0.95351651029E+02 0.  0.
        254    2    1    2    0    0 -0.77747788266E+03 -0.63053369686E+03  0.94580068148E+03  0.16556886085E+04  0.91908717665E+03 0.  0.
         23    2    4    4    0    0 -0.69854813626E+03 -0.31631584790E+03  0.10504580019E+04  0.13037919851E+04  0.91576810979E+02 0.  0.
         23    2    4    4    0    0 -0.78929746399E+02 -0.31421784896E+03 -0.10465732041E+03  0.35189662341E+03  0.88968069449E+02 0.  0.
          3    1    3    3  502    0  0.16180872142E+03  0.10485916658E+03 -0.21228426504E+03  0.28677886311E+03  0.00000000000E+00 0. -1.
         -3    1    3    3    0  502  0.61566916125E+03  0.52567453028E+03 -0.11543615470E+04  0.14099407112E+04  0.00000000000E+00 0.  1.
         13    1    5    5    0    0 -0.13651203076E+03 -0.23454505402E+02  0.19003912518E+03  0.23516062057E+03  0.00000000000E+00 0. -1.
        -13    1    5    5    0    0 -0.56203610550E+03 -0.29286134250E+03  0.86041887671E+03  0.10686313645E+04  0.00000000000E+00 0.  1.
          2    1    6    6  503    0 -0.33520338055E+02 -0.14224711761E+03 -0.12341554245E+01  0.14614848159E+03  0.00000000000E+00 0. -1.
         -2    1    6    6    0  503 -0.45409408344E+02 -0.17197073134E+03 -0.10342316498E+03  0.20574814182E+03  0.00000000000E+00 0.  1.
<mgrwt>
<rscale>  0 0.33258879E+04</rscale>
<asrwt>0</asrwt>
<pdfrwt beam="1">  1        2 0.22550485E+00 0.33258879E+04</pdfrwt>
<pdfrwt beam="2">  1       -2 0.29025025E+00 0.33258879E+04</pdfrwt>
<totfact> 0.40332349E-01</totfact>
</mgrwt>
</event>
<event>
12    3  0.4806716E-008  0.3617266E+04  0.7818608E-02  0.8086548E-01
         -1   -1    0    0    0  501 -0.00000000000E+00  0.00000000000E+00  0.10290201717E+04  0.10290201717E+04  0.00000000000E+00 0.  1.
          1   -1    0    0  501    0  0.00000000000E+00 -0.00000000000E+00 -0.31789014359E+04  0.31789014359E+04  0.00000000000E+00 0. -1.
         23    2    1    2    0    0  0.11179459367E+04 -0.28293544050E+03 -0.24551081542E+04  0.27140083798E+04  0.91814247610E+02 0.  0.
        254    2    1    2    0    0 -0.11179459367E+04  0.28293544050E+03  0.30522688993E+03  0.14939132278E+04  0.89930956691E+03 0.  0.
         23    2    4    4    0    0 -0.24136307631E+03 -0.31632415127E+02 -0.28656572112E+03  0.38684494656E+03  0.90952492368E+02 0.  0.
         23    2    4    4    0    0 -0.87658286035E+03  0.31456785563E+03  0.59179261105E+03  0.11070682813E+04  0.89617174756E+02 0.  0.
          4    1    3    3  502    0  0.82347931285E+03 -0.16703717293E+03 -0.18020799056E+04  0.19883439295E+04  0.00000000000E+00 0. -1.
         -4    1    3    3    0  502  0.29446662381E+03 -0.11589826757E+03 -0.65302824856E+03  0.72566445027E+03  0.00000000000E+00 0.  1.
         13    1    5    5    0    0 -0.11237452713E+03 -0.77942292494E+01 -0.66952410187E+02  0.13103972522E+03  0.00000000000E+00 0. -1.
        -13    1    5    5    0    0 -0.12898854918E+03 -0.23838185878E+02 -0.21961331093E+03  0.25580522134E+03  0.00000000000E+00 0.  1.
          1    1    6    6  503    0 -0.47200941117E+02  0.31151273530E+02  0.17466666091E+02  0.59189653735E+02  0.00000000000E+00 0. -1.
         -1    1    6    6    0  503 -0.82938191923E+03  0.28341658210E+03  0.57432594496E+03  0.10478786275E+04  0.00000000000E+00 0.  1.
<mgrwt>
<rscale>  0 0.36172662E+04</rscale>
<asrwt>0</asrwt>
<pdfrwt beam="1">  1        1 0.48906175E+00 0.36172662E+04</pdfrwt>
<pdfrwt beam="2">  1       -1 0.15831080E+00 0.36172662E+04</pdfrwt>
<totfact> 0.10709971E-01</totfact>
</mgrwt>
</event>
<event>
12    3  0.4806716E-008  0.1347270E+04  0.7818608E-02  0.8992898E-01
         -1   -1    0    0    0  501 -0.00000000000E+00  0.00000000000E+00  0.13299645054E+03  0.13299645054E+03  0.00000000000E+00 0.  1.
          1   -1    0    0  501    0  0.00000000000E+00 -0.00000000000E+00 -0.34119998294E+04  0.34119998294E+04  0.00000000000E+00 0. -1.
         23    2    1    2    0    0 -0.22032975558E+03  0.27306180551E+03 -0.94761459236E+03  0.10145088398E+04  0.90259733437E+02 0.  0.
        254    2    1    2    0    0  0.22032975558E+03 -0.27306180551E+03 -0.23313887865E+04  0.25304874402E+04  0.91917629444E+03 0.  0.
         23    2    4    4    0    0  0.14994983909E+03 -0.60628139109E+03 -0.14595144505E+04  0.15900114985E+04  0.88837237749E+02 0.  0.
         23    2    4    4    0    0  0.70379916483E+02  0.33321958558E+03 -0.87187433602E+03  0.94047594167E+03  0.91331890296E+02 0.  0.
          1    1    3    3  502    0 -0.42989887273E+02  0.87291070684E+02 -0.36600114632E+03  0.37871453700E+03  0.00000000000E+00 0. -1.
         -1    1    3    3    0  502 -0.17733986830E+03  0.18577073483E+03 -0.58161344604E+03  0.63579430276E+03  0.00000000000E+00 0.  1.
         13    1    5    5    0    0  0.15276758873E+03 -0.54834751517E+03 -0.13674865506E+04  0.14812300293E+04  0.00000000000E+00 0. -1.
        -13    1    5    5    0    0 -0.28177496375E+01 -0.57933875917E+02 -0.92027899860E+02  0.10878146921E+03  0.00000000000E+00 0.  1.
          3    1    6    6  503    0  0.87347625841E+02  0.30294708447E+03 -0.74565359506E+03  0.80957138509E+03  0.00000000000E+00 0. -1.
         -3    1    6    6    0  503 -0.16967709359E+02  0.30272501111E+02 -0.12622074096E+03  0.13090455658E+03  0.00000000000E+00 0.  1.
<mgrwt>
<rscale>  0 0.13472696E+04</rscale>
<asrwt>0</asrwt>
<pdfrwt beam="1">  1        1 0.52492297E+00 0.13472696E+04</pdfrwt>
<pdfrwt beam="2">  1       -1 0.20460995E-01 0.13472696E+04</pdfrwt>
<totfact> 0.57283032E+00</totfact>
</mgrwt>
</event>
<event>
12    3  0.4806716E-008  0.1677269E+04  0.7818608E-02  0.8774436E-01
          2   -1    0    0  501    0  0.00000000000E+00  0.00000000000E+00  0.13257075744E+04  0.13257075744E+04  0.00000000000E+00 0.  1.
         -2   -1    0    0    0  501 -0.00000000000E+00 -0.00000000000E+00 -0.53051475046E+03  0.53051475046E+03  0.00000000000E+00 0. -1.
         23    2    1    2    0    0 -0.15589177736E+01  0.15003612603E+03  0.91841868386E+03  0.93498723546E+03  0.90526141426E+02 0.  0.
        254    2    1    2    0    0  0.15589177736E+01 -0.15003612603E+03 -0.12322585987E+03  0.92123508945E+03  0.90054217455E+03 0.  0.
         23    2    4    4    0    0  0.22222359391E+03  0.14941070608E+03  0.25665888506E+03  0.38181903786E+03  0.90582060104E+02 0.  0.
         23    2    4    4    0    0 -0.22066467613E+03 -0.29944683211E+03 -0.37988474493E+03  0.53941605159E+03  0.91082120803E+02 0.  0.
          3    1    3    3  502    0 -0.31678840524E+02  0.42327658632E+02  0.46424640363E+03  0.46724715398E+03  0.00000000000E+00 0. -1.
         -3    1    3    3    0  502  0.30119922750E+02  0.10770846739E+03  0.45417228023E+03  0.46774008148E+03  0.00000000000E+00 0.  1.
         13    1    5    5    0    0  0.68412002977E+02  0.98922130321E+02  0.97947136513E+02  0.15511102981E+03  0.00000000000E+00 0.  1.
        -13    1    5    5    0    0  0.15381159093E+03  0.50488575762E+02  0.15871174854E+03  0.22670800805E+03  0.00000000000E+00 0. -1.
          2    1    6    6  503    0 -0.21092250552E+03 -0.25502451241E+03 -0.36218335028E+03  0.49061449681E+03  0.00000000000E+00 0. -1.
         -2    1    6    6    0  503 -0.97421706150E+01 -0.44422319703E+02 -0.17701394645E+02  0.48801554775E+02  0.00000000000E+00 0.  1.
<mgrwt>
<rscale>  0 0.16772685E+04</rscale>
<asrwt>0</asrwt>
<pdfrwt beam="1">  1        2 0.20395501E+00 0.16772685E+04</pdfrwt>
<pdfrwt beam="2">  1       -2 0.81617654E-01 0.16772685E+04</pdfrwt>
<totfact> 0.20116814E+01</totfact>
</mgrwt>
</event>
<event>
12    3  0.4806716E-008  0.1860628E+04  0.7818608E-02  0.8674706E-01
          2   -1    0    0  501    0  0.00000000000E+00  0.00000000000E+00  0.19542909770E+04  0.19542909770E+04  0.00000000000E+00 0. -1.
         -2   -1    0    0    0  501 -0.00000000000E+00 -0.00000000000E+00 -0.44286362319E+03  0.44286362319E+03  0.00000000000E+00 0.  1.
         23    2    1    2    0    0  0.42166152077E+03  0.17475065832E+03  0.12805704951E+04  0.13624185942E+04  0.89372267510E+02 0.  0.
        254    2    1    2    0    0 -0.42166152077E+03 -0.17475065832E+03  0.23085685872E+03  0.10347360060E+04  0.89947066780E+03 0.  0.
         23    2    4    4    0    0 -0.46420668525E+03  0.20863024862E+03 -0.89812170622E+02  0.52541831407E+03  0.94782653992E+02 0.  0.
         23    2    4    4    0    0  0.42545164488E+02 -0.38338090694E+03  0.32066902934E+03  0.50931769194E+03  0.88231933681E+02 0.  0.
          3    1    3    3  502    0  0.37941289737E+03  0.12896683185E+03  0.10600206242E+04  0.11332388602E+04  0.00000000000E+00 0. -1.
         -3    1    3    3    0  502  0.42248623399E+02  0.45783826465E+02  0.22054987090E+03  0.22917973405E+03  0.00000000000E+00 0.  1.
         13    1    5    5    0    0 -0.79512947868E+02  0.27332538197E+02  0.19518600113E+02  0.86315423149E+02  0.00000000000E+00 0. -1.
        -13    1    5    5    0    0 -0.38469373739E+03  0.18129771042E+03 -0.10933077074E+03  0.43910289092E+03  0.00000000000E+00 0.  1.
          3    1    6    6  503    0  0.21744314764E+02 -0.18329209715E+02  0.12235396117E+02  0.30959329312E+02  0.00000000000E+00 0. -1.
         -3    1    6    6    0  503  0.20800849725E+02 -0.36505169722E+03  0.30843363322E+03  0.47835836263E+03  0.00000000000E+00 0.  1.
<mgrwt>
<rscale>  0 0.18606283E+04</rscale>
<asrwt>0</asrwt>
<pdfrwt beam="1">  1        2 0.30066014E+00 0.18606283E+04</pdfrwt>
<pdfrwt beam="2">  1       -2 0.68132866E-01 0.18606283E+04</pdfrwt>
<totfact> 0.13122278E+01</totfact>
</mgrwt>
</event>
<event>
12    3  0.4806716E-008  0.1747828E+04  0.7818608E-02  0.8734547E-01
          2   -1    0    0  501    0  0.00000000000E+00  0.00000000000E+00  0.24349613037E+04  0.24349613037E+04  0.00000000000E+00 0.  1.
         -2   -1    0    0    0  501 -0.00000000000E+00 -0.00000000000E+00 -0.31365008102E+03  0.31365008102E+03  0.00000000000E+00 0. -1.
         23    2    1    2    0    0  0.34971167899E+02 -0.59150652538E+03  0.12249565167E+04  0.13639861470E+04  0.94004197617E+02 0.  0.
        254    2    1    2    0    0 -0.34971167899E+02  0.59150652538E+03  0.89635470592E+03  0.13846252377E+04  0.87328823298E+03 0.  0.
         23    2    4    4    0    0  0.62823081753E+02  0.10465762269E+02  0.76606665677E+03  0.77448514482E+03  0.94407865900E+02 0.  0.
         23    2    4    4    0    0 -0.97794249651E+02  0.58104076311E+03  0.13028804915E+03  0.61014009287E+03  0.90132533038E+02 0.  0.
          1    1    3    3  502    0  0.43984362924E+02 -0.28230733080E+03  0.67553611412E+03  0.73347194539E+03  0.00000000000E+00 0. -1.
         -1    1    3    3    0  502 -0.90131950252E+01 -0.30919919458E+03  0.54942040259E+03  0.63051420159E+03  0.00000000000E+00 0.  1.
         13    1    5    5    0    0  0.54196463524E+02 -0.36053796004E+02  0.50344631848E+03  0.50763700462E+03  0.00000000000E+00 0. -1.
        -13    1    5    5    0    0  0.86266182284E+01  0.46519558273E+02  0.26262033829E+03  0.26684814020E+03  0.00000000000E+00 0.  1.
          3    1    6    6  503    0 -0.66335531823E+02  0.48643616777E+03  0.13851058646E+03  0.51010364697E+03  0.00000000000E+00 0. -1.
         -3    1    6    6    0  503 -0.31458717829E+02  0.94604595343E+02 -0.82225373062E+01  0.10003644589E+03  0.00000000000E+00 0.  1.
<mgrwt>
<rscale>  0 0.17478281E+04</rscale>
<asrwt>0</asrwt>
<pdfrwt beam="1">  1        2 0.37460942E+00 0.17478281E+04</pdfrwt>
<pdfrwt beam="2">  1       -2 0.48253860E-01 0.17478281E+04</pdfrwt>
<totfact> 0.14656000E+01</totfact>
</mgrwt>
</event>
<event>
12    3  0.4806716E-008  0.2124478E+04  0.7818608E-02  0.8550537E-01
          2   -1    0    0  501    0  0.00000000000E+00  0.00000000000E+00  0.32029345796E+04  0.32029345796E+04  0.00000000000E+00 0. -1.
         -2   -1    0    0    0  501 -0.00000000000E+00 -0.00000000000E+00 -0.35228688721E+03  0.35228688721E+03  0.00000000000E+00 0.  1.
         23    2    1    2    0    0 -0.21406194525E+03 -0.78324250003E+03  0.56484902730E+03  0.99327221743E+03  0.90796167446E+02 0.  0.
        254    2    1    2    0    0  0.21406194525E+03  0.78324250003E+03  0.22857986651E+04  0.25619492494E+04  0.82426760751E+03 0.  0.
         23    2    4    4    0    0  0.12250376921E+03 -0.11512649454E+03  0.15655700603E+03  0.24736891517E+03  0.91760562564E+02 0.  0.
         23    2    4    4    0    0  0.91558176045E+02  0.89836899456E+03  0.21292416591E+04  0.23145803342E+04  0.90345618642E+02 0.  0.
          3    1    3    3  502    0 -0.13492149393E+03 -0.39865208063E+03  0.24614741700E+03  0.48756111598E+03  0.00000000000E+00 0.  1.
         -3    1    3    3    0  502 -0.79140451317E+02 -0.38459041940E+03  0.31870161029E+03  0.50571110145E+03  0.00000000000E+00 0. -1.
         13    1    5    5    0    0  0.12443093724E+03 -0.12591626240E+03  0.13310947639E+03  0.22148610788E+03  0.00000000000E+00 0.  1.
        -13    1    5    5    0    0 -0.19271680384E+01  0.10789767859E+02  0.23447529637E+02  0.25882807289E+02  0.00000000000E+00 0. -1.
          1    1    6    6  503    0  0.70863456715E+01  0.74480761754E+02  0.24943041505E+03  0.26040954690E+03  0.00000000000E+00 0. -1.
         -1    1    6    6    0  503  0.84471830373E+02  0.82388823281E+03  0.18798112440E+04  0.20541707873E+04  0.00000000000E+00 0.  1.
<mgrwt>
<rscale>  0 0.21244782E+04</rscale>
<asrwt>0</asrwt>
<pdfrwt beam="1">  1        2 0.49275915E+00 0.21244782E+04</pdfrwt>
<pdfrwt beam="2">  1       -2 0.54197985E-01 0.21244782E+04</pdfrwt>
<totfact> 0.38157753E+00</totfact>
</mgrwt>
</event>
<event>
12    3  0.4806716E-008  0.1415576E+04  0.7818608E-02  0.8942620E-01
         -1   -1    0    0    0  501 -0.00000000000E+00  0.00000000000E+00  0.35535380474E+03  0.35535380474E+03  0.00000000000E+00 0.  1.
          1   -1    0    0  501    0  0.00000000000E+00 -0.00000000000E+00 -0.14097607629E+04  0.14097607629E+04  0.00000000000E+00 0. -1.
         23    2    1    2    0    0  0.40218488765E+03  0.43204729785E+02 -0.25147894664E+03  0.48504664706E+03  0.91701999408E+02 0.  0.
        254    2    1    2    0    0 -0.40218488765E+03 -0.43204729785E+02 -0.80292801149E+03  0.12800679205E+04  0.91118667518E+03 0.  0.
         23    2    4    4    0    0 -0.35001993888E+01  0.17963430487E+03  0.12862790816E+03  0.23877669914E+03  0.90489990682E+02 0.  0.
         23    2    4    4    0    0 -0.39868468826E+03 -0.22283903466E+03 -0.93155591965E+03  0.10412912214E+04  0.88793357309E+02 0.  0.
          1    1    3    3  502    0  0.73390830610E+02  0.17165546046E+01 -0.80564275759E+01  0.73851652673E+02  0.00000000000E+00 0. -1.
         -1    1    3    3    0  502  0.32879405704E+03  0.41488175181E+02 -0.24342251906E+03  0.41119499439E+03  0.00000000000E+00 0.  1.
         13    1    5    5    0    0  0.31720352190E+02  0.21768336022E+02  0.34251940841E+02  0.51509578212E+02  0.00000000000E+00 0.  1.
        -13    1    5    5    0    0 -0.35220551579E+02  0.15786596885E+03  0.94375967320E+02  0.18726712093E+03  0.00000000000E+00 0. -1.
          1    1    6    6  503    0 -0.36996936492E+03 -0.21815346874E+03 -0.81601814001E+03  0.92214633965E+03  0.00000000000E+00 0. -1.
         -1    1    6    6    0  503 -0.28715323338E+02 -0.46855659203E+01 -0.11553777964E+03  0.11914488175E+03  0.00000000000E+00 0.  1.
<mgrwt>
<rscale>  0 0.14155760E+04</rscale>
<asrwt>0</asrwt>
<pdfrwt beam="1">  1        1 0.21688627E+00 0.14155760E+04</pdfrwt>
<pdfrwt beam="2">  1       -1 0.54669817E-01 0.14155760E+04</pdfrwt>
<totfact> 0.24893900E+01</totfact>
</mgrwt>
</event>
<event>
12    3  0.4806716E-008  0.1713629E+04  0.7818608E-02  0.8753629E-01
         -2   -1    0    0    0  501 -0.00000000000E+00  0.00000000000E+00  0.27453263349E+03  0.27453263349E+03  0.00000000000E+00 0.  1.
          2   -1    0    0  501    0  0.00000000000E+00 -0.00000000000E+00 -0.26741130682E+04  0.26741130682E+04  0.00000000000E+00 0. -1.
         23    2    1    2    0    0  0.44061739969E+03 -0.41360235116E+03 -0.10346465756E+04  0.12017242665E+04  0.91853570566E+02 0.  0.
        254    2    1    2    0    0 -0.44061739969E+03  0.41360235116E+03 -0.13649338591E+04  0.17469214352E+04  0.90745769227E+03 0.  0.
         23    2    4    4    0    0 -0.87946884571E+02 -0.16082382377E+03  0.18079078707E+02  0.20570228675E+03  0.91583955413E+02 0.  0.
         23    2    4    4    0    0 -0.35267051512E+03  0.57442617493E+03 -0.13830129378E+04  0.15412191484E+04  0.91048090413E+02 0.  0.
          1    1    3    3  502    0  0.41324493782E+03 -0.36880624799E+03 -0.89490130831E+03  0.10524437176E+04  0.00000000000E+00 0. -1.
         -1    1    3    3    0  502  0.27372461873E+02 -0.44796103167E+02 -0.13974526730E+03  0.14928054883E+03  0.00000000000E+00 0.  1.
         13    1    5    5    0    0 -0.78787129541E+02 -0.50462353344E+02  0.42529077809E+00  0.93563036283E+02  0.00000000000E+00 0. -1.
        -13    1    5    5    0    0 -0.91597550299E+01 -0.11036147042E+03  0.17653787929E+02  0.11213925046E+03  0.00000000000E+00 0.  1.
          1    1    6    6  503    0 -0.16655421472E+03  0.35005220555E+03 -0.83038019846E+03  0.91641045774E+03  0.00000000000E+00 0. -1.
         -1    1    6    6    0  503 -0.18611630040E+03  0.22437396938E+03 -0.55263273931E+03  0.62480869069E+03  0.00000000000E+00 0.  1.
<mgrwt>
<rscale>  0 0.17136293E+04</rscale>
<asrwt>0</asrwt>
<pdfrwt beam="1">  1        2 0.41140200E+00 0.17136293E+04</pdfrwt>
<pdfrwt beam="2">  1       -2 0.42235790E-01 0.17136293E+04</pdfrwt>
<totfact> 0.13930157E+01</totfact>
</mgrwt>
</event>
<event>
12    3  0.4806716E-008  0.1824089E+04  0.7818608E-02  0.8693593E-01
         -2   -1    0    0    0  501 -0.00000000000E+00  0.00000000000E+00  0.51124884889E+03  0.51124884889E+03  0.00000000000E+00 0.  1.
          2   -1    0    0  501    0  0.00000000000E+00 -0.00000000000E+00 -0.16270459074E+04  0.16270459074E+04  0.00000000000E+00 0. -1.
         23    2    1    2    0    0  0.47300456430E+03 -0.25707842952E+01  0.15545567852E+03  0.50603482179E+03  0.90359537984E+02 0.  0.
        254    2    1    2    0    0 -0.47300456430E+03  0.25707842952E+01 -0.12712527371E+04  0.16322599345E+04  0.90799176514E+03 0.  0.
         23    2    4    4    0    0 -0.23984294371E+03  0.44164588189E+03 -0.54332854176E+03  0.74606174323E+03  0.93949442710E+02 0.  0.
         23    2    4    4    0    0 -0.23316162059E+03 -0.43907509759E+03 -0.72792419530E+03  0.88619819129E+03  0.91226736733E+02 0.  0.
          3    1    3    3  502    0  0.46017712734E+03 -0.75621624005E+01  0.16539616115E+03  0.48905630039E+03  0.00000000000E+00 0. -1.
         -3    1    3    3    0  502  0.12827436960E+02  0.49913781052E+01 -0.99404826256E+01  0.16978521407E+02  0.00000000000E+00 0.  1.
         13    1    5    5    0    0 -0.36882585699E+02  0.48009500862E+02 -0.11487366212E+03  0.12985066634E+03  0.00000000000E+00 0.  1.
        -13    1    5    5    0    0 -0.20296035801E+03  0.39363638103E+03 -0.42845487963E+03  0.61621107688E+03  0.00000000000E+00 0. -1.
          3    1    6    6  503    0 -0.16505345318E+03 -0.27021831046E+03 -0.52903253208E+03  0.61655169915E+03  0.00000000000E+00 0. -1.
         -3    1    6    6    0  503 -0.68108167405E+02 -0.16885678713E+03 -0.19889166322E+03  0.26964649214E+03  0.00000000000E+00 0.  1.
<mgrwt>
<rscale>  0 0.18240892E+04</rscale>
<asrwt>0</asrwt>
<pdfrwt beam="1">  1        2 0.25031475E+00 0.18240892E+04</pdfrwt>
<pdfrwt beam="2">  1       -2 0.78653670E-01 0.18240892E+04</pdfrwt>
<totfact> 0.14572225E+01</totfact>
</mgrwt>
</event>
<event>
12    3  0.4806716E-008  0.1016101E+04  0.7818608E-02  0.9291060E-01
         -2   -1    0    0    0  501 -0.00000000000E+00  0.00000000000E+00  0.32144387483E+03  0.32144387483E+03  0.00000000000E+00 0.  1.
          2   -1    0    0  501    0  0.00000000000E+00 -0.00000000000E+00 -0.80298680506E+03  0.80298680506E+03  0.00000000000E+00 0. -1.
         23    2    1    2    0    0  0.41920739657E+01  0.36895728241E+02 -0.13577553471E+03  0.16653160617E+03  0.88988267657E+02 0.  0.
        254    2    1    2    0    0 -0.41920739657E+01 -0.36895728241E+02 -0.34576739552E+03  0.95789907371E+03  0.89254505509E+03 0.  0.
         23    2    4    4    0    0  0.32840283017E+03  0.15471981265E+03  0.74585497487E+02  0.38157891654E+03  0.90845108991E+02 0.  0.
         23    2    4    4    0    0 -0.33259490413E+03 -0.19161554089E+03 -0.42035289300E+03  0.57632015717E+03  0.90069324077E+02 0.  0.
          1    1    3    3  502    0 -0.23344687985E+02  0.37503043802E+02 -0.13142007113E+03  0.13864590815E+03  0.00000000000E+00 0. -1.
         -1    1    3    3    0  502  0.27536761951E+02 -0.60731556156E+00 -0.43554635826E+01  0.27885698018E+02  0.00000000000E+00 0.  1.
         13    1    5    5    0    0  0.19467158802E+03  0.13841908461E+03  0.58296531866E+02  0.24587670852E+03  0.00000000000E+00 0. -1.
        -13    1    5    5    0    0  0.13373124215E+03  0.16300728038E+02  0.16288965621E+02  0.13570220802E+03  0.00000000000E+00 0.  1.
          1    1    6    6  503    0 -0.31038126962E+03 -0.14495721776E+03 -0.36281103216E+03  0.49897993203E+03  0.00000000000E+00 0. -1.
         -1    1    6    6    0  503 -0.22213634508E+02 -0.46658323124E+02 -0.57541860845E+02  0.77340225137E+02  0.00000000000E+00 0.  1.
<mgrwt>
<rscale>  0 0.10161008E+04</rscale>
<asrwt>0</asrwt>
<pdfrwt beam="1">  1        2 0.12353643E+00 0.10161008E+04</pdfrwt>
<pdfrwt beam="2">  1       -2 0.49452904E-01 0.10161008E+04</pdfrwt>
<totfact> 0.13232054E+02</totfact>
</mgrwt>
</event>
<event>
12    3  0.4806716E-008  0.1112480E+04  0.7818608E-02  0.9193112E-01
         -2   -1    0    0    0  501 -0.00000000000E+00  0.00000000000E+00  0.41292001065E+03  0.41292001065E+03  0.00000000000E+00 0.  1.
          2   -1    0    0  501    0  0.00000000000E+00 -0.00000000000E+00 -0.74930507977E+03  0.74930507977E+03  0.00000000000E+00 0. -1.
         23    2    1    2    0    0  0.13356718846E+01 -0.15991526131E+03 -0.12081682479E+03  0.21998349628E+03  0.90671708177E+02 0.  0.
        254    2    1    2    0    0 -0.13356718846E+01  0.15991526131E+03 -0.21556824432E+03  0.94224159414E+03  0.90320256806E+03 0.  0.
         23    2    4    4    0    0  0.58997213572E+02 -0.36448368060E+03 -0.11394631422E+03  0.39713777447E+03  0.91682194294E+02 0.  0.
         23    2    4    4    0    0 -0.60332885457E+02  0.52439894191E+03 -0.10162193011E+03  0.54510381968E+03  0.90425937696E+02 0.  0.
          3    1    3    3  502    0  0.29161002664E+02 -0.42752691995E+02 -0.75040448235E+02  0.91154953900E+02  0.00000000000E+00 0. -1.
         -3    1    3    3    0  502 -0.27825330779E+02 -0.11716256931E+03 -0.45776376559E+02  0.12882854238E+03  0.00000000000E+00 0.  1.
         13    1    5    5    0    0  0.53092857940E+02 -0.30529995971E+03 -0.57564102688E+02  0.31518334804E+03  0.00000000000E+00 0.  1.
        -13    1    5    5    0    0  0.59043556328E+01 -0.59183720888E+02 -0.56382211529E+02  0.81954426424E+02  0.00000000000E+00 0. -1.
          3    1    6    6  503    0  0.16312039963E+02  0.67493052943E+02  0.52922413496E+01  0.69637652615E+02  0.00000000000E+00 0. -1.
         -3    1    6    6    0  503 -0.76644925420E+02  0.45690588897E+03 -0.10691417146E+03  0.47546616706E+03  0.00000000000E+00 0.  1.
<mgrwt>
<rscale>  0 0.11124802E+04</rscale>
<asrwt>0</asrwt>
<pdfrwt beam="1">  1        2 0.11527770E+00 0.11124802E+04</pdfrwt>
<pdfrwt beam="2">  1       -2 0.63526156E-01 0.11124802E+04</pdfrwt>
<totfact> 0.85466738E+01</totfact>
</mgrwt>
</event>
<event>
12    3  0.4806716E-008  0.1530656E+04  0.7818608E-02  0.8864319E-01
          1   -1    0    0  501    0  0.00000000000E+00  0.00000000000E+00  0.75629017164E+03  0.75629017164E+03  0.00000000000E+00 0. -1.
         -1   -1    0    0    0  501 -0.00000000000E+00 -0.00000000000E+00 -0.77447423907E+03  0.77447423907E+03  0.00000000000E+00 0.  1.
         23    2    1    2    0    0  0.23510654559E+03 -0.18613567878E+03  0.48739467197E+03  0.57886831315E+03  0.87254678978E+02 0.  0.
        254    2    1    2    0    0 -0.23510654559E+03  0.18613567878E+03 -0.50557873940E+03  0.95189609756E+03  0.74871539327E+03 0.  0.
         23    2    4    4    0    0 -0.41769991403E+03  0.41041564921E+02 -0.55054633647E+03  0.69819361335E+03  0.90638981127E+02 0.  0.
         23    2    4    4    0    0  0.18259336844E+03  0.14509411386E+03  0.44967597061E+02  0.25370248421E+03  0.89164037775E+02 0.  0.
          3    1    3    3  502    0  0.22120968344E+03 -0.19152608287E+03  0.43393422793E+03  0.52336877882E+03  0.00000000000E+00 0. -1.
         -3    1    3    3    0  502  0.13896862145E+02  0.53904040919E+01  0.53460444037E+02  0.55499534326E+02  0.00000000000E+00 0.  1.
         13    1    5    5    0    0 -0.13113687074E+03  0.55427292143E+02 -0.18948017064E+03  0.23700590424E+03  0.00000000000E+00 0. -1.
        -13    1    5    5    0    0 -0.28656304329E+03 -0.14385727223E+02 -0.36106616583E+03  0.46118770911E+03  0.00000000000E+00 0.  1.
          1    1    6    6  503    0 -0.22147675866E+01 -0.77586662671E+01 -0.38741712501E+01  0.89504916391E+01  0.00000000000E+00 0. -1.
         -1    1    6    6    0  503  0.18480813603E+03  0.15285278013E+03  0.48841768311E+02  0.24475199257E+03  0.00000000000E+00 0.  1.
<mgrwt>
<rscale>  0 0.15306564E+04</rscale>
<asrwt>0</asrwt>
<pdfrwt beam="1">  1        1 0.11635233E+00 0.15306564E+04</pdfrwt>
<pdfrwt beam="2">  1       -1 0.11914988E+00 0.15306564E+04</pdfrwt>
<totfact> 0.14699575E+01</totfact>
</mgrwt>
</event>
<event>
12    3  0.4806716E-008  0.2011215E+04  0.7818608E-02  0.8601395E-01
         -2   -1    0    0    0  501 -0.00000000000E+00  0.00000000000E+00  0.47299787940E+03  0.47299787940E+03  0.00000000000E+00 0.  1.
          2   -1    0    0  501    0  0.00000000000E+00 -0.00000000000E+00 -0.21379514858E+04  0.21379514858E+04  0.00000000000E+00 0. -1.
         23    2    1    2    0    0  0.64123291542E+03 -0.47696255983E+03 -0.56497560991E+03  0.98293956008E+03  0.91103258292E+02 0.  0.
        254    2    1    2    0    0 -0.64123291542E+03  0.47696255983E+03 -0.10999779965E+04  0.16280098051E+04  0.89542805269E+03 0.  0.
         23    2    4    4    0    0 -0.71066664166E+03  0.24099104467E+03 -0.34803768841E+03  0.83273304130E+03  0.95866189771E+02 0.  0.
         23    2    4    4    0    0  0.69433726233E+02  0.23597151516E+03 -0.75194030809E+03  0.79527676384E+03  0.80915424161E+02 0.  0.
          2    1    3    3  502    0  0.43748162125E+03 -0.27998637238E+03 -0.39429970216E+03  0.65211562838E+03  0.00000000000E+00 0. -1.
         -2    1    3    3    0  502  0.20375129417E+03 -0.19697618745E+03 -0.17067590775E+03  0.33082393170E+03  0.00000000000E+00 0.  1.
         13    1    5    5    0    0 -0.69716274607E+03  0.23687657821E+03 -0.35450811617E+03  0.81720402119E+03  0.00000000000E+00 0.  1.
        -13    1    5    5    0    0 -0.13503895582E+02  0.41144664599E+01  0.64704277592E+01  0.15529020108E+02  0.00000000000E+00 0. -1.
          4    1    6    6  503    0 -0.11741213803E+01 -0.53950915548E+01 -0.63381315961E+01  0.84058007370E+01  0.00000000000E+00 0. -1.
         -4    1    6    6    0  503  0.70607847613E+02  0.24136660671E+03 -0.74560217649E+03  0.78687096310E+03  0.00000000000E+00 0.  1.
<mgrwt>
<rscale>  0 0.20112151E+04</rscale>
<asrwt>0</asrwt>
<pdfrwt beam="1">  1        2 0.32891561E+00 0.20112151E+04</pdfrwt>
<pdfrwt beam="2">  1       -2 0.72768905E-01 0.20112151E+04</pdfrwt>
<totfact> 0.88659952E+00</totfact>
</mgrwt>
</event>
<event>
12    3  0.4806716E-008  0.2108330E+04  0.7818608E-02  0.8557583E-01
         -2   -1    0    0    0  501 -0.00000000000E+00  0.00000000000E+00  0.68008717443E+03  0.68008717443E+03  0.00000000000E+00 0.  1.
          2   -1    0    0  501    0  0.00000000000E+00 -0.00000000000E+00 -0.16340027820E+04  0.16340027820E+04  0.00000000000E+00 0. -1.
         23    2    1    2    0    0 -0.61811840983E+03 -0.56182553036E+03 -0.16067409704E+03  0.85510599136E+03  0.87588788439E+02 0.  0.
        254    2    1    2    0    0  0.61811840983E+03  0.56182553036E+03 -0.79324151057E+03  0.14589839651E+04  0.89536798089E+03 0.  0.
         23    2    4    4    0    0  0.79826415628E+03  0.47904880289E+03 -0.81400575152E+03  0.12401286613E+04  0.92737879936E+02 0.  0.
         23    2    4    4    0    0 -0.18014574644E+03  0.82776727465E+02  0.20764240946E+02  0.21885530378E+03  0.90343863766E+02 0.  0.
          1    1    3    3  502    0 -0.37344165215E+03 -0.37461893490E+03 -0.67522651495E+02  0.53325165017E+03  0.00000000000E+00 0. -1.
         -1    1    3    3    0  502 -0.24467675769E+03 -0.18720659546E+03 -0.93151445544E+02  0.32185434119E+03  0.00000000000E+00 0.  1.
         13    1    5    5    0    0  0.77540767965E+03  0.44540399284E+03 -0.76836568934E+03  0.11789943253E+04  0.00000000000E+00 0.  1.
        -13    1    5    5    0    0  0.22856476632E+02  0.33644810048E+02 -0.45640062176E+02  0.61134336037E+02  0.00000000000E+00 0. -1.
          1    1    6    6  503    0 -0.30687460195E+02  0.28779073675E+02 -0.30403835512E+02  0.51907114240E+02  0.00000000000E+00 0. -1.
         -1    1    6    6    0  503 -0.14945828625E+03  0.53997653789E+02  0.51168076458E+02  0.16694818954E+03  0.00000000000E+00 0.  1.
<mgrwt>
<rscale>  0 0.21083305E+04</rscale>
<asrwt>0</asrwt>
<pdfrwt beam="1">  1        2 0.25138504E+00 0.21083305E+04</pdfrwt>
<pdfrwt beam="2">  1       -2 0.10462880E+00 0.21083305E+04</pdfrwt>
<totfact> 0.72882542E+00</totfact>
</mgrwt>
</event>
<event>
12    3  0.4806716E-008  0.2572800E+04  0.7818608E-02  0.8377499E-01
         -1   -1    0    0    0  501 -0.00000000000E+00  0.00000000000E+00  0.12577445205E+04  0.12577445205E+04  0.00000000000E+00 0.  1.
          1   -1    0    0  501    0  0.00000000000E+00 -0.00000000000E+00 -0.13157088520E+04  0.13157088520E+04  0.00000000000E+00 0. -1.
         23    2    1    2    0    0  0.54826335911E+03 -0.57238407342E+03 -0.80236138688E+03  0.11306214733E+04  0.79403288674E+02 0.  0.
        254    2    1    2    0    0 -0.54826335911E+03  0.57238407342E+03  0.74439705537E+03  0.14428318991E+04  0.94837791764E+03 0.  0.
         23    2    4    4    0    0 -0.76556838604E+03  0.34667414212E+03  0.73150900636E+03  0.11171770426E+04  0.81860880126E+02 0.  0.
         23    2    4    4    0    0  0.21730502693E+03  0.22570993130E+03  0.12888049006E+02  0.32565485650E+03  0.87855198671E+02 0.  0.
          4    1    3    3  502    0  0.54318585278E+03 -0.56849138857E+03 -0.78067217447E+03  0.11080082913E+04  0.00000000000E+00 0. -1.
         -4    1    3    3    0  502  0.50775063314E+01 -0.38926848546E+01 -0.21689212410E+02  0.22613182016E+02  0.00000000000E+00 0.  1.
         13    1    5    5    0    0 -0.69614160058E+03  0.32118362061E+03  0.69458120675E+03  0.10345120101E+04  0.00000000000E+00 0. -1.
        -13    1    5    5    0    0 -0.69426785457E+02  0.25490521503E+02  0.36927799619E+02  0.82665032572E+02  0.00000000000E+00 0.  1.
          1    1    6    6  503    0  0.12553212689E+03  0.16635620050E+03 -0.25180675622E+02  0.20992085830E+03  0.00000000000E+00 0. -1.
         -1    1    6    6    0  503  0.91772900046E+02  0.59353730801E+02  0.38068724628E+02  0.11573399819E+03  0.00000000000E+00 0.  1.
<mgrwt>
<rscale>  0 0.25728005E+04</rscale>
<asrwt>0</asrwt>
<pdfrwt beam="1">  1        1 0.20241675E+00 0.25728005E+04</pdfrwt>
<pdfrwt beam="2">  1       -1 0.19349916E+00 0.25728005E+04</pdfrwt>
<totfact> 0.12996247E+00</totfact>
</mgrwt>
</event>
<event>
12    3  0.4806716E-008  0.1610526E+04  0.7818608E-02  0.8814108E-01
          2   -1    0    0  501    0  0.00000000000E+00  0.00000000000E+00  0.19436820455E+04  0.19436820455E+04  0.00000000000E+00 0. -1.
         -2   -1    0    0    0  501 -0.00000000000E+00 -0.00000000000E+00 -0.33361849221E+03  0.33361849221E+03  0.00000000000E+00 0.  1.
         23    2    1    2    0    0 -0.24923858091E+03  0.98173366735E+02  0.12295976703E+04  0.12619319788E+04  0.93829676541E+02 0.  0.
        254    2    1    2    0    0  0.24923858091E+03 -0.98173366735E+02  0.38046588302E+03  0.10153685589E+04  0.90247500917E+03 0.  0.
         23    2    4    4    0    0  0.49901866194E+03  0.16760151569E+03  0.92108105129E+02  0.54188189205E+03  0.89678251972E+02 0.  0.
         23    2    4    4    0    0 -0.24978008103E+03 -0.26577488242E+03  0.28835777789E+03  0.47348666688E+03  0.89515577596E+02 0.  0.
          2    1    3    3  502    0 -0.15407781864E+03  0.84594406760E+02  0.60628531140E+03  0.63125119142E+03  0.00000000000E+00 0. -1.
         -2    1    3    3    0  502 -0.95160762270E+02  0.13578959975E+02  0.62331235892E+03  0.63068078742E+03  0.00000000000E+00 0.  1.
         13    1    5    5    0    0  0.75952024615E+02  0.49837455678E+02  0.41335758186E+02  0.99805445424E+02  0.00000000000E+00 0. -1.
        -13    1    5    5    0    0  0.42306663733E+03  0.11776406001E+03  0.50772346943E+02  0.44207644663E+03  0.00000000000E+00 0.  1.
          4    1    6    6  503    0 -0.51987905237E+02 -0.89857326070E+02  0.42358008526E+02  0.11212172950E+03  0.00000000000E+00 0. -1.
         -4    1    6    6    0  503 -0.19779217580E+03 -0.17591755635E+03  0.24599976936E+03  0.36136493738E+03  0.00000000000E+00 0.  1.
<mgrwt>
<rscale>  0 0.16105257E+04</rscale>
<asrwt>0</asrwt>
<pdfrwt beam="1">  1        2 0.29902800E+00 0.16105257E+04</pdfrwt>
<pdfrwt beam="2">  1       -2 0.51325923E-01 0.16105257E+04</pdfrwt>
<totfact> 0.24680780E+01</totfact>
</mgrwt>
</event>
<event>
12    3  0.4806716E-008  0.1594611E+04  0.7818608E-02  0.8823866E-01
          2   -1    0    0  501    0  0.00000000000E+00  0.00000000000E+00  0.26651613723E+04  0.26651613723E+04  0.00000000000E+00 0. -1.
         -2   -1    0    0    0  501 -0.00000000000E+00 -0.00000000000E+00 -0.23852063845E+03  0.23852063845E+03  0.00000000000E+00 0.  1.
         23    2    1    2    0    0 -0.18933658373E+03 -0.50546675037E+03  0.88423158514E+03  0.10402045393E+04  0.93888283828E+02 0.  0.
        254    2    1    2    0    0  0.18933658373E+03  0.50546675037E+03  0.15424091487E+04  0.18634774714E+04  0.89564352662E+03 0.  0.
         23    2    4    4    0    0 -0.24316432063E+03 -0.98370614091E+02  0.28268251652E+03  0.39827273846E+03  0.99529415274E+02 0.  0.
         23    2    4    4    0    0  0.43250090437E+03  0.60383736446E+03  0.12597266322E+04  0.14652047330E+04  0.90758617428E+02 0.  0.
          4    1    3    3  502    0 -0.49880015627E+02 -0.14103840155E+03  0.33071860116E+03  0.36298021960E+03  0.00000000000E+00 0. -1.
         -4    1    3    3    0  502 -0.13945656810E+03 -0.36442834882E+03  0.55351298398E+03  0.67722431974E+03  0.00000000000E+00 0.  1.
         13    1    5    5    0    0 -0.84061867553E+02 -0.30090001265E+02  0.34613024141E+02  0.95759423520E+02  0.00000000000E+00 0.  1.
        -13    1    5    5    0    0 -0.15910245308E+03 -0.68280612826E+02  0.24806949238E+03  0.30251331494E+03  0.00000000000E+00 0. -1.
          1    1    6    6  503    0  0.39234477004E+03  0.57559285599E+03  0.12035186295E+04  0.13905749337E+04  0.00000000000E+00 0. -1.
         -1    1    6    6    0  503  0.40156134328E+02  0.28244508468E+02  0.56208002646E+02  0.74629799304E+02  0.00000000000E+00 0.  1.
<mgrwt>
<rscale>  0 0.15946109E+04</rscale>
<asrwt>0</asrwt>
<pdfrwt beam="1">  1        2 0.41002481E+00 0.15946109E+04</pdfrwt>
<pdfrwt beam="2">  1       -2 0.36695485E-01 0.15946109E+04</pdfrwt>
<totfact> 0.18749874E+01</totfact>
</mgrwt>
</event>
<event>
12    3  0.4806716E-008  0.1265374E+04  0.7818608E-02  0.9057484E-01
         -2   -1    0    0    0  501 -0.00000000000E+00  0.00000000000E+00  0.48003299731E+03  0.48003299731E+03  0.00000000000E+00 0.  1.
          2   -1    0    0  501    0  0.00000000000E+00 -0.00000000000E+00 -0.83388643506E+03  0.83388643506E+03  0.00000000000E+00 0. -1.
         23    2    1    2    0    0 -0.23905985720E+03 -0.37911188953E+01  0.10214970125E+03  0.27555609001E+03  0.91283127525E+02 0.  0.
        254    2    1    2    0    0  0.23905985720E+03  0.37911188953E+01 -0.45600313900E+03  0.10383633424E+04  0.90171812672E+03 0.  0.
         23    2    4    4    0    0  0.52458879798E+03  0.20472812105E+03 -0.24819109828E+03  0.62211153054E+03  0.91197174564E+02 0.  0.
         23    2    4    4    0    0 -0.28552894078E+03 -0.20093700216E+03 -0.20781204072E+03  0.41625181181E+03  0.90428268293E+02 0.  0.
          4    1    3    3  502    0 -0.21209209838E+03 -0.12506299152E+02  0.53241827998E+02  0.21903003895E+03  0.00000000000E+00 0. -1.
         -4    1    3    3    0  502 -0.26967758821E+02  0.87151802562E+01  0.48907873255E+02  0.56526051065E+02  0.00000000000E+00 0.  1.
         13    1    5    5    0    0  0.21223924035E+03  0.12659420513E+03 -0.12912422190E+03  0.27882728094E+03  0.00000000000E+00 0.  1.
        -13    1    5    5    0    0  0.31234955763E+03  0.78133915920E+02 -0.11906687638E+03  0.34328424960E+03  0.00000000000E+00 0. -1.
          3    1    6    6  503    0 -0.14445867338E+03 -0.71059259147E+02 -0.13846530598E+03  0.21234492596E+03  0.00000000000E+00 0. -1.
         -3    1    6    6    0  503 -0.14107026741E+03 -0.12987774301E+03 -0.69346734750E+02  0.20390688585E+03  0.00000000000E+00 0.  1.
<mgrwt>
<rscale>  0 0.12653743E+04</rscale>
<asrwt>0</asrwt>
<pdfrwt beam="1">  1        2 0.12829022E+00 0.12653743E+04</pdfrwt>
<pdfrwt beam="2">  1       -2 0.73851230E-01 0.12653743E+04</pdfrwt>
<totfact> 0.52908167E+01</totfact>
</mgrwt>
</event>
<event>
12    3  0.4806716E-008  0.1314669E+04  0.7818608E-02  0.9018013E-01
         -1   -1    0    0    0  501 -0.00000000000E+00  0.00000000000E+00  0.11856096685E+04  0.11856096685E+04  0.00000000000E+00 0.  1.
          1   -1    0    0  501    0  0.00000000000E+00 -0.00000000000E+00 -0.36444424950E+03  0.36444424950E+03  0.00000000000E+00 0. -1.
         23    2    1    2    0    0 -0.71038537679E+02  0.21051466368E+03 -0.80680032844E+02  0.25312894140E+03  0.90565422832E+02 0.  0.
        254    2    1    2    0    0  0.71038537679E+02 -0.21051466368E+03  0.90184545185E+03  0.12969249766E+04  0.90516643688E+03 0.  0.
         23    2    4    4    0    0  0.16402085137E+03  0.54962786134E+02 -0.12240881001E+03  0.23091268378E+03  0.91722424828E+02 0.  0.
         23    2    4    4    0    0 -0.92982313695E+02 -0.26547744981E+03  0.10242542619E+04  0.10660122928E+04  0.90340624900E+02 0.  0.
          4    1    3    3  502    0 -0.25263505227E+02  0.16809412059E+03 -0.85990301160E+02  0.19049464550E+03  0.00000000000E+00 0. -1.
         -4    1    3    3    0  502 -0.45775032452E+02  0.42420543093E+02  0.53102683158E+01  0.62634295892E+02  0.00000000000E+00 0.  1.
         13    1    5    5    0    0  0.17494890034E+03  0.44496525138E+02 -0.11046732099E+03  0.21163668748E+03  0.00000000000E+00 0.  1.
        -13    1    5    5    0    0 -0.10928048965E+02  0.10466260996E+02 -0.11941489015E+02  0.19275996299E+02  0.00000000000E+00 0. -1.
          4    1    6    6  503    0 -0.63038923566E+01 -0.15333490495E+03  0.51095133936E+03  0.53350033115E+03  0.00000000000E+00 0. -1.
         -4    1    6    6    0  503 -0.86678421339E+02 -0.11214254487E+03  0.51330292249E+03  0.53251196168E+03  0.00000000000E+00 0.  1.
<mgrwt>
<rscale>  0 0.13146690E+04</rscale>
<asrwt>0</asrwt>
<pdfrwt beam="1">  1        1 0.56068347E-01 0.13146690E+04</pdfrwt>
<pdfrwt beam="2">  1       -1 0.18240148E+00 0.13146690E+04</pdfrwt>
<totfact> 0.13327360E+01</totfact>
</mgrwt>
</event>
<event>
12    3  0.4806716E-008  0.2127543E+04  0.7818608E-02  0.8549207E-01
         -1   -1    0    0    0  501 -0.00000000000E+00  0.00000000000E+00  0.28318554863E+03  0.28318554863E+03  0.00000000000E+00 0.  1.
          1   -1    0    0  501    0  0.00000000000E+00 -0.00000000000E+00 -0.39960008222E+04  0.39960008222E+04  0.00000000000E+00 0. -1.
         23    2    1    2    0    0 -0.30470807755E+03  0.72510748005E+03 -0.77477442239E+03  0.11077986583E+04  0.91184382430E+02 0.  0.
        254    2    1    2    0    0  0.30470807755E+03 -0.72510748005E+03 -0.29380408512E+04  0.31713877125E+04  0.89832516935E+03 0.  0.
         23    2    4    4    0    0  0.58860781937E+03 -0.65991850819E+03 -0.21717641512E+04  0.23466753512E+04  0.91509959984E+02 0.  0.
         23    2    4    4    0    0 -0.28389974182E+03 -0.65188971857E+02 -0.76627669995E+03  0.82471236136E+03  0.90121210812E+02 0.  0.
          2    1    3    3  502    0 -0.80195982085E+02  0.13201816741E+03 -0.11425337309E+03  0.19213023013E+03  0.00000000000E+00 0. -1.
         -2    1    3    3    0  502 -0.22451209547E+03  0.59308931264E+03 -0.66052104930E+03  0.91566842817E+03  0.00000000000E+00 0.  1.
         13    1    5    5    0    0  0.53286978080E+03 -0.62573388934E+03 -0.20465743580E+04  0.22054386653E+04  0.00000000000E+00 0.  1.
        -13    1    5    5    0    0  0.55738038571E+02 -0.34184618851E+02 -0.12518979323E+03  0.14123668588E+03  0.00000000000E+00 0. -1.
          3    1    6    6  503    0 -0.58961112945E+02 -0.53408177482E+02 -0.20984733668E+03  0.22442092365E+03  0.00000000000E+00 0. -1.
         -3    1    6    6    0  503 -0.22493862887E+03 -0.11780794374E+02 -0.55642936327E+03  0.60029143771E+03  0.00000000000E+00 0.  1.
<mgrwt>
<rscale>  0 0.21275429E+04</rscale>
<asrwt>0</asrwt>
<pdfrwt beam="1">  1        1 0.61476938E+00 0.21275429E+04</pdfrwt>
<pdfrwt beam="2">  1       -1 0.43567006E-01 0.21275429E+04</pdfrwt>
<totfact> 0.46469186E-01</totfact>
</mgrwt>
</event>
<event>
12    3  0.4806716E-008  0.2273350E+04  0.7818608E-02  0.8488504E-01
         -2   -1    0    0    0  501 -0.00000000000E+00  0.00000000000E+00  0.35335041289E+03  0.35335041289E+03  0.00000000000E+00 0.  1.
          2   -1    0    0  501    0  0.00000000000E+00 -0.00000000000E+00 -0.36565116746E+04  0.36565116746E+04  0.00000000000E+00 0. -1.
         23    2    1    2    0    0  0.29589282519E+03 -0.49192374295E+03 -0.26968515546E+04  0.27587855131E+04  0.91365567897E+02 0.  0.
        254    2    1    2    0    0 -0.29589282519E+03  0.49192374295E+03 -0.60630970706E+03  0.12510765743E+04  0.93168642851E+03 0.  0.
         23    2    4    4    0    0 -0.37345351620E+03 -0.13340013294E+03 -0.42651289920E+03  0.58972488237E+03  0.92731113834E+02 0.  0.
         23    2    4    4    0    0  0.77560691010E+02  0.62532387590E+03 -0.17979680786E+03  0.66135169195E+03  0.89518477283E+02 0.  0.
          2    1    3    3  502    0  0.30263218923E+03 -0.48453001274E+03 -0.26493371423E+04  0.27102293018E+04  0.00000000000E+00 0. -1.
         -2    1    3    3    0  502 -0.67393640389E+01 -0.73937302119E+01 -0.47514412350E+02  0.48556211292E+02  0.00000000000E+00 0.  1.
         13    1    5    5    0    0 -0.24821279885E+03 -0.48164669202E+02 -0.23177608051E+03  0.34300084602E+03  0.00000000000E+00 0. -1.
        -13    1    5    5    0    0 -0.12524071735E+03 -0.85235463742E+02 -0.19473681868E+03  0.24672403635E+03  0.00000000000E+00 0.  1.
          2    1    6    6  503    0  0.84823261045E+02  0.62285276504E+03 -0.17925482991E+03  0.65366110989E+03  0.00000000000E+00 0. -1.
         -2    1    6    6    0  503 -0.72625700346E+01  0.24711108530E+01 -0.54197794994E+00  0.76905820621E+01  0.00000000000E+00 0.  1.
<mgrwt>
<rscale>  0 0.22733499E+04</rscale>
<asrwt>0</asrwt>
<pdfrwt beam="1">  1        2 0.56254022E+00 0.22733499E+04</pdfrwt>
<pdfrwt beam="2">  1       -2 0.54361605E-01 0.22733499E+04</pdfrwt>
<totfact> 0.18251873E+00</totfact>
</mgrwt>
</event>
<event>
12    3  0.4806716E-008  0.1444930E+04  0.7818608E-02  0.8921923E-01
         -1   -1    0    0    0  501 -0.00000000000E+00  0.00000000000E+00  0.80598731160E+03  0.80598731160E+03  0.00000000000E+00 0.  1.
          1   -1    0    0  501    0  0.00000000000E+00 -0.00000000000E+00 -0.64759756712E+03  0.64759756712E+03  0.00000000000E+00 0. -1.
         23    2    1    2    0    0 -0.28542005171E+02 -0.43435251621E+03  0.15807671839E+02  0.44496662382E+03  0.90932169387E+02 0.  0.
        254    2    1    2    0    0  0.28542005171E+02  0.43435251621E+03  0.14258207263E+03  0.10086182549E+04  0.89861247615E+03 0.  0.
         23    2    4    4    0    0  0.39992461962E+03  0.34717853858E+02 -0.70557827597E+02  0.41641746170E+03  0.85323294694E+02 0.  0.
         23    2    4    4    0    0 -0.37138261445E+03  0.39963466235E+03  0.21313990023E+03  0.59220079321E+03  0.87408539304E+02 0.  0.
          1    1    3    3  502    0 -0.56803357806E+02 -0.34969625527E+03 -0.27696009177E+00  0.35427978931E+03  0.00000000000E+00 0. -1.
         -1    1    3    3    0  502  0.28261352635E+02 -0.84656260939E+02  0.16084631931E+02  0.90686834509E+02  0.00000000000E+00 0.  1.
         13    1    5    5    0    0  0.17863483679E+03 -0.25227645206E+02 -0.43355585636E+02  0.18554391880E+03  0.00000000000E+00 0.  1.
        -13    1    5    5    0    0  0.22128978283E+03  0.59945499064E+02 -0.27202241960E+02  0.23087354290E+03  0.00000000000E+00 0. -1.
          1    1    6    6  503    0 -0.20504182081E+01 -0.42843276546E+01  0.42547924667E+01  0.63767497375E+01  0.00000000000E+00 0. -1.
         -1    1    6    6    0  503 -0.36933219624E+03  0.40391899000E+03  0.20888510776E+03  0.58582404347E+03  0.00000000000E+00 0.  1.
<mgrwt>
<rscale>  0 0.14449296E+04</rscale>
<asrwt>0</asrwt>
<pdfrwt beam="1">  1        1 0.99630395E-01 0.14449296E+04</pdfrwt>
<pdfrwt beam="2">  1       -1 0.12399805E+00 0.14449296E+04</pdfrwt>
<totfact> 0.16994102E+01</totfact>
</mgrwt>
</event>
<event>
12    3  0.4806716E-008  0.1224114E+04  0.7818608E-02  0.9092007E-01
          1   -1    0    0  501    0  0.00000000000E+00  0.00000000000E+00  0.50943194191E+03  0.50943194191E+03  0.00000000000E+00 0. -1.
         -1   -1    0    0    0  501 -0.00000000000E+00 -0.00000000000E+00 -0.73535618208E+03  0.73535618208E+03  0.00000000000E+00 0.  1.
         23    2    1    2    0    0  0.81724548287E+01  0.14862414561E+03 -0.27803050711E+03  0.32778398057E+03  0.89361341520E+02 0.  0.
        254    2    1    2    0    0 -0.81724548287E+01 -0.14862414561E+03  0.52106266941E+02  0.91700414342E+03  0.90334135869E+03 0.  0.
         23    2    4    4    0    0 -0.16329601784E+03 -0.48695085071E+03 -0.37938255462E+02  0.52232722478E+03  0.87176247156E+02 0.  0.
         23    2    4    4    0    0  0.15512356301E+03  0.33832670511E+03  0.90044522403E+02  0.39467691864E+03  0.95569738429E+02 0.  0.
          1    1    3    3  502    0  0.46821547988E+02  0.55116775227E+02 -0.12175711455E+03  0.14161536361E+03  0.00000000000E+00 0. -1.
         -1    1    3    3    0  502 -0.38649093159E+02  0.93507370379E+02 -0.15627339256E+03  0.18616861696E+03  0.00000000000E+00 0.  1.
         13    1    5    5    0    0 -0.49838038027E+02 -0.10993936751E+03 -0.44248983448E+02  0.12856308607E+03  0.00000000000E+00 0. -1.
        -13    1    5    5    0    0 -0.11345797981E+03 -0.37701148320E+03  0.63107279864E+01  0.39376413871E+03  0.00000000000E+00 0.  1.
          2    1    6    6  503    0 -0.52118225858E+01  0.21079957451E+02 -0.12063348676E+02  0.24840533048E+02  0.00000000000E+00 0. -1.
         -2    1    6    6    0  503  0.16033538559E+03  0.31724674765E+03  0.10210787108E+03  0.36983638559E+03  0.00000000000E+00 0.  1.
<mgrwt>
<rscale>  0 0.12241143E+04</rscale>
<asrwt>0</asrwt>
<pdfrwt beam="1">  1        1 0.78374145E-01 0.12241143E+04</pdfrwt>
<pdfrwt beam="2">  1       -1 0.11313172E+00 0.12241143E+04</pdfrwt>
<totfact> 0.30476294E+01</totfact>
</mgrwt>
</event>
<event>
12    3  0.4806716E-008  0.1328233E+04  0.7818608E-02  0.9007471E-01
          2   -1    0    0  501    0  0.00000000000E+00  0.00000000000E+00  0.44787969433E+03  0.44787969433E+03  0.00000000000E+00 0. -1.
         -2   -1    0    0    0  501 -0.00000000000E+00 -0.00000000000E+00 -0.98475217040E+03  0.98475217040E+03  0.00000000000E+00 0.  1.
         23    2    1    2    0    0 -0.32023687531E+03  0.12578338923E+03 -0.77483986588E+02  0.36439423302E+03  0.91685721747E+02 0.  0.
        254    2    1    2    0    0  0.32023687531E+03 -0.12578338923E+03 -0.45938848949E+03  0.10682376317E+04  0.90095545739E+03 0.  0.
         23    2    4    4    0    0  0.37886025027E+03 -0.16234986735E+03 -0.68925793745E+03  0.80826089669E+03  0.91195417208E+02 0.  0.
         23    2    4    4    0    0 -0.58623374964E+02  0.36566478122E+02  0.22986944796E+03  0.25997673501E+03  0.99870577374E+02 0.  0.
          1    1    3    3  502    0 -0.36460357700E+02 -0.11817706552E+01  0.15889830664E+02  0.39789960845E+02  0.00000000000E+00 0. -1.
         -1    1    3    3    0  502 -0.28377651761E+03  0.12696515988E+03 -0.93373817252E+02  0.32460427218E+03  0.00000000000E+00 0.  1.
         13    1    5    5    0    0  0.23726454258E+03 -0.54194999745E+02 -0.37656071025E+03  0.44836316716E+03  0.00000000000E+00 0. -1.
        -13    1    5    5    0    0  0.14159570769E+03 -0.10815486760E+03 -0.31269722720E+03  0.35989772953E+03  0.00000000000E+00 0.  1.
          2    1    6    6  503    0 -0.70624546774E+02 -0.11683095232E+02  0.14167689642E+03  0.15873457185E+03  0.00000000000E+00 0. -1.
         -2    1    6    6    0  503  0.12001171809E+02  0.48249573354E+02  0.88192551547E+02  0.10124216316E+03  0.00000000000E+00 0.  1.
<mgrwt>
<rscale>  0 0.13282327E+04</rscale>
<asrwt>0</asrwt>
<pdfrwt beam="1">  1        2 0.68904569E-01 0.13282327E+04</pdfrwt>
<pdfrwt beam="2">  1       -2 0.15150033E+00 0.13282327E+04</pdfrwt>
<totfact> 0.19940649E+01</totfact>
</mgrwt>
</event>
<event>
12    3  0.4806716E-008  0.1941170E+04  0.7818608E-02  0.8634630E-01
          1   -1    0    0  501    0  0.00000000000E+00  0.00000000000E+00  0.15822549114E+04  0.15822549114E+04  0.00000000000E+00 0. -1.
         -1   -1    0    0    0  501 -0.00000000000E+00 -0.00000000000E+00 -0.59537542801E+03  0.59537542801E+03  0.00000000000E+00 0.  1.
         23    2    1    2    0    0  0.35774179658E+03 -0.44348851598E+03  0.96202670408E+03  0.11228850987E+04  0.10350994470E+03 0.  0.
        254    2    1    2    0    0 -0.35774179658E+03  0.44348851598E+03  0.24852779306E+02  0.10547452407E+04  0.88724777000E+03 0.  0.
         23    2    4    4    0    0  0.20122187129E+03  0.92823842572E+02 -0.23878978237E+03  0.33766268045E+03  0.88820146190E+02 0.  0.
         23    2    4    4    0    0 -0.55896366787E+03  0.35066467341E+03  0.26364256167E+03  0.71708256028E+03  0.96404889655E+02 0.  0.
          2    1    3    3  502    0  0.21469854071E+03 -0.32837659347E+03  0.59868697562E+03  0.71578819863E+03  0.00000000000E+00 0.  1.
         -2    1    3    3    0  502  0.14304325587E+03 -0.11511192251E+03  0.36333972846E+03  0.40709690005E+03  0.00000000000E+00 0. -1.
         13    1    5    5    0    0  0.90859866104E+02  0.81130581458E+02 -0.16208806838E+03  0.20275657431E+03  0.00000000000E+00 0.  1.
        -13    1    5    5    0    0  0.11036200519E+03  0.11693261114E+02 -0.76701713994E+02  0.13490610614E+03  0.00000000000E+00 0. -1.
          1    1    6    6  503    0 -0.41195611176E+03  0.28184942307E+03  0.15858237241E+03  0.52373209195E+03  0.00000000000E+00 0. -1.
         -1    1    6    6    0  503 -0.14700755612E+03  0.68815250337E+02  0.10506018926E+03  0.19335046833E+03  0.00000000000E+00 0.  1.
<mgrwt>
<rscale>  0 0.19411705E+04</rscale>
<asrwt>0</asrwt>
<pdfrwt beam="1">  1        1 0.24342383E+00 0.19411705E+04</pdfrwt>
<pdfrwt beam="2">  1       -1 0.91596220E-01 0.19411705E+04</pdfrwt>
<totfact> 0.62160562E+00</totfact>
</mgrwt>
</event>
<event>
12    3  0.4806716E-008  0.2679351E+04  0.7818608E-02  0.8341736E-01
         -2   -1    0    0    0  501 -0.00000000000E+00  0.00000000000E+00  0.10089922189E+04  0.10089922189E+04  0.00000000000E+00 0.  1.
          2   -1    0    0  501    0  0.00000000000E+00 -0.00000000000E+00 -0.17787356661E+04  0.17787356661E+04  0.00000000000E+00 0. -1.
         23    2    1    2    0    0  0.24309565147E+02  0.86210578920E+03 -0.11876095713E+04  0.14704644745E+04  0.89621036136E+02 0.  0.
        254    2    1    2    0    0 -0.24309565147E+02 -0.86210578920E+03  0.41786612405E+03  0.13172634106E+04  0.90374412776E+03 0.  0.
         23    2    4    4    0    0 -0.19066841269E+03 -0.47982248974E+03  0.64711598963E+03  0.83254459349E+03  0.88245854620E+02 0.  0.
         23    2    4    4    0    0  0.16635884754E+03 -0.38228329946E+03 -0.22924986558E+03  0.48471881708E+03  0.92633922308E+02 0.  0.
          1    1    3    3  502    0  0.49009567793E+02  0.76048463255E+03 -0.10283831592E+04  0.12799651309E+04  0.00000000000E+00 0. -1.
         -1    1    3    3    0  502 -0.24700002646E+02  0.10162115666E+03 -0.15922641206E+03  0.19049934359E+03  0.00000000000E+00 0.  1.
         13    1    5    5    0    0 -0.16455367036E+03 -0.32814002941E+03  0.49381257746E+03  0.61530858192E+03  0.00000000000E+00 0. -1.
        -13    1    5    5    0    0 -0.26114742326E+02 -0.15168246033E+03  0.15330341217E+03  0.21723601157E+03  0.00000000000E+00 0.  1.
          1    1    6    6  503    0  0.17175424939E+03 -0.37570001370E+03 -0.20944013858E+03  0.46315785012E+03  0.00000000000E+00 0. -1.
         -1    1    6    6    0  503 -0.53954018546E+01 -0.65832857619E+01 -0.19809726995E+02  0.21560966960E+02  0.00000000000E+00 0.  1.
<mgrwt>
<rscale>  0 0.26793510E+04</rscale>
<asrwt>0</asrwt>
<pdfrwt beam="1">  1        2 0.27365164E+00 0.26793510E+04</pdfrwt>
<pdfrwt beam="2">  1       -2 0.15522957E+00 0.26793510E+04</pdfrwt>
<totfact> 0.21308662E+00</totfact>
</mgrwt>
</event>
<event>
12    3  0.4806716E-008  0.2140718E+04  0.7818608E-02  0.8543516E-01
         -2   -1    0    0    0  501 -0.00000000000E+00  0.00000000000E+00  0.79084397664E+03  0.79084397664E+03  0.00000000000E+00 0. -1.
          2   -1    0    0  501    0  0.00000000000E+00 -0.00000000000E+00 -0.14486661082E+04  0.14486661082E+04  0.00000000000E+00 0.  1.
         23    2    1    2    0    0 -0.22476017147E+03 -0.59539752509E+03  0.35773257995E+03  0.73611884655E+03  0.94249721147E+02 0.  0.
        254    2    1    2    0    0  0.22476017147E+03  0.59539752509E+03 -0.10155547115E+04  0.15033912383E+04  0.90764447648E+03 0.  0.
         23    2    4    4    0    0  0.54350077921E+03  0.18933613378E+03 -0.56405017779E+03  0.81055292587E+03  0.87190446813E+02 0.  0.
         23    2    4    4    0    0 -0.31874060775E+03  0.40606139131E+03 -0.45150453368E+03  0.69283831238E+03  0.98423343883E+02 0.  0.
          1    1    3    3  502    0 -0.18707407635E+03 -0.36803593803E+03  0.23315364887E+03  0.47413899408E+03  0.00000000000E+00 0. -1.
         -1    1    3    3    0  502 -0.37686095118E+02 -0.22736158706E+03  0.12457893108E+03  0.26197985248E+03  0.00000000000E+00 0.  1.
         13    1    5    5    0    0  0.47263457920E+03  0.13505016687E+03 -0.49593481175E+03  0.69826451330E+03  0.00000000000E+00 0. -1.
        -13    1    5    5    0    0  0.70866200014E+02  0.54285966909E+02 -0.68115366044E+02  0.11228841258E+03  0.00000000000E+00 0.  1.
          3    1    6    6  503    0 -0.25791056047E+03  0.35865648240E+03 -0.34089624152E+03  0.55799872496E+03  0.00000000000E+00 0. -1.
         -3    1    6    6    0  503 -0.60830047281E+02  0.47404908905E+02 -0.11060829216E+03  0.13483958742E+03  0.00000000000E+00 0.  1.
<mgrwt>
<rscale>  0 0.21407184E+04</rscale>
<asrwt>0</asrwt>
<pdfrwt beam="1">  1        2 0.22287171E+00 0.21407184E+04</pdfrwt>
<pdfrwt beam="2">  1       -2 0.12166830E+00 0.21407184E+04</pdfrwt>
<totfact> 0.63974305E+00</totfact>
</mgrwt>
</event>
<event>
12    3  0.4806716E-008  0.2158404E+04  0.7818608E-02  0.8535943E-01
         -2   -1    0    0    0  501 -0.00000000000E+00  0.00000000000E+00  0.58762938687E+03  0.58762938687E+03  0.00000000000E+00 0.  1.
          2   -1    0    0  501    0  0.00000000000E+00 -0.00000000000E+00 -0.19819929919E+04  0.19819929919E+04  0.00000000000E+00 0. -1.
         23    2    1    2    0    0  0.43325815322E+03  0.54075198775E+03 -0.12667601244E+04  0.14466204132E+04  0.88904823603E+02 0.  0.
        254    2    1    2    0    0 -0.43325815322E+03 -0.54075198775E+03 -0.12760348069E+03  0.11230019656E+04  0.87448580711E+03 0.  0.
         23    2    4    4    0    0 -0.50459837260E+02  0.22416712243E+03  0.26739377866E+02  0.24909230398E+03  0.92384455517E+02 0.  0.
         23    2    4    4    0    0 -0.38279831596E+03 -0.76491911017E+03 -0.15434285856E+03  0.87390966159E+03  0.90887748518E+02 0.  0.
          3    1    3    3  502    0  0.43158531853E+03  0.53308746458E+03 -0.12643527274E+04  0.14384143879E+04  0.00000000000E+00 0. -1.
         -3    1    3    3    0  502  0.16728346888E+01  0.76645231655E+01 -0.24073969794E+01  0.82060253148E+01  0.00000000000E+00 0.  1.
         13    1    5    5    0    0 -0.55683220876E+02  0.16406174122E+03 -0.17706854751E+02  0.17415627673E+03  0.00000000000E+00 0. -1.
        -13    1    5    5    0    0  0.52233836163E+01  0.60105381205E+02  0.44446232617E+02  0.74936027251E+02  0.00000000000E+00 0.  1.
          1    1    6    6  503    0 -0.25389295575E+03 -0.59384067908E+03 -0.10940798526E+03  0.65504083258E+03  0.00000000000E+00 0. -1.
         -1    1    6    6    0  503 -0.12890536020E+03 -0.17107843110E+03 -0.44934873297E+02  0.21886882901E+03  0.00000000000E+00 0.  1.
<mgrwt>
<rscale>  0 0.21584043E+04</rscale>
<asrwt>0</asrwt>
<pdfrwt beam="1">  1        2 0.30492199E+00 0.21584043E+04</pdfrwt>
<pdfrwt beam="2">  1       -2 0.90404522E-01 0.21584043E+04</pdfrwt>
<totfact> 0.65581576E+00</totfact>
</mgrwt>
</event>
<event>
12    3  0.4806716E-008  0.1422923E+04  0.7818608E-02  0.8937391E-01
         -2   -1    0    0    0  501 -0.00000000000E+00  0.00000000000E+00  0.56632775449E+03  0.56632775449E+03  0.00000000000E+00 0. -1.
          2   -1    0    0  501    0  0.00000000000E+00 -0.00000000000E+00 -0.89378851517E+03  0.89378851517E+03  0.00000000000E+00 0.  1.
         23    2    1    2    0    0 -0.27834573486E+03  0.36327383299E+02  0.22418677938E+03  0.37053607189E+03  0.90781284588E+02 0.  0.
        254    2    1    2    0    0  0.27834573486E+03 -0.36327383299E+02 -0.55164754005E+03  0.10895801978E+04  0.89670171854E+03 0.  0.
         23    2    4    4    0    0  0.49140937505E+03 -0.30225362672E+03 -0.29888854935E+03  0.65613279317E+03  0.91298677888E+02 0.  0.
         23    2    4    4    0    0 -0.21306364018E+03  0.26592624343E+03 -0.25275899070E+03  0.43344740460E+03  0.88750568832E+02 0.  0.
          4    1    3    3  502    0 -0.23867244249E+03  0.45627304972E+02  0.22293644547E+03  0.32976816778E+03  0.00000000000E+00 0. -1.
         -4    1    3    3    0  502 -0.39673292370E+02 -0.92999216728E+01  0.12503339099E+01  0.40767904109E+02  0.00000000000E+00 0.  1.
         13    1    5    5    0    0  0.29158521641E+03 -0.14164526117E+03 -0.20263444548E+03  0.38229051379E+03  0.00000000000E+00 0. -1.
        -13    1    5    5    0    0  0.19982415864E+03 -0.16060836556E+03 -0.96254103876E+02  0.27384227938E+03  0.00000000000E+00 0.  1.
          3    1    6    6  503    0 -0.17630773173E+03  0.19881549572E+03 -0.23536785141E+03  0.35497893329E+03  0.00000000000E+00 0. -1.
         -3    1    6    6    0  503 -0.36755908458E+02  0.67110747708E+02 -0.17391139292E+02  0.78468471314E+02  0.00000000000E+00 0.  1.
<mgrwt>
<rscale>  0 0.14229227E+04</rscale>
<asrwt>0</asrwt>
<pdfrwt beam="1">  1        2 0.13750592E+00 0.14229227E+04</pdfrwt>
<pdfrwt beam="2">  1       -2 0.87127347E-01 0.14229227E+04</pdfrwt>
<totfact> 0.32770316E+01</totfact>
</mgrwt>
</event>
<event>
12    3  0.4806716E-008  0.2653402E+04  0.7818608E-02  0.8350285E-01
          1   -1    0    0  501    0  0.00000000000E+00  0.00000000000E+00  0.32031451157E+04  0.32031451157E+04  0.00000000000E+00 0. -1.
         -1   -1    0    0    0  501 -0.00000000000E+00 -0.00000000000E+00 -0.54950209652E+03  0.54950209652E+03  0.00000000000E+00 0.  1.
         23    2    1    2    0    0  0.50125423797E+03  0.34215420423E+03  0.25335740160E+04  0.26068461323E+04  0.91236793260E+02 0.  0.
        254    2    1    2    0    0 -0.50125423797E+03 -0.34215420423E+03  0.12006900322E+03  0.11458010800E+04  0.96442637808E+03 0.  0.
         23    2    4    4    0    0 -0.56820159708E+03 -0.60412120876E+03  0.18008189627E+03  0.85420074366E+03  0.97025415804E+02 0.  0.
         23    2    4    4    0    0  0.66947359115E+02  0.26196700453E+03 -0.60012893056E+02  0.29160033629E+03  0.91217040283E+02 0.  0.
          2    1    3    3  502    0  0.37930797744E+03  0.30336247798E+03  0.19914186827E+04  0.20497930882E+04  0.00000000000E+00 0. -1.
         -2    1    3    3    0  502  0.12194626053E+03  0.38791726252E+02  0.54215533332E+03  0.55705304409E+03  0.00000000000E+00 0.  1.
         13    1    5    5    0    0 -0.46840804802E+03 -0.50290826660E+03  0.11099312696E+03  0.69616255163E+03  0.00000000000E+00 0. -1.
        -13    1    5    5    0    0 -0.99793549062E+02 -0.10121294216E+03  0.69088769316E+02  0.15803819203E+03  0.00000000000E+00 0.  1.
          4    1    6    6  503    0  0.18611207955E+02  0.21027495794E+03 -0.24785521985E+02  0.21254707031E+03  0.00000000000E+00 0. -1.
         -4    1    6    6    0  503  0.48336151159E+02  0.51692046589E+02 -0.35227371071E+02  0.79053265980E+02  0.00000000000E+00 0.  1.
<mgrwt>
<rscale>  0 0.26534016E+04</rscale>
<asrwt>0</asrwt>
<pdfrwt beam="1">  1        1 0.49279154E+00 0.26534016E+04</pdfrwt>
<pdfrwt beam="2">  1       -1 0.84538787E-01 0.26534016E+04</pdfrwt>
<totfact> 0.51334225E-01</totfact>
</mgrwt>
</event>
<event>
12    3  0.4806716E-008  0.2498210E+04  0.7818608E-02  0.8403624E-01
          2   -1    0    0  501    0  0.00000000000E+00  0.00000000000E+00  0.10453339732E+04  0.10453339732E+04  0.00000000000E+00 0. -1.
         -2   -1    0    0    0  501 -0.00000000000E+00 -0.00000000000E+00 -0.14925973428E+04  0.14925973428E+04  0.00000000000E+00 0.  1.
         23    2    1    2    0    0  0.68009993908E+03 -0.37031238114E+03  0.57717976689E+03  0.96993602565E+03  0.89287310337E+02 0.  0.
        254    2    1    2    0    0 -0.68009993908E+03  0.37031238114E+03 -0.10244431365E+04  0.15679952904E+04  0.89969900743E+03 0.  0.
         23    2    4    4    0    0 -0.57061876389E+03  0.61728440699E+03 -0.53165513413E+03  0.99872552131E+03  0.90275536332E+02 0.  0.
         23    2    4    4    0    0 -0.10948117519E+03 -0.24697202585E+03 -0.49278800234E+03  0.56926976905E+03  0.90811593008E+02 0.  0.
          1    1    3    3  502    0  0.64254730851E+03 -0.34450501608E+03  0.56608263193E+03  0.92303862105E+03  0.00000000000E+00 0. -1.
         -1    1    3    3    0  502  0.37552630574E+02 -0.25807365053E+02  0.11097134960E+02  0.46897404601E+02  0.00000000000E+00 0.  1.
         13    1    5    5    0    0 -0.47251252606E+03  0.45972543903E+03 -0.39912041342E+03  0.77065729802E+03  0.00000000000E+00 0.  1.
        -13    1    5    5    0    0 -0.98106237835E+02  0.15755896795E+03 -0.13253472071E+03  0.22806822330E+03  0.00000000000E+00 0. -1.
          1    1    6    6  503    0 -0.11825789750E+03 -0.19601291408E+03 -0.43614753117E+03  0.49257553914E+03  0.00000000000E+00 0.  1.
         -1    1    6    6    0  503  0.87767223141E+01 -0.50959111774E+02 -0.56640471170E+02  0.76694229912E+02  0.00000000000E+00 0. -1.
<mgrwt>
<rscale>  0 0.24982095E+04</rscale>
<asrwt>0</asrwt>
<pdfrwt beam="1">  1        2 0.16082061E+00 0.24982095E+04</pdfrwt>
<pdfrwt beam="2">  1       -2 0.22963036E+00 0.24982095E+04</pdfrwt>
<totfact> 0.18067557E+00</totfact>
</mgrwt>
</event>
<event>
12    3  0.4806716E-008  0.2988478E+04  0.7818608E-02  0.8247029E-01
          1   -1    0    0  501    0  0.00000000000E+00  0.00000000000E+00  0.26628184161E+04  0.26628184161E+04  0.00000000000E+00 0. -1.
         -1   -1    0    0    0  501 -0.00000000000E+00 -0.00000000000E+00 -0.83849142532E+03  0.83849142532E+03  0.00000000000E+00 0.  1.
         23    2    1    2    0    0  0.38409813439E+03  0.92814661332E+02  0.23482249651E+04  0.23829098523E+04  0.89179252228E+02 0.  0.
        254    2    1    2    0    0 -0.38409813439E+03 -0.92814661332E+02 -0.52389797429E+03  0.11183999892E+04  0.90565087653E+03 0.  0.
         23    2    4    4    0    0 -0.13319773082E+03 -0.33219085556E+03 -0.64171079814E+03  0.74035126306E+03  0.90746042616E+02 0.  0.
         23    2    4    4    0    0 -0.25090040357E+03  0.23937619423E+03  0.11781282385E+03  0.37804872614E+03  0.93749682637E+02 0.  0.
          2    1    3    3  502    0  0.17005530885E+03  0.58846771683E+02  0.13104173902E+04  0.13227151950E+04  0.00000000000E+00 0. -1.
         -2    1    3    3    0  502  0.21404282554E+03  0.33967889650E+02  0.10378075749E+04  0.10601946573E+04  0.00000000000E+00 0.  1.
         13    1    5    5    0    0 -0.14171892790E+03 -0.32631254180E+03 -0.63543431836E+03  0.72824508403E+03  0.00000000000E+00 0.  1.
        -13    1    5    5    0    0  0.85211970788E+01 -0.58783137592E+01 -0.62764797804E+01  0.12106179031E+02  0.00000000000E+00 0. -1.
          4    1    6    6  503    0 -0.46532732440E+02  0.75050840870E+01  0.33017938231E+02  0.57548290335E+02  0.00000000000E+00 0. -1.
         -4    1    6    6    0  503 -0.20436767113E+03  0.23187111014E+03  0.84794885619E+02  0.32050043580E+03  0.00000000000E+00 0.  1.
<mgrwt>
<rscale>  0 0.29884781E+04</rscale>
<asrwt>0</asrwt>
<pdfrwt beam="1">  1        1 0.40966437E+00 0.29884781E+04</pdfrwt>
<pdfrwt beam="2">  1       -1 0.12899868E+00 0.29884781E+04</pdfrwt>
<totfact> 0.45901323E-01</totfact>
</mgrwt>
</event>
<event>
12    3  0.4806716E-008  0.3949854E+04  0.7818608E-02  0.8014740E-01
         -1   -1    0    0    0  501 -0.00000000000E+00  0.00000000000E+00  0.22433651265E+04  0.22433651265E+04  0.00000000000E+00 0.  1.
          1   -1    0    0  501    0  0.00000000000E+00 -0.00000000000E+00 -0.17386098307E+04  0.17386098307E+04  0.00000000000E+00 0. -1.
         23    2    1    2    0    0 -0.87413703795E+03 -0.21111997115E+03  0.18854891741E+04  0.20909920975E+04  0.92148373904E+02 0.  0.
        254    2    1    2    0    0  0.87413703795E+03  0.21111997115E+03 -0.13807338782E+04  0.18909828597E+04  0.92774076663E+03 0.  0.
         23    2    4    4    0    0  0.70521726095E+03  0.50024766442E+03 -0.66237135521E+03  0.10931593601E+04  0.93179737662E+02 0.  0.
         23    2    4    4    0    0  0.16891977701E+03 -0.28912769328E+03 -0.71836252300E+03  0.79782349962E+03  0.91372359164E+02 0.  0.
          1    1    3    3  502    0 -0.18463576583E+03 -0.79918454530E+02  0.38193382415E+03  0.43168364739E+03  0.00000000000E+00 0. -1.
         -1    1    3    3    0  502 -0.68950127213E+03 -0.13120151662E+03  0.15035553499E+04  0.16593084501E+04  0.00000000000E+00 0.  1.
         13    1    5    5    0    0  0.68420534897E+03  0.46164587971E+03 -0.62235713240E+03  0.10337225344E+04  0.00000000000E+00 0.  1.
        -13    1    5    5    0    0  0.21011911978E+02  0.38601784713E+02 -0.40014222814E+02  0.59436825751E+02  0.00000000000E+00 0. -1.
          1    1    6    6  503    0  0.59183727892E+02 -0.10089993467E+03 -0.15797256589E+03  0.19656765258E+03  0.00000000000E+00 0. -1.
         -1    1    6    6    0  503  0.10973604911E+03 -0.18822775860E+03 -0.56038995710E+03  0.60125584705E+03  0.00000000000E+00 0.  1.
<mgrwt>
<rscale>  0 0.39498540E+04</rscale>
<asrwt>0</asrwt>
<pdfrwt beam="1">  1        1 0.26747844E+00 0.39498540E+04</pdfrwt>
<pdfrwt beam="2">  1       -1 0.34513310E+00 0.39498540E+04</pdfrwt>
<totfact> 0.58970431E-02</totfact>
</mgrwt>
</event>
<event>
12    3  0.4806716E-008  0.1874856E+04  0.7818608E-02  0.8667474E-01
         -2   -1    0    0    0  501 -0.00000000000E+00  0.00000000000E+00  0.84126868396E+03  0.84126868396E+03  0.00000000000E+00 0.  1.
          2   -1    0    0  501    0  0.00000000000E+00 -0.00000000000E+00 -0.10445788296E+04  0.10445788296E+04  0.00000000000E+00 0. -1.
         23    2    1    2    0    0 -0.64833136250E+03 -0.20066733255E+03  0.16585902540E+03  0.70411986367E+03  0.87604977949E+02 0.  0.
        254    2    1    2    0    0  0.64833136250E+03  0.20066733255E+03 -0.36916917101E+03  0.11817276499E+04  0.89419988127E+03 0.  0.
         23    2    4    4    0    0  0.15715116767E+03  0.43543531986E+03  0.69173187760E+02  0.47690758601E+03  0.91408470110E+02 0.  0.
         23    2    4    4    0    0  0.49118019483E+03 -0.23476798731E+03 -0.43834235877E+03  0.70482006385E+03  0.90847714638E+02 0.  0.
          2    1    3    3  502    0 -0.44985774804E+03 -0.10488765786E+03  0.13732686093E+03  0.48190463888E+03  0.00000000000E+00 0.  1.
         -2    1    3    3    0  502 -0.19847361446E+03 -0.95779674687E+02  0.28532164465E+02  0.22221522480E+03  0.00000000000E+00 0. -1.
         13    1    5    5    0    0  0.12400585031E+03  0.35347035242E+03  0.91736358860E+02  0.38566086201E+03  0.00000000000E+00 0. -1.
        -13    1    5    5    0    0  0.33145317362E+02  0.81964967436E+02 -0.22563171100E+02  0.91246723995E+02  0.00000000000E+00 0.  1.
          1    1    6    6  503    0  0.89979263401E+02 -0.27874163102E+02 -0.11951072924E+03  0.15217112477E+03  0.00000000000E+00 0. -1.
         -1    1    6    6    0  503  0.40120093143E+03 -0.20689382421E+03 -0.31883162953E+03  0.55264893907E+03  0.00000000000E+00 0.  1.
<mgrwt>
<rscale>  0 0.18748562E+04</rscale>
<asrwt>0</asrwt>
<pdfrwt beam="1">  1        2 0.16070443E+00 0.18748562E+04</pdfrwt>
<pdfrwt beam="2">  1       -2 0.12942595E+00 0.18748562E+04</pdfrwt>
<totfact> 0.97247890E+00</totfact>
</mgrwt>
</event>
<event>
12    3  0.4806716E-008  0.1094655E+04  0.7818608E-02  0.9210417E-01
          2   -1    0    0  501    0  0.00000000000E+00  0.00000000000E+00  0.23567459287E+04  0.23567459287E+04  0.00000000000E+00 0. -1.
         -2   -1    0    0    0  501 -0.00000000000E+00 -0.00000000000E+00 -0.12711065965E+03  0.12711065965E+03  0.00000000000E+00 0.  1.
         23    2    1    2    0    0 -0.10733869703E+03 -0.10264041619E+03  0.21934425161E+03  0.27961278309E+03  0.89525174319E+02 0.  0.
        254    2    1    2    0    0  0.10733869703E+03  0.10264041619E+03  0.20102910175E+04  0.22042438053E+04  0.89183189408E+03 0.  0.
         23    2    4    4    0    0  0.12555889908E+03  0.20834563048E+03  0.20427950659E+04  0.20592541034E+04  0.91339158855E+02 0.  0.
         23    2    4    4    0    0 -0.18220202050E+02 -0.10570521429E+03 -0.32504048461E+02  0.14498970192E+03  0.91977890853E+02 0.  0.
          2    1    3    3  502    0 -0.75091304977E+02 -0.37146365151E+02  0.17546227812E+03  0.19443653867E+03  0.00000000000E+00 0. -1.
         -2    1    3    3    0  502 -0.32247392056E+02 -0.65494051039E+02  0.43881973486E+02  0.85176244417E+02  0.00000000000E+00 0.  1.
         13    1    5    5    0    0  0.22963012526E+02  0.39561540192E+02  0.75654566926E+03  0.75792728219E+03  0.00000000000E+00 0.  1.
        -13    1    5    5    0    0  0.10259588656E+03  0.16878409029E+03  0.12862493967E+04  0.13013268212E+04  0.00000000000E+00 0. -1.
          4    1    6    6  503    0 -0.36266582213E+02 -0.10769943261E+03 -0.72317227133E+01  0.11387155300E+03  0.00000000000E+00 0. -1.
         -4    1    6    6    0  503  0.18046380162E+02  0.19942183141E+01 -0.25272325748E+02  0.31118148923E+02  0.00000000000E+00 0.  1.
<mgrwt>
<rscale>  0 0.10946553E+04</rscale>
<asrwt>0</asrwt>
<pdfrwt beam="1">  1        2 0.36257626E+00 0.10946553E+04</pdfrwt>
<pdfrwt beam="2">  1       -2 0.19555488E-01 0.10946553E+04</pdfrwt>
<totfact> 0.93564318E+01</totfact>
</mgrwt>
</event>
<event>
12    3  0.4806716E-008  0.2129542E+04  0.7818608E-02  0.8548340E-01
         -2   -1    0    0    0  501 -0.00000000000E+00  0.00000000000E+00  0.13621796486E+04  0.13621796486E+04  0.00000000000E+00 0.  1.
          2   -1    0    0  501    0  0.00000000000E+00 -0.00000000000E+00 -0.83229633809E+03  0.83229633809E+03  0.00000000000E+00 0. -1.
         23    2    1    2    0    0 -0.24792404732E+03  0.64068566069E+03 -0.32256952489E+03  0.76462573399E+03  0.93042816184E+02 0.  0.
        254    2    1    2    0    0  0.24792404732E+03 -0.64068566069E+03  0.85245283539E+03  0.14298502527E+04  0.91970183184E+03 0.  0.
         23    2    4    4    0    0  0.56639357699E+03 -0.50598120736E+03  0.43342824786E+03  0.87917839748E+03  0.90972206184E+02 0.  0.
         23    2    4    4    0    0 -0.31846952967E+03 -0.13470445333E+03  0.41902458753E+03  0.55067185521E+03  0.89943071399E+02 0.  0.
          1    1    3    3  502    0 -0.22141049553E+03  0.46617064542E+03 -0.25472159283E+03  0.57551782599E+03  0.00000000000E+00 0. -1.
         -1    1    3    3    0  502 -0.26513551791E+02  0.17451501527E+03 -0.67847932060E+02  0.18910790800E+03  0.00000000000E+00 0.  1.
         13    1    5    5    0    0  0.18124558418E+03 -0.14453199531E+03  0.17911554855E+03  0.29295364682E+03  0.00000000000E+00 0.  1.
        -13    1    5    5    0    0  0.38514799281E+03 -0.36144921205E+03  0.25431269931E+03  0.58622475066E+03  0.00000000000E+00 0. -1.
          3    1    6    6  503    0 -0.17736787333E+03 -0.48384191131E+02  0.27805777574E+03  0.33334144521E+03  0.00000000000E+00 0. -1.
         -3    1    6    6    0  503 -0.14110165634E+03 -0.86320262198E+02  0.14096681178E+03  0.21733041000E+03  0.00000000000E+00 0.  1.
<mgrwt>
<rscale>  0 0.21295419E+04</rscale>
<asrwt>0</asrwt>
<pdfrwt beam="1">  1        2 0.12804559E+00 0.21295419E+04</pdfrwt>
<pdfrwt beam="2">  1       -2 0.20956610E+00 0.21295419E+04</pdfrwt>
<totfact> 0.34590588E+00</totfact>
</mgrwt>
</event>
<event>
12    3  0.4806716E-008  0.1547604E+04  0.7818608E-02  0.8853400E-01
          2   -1    0    0  501    0  0.00000000000E+00  0.00000000000E+00  0.28567806068E+04  0.28567806068E+04  0.00000000000E+00 0. -1.
         -2   -1    0    0    0  501 -0.00000000000E+00 -0.00000000000E+00 -0.20959589005E+03  0.20959589005E+03  0.00000000000E+00 0.  1.
         23    2    1    2    0    0 -0.23957051919E+03 -0.42264808083E+03  0.11252415032E+04  0.12291393043E+04  0.92679852105E+02 0.  0.
        254    2    1    2    0    0  0.23957051919E+03  0.42264808083E+03  0.15219432136E+04  0.18372371926E+04  0.90725074952E+03 0.  0.
         23    2    4    4    0    0  0.53155137064E+03  0.43259060994E+03  0.82888005495E+03  0.10797283604E+04  0.95339872583E+02 0.  0.
         23    2    4    4    0    0 -0.29198085146E+03 -0.99425291180E+01  0.69306315866E+03  0.75750883219E+03  0.90174372525E+02 0.  0.
          1    1    3    3  502    0 -0.10410280585E+03 -0.23032488170E+03  0.68215458234E+03  0.72747633606E+03  0.00000000000E+00 0. -1.
         -1    1    3    3    0  502 -0.13546771333E+03 -0.19232319912E+03  0.44308692084E+03  0.50166296824E+03  0.00000000000E+00 0.  1.
         13    1    5    5    0    0  0.51722245906E+03  0.40492827195E+03  0.81155372443E+03  0.10440811392E+04  0.00000000000E+00 0. -1.
        -13    1    5    5    0    0  0.14328911580E+02  0.27662337991E+02  0.17326330527E+02  0.35647221206E+02  0.00000000000E+00 0.  1.
          4    1    6    6  503    0 -0.15819833993E+03 -0.17577135047E+02  0.48104044420E+03  0.50669081242E+03  0.00000000000E+00 0. -1.
         -4    1    6    6    0  503 -0.13378251152E+03  0.76346059294E+01  0.21202271445E+03  0.25081801977E+03  0.00000000000E+00 0.  1.
<mgrwt>
<rscale>  0 0.15476039E+04</rscale>
<asrwt>0</asrwt>
<pdfrwt beam="1">  1        2 0.43950468E+00 0.15476039E+04</pdfrwt>
<pdfrwt beam="2">  1       -2 0.32245524E-01 0.15476039E+04</pdfrwt>
<totfact> 0.18505824E+01</totfact>
</mgrwt>
</event>
<event>
12    3  0.4806716E-008  0.1717565E+04  0.7818608E-02  0.8751409E-01
         -2   -1    0    0    0  501 -0.00000000000E+00  0.00000000000E+00  0.68389900148E+03  0.68389900148E+03  0.00000000000E+00 0.  1.
          2   -1    0    0  501    0  0.00000000000E+00 -0.00000000000E+00 -0.10783865739E+04  0.10783865739E+04  0.00000000000E+00 0. -1.
         23    2    1    2    0    0  0.23805793128E+03 -0.69058495562E+01 -0.75388451627E+03  0.79624989471E+03  0.94619033719E+02 0.  0.
        254    2    1    2    0    0 -0.23805793128E+03  0.69058495562E+01  0.35939694382E+03  0.96603568071E+03  0.86448800094E+03 0.  0.
         23    2    4    4    0    0 -0.78083943938E+02  0.27002068294E+03  0.52650797191E+03  0.60453841032E+03  0.96165344824E+02 0.  0.
         23    2    4    4    0    0 -0.15997398734E+03 -0.26311483339E+03 -0.16711102809E+03  0.36149727039E+03  0.89067887679E+02 0.  0.
          3    1    3    3  502    0  0.13517919605E+03  0.45753001055E+01 -0.56389305417E+03  0.57988768305E+03  0.00000000000E+00 0. -1.
         -3    1    3    3    0  502  0.10287873523E+03 -0.11481149662E+02 -0.18999146211E+03  0.21636221166E+03  0.00000000000E+00 0.  1.
         13    1    5    5    0    0 -0.86957481726E+02  0.27296169130E+03  0.51778512838E+03  0.59175258996E+03  0.00000000000E+00 0. -1.
        -13    1    5    5    0    0  0.88735377879E+01 -0.29410083603E+01  0.87228435283E+01  0.12785820360E+02  0.00000000000E+00 0.  1.
          2    1    6    6  503    0 -0.12310211534E+03 -0.23157390121E+03 -0.17057481109E+03  0.31285199169E+03  0.00000000000E+00 0. -1.
         -2    1    6    6    0  503 -0.36871872002E+02 -0.31540932174E+02  0.34637830006E+01  0.48645278702E+02  0.00000000000E+00 0.  1.
<mgrwt>
<rscale>  0 0.17175651E+04</rscale>
<asrwt>0</asrwt>
<pdfrwt beam="1">  1        2 0.16590563E+00 0.17175651E+04</pdfrwt>
<pdfrwt beam="2">  1       -2 0.10521523E+00 0.17175651E+04</pdfrwt>
<totfact> 0.15620621E+01</totfact>
</mgrwt>
</event>
<event>
12    3  0.4806716E-008  0.1475866E+04  0.7818608E-02  0.8900662E-01
          1   -1    0    0  501    0  0.00000000000E+00  0.00000000000E+00  0.84992117906E+03  0.84992117906E+03  0.00000000000E+00 0. -1.
         -1   -1    0    0    0  501 -0.00000000000E+00 -0.00000000000E+00 -0.64070040880E+03  0.64070040880E+03  0.00000000000E+00 0.  1.
         23    2    1    2    0    0 -0.18145691640E+03  0.17003591951E+03  0.44980443799E+03  0.52216795406E+03  0.92176533765E+02 0.  0.
        254    2    1    2    0    0  0.18145691640E+03 -0.17003591951E+03 -0.24058366773E+03  0.96845363380E+03  0.90453474958E+03 0.  0.
         23    2    4    4    0    0 -0.27682651817E+03 -0.14026999537E+03  0.15161736816E+03  0.35764418424E+03  0.92805945004E+02 0.  0.
         23    2    4    4    0    0  0.45828343457E+03 -0.29765924144E+02 -0.39220103589E+03  0.61080944956E+03  0.91415613946E+02 0.  0.
          3    1    3    3  502    0 -0.17072371025E+03  0.18131580463E+03  0.43074163107E+03  0.49755437792E+03  0.00000000000E+00 0. -1.
         -3    1    3    3    0  502 -0.10733206154E+02 -0.11279885121E+02  0.19062806918E+02  0.24613576138E+02  0.00000000000E+00 0.  1.
         13    1    5    5    0    0 -0.12214170816E+03 -0.93590454845E+02  0.33450196528E+02  0.15746963440E+03  0.00000000000E+00 0. -1.
        -13    1    5    5    0    0 -0.15468481001E+03 -0.46679540525E+02  0.11816717163E+03  0.20017454984E+03  0.00000000000E+00 0.  1.
          4    1    6    6  503    0  0.16574679072E+03 -0.38971759969E+02 -0.10114544791E+03  0.19804342539E+03  0.00000000000E+00 0. -1.
         -4    1    6    6    0  503  0.29253664386E+03  0.92058358246E+01 -0.29105558798E+03  0.41276602417E+03  0.00000000000E+00 0.  1.
<mgrwt>
<rscale>  0 0.14758656E+04</rscale>
<asrwt>0</asrwt>
<pdfrwt beam="1">  1        1 0.13075710E+00 0.14758656E+04</pdfrwt>
<pdfrwt beam="2">  1       -1 0.98569294E-01 0.14758656E+04</pdfrwt>
<totfact> 0.19130263E+01</totfact>
</mgrwt>
</event>
<event>
12    3  0.4806716E-008  0.1607152E+04  0.7818608E-02  0.8816166E-01
          2   -1    0    0  501    0  0.00000000000E+00  0.00000000000E+00  0.73143541128E+03  0.73143541128E+03  0.00000000000E+00 0. -1.
         -2   -1    0    0    0  501 -0.00000000000E+00 -0.00000000000E+00 -0.88283163191E+03  0.88283163191E+03  0.00000000000E+00 0.  1.
         23    2    1    2    0    0  0.27497664789E+03  0.47690984293E+03 -0.65367729241E+02  0.56233994256E+03  0.94329824583E+02 0.  0.
        254    2    1    2    0    0 -0.27497664789E+03 -0.47690984293E+03 -0.86028491388E+02  0.10519271006E+04  0.89224131743E+03 0.  0.
         23    2    4    4    0    0 -0.24427395493E+03 -0.54750977853E+03  0.27952326540E+03  0.66786400173E+03  0.92045348959E+02 0.  0.
         23    2    4    4    0    0 -0.30702692960E+02  0.70599935600E+02 -0.36555175679E+03  0.38406309889E+03  0.89159243917E+02 0.  0.
          2    1    3    3  502    0  0.61842465589E+02  0.10497784449E+03  0.24676177220E+02  0.12431312122E+03  0.00000000000E+00 0. -1.
         -2    1    3    3    0  502  0.21313418230E+03  0.37193199844E+03 -0.90043906462E+02  0.43802682135E+03  0.00000000000E+00 0.  1.
         13    1    5    5    0    0 -0.15397260853E+03 -0.28930413200E+03  0.10831478326E+03  0.34516161033E+03  0.00000000000E+00 0. -1.
        -13    1    5    5    0    0 -0.90301346403E+02 -0.25820564653E+03  0.17120848214E+03  0.32270239140E+03  0.00000000000E+00 0.  1.
          1    1    6    6  503    0 -0.89887176321E+01 -0.21431082034E+02 -0.71779666064E+02  0.75448053534E+02  0.00000000000E+00 0. -1.
         -1    1    6    6    0  503 -0.21713975328E+02  0.92031017634E+02 -0.29377209073E+03  0.30861504536E+03  0.00000000000E+00 0.  1.
<mgrwt>
<rscale>  0 0.16071519E+04</rscale>
<asrwt>0</asrwt>
<pdfrwt beam="1">  1        2 0.11252853E+00 0.16071519E+04</pdfrwt>
<pdfrwt beam="2">  1       -2 0.13582025E+00 0.16071519E+04</pdfrwt>
<totfact> 0.14415907E+01</totfact>
</mgrwt>
</event>
<event>
12    3  0.4806716E-008  0.1915667E+04  0.7818608E-02  0.8647097E-01
          2   -1    0    0  501    0  0.00000000000E+00  0.00000000000E+00  0.24047649135E+04  0.24047649135E+04  0.00000000000E+00 0.  1.
         -2   -1    0    0    0  501 -0.00000000000E+00 -0.00000000000E+00 -0.38151122329E+03  0.38151122329E+03  0.00000000000E+00 0. -1.
         23    2    1    2    0    0 -0.32215564599E+03 -0.44487591676E+03  0.51589395505E+02  0.55938593610E+03  0.92478744672E+02 0.  0.
        254    2    1    2    0    0  0.32215564599E+03  0.44487591676E+03  0.19716642947E+04  0.22268902007E+04  0.87742864859E+03 0.  0.
         23    2    4    4    0    0  0.30867928156E+03 -0.12897757024E+03  0.30423210644E+03  0.46119520669E+03  0.90695819050E+02 0.  0.
         23    2    4    4    0    0  0.13476364432E+02  0.57385348700E+03  0.16674321882E+04  0.17656949940E+04  0.88652537752E+02 0.  0.
          3    1    3    3  502    0 -0.24677160676E+03 -0.39780268243E+03  0.43146381501E+02  0.47011148708E+03  0.00000000000E+00 0. -1.
         -3    1    3    3    0  502 -0.75384039229E+02 -0.47073234330E+02  0.84430140040E+01  0.89274449011E+02  0.00000000000E+00 0.  1.
         13    1    5    5    0    0  0.30204370789E+03 -0.14042800810E+03  0.29601229493E+03  0.44561609675E+03  0.00000000000E+00 0.  1.
        -13    1    5    5    0    0  0.66355736678E+01  0.11450437860E+02  0.82198115180E+01  0.15579109939E+02  0.00000000000E+00 0. -1.
          1    1    6    6  503    0 -0.12078104264E+02  0.41314110903E+02  0.76156889403E+02  0.87479187044E+02  0.00000000000E+00 0. -1.
         -1    1    6    6    0  503  0.25554468696E+02  0.53253937610E+03  0.15912752988E+04  0.16782158069E+04  0.00000000000E+00 0.  1.
<mgrwt>
<rscale>  0 0.19156668E+04</rscale>
<asrwt>0</asrwt>
<pdfrwt beam="1">  1        2 0.36996382E+00 0.19156668E+04</pdfrwt>
<pdfrwt beam="2">  1       -2 0.58694036E-01 0.19156668E+04</pdfrwt>
<totfact> 0.10031282E+01</totfact>
</mgrwt>
</event>
<event>
12    3  0.4806716E-008  0.2548288E+04  0.7818608E-02  0.8385982E-01
          2   -1    0    0  501    0  0.00000000000E+00  0.00000000000E+00  0.24447841326E+04  0.24447841326E+04  0.00000000000E+00 0. -1.
         -2   -1    0    0    0  501 -0.00000000000E+00 -0.00000000000E+00 -0.66404369192E+03  0.66404369192E+03  0.00000000000E+00 0.  1.
         23    2    1    2    0    0 -0.71794049341E+02  0.10809974428E+04  0.10757512105E+04  0.15294459690E+04  0.90853995753E+02 0.  0.
        254    2    1    2    0    0  0.71794049341E+02 -0.10809974428E+04  0.70498923025E+03  0.15793818555E+04  0.90759427832E+03 0.  0.
         23    2    4    4    0    0 -0.42619162916E+02  0.13347547371E+03  0.18802916251E+03  0.25083490657E+03  0.89056663258E+02 0.  0.
         23    2    4    4    0    0  0.11441321226E+03 -0.12144729165E+04  0.51696006774E+03  0.13285469490E+04  0.98764548158E+02 0.  0.
          4    1    3    3  502    0 -0.64717359792E+02  0.69828050769E+03  0.63958347516E+03  0.94913172204E+03  0.00000000000E+00 0.  1.
         -4    1    3    3    0  502 -0.70766895488E+01  0.38271693507E+03  0.43616773531E+03  0.58031424699E+03  0.00000000000E+00 0. -1.
         13    1    5    5    0    0 -0.43796234535E+02  0.14423562555E+03  0.18665902999E+03  0.23992419493E+03  0.00000000000E+00 0. -1.
        -13    1    5    5    0    0  0.11770716186E+01 -0.10760151844E+02  0.13701325204E+01  0.10910711637E+02  0.00000000000E+00 0.  1.
          4    1    6    6  503    0  0.70655847074E+02 -0.76805293865E+03  0.27474430927E+03  0.81876858805E+03  0.00000000000E+00 0. -1.
         -4    1    6    6    0  503  0.43757365183E+02 -0.44641997782E+03  0.24221575847E+03  0.50977836092E+03  0.00000000000E+00 0.  1.
<mgrwt>
<rscale>  0 0.25482884E+04</rscale>
<asrwt>0</asrwt>
<pdfrwt beam="1">  1        2 0.37612063E+00 0.25482884E+04</pdfrwt>
<pdfrwt beam="2">  1       -2 0.10216057E+00 0.25482884E+04</pdfrwt>
<totfact> 0.26121884E+00</totfact>
</mgrwt>
</event>
<event>
12    3  0.4806716E-008  0.1266403E+04  0.7818608E-02  0.9056640E-01
          1   -1    0    0  501    0  0.00000000000E+00  0.00000000000E+00  0.63018831882E+03  0.63018831882E+03  0.00000000000E+00 0. -1.
         -1   -1    0    0    0  501 -0.00000000000E+00 -0.00000000000E+00 -0.63622940080E+03  0.63622940080E+03  0.00000000000E+00 0.  1.
         23    2    1    2    0    0 -0.11686454472E+03  0.26038842508E+03 -0.10280881321E+03  0.32308829278E+03  0.11116177009E+03 0.  0.
        254    2    1    2    0    0  0.11686454472E+03 -0.26038842508E+03  0.96767731227E+02  0.94332942683E+03  0.89389426667E+03 0.  0.
         23    2    4    4    0    0  0.36338822552E+02 -0.53077627314E+03 -0.14695318334E+03  0.55942207546E+03  0.91180361150E+02 0.  0.
         23    2    4    4    0    0  0.80525722164E+02  0.27038784806E+03  0.24372091457E+03  0.38390735137E+03  0.91602346765E+02 0.  0.
          3    1    3    3  502    0  0.77421743990E+01  0.49216371596E+02  0.13627291914E+02  0.51651675504E+02  0.00000000000E+00 0. -1.
         -3    1    3    3    0  502 -0.12460671911E+03  0.21117205349E+03 -0.11643610512E+03  0.27143661728E+03  0.00000000000E+00 0.  1.
         13    1    5    5    0    0  0.29665371366E+02 -0.53212918491E+03 -0.14549628513E+03  0.55245875201E+03  0.00000000000E+00 0.  1.
        -13    1    5    5    0    0  0.66734511861E+01  0.13529117665E+01 -0.14568982111E+01  0.69633234435E+01  0.00000000000E+00 0. -1.
          3    1    6    6  503    0  0.11949047939E+02  0.18139669788E+03  0.12604755750E+03  0.22121376200E+03  0.00000000000E+00 0. -1.
         -3    1    6    6    0  503  0.68576674225E+02  0.88991150177E+02  0.11767335707E+03  0.16269358937E+03  0.00000000000E+00 0.  1.
<mgrwt>
<rscale>  0 0.12664033E+04</rscale>
<asrwt>0</asrwt>
<pdfrwt beam="1">  1        1 0.96952050E-01 0.12664033E+04</pdfrwt>
<pdfrwt beam="2">  1       -1 0.97881446E-01 0.12664033E+04</pdfrwt>
<totfact> 0.31444755E+01</totfact>
</mgrwt>
</event>
<event>
12    3  0.4806716E-008  0.2224687E+04  0.7818608E-02  0.8508223E-01
          1   -1    0    0  501    0  0.00000000000E+00  0.00000000000E+00  0.82444695722E+03  0.82444695722E+03  0.00000000000E+00 0.  1.
         -1   -1    0    0    0  501 -0.00000000000E+00 -0.00000000000E+00 -0.15007734486E+04  0.15007734486E+04  0.00000000000E+00 0. -1.
         23    2    1    2    0    0  0.49214461473E+03  0.94411770320E+02 -0.11024497820E+04  0.12153100111E+04  0.10228879283E+03 0.  0.
        254    2    1    2    0    0 -0.49214461473E+03 -0.94411770320E+02  0.42612329058E+03  0.11099103947E+04  0.89397993343E+03 0.  0.
         23    2    4    4    0    0  0.13982290262E+03 -0.30864804495E+03  0.12580852291E+03  0.37229295846E+03  0.89219968263E+02 0.  0.
         23    2    4    4    0    0 -0.63196751735E+03  0.21423627463E+03  0.30031476766E+03  0.73761743627E+03  0.92792231680E+02 0.  0.
          3    1    3    3  502    0  0.15331973984E+03  0.52933573476E+02 -0.46075252951E+03  0.48846883142E+03  0.00000000000E+00 0. -1.
         -3    1    3    3    0  502  0.33882487490E+03  0.41478196844E+02 -0.64169725246E+03  0.72684117968E+03  0.00000000000E+00 0.  1.
         13    1    5    5    0    0  0.34848534758E+02 -0.17854477160E+03  0.81581759355E+02  0.19936960475E+03  0.00000000000E+00 0.  1.
        -13    1    5    5    0    0  0.10497436786E+03 -0.13010327335E+03  0.44226763559E+02  0.17292335371E+03  0.00000000000E+00 0. -1.
          1    1    6    6  503    0 -0.28272565022E+03  0.59534098829E+02  0.16286933462E+03  0.33166929670E+03  0.00000000000E+00 0. -1.
         -1    1    6    6    0  503 -0.34924186713E+03  0.15470217580E+03  0.13744543304E+03  0.40594813957E+03  0.00000000000E+00 0.  1.
<mgrwt>
<rscale>  0 0.22246870E+04</rscale>
<asrwt>0</asrwt>
<pdfrwt beam="1">  1        1 0.12683799E+00 0.22246870E+04</pdfrwt>
<pdfrwt beam="2">  1       -1 0.23088822E+00 0.22246870E+04</pdfrwt>
<totfact> 0.17837706E+00</totfact>
</mgrwt>
</event>
<event>
12    3  0.4806716E-008  0.1994661E+04  0.7818608E-02  0.8609121E-01
         -2   -1    0    0    0  501 -0.00000000000E+00  0.00000000000E+00  0.95836242626E+03  0.95836242626E+03  0.00000000000E+00 0.  1.
          2   -1    0    0  501    0  0.00000000000E+00 -0.00000000000E+00 -0.10378831146E+04  0.10378831146E+04  0.00000000000E+00 0. -1.
         23    2    1    2    0    0  0.85178793007E+02  0.76911692027E+03  0.30561923262E+01  0.78036491460E+03  0.10081565257E+03 0.  0.
        254    2    1    2    0    0 -0.85178793007E+02 -0.76911692027E+03 -0.82576880689E+02  0.12158806263E+04  0.93421116044E+03 0.  0.
         23    2    4    4    0    0 -0.16048737179E+03 -0.58592133253E+03  0.36731507497E+03  0.71583934311E+03  0.91899926168E+02 0.  0.
         23    2    4    4    0    0  0.75308578781E+02 -0.18319558774E+03 -0.44989195566E+03  0.50004128316E+03  0.91687009395E+02 0.  0.
          3    1    3    3  502    0  0.35386057095E+02  0.16385474826E+03 -0.37253391232E+02  0.17172177125E+03  0.00000000000E+00 0. -1.
         -3    1    3    3    0  502  0.49792735912E+02  0.60526217202E+03  0.40309583558E+02  0.60864314335E+03  0.00000000000E+00 0.  1.
         13    1    5    5    0    0 -0.10741710998E+03 -0.49733933712E+03  0.32788545772E+03  0.60530465482E+03  0.00000000000E+00 0.  1.
        -13    1    5    5    0    0 -0.53070261806E+02 -0.88581995410E+02  0.39429617247E+02  0.11053468829E+03  0.00000000000E+00 0. -1.
          1    1    6    6  503    0  0.20458392646E+02 -0.54556170815E+01 -0.11523090800E+03  0.11716002623E+03  0.00000000000E+00 0. -1.
         -1    1    6    6    0  503  0.54850186135E+02 -0.17773997066E+03 -0.33466104766E+03  0.38288125693E+03  0.00000000000E+00 0.  1.
<mgrwt>
<rscale>  0 0.19946611E+04</rscale>
<asrwt>0</asrwt>
<pdfrwt beam="1">  1        2 0.15967432E+00 0.19946611E+04</pdfrwt>
<pdfrwt beam="2">  1       -2 0.14744037E+00 0.19946611E+04</pdfrwt>
<totfact> 0.69436224E+00</totfact>
</mgrwt>
</event>
<event>
12    3  0.4806716E-008  0.1486948E+04  0.7818608E-02  0.8893179E-01
          2   -1    0    0  501    0  0.00000000000E+00  0.00000000000E+00  0.17640875800E+04  0.17640875800E+04  0.00000000000E+00 0. -1.
         -2   -1    0    0    0  501 -0.00000000000E+00 -0.00000000000E+00 -0.31333677530E+03  0.31333677530E+03  0.00000000000E+00 0.  1.
         23    2    1    2    0    0 -0.31224642929E+03  0.19195102716E+03  0.59401302637E+02  0.38210199597E+03  0.90168681575E+02 0.  0.
        254    2    1    2    0    0  0.31224642929E+03 -0.19195102716E+03  0.13913495021E+04  0.16953223594E+04  0.89661666041E+03 0.  0.
         23    2    4    4    0    0 -0.21444038985E+02 -0.51942407833E+02  0.13091791598E+04  0.13135480690E+04  0.91107610863E+02 0.  0.
         23    2    4    4    0    0  0.33369046827E+03 -0.14000861933E+03  0.82170342342E+02  0.38177429034E+03  0.89710096976E+02 0.  0.
          1    1    3    3  502    0 -0.10452274744E+03  0.38422240502E+02  0.53951801369E+02  0.12374194991E+03  0.00000000000E+00 0. -1.
         -1    1    3    3    0  502 -0.20772368185E+03  0.15352878666E+03  0.54495012681E+01  0.25836004606E+03  0.00000000000E+00 0.  1.
         13    1    5    5    0    0  0.28377879691E+02 -0.44685292834E+02  0.84238655415E+03  0.84404809464E+03  0.00000000000E+00 0.  1.
        -13    1    5    5    0    0 -0.49821918676E+02 -0.72571149993E+01  0.46679260561E+03  0.46949997439E+03  0.00000000000E+00 0. -1.
          4    1    6    6  503    0  0.72794435389E+02 -0.77414674536E+01  0.47389408406E+02  0.87205023772E+02  0.00000000000E+00 0. -1.
         -4    1    6    6    0  503  0.26089603289E+03 -0.13226715187E+03  0.34780933936E+02  0.29456926657E+03  0.00000000000E+00 0.  1.
<mgrwt>
<rscale>  0 0.14869479E+04</rscale>
<asrwt>0</asrwt>
<pdfrwt beam="1">  1        2 0.27139808E+00 0.14869479E+04</pdfrwt>
<pdfrwt beam="2">  1       -2 0.48205659E-01 0.14869479E+04</pdfrwt>
<totfact> 0.35616394E+01</totfact>
</mgrwt>
</event>
<event>
12    3  0.4806716E-008  0.2481891E+04  0.7818608E-02  0.8409465E-01
          1   -1    0    0  501    0  0.00000000000E+00  0.00000000000E+00  0.16971866533E+04  0.16971866533E+04  0.00000000000E+00 0. -1.
         -1   -1    0    0    0  501 -0.00000000000E+00 -0.00000000000E+00 -0.90735208354E+03  0.90735208354E+03  0.00000000000E+00 0.  1.
         23    2    1    2    0    0 -0.79086053806E+03 -0.70544237556E+03  0.51073074983E+03  0.11799654511E+04  0.91450702407E+02 0.  0.
        254    2    1    2    0    0  0.79086053806E+03  0.70544237556E+03  0.27910381992E+03  0.14245732858E+04  0.91016524232E+03 0.  0.
         23    2    4    4    0    0  0.24920265274E+03  0.71013636971E+03 -0.88990673162E+02  0.76350830188E+03  0.92897585643E+02 0.  0.
         23    2    4    4    0    0  0.54165788533E+03 -0.46939941446E+01  0.36809449308E+03  0.66106498389E+03  0.89989214749E+02 0.  0.
          4    1    3    3  502    0 -0.44108760173E+03 -0.38550581581E+03  0.33211558319E+03  0.67340460871E+03  0.00000000000E+00 0.  1.
         -4    1    3    3    0  502 -0.34977293633E+03 -0.31993655975E+03  0.17861516664E+03  0.50656084236E+03  0.00000000000E+00 0. -1.
         13    1    5    5    0    0  0.19035056358E+03  0.57774296905E+03 -0.10658147557E+03  0.61755962164E+03  0.00000000000E+00 0. -1.
        -13    1    5    5    0    0  0.58852089151E+02  0.13239340065E+03  0.17590802406E+02  0.14594868024E+03  0.00000000000E+00 0.  1.
          1    1    6    6  503    0  0.16713548306E+03  0.32917916516E+02  0.14358914671E+03  0.22279071340E+03  0.00000000000E+00 0. -1.
         -1    1    6    6    0  503  0.37452240226E+03 -0.37611910660E+02  0.22450534638E+03  0.43827427049E+03  0.00000000000E+00 0.  1.
<mgrwt>
<rscale>  0 0.24818911E+04</rscale>
<asrwt>0</asrwt>
<pdfrwt beam="1">  1        1 0.26110564E+00 0.24818911E+04</pdfrwt>
<pdfrwt beam="2">  1       -1 0.13959263E+00 0.24818911E+04</pdfrwt>
<totfact> 0.17990677E+00</totfact>
</mgrwt>
</event>
<event>
12    3  0.4806716E-008  0.1377989E+04  0.7818608E-02  0.8969907E-01
         -4   -1    0    0    0  501 -0.00000000000E+00  0.00000000000E+00  0.11243528570E+04  0.11243528570E+04  0.00000000000E+00 0. -1.
          4   -1    0    0  501    0  0.00000000000E+00 -0.00000000000E+00 -0.42221013342E+03  0.42221013342E+03  0.00000000000E+00 0.  1.
         23    2    1    2    0    0 -0.34243731729E+03 -0.91061209487E+02  0.21439377543E+02  0.36644788262E+03  0.90933732024E+02 0.  0.
        254    2    1    2    0    0  0.34243731729E+03  0.91061209487E+02  0.68070334603E+03  0.11801151078E+04  0.89652616370E+03 0.  0.
         23    2    4    4    0    0  0.47438860698E+03  0.37193737492E+03  0.57963240705E+03  0.84125525729E+03  0.91404153706E+02 0.  0.
         23    2    4    4    0    0 -0.13195128969E+03 -0.28087616543E+03  0.10107093897E+03  0.33885985050E+03  0.91148781785E+02 0.  0.
          2    1    3    3  502    0 -0.33624936658E+03 -0.97342068830E+02  0.77217411751E+01  0.35014102898E+03  0.00000000000E+00 0. -1.
         -2    1    3    3    0  502 -0.61879507143E+01  0.62808593428E+01  0.13717636368E+02  0.16306853641E+02  0.00000000000E+00 0.  1.
         13    1    5    5    0    0  0.18625977559E+03  0.98267384543E+02  0.23138833538E+03  0.31287336835E+03  0.00000000000E+00 0. -1.
        -13    1    5    5    0    0  0.28812883139E+03  0.27366999037E+03  0.34824407167E+03  0.52838188894E+03  0.00000000000E+00 0.  1.
          1    1    6    6  503    0 -0.97877539070E+02 -0.12650195850E+03  0.81650324610E+02  0.17958155158E+03  0.00000000000E+00 0. -1.
         -1    1    6    6    0  503 -0.34073750622E+02 -0.15437420692E+03  0.19420614365E+02  0.15927829892E+03  0.00000000000E+00 0.  1.
<mgrwt>
<rscale>  0 0.13779886E+04</rscale>
<asrwt>0</asrwt>
<pdfrwt beam="1">  1        4 0.64955406E-01 0.13779886E+04</pdfrwt>
<pdfrwt beam="2">  1       -4 0.17297736E+00 0.13779886E+04</pdfrwt>
<totfact> 0.86593812E-01</totfact>
</mgrwt>
</event>
<event>
12    3  0.4806716E-008  0.2644457E+04  0.7818608E-02  0.8353255E-01
          2   -1    0    0  501    0  0.00000000000E+00  0.00000000000E+00  0.28001002716E+04  0.28001002716E+04  0.00000000000E+00 0. -1.
         -2   -1    0    0    0  501 -0.00000000000E+00 -0.00000000000E+00 -0.62436642908E+03  0.62436642908E+03  0.00000000000E+00 0.  1.
         23    2    1    2    0    0 -0.93130115546E+03  0.67419971439E+03  0.12441834491E+04  0.16965679555E+04  0.92104699901E+02 0.  0.
        254    2    1    2    0    0  0.93130115546E+03 -0.67419971439E+03  0.93155039345E+03  0.17278987452E+04  0.89217758375E+03 0.  0.
         23    2    4    4    0    0  0.95106061510E+03 -0.26903241647E+03  0.44177394676E+03  0.10868918654E+04  0.96306658125E+02 0.  0.
         23    2    4    4    0    0 -0.19759459643E+02 -0.40516729793E+03  0.48977644669E+03  0.64100687973E+03  0.80360914478E+02 0.  0.
          4    1    3    3  502    0 -0.62997647757E+02  0.76892089297E+02  0.10124211282E+03  0.14188397523E+03  0.00000000000E+00 0. -1.
         -4    1    3    3    0  502 -0.86830350770E+03  0.59730762510E+03  0.11429413363E+04  0.15546839803E+04  0.00000000000E+00 0.  1.
         13    1    5    5    0    0  0.12957892972E+03 -0.24287071681E+02  0.93741593729E+02  0.16176540815E+03  0.00000000000E+00 0.  1.
        -13    1    5    5    0    0  0.82148168538E+03 -0.24474534479E+03  0.34803235303E+03  0.92512645729E+03  0.00000000000E+00 0. -1.
          3    1    6    6  503    0  0.80051180665E+01 -0.21570821382E+03  0.31426909795E+03  0.38125999180E+03  0.00000000000E+00 0. -1.
         -3    1    6    6    0  503 -0.27764577710E+02 -0.18945908411E+03  0.17550734874E+03  0.25974688793E+03  0.00000000000E+00 0.  1.
<mgrwt>
<rscale>  0 0.26444573E+04</rscale>
<asrwt>0</asrwt>
<pdfrwt beam="1">  1        2 0.43078465E+00 0.26444573E+04</pdfrwt>
<pdfrwt beam="2">  1       -2 0.96056376E-01 0.26444573E+04</pdfrwt>
<totfact> 0.18501081E+00</totfact>
</mgrwt>
</event>
<event>
12    3  0.4806716E-008  0.2855358E+04  0.7818608E-02  0.8286285E-01
          3   -1    0    0  501    0  0.00000000000E+00  0.00000000000E+00  0.72165748119E+03  0.72165748119E+03  0.00000000000E+00 0. -1.
         -3   -1    0    0    0  501 -0.00000000000E+00 -0.00000000000E+00 -0.28244243625E+04  0.28244243625E+04  0.00000000000E+00 0.  1.
         23    2    1    2    0    0  0.42720268504E+03 -0.11455466505E+04 -0.14306797640E+04  0.18841827058E+04  0.92307200625E+02 0.  0.
        254    2    1    2    0    0 -0.42720268504E+03  0.11455466505E+04 -0.67208711729E+03  0.16618991378E+04  0.90301073552E+03 0.  0.
         23    2    4    4    0    0 -0.26600626778E+03  0.62649429479E+03 -0.84100764197E+03  0.10856764047E+04  0.90249465201E+02 0.  0.
         23    2    4    4    0    0 -0.16119641726E+03  0.51905235572E+03  0.16892052468E+03  0.57622273312E+03  0.89993675318E+02 0.  0.
          4    1    3    3  502    0  0.13708855094E+02 -0.92459131165E+02 -0.87662891324E+02  0.12814603450E+03  0.00000000000E+00 0. -1.
         -4    1    3    3    0  502  0.41349382994E+03 -0.10530875193E+04 -0.13430168727E+04  0.17560366713E+04  0.00000000000E+00 0.  1.
         13    1    5    5    0    0 -0.71578040554E+02  0.92657006201E+02 -0.11905441445E+03  0.16698110758E+03  0.00000000000E+00 0. -1.
        -13    1    5    5    0    0 -0.19442822722E+03  0.53383728859E+03 -0.72195322752E+03  0.91869529712E+03  0.00000000000E+00 0.  1.
          4    1    6    6  503    0 -0.51180004555E+02  0.81049393110E+02  0.54814059058E+02  0.11042181877E+03  0.00000000000E+00 0. -1.
         -4    1    6    6    0  503 -0.11001641271E+03  0.43800296261E+03  0.11410646562E+03  0.46580091435E+03  0.00000000000E+00 0.  1.
<mgrwt>
<rscale>  0 0.28553578E+04</rscale>
<asrwt>0</asrwt>
<pdfrwt beam="1">  1        3 0.11102423E+00 0.28553578E+04</pdfrwt>
<pdfrwt beam="2">  1       -3 0.43452682E+00 0.28553578E+04</pdfrwt>
<totfact> 0.10506781E-02</totfact>
</mgrwt>
</event>
<event>
12    3  0.4806716E-008  0.1192393E+04  0.7818608E-02  0.9119541E-01
         -1   -1    0    0    0  501 -0.00000000000E+00  0.00000000000E+00  0.13791682946E+03  0.13791682946E+03  0.00000000000E+00 0.  1.
          1   -1    0    0  501    0  0.00000000000E+00 -0.00000000000E+00 -0.25772807098E+04  0.25772807098E+04  0.00000000000E+00 0. -1.
         23    2    1    2    0    0 -0.21422111853E+03 -0.11527307008E+03 -0.64487759263E+03  0.69534668718E+03  0.91985529261E+02 0.  0.
        254    2    1    2    0    0  0.21422111853E+03  0.11527307008E+03 -0.17944862878E+04  0.20198508521E+04  0.89467192846E+03 0.  0.
         23    2    4    4    0    0 -0.15891577271E+03 -0.23377365413E+03 -0.24155249665E+03  0.38249078399E+03  0.89706449167E+02 0.  0.
         23    2    4    4    0    0  0.37313689123E+03  0.34904672420E+03 -0.15529337911E+04  0.16373600681E+04  0.90993834320E+02 0.  0.
          1    1    3    3  502    0 -0.20374592301E+03 -0.75277392898E+02 -0.51149918047E+03  0.55570720586E+03  0.00000000000E+00 0. -1.
         -1    1    3    3    0  502 -0.10475195521E+02 -0.39995677179E+02 -0.13337841215E+03  0.13963948132E+03  0.00000000000E+00 0.  1.
         13    1    5    5    0    0 -0.17878832615E+02 -0.23237949621E+02 -0.71590007992E+02  0.77361387026E+02  0.00000000000E+00 0.  1.
        -13    1    5    5    0    0 -0.14103694009E+03 -0.21053570451E+03 -0.16996248866E+03  0.30512939697E+03  0.00000000000E+00 0. -1.
          1    1    6    6  503    0  0.35315041129E+03  0.35195704440E+03 -0.15007344220E+04  0.15813895091E+04  0.00000000000E+00 0. -1.
         -1    1    6    6    0  503  0.19986479945E+02 -0.29103201973E+01 -0.52199369130E+02  0.55970559063E+02  0.00000000000E+00 0.  1.
<mgrwt>
<rscale>  0 0.11923932E+04</rscale>
<asrwt>0</asrwt>
<pdfrwt beam="1">  1        1 0.39650469E+00 0.11923932E+04</pdfrwt>
<pdfrwt beam="2">  1       -1 0.21217975E-01 0.11923932E+04</pdfrwt>
<totfact> 0.22111844E+01</totfact>
</mgrwt>
</event>
<event>
12    3  0.4806716E-008  0.2531441E+04  0.7818608E-02  0.8391869E-01
          1   -1    0    0  501    0  0.00000000000E+00  0.00000000000E+00  0.29701082962E+04  0.29701082962E+04  0.00000000000E+00 0. -1.
         -1   -1    0    0    0  501 -0.00000000000E+00 -0.00000000000E+00 -0.53939065013E+03  0.53939065013E+03  0.00000000000E+00 0.  1.
         23    2    1    2    0    0  0.92439868346E+03 -0.21819098322E+03  0.27201754091E+03  0.99209995018E+03  0.90269249700E+02 0.  0.
        254    2    1    2    0    0 -0.92439868346E+03  0.21819098322E+03  0.21587001052E+04  0.25173989961E+04  0.88044950487E+03 0.  0.
         23    2    4    4    0    0 -0.13451749698E+03 -0.30371879391E+03  0.61035749426E+03  0.70052428174E+03  0.88644998416E+02 0.  0.
         23    2    4    4    0    0 -0.78988118648E+03  0.52190977713E+03  0.15483426109E+04  0.18168747144E+04  0.85829965005E+02 0.  0.
          1    1    3    3  502    0  0.10890895970E+03 -0.10963069662E+02  0.58108416568E+02  0.12392714987E+03  0.00000000000E+00 0. -1.
         -1    1    3    3    0  502  0.81548972377E+03 -0.20722791356E+03  0.21390912434E+03  0.86817280031E+03  0.00000000000E+00 0.  1.
         13    1    5    5    0    0 -0.67947841721E+02 -0.24409243355E+03  0.47443330239E+03  0.53785219506E+03  0.00000000000E+00 0. -1.
        -13    1    5    5    0    0 -0.66569655261E+02 -0.59626360361E+02  0.13592419187E+03  0.16267208669E+03  0.00000000000E+00 0.  1.
          3    1    6    6  503    0 -0.63442339589E+03  0.43463928510E+03  0.11942717352E+04  0.14204539172E+04  0.00000000000E+00 0. -1.
         -3    1    6    6    0  503 -0.15545779059E+03  0.87270492030E+02  0.35407087568E+03  0.39642079718E+03  0.00000000000E+00 0.  1.
<mgrwt>
<rscale>  0 0.25314412E+04</rscale>
<asrwt>0</asrwt>
<pdfrwt beam="1">  1        1 0.45693973E+00 0.25314412E+04</pdfrwt>
<pdfrwt beam="2">  1       -1 0.82983178E-01 0.25314412E+04</pdfrwt>
<totfact> 0.80292967E-01</totfact>
</mgrwt>
</event>
<event>
12    3  0.4806716E-008  0.1709667E+04  0.7818608E-02  0.8755870E-01
          1   -1    0    0  501    0  0.00000000000E+00  0.00000000000E+00  0.10165081513E+04  0.10165081513E+04  0.00000000000E+00 0. -1.
         -1   -1    0    0    0  501 -0.00000000000E+00 -0.00000000000E+00 -0.71887322075E+03  0.71887322075E+03  0.00000000000E+00 0.  1.
         23    2    1    2    0    0  0.39560590056E+03 -0.41345261561E+03 -0.12568218323E+03  0.59277618400E+03  0.90224715151E+02 0.  0.
        254    2    1    2    0    0 -0.39560590056E+03  0.41345261561E+03  0.42331711376E+03  0.11426051880E+04  0.89381325957E+03 0.  0.
         23    2    4    4    0    0 -0.22230057043E+02  0.28201750751E+03  0.62266713273E+03  0.69003905714E+03  0.91714187632E+02 0.  0.
         23    2    4    4    0    0 -0.37337584352E+03  0.13143510810E+03 -0.19935001897E+03  0.45256613088E+03  0.91602208451E+02 0.  0.
          3    1    3    3  502    0  0.14025850968E+03 -0.12208230842E+03 -0.15647829158E+01  0.18595426350E+03  0.00000000000E+00 0. -1.
         -3    1    3    3    0  502  0.25534739088E+03 -0.29137030719E+03 -0.12411740032E+03  0.40682192051E+03  0.00000000000E+00 0.  1.
         13    1    5    5    0    0 -0.41758810370E+02  0.22962989609E+03  0.42798973788E+03  0.48749246471E+03  0.00000000000E+00 0.  1.
        -13    1    5    5    0    0  0.19528753326E+02  0.52387611425E+02  0.19467739485E+03  0.20254659243E+03  0.00000000000E+00 0. -1.
          3    1    6    6  503    0 -0.10019755009E+03  0.77557966424E+02 -0.46793885456E+02  0.13507203602E+03  0.00000000000E+00 0. -1.
         -3    1    6    6    0  503 -0.27317829343E+03  0.53877141676E+02 -0.15255613352E+03  0.31749409486E+03  0.00000000000E+00 0.  1.
<mgrwt>
<rscale>  0 0.17096672E+04</rscale>
<asrwt>0</asrwt>
<pdfrwt beam="1">  1        1 0.15638587E+00 0.17096672E+04</pdfrwt>
<pdfrwt beam="2">  1       -1 0.11059588E+00 0.17096672E+04</pdfrwt>
<totfact> 0.10525631E+01</totfact>
</mgrwt>
</event>
<event>
12    3  0.4806716E-008  0.2861390E+04  0.7818608E-02  0.8284459E-01
          2   -1    0    0  501    0  0.00000000000E+00  0.00000000000E+00  0.21506049050E+04  0.21506049050E+04  0.00000000000E+00 0. -1.
         -2   -1    0    0    0  501 -0.00000000000E+00 -0.00000000000E+00 -0.95177350640E+03  0.95177350640E+03  0.00000000000E+00 0.  1.
         23    2    1    2    0    0 -0.77319066480E+03  0.10309038508E+04  0.68117601641E+03  0.14603289630E+04  0.89293678782E+02 0.  0.
        254    2    1    2    0    0  0.77319066480E+03 -0.10309038508E+04  0.51765538218E+03  0.16420494484E+04  0.87622642189E+03 0.  0.
         23    2    4    4    0    0  0.39589141980E+03 -0.78506464628E+02 -0.12151660910E+03  0.43116719724E+03  0.90805200430E+02 0.  0.
         23    2    4    4    0    0  0.37729924499E+03 -0.95239738622E+03  0.63917199129E+03  0.12108822511E+04  0.90991703690E+02 0.  0.
          3    1    3    3  502    0 -0.12188788714E+03  0.19901859885E+03  0.93893778925E+02  0.25155735219E+03  0.00000000000E+00 0. -1.
         -3    1    3    3    0  502 -0.65130277766E+03  0.83188525199E+03  0.58728223749E+03  0.12087716108E+04  0.00000000000E+00 0.  1.
         13    1    5    5    0    0  0.11519401157E+03 -0.50381160888E+02 -0.71582922563E+02  0.14467908099E+03  0.00000000000E+00 0.  1.
        -13    1    5    5    0    0  0.28069740824E+03 -0.28125303739E+02 -0.49933686542E+02  0.28648811625E+03  0.00000000000E+00 0. -1.
          3    1    6    6  503    0  0.28276843562E+03 -0.76607027748E+03  0.47111863337E+03  0.94274833594E+03  0.00000000000E+00 0. -1.
         -3    1    6    6    0  503  0.94530809372E+02 -0.18632710874E+03  0.16805335792E+03  0.26813391520E+03  0.00000000000E+00 0.  1.
<mgrwt>
<rscale>  0 0.28613904E+04</rscale>
<asrwt>0</asrwt>
<pdfrwt beam="1">  1        2 0.33086229E+00 0.28613904E+04</pdfrwt>
<pdfrwt beam="2">  1       -2 0.14642669E+00 0.28613904E+04</pdfrwt>
<totfact> 0.15219446E+00</totfact>
</mgrwt>
</event>
<event>
12    3  0.4806716E-008  0.3196332E+04  0.7818608E-02  0.8189787E-01
         -2   -1    0    0    0  501 -0.00000000000E+00  0.00000000000E+00  0.17613173353E+04  0.17613173353E+04  0.00000000000E+00 0. -1.
          2   -1    0    0  501    0  0.00000000000E+00 -0.00000000000E+00 -0.14501275506E+04  0.14501275506E+04  0.00000000000E+00 0.  1.
         23    2    1    2    0    0  0.45894087059E+03  0.12963148803E+04  0.66554717014E+03  0.15324186158E+04  0.11956080729E+03 0.  0.
        254    2    1    2    0    0 -0.45894087059E+03 -0.12963148803E+04 -0.35435738549E+03  0.16790262701E+04  0.89582423919E+03 0.  0.
         23    2    4    4    0    0 -0.52271823043E+03 -0.12085743902E+04 -0.55614266880E+03  0.14322379553E+04  0.90135939653E+02 0.  0.
         23    2    4    4    0    0  0.63777359846E+02 -0.87740490105E+02  0.20178528330E+03  0.24678831478E+03  0.91767240995E+02 0.  0.
          4    1    3    3  502    0  0.45891080301E+03  0.12254049405E+04  0.64331517418E+03  0.14581052111E+04  0.00000000000E+00 0. -1.
         -4    1    3    3    0  502  0.30067574913E-01  0.70909939759E+02  0.22231995961E+02  0.74313404612E+02  0.00000000000E+00 0.  1.
         13    1    5    5    0    0 -0.80017861781E+02 -0.27879289313E+03 -0.12003084430E+03  0.31390402840E+03  0.00000000000E+00 0.  1.
        -13    1    5    5    0    0 -0.44270036865E+03 -0.92978149707E+03 -0.43611182450E+03  0.11183339269E+04  0.00000000000E+00 0. -1.
          1    1    6    6  503    0  0.35341946232E+02 -0.66509182592E+02  0.48806543924E+02  0.89747441537E+02  0.00000000000E+00 0. -1.
         -1    1    6    6    0  503  0.28435413614E+02 -0.21231307513E+02  0.15297873938E+03  0.15704087324E+03  0.00000000000E+00 0.  1.
<mgrwt>
<rscale>  0 0.31963321E+04</rscale>
<asrwt>0</asrwt>
<pdfrwt beam="1">  1        2 0.22309655E+00 0.31963321E+04</pdfrwt>
<pdfrwt beam="2">  1       -2 0.27097190E+00 0.31963321E+04</pdfrwt>
<totfact> 0.54556375E-01</totfact>
</mgrwt>
</event>
<event>
12    3  0.4806716E-008  0.1801730E+04  0.7818608E-02  0.8705380E-01
         -1   -1    0    0    0  501 -0.00000000000E+00  0.00000000000E+00  0.32053229597E+03  0.32053229597E+03  0.00000000000E+00 0.  1.
          1   -1    0    0  501    0  0.00000000000E+00 -0.00000000000E+00 -0.25319065781E+04  0.25319065781E+04  0.00000000000E+00 0. -1.
         23    2    1    2    0    0  0.65257001658E+03  0.11898930464E+03 -0.55392949031E+03  0.86871690099E+03  0.88459553876E+02 0.  0.
        254    2    1    2    0    0 -0.65257001658E+03 -0.11898930464E+03 -0.16574447918E+04  0.19837219731E+04  0.86488354558E+03 0.  0.
         23    2    4    4    0    0 -0.12556985853E+03 -0.45857225132E+01 -0.13452337392E+04  0.13541412998E+04  0.90862690588E+02 0.  0.
         23    2    4    4    0    0 -0.52700015805E+03 -0.11440358212E+03 -0.31221105268E+03  0.62958067333E+03  0.89881792514E+02 0.  0.
          3    1    3    3  502    0  0.17575309146E+03  0.45775393702E+02 -0.10525449771E+03  0.20991199374E+03  0.00000000000E+00 0. -1.
         -3    1    3    3    0  502  0.47681692512E+03  0.73213910934E+02 -0.44867499260E+03  0.65880490725E+03  0.00000000000E+00 0.  1.
         13    1    5    5    0    0 -0.48324474534E+02 -0.36870871970E+02 -0.82277263568E+03  0.82501486415E+03  0.00000000000E+00 0.  1.
        -13    1    5    5    0    0 -0.77245383994E+02  0.32285149457E+02 -0.52246110349E+03  0.52912643563E+03  0.00000000000E+00 0. -1.
          2    1    6    6  503    0 -0.60171191339E+02 -0.28741932332E+02 -0.11374085395E+02  0.67646439373E+02  0.00000000000E+00 0. -1.
         -2    1    6    6    0  503 -0.46682896672E+03 -0.85661649790E+02 -0.30083696728E+03  0.56193423396E+03  0.00000000000E+00 0.  1.
<mgrwt>
<rscale>  0 0.18017301E+04</rscale>
<asrwt>0</asrwt>
<pdfrwt beam="1">  1        1 0.38952409E+00 0.18017301E+04</pdfrwt>
<pdfrwt beam="2">  1       -1 0.49312661E-01 0.18017301E+04</pdfrwt>
<totfact> 0.50110764E+00</totfact>
</mgrwt>
</event>
<event>
12    3  0.4806716E-008  0.1554233E+04  0.7818608E-02  0.8849168E-01
         -2   -1    0    0    0  501 -0.00000000000E+00  0.00000000000E+00  0.34452634091E+03  0.34452634091E+03  0.00000000000E+00 0.  1.
          2   -1    0    0  501    0  0.00000000000E+00 -0.00000000000E+00 -0.17528705206E+04  0.17528705206E+04  0.00000000000E+00 0. -1.
         23    2    1    2    0    0  0.23644449900E+02  0.31567447214E+03  0.60467875393E+02  0.33477607605E+03  0.90604772336E+02 0.  0.
        254    2    1    2    0    0 -0.23644449900E+02 -0.31567447214E+03 -0.14688120551E+04  0.17626207855E+04  0.92152794197E+03 0.  0.
         23    2    4    4    0    0 -0.25764346526E+03 -0.51273047363E+03 -0.12409745127E+04  0.13703697384E+04  0.92858952671E+02 0.  0.
         23    2    4    4    0    0  0.23399901536E+03  0.19705600149E+03 -0.22783754241E+03  0.39225104705E+03  0.91456717987E+02 0.  0.
          2    1    3    3  502    0  0.50473479086E+02  0.23189963567E+03  0.66892414666E+02  0.24657576575E+03  0.00000000000E+00 0.  1.
         -2    1    3    3    0  502 -0.26829029186E+02  0.83774836461E+02 -0.64245392726E+01  0.88200310294E+02  0.00000000000E+00 0. -1.
         13    1    5    5    0    0 -0.25929730725E+03 -0.51300336247E+03 -0.12418857743E+04  0.13684618445E+04  0.00000000000E+00 0. -1.
        -13    1    5    5    0    0  0.16538419907E+01  0.27288884345E+00  0.91126158636E+00  0.19078939514E+01  0.00000000000E+00 0.  1.
          2    1    6    6  503    0  0.17344738858E+03  0.18987977813E+03 -0.19677830280E+03  0.32382098017E+03  0.00000000000E+00 0. -1.
         -2    1    6    6    0  503  0.60551626779E+02  0.71762233647E+01 -0.31059239610E+02  0.68430066875E+02  0.00000000000E+00 0.  1.
<mgrwt>
<rscale>  0 0.15542330E+04</rscale>
<asrwt>0</asrwt>
<pdfrwt beam="1">  1        2 0.26967239E+00 0.15542330E+04</pdfrwt>
<pdfrwt beam="2">  1       -2 0.53004052E-01 0.15542330E+04</pdfrwt>
<totfact> 0.29600361E+01</totfact>
</mgrwt>
</event>
<event>
12    3  0.4806716E-008  0.1997680E+04  0.7818608E-02  0.8607706E-01
          2   -1    0    0  501    0  0.00000000000E+00  0.00000000000E+00  0.16367774223E+04  0.16367774223E+04  0.00000000000E+00 0.  1.
         -2   -1    0    0    0  501 -0.00000000000E+00 -0.00000000000E+00 -0.60954001561E+03  0.60954001561E+03  0.00000000000E+00 0. -1.
         23    2    1    2    0    0 -0.18870594317E+02  0.55059933790E+03  0.10482990502E+04  0.11877605008E+04  0.91259950454E+02 0.  0.
        254    2    1    2    0    0  0.18870594317E+02 -0.55059933790E+03 -0.21061643486E+02  0.10585569371E+04  0.90365007936E+03 0.  0.
         23    2    4    4    0    0 -0.35479088748E+02 -0.53978038365E+02  0.38973485480E+03  0.40537931647E+03  0.90921608077E+02 0.  0.
         23    2    4    4    0    0  0.54349683065E+02 -0.49662129953E+03 -0.41079649828E+03  0.65317762058E+03  0.91107836249E+02 0.  0.
          4    1    3    3  502    0 -0.14849276271E+01  0.30136895160E+03  0.66668934793E+03  0.73164208234E+03  0.00000000000E+00 0. -1.
         -4    1    3    3    0  502 -0.17385666690E+02  0.24923038630E+03  0.38160970224E+03  0.45611841851E+03  0.00000000000E+00 0.  1.
         13    1    5    5    0    0 -0.64583497374E+02 -0.23819282309E+02  0.21831388015E+03  0.22890901382E+03  0.00000000000E+00 0.  1.
        -13    1    5    5    0    0  0.29104408626E+02 -0.30158756057E+02  0.17142097465E+03  0.17647030265E+03  0.00000000000E+00 0. -1.
          2    1    6    6  503    0 -0.17013418968E+01 -0.64600141655E+00  0.38655559396E+01  0.42725173846E+01  0.00000000000E+00 0. -1.
         -2    1    6    6    0  503  0.56051024962E+02 -0.49597529812E+03 -0.41466205422E+03  0.64890510320E+03  0.00000000000E+00 0.  1.
<mgrwt>
<rscale>  0 0.19976800E+04</rscale>
<asrwt>0</asrwt>
<pdfrwt beam="1">  1        2 0.25181191E+00 0.19976800E+04</pdfrwt>
<pdfrwt beam="2">  1       -2 0.93775388E-01 0.19976800E+04</pdfrwt>
<totfact> 0.94951619E+00</totfact>
</mgrwt>
</event>
<event>
12    3  0.4806716E-008  0.1717634E+04  0.7818608E-02  0.8751370E-01
          2   -1    0    0  501    0  0.00000000000E+00  0.00000000000E+00  0.87017454716E+03  0.87017454716E+03  0.00000000000E+00 0. -1.
         -2   -1    0    0    0  501 -0.00000000000E+00 -0.00000000000E+00 -0.84760786410E+03  0.84760786410E+03  0.00000000000E+00 0.  1.
         23    2    1    2    0    0  0.33280588904E+02  0.31365640459E+02 -0.60720720366E+03  0.61558573832E+03  0.90298460957E+02 0.  0.
        254    2    1    2    0    0 -0.33280588904E+02 -0.31365640459E+02  0.62977388673E+03  0.11021966729E+04  0.90339966594E+03 0.  0.
         23    2    4    4    0    0  0.67236012253E+02  0.11642950441E+03  0.81293026372E+03  0.82911424793E+03  0.92186287489E+02 0.  0.
         23    2    4    4    0    0 -0.10051660116E+03 -0.14779514487E+03 -0.18315637700E+03  0.27308242500E+03  0.95293024161E+02 0.  0.
          1    1    3    3  502    0  0.17721048286E+02  0.32153878221E+02 -0.78629497729E+02  0.86778484373E+02  0.00000000000E+00 0. -1.
         -1    1    3    3    0  502  0.15559540618E+02 -0.78823776128E+00 -0.52857770593E+03  0.52880725395E+03  0.00000000000E+00 0.  1.
         13    1    5    5    0    0  0.87373017786E+02  0.97035688013E+02  0.73032847727E+03  0.74190946462E+03  0.00000000000E+00 0. -1.
        -13    1    5    5    0    0 -0.20137005532E+02  0.19393816398E+02  0.82601786455E+02  0.87204783308E+02  0.00000000000E+00 0.  1.
          3    1    6    6  503    0 -0.11569811990E+03 -0.12819047009E+03 -0.13600741259E+03  0.21981098210E+03  0.00000000000E+00 0. -1.
         -3    1    6    6    0  503  0.15181518742E+02 -0.19604674780E+02 -0.47148964407E+02  0.53271442905E+02  0.00000000000E+00 0.  1.
<mgrwt>
<rscale>  0 0.17176342E+04</rscale>
<asrwt>0</asrwt>
<pdfrwt beam="1">  1        2 0.13387301E+00 0.17176342E+04</pdfrwt>
<pdfrwt beam="2">  1       -2 0.13040121E+00 0.17176342E+04</pdfrwt>
<totfact> 0.12582248E+01</totfact>
</mgrwt>
</event>
<event>
12    3  0.4806716E-008  0.1976645E+04  0.7818608E-02  0.8617619E-01
          1   -1    0    0  501    0  0.00000000000E+00  0.00000000000E+00  0.78064459275E+03  0.78064459275E+03  0.00000000000E+00 0. -1.
         -1   -1    0    0    0  501 -0.00000000000E+00 -0.00000000000E+00 -0.12512493190E+04  0.12512493190E+04  0.00000000000E+00 0.  1.
         23    2    1    2    0    0  0.17763080451E+03 -0.71556065581E+03  0.76579781713E+02  0.74603197852E+03  0.84377100879E+02 0.  0.
        254    2    1    2    0    0 -0.17763080451E+03  0.71556065581E+03 -0.54718450800E+03  0.12858619333E+04  0.90025011568E+03 0.  0.
         23    2    4    4    0    0 -0.32993887992E+03  0.38158235628E+03  0.11305687179E+03  0.52495405630E+03  0.91269632715E+02 0.  0.
         23    2    4    4    0    0  0.15230807541E+03  0.33397829953E+03 -0.66024137979E+03  0.76090787697E+03  0.91229727916E+02 0.  0.
          2    1    3    3  502    0  0.44244117959E+02 -0.12197395673E+03 -0.15653424218E+02  0.13069130722E+03  0.00000000000E+00 0. -1.
         -2    1    3    3    0  502  0.13338668655E+03 -0.59358669908E+03  0.92233205930E+02  0.61534067129E+03  0.00000000000E+00 0.  1.
         13    1    5    5    0    0 -0.11414114087E+03  0.20136490481E+03  0.53197496666E+02  0.23749947070E+03  0.00000000000E+00 0.  1.
        -13    1    5    5    0    0 -0.21579773905E+03  0.18021745147E+03  0.59859375125E+02  0.28745458560E+03  0.00000000000E+00 0. -1.
          4    1    6    6  503    0  0.15241160996E+03  0.32478357281E+03 -0.59330596825E+03  0.69334381081E+03  0.00000000000E+00 0. -1.
         -4    1    6    6    0  503 -0.10353454947E+00  0.91947267145E+01 -0.66935411534E+02  0.67564066159E+02  0.00000000000E+00 0.  1.
<mgrwt>
<rscale>  0 0.19766446E+04</rscale>
<asrwt>0</asrwt>
<pdfrwt beam="1">  1        1 0.12009917E+00 0.19766446E+04</pdfrwt>
<pdfrwt beam="2">  1       -1 0.19249990E+00 0.19766446E+04</pdfrwt>
<totfact> 0.36267342E+00</totfact>
</mgrwt>
</event>
<event>
12    3  0.4806716E-008  0.1986136E+04  0.7818608E-02  0.8613130E-01
          2   -1    0    0  501    0  0.00000000000E+00  0.00000000000E+00  0.22801662468E+04  0.22801662468E+04  0.00000000000E+00 0. -1.
         -2   -1    0    0    0  501 -0.00000000000E+00 -0.00000000000E+00 -0.43250550426E+03  0.43250550426E+03  0.00000000000E+00 0.  1.
         23    2    1    2    0    0 -0.20250019458E+03  0.53215928224E+03 -0.15302178207E+01  0.57645503061E+03  0.89990167611E+02 0.  0.
        254    2    1    2    0    0  0.20250019458E+03 -0.53215928224E+03  0.18491909604E+04  0.21362167205E+04  0.90538104597E+03 0.  0.
         23    2    4    4    0    0  0.66512181089E+02  0.23314283968E+03  0.69671630094E+03  0.74307392602E+03  0.89251339552E+02 0.  0.
         23    2    4    4    0    0  0.13598801350E+03 -0.76530212192E+03  0.11524746594E+04  0.13931427944E+04  0.92026775695E+02 0.  0.
          1    1    3    3  502    0 -0.17629851961E+02  0.65493674048E+01  0.41171391994E+01  0.19252447345E+02  0.00000000000E+00 0. -1.
         -1    1    3    3    0  502 -0.18487034262E+03  0.52560991484E+03 -0.56473570201E+01  0.55720258326E+03  0.00000000000E+00 0.  1.
         13    1    5    5    0    0  0.68872474747E+02  0.24065195998E+03  0.67965967646E+03  0.72428865752E+03  0.00000000000E+00 0.  1.
        -13    1    5    5    0    0 -0.23602936578E+01 -0.75091202957E+01  0.17056624482E+02  0.18785268497E+02  0.00000000000E+00 0. -1.
          3    1    6    6  503    0  0.71933185598E+02 -0.32244941732E+03  0.41377090887E+03  0.52948500918E+03  0.00000000000E+00 0. -1.
         -3    1    6    6    0  503  0.64054827898E+02 -0.44285270460E+03  0.73870375056E+03  0.86365778526E+03  0.00000000000E+00 0.  1.
<mgrwt>
<rscale>  0 0.19861364E+04</rscale>
<asrwt>0</asrwt>
<pdfrwt beam="1">  1        2 0.35079480E+00 0.19861364E+04</pdfrwt>
<pdfrwt beam="2">  1       -2 0.66539310E-01 0.19861364E+04</pdfrwt>
<totfact> 0.89833131E+00</totfact>
</mgrwt>
</event>
<event>
12    3  0.4806716E-008  0.2068843E+04  0.7818608E-02  0.8575094E-01
          2   -1    0    0  501    0  0.00000000000E+00  0.00000000000E+00  0.26050245837E+04  0.26050245837E+04  0.00000000000E+00 0. -1.
         -2   -1    0    0    0  501 -0.00000000000E+00 -0.00000000000E+00 -0.41075536822E+03  0.41075536822E+03  0.00000000000E+00 0.  1.
         23    2    1    2    0    0  0.24656431694E+03 -0.11644988679E+03 -0.25798398912E+03  0.38593647698E+03  0.89647571621E+02 0.  0.
        254    2    1    2    0    0 -0.24656431694E+03  0.11644988679E+03  0.24522532046E+04  0.26298434750E+04  0.91004196864E+03 0.  0.
         23    2    4    4    0    0 -0.14895798144E+03 -0.16941276064E+03  0.22253879649E+04  0.22386709373E+04  0.91688642909E+02 0.  0.
         23    2    4    4    0    0 -0.97606335497E+02  0.28586264743E+03  0.22686523970E+03  0.39117253770E+03  0.10150698173E+03 0.  0.
          3    1    3    3  502    0  0.16283023818E+03 -0.75231056706E+02 -0.10826575074E+03  0.20951102869E+03  0.00000000000E+00 0. -1.
         -3    1    3    3    0  502  0.83734078757E+02 -0.41218830083E+02 -0.14971823839E+03  0.17642544829E+03  0.00000000000E+00 0.  1.
         13    1    5    5    0    0 -0.46647465161E+02 -0.60016085393E+02  0.40072896750E+03  0.40787451736E+03  0.00000000000E+00 0. -1.
        -13    1    5    5    0    0 -0.10231051628E+03 -0.10939667524E+03  0.18246589974E+04  0.18307964199E+04  0.00000000000E+00 0.  1.
          1    1    6    6  503    0  0.38420758645E+01  0.11104968066E+03  0.11605627971E+03  0.16067312527E+03  0.00000000000E+00 0. -1.
         -1    1    6    6    0  503 -0.10144841136E+03  0.17481296676E+03  0.11080895999E+03  0.23049941243E+03  0.00000000000E+00 0.  1.
<mgrwt>
<rscale>  0 0.20688430E+04</rscale>
<asrwt>0</asrwt>
<pdfrwt beam="1">  1        2 0.40077300E+00 0.20688430E+04</pdfrwt>
<pdfrwt beam="2">  1       -2 0.63193135E-01 0.20688430E+04</pdfrwt>
<totfact> 0.64808042E+00</totfact>
</mgrwt>
</event>
<event>
12    3  0.4806716E-008  0.1452762E+04  0.7818608E-02  0.8916488E-01
         -1   -1    0    0    0  501 -0.00000000000E+00  0.00000000000E+00  0.10355240922E+04  0.10355240922E+04  0.00000000000E+00 0.  1.
          1   -1    0    0  501    0  0.00000000000E+00 -0.00000000000E+00 -0.50952852844E+03  0.50952852844E+03  0.00000000000E+00 0. -1.
         23    2    1    2    0    0  0.42569724385E+03  0.15009310431E+02  0.29195033469E+03  0.52442391408E+03  0.91334664325E+02 0.  0.
        254    2    1    2    0    0 -0.42569724385E+03 -0.15009310431E+02  0.23404522910E+03  0.10206287066E+04  0.89747555101E+03 0.  0.
         23    2    4    4    0    0  0.58075053270E+02  0.22890149450E+03 -0.19740774574E+03  0.32255083934E+03  0.96439721482E+02 0.  0.
         23    2    4    4    0    0 -0.48377229712E+03 -0.24391080493E+03  0.43145297484E+03  0.69807786727E+03  0.87366601439E+02 0.  0.
          1    1    3    3  502    0  0.57482949852E+01 -0.12033624672E+02  0.17563999622E+02  0.22053233339E+02  0.00000000000E+00 0. -1.
         -1    1    3    3    0  502  0.41994894886E+03  0.27042935103E+02  0.27438633507E+03  0.50237068074E+03  0.00000000000E+00 0.  1.
         13    1    5    5    0    0  0.64089390255E+01 -0.36750857393E+01 -0.31187355613E+02  0.32050458729E+02  0.00000000000E+00 0.  1.
        -13    1    5    5    0    0  0.51666114244E+02  0.23257658024E+03 -0.16622039013E+03  0.29050038061E+03  0.00000000000E+00 0. -1.
          3    1    6    6  503    0 -0.28366116834E+03 -0.14471242452E+03  0.30732438976E+03  0.44255352759E+03  0.00000000000E+00 0. -1.
         -3    1    6    6    0  503 -0.20011112877E+03 -0.99198380408E+02  0.12412858508E+03  0.25552433968E+03  0.00000000000E+00 0.  1.
<mgrwt>
<rscale>  0 0.14527616E+04</rscale>
<asrwt>0</asrwt>
<pdfrwt beam="1">  1        1 0.78389005E-01 0.14527616E+04</pdfrwt>
<pdfrwt beam="2">  1       -1 0.15931140E+00 0.14527616E+04</pdfrwt>
<totfact> 0.12400709E+01</totfact>
</mgrwt>
</event>
<event>
12    3  0.4806716E-008  0.1647660E+04  0.7818608E-02  0.8791792E-01
         -1   -1    0    0    0  501 -0.00000000000E+00  0.00000000000E+00  0.27147503609E+03  0.27147503609E+03  0.00000000000E+00 0.  1.
          1   -1    0    0  501    0  0.00000000000E+00 -0.00000000000E+00 -0.25000300181E+04  0.25000300181E+04  0.00000000000E+00 0. -1.
         23    2    1    2    0    0 -0.37452610004E+03 -0.29272616806E+03 -0.13241155587E+04  0.14095492523E+04  0.87112988652E+02 0.  0.
        254    2    1    2    0    0  0.37452610004E+03  0.29272616806E+03 -0.90443942332E+03  0.13619558019E+04  0.90053013653E+03 0.  0.
         23    2    4    4    0    0  0.46698950122E+02  0.42542594024E+01  0.16946501626E+03  0.19879816961E+03  0.92754675570E+02 0.  0.
         23    2    4    4    0    0  0.32782714991E+03  0.28847190865E+03 -0.10739044396E+04  0.11631576323E+04  0.94753627465E+02 0.  0.
          4    1    3    3  502    0 -0.14225446267E+03 -0.85392164401E+02 -0.57090377004E+03  0.59452440534E+03  0.00000000000E+00 0. -1.
         -4    1    3    3    0  502 -0.23227163736E+03 -0.20733400365E+03 -0.75321178869E+03  0.81502484699E+03  0.00000000000E+00 0.  1.
         13    1    5    5    0    0  0.30619818536E+02 -0.40517610623E+02  0.55107314535E+02  0.74940417486E+02  0.00000000000E+00 0.  1.
        -13    1    5    5    0    0  0.16079131586E+02  0.44771870026E+02  0.11435770172E+03  0.12385775212E+03  0.00000000000E+00 0. -1.
          1    1    6    6  503    0  0.12621248038E+03  0.56793349820E+02 -0.29350765587E+03  0.32450241731E+03  0.00000000000E+00 0. -1.
         -1    1    6    6    0  503  0.20161466953E+03  0.23167855883E+03 -0.78039678371E+03  0.83865521498E+03  0.00000000000E+00 0.  1.
<mgrwt>
<rscale>  0 0.16476598E+04</rscale>
<asrwt>0</asrwt>
<pdfrwt beam="1">  1        1 0.38461999E+00 0.16476598E+04</pdfrwt>
<pdfrwt beam="2">  1       -1 0.41765392E-01 0.16476598E+04</pdfrwt>
<totfact> 0.72968164E+00</totfact>
</mgrwt>
</event>
<event>
12    3  0.4806716E-008  0.1106989E+04  0.7818608E-02  0.9198407E-01
          1   -1    0    0  501    0  0.00000000000E+00  0.00000000000E+00  0.31050815004E+03  0.31050815004E+03  0.00000000000E+00 0. -1.
         -1   -1    0    0    0  501 -0.00000000000E+00 -0.00000000000E+00 -0.98662803425E+03  0.98662803425E+03  0.00000000000E+00 0.  1.
         23    2    1    2    0    0  0.19961699534E+03  0.16676941814E+03 -0.20350194915E+03  0.34316956200E+03  0.93237982162E+02 0.  0.
        254    2    1    2    0    0 -0.19961699534E+03 -0.16676941814E+03 -0.47261793507E+03  0.95396662229E+03  0.78678181234E+03 0.  0.
         23    2    4    4    0    0  0.26363015911E+03  0.82479774493E+02 -0.16953537906E+03  0.34002994567E+03  0.10283163522E+03 0.  0.
         23    2    4    4    0    0 -0.46324715446E+03 -0.24924919263E+03 -0.30308255600E+03  0.61393667662E+03  0.91302360340E+02 0.  0.
          4    1    3    3  502    0  0.16535019821E+03  0.12224193520E+03 -0.20003565550E+03  0.28687635358E+03  0.00000000000E+00 0. -1.
         -4    1    3    3    0  502  0.34266797129E+02  0.44527482941E+02 -0.34662936483E+01  0.56293208420E+02  0.00000000000E+00 0.  1.
         13    1    5    5    0    0  0.16725923181E+03  0.16298474707E+02 -0.14178712061E+03  0.21987468812E+03  0.00000000000E+00 0.  1.
        -13    1    5    5    0    0  0.96370927301E+02  0.66181299786E+02 -0.27748258459E+02  0.12015525755E+03  0.00000000000E+00 0. -1.
          4    1    6    6  503    0 -0.26287092376E+03 -0.19192647528E+03 -0.18248071279E+03  0.37314354478E+03  0.00000000000E+00 0. -1.
         -4    1    6    6    0  503 -0.20037623070E+03 -0.57322717351E+02 -0.12060184321E+03  0.24079313184E+03  0.00000000000E+00 0.  1.
<mgrwt>
<rscale>  0 0.11069888E+04</rscale>
<asrwt>0</asrwt>
<pdfrwt beam="1">  1        1 0.47770485E-01 0.11069888E+04</pdfrwt>
<pdfrwt beam="2">  1       -1 0.15178893E+00 0.11069888E+04</pdfrwt>
<totfact> 0.28209604E+01</totfact>
</mgrwt>
</event>
<event>
12    3  0.4806716E-008  0.1844168E+04  0.7818608E-02  0.8683158E-01
         -2   -1    0    0    0  501 -0.00000000000E+00  0.00000000000E+00  0.86504664856E+03  0.86504664856E+03  0.00000000000E+00 0. -1.
          2   -1    0    0  501    0  0.00000000000E+00 -0.00000000000E+00 -0.98288220438E+03  0.98288220438E+03  0.00000000000E+00 0.  1.
         23    2    1    2    0    0 -0.14404000879E+03  0.54373619667E+03  0.36387257574E+03  0.67581971516E+03  0.89064360563E+02 0.  0.
        254    2    1    2    0    0  0.14404000879E+03 -0.54373619667E+03 -0.48170813156E+03  0.11721091378E+04  0.90851556461E+03 0.  0.
         23    2    4    4    0    0 -0.85783095060E+02  0.74007000828E+02  0.18103216001E+03  0.23255868042E+03  0.92060422067E+02 0.  0.
         23    2    4    4    0    0  0.22982310385E+03 -0.61774319750E+03 -0.66274029156E+03  0.93955045735E+03  0.95420389475E+02 0.  0.
          4    1    3    3  502    0 -0.48170742562E+02  0.32771841891E+03  0.23951294431E+03  0.40876182922E+03  0.00000000000E+00 0.  1.
         -4    1    3    3    0  502 -0.95869266231E+02  0.21601777776E+03  0.12435963143E+03  0.26705788595E+03  0.00000000000E+00 0. -1.
         13    1    5    5    0    0 -0.72683239597E+02  0.94758866861E+02  0.13389325338E+03  0.17941432348E+03  0.00000000000E+00 0. -1.
        -13    1    5    5    0    0 -0.13099855464E+02 -0.20751866033E+02  0.47138906624E+02  0.53144356942E+02  0.00000000000E+00 0.  1.
          3    1    6    6  503    0  0.14443882230E+03 -0.25756817862E+03 -0.27570773428E+03  0.40400333510E+03  0.00000000000E+00 0. -1.
         -3    1    6    6    0  503  0.85384281548E+02 -0.36017501888E+03 -0.38703255728E+03  0.53554712226E+03  0.00000000000E+00 0.  1.
<mgrwt>
<rscale>  0 0.18441681E+04</rscale>
<asrwt>0</asrwt>
<pdfrwt beam="1">  1        2 0.15121265E+00 0.18441681E+04</pdfrwt>
<pdfrwt beam="2">  1       -2 0.13308410E+00 0.18441681E+04</pdfrwt>
<totfact> 0.99456456E+00</totfact>
</mgrwt>
</event>
<event>
12    3  0.4806716E-008  0.1462124E+04  0.7818608E-02  0.8910038E-01
         -1   -1    0    0    0  501 -0.00000000000E+00  0.00000000000E+00  0.57627681002E+03  0.57627681002E+03  0.00000000000E+00 0.  1.
          1   -1    0    0  501    0  0.00000000000E+00 -0.00000000000E+00 -0.92742130916E+03  0.92742130916E+03  0.00000000000E+00 0. -1.
         23    2    1    2    0    0 -0.30170461426E+02  0.31633049345E+03 -0.42950531052E+03  0.54199824416E+03  0.91170428803E+02 0.  0.
        254    2    1    2    0    0  0.30170461426E+02 -0.31633049345E+03  0.78360811377E+02  0.96169987502E+03  0.90429585591E+03 0.  0.
         23    2    4    4    0    0 -0.20692332636E+03 -0.77714307603E+02 -0.34129824666E+03  0.41663573366E+03  0.90796832494E+02 0.  0.
         23    2    4    4    0    0  0.23709378779E+03 -0.23861618585E+03  0.41965905803E+03  0.54506414136E+03  0.88487540646E+02 0.  0.
          1    1    3    3  502    0 -0.32895959231E+02  0.32165574187E+03 -0.41346626305E+03  0.52487990159E+03  0.00000000000E+00 0. -1.
         -1    1    3    3    0  502  0.27254978058E+01 -0.53252484177E+01 -0.16039047466E+02  0.17118342578E+02  0.00000000000E+00 0.  1.
         13    1    5    5    0    0 -0.12441833622E+03 -0.22401860191E+02 -0.12106530351E+03  0.17503877697E+03  0.00000000000E+00 0. -1.
        -13    1    5    5    0    0 -0.82504990147E+02 -0.55312447412E+02 -0.22023294314E+03  0.24159695669E+03  0.00000000000E+00 0.  1.
          3    1    6    6  503    0  0.60521394729E+02 -0.36592870286E+02  0.43545280021E+02  0.83054613284E+02  0.00000000000E+00 0. -1.
         -3    1    6    6    0  503  0.17657239306E+03 -0.20202331556E+03  0.37611377801E+03  0.46200952807E+03  0.00000000000E+00 0.  1.
<mgrwt>
<rscale>  0 0.14621237E+04</rscale>
<asrwt>0</asrwt>
<pdfrwt beam="1">  1        1 0.14268020E+00 0.14621237E+04</pdfrwt>
<pdfrwt beam="2">  1       -1 0.88657971E-01 0.14621237E+04</pdfrwt>
<totfact> 0.20945942E+01</totfact>
</mgrwt>
</event>
<event>
12    3  0.4806716E-008  0.1834610E+04  0.7818608E-02  0.8688108E-01
          3   -1    0    0  501    0  0.00000000000E+00  0.00000000000E+00  0.91676641316E+03  0.91676641316E+03  0.00000000000E+00 0. -1.
         -3   -1    0    0    0  501 -0.00000000000E+00 -0.00000000000E+00 -0.91784352757E+03  0.91784352757E+03  0.00000000000E+00 0.  1.
         23    2    1    2    0    0  0.33506446338E+03  0.54782713593E+02 -0.60029360993E+03  0.69636991214E+03  0.96484693533E+02 0.  0.
        254    2    1    2    0    0 -0.33506446338E+03 -0.54782713593E+02  0.59921649552E+03  0.11382400286E+04  0.90623430407E+03 0.  0.
         23    2    4    4    0    0  0.25329537567E+03 -0.19490723113E+03  0.33487291213E+03  0.47148957517E+03  0.89527516077E+02 0.  0.
         23    2    4    4    0    0 -0.58835983904E+03  0.14012451754E+03  0.26434358339E+03  0.66675045343E+03  0.94214948136E+02 0.  0.
          3    1    3    3  502    0  0.11689545088E+03  0.33603135912E+02 -0.13305102124E+03  0.18026727777E+03  0.00000000000E+00 0. -1.
         -3    1    3    3    0  502  0.21816901249E+03  0.21179577681E+02 -0.46724258868E+03  0.51610263437E+03  0.00000000000E+00 0.  1.
         13    1    5    5    0    0  0.51549992494E+02 -0.16355428866E+02  0.10170464020E+03  0.11518999791E+03  0.00000000000E+00 0. -1.
        -13    1    5    5    0    0  0.20174538317E+03 -0.17855180226E+03  0.23316827193E+03  0.35629957726E+03  0.00000000000E+00 0.  1.
          3    1    6    6  503    0 -0.67602667743E+02  0.21354893869E+02  0.66364495863E+02  0.97110238849E+02  0.00000000000E+00 0. -1.
         -3    1    6    6    0  503 -0.52075717130E+03  0.11876962367E+03  0.19797908752E+03  0.56964021458E+03  0.00000000000E+00 0.  1.
<mgrwt>
<rscale>  0 0.18346096E+04</rscale>
<asrwt>0</asrwt>
<pdfrwt beam="1">  1        3 0.14104099E+00 0.18346096E+04</pdfrwt>
<pdfrwt beam="2">  1       -3 0.14120670E+00 0.18346096E+04</pdfrwt>
<totfact> 0.35163930E-01</totfact>
</mgrwt>
</event>
<event>
12    3  0.4806716E-008  0.2244481E+04  0.7818608E-02  0.8500139E-01
         -2   -1    0    0    0  501 -0.00000000000E+00  0.00000000000E+00  0.92551024152E+03  0.92551024152E+03  0.00000000000E+00 0.  1.
          2   -1    0    0  501    0  0.00000000000E+00 -0.00000000000E+00 -0.13607879689E+04  0.13607879689E+04  0.00000000000E+00 0. -1.
         23    2    1    2    0    0  0.53485578194E+03  0.50556486741E+02 -0.96089738980E+03  0.11047448693E+04  0.92253816376E+02 0.  0.
        254    2    1    2    0    0 -0.53485578194E+03 -0.50556486741E+02  0.52561966241E+03  0.11815533412E+04  0.91168284105E+03 0.  0.
         23    2    4    4    0    0 -0.37299601425E+02 -0.39722913573E+03  0.36512027744E+03  0.54825239364E+03  0.89920095598E+02 0.  0.
         23    2    4    4    0    0 -0.49755618052E+03  0.34667264899E+03  0.16049938497E+03  0.63330094752E+03  0.86982522523E+02 0.  0.
          3    1    3    3  502    0  0.41350658078E+03  0.77628432299E+02 -0.74733553032E+03  0.85762711054E+03  0.00000000000E+00 0. -1.
         -3    1    3    3    0  502  0.12134920117E+03 -0.27071945557E+02 -0.21356185948E+03  0.24711775874E+03  0.00000000000E+00 0.  1.
         13    1    5    5    0    0  0.92010968721E+01 -0.53965001191E+02  0.17419166412E+02  0.57448314994E+02  0.00000000000E+00 0.  1.
        -13    1    5    5    0    0 -0.46500698297E+02 -0.34326413454E+03  0.34770111103E+03  0.49080407864E+03  0.00000000000E+00 0. -1.
          4    1    6    6  503    0 -0.18544402596E+03  0.12086672100E+03  0.10173298880E+03  0.24361414577E+03  0.00000000000E+00 0.  1.
         -4    1    6    6    0  503 -0.31211215456E+03  0.22580592799E+03  0.58766396168E+02  0.38968680175E+03  0.00000000000E+00 0. -1.
<mgrwt>
<rscale>  0 0.22444805E+04</rscale>
<asrwt>0</asrwt>
<pdfrwt beam="1">  1        2 0.20935200E+00 0.22444805E+04</pdfrwt>
<pdfrwt beam="2">  1       -2 0.14238619E+00 0.22444805E+04</pdfrwt>
<totfact> 0.47713555E+00</totfact>
</mgrwt>
</event>
<event>
12    3  0.4806716E-008  0.1546699E+04  0.7818608E-02  0.8853979E-01
         -4   -1    0    0    0  501 -0.00000000000E+00  0.00000000000E+00  0.98465905628E+03  0.98465905628E+03  0.00000000000E+00 0.  1.
          4   -1    0    0  501    0  0.00000000000E+00 -0.00000000000E+00 -0.60738700097E+03  0.60738700097E+03  0.00000000000E+00 0. -1.
         23    2    1    2    0    0 -0.14682897257E+03  0.78858861700E+01 -0.36943381585E+03  0.40840133760E+03  0.93216811094E+02 0.  0.
        254    2    1    2    0    0  0.14682897257E+03 -0.78858861700E+01  0.74670587116E+03  0.11836447197E+04  0.90654521671E+03 0.  0.
         23    2    4    4    0    0  0.23097608857E+03  0.25499305403E+03 -0.27194198335E+02  0.35699835322E+03  0.91306564328E+02 0.  0.
         23    2    4    4    0    0 -0.84147116001E+02 -0.26287894020E+03  0.77390006950E+03  0.82664636643E+03  0.90756945916E+02 0.  0.
          3    1    3    3  502    0 -0.11024914082E+03 -0.32141391683E+02 -0.20146191731E+03  0.23189404097E+03  0.00000000000E+00 0. -1.
         -3    1    3    3    0  502 -0.36579831744E+02  0.40027277853E+02 -0.16797189854E+03  0.17650729663E+03  0.00000000000E+00 0.  1.
         13    1    5    5    0    0  0.48062065757E+02  0.36337823694E+02 -0.38838843646E+02  0.71685810112E+02  0.00000000000E+00 0.  1.
        -13    1    5    5    0    0  0.18291402281E+03  0.21865523033E+03  0.11644645310E+02  0.28531254311E+03  0.00000000000E+00 0. -1.
          1    1    6    6  503    0 -0.34196283290E+02 -0.16821676137E+03  0.35551517340E+03  0.39478766839E+03  0.00000000000E+00 0. -1.
         -1    1    6    6    0  503 -0.49950832711E+02 -0.94662178831E+02  0.41838489610E+03  0.43185869804E+03  0.00000000000E+00 0.  1.
<mgrwt>
<rscale>  0 0.15466986E+04</rscale>
<asrwt>0</asrwt>
<pdfrwt beam="1">  1        4 0.93444154E-01 0.15466986E+04</pdfrwt>
<pdfrwt beam="2">  1       -4 0.15148601E+00 0.15466986E+04</pdfrwt>
<totfact> 0.54151943E-01</totfact>
</mgrwt>
</event>
<event>
12    3  0.4806716E-008  0.1751454E+04  0.7818608E-02  0.8732550E-01
         -2   -1    0    0    0  501 -0.00000000000E+00  0.00000000000E+00  0.31332771210E+03  0.31332771210E+03  0.00000000000E+00 0.  1.
          2   -1    0    0  501    0  0.00000000000E+00 -0.00000000000E+00 -0.24475901823E+04  0.24475901823E+04  0.00000000000E+00 0. -1.
         23    2    1    2    0    0  0.17566753826E+03  0.35698964614E+03 -0.15815509759E+04  0.16333688341E+04  0.91047060032E+02 0.  0.
        254    2    1    2    0    0 -0.17566753826E+03 -0.35698964614E+03 -0.55271149421E+03  0.11275490603E+04  0.89865243340E+03 0.  0.
         23    2    4    4    0    0 -0.16926123135E+03  0.27229007624E+03 -0.28651709222E+03  0.43819671021E+03  0.84457460580E+02 0.  0.
         23    2    4    4    0    0 -0.64063069081E+01 -0.62927972238E+03 -0.26619440200E+03  0.68935235007E+03  0.91176713764E+02 0.  0.
          2    1    3    3  502    0  0.16001958015E+03  0.33380845443E+03 -0.13395972886E+04  0.13898040315E+04  0.00000000000E+00 0. -1.
         -2    1    3    3    0  502  0.15647958114E+02  0.23181191708E+02 -0.24195368733E+03  0.24356480258E+03  0.00000000000E+00 0.  1.
         13    1    5    5    0    0 -0.49187288465E+02  0.14804211924E+03 -0.10788001197E+03  0.18966801364E+03  0.00000000000E+00 0.  1.
        -13    1    5    5    0    0 -0.12007394289E+03  0.12424795700E+03 -0.17863708024E+03  0.24852869657E+03  0.00000000000E+00 0. -1.
          2    1    6    6  503    0  0.39162309335E+02 -0.18085246963E+03 -0.71875949131E+02  0.19851310865E+03  0.00000000000E+00 0. -1.
         -2    1    6    6    0  503 -0.45568616244E+02 -0.44842725275E+03 -0.19431845286E+03  0.49083924142E+03  0.00000000000E+00 0.  1.
<mgrwt>
<rscale>  0 0.17514541E+04</rscale>
<asrwt>0</asrwt>
<pdfrwt beam="1">  1        2 0.37655234E+00 0.17514541E+04</pdfrwt>
<pdfrwt beam="2">  1       -2 0.48204262E-01 0.17514541E+04</pdfrwt>
<totfact> 0.14438990E+01</totfact>
</mgrwt>
</event>
<event>
12    3  0.4806716E-008  0.1265397E+04  0.7818608E-02  0.9057465E-01
          2   -1    0    0  501    0  0.00000000000E+00  0.00000000000E+00  0.29518654023E+04  0.29518654023E+04  0.00000000000E+00 0.  1.
         -2   -1    0    0    0  501 -0.00000000000E+00 -0.00000000000E+00 -0.13561165256E+03  0.13561165256E+03  0.00000000000E+00 0. -1.
         23    2    1    2    0    0 -0.21138994068E+03 -0.15893833651E+03  0.35195844949E+03  0.44927762018E+03  0.89602053520E+02 0.  0.
        254    2    1    2    0    0  0.21138994068E+03  0.15893833651E+03  0.24642953003E+04  0.26381994347E+04  0.90410056329E+03 0.  0.
         23    2    4    4    0    0  0.54266026831E+03  0.87874919773E+02  0.11524226679E+04  0.12801455253E+04  0.92154176472E+02 0.  0.
         23    2    4    4    0    0 -0.33127032763E+03  0.71063416734E+02  0.13118726324E+04  0.13580539094E+04  0.92252794049E+02 0.  0.
          4    1    3    3  502    0 -0.20047479466E+03 -0.12412961246E+03  0.26352410840E+03  0.35361456375E+03  0.00000000000E+00 0. -1.
         -4    1    3    3    0  502 -0.10915146015E+02 -0.34808724051E+02  0.88434341088E+02  0.95663056434E+02  0.00000000000E+00 0.  1.
         13    1    5    5    0    0  0.26553040483E+03  0.14919428357E+02  0.47063645009E+03  0.54058084815E+03  0.00000000000E+00 0.  1.
        -13    1    5    5    0    0  0.27712986348E+03  0.72955491416E+02  0.68178621777E+03  0.73956467716E+03  0.00000000000E+00 0. -1.
          3    1    6    6  503    0 -0.32894259500E+03  0.80369745144E+02  0.12960067308E+04  0.13395133344E+04  0.00000000000E+00 0. -1.
         -3    1    6    6    0  503 -0.23277326332E+01 -0.93063284098E+01  0.15865901589E+02  0.18540574989E+02  0.00000000000E+00 0.  1.
<mgrwt>
<rscale>  0 0.12653969E+04</rscale>
<asrwt>0</asrwt>
<pdfrwt beam="1">  1        2 0.45413309E+00 0.12653969E+04</pdfrwt>
<pdfrwt beam="2">  1       -2 0.20863333E-01 0.12653969E+04</pdfrwt>
<totfact> 0.36792689E+01</totfact>
</mgrwt>
</event>
<event>
12    3  0.4806716E-008  0.1609929E+04  0.7818608E-02  0.8814471E-01
          1   -1    0    0  501    0  0.00000000000E+00  0.00000000000E+00  0.10598011025E+04  0.10598011025E+04  0.00000000000E+00 0. -1.
         -1   -1    0    0    0  501 -0.00000000000E+00 -0.00000000000E+00 -0.61140520068E+03  0.61140520068E+03  0.00000000000E+00 0.  1.
         23    2    1    2    0    0  0.37011233327E+03 -0.38417235963E+03  0.33735921551E+02  0.54186760853E+03  0.88942968402E+02 0.  0.
        254    2    1    2    0    0 -0.37011233327E+03  0.38417235963E+03  0.41465998026E+03  0.11293386946E+04  0.90492621072E+03 0.  0.
         23    2    4    4    0    0 -0.46813372130E+02 -0.27671728347E+03  0.20410991108E+03  0.35873953305E+03  0.90935416605E+02 0.  0.
         23    2    4    4    0    0 -0.32329896114E+03  0.66088964310E+03  0.21055006917E+03  0.77059916159E+03  0.90522911927E+02 0.  0.
          4    1    3    3  502    0  0.21414760133E+03 -0.17705619995E+03  0.48981024971E+02  0.28214753925E+03  0.00000000000E+00 0. -1.
         -4    1    3    3    0  502  0.15596473194E+03 -0.20711615968E+03 -0.15245103421E+02  0.25972006928E+03  0.00000000000E+00 0.  1.
         13    1    5    5    0    0 -0.52589581676E+02 -0.25039058430E+03  0.14574868779E+03  0.29445507094E+03  0.00000000000E+00 0. -1.
        -13    1    5    5    0    0  0.57762095461E+01 -0.26326699168E+02  0.58361223289E+02  0.64284462116E+02  0.00000000000E+00 0.  1.
          2    1    6    6  503    0 -0.31783877078E+03  0.66164891263E+03  0.21336164253E+03  0.76441085700E+03  0.00000000000E+00 0. -1.
         -2    1    6    6    0  503 -0.54601903584E+01 -0.75926952859E+00 -0.28115733579E+01  0.61883045912E+01  0.00000000000E+00 0.  1.
<mgrwt>
<rscale>  0 0.16099291E+04</rscale>
<asrwt>0</asrwt>
<pdfrwt beam="1">  1        1 0.16304632E+00 0.16099291E+04</pdfrwt>
<pdfrwt beam="2">  1       -1 0.94062339E-01 0.16099291E+04</pdfrwt>
<totfact> 0.14281019E+01</totfact>
</mgrwt>
</event>
<event>
12    3  0.4806716E-008  0.1598478E+04  0.7818608E-02  0.8821483E-01
          1   -1    0    0  501    0  0.00000000000E+00  0.00000000000E+00  0.73547172452E+03  0.73547172452E+03  0.00000000000E+00 0. -1.
         -1   -1    0    0    0  501 -0.00000000000E+00 -0.00000000000E+00 -0.86853545407E+03  0.86853545407E+03  0.00000000000E+00 0.  1.
         23    2    1    2    0    0 -0.49220440040E+03  0.20772518257E+03  0.22417156660E+02  0.54244427272E+03  0.91259721944E+02 0.  0.
        254    2    1    2    0    0  0.49220440040E+03 -0.20772518257E+03 -0.15548088622E+03  0.10615629059E+04  0.90406115606E+03 0.  0.
         23    2    4    4    0    0  0.26841013977E+03  0.74793837652E+02 -0.48392740789E+03  0.56558342344E+03  0.89781687865E+02 0.  0.
         23    2    4    4    0    0  0.22379426063E+03 -0.28251902022E+03  0.32844652168E+03  0.49597948243E+03  0.90651318297E+02 0.  0.
          3    1    3    3  502    0 -0.23043575923E+03  0.14290538746E+03  0.28941698413E+02  0.27269068705E+03  0.00000000000E+00 0. -1.
         -3    1    3    3    0  502 -0.26176864117E+03  0.64819795112E+02 -0.65245417522E+01  0.26975358567E+03  0.00000000000E+00 0.  1.
         13    1    5    5    0    0  0.14923375688E+03  0.86142688107E+02 -0.30478291018E+03  0.35011983555E+03  0.00000000000E+00 0.  1.
        -13    1    5    5    0    0  0.11917638289E+03 -0.11348850455E+02 -0.17914449771E+03  0.21546358789E+03  0.00000000000E+00 0. -1.
          2    1    6    6  503    0  0.11943293659E+03 -0.18248890553E+03  0.24906678322E+03  0.33105994847E+03  0.00000000000E+00 0. -1.
         -2    1    6    6    0  503  0.10436132404E+03 -0.10003011470E+03  0.79379738463E+02  0.16491953395E+03  0.00000000000E+00 0.  1.
<mgrwt>
<rscale>  0 0.15984784E+04</rscale>
<asrwt>0</asrwt>
<pdfrwt beam="1">  1        1 0.11314950E+00 0.15984784E+04</pdfrwt>
<pdfrwt beam="2">  1       -1 0.13362084E+00 0.15984784E+04</pdfrwt>
<totfact> 0.11461871E+01</totfact>
</mgrwt>
</event>
<event>
12    3  0.4806716E-008  0.2514376E+04  0.7818608E-02  0.8397882E-01
         -1   -1    0    0    0  501 -0.00000000000E+00  0.00000000000E+00  0.97304204638E+03  0.97304204638E+03  0.00000000000E+00 0.  1.
          1   -1    0    0  501    0  0.00000000000E+00 -0.00000000000E+00 -0.16243092111E+04  0.16243092111E+04  0.00000000000E+00 0. -1.
         23    2    1    2    0    0 -0.76580889823E+03 -0.78051047684E+03 -0.23035986022E+03  0.11213516477E+04  0.93295120502E+02 0.  0.
        254    2    1    2    0    0  0.76580889823E+03  0.78051047684E+03 -0.42090730446E+03  0.14759996098E+04  0.89763690654E+03 0.  0.
         23    2    4    4    0    0  0.84059795725E+03  0.31731098911E+03 -0.11865148807E+03  0.91066236543E+03  0.89087477487E+02 0.  0.
         23    2    4    4    0    0 -0.74789059025E+02  0.46319948772E+03 -0.30225581638E+03  0.56533724432E+03  0.90002513844E+02 0.  0.
          3    1    3    3  502    0 -0.58090681798E+03 -0.58236351384E+03 -0.13224473046E+03  0.83311983662E+03  0.00000000000E+00 0. -1.
         -3    1    3    3    0  502 -0.18490208024E+03 -0.19814696300E+03 -0.98115129759E+02  0.28823181107E+03  0.00000000000E+00 0.  1.
         13    1    5    5    0    0  0.22092462767E+03  0.59400967008E+02 -0.62280030409E+02  0.23709695945E+03  0.00000000000E+00 0. -1.
        -13    1    5    5    0    0  0.61967332958E+03  0.25791002211E+03 -0.56371457665E+02  0.67356540598E+03  0.00000000000E+00 0.  1.
          2    1    6    6  503    0 -0.23181363411E+02  0.32963794749E+03 -0.24391483054E+03  0.41072252993E+03  0.00000000000E+00 0.  1.
         -2    1    6    6    0  503 -0.51607695614E+02  0.13356154024E+03 -0.58340985846E+02  0.15461471439E+03  0.00000000000E+00 0. -1.
<mgrwt>
<rscale>  0 0.25143756E+04</rscale>
<asrwt>0</asrwt>
<pdfrwt beam="1">  1        1 0.24989373E+00 0.25143756E+04</pdfrwt>
<pdfrwt beam="2">  1       -1 0.14969878E+00 0.25143756E+04</pdfrwt>
<totfact> 0.16714134E+00</totfact>
</mgrwt>
</event>
<event>
12    3  0.4806716E-008  0.1303399E+04  0.7818608E-02  0.9026874E-01
          2   -1    0    0  501    0  0.00000000000E+00  0.00000000000E+00  0.17778162758E+04  0.17778162758E+04  0.00000000000E+00 0.  1.
         -2   -1    0    0    0  501 -0.00000000000E+00 -0.00000000000E+00 -0.23889528015E+03  0.23889528015E+03  0.00000000000E+00 0. -1.
         23    2    1    2    0    0  0.31059281989E+03 -0.67230904348E+02  0.62979691064E+03  0.71163591531E+03  0.93774373043E+02 0.  0.
        254    2    1    2    0    0 -0.31059281989E+03  0.67230904348E+02  0.90912408498E+03  0.13050756406E+04  0.88075418340E+03 0.  0.
         23    2    4    4    0    0 -0.12415497453E+03  0.20260773893E+03  0.10074511856E+04  0.10389775139E+04  0.89733101623E+02 0.  0.
         23    2    4    4    0    0 -0.18643784536E+03 -0.13537683458E+03 -0.98327100592E+02  0.26609812671E+03  0.89744285631E+02 0.  0.
          1    1    3    3  502    0  0.92132277009E+02 -0.11289747339E+02  0.10330081711E+03  0.13887718919E+03  0.00000000000E+00 0. -1.
         -1    1    3    3    0  502  0.21846054288E+03 -0.55941157010E+02  0.52649609352E+03  0.57275872611E+03  0.00000000000E+00 0.  1.
         13    1    5    5    0    0 -0.96949249040E+02  0.83285350394E+02  0.42476028171E+03  0.44357288397E+03  0.00000000000E+00 0. -1.
        -13    1    5    5    0    0 -0.27205725493E+02  0.11932238853E+03  0.58269090387E+03  0.59540462994E+03  0.00000000000E+00 0.  1.
          1    1    6    6  503    0 -0.25863969148E+02 -0.40358417590E+02 -0.57935976014E+02  0.75195239791E+02  0.00000000000E+00 0. -1.
         -1    1    6    6    0  503 -0.16057387621E+03 -0.95018416989E+02 -0.40391124578E+02  0.19090288692E+03  0.00000000000E+00 0.  1.
<mgrwt>
<rscale>  0 0.13033985E+04</rscale>
<asrwt>0</asrwt>
<pdfrwt beam="1">  1        2 0.27351019E+00 0.13033985E+04</pdfrwt>
<pdfrwt beam="2">  1       -2 0.36753121E-01 0.13033985E+04</pdfrwt>
<totfact> 0.60663300E+01</totfact>
</mgrwt>
</event>
<event>
12    3  0.4806716E-008  0.1181043E+04  0.7818608E-02  0.9129613E-01
         -2   -1    0    0    0  501 -0.00000000000E+00  0.00000000000E+00  0.65787490523E+03  0.65787490523E+03  0.00000000000E+00 0.  1.
          2   -1    0    0  501    0  0.00000000000E+00 -0.00000000000E+00 -0.53006415021E+03  0.53006415021E+03  0.00000000000E+00 0. -1.
         23    2    1    2    0    0 -0.13641295472E+03 -0.76283833271E+02 -0.14933297277E+03  0.23438135209E+03  0.90590087867E+02 0.  0.
        254    2    1    2    0    0  0.13641295472E+03  0.76283833271E+02  0.27714372778E+03  0.95355770335E+03  0.89890818793E+03 0.  0.
         23    2    4    4    0    0  0.35296150905E+02  0.38898771167E+03  0.42325275141E+03  0.58240145760E+03  0.86552343339E+02 0.  0.
         23    2    4    4    0    0  0.10111680381E+03 -0.31270387840E+03 -0.14610902362E+03  0.37115624575E+03  0.91655814818E+02 0.  0.
          1    1    3    3  502    0 -0.12780514176E+03 -0.80173852852E+02 -0.16014844452E+03  0.22002164717E+03  0.00000000000E+00 0. -1.
         -1    1    3    3    0  502 -0.86078129562E+01  0.38900195806E+01  0.10815471752E+02  0.14359704922E+02  0.00000000000E+00 0.  1.
         13    1    5    5    0    0 -0.22577265917E+02  0.21052421178E+03  0.24175123784E+03  0.32136247086E+03  0.00000000000E+00 0. -1.
        -13    1    5    5    0    0  0.57873416822E+02  0.17846349989E+03  0.18150151357E+03  0.26103898674E+03  0.00000000000E+00 0.  1.
          3    1    6    6  503    0  0.11176974864E+03 -0.25918044130E+03 -0.14320989948E+03  0.31650600811E+03  0.00000000000E+00 0. -1.
         -3    1    6    6    0  503 -0.10652944823E+02 -0.53523437102E+02 -0.28991241491E+01  0.54650237634E+02  0.00000000000E+00 0.  1.
<mgrwt>
<rscale>  0 0.11810434E+04</rscale>
<asrwt>0</asrwt>
<pdfrwt beam="1">  1        2 0.81548330E-01 0.11810434E+04</pdfrwt>
<pdfrwt beam="2">  1       -2 0.10121152E+00 0.11810434E+04</pdfrwt>
<totfact> 0.45613363E+01</totfact>
</mgrwt>
</event>
<event>
12    3  0.4806716E-008  0.1855459E+04  0.7818608E-02  0.8677351E-01
         -1   -1    0    0    0  501 -0.00000000000E+00  0.00000000000E+00  0.12945783617E+04  0.12945783617E+04  0.00000000000E+00 0.  1.
          1   -1    0    0  501    0  0.00000000000E+00 -0.00000000000E+00 -0.66483580282E+03  0.66483580282E+03  0.00000000000E+00 0. -1.
         23    2    1    2    0    0  0.57273499121E+03 -0.35449985788E+03  0.45898104259E+03  0.82009645764E+03  0.90548787907E+02 0.  0.
        254    2    1    2    0    0 -0.57273499121E+03  0.35449985788E+03  0.17076151629E+03  0.11393177069E+04  0.90287863101E+03 0.  0.
         23    2    4    4    0    0  0.89700752815E+02 -0.18210763503E+03  0.17254975626E+03  0.28199158185E+03  0.92392738121E+02 0.  0.
         23    2    4    4    0    0 -0.66243574402E+03  0.53660749291E+03 -0.17882399767E+01  0.85732612501E+03  0.90753349338E+02 0.  0.
          1    1    3    3  502    0  0.30576067823E+03 -0.20595746940E+03  0.19901571741E+03  0.41894549447E+03  0.00000000000E+00 0. -1.
         -1    1    3    3    0  502  0.26697431297E+03 -0.14854238847E+03  0.25996532518E+03  0.40115096318E+03  0.00000000000E+00 0.  1.
         13    1    5    5    0    0  0.74024114472E+02 -0.51946520512E+02  0.86719655619E+02  0.12529289360E+03  0.00000000000E+00 0. -1.
        -13    1    5    5    0    0  0.15676638342E+02 -0.13016111452E+03  0.85830100643E+02  0.15669868825E+03  0.00000000000E+00 0.  1.
          2    1    6    6  503    0 -0.56824224796E+03  0.43058972846E+03 -0.26129063899E+02  0.71343499676E+03  0.00000000000E+00 0. -1.
         -2    1    6    6    0  503 -0.94193496061E+02  0.10601776445E+03  0.24340823923E+02  0.14389112825E+03  0.00000000000E+00 0.  1.
<mgrwt>
<rscale>  0 0.18554590E+04</rscale>
<asrwt>0</asrwt>
<pdfrwt beam="1">  1        1 0.10228243E+00 0.18554590E+04</pdfrwt>
<pdfrwt beam="2">  1       -1 0.19916590E+00 0.18554590E+04</pdfrwt>
<totfact> 0.42174431E+00</totfact>
</mgrwt>
</event>
<event>
12    3  0.4806716E-008  0.1911777E+04  0.7818608E-02  0.8649016E-01
          2   -1    0    0  501    0  0.00000000000E+00  0.00000000000E+00  0.19920133897E+04  0.19920133897E+04  0.00000000000E+00 0.  1.
         -2   -1    0    0    0  501 -0.00000000000E+00 -0.00000000000E+00 -0.45869333805E+03  0.45869333805E+03  0.00000000000E+00 0. -1.
         23    2    1    2    0    0  0.24073194668E+03 -0.24674298948E+03  0.14417175168E+04  0.14852143095E+04  0.92077000642E+02 0.  0.
        254    2    1    2    0    0 -0.24073194668E+03  0.24674298948E+03  0.91602534824E+02  0.96549241817E+03  0.89719039905E+03 0.  0.
         23    2    4    4    0    0 -0.18293343868E+02 -0.16379207122E+03 -0.29670069229E+03  0.35144021692E+03  0.91194496771E+02 0.  0.
         23    2    4    4    0    0 -0.22243860281E+03  0.41053506069E+03  0.38830322711E+03  0.61405220125E+03  0.90899623748E+02 0.  0.
          3    1    3    3  502    0  0.12841155726E+03 -0.19256788647E+03  0.97886801917E+03  0.10058600886E+04  0.00000000000E+00 0. -1.
         -3    1    3    3    0  502  0.11232038942E+03 -0.54175103011E+02  0.46284949762E+03  0.47935422092E+03  0.00000000000E+00 0.  1.
         13    1    5    5    0    0 -0.75406679556E+01 -0.25248971576E+02 -0.29951696510E+01  0.26520619905E+02  0.00000000000E+00 0.  1.
        -13    1    5    5    0    0 -0.10752675913E+02 -0.13854309964E+03 -0.29370552264E+03  0.32491959702E+03  0.00000000000E+00 0. -1.
          1    1    6    6  503    0 -0.13262240707E+03  0.16454806618E+03  0.20475603952E+03  0.29426145630E+03  0.00000000000E+00 0. -1.
         -1    1    6    6    0  503 -0.89816195738E+02  0.24598699451E+03  0.18354718759E+03  0.31979074496E+03  0.00000000000E+00 0.  1.
<mgrwt>
<rscale>  0 0.19117775E+04</rscale>
<asrwt>0</asrwt>
<pdfrwt beam="1">  1        2 0.30646359E+00 0.19117775E+04</pdfrwt>
<pdfrwt beam="2">  1       -2 0.70568207E-01 0.19117775E+04</pdfrwt>
<totfact> 0.11533882E+01</totfact>
</mgrwt>
</event>
<event>
12    3  0.4806716E-008  0.2299625E+04  0.7818608E-02  0.8478069E-01
         -2   -1    0    0    0  501 -0.00000000000E+00  0.00000000000E+00  0.16562283055E+04  0.16562283055E+04  0.00000000000E+00 0.  1.
          2   -1    0    0  501    0  0.00000000000E+00 -0.00000000000E+00 -0.79824061721E+03  0.79824061721E+03  0.00000000000E+00 0. -1.
         23    2    1    2    0    0  0.31370260812E+03  0.30770537621E+03 -0.57645131304E+03  0.73060351147E+03  0.91615772541E+02 0.  0.
        254    2    1    2    0    0 -0.31370260812E+03 -0.30770537621E+03  0.14344390013E+04  0.17238654112E+04  0.84912000487E+03 0.  0.
         23    2    4    4    0    0 -0.43697466959E+03 -0.52545186633E+03  0.10157413193E+04  0.12274838982E+04  0.89105369894E+02 0.  0.
         23    2    4    4    0    0  0.12327206147E+03  0.21774649013E+03  0.41869768203E+03  0.49638151303E+03  0.92072376111E+02 0.  0.
          3    1    3    3  502    0  0.30952854638E+03  0.28361968753E+03 -0.56421144534E+03  0.70326567045E+03  0.00000000000E+00 0. -1.
         -3    1    3    3    0  502  0.41740617432E+01  0.24085688671E+02 -0.12239867693E+02  0.27337841015E+02  0.00000000000E+00 0.  1.
         13    1    5    5    0    0 -0.42551731207E+03 -0.52263680846E+03  0.97639603106E+03  0.11864077823E+04  0.00000000000E+00 0. -1.
        -13    1    5    5    0    0 -0.11457357517E+02 -0.28150578707E+01  0.39345288214E+02  0.41076115892E+02  0.00000000000E+00 0.  1.
          3    1    6    6  503    0  0.15726809438E+02  0.14189450600E+02  0.32778035808E+01  0.21434015950E+02  0.00000000000E+00 0.  1.
         -3    1    6    6    0  503  0.10754525203E+03  0.20355703953E+03  0.41541987845E+03  0.47494749708E+03  0.00000000000E+00 0. -1.
<mgrwt>
<rscale>  0 0.22996249E+04</rscale>
<asrwt>0</asrwt>
<pdfrwt beam="1">  1        2 0.12280625E+00 0.22996249E+04</pdfrwt>
<pdfrwt beam="2">  1       -2 0.25480435E+00 0.22996249E+04</pdfrwt>
<totfact> 0.18802282E+00</totfact>
</mgrwt>
</event>
<event>
12    3  0.4806716E-008  0.2523220E+04  0.7818608E-02  0.8394760E-01
          2   -1    0    0  501    0  0.00000000000E+00  0.00000000000E+00  0.22365546907E+04  0.22365546907E+04  0.00000000000E+00 0.  1.
         -2   -1    0    0    0  501 -0.00000000000E+00 -0.00000000000E+00 -0.71165709330E+03  0.71165709330E+03  0.00000000000E+00 0. -1.
         23    2    1    2    0    0  0.64556478190E+03 -0.80028307853E+03  0.24354551940E+03  0.10606491492E+04  0.91952728695E+02 0.  0.
        254    2    1    2    0    0 -0.64556478190E+03  0.80028307853E+03  0.12813520780E+04  0.18875626348E+04  0.92942060393E+03 0.  0.
         23    2    4    4    0    0 -0.68012571934E+02  0.50688687095E+02  0.82128349886E+03  0.83061541099E+03  0.90665994395E+02 0.  0.
         23    2    4    4    0    0 -0.57755220996E+03  0.74959439143E+03  0.46006857912E+03  0.10569472238E+04  0.10008011511E+03 0.  0.
          3    1    3    3  502    0  0.44138778694E+03 -0.48836266486E+03  0.13049448128E+03  0.67108127715E+03  0.00000000000E+00 0. -1.
         -3    1    3    3    0  502  0.20417699496E+03 -0.31192041367E+03  0.11305103812E+03  0.38956787207E+03  0.00000000000E+00 0.  1.
         13    1    5    5    0    0 -0.99628747095E+01 -0.25494449233E+02  0.14216356063E+03  0.14477466555E+03  0.00000000000E+00 0. -1.
        -13    1    5    5    0    0 -0.58049697224E+02  0.76183136329E+02  0.67911993822E+03  0.68584074544E+03  0.00000000000E+00 0.  1.
          1    1    6    6  503    0 -0.26211629469E+03  0.33514237015E+03  0.26230349626E+03  0.49982845494E+03  0.00000000000E+00 0. -1.
         -1    1    6    6    0  503 -0.31543591527E+03  0.41445202129E+03  0.19776508286E+03  0.55711876883E+03  0.00000000000E+00 0.  1.
<mgrwt>
<rscale>  0 0.25232202E+04</rscale>
<asrwt>0</asrwt>
<pdfrwt beam="1">  1        2 0.34408533E+00 0.25232202E+04</pdfrwt>
<pdfrwt beam="2">  1       -2 0.10948571E+00 0.25232202E+04</pdfrwt>
<totfact> 0.29126583E+00</totfact>
</mgrwt>
</event>
<event>
12    3  0.4806716E-008  0.3093739E+04  0.7818608E-02  0.8217458E-01
          2   -1    0    0  501    0  0.00000000000E+00  0.00000000000E+00  0.23768656183E+04  0.23768656183E+04  0.00000000000E+00 0. -1.
         -2   -1    0    0    0  501 -0.00000000000E+00 -0.00000000000E+00 -0.10067061193E+04  0.10067061193E+04  0.00000000000E+00 0.  1.
         23    2    1    2    0    0  0.13102995432E+04  0.17308705013E+03  0.10269987286E+04  0.16762369076E+04  0.90552537162E+02 0.  0.
        254    2    1    2    0    0 -0.13102995432E+04 -0.17308705013E+03  0.34316077033E+03  0.17073348300E+04  0.10248848168E+04 0.  0.
         23    2    4    4    0    0  0.11144202811E+03 -0.19321709491E+03  0.76915417148E+01  0.24358105977E+03  0.97572544651E+02 0.  0.
         23    2    4    4    0    0 -0.14217415713E+04  0.20130044773E+02  0.33546922861E+03  0.14637537703E+04  0.91001001511E+02 0.  0.
          4    1    3    3  502    0  0.99021989786E+03  0.13601736018E+03  0.72662652466E+03  0.12357274274E+04  0.00000000000E+00 0. -1.
         -4    1    3    3    0  502  0.32007964534E+03  0.37069689956E+02  0.30037220393E+03  0.44050948023E+03  0.00000000000E+00 0.  1.
         13    1    5    5    0    0  0.26958352992E+02 -0.69453588153E+01 -0.23812697024E+02  0.36633800576E+02  0.00000000000E+00 0. -1.
        -13    1    5    5    0    0  0.84483675122E+02 -0.18627173609E+03  0.31504238739E+02  0.20694725919E+03  0.00000000000E+00 0.  1.
          1    1    6    6  503    0 -0.41660315797E+03 -0.35510236327E+02  0.99583822981E+02  0.42980938323E+03  0.00000000000E+00 0. -1.
         -1    1    6    6    0  503 -0.10051384133E+04  0.55640281100E+02  0.23588540563E+03  0.10339443870E+04  0.00000000000E+00 0.  1.
<mgrwt>
<rscale>  0 0.30937389E+04</rscale>
<asrwt>0</asrwt>
<pdfrwt beam="1">  1        2 0.36567163E+00 0.30937389E+04</pdfrwt>
<pdfrwt beam="2">  1       -2 0.15487786E+00 0.30937389E+04</pdfrwt>
<totfact> 0.95770338E-01</totfact>
</mgrwt>
</event>
<event>
12    3  0.4806716E-008  0.2590026E+04  0.7818608E-02  0.8371597E-01
         -2   -1    0    0    0  501 -0.00000000000E+00  0.00000000000E+00  0.11265009071E+04  0.11265009071E+04  0.00000000000E+00 0.  1.
          2   -1    0    0  501    0  0.00000000000E+00 -0.00000000000E+00 -0.14887331903E+04  0.14887331903E+04  0.00000000000E+00 0. -1.
         23    2    1    2    0    0  0.90148588783E+03 -0.33668467665E+03 -0.76569358634E+03  0.12332292094E+04  0.92380935625E+02 0.  0.
        254    2    1    2    0    0 -0.90148588783E+03  0.33668467665E+03  0.40346130312E+03  0.13820048881E+04  0.90615843542E+03 0.  0.
         23    2    4    4    0    0 -0.16176128076E+03  0.32255219261E+03  0.50768939328E+03  0.62943535783E+03  0.90739851889E+02 0.  0.
         23    2    4    4    0    0 -0.73972460708E+03  0.14132484039E+02 -0.10422809016E+03  0.75256953024E+03  0.90028782336E+02 0.  0.
          1    1    3    3  502    0  0.81051197835E+03 -0.29530152580E+03 -0.71868134668E+03  0.11227802707E+04  0.00000000000E+00 0. -1.
         -1    1    3    3    0  502  0.90973909481E+02 -0.41383150852E+02 -0.47012239662E+02  0.11044893869E+03  0.00000000000E+00 0.  1.
         13    1    5    5    0    0 -0.10209113929E+03  0.14011381618E+03  0.30106021122E+03  0.34740715736E+03  0.00000000000E+00 0. -1.
        -13    1    5    5    0    0 -0.59670141470E+02  0.18243837644E+03  0.20662918206E+03  0.28202820047E+03  0.00000000000E+00 0.  1.
          1    1    6    6  503    0 -0.44069170042E+03 -0.35635073329E+02 -0.57959350579E+02  0.44591290583E+03  0.00000000000E+00 0.  1.
         -1    1    6    6    0  503 -0.29903290666E+03  0.49767557368E+02 -0.46268739581E+02  0.30665662441E+03  0.00000000000E+00 0. -1.
<mgrwt>
<rscale>  0 0.25900265E+04</rscale>
<asrwt>0</asrwt>
<pdfrwt beam="1">  1        2 0.22903587E+00 0.25900265E+04</pdfrwt>
<pdfrwt beam="2">  1       -2 0.17330783E+00 0.25900265E+04</pdfrwt>
<totfact> 0.23032831E+00</totfact>
</mgrwt>
</event>
<event>
12    3  0.4806716E-008  0.2810201E+04  0.7818608E-02  0.8300108E-01
         -2   -1    0    0    0  501 -0.00000000000E+00  0.00000000000E+00  0.17212088060E+04  0.17212088060E+04  0.00000000000E+00 0.  1.
          2   -1    0    0  501    0  0.00000000000E+00 -0.00000000000E+00 -0.11470466468E+04  0.11470466468E+04  0.00000000000E+00 0. -1.
         23    2    1    2    0    0  0.17971149704E+03  0.94503170675E+03  0.10849307838E+04  0.14528268939E+04  0.90829671529E+02 0.  0.
        254    2    1    2    0    0 -0.17971149704E+03 -0.94503170675E+03 -0.51076862458E+03  0.14154285589E+04  0.90397581201E+03 0.  0.
         23    2    4    4    0    0 -0.36738855037E+03 -0.27943539161E+02 -0.15538631843E+03  0.40996665799E+03  0.90402236621E+02 0.  0.
         23    2    4    4    0    0  0.18767705333E+03 -0.91708816759E+03 -0.35538230615E+03  0.10054619010E+04  0.91562368212E+02 0.  0.
          4    1    3    3  502    0  0.13099795767E+03  0.82007226260E+03  0.96222496131E+03  0.12710451829E+04  0.00000000000E+00 0.  1.
         -4    1    3    3    0  502  0.48713539374E+02  0.12495944415E+03  0.12270582244E+03  0.18178171102E+03  0.00000000000E+00 0. -1.
         13    1    5    5    0    0 -0.19314755697E+03 -0.54073692928E+02 -0.10662740726E+03  0.22715489651E+03  0.00000000000E+00 0.  1.
        -13    1    5    5    0    0 -0.17424099340E+03  0.26130153767E+02 -0.48758911171E+02  0.18281176148E+03  0.00000000000E+00 0. -1.
          2    1    6    6  503    0  0.17434526153E+03 -0.82414334077E+03 -0.28942966687E+03  0.89071771534E+03  0.00000000000E+00 0. -1.
         -2    1    6    6    0  503  0.13331791801E+02 -0.92944826818E+02 -0.65952639283E+02  0.11474418562E+03  0.00000000000E+00 0.  1.
<mgrwt>
<rscale>  0 0.28102006E+04</rscale>
<asrwt>0</asrwt>
<pdfrwt beam="1">  1        2 0.17646872E+00 0.28102006E+04</pdfrwt>
<pdfrwt beam="2">  1       -2 0.26480135E+00 0.28102006E+04</pdfrwt>
<totfact> 0.92423844E-01</totfact>
</mgrwt>
</event>
<event>
12    3  0.4806716E-008  0.1305487E+04  0.7818608E-02  0.9025225E-01
         -2   -1    0    0    0  501 -0.00000000000E+00  0.00000000000E+00  0.74920710758E+03  0.74920710758E+03  0.00000000000E+00 0.  1.
          2   -1    0    0  501    0  0.00000000000E+00 -0.00000000000E+00 -0.56869979485E+03  0.56869979485E+03  0.00000000000E+00 0. -1.
         23    2    1    2    0    0 -0.11205241578E+03 -0.30125106549E+03  0.80026985924E+02  0.34353935692E+03  0.91142871023E+02 0.  0.
        254    2    1    2    0    0  0.11205241578E+03  0.30125106549E+03  0.10048032681E+03  0.97436754551E+03  0.91432372239E+03 0.  0.
         23    2    4    4    0    0 -0.36398763797E+03 -0.36522590965E+02  0.41992397463E+02  0.38097815542E+03  0.97775729173E+02 0.  0.
         23    2    4    4    0    0  0.47604005375E+03  0.33777365645E+03  0.58487929346E+02  0.59338939009E+03  0.89358573297E+02 0.  0.
          4    1    3    3  502    0 -0.67844631849E+02 -0.27042028928E+03  0.55261624626E+02  0.28422504126E+03  0.00000000000E+00 0. -1.
         -4    1    3    3    0  502 -0.44207783930E+02 -0.30830776205E+02  0.24765361298E+02  0.59314315655E+02  0.00000000000E+00 0.  1.
         13    1    5    5    0    0 -0.32335548559E+03 -0.58017866140E+02  0.17722287481E+02  0.32899684243E+03  0.00000000000E+00 0.  1.
        -13    1    5    5    0    0 -0.40632152380E+02  0.21495275175E+02  0.24270109982E+02  0.51981312992E+02  0.00000000000E+00 0. -1.
          2    1    6    6  503    0  0.21247137451E+03  0.10612661653E+03 -0.89406189549E+00  0.23750314328E+03  0.00000000000E+00 0. -1.
         -2    1    6    6    0  503  0.26356867924E+03  0.23164703992E+03  0.59381991241E+02  0.35588624681E+03  0.00000000000E+00 0.  1.
<mgrwt>
<rscale>  0 0.13054868E+04</rscale>
<asrwt>0</asrwt>
<pdfrwt beam="1">  1        2 0.87492276E-01 0.13054868E+04</pdfrwt>
<pdfrwt beam="2">  1       -2 0.11526263E+00 0.13054868E+04</pdfrwt>
<totfact> 0.30389717E+01</totfact>
</mgrwt>
</event>
<event>
12    3  0.4806716E-008  0.1166130E+04  0.7818608E-02  0.9143031E-01
         -1   -1    0    0    0  501 -0.00000000000E+00  0.00000000000E+00  0.27063532269E+03  0.27063532269E+03  0.00000000000E+00 0.  1.
          1   -1    0    0  501    0  0.00000000000E+00 -0.00000000000E+00 -0.12561725032E+04  0.12561725032E+04  0.00000000000E+00 0. -1.
         23    2    1    2    0    0 -0.36670934452E+02 -0.15034846631E+03 -0.38592628744E+03  0.42651607210E+03  0.95012850023E+02 0.  0.
        254    2    1    2    0    0  0.36670934452E+02  0.15034846631E+03 -0.59961089305E+03  0.11002917538E+04  0.90948298586E+03 0.  0.
         23    2    4    4    0    0 -0.21208716422E+03  0.35735479126E+03 -0.63279269307E+03  0.76262909066E+03  0.92158154562E+02 0.  0.
         23    2    4    4    0    0  0.24875809867E+03 -0.20700632495E+03  0.33181800024E+02  0.33766266310E+03  0.90459007134E+02 0.  0.
          3    1    3    3  502    0 -0.43736130451E+02 -0.16209157275E+03 -0.35623842297E+03  0.39381764951E+03  0.00000000000E+00 0. -1.
         -3    1    3    3    0  502  0.70651959993E+01  0.11743106442E+02 -0.29687864469E+02  0.32698422594E+02  0.00000000000E+00 0.  1.
         13    1    5    5    0    0 -0.84142627538E+02  0.23041189427E+03 -0.37366862889E+03  0.44698754681E+03  0.00000000000E+00 0. -1.
        -13    1    5    5    0    0 -0.12794453668E+03  0.12694289699E+03 -0.25912406418E+03  0.31564154385E+03  0.00000000000E+00 0.  1.
          1    1    6    6  503    0  0.16026292268E+03 -0.18154169447E+03  0.39497666166E+02  0.24536025932E+03  0.00000000000E+00 0. -1.
         -1    1    6    6    0  503  0.88495175990E+02 -0.25464630482E+02 -0.63158661418E+01  0.92302403784E+02  0.00000000000E+00 0.  1.
<mgrwt>
<rscale>  0 0.11661298E+04</rscale>
<asrwt>0</asrwt>
<pdfrwt beam="1">  1        1 0.19325731E+00 0.11661298E+04</pdfrwt>
<pdfrwt beam="2">  1       -1 0.41636203E-01 0.11661298E+04</pdfrwt>
<totfact> 0.54566684E+01</totfact>
</mgrwt>
</event>
<event>
12    3  0.4806716E-008  0.2647016E+04  0.7818608E-02  0.8352404E-01
          2   -1    0    0  501    0  0.00000000000E+00  0.00000000000E+00  0.14663367513E+04  0.14663367513E+04  0.00000000000E+00 0. -1.
         -2   -1    0    0    0  501 -0.00000000000E+00 -0.00000000000E+00 -0.11945910969E+04  0.11945910969E+04  0.00000000000E+00 0.  1.
         23    2    1    2    0    0  0.98737781503E+03  0.11073367438E+03  0.75256764651E+03  0.12500993725E+04  0.95986886517E+02 0.  0.
        254    2    1    2    0    0 -0.98737781503E+03 -0.11073367438E+03 -0.48082199211E+03  0.14108284757E+04  0.87867531178E+03 0.  0.
         23    2    4    4    0    0 -0.98284114671E+03  0.41620199823E+02 -0.10519766339E+03  0.99351459440E+03  0.91080954207E+02 0.  0.
         23    2    4    4    0    0 -0.45366683245E+01 -0.15235387420E+03 -0.37562432872E+03  0.41731388131E+03  0.99120910320E+02 0.  0.
          2    1    3    3  502    0  0.23247754767E+03  0.64515661908E+02  0.20105929481E+03  0.31405878563E+03  0.00000000000E+00 0.  1.
         -2    1    3    3    0  502  0.75490026736E+03  0.46218012471E+02  0.55150835169E+03  0.93604058690E+03  0.00000000000E+00 0. -1.
         13    1    5    5    0    0 -0.10720513363E+02  0.39395786989E+01 -0.11425279547E+02  0.16155082786E+02  0.00000000000E+00 0.  1.
        -13    1    5    5    0    0 -0.97212063334E+03  0.37680621124E+02 -0.93772383842E+02  0.97735951162E+03  0.00000000000E+00 0. -1.
          2    1    6    6  503    0 -0.34658971070E+02 -0.72202119615E+02 -0.26840895388E+03  0.28010311829E+03  0.00000000000E+00 0. -1.
         -2    1    6    6    0  503  0.30122302746E+02 -0.80151754587E+02 -0.10721537484E+03  0.13721076302E+03  0.00000000000E+00 0.  1.
<mgrwt>
<rscale>  0 0.26470155E+04</rscale>
<asrwt>0</asrwt>
<pdfrwt beam="1">  1        2 0.22559027E+00 0.26470155E+04</pdfrwt>
<pdfrwt beam="2">  1       -2 0.18378325E+00 0.26470155E+04</pdfrwt>
<totfact> 0.19962263E+00</totfact>
</mgrwt>
</event>
<event>
12    3  0.4806716E-008  0.1494390E+04  0.7818608E-02  0.8888192E-01
         -1   -1    0    0    0  501 -0.00000000000E+00  0.00000000000E+00  0.26910896446E+03  0.26910896446E+03  0.00000000000E+00 0.  1.
          1   -1    0    0  501    0  0.00000000000E+00 -0.00000000000E+00 -0.20746247992E+04  0.20746247992E+04  0.00000000000E+00 0. -1.
         23    2    1    2    0    0 -0.99176034056E+02  0.27218236458E+03 -0.11378911206E+04  0.11781040844E+04  0.95989092754E+02 0.  0.
        254    2    1    2    0    0  0.99176034056E+02 -0.27218236458E+03 -0.66762471416E+03  0.11656296793E+04  0.91052219360E+03 0.  0.
         23    2    4    4    0    0  0.45990993480E+03 -0.16200101896E+03 -0.14908636681E+03  0.51788975093E+03  0.90672879464E+02 0.  0.
         23    2    4    4    0    0 -0.36073390075E+03 -0.11018134562E+03 -0.51853834734E+03  0.64773992840E+03  0.91739419567E+02 0.  0.
          2    1    3    3  502    0 -0.31636354799E+02  0.13867135724E+03 -0.38369174355E+03  0.40920649840E+03  0.00000000000E+00 0. -1.
         -2    1    3    3    0  502 -0.67539679257E+02  0.13351100734E+03 -0.75419937705E+03  0.76889758596E+03  0.00000000000E+00 0.  1.
         13    1    5    5    0    0  0.40790601814E+03 -0.17172708300E+03 -0.12600331811E+03  0.46016773772E+03  0.00000000000E+00 0. -1.
        -13    1    5    5    0    0  0.52003916667E+02  0.97260640437E+01 -0.23083048706E+02  0.57722013202E+02  0.00000000000E+00 0.  1.
          4    1    6    6  503    0 -0.26015926129E+03 -0.42544196462E+02 -0.39314314417E+03  0.47334383031E+03  0.00000000000E+00 0. -1.
         -4    1    6    6    0  503 -0.10057463946E+03 -0.67637149156E+02 -0.12539520318E+03  0.17439609809E+03  0.00000000000E+00 0.  1.
<mgrwt>
<rscale>  0 0.14943897E+04</rscale>
<asrwt>0</asrwt>
<pdfrwt beam="1">  1        1 0.31917303E+00 0.14943897E+04</pdfrwt>
<pdfrwt beam="2">  1       -1 0.41401381E-01 0.14943897E+04</pdfrwt>
<totfact> 0.14684806E+01</totfact>
</mgrwt>
</event>
<event>
12    3  0.4806716E-008  0.2364961E+04  0.7818608E-02  0.8452739E-01
          2   -1    0    0  501    0  0.00000000000E+00  0.00000000000E+00  0.65343213352E+03  0.65343213352E+03  0.00000000000E+00 0. -1.
         -2   -1    0    0    0  501 -0.00000000000E+00 -0.00000000000E+00 -0.21398698641E+04  0.21398698641E+04  0.00000000000E+00 0.  1.
         23    2    1    2    0    0 -0.61675840918E+01 -0.55767154131E+03 -0.16195914508E+04  0.17153757286E+04  0.91661528209E+02 0.  0.
        254    2    1    2    0    0  0.61675840918E+01  0.55767154131E+03  0.13315372026E+03  0.10779262690E+04  0.91277573423E+03 0.  0.
         23    2    4    4    0    0  0.19248827190E+03  0.19716299786E+01 -0.28225550234E+03  0.35383722668E+03  0.92070582932E+02 0.  0.
         23    2    4    4    0    0 -0.18632068781E+03  0.55569991133E+03  0.41540922260E+03  0.72408904227E+03  0.90677057533E+02 0.  0.
          4    1    3    3  502    0  0.53829670203E+01 -0.51937127805E+02 -0.87114879331E+02  0.10156497319E+03  0.00000000000E+00 0. -1.
         -4    1    3    3    0  502 -0.11550551112E+02 -0.50573441350E+03 -0.15324765715E+04  0.16138107554E+04  0.00000000000E+00 0.  1.
         13    1    5    5    0    0  0.56369512448E+02 -0.39991003372E+02 -0.71339231906E+02  0.99328184788E+02  0.00000000000E+00 0. -1.
        -13    1    5    5    0    0  0.13611875946E+03  0.41962633351E+02 -0.21091627043E+03  0.25450904189E+03  0.00000000000E+00 0.  1.
          1    1    6    6  503    0 -0.11271263849E+03  0.23701885224E+03  0.14588441775E+03  0.30027377263E+03  0.00000000000E+00 0. -1.
         -1    1    6    6    0  503 -0.73608049326E+02  0.31868105909E+03  0.26952480485E+03  0.42381526964E+03  0.00000000000E+00 0.  1.
<mgrwt>
<rscale>  0 0.23649607E+04</rscale>
<asrwt>0</asrwt>
<pdfrwt beam="1">  1        2 0.10052802E+00 0.23649607E+04</pdfrwt>
<pdfrwt beam="2">  1       -2 0.32921075E+00 0.23649607E+04</pdfrwt>
<totfact> 0.84629902E-01</totfact>
</mgrwt>
</event>
<event>
12    3  0.4806716E-008  0.2130541E+04  0.7818608E-02  0.8547908E-01
          2   -1    0    0  501    0  0.00000000000E+00  0.00000000000E+00  0.95091579202E+03  0.95091579202E+03  0.00000000000E+00 0. -1.
         -2   -1    0    0    0  501 -0.00000000000E+00 -0.00000000000E+00 -0.11933774322E+04  0.11933774322E+04  0.00000000000E+00 0.  1.
         23    2    1    2    0    0 -0.22916515180E+03  0.66930426079E+03  0.39825597625E+03  0.81683461865E+03  0.90144945995E+02 0.  0.
        254    2    1    2    0    0  0.22916515180E+03 -0.66930426079E+03 -0.64071761644E+03  0.13274586056E+04  0.92257380475E+03 0.  0.
         23    2    4    4    0    0  0.56715351610E+02 -0.79542823768E+03 -0.72552014476E+03  0.10827588729E+04  0.10032240049E+03 0.  0.
         23    2    4    4    0    0  0.17244980019E+03  0.12612397689E+03  0.84802528322E+02  0.24469973266E+03  0.83906490922E+02 0.  0.
          3    1    3    3  502    0 -0.21948603821E+03  0.66798543788E+03  0.38996535635E+03  0.80402216720E+03  0.00000000000E+00 0. -1.
         -3    1    3    3    0  502 -0.96791135945E+01  0.13188229076E+01  0.82906198955E+01  0.12812451447E+02  0.00000000000E+00 0.  1.
         13    1    5    5    0    0 -0.21061076331E+02 -0.33515202611E+03 -0.33189806151E+03  0.47215121812E+03  0.00000000000E+00 0.  1.
        -13    1    5    5    0    0  0.77776427941E+02 -0.46027621158E+03 -0.39362208325E+03  0.61060765481E+03  0.00000000000E+00 0. -1.
          4    1    6    6  503    0  0.13439552348E+03  0.49206792095E+02  0.44406054449E+02  0.14985113544E+03  0.00000000000E+00 0. -1.
         -4    1    6    6    0  503  0.38054276711E+02  0.76917184797E+02  0.40396473873E+02  0.94848597220E+02  0.00000000000E+00 0.  1.
<mgrwt>
<rscale>  0 0.21305412E+04</rscale>
<asrwt>0</asrwt>
<pdfrwt beam="1">  1        2 0.14629474E+00 0.21305412E+04</pdfrwt>
<pdfrwt beam="2">  1       -2 0.18359653E+00 0.21305412E+04</pdfrwt>
<totfact> 0.42678366E+00</totfact>
</mgrwt>
</event>
<event>
12    3  0.4806716E-008  0.2746583E+04  0.7818608E-02  0.8320047E-01
         -3   -1    0    0    0  501 -0.00000000000E+00  0.00000000000E+00  0.22695329010E+04  0.22695329010E+04  0.00000000000E+00 0.  1.
          3   -1    0    0  501    0  0.00000000000E+00 -0.00000000000E+00 -0.83097680984E+03  0.83097680984E+03  0.00000000000E+00 0. -1.
         23    2    1    2    0    0  0.15547938001E+03 -0.47906610922E+03  0.18886606887E+04  0.19568398466E+04  0.92221546378E+02 0.  0.
        254    2    1    2    0    0 -0.15547938001E+03  0.47906610922E+03 -0.45010459753E+03  0.11436698643E+04  0.92288050965E+03 0.  0.
         23    2    4    4    0    0 -0.46811535004E+03  0.28666533496E+03 -0.10988849833E+01  0.55656914174E+03  0.91972858934E+02 0.  0.
         23    2    4    4    0    0  0.31263597003E+03  0.19240077426E+03 -0.44900571254E+03  0.58710072252E+03  0.91224014355E+02 0.  0.
          2    1    3    3  502    0 -0.43633002878E+01  0.17333774391E+01  0.29631769642E+02  0.30001412615E+02  0.00000000000E+00 0. -1.
         -2    1    3    3    0  502  0.15984268030E+03 -0.48079948666E+03  0.18590289190E+04  0.19268384340E+04  0.00000000000E+00 0.  1.
         13    1    5    5    0    0 -0.40408104790E+03  0.22105210937E+03 -0.26744455759E+02  0.46136839320E+03  0.00000000000E+00 0. -1.
        -13    1    5    5    0    0 -0.64034302139E+02  0.65613225587E+02  0.25645570775E+02  0.95200748541E+02  0.00000000000E+00 0.  1.
          2    1    6    6  503    0  0.29523454645E+03  0.16128946846E+03 -0.36800732122E+03  0.49860517298E+03  0.00000000000E+00 0. -1.
         -2    1    6    6    0  503  0.17401423582E+02  0.31111305800E+02 -0.80998391323E+02  0.88495549538E+02  0.00000000000E+00 0.  1.
<mgrwt>
<rscale>  0 0.27465828E+04</rscale>
<asrwt>0</asrwt>
<pdfrwt beam="1">  1        3 0.12784259E+00 0.27465828E+04</pdfrwt>
<pdfrwt beam="2">  1       -3 0.34915890E+00 0.27465828E+04</pdfrwt>
<totfact> 0.22281572E-02</totfact>
</mgrwt>
</event>
<event>
12    3  0.4806716E-008  0.1550276E+04  0.7818608E-02  0.8851692E-01
          1   -1    0    0  501    0  0.00000000000E+00  0.00000000000E+00  0.12478064550E+04  0.12478064550E+04  0.00000000000E+00 0. -1.
         -1   -1    0    0    0  501 -0.00000000000E+00 -0.00000000000E+00 -0.48151606114E+03  0.48151606114E+03  0.00000000000E+00 0.  1.
         23    2    1    2    0    0  0.94753654534E+02 -0.18386978282E+03  0.76877682353E+03  0.80138049526E+03  0.91687194925E+02 0.  0.
        254    2    1    2    0    0 -0.94753654534E+02  0.18386978282E+03 -0.24864296822E+01  0.92794202086E+03  0.90459043753E+03 0.  0.
         23    2    4    4    0    0  0.26096372280E+03 -0.22213329473E+03  0.10662199795E+03  0.36911912628E+03  0.86228844917E+02 0.  0.
         23    2    4    4    0    0 -0.35571737734E+03  0.40600307754E+03 -0.10910842764E+03  0.55882289458E+03  0.94894820798E+02 0.  0.
          3    1    3    3  502    0  0.65299776348E+02 -0.60481324610E+02  0.44141976880E+03  0.45030374605E+03  0.00000000000E+00 0. -1.
         -3    1    3    3    0  502  0.29453878185E+02 -0.12338845821E+03  0.32735705473E+03  0.35107674921E+03  0.00000000000E+00 0.  1.
         13    1    5    5    0    0  0.17513951305E+03 -0.16234592672E+03  0.32700200314E+02  0.24103807179E+03  0.00000000000E+00 0. -1.
        -13    1    5    5    0    0  0.85824209750E+02 -0.59787368012E+02  0.73921797641E+02  0.12808105449E+03  0.00000000000E+00 0.  1.
          1    1    6    6  503    0 -0.29335254080E+03  0.37772766076E+03 -0.82320911663E+02  0.48529437602E+03  0.00000000000E+00 0. -1.
         -1    1    6    6    0  503 -0.62364836535E+02  0.28275416785E+02 -0.26787515974E+02  0.73528518565E+02  0.00000000000E+00 0.  1.
<mgrwt>
<rscale>  0 0.15502759E+04</rscale>
<asrwt>0</asrwt>
<pdfrwt beam="1">  1        1 0.19197022E+00 0.15502759E+04</pdfrwt>
<pdfrwt beam="2">  1       -1 0.74079395E-01 0.15502759E+04</pdfrwt>
<totfact> 0.17434169E+01</totfact>
</mgrwt>
</event>
<event>
12    3  0.4806716E-008  0.2026311E+04  0.7818608E-02  0.8594417E-01
         -2   -1    0    0    0  501 -0.00000000000E+00  0.00000000000E+00  0.61007920523E+03  0.61007920523E+03  0.00000000000E+00 0.  1.
          2   -1    0    0  501    0  0.00000000000E+00 -0.00000000000E+00 -0.16825427125E+04  0.16825427125E+04  0.00000000000E+00 0. -1.
         23    2    1    2    0    0 -0.31150989795E+03  0.68833053583E+03 -0.94867731429E+02  0.76692060178E+03  0.91268723557E+02 0.  0.
        254    2    1    2    0    0  0.31150989795E+03 -0.68833053583E+03 -0.97759577588E+03  0.15257013160E+04  0.89511656307E+03 0.  0.
         23    2    4    4    0    0 -0.28167758445E+03 -0.15302587015E+03 -0.13087351139E+03  0.35797923857E+03  0.90895988632E+02 0.  0.
         23    2    4    4    0    0  0.59318748240E+03 -0.53530466568E+03 -0.84672226448E+03  0.11677220774E+04  0.90629920580E+02 0.  0.
          4    1    3    3  502    0 -0.58316057463E+02  0.94784099326E+02 -0.43844591381E+02  0.11961244181E+03  0.00000000000E+00 0. -1.
         -4    1    3    3    0  502 -0.25319384049E+03  0.59354643650E+03 -0.51023140048E+02  0.64730815997E+03  0.00000000000E+00 0.  1.
         13    1    5    5    0    0 -0.19655285665E+03 -0.68600481547E+02 -0.52348196370E+02  0.21466109379E+03  0.00000000000E+00 0.  1.
        -13    1    5    5    0    0 -0.85124727798E+02 -0.84425388600E+02 -0.78525315024E+02  0.14331814478E+03  0.00000000000E+00 0. -1.
          2    1    6    6  503    0  0.13098016038E+03 -0.15912154603E+03 -0.18179356119E+03  0.27481697130E+03  0.00000000000E+00 0.  1.
         -2    1    6    6    0  503  0.46220732203E+03 -0.37618311965E+03 -0.66492870330E+03  0.89290510611E+03  0.00000000000E+00 0. -1.
<mgrwt>
<rscale>  0 0.20263113E+04</rscale>
<asrwt>0</asrwt>
<pdfrwt beam="1">  1        2 0.25885272E+00 0.20263113E+04</pdfrwt>
<pdfrwt beam="2">  1       -2 0.93858340E-01 0.20263113E+04</pdfrwt>
<totfact> 0.89138765E+00</totfact>
</mgrwt>
</event>
<event>
12    3  0.4806716E-008  0.2472551E+04  0.7818608E-02  0.8412830E-01
         -2   -1    0    0    0  501 -0.00000000000E+00  0.00000000000E+00  0.45787661666E+03  0.45787661666E+03  0.00000000000E+00 0.  1.
          2   -1    0    0  501    0  0.00000000000E+00 -0.00000000000E+00 -0.33379673623E+04  0.33379673623E+04  0.00000000000E+00 0. -1.
         23    2    1    2    0    0  0.29500737707E+03  0.96247828168E+03 -0.17639717718E+04  0.20331138132E+04  0.92528754603E+02 0.  0.
        254    2    1    2    0    0 -0.29500737707E+03 -0.96247828168E+03 -0.11161189738E+04  0.17627301658E+04  0.92092468655E+03 0.  0.
         23    2    4    4    0    0 -0.37504649731E+03 -0.75148236326E+03 -0.27741394984E+03  0.88925814250E+03  0.91847302591E+02 0.  0.
         23    2    4    4    0    0  0.80039120241E+02 -0.21099591842E+03 -0.83870502400E+03  0.87347202327E+03  0.92745457005E+02 0.  0.
          1    1    3    3  502    0  0.11462092762E+03  0.24685972578E+03 -0.51043516356E+03  0.57846498378E+03  0.00000000000E+00 0. -1.
         -1    1    3    3    0  502  0.18038644945E+03  0.71561855590E+03 -0.12535366082E+04  0.14546488294E+04  0.00000000000E+00 0.  1.
         13    1    5    5    0    0 -0.33212373551E+03 -0.71378557223E+03 -0.25095286662E+03  0.82630101058E+03  0.00000000000E+00 0. -1.
        -13    1    5    5    0    0 -0.42922761796E+02 -0.37696791030E+02 -0.26461083225E+02  0.62957131920E+02  0.00000000000E+00 0.  1.
          4    1    6    6  503    0  0.60898909186E+02 -0.12080129312E+03 -0.33301350037E+03  0.35944348789E+03  0.00000000000E+00 0.  1.
         -4    1    6    6    0  503  0.19140211056E+02 -0.90194625301E+02 -0.50569152363E+03  0.51402853538E+03  0.00000000000E+00 0. -1.
<mgrwt>
<rscale>  0 0.24725511E+04</rscale>
<asrwt>0</asrwt>
<pdfrwt beam="1">  1        2 0.51353344E+00 0.24725511E+04</pdfrwt>
<pdfrwt beam="2">  1       -2 0.70442557E-01 0.24725511E+04</pdfrwt>
<totfact> 0.17232422E+00</totfact>
</mgrwt>
</event>
<event>
12    3  0.4806716E-008  0.1224525E+04  0.7818608E-02  0.9091657E-01
         -1   -1    0    0    0  501 -0.00000000000E+00  0.00000000000E+00  0.19299413108E+03  0.19299413108E+03  0.00000000000E+00 0.  1.
          1   -1    0    0  501    0  0.00000000000E+00 -0.00000000000E+00 -0.19423664722E+04  0.19423664722E+04  0.00000000000E+00 0. -1.
         23    2    1    2    0    0  0.43093706244E+02 -0.16321010412E+03 -0.40332569971E+02  0.19547126534E+03  0.89931606051E+02 0.  0.
        254    2    1    2    0    0 -0.43093706244E+02  0.16321010412E+03 -0.17090397711E+04  0.19398893379E+04  0.90214139607E+03 0.  0.
         23    2    4    4    0    0  0.13227660840E+03 -0.28260394597E+03 -0.27467197112E+03  0.42486260868E+03  0.87757923455E+02 0.  0.
         23    2    4    4    0    0 -0.17537031465E+03  0.44581405009E+03 -0.14343678000E+04  0.15150267292E+04  0.91597435111E+02 0.  0.
          1    1    3    3  502    0  0.89298954216E+00  0.11473367991E+02 -0.13914279801E+01  0.11591879709E+02  0.00000000000E+00 0. -1.
         -1    1    3    3    0  502  0.42200716701E+02 -0.17468347211E+03 -0.38941141991E+02  0.18387938563E+03  0.00000000000E+00 0.  1.
         13    1    5    5    0    0  0.11981526566E+02  0.31587938121E+01 -0.20461868483E+02  0.23921183479E+02  0.00000000000E+00 0.  1.
        -13    1    5    5    0    0  0.12029508184E+03 -0.28576273978E+03 -0.25421010264E+03  0.40094142521E+03  0.00000000000E+00 0. -1.
          1    1    6    6  503    0 -0.12540554331E+03  0.29852219804E+03 -0.10918334569E+04  0.11388337678E+04  0.00000000000E+00 0. -1.
         -1    1    6    6    0  503 -0.49964771334E+02  0.14729185205E+03 -0.34253434312E+03  0.37619296149E+03  0.00000000000E+00 0.  1.
<mgrwt>
<rscale>  0 0.12245249E+04</rscale>
<asrwt>0</asrwt>
<pdfrwt beam="1">  1        1 0.29882562E+00 0.12245249E+04</pdfrwt>
<pdfrwt beam="2">  1       -1 0.29691404E-01 0.12245249E+04</pdfrwt>
<totfact> 0.33522644E+01</totfact>
</mgrwt>
</event>
<event>
12    3  0.4806716E-008  0.1499744E+04  0.7818608E-02  0.8884623E-01
          2   -1    0    0  501    0  0.00000000000E+00  0.00000000000E+00  0.78523329486E+03  0.78523329486E+03  0.00000000000E+00 0.  1.
         -2   -1    0    0    0  501 -0.00000000000E+00 -0.00000000000E+00 -0.71610334774E+03  0.71610334774E+03  0.00000000000E+00 0. -1.
         23    2    1    2    0    0  0.15424510131E+03 -0.32006324174E+03 -0.29222987459E+03  0.46894778860E+03  0.91003839671E+02 0.  0.
        254    2    1    2    0    0 -0.15424510131E+03  0.32006324174E+03  0.36135982171E+03  0.10323888540E+04  0.89945194153E+03 0.  0.
         23    2    4    4    0    0  0.17802041587E+03 -0.17073815227E+03  0.34197869213E+03  0.43173531896E+03  0.92753300008E+02 0.  0.
         23    2    4    4    0    0 -0.33226551718E+03  0.49080139401E+03  0.19381129581E+02  0.60065353503E+03  0.95512610155E+02 0.  0.
          2    1    3    3  502    0  0.13426245903E+03 -0.30342152710E+03 -0.29340086067E+03  0.44291657912E+03  0.00000000000E+00 0. -1.
         -2    1    3    3    0  502  0.19982642282E+02 -0.16641714638E+02  0.11709860787E+01  0.26031209481E+02  0.00000000000E+00 0.  1.
         13    1    5    5    0    0  0.15826567313E+03 -0.16304884985E+03  0.34191735668E+03  0.41053675783E+03  0.00000000000E+00 0. -1.
        -13    1    5    5    0    0  0.19754742733E+02 -0.76893024173E+01  0.61335452658E-01  0.21198561134E+02  0.00000000000E+00 0.  1.
          3    1    6    6  503    0 -0.22631320942E+03  0.40115373564E+03  0.52727586108E+00  0.46058904285E+03  0.00000000000E+00 0. -1.
         -3    1    6    6    0  503 -0.10595230776E+03  0.89647658369E+02  0.18853853720E+02  0.14006449218E+03  0.00000000000E+00 0.  1.
<mgrwt>
<rscale>  0 0.14997442E+04</rscale>
<asrwt>0</asrwt>
<pdfrwt beam="1">  1        2 0.12080512E+00 0.14997442E+04</pdfrwt>
<pdfrwt beam="2">  1       -2 0.11016975E+00 0.14997442E+04</pdfrwt>
<totfact> 0.22333225E+01</totfact>
</mgrwt>
</event>
<event>
12    3  0.4806716E-008  0.1073617E+04  0.7818608E-02  0.9231295E-01
          1   -1    0    0  501    0  0.00000000000E+00  0.00000000000E+00  0.11049711708E+04  0.11049711708E+04  0.00000000000E+00 0. -1.
         -1   -1    0    0    0  501 -0.00000000000E+00 -0.00000000000E+00 -0.26078792608E+03  0.26078792608E+03  0.00000000000E+00 0.  1.
         23    2    1    2    0    0  0.98982286428E+02  0.78260862018E+02  0.84557591139E+02  0.18347759863E+03  0.10291640991E+03 0.  0.
        254    2    1    2    0    0 -0.98982286428E+02 -0.78260862018E+02  0.75962565362E+03  0.11822814983E+04  0.89712660869E+03 0.  0.
         23    2    4    4    0    0 -0.33661979387E+03  0.20174198556E+03  0.90490726454E+02  0.41291505392E+03  0.91090920589E+02 0.  0.
         23    2    4    4    0    0  0.23763750744E+03 -0.28000284758E+03  0.66913492716E+03  0.76936644438E+03  0.96488317373E+02 0.  0.
          2    1    3    3  502    0  0.10194978170E+03  0.60027642028E+02  0.10337380306E+03  0.15710893976E+03  0.00000000000E+00 0. -1.
         -2    1    3    3    0  502 -0.29674952670E+01  0.18233219990E+02 -0.18816211918E+02  0.26368658864E+02  0.00000000000E+00 0.  1.
         13    1    5    5    0    0 -0.32173051445E+02  0.47009618637E+02 -0.79067007115E+01  0.57511089364E+02  0.00000000000E+00 0. -1.
        -13    1    5    5    0    0 -0.30444674242E+03  0.15473236693E+03  0.98397427166E+02  0.35540396455E+03  0.00000000000E+00 0.  1.
          3    1    6    6  503    0  0.66025202597E+02 -0.14646395102E+03  0.31972030959E+03  0.35781572449E+03  0.00000000000E+00 0. -1.
         -3    1    6    6    0  503  0.17161230484E+03 -0.13353889656E+03  0.34941461757E+03  0.41155071989E+03  0.00000000000E+00 0.  1.
<mgrwt>
<rscale>  0 0.10736166E+04</rscale>
<asrwt>0</asrwt>
<pdfrwt beam="1">  1        1 0.16999556E+00 0.10736166E+04</pdfrwt>
<pdfrwt beam="2">  1       -1 0.40121220E-01 0.10736166E+04</pdfrwt>
<totfact> 0.75939202E+01</totfact>
</mgrwt>
</event>
<event>
12    3  0.4806716E-008  0.1499434E+04  0.7818608E-02  0.8884830E-01
          1   -1    0    0  501    0  0.00000000000E+00  0.00000000000E+00  0.29594711410E+03  0.29594711410E+03  0.00000000000E+00 0. -1.
         -1   -1    0    0    0  501 -0.00000000000E+00 -0.00000000000E+00 -0.18992426674E+04  0.18992426674E+04  0.00000000000E+00 0.  1.
         23    2    1    2    0    0 -0.43993135343E+03 -0.13890551366E+03 -0.32988059484E+03  0.57472130059E+03  0.93000156125E+02 0.  0.
        254    2    1    2    0    0  0.43993135343E+03  0.13890551366E+03 -0.12734149585E+04  0.16204684809E+04  0.88966179179E+03 0.  0.
         23    2    4    4    0    0 -0.23669710796E+03 -0.92608539446E+02 -0.45933817868E+03  0.53307844180E+03  0.92623972229E+02 0.  0.
         23    2    4    4    0    0  0.67662846139E+03  0.23151405311E+03 -0.81407677980E+03  0.10873900391E+04  0.90946480117E+02 0.  0.
          2    1    3    3  502    0  0.34867084665E+01  0.34386129240E+01 -0.29368148634E+01  0.57101730546E+01  0.00000000000E+00 0. -1.
         -2    1    3    3    0  502 -0.44341806190E+03 -0.14234412659E+03 -0.32694377997E+03  0.56901112753E+03  0.00000000000E+00 0.  1.
         13    1    5    5    0    0 -0.22225584158E+03 -0.53370863119E+02 -0.39424314737E+03  0.45571237354E+03  0.00000000000E+00 0. -1.
        -13    1    5    5    0    0 -0.14441266376E+02 -0.39237676327E+02 -0.65095031309E+02  0.77366068268E+02  0.00000000000E+00 0.  1.
          1    1    6    6  503    0  0.60414464800E+03  0.17503058660E+03 -0.70770694454E+03  0.94682394420E+03  0.00000000000E+00 0. -1.
         -1    1    6    6    0  503  0.72483813381E+02  0.56483466506E+02 -0.10636983527E+03  0.14056609494E+03  0.00000000000E+00 0.  1.
<mgrwt>
<rscale>  0 0.14994337E+04</rscale>
<asrwt>0</asrwt>
<pdfrwt beam="1">  1        1 0.45530324E-01 0.14994337E+04</pdfrwt>
<pdfrwt beam="2">  1       -1 0.29219118E+00 0.14994337E+04</pdfrwt>
<totfact> 0.32108935E+00</totfact>
</mgrwt>
</event>
<event>
12    3  0.4806716E-008  0.2569477E+04  0.7818608E-02  0.8378644E-01
          1   -1    0    0  501    0  0.00000000000E+00  0.00000000000E+00  0.23195954773E+04  0.23195954773E+04  0.00000000000E+00 0.  1.
         -1   -1    0    0    0  501 -0.00000000000E+00 -0.00000000000E+00 -0.71156922980E+03  0.71156922980E+03  0.00000000000E+00 0. -1.
         23    2    1    2    0    0  0.67171208326E+03 -0.10268781922E+03 -0.35126618527E+03  0.77030369979E+03  0.90763131179E+02 0.  0.
        254    2    1    2    0    0 -0.67171208326E+03  0.10268781922E+03  0.19592924328E+04  0.22608610073E+04  0.90051304614E+03 0.  0.
         23    2    4    4    0    0 -0.34760106706E+03  0.48363159806E+03  0.86542771718E+03  0.10546348099E+04  0.92538770901E+02 0.  0.
         23    2    4    4    0    0 -0.32411101621E+03 -0.38094377883E+03  0.10938647156E+04  0.12062261974E+04  0.90969829419E+02 0.  0.
          1    1    3    3  502    0  0.63130842741E+03 -0.73753277019E+02 -0.33111580195E+03  0.71667813605E+03  0.00000000000E+00 0. -1.
         -1    1    3    3    0  502  0.40403655856E+02 -0.28934542204E+02 -0.20150383317E+02  0.53625563744E+02  0.00000000000E+00 0.  1.
         13    1    5    5    0    0 -0.43184190776E+02  0.12268897634E+03  0.16975618038E+03  0.21385654076E+03  0.00000000000E+00 0. -1.
        -13    1    5    5    0    0 -0.30441687628E+03  0.36094262172E+03  0.69567153680E+03  0.84077826914E+03  0.00000000000E+00 0.  1.
          4    1    6    6  503    0 -0.29199279027E+02 -0.62687427569E+01  0.91089849109E+02  0.95860605267E+02  0.00000000000E+00 0. -1.
         -4    1    6    6    0  503 -0.29491173718E+03 -0.37467503608E+03  0.10027748665E+04  0.11103655922E+04  0.00000000000E+00 0.  1.
<mgrwt>
<rscale>  0 0.25694768E+04</rscale>
<asrwt>0</asrwt>
<pdfrwt beam="1">  1        1 0.35686084E+00 0.25694768E+04</pdfrwt>
<pdfrwt beam="2">  1       -1 0.10947219E+00 0.25694768E+04</pdfrwt>
<totfact> 0.12296099E+00</totfact>
</mgrwt>
</event>
<event>
12    3  0.4806716E-008  0.4195088E+04  0.7818608E-02  0.7966307E-01
          1   -1    0    0  501    0  0.00000000000E+00  0.00000000000E+00  0.26485942489E+04  0.26485942489E+04  0.00000000000E+00 0. -1.
         -1   -1    0    0    0  501 -0.00000000000E+00 -0.00000000000E+00 -0.16611419962E+04  0.16611419962E+04  0.00000000000E+00 0.  1.
         23    2    1    2    0    0 -0.47750394206E+03  0.16303778530E+04  0.15573616965E+04  0.23064623195E+04  0.90835121358E+02 0.  0.
        254    2    1    2    0    0  0.47750394206E+03 -0.16303778530E+04 -0.56990944376E+03  0.20032739256E+04  0.89563814613E+03 0.  0.
         23    2    4    4    0    0  0.25134063119E+03 -0.76660851866E+02 -0.29656568764E+03  0.40695946195E+03  0.92821320226E+02 0.  0.
         23    2    4    4    0    0  0.22616331087E+03 -0.15537170011E+04 -0.27334375612E+03  0.15963144637E+04  0.91195916355E+02 0.  0.
          3    1    3    3  502    0 -0.29295508549E+03  0.88725261580E+03  0.89940953883E+03  0.12969107158E+04  0.00000000000E+00 0. -1.
         -3    1    3    3    0  502 -0.18454885657E+03  0.74312523720E+03  0.65795215768E+03  0.10095516036E+04  0.00000000000E+00 0.  1.
         13    1    5    5    0    0  0.22431143307E+03 -0.32146729602E+02 -0.24189433318E+03  0.33145421954E+03  0.00000000000E+00 0. -1.
        -13    1    5    5    0    0  0.27029198121E+02 -0.44514122263E+02 -0.54671354468E+02  0.75505242410E+02  0.00000000000E+00 0.  1.
          1    1    6    6  503    0  0.20560932625E+03 -0.13119272126E+04 -0.26093987459E+03  0.13533358136E+04  0.00000000000E+00 0. -1.
         -1    1    6    6    0  503  0.20553984619E+02 -0.24178978852E+03 -0.12403881527E+02  0.24297865008E+03  0.00000000000E+00 0.  1.
<mgrwt>
<rscale>  0 0.41950881E+04</rscale>
<asrwt>0</asrwt>
<pdfrwt beam="1">  1        1 0.40747604E+00 0.41950881E+04</pdfrwt>
<pdfrwt beam="2">  1       -1 0.25556031E+00 0.41950881E+04</pdfrwt>
<totfact> 0.52694720E-02</totfact>
</mgrwt>
</event>
<event>
12    3  0.4806716E-008  0.2284187E+04  0.7818608E-02  0.8484182E-01
          1   -1    0    0  501    0  0.00000000000E+00  0.00000000000E+00  0.99373880169E+03  0.99373880169E+03  0.00000000000E+00 0. -1.
         -1   -1    0    0    0  501 -0.00000000000E+00 -0.00000000000E+00 -0.13125961521E+04  0.13125961521E+04  0.00000000000E+00 0.  1.
         23    2    1    2    0    0 -0.80828128234E+02 -0.46043899944E+03  0.71111826952E+03  0.85601129517E+03  0.92351966347E+02 0.  0.
        254    2    1    2    0    0  0.80828128234E+02  0.46043899944E+03 -0.10299756200E+04  0.14503236587E+04  0.90777292238E+03 0.  0.
         23    2    4    4    0    0  0.13449342333E+03  0.43504734590E+03 -0.11774601300E+04  0.12657689139E+04  0.91672850655E+02 0.  0.
         23    2    4    4    0    0 -0.53665295095E+02  0.25391653543E+02  0.14748451004E+03  0.18455474476E+03  0.93723386335E+02 0.  0.
          1    1    3    3  502    0  0.24249234442E+01 -0.17416984254E+03  0.31863214609E+03  0.36313559289E+03  0.00000000000E+00 0. -1.
         -1    1    3    3    0  502 -0.83253051679E+02 -0.28626915690E+03  0.39248612343E+03  0.49287570228E+03  0.00000000000E+00 0.  1.
         13    1    5    5    0    0  0.51754714581E+02  0.26426563085E+03 -0.59314924278E+03  0.65141453648E+03  0.00000000000E+00 0. -1.
        -13    1    5    5    0    0  0.82738708748E+02  0.17078171505E+03 -0.58431088723E+03  0.61435437742E+03  0.00000000000E+00 0.  1.
          2    1    6    6  503    0 -0.29892831818E+02 -0.35007227405E+02  0.60580736590E+02  0.76086220897E+02  0.00000000000E+00 0. -1.
         -2    1    6    6    0  503 -0.23772463277E+02  0.60398880948E+02  0.86903773446E+02  0.10846852386E+03  0.00000000000E+00 0.  1.
<mgrwt>
<rscale>  0 0.22841871E+04</rscale>
<asrwt>0</asrwt>
<pdfrwt beam="1">  1        1 0.15288289E+00 0.22841871E+04</pdfrwt>
<pdfrwt beam="2">  1       -1 0.20193787E+00 0.22841871E+04</pdfrwt>
<totfact> 0.20214372E+00</totfact>
</mgrwt>
</event>
<event>
12    3  0.4806716E-008  0.1592010E+04  0.7818608E-02  0.8825472E-01
         -2   -1    0    0    0  501 -0.00000000000E+00  0.00000000000E+00  0.35868484873E+03  0.35868484873E+03  0.00000000000E+00 0.  1.
          2   -1    0    0  501    0  0.00000000000E+00 -0.00000000000E+00 -0.17665194703E+04  0.17665194703E+04  0.00000000000E+00 0. -1.
         23    2    1    2    0    0 -0.19321694970E+03  0.25503878600E+03 -0.10589921095E+04  0.11098703314E+04  0.89276494012E+02 0.  0.
        254    2    1    2    0    0  0.19321694970E+03 -0.25503878600E+03 -0.34884251199E+03  0.10153339876E+04  0.89823963185E+03 0.  0.
         23    2    4    4    0    0  0.52443372547E+03 -0.10756450593E+03 -0.67876838948E+02  0.54740608756E+03  0.91898335620E+02 0.  0.
         23    2    4    4    0    0 -0.33121677577E+03 -0.14747428007E+03 -0.28096567305E+03  0.46792790006E+03  0.92528884102E+02 0.  0.
          3    1    3    3  502    0 -0.15307481123E+03  0.22594736821E+03 -0.97362131012E+03  0.10111491317E+04  0.00000000000E+00 0. -1.
         -3    1    3    3    0  502 -0.40142138474E+02  0.29091417790E+02 -0.85370799424E+02  0.98721199672E+02  0.00000000000E+00 0.  1.
         13    1    5    5    0    0  0.70137334827E+02  0.16459471006E+02 -0.37733519037E+01  0.72141514449E+02  0.00000000000E+00 0. -1.
        -13    1    5    5    0    0  0.45429639064E+03 -0.12402397694E+03 -0.64103487044E+02  0.47526457311E+03  0.00000000000E+00 0.  1.
          1    1    6    6  503    0 -0.15528835835E+03 -0.10724904423E+03 -0.18162421078E+03  0.26192400743E+03  0.00000000000E+00 0. -1.
         -1    1    6    6    0  503 -0.17592841742E+03 -0.40225235841E+02 -0.99341462268E+02  0.20600389263E+03  0.00000000000E+00 0.  1.
<mgrwt>
<rscale>  0 0.15920098E+04</rscale>
<asrwt>0</asrwt>
<pdfrwt beam="1">  1        2 0.27177223E+00 0.15920098E+04</pdfrwt>
<pdfrwt beam="2">  1       -2 0.55182285E-01 0.15920098E+04</pdfrwt>
<totfact> 0.26679949E+01</totfact>
</mgrwt>
</event>
<event>
12    3  0.4806716E-008  0.2316507E+04  0.7818608E-02  0.8471441E-01
         -1   -1    0    0    0  501 -0.00000000000E+00  0.00000000000E+00  0.53985592525E+03  0.53985592525E+03  0.00000000000E+00 0.  1.
          1   -1    0    0  501    0  0.00000000000E+00 -0.00000000000E+00 -0.24850164934E+04  0.24850164934E+04  0.00000000000E+00 0. -1.
         23    2    1    2    0    0 -0.83038725913E+03  0.20142044039E+03 -0.19729298396E+03  0.88207236222E+03  0.94941754418E+02 0.  0.
        254    2    1    2    0    0  0.83038725913E+03 -0.20142044039E+03 -0.17478675842E+04  0.21428000564E+04  0.89801881719E+03 0.  0.
         23    2    4    4    0    0  0.93241690655E+03 -0.35347268568E+03 -0.16143076245E+04  0.18995252406E+04  0.88672463097E+02 0.  0.
         23    2    4    4    0    0 -0.10202964742E+03  0.15205224529E+03 -0.13355995964E+03  0.24327481586E+03  0.88399315406E+02 0.  0.
          2    1    3    3  502    0 -0.79029541953E+03  0.20166490820E+03 -0.20558638126E+03  0.84113099187E+03  0.00000000000E+00 0.  1.
         -2    1    3    3    0  502 -0.40091839596E+02 -0.24446780498E+00  0.82933972955E+01  0.40941370341E+02  0.00000000000E+00 0. -1.
         13    1    5    5    0    0  0.46459589392E+03 -0.19256767610E+03 -0.89264733039E+03  0.10245735264E+04  0.00000000000E+00 0. -1.
        -13    1    5    5    0    0  0.46782101264E+03 -0.16090500958E+03 -0.72166029415E+03  0.87495171417E+03  0.00000000000E+00 0.  1.
          1    1    6    6  503    0  0.72426362739E+01  0.32609203402E+02  0.18538364507E-02  0.33403831070E+02  0.00000000000E+00 0. -1.
         -1    1    6    6    0  503 -0.10927228370E+03  0.11944304188E+03 -0.13356181348E+03  0.20987098479E+03  0.00000000000E+00 0.  1.
<mgrwt>
<rscale>  0 0.23165067E+04</rscale>
<asrwt>0</asrwt>
<pdfrwt beam="1">  1        1 0.38231023E+00 0.23165067E+04</pdfrwt>
<pdfrwt beam="2">  1       -1 0.83054757E-01 0.23165067E+04</pdfrwt>
<totfact> 0.18025261E+00</totfact>
</mgrwt>
</event>
<event>
12    3  0.5136601E-008  0.1965935E+04  0.7818608E-02  0.8622715E-01
          2   -1    0    0  501    0  0.00000000000E+00  0.00000000000E+00  0.18696564264E+04  0.18696564264E+04  0.00000000000E+00 0. -1.
         -2   -1    0    0    0  501 -0.00000000000E+00 -0.00000000000E+00 -0.51679271695E+03  0.51679271695E+03  0.00000000000E+00 0.  1.
         23    2    1    2    0    0  0.25751778336E+03  0.63985814722E+02  0.13947084658E+04  0.14228077469E+04  0.93598006210E+02 0.  0.
        254    2    1    2    0    0 -0.25751778336E+03 -0.63985814722E+02 -0.41844756324E+02  0.96364139649E+03  0.92544268551E+03 0.  0.
         23    2    4    4    0    0  0.11636032055E+02 -0.38911619958E+03  0.22291323876E+03  0.45691217886E+03  0.86784867080E+02 0.  0.
         23    2    4    4    0    0 -0.26915381542E+03  0.32513038486E+03 -0.26475799509E+03  0.50672921764E+03  0.92326380474E+02 0.  0.
          2    1    3    3  502    0  0.23192521636E+03  0.63654561980E+02  0.13503069932E+04  0.13715575763E+04  0.00000000000E+00 0. -1.
         -2    1    3    3    0  502  0.25592567000E+02  0.33125274255E+00  0.44401472582E+02  0.51250170551E+02  0.00000000000E+00 0.  1.
         13    1    5    5    0    0 -0.19981760603E+01  0.43157208524E+01  0.52226399664E+01  0.70635771577E+01  0.00000000000E+00 0.  1.
        -13    1    5    5    0    0  0.13634208115E+02 -0.39343192043E+03  0.21769059880E+03  0.44984860170E+03  0.00000000000E+00 0. -1.
          1    1    6    6  503    0 -0.27644646063E+03  0.31232571326E+03 -0.25859976868E+03  0.49075843051E+03  0.00000000000E+00 0. -1.
         -1    1    6    6    0  503  0.72926452090E+01  0.12804671604E+02 -0.61582264091E+01  0.15970787129E+02  0.00000000000E+00 0.  1.
<mgrwt>
<rscale>  0 0.19659347E+04</rscale>
<asrwt>0</asrwt>
<pdfrwt beam="1">  1        2 0.28763945E+00 0.19659347E+04</pdfrwt>
<pdfrwt beam="2">  1       -2 0.79506573E-01 0.19659347E+04</pdfrwt>
<totfact> 0.10306987E+01</totfact>
</mgrwt>
</event>
<event>
12    3  0.4806716E-008  0.1310421E+04  0.7818608E-02  0.9021342E-01
         -1   -1    0    0    0  501 -0.00000000000E+00  0.00000000000E+00  0.60536837123E+03  0.60536837123E+03  0.00000000000E+00 0. -1.
          1   -1    0    0  501    0  0.00000000000E+00 -0.00000000000E+00 -0.70915589894E+03  0.70915589894E+03  0.00000000000E+00 0.  1.
         23    2    1    2    0    0  0.11500932335E+03  0.27165004069E+03  0.14357641193E+03  0.34180600072E+03  0.95897168900E+02 0.  0.
        254    2    1    2    0    0 -0.11500932335E+03 -0.27165004069E+03 -0.24736393963E+03  0.97271826944E+03  0.89329223886E+03 0.  0.
         23    2    4    4    0    0 -0.15800263644E+03  0.25874076094E+03 -0.29260363090E+03  0.43090944517E+03  0.90301996807E+02 0.  0.
         23    2    4    4    0    0  0.42993313088E+02 -0.53039080163E+03  0.45239691264E+02  0.54180882427E+03  0.91363805579E+02 0.  0.
          3    1    3    3  502    0  0.60269313737E+02  0.14177259004E+03  0.21885463386E+02  0.15559830003E+03  0.00000000000E+00 0. -1.
         -3    1    3    3    0  502  0.54740009616E+02  0.12987745065E+03  0.12169094854E+03  0.18620770069E+03  0.00000000000E+00 0.  1.
         13    1    5    5    0    0  0.63731817734E+01 -0.22861537509E+01 -0.12620780178E+02  0.14322291618E+02  0.00000000000E+00 0. -1.
        -13    1    5    5    0    0 -0.16437581821E+03  0.26102691469E+03 -0.27998285072E+03  0.41658715355E+03  0.00000000000E+00 0.  1.
          1    1    6    6  503    0 -0.36068019557E+01 -0.13332993276E+03 -0.25549877547E+02  0.13580381523E+03  0.00000000000E+00 0. -1.
         -1    1    6    6    0  503  0.46600115043E+02 -0.39706086887E+03  0.70789568811E+02  0.40600500904E+03  0.00000000000E+00 0.  1.
<mgrwt>
<rscale>  0 0.13104206E+04</rscale>
<asrwt>0</asrwt>
<pdfrwt beam="1">  1        1 0.10910091E+00 0.13104206E+04</pdfrwt>
<pdfrwt beam="2">  1       -1 0.93133596E-01 0.13104206E+04</pdfrwt>
<totfact> 0.29368873E+01</totfact>
</mgrwt>
</event>
<event>
12    3  0.4806716E-008  0.1517556E+04  0.7818608E-02  0.8872862E-01
          1   -1    0    0  501    0  0.00000000000E+00  0.00000000000E+00  0.94752596638E+03  0.94752596638E+03  0.00000000000E+00 0. -1.
         -1   -1    0    0    0  501 -0.00000000000E+00 -0.00000000000E+00 -0.60762852066E+03  0.60762852066E+03  0.00000000000E+00 0.  1.
         23    2    1    2    0    0 -0.42832290740E+03  0.21337536184E+02  0.34011154013E+03  0.55475473049E+03  0.90339071362E+02 0.  0.
        254    2    1    2    0    0  0.42832290740E+03 -0.21337536184E+02 -0.21409441658E+00  0.10003997566E+04  0.90381625545E+03 0.  0.
         23    2    4    4    0    0  0.62953585164E+03 -0.11788921772E+03 -0.21065945310E+03  0.68066341557E+03  0.93338223469E+02 0.  0.
         23    2    4    4    0    0 -0.20121294425E+03  0.96551681538E+02  0.21044535868E+03  0.31973634098E+03  0.90195358045E+02 0.  0.
          1    1    3    3  502    0 -0.29584402939E+03  0.12505891233E+01  0.28195364913E+03  0.40868461429E+03  0.00000000000E+00 0. -1.
         -1    1    3    3    0  502 -0.13247887801E+03  0.20086947061E+02  0.58157891003E+02  0.14607011620E+03  0.00000000000E+00 0.  1.
         13    1    5    5    0    0  0.26535052045E+03 -0.34641344475E+02 -0.13409294697E+03  0.29931896011E+03  0.00000000000E+00 0. -1.
        -13    1    5    5    0    0  0.36418533119E+03 -0.83247873246E+02 -0.76566506125E+02  0.38134445547E+03  0.00000000000E+00 0.  1.
          2    1    6    6  503    0 -0.97175890426E+02  0.21378829313E+02  0.14447104781E+03  0.17541975851E+03  0.00000000000E+00 0. -1.
         -2    1    6    6    0  503 -0.10403705382E+03  0.75172852224E+02  0.65974310874E+02  0.14431658246E+03  0.00000000000E+00 0.  1.
<mgrwt>
<rscale>  0 0.15175557E+04</rscale>
<asrwt>0</asrwt>
<pdfrwt beam="1">  1        1 0.14577323E+00 0.15175557E+04</pdfrwt>
<pdfrwt beam="2">  1       -1 0.93481311E-01 0.15175557E+04</pdfrwt>
<totfact> 0.17861316E+01</totfact>
</mgrwt>
</event>
<event>
12    3  0.4806716E-008  0.1844850E+04  0.7818608E-02  0.8682806E-01
          2   -1    0    0  501    0  0.00000000000E+00  0.00000000000E+00  0.16651561952E+04  0.16651561952E+04  0.00000000000E+00 0. -1.
         -2   -1    0    0    0  501 -0.00000000000E+00 -0.00000000000E+00 -0.51098406559E+03  0.51098406559E+03  0.00000000000E+00 0.  1.
         23    2    1    2    0    0 -0.31054024684E+03 -0.59609681008E+03  0.71796945783E+03  0.98774154268E+03  0.91578168090E+02 0.  0.
        254    2    1    2    0    0  0.31054024684E+03  0.59609681008E+03  0.43620267181E+03  0.11883987181E+04  0.87764006887E+03 0.  0.
         23    2    4    4    0    0  0.21952388568E+03  0.54788198558E+03  0.68196112703E+03  0.90611265714E+03  0.87199553591E+02 0.  0.
         23    2    4    4    0    0  0.91016361159E+02  0.48214824497E+02 -0.24575845522E+03  0.28228606100E+03  0.93164127311E+02 0.  0.
          1    1    3    3  502    0 -0.29605760845E+03 -0.50309776968E+03  0.63079099521E+03  0.85945026209E+03  0.00000000000E+00 0. -1.
         -1    1    3    3    0  502 -0.14482638388E+02 -0.92999040400E+02  0.87178462628E+02  0.12829128059E+03  0.00000000000E+00 0.  1.
         13    1    5    5    0    0  0.21460356366E+02  0.13061968996E+02  0.41643571532E+02  0.48634853545E+02  0.00000000000E+00 0.  1.
        -13    1    5    5    0    0  0.19806352931E+03  0.53482001658E+03  0.64031755550E+03  0.85747780360E+03  0.00000000000E+00 0. -1.
          2    1    6    6  503    0 -0.17564738426E+02 -0.44876339235E+01 -0.29430019036E+02  0.34565660918E+02  0.00000000000E+00 0.  1.
         -2    1    6    6    0  503  0.10858109958E+03  0.52702458421E+02 -0.21632843619E+03  0.24772040008E+03  0.00000000000E+00 0. -1.
<mgrwt>
<rscale>  0 0.18448504E+04</rscale>
<asrwt>0</asrwt>
<pdfrwt beam="1">  1        2 0.25617787E+00 0.18448504E+04</pdfrwt>
<pdfrwt beam="2">  1       -2 0.78612934E-01 0.18448504E+04</pdfrwt>
<totfact> 0.13868534E+01</totfact>
</mgrwt>
</event>
<event>
12    3  0.4806716E-008  0.1594504E+04  0.7818608E-02  0.8823932E-01
         -1   -1    0    0    0  501 -0.00000000000E+00  0.00000000000E+00  0.12500572914E+04  0.12500572914E+04  0.00000000000E+00 0.  1.
          1   -1    0    0  501    0  0.00000000000E+00 -0.00000000000E+00 -0.50846509854E+03  0.50846509854E+03  0.00000000000E+00 0. -1.
         23    2    1    2    0    0  0.41114716434E+03  0.24598068852E+03  0.50070274050E+03  0.70189434945E+03  0.11137303793E+03 0.  0.
        254    2    1    2    0    0 -0.41114716434E+03 -0.24598068852E+03  0.24088945240E+03  0.10566280405E+04  0.91043209405E+03 0.  0.
         23    2    4    4    0    0  0.56698614638E+02 -0.13616111800E+03 -0.28799041297E+03  0.33637534550E+03  0.91952771265E+02 0.  0.
         23    2    4    4    0    0 -0.46784577898E+03 -0.10981957051E+03  0.52887986536E+03  0.72025269502E+03  0.90055659021E+02 0.  0.
          1    1    3    3  502    0  0.55772178640E+02  0.84928667766E+02  0.97323963820E+02  0.14069601434E+03  0.00000000000E+00 0. -1.
         -1    1    3    3    0  502  0.35537498570E+03  0.16105202075E+03  0.40337877668E+03  0.56119833510E+03  0.00000000000E+00 0.  1.
         13    1    5    5    0    0  0.17987168482E+00 -0.12083439885E+02  0.51052804673E+01  0.13118908564E+02  0.00000000000E+00 0.  1.
        -13    1    5    5    0    0  0.56518742953E+02 -0.12407767812E+03 -0.29309569343E+03  0.32325643694E+03  0.00000000000E+00 0. -1.
          1    1    6    6  503    0 -0.41272544936E+03 -0.66554218749E+02  0.46678933233E+03  0.62662910989E+03  0.00000000000E+00 0. -1.
         -1    1    6    6    0  503 -0.55120329624E+02 -0.43265351765E+02  0.62090533032E+02  0.93623585134E+02  0.00000000000E+00 0.  1.
<mgrwt>
<rscale>  0 0.15945037E+04</rscale>
<asrwt>0</asrwt>
<pdfrwt beam="1">  1        1 0.78225400E-01 0.15945037E+04</pdfrwt>
<pdfrwt beam="2">  1       -1 0.19231651E+00 0.15945037E+04</pdfrwt>
<totfact> 0.70742626E+00</totfact>
</mgrwt>
</event>
<event>
12    3  0.4806716E-008  0.2561662E+04  0.7818608E-02  0.8381342E-01
          2   -1    0    0  501    0  0.00000000000E+00  0.00000000000E+00  0.83263827654E+03  0.83263827654E+03  0.00000000000E+00 0. -1.
         -2   -1    0    0    0  501 -0.00000000000E+00 -0.00000000000E+00 -0.19702770774E+04  0.19702770774E+04  0.00000000000E+00 0.  1.
         23    2    1    2    0    0 -0.75941782491E+03 -0.76920625406E+03 -0.17230510807E+03  0.10982549783E+04  0.89895789702E+02 0.  0.
        254    2    1    2    0    0  0.75941782491E+03  0.76920625406E+03 -0.96533369280E+03  0.17046603757E+04  0.89755454641E+03 0.  0.
         23    2    4    4    0    0  0.10411309335E+02 -0.62780965003E+02  0.10526134147E+03  0.15289908404E+03  0.90820344447E+02 0.  0.
         23    2    4    4    0    0  0.74900651558E+03  0.83198721907E+03 -0.10705950343E+04  0.15517612916E+04  0.92606077904E+02 0.  0.
          1    1    3    3  502    0 -0.10864301999E+03 -0.90731347819E+02 -0.50432809070E+02  0.15026294120E+03  0.00000000000E+00 0. -1.
         -1    1    3    3    0  502 -0.65077480493E+03 -0.67847490625E+03 -0.12187229900E+03  0.94799203710E+03  0.00000000000E+00 0.  1.
         13    1    5    5    0    0  0.15815367844E+01 -0.84982972550E+02  0.69025749209E+02  0.10949502699E+03  0.00000000000E+00 0.  1.
        -13    1    5    5    0    0  0.88297725510E+01  0.22202007547E+02  0.36235592258E+02  0.43404057053E+02  0.00000000000E+00 0. -1.
          3    1    6    6  503    0  0.13037957555E+03  0.96461099711E+02 -0.15768954241E+03  0.22620691692E+03  0.00000000000E+00 0. -1.
         -3    1    6    6    0  503  0.61862694003E+03  0.73552611936E+03 -0.91290549187E+03  0.13255543747E+04  0.00000000000E+00 0.  1.
<mgrwt>
<rscale>  0 0.25616620E+04</rscale>
<asrwt>0</asrwt>
<pdfrwt beam="1">  1        2 0.12809820E+00 0.25616620E+04</pdfrwt>
<pdfrwt beam="2">  1       -2 0.30311955E+00 0.25616620E+04</pdfrwt>
<totfact> 0.88114543E-01</totfact>
</mgrwt>
</event>
<event>
12    3  0.4806716E-008  0.1550160E+04  0.7818608E-02  0.8851765E-01
         -1   -1    0    0    0  501 -0.00000000000E+00  0.00000000000E+00  0.24151910507E+04  0.24151910507E+04  0.00000000000E+00 0.  1.
          1   -1    0    0  501    0  0.00000000000E+00 -0.00000000000E+00 -0.24873777795E+03  0.24873777795E+03  0.00000000000E+00 0. -1.
         23    2    1    2    0    0 -0.16632306082E+02 -0.16020249043E+03 -0.10634192838E+03  0.21351448893E+03  0.91314619351E+02 0.  0.
        254    2    1    2    0    0  0.16632306082E+02  0.16020249043E+03  0.22727952012E+04  0.24504143398E+04  0.90166010143E+03 0.  0.
         23    2    4    4    0    0 -0.37535856422E+03  0.62440353458E+02  0.16889797562E+04  0.17337245523E+04  0.91407640874E+02 0.  0.
         23    2    4    4    0    0  0.39199087030E+03  0.97762136971E+02  0.58381544498E+03  0.71668978750E+03  0.97925991905E+02 0.  0.
          1    1    3    3  502    0 -0.32877255546E+02 -0.47292125186E+02 -0.76213487952E+02  0.95529863303E+02  0.00000000000E+00 0. -1.
         -1    1    3    3    0  502  0.16244949464E+02 -0.11291036524E+03 -0.30128440430E+02  0.11798462563E+03  0.00000000000E+00 0.  1.
         13    1    5    5    0    0 -0.36507420172E+03  0.40773793478E+02  0.15889277655E+04  0.16308381646E+04  0.00000000000E+00 0. -1.
        -13    1    5    5    0    0 -0.10284362503E+02  0.21666559980E+02  0.10005199064E+03  0.10288638766E+03  0.00000000000E+00 0.  1.
          2    1    6    6  503    0  0.38798888865E+03  0.93386621963E+02  0.58711666665E+03  0.70990310545E+03  0.00000000000E+00 0. -1.
         -2    1    6    6    0  503  0.40019816509E+01  0.43755150081E+01 -0.33012216692E+01  0.67866820487E+01  0.00000000000E+00 0.  1.
<mgrwt>
<rscale>  0 0.15501603E+04</rscale>
<asrwt>0</asrwt>
<pdfrwt beam="1">  1        1 0.38267352E-01 0.15501603E+04</pdfrwt>
<pdfrwt beam="2">  1       -1 0.37156784E+00 0.15501603E+04</pdfrwt>
<totfact> 0.12092189E+00</totfact>
</mgrwt>
</event>
<event>
12    3  0.4806716E-008  0.1591384E+04  0.7818608E-02  0.8825859E-01
         -1   -1    0    0    0  501 -0.00000000000E+00  0.00000000000E+00  0.35586021942E+03  0.35586021942E+03  0.00000000000E+00 0.  1.
          1   -1    0    0  501    0  0.00000000000E+00 -0.00000000000E+00 -0.17791421348E+04  0.17791421348E+04  0.00000000000E+00 0. -1.
         23    2    1    2    0    0  0.17858419193E+03 -0.41901915933E+03 -0.85774301883E+03  0.97549900570E+03  0.91683446085E+02 0.  0.
        254    2    1    2    0    0 -0.17858419193E+03  0.41901915933E+03 -0.56553889653E+03  0.11595033485E+04  0.90396039858E+03 0.  0.
         23    2    4    4    0    0  0.50572741517E+02 -0.24848184934E+03 -0.35732006376E+02  0.27216263462E+03  0.92167737149E+02 0.  0.
         23    2    4    4    0    0 -0.22915693345E+03  0.66750100867E+03 -0.52980689016E+03  0.88734071388E+03  0.92777717842E+02 0.  0.
          3    1    3    3  502    0  0.33072820246E+02 -0.19239829044E+03 -0.35109029056E+03  0.40171545368E+03  0.00000000000E+00 0. -1.
         -3    1    3    3    0  502  0.14551137169E+03 -0.22662086890E+03 -0.50665272827E+03  0.57378355202E+03  0.00000000000E+00 0.  1.
         13    1    5    5    0    0  0.68811710548E+02 -0.23916187295E+03 -0.28732773799E+02  0.25051751490E+03  0.00000000000E+00 0.  1.
        -13    1    5    5    0    0 -0.18238969030E+02 -0.93199763847E+01 -0.69992325764E+01  0.21645119722E+02  0.00000000000E+00 0. -1.
          4    1    6    6  503    0 -0.42441704800E+01  0.18035958243E+02  0.15427932260E+01  0.18592713190E+02  0.00000000000E+00 0. -1.
         -4    1    6    6    0  503 -0.22491276297E+03  0.64946505043E+03 -0.53134968338E+03  0.86874800069E+03  0.00000000000E+00 0.  1.
<mgrwt>
<rscale>  0 0.15913842E+04</rscale>
<asrwt>0</asrwt>
<pdfrwt beam="1">  1        1 0.27371418E+00 0.15913842E+04</pdfrwt>
<pdfrwt beam="2">  1       -1 0.54747726E-01 0.15913842E+04</pdfrwt>
<totfact> 0.13626546E+01</totfact>
</mgrwt>
</event>
<event>
12    3  0.4806716E-008  0.1949227E+04  0.7818608E-02  0.8630734E-01
         -2   -1    0    0    0  501 -0.00000000000E+00  0.00000000000E+00  0.48894473642E+03  0.48894473642E+03  0.00000000000E+00 0.  1.
          2   -1    0    0  501    0  0.00000000000E+00 -0.00000000000E+00 -0.19426967999E+04  0.19426967999E+04  0.00000000000E+00 0. -1.
         23    2    1    2    0    0 -0.74424333919E+03 -0.63085439202E+02 -0.35625561418E+03  0.83300072505E+03  0.95363644731E+02 0.  0.
        254    2    1    2    0    0  0.74424333919E+03  0.63085439202E+02 -0.10974964493E+04  0.15986408113E+04  0.89066046653E+03 0.  0.
         23    2    4    4    0    0 -0.18936792094E+02  0.29136379797E+03 -0.11007757616E+03  0.32660116976E+03  0.96435400436E+02 0.  0.
         23    2    4    4    0    0  0.76318013128E+03 -0.22827835877E+03 -0.98741887314E+03  0.12720396415E+04  0.92379092029E+02 0.  0.
          1    1    3    3  502    0 -0.21617088351E+03 -0.32084433137E+02 -0.59627592818E+02  0.22652750727E+03  0.00000000000E+00 0. -1.
         -1    1    3    3    0  502 -0.52807245568E+03 -0.31001006065E+02 -0.29662802136E+03  0.60647321778E+03  0.00000000000E+00 0.  1.
         13    1    5    5    0    0 -0.19162362644E+02  0.22108212806E+03 -0.12508224086E+03  0.25473529490E+03  0.00000000000E+00 0.  1.
        -13    1    5    5    0    0  0.22557054982E+00  0.70281669911E+02  0.15004664700E+02  0.71865874866E+02  0.00000000000E+00 0. -1.
          4    1    6    6  503    0  0.57126637790E+03 -0.16404121632E+03 -0.67039952989E+03  0.89592986603E+03  0.00000000000E+00 0.  1.
         -4    1    6    6    0  503  0.19191375338E+03 -0.64237142448E+02 -0.31701934325E+03  0.37610977547E+03  0.00000000000E+00 0. -1.
<mgrwt>
<rscale>  0 0.19492269E+04</rscale>
<asrwt>0</asrwt>
<pdfrwt beam="1">  1        2 0.29887643E+00 0.19492269E+04</pdfrwt>
<pdfrwt beam="2">  1       -2 0.75222267E-01 0.19492269E+04</pdfrwt>
<totfact> 0.10639144E+01</totfact>
</mgrwt>
</event>
<event>
12    3  0.4806716E-008  0.1575080E+04  0.7818608E-02  0.8836005E-01
          1   -1    0    0  501    0  0.00000000000E+00  0.00000000000E+00  0.21840541907E+04  0.21840541907E+04  0.00000000000E+00 0. -1.
         -1   -1    0    0    0  501 -0.00000000000E+00 -0.00000000000E+00 -0.28397619556E+03  0.28397619556E+03  0.00000000000E+00 0.  1.
         23    2    1    2    0    0 -0.24030264039E+03  0.20078484003E+03  0.13095341831E+04  0.13495022630E+04  0.90645850417E+02 0.  0.
        254    2    1    2    0    0  0.24030264039E+03 -0.20078484003E+03  0.59054381198E+03  0.11185281232E+04  0.89682955879E+03 0.  0.
         23    2    4    4    0    0 -0.32149799024E+03 -0.12037284079E+03  0.11780213376E+03  0.37451192179E+03  0.92364811023E+02 0.  0.
         23    2    4    4    0    0  0.56180063064E+03 -0.80411999246E+02  0.47274167822E+03  0.74401620140E+03  0.89383306122E+02 0.  0.
          4    1    3    3  502    0 -0.36011617489E+02 -0.37219264705E+01  0.17660196250E+03  0.18027463074E+03  0.00000000000E+00 0. -1.
         -4    1    3    3    0  502 -0.20429102290E+03  0.20450676650E+03  0.11329322206E+04  0.11692276323E+04  0.00000000000E+00 0.  1.
         13    1    5    5    0    0 -0.21139162557E+01  0.69605929276E+00  0.18745513178E+02  0.18877166228E+02  0.00000000000E+00 0.  1.
        -13    1    5    5    0    0 -0.31938407399E+03 -0.12106890008E+03  0.99056620586E+02  0.35563475556E+03  0.00000000000E+00 0. -1.
          2    1    6    6  503    0  0.17126233987E+03 -0.63186186176E+02  0.12977804314E+03  0.22397683734E+03  0.00000000000E+00 0. -1.
         -2    1    6    6    0  503  0.39053829077E+03 -0.17225813070E+02  0.34296363507E+03  0.52003936406E+03  0.00000000000E+00 0.  1.
<mgrwt>
<rscale>  0 0.15750802E+04</rscale>
<asrwt>0</asrwt>
<pdfrwt beam="1">  1        1 0.33600833E+00 0.15750802E+04</pdfrwt>
<pdfrwt beam="2">  1       -1 0.43688647E-01 0.15750802E+04</pdfrwt>
<totfact> 0.11125651E+01</totfact>
</mgrwt>
</event>
<event>
12    3  0.4806716E-008  0.1696743E+04  0.7818608E-02  0.8763224E-01
          1   -1    0    0  501    0  0.00000000000E+00  0.00000000000E+00  0.21091375102E+04  0.21091375102E+04  0.00000000000E+00 0. -1.
         -1   -1    0    0    0  501 -0.00000000000E+00 -0.00000000000E+00 -0.34124578635E+03  0.34124578635E+03  0.00000000000E+00 0.  1.
         23    2    1    2    0    0 -0.30112890686E+02 -0.33937005941E+03 -0.80595394080E+02  0.36169946038E+03  0.90840842597E+02 0.  0.
        254    2    1    2    0    0  0.30112890686E+02  0.33937005941E+03  0.18484871179E+04  0.20886838362E+04  0.91083298080E+03 0.  0.
         23    2    4    4    0    0  0.18578959977E+03  0.34918176737E+03  0.24086834437E+03  0.47094181502E+03  0.85574247086E+02 0.  0.
         23    2    4    4    0    0 -0.15567670908E+03 -0.98117079595E+01  0.16076187736E+04  0.16177420212E+04  0.91211942980E+02 0.  0.
          1    1    3    3  502    0  0.12378546478E+02 -0.34847351125E+02  0.14703622402E+02  0.39796517500E+02  0.00000000000E+00 0. -1.
         -1    1    3    3    0  502 -0.42491437164E+02 -0.30452270829E+03 -0.95299016483E+02  0.32190294288E+03  0.00000000000E+00 0.  1.
         13    1    5    5    0    0  0.18190714695E+03  0.27217156129E+03  0.18890021639E+03  0.37795616232E+03  0.00000000000E+00 0.  1.
        -13    1    5    5    0    0  0.38824528154E+01  0.77010206083E+02  0.51968127977E+02  0.92985652690E+02  0.00000000000E+00 0. -1.
          1    1    6    6  503    0 -0.18532360157E+01  0.41722752556E+01  0.43151269658E+03  0.43153684625E+03  0.00000000000E+00 0. -1.
         -1    1    6    6    0  503 -0.15382347307E+03 -0.13983983215E+02  0.11761060770E+04  0.11862051749E+04  0.00000000000E+00 0.  1.
<mgrwt>
<rscale>  0 0.16967431E+04</rscale>
<asrwt>0</asrwt>
<pdfrwt beam="1">  1        1 0.32448269E+00 0.16967431E+04</pdfrwt>
<pdfrwt beam="2">  1       -1 0.52499353E-01 0.16967431E+04</pdfrwt>
<totfact> 0.87461612E+00</totfact>
</mgrwt>
</event>
<event>
12    3  0.4806716E-008  0.3405567E+04  0.7818608E-02  0.8136541E-01
          1   -1    0    0  501    0  0.00000000000E+00  0.00000000000E+00  0.24181692373E+04  0.24181692373E+04  0.00000000000E+00 0. -1.
         -1   -1    0    0    0  501 -0.00000000000E+00 -0.00000000000E+00 -0.11990361532E+04  0.11990361532E+04  0.00000000000E+00 0.  1.
         23    2    1    2    0    0 -0.15668263419E+04 -0.20913271495E+03  0.60415829524E+03  0.16947125313E+04  0.91444190784E+02 0.  0.
        254    2    1    2    0    0  0.15668263419E+04  0.20913271495E+03  0.61497478891E+03  0.19224928592E+04  0.90504338258E+03 0.  0.
         23    2    4    4    0    0  0.14028929031E+04  0.48403966625E+03  0.52430155537E+03  0.15766366154E+04  0.92130342162E+02 0.  0.
         23    2    4    4    0    0  0.16393343882E+03 -0.27490695129E+03  0.90673233544E+02  0.34585624378E+03  0.94588063982E+02 0.  0.
          1    1    3    3  502    0 -0.11768913611E+04 -0.13590947041E+03  0.41622203781E+03  0.12557011765E+04  0.00000000000E+00 0. -1.
         -1    1    3    3    0  502 -0.38993498079E+03 -0.73223244544E+02  0.18793625743E+03  0.43901135480E+03  0.00000000000E+00 0.  1.
         13    1    5    5    0    0  0.82369632403E+03  0.24217645320E+03  0.32637379541E+03  0.91850145511E+03  0.00000000000E+00 0.  1.
        -13    1    5    5    0    0  0.57919657905E+03  0.24186321305E+03  0.19792775996E+03  0.65813516026E+03  0.00000000000E+00 0. -1.
          1    1    6    6  503    0  0.13859716223E+03 -0.23297272490E+03  0.11084963504E+03  0.29287045859E+03  0.00000000000E+00 0. -1.
         -1    1    6    6    0  503  0.25336276591E+02 -0.41934226396E+02 -0.20176401501E+02  0.52985785193E+02  0.00000000000E+00 0.  1.
<mgrwt>
<rscale>  0 0.34055674E+04</rscale>
<asrwt>0</asrwt>
<pdfrwt beam="1">  1        1 0.37202604E+00 0.34055674E+04</pdfrwt>
<pdfrwt beam="2">  1       -1 0.18446710E+00 0.34055674E+04</pdfrwt>
<totfact> 0.24537443E-01</totfact>
</mgrwt>
</event>
<event>
12    3  0.4806716E-008  0.1436821E+04  0.7818608E-02  0.8927588E-01
         -2   -1    0    0    0  501 -0.00000000000E+00  0.00000000000E+00  0.16740408288E+03  0.16740408288E+03  0.00000000000E+00 0.  1.
          2   -1    0    0  501    0  0.00000000000E+00 -0.00000000000E+00 -0.30830427380E+04  0.30830427380E+04  0.00000000000E+00 0. -1.
         23    2    1    2    0    0  0.38725992636E+03  0.13465014551E+03 -0.12113231440E+04  0.12820435466E+04  0.90724770473E+02 0.  0.
        254    2    1    2    0    0 -0.38725992636E+03 -0.13465014551E+03 -0.17043155111E+04  0.19684032742E+04  0.89544356406E+03 0.  0.
         23    2    4    4    0    0 -0.61189560410E+03 -0.29639236970E+03 -0.11162727624E+04  0.13105647284E+04  0.96178791610E+02 0.  0.
         23    2    4    4    0    0  0.22463567774E+03  0.16174222419E+03 -0.58804274864E+03  0.65783854585E+03  0.10166387448E+03 0.  0.
          4    1    3    3  502    0  0.33031818051E+03  0.14708496161E+03 -0.10498931099E+04  0.11104141698E+04  0.00000000000E+00 0. -1.
         -4    1    3    3    0  502  0.56941745853E+02 -0.12434816098E+02 -0.16143003411E+03  0.17162937682E+03  0.00000000000E+00 0.  1.
         13    1    5    5    0    0 -0.56862246203E+03 -0.27888009520E+03 -0.10776598239E+04  0.12499825230E+04  0.00000000000E+00 0. -1.
        -13    1    5    5    0    0 -0.43273142071E+02 -0.17512274507E+02 -0.38612938575E+02  0.60582205378E+02  0.00000000000E+00 0.  1.
          3    1    6    6  503    0  0.14662865712E+03  0.15074679904E+03 -0.48072460856E+03  0.52471011977E+03  0.00000000000E+00 0. -1.
         -3    1    6    6    0  503  0.78007020623E+02  0.10995425149E+02 -0.10731814008E+03  0.13312842608E+03  0.00000000000E+00 0.  1.
<mgrwt>
<rscale>  0 0.14368214E+04</rscale>
<asrwt>0</asrwt>
<pdfrwt beam="1">  1        2 0.47431423E+00 0.14368214E+04</pdfrwt>
<pdfrwt beam="2">  1       -2 0.25754476E-01 0.14368214E+04</pdfrwt>
<totfact> 0.20548873E+01</totfact>
</mgrwt>
</event>
<event>
12    3  0.4806716E-008  0.1487330E+04  0.7818608E-02  0.8892922E-01
         -1   -1    0    0    0  501 -0.00000000000E+00  0.00000000000E+00  0.73714002181E+03  0.73714002181E+03  0.00000000000E+00 0.  1.
          1   -1    0    0  501    0  0.00000000000E+00 -0.00000000000E+00 -0.75024749353E+03  0.75024749353E+03  0.00000000000E+00 0. -1.
         23    2    1    2    0    0 -0.29559570947E+03  0.34355237540E+03  0.11662239018E+03  0.47666612602E+03  0.90580106576E+02 0.  0.
        254    2    1    2    0    0  0.29559570947E+03 -0.34355237540E+03 -0.12972986191E+03  0.10107213893E+04  0.89404856224E+03 0.  0.
         23    2    4    4    0    0 -0.78915622658E+02  0.51973482267E+02 -0.38122310199E+03  0.40374026465E+03  0.93521278048E+02 0.  0.
         23    2    4    4    0    0  0.37451133212E+03 -0.39552585767E+03  0.25149324009E+03  0.60698112466E+03  0.92074936407E+02 0.  0.
          2    1    3    3  502    0 -0.15543913337E+03  0.12019278023E+03  0.71778407161E+02  0.20918835612E+03  0.00000000000E+00 0. -1.
         -2    1    3    3    0  502 -0.14015657609E+03  0.22335959517E+03  0.44843983024E+02  0.26747776990E+03  0.00000000000E+00 0.  1.
         13    1    5    5    0    0 -0.68221968093E+02 -0.98571727620E+01 -0.17159569702E+03  0.18492291373E+03  0.00000000000E+00 0. -1.
        -13    1    5    5    0    0 -0.10693654565E+02  0.61830655029E+02 -0.20962740497E+03  0.21881735092E+03  0.00000000000E+00 0.  1.
          4    1    6    6  503    0  0.16917776670E+03 -0.11866808758E+03  0.75938937337E+02  0.22015892887E+03  0.00000000000E+00 0. -1.
         -4    1    6    6    0  503  0.20533356542E+03 -0.27685777009E+03  0.17555430275E+03  0.38682219580E+03  0.00000000000E+00 0.  1.
<mgrwt>
<rscale>  0 0.14873298E+04</rscale>
<asrwt>0</asrwt>
<pdfrwt beam="1">  1        1 0.11542269E+00 0.14873298E+04</pdfrwt>
<pdfrwt beam="2">  1       -1 0.11340616E+00 0.14873298E+04</pdfrwt>
<totfact> 0.16830610E+01</totfact>
</mgrwt>
</event>
<event>
12    3  0.4806716E-008  0.1431788E+04  0.7818608E-02  0.8931125E-01
          2   -1    0    0  501    0  0.00000000000E+00  0.00000000000E+00  0.33448957648E+03  0.33448957648E+03  0.00000000000E+00 0.  1.
         -2   -1    0    0    0  501 -0.00000000000E+00 -0.00000000000E+00 -0.15321980834E+04  0.15321980834E+04  0.00000000000E+00 0. -1.
         23    2    1    2    0    0 -0.39255439752E+02 -0.97263434861E+02  0.18137460227E+03  0.22818308251E+03  0.90385880987E+02 0.  0.
        254    2    1    2    0    0  0.39255439752E+02  0.97263434861E+02 -0.13790831092E+04  0.16385045774E+04  0.87853620456E+03 0.  0.
         23    2    4    4    0    0 -0.29232478881E+03 -0.24277604175E+03 -0.49643420900E+03  0.63161151603E+03  0.89956626841E+02 0.  0.
         23    2    4    4    0    0  0.33158022857E+03  0.34003947661E+03 -0.88264890019E+03  0.10068930613E+04  0.95876286686E+02 0.  0.
          3    1    3    3  502    0  0.29095710022E+02 -0.35556401571E+02  0.69030494495E+02  0.82921813804E+02  0.00000000000E+00 0. -1.
         -3    1    3    3    0  502 -0.68351149774E+02 -0.61707033290E+02  0.11234410778E+03  0.14526126870E+03  0.00000000000E+00 0.  1.
         13    1    5    5    0    0 -0.26653322115E+03 -0.22229144802E+03 -0.39932586272E+03  0.52906955164E+03  0.00000000000E+00 0.  1.
        -13    1    5    5    0    0 -0.25791567667E+02 -0.20484593728E+02 -0.97108346281E+02  0.10254196439E+03  0.00000000000E+00 0. -1.
          2    1    6    6  503    0  0.25959584452E+02  0.69847909385E+02 -0.10514119875E+03  0.12886932197E+03  0.00000000000E+00 0. -1.
         -2    1    6    6    0  503  0.30562064412E+03  0.27019156723E+03 -0.77750770143E+03  0.87802373937E+03  0.00000000000E+00 0.  1.
<mgrwt>
<rscale>  0 0.14317881E+04</rscale>
<asrwt>0</asrwt>
<pdfrwt beam="1">  1        2 0.51459935E-01 0.14317881E+04</pdfrwt>
<pdfrwt beam="2">  1       -2 0.23572278E+00 0.14317881E+04</pdfrwt>
<totfact> 0.74358237E+00</totfact>
</mgrwt>
</event>
<event>
12    3  0.4806716E-008  0.1815885E+04  0.7818608E-02  0.8697897E-01
         -2   -1    0    0    0  501 -0.00000000000E+00  0.00000000000E+00  0.44569245185E+03  0.44569245185E+03  0.00000000000E+00 0.  1.
          2   -1    0    0  501    0  0.00000000000E+00 -0.00000000000E+00 -0.18496157191E+04  0.18496157191E+04  0.00000000000E+00 0. -1.
         23    2    1    2    0    0  0.98059651464E+02 -0.22253884149E+03 -0.13498695511E+04  0.13744646183E+04  0.88690195081E+02 0.  0.
        254    2    1    2    0    0 -0.98059651464E+02  0.22253884149E+03 -0.54053716111E+02  0.92084355263E+03  0.88650539365E+03 0.  0.
         23    2    4    4    0    0  0.15746590756E+03  0.31035640066E+02 -0.40022181355E+03  0.44076447549E+03  0.91307720472E+02 0.  0.
         23    2    4    4    0    0 -0.25552555902E+03  0.19150320143E+03  0.34616809743E+03  0.48007907714E+03  0.93149241307E+02 0.  0.
          4    1    3    3  502    0  0.11158747283E+03 -0.20919645483E+03 -0.12914169956E+04  0.13130014384E+04  0.00000000000E+00 0. -1.
         -4    1    3    3    0  502 -0.13527821363E+02 -0.13342386659E+02 -0.58452555535E+02  0.61463179881E+02  0.00000000000E+00 0.  1.
         13    1    5    5    0    0 -0.99312221706E+01  0.10288719477E+02 -0.18084585162E+02  0.23055132677E+02  0.00000000000E+00 0. -1.
        -13    1    5    5    0    0  0.16739712973E+03  0.20746920589E+02 -0.38213722838E+03  0.41770934281E+03  0.00000000000E+00 0.  1.
          3    1    6    6  503    0 -0.58463985294E+02  0.62278416340E+02  0.41662760632E+02  0.95039067450E+02  0.00000000000E+00 0. -1.
         -3    1    6    6    0  503 -0.19706157373E+03  0.12922478509E+03  0.30450533680E+03  0.38504000969E+03  0.00000000000E+00 0.  1.
<mgrwt>
<rscale>  0 0.18158852E+04</rscale>
<asrwt>0</asrwt>
<pdfrwt beam="1">  1        2 0.28455627E+00 0.18158852E+04</pdfrwt>
<pdfrwt beam="2">  1       -2 0.68568069E-01 0.18158852E+04</pdfrwt>
<totfact> 0.14847793E+01</totfact>
</mgrwt>
</event>
<event>
12    3  0.4806716E-008  0.1425362E+04  0.7818608E-02  0.8935662E-01
         -2   -1    0    0    0  501 -0.00000000000E+00  0.00000000000E+00  0.14875071714E+03  0.14875071714E+03  0.00000000000E+00 0.  1.
          2   -1    0    0  501    0  0.00000000000E+00 -0.00000000000E+00 -0.34145325562E+04  0.34145325562E+04  0.00000000000E+00 0. -1.
         23    2    1    2    0    0 -0.13050160479E+03 -0.22540836463E+03 -0.18058347037E+04  0.18269128458E+04  0.93445007189E+02 0.  0.
        254    2    1    2    0    0  0.13050160479E+03  0.22540836463E+03 -0.14599471354E+04  0.17363704276E+04  0.90315946759E+03 0.  0.
         23    2    4    4    0    0  0.35401265418E+03 -0.89293218166E+02 -0.12135040564E+04  0.12701140331E+04  0.85436081807E+02 0.  0.
         23    2    4    4    0    0 -0.22351104939E+03  0.31470158280E+03 -0.24644307899E+03  0.46625639446E+03  0.87558887452E+02 0.  0.
          3    1    3    3  502    0 -0.14133997279E+03 -0.21091549814E+03 -0.17471377002E+04  0.17654893030E+04  0.00000000000E+00 0. -1.
         -3    1    3    3    0  502  0.10838367998E+02 -0.14492866497E+02 -0.58697003449E+02  0.61423542832E+02  0.00000000000E+00 0.  1.
         13    1    5    5    0    0  0.90331137888E+02  0.14511864505E+02 -0.28401551413E+03  0.29838753484E+03  0.00000000000E+00 0. -1.
        -13    1    5    5    0    0  0.26368151629E+03 -0.10380508267E+03 -0.92948854228E+03  0.97172649828E+03  0.00000000000E+00 0.  1.
          4    1    6    6  503    0 -0.14117440503E+01  0.44913437988E+02 -0.16154401321E+02  0.47751173966E+02  0.00000000000E+00 0. -1.
         -4    1    6    6    0  503 -0.22209930534E+03  0.26978814481E+03 -0.23028867767E+03  0.41850522049E+03  0.00000000000E+00 0.  1.
<mgrwt>
<rscale>  0 0.14253619E+04</rscale>
<asrwt>0</asrwt>
<pdfrwt beam="1">  1        2 0.52531265E+00 0.14253619E+04</pdfrwt>
<pdfrwt beam="2">  1       -2 0.22884728E-01 0.14253619E+04</pdfrwt>
<totfact> 0.15461378E+01</totfact>
</mgrwt>
</event>
<event>
12    3  0.4806716E-008  0.1052826E+04  0.7818608E-02  0.9252431E-01
         -1   -1    0    0    0  501 -0.00000000000E+00  0.00000000000E+00  0.31673269596E+03  0.31673269596E+03  0.00000000000E+00 0.  1.
          1   -1    0    0  501    0  0.00000000000E+00 -0.00000000000E+00 -0.87490370598E+03  0.87490370598E+03  0.00000000000E+00 0. -1.
         23    2    1    2    0    0  0.10918598413E+03  0.37294954526E+02 -0.57694923954E+02  0.15753507095E+03  0.90421798069E+02 0.  0.
        254    2    1    2    0    0 -0.10918598413E+03 -0.37294954526E+02 -0.50047608607E+03  0.10341013310E+04  0.89753927896E+03 0.  0.
         23    2    4    4    0    0  0.26895874463E+02  0.12415662715E+03 -0.70760357355E+03  0.72478598872E+03  0.92052463437E+02 0.  0.
         23    2    4    4    0    0 -0.13608185859E+03 -0.16145158167E+03  0.20712748748E+03  0.30931534227E+03  0.90494748099E+02 0.  0.
          3    1    3    3  502    0  0.52315003200E+02  0.22279262564E+02 -0.76918109335E+02  0.95653649402E+02  0.00000000000E+00 0. -1.
         -3    1    3    3    0  502  0.56870980925E+02  0.15015691962E+02  0.19223185381E+02  0.61881421547E+02  0.00000000000E+00 0.  1.
         13    1    5    5    0    0  0.37186260168E+02  0.36035866145E+02 -0.43588696493E+03  0.43895198802E+03  0.00000000000E+00 0. -1.
        -13    1    5    5    0    0 -0.10290385705E+02  0.88120761001E+02 -0.27171660862E+03  0.28583400070E+03  0.00000000000E+00 0.  1.
          3    1    6    6  503    0 -0.11542434449E+03 -0.15129034739E+03  0.21293311119E+03  0.28557321015E+03  0.00000000000E+00 0.  1.
         -3    1    6    6    0  503 -0.20657514101E+02 -0.10161234279E+02 -0.58056237116E+01  0.23742132120E+02  0.00000000000E+00 0. -1.
<mgrwt>
<rscale>  0 0.10528259E+04</rscale>
<asrwt>0</asrwt>
<pdfrwt beam="1">  1        1 0.13460057E+00 0.10528259E+04</pdfrwt>
<pdfrwt beam="2">  1       -1 0.48728107E-01 0.10528259E+04</pdfrwt>
<totfact> 0.80385653E+01</totfact>
</mgrwt>
</event>
<event>
12    3  0.4806716E-008  0.2556808E+04  0.7818608E-02  0.8383022E-01
         -2   -1    0    0    0  501 -0.00000000000E+00  0.00000000000E+00  0.44149315014E+03  0.44149315014E+03  0.00000000000E+00 0.  1.
          2   -1    0    0  501    0  0.00000000000E+00 -0.00000000000E+00 -0.37017946173E+04  0.37017946173E+04  0.00000000000E+00 0. -1.
         23    2    1    2    0    0  0.98382254551E+03  0.44584403300E+02 -0.57113826486E+03  0.11421925253E+04  0.92251163021E+02 0.  0.
        254    2    1    2    0    0 -0.98382254551E+03 -0.44584403300E+02 -0.26891632023E+04  0.30010952421E+04  0.89726214341E+03 0.  0.
         23    2    4    4    0    0 -0.73984272697E+03  0.27663496504E+03 -0.10892195714E+04  0.13485475408E+04  0.91033128702E+02 0.  0.
         23    2    4    4    0    0 -0.24397981854E+03 -0.32121936834E+03 -0.15999436309E+04  0.16525477014E+04  0.91576464680E+02 0.  0.
          2    1    3    3  502    0  0.36852928956E+03 -0.22502150556E+02 -0.18885102162E+03  0.41471061285E+03  0.00000000000E+00 0. -1.
         -2    1    3    3    0  502  0.61529325595E+03  0.67086553856E+02 -0.38228724324E+03  0.72748191240E+03  0.00000000000E+00 0.  1.
         13    1    5    5    0    0 -0.31935956979E+02  0.45500469189E+01 -0.21012527376E+02  0.38498501034E+02  0.00000000000E+00 0. -1.
        -13    1    5    5    0    0 -0.70790676999E+03  0.27208491812E+03 -0.10682070440E+04  0.13100490397E+04  0.00000000000E+00 0.  1.
          4    1    6    6  503    0  0.40574749249E+01 -0.21372886546E+01 -0.35744708680E+01  0.58144602110E+01  0.00000000000E+00 0. -1.
         -4    1    6    6    0  503 -0.24803729347E+03 -0.31908207968E+03 -0.15963691600E+04  0.16467332412E+04  0.00000000000E+00 0.  1.
<mgrwt>
<rscale>  0 0.25568081E+04</rscale>
<asrwt>0</asrwt>
<pdfrwt beam="1">  1        2 0.56950687E+00 0.25568081E+04</pdfrwt>
<pdfrwt beam="2">  1       -2 0.67922022E-01 0.25568081E+04</pdfrwt>
<totfact> 0.10271186E+00</totfact>
</mgrwt>
</event>
<event>
12    3  0.4806716E-008  0.2026430E+04  0.7818608E-02  0.8594362E-01
         -2   -1    0    0    0  501 -0.00000000000E+00  0.00000000000E+00  0.17657301312E+04  0.17657301312E+04  0.00000000000E+00 0.  1.
          2   -1    0    0  501    0  0.00000000000E+00 -0.00000000000E+00 -0.58140537970E+03  0.58140537970E+03  0.00000000000E+00 0. -1.
         23    2    1    2    0    0 -0.81642332902E+02 -0.11708096145E+03 -0.43612981076E+03  0.46795386876E+03  0.91641635722E+02 0.  0.
        254    2    1    2    0    0  0.81642332902E+02  0.11708096145E+03  0.16204545623E+04  0.18791816422E+04  0.94078543448E+03 0.  0.
         23    2    4    4    0    0 -0.18904091221E+03  0.31260726673E+03  0.22023052864E+03  0.43652680892E+03  0.92705983948E+02 0.  0.
         23    2    4    4    0    0  0.27068324511E+03 -0.19552630528E+03  0.14002240337E+04  0.14426548333E+04  0.95528363370E+02 0.  0.
          1    1    3    3  502    0 -0.85990768470E+02 -0.12795034448E+03 -0.37057765699E+03  0.40136455097E+03  0.00000000000E+00 0. -1.
         -1    1    3    3    0  502  0.43484355680E+01  0.10869383038E+02 -0.65552153778E+02  0.66589317795E+02  0.00000000000E+00 0.  1.
         13    1    5    5    0    0 -0.17039168228E+03  0.20414412385E+03  0.16953331865E+03  0.31535645677E+03  0.00000000000E+00 0. -1.
        -13    1    5    5    0    0 -0.18649229933E+02  0.10846314288E+03  0.50697209985E+02  0.12117035215E+03  0.00000000000E+00 0.  1.
          2    1    6    6  503    0  0.22732536210E+03 -0.12278609162E+03  0.11435028288E+04  0.11723275840E+04  0.00000000000E+00 0. -1.
         -2    1    6    6    0  503  0.43357883015E+02 -0.72740213658E+02  0.25672120484E+03  0.27032724931E+03  0.00000000000E+00 0.  1.
<mgrwt>
<rscale>  0 0.20264304E+04</rscale>
<asrwt>0</asrwt>
<pdfrwt beam="1">  1        2 0.89446982E-01 0.20264304E+04</pdfrwt>
<pdfrwt beam="2">  1       -2 0.27165079E+00 0.20264304E+04</pdfrwt>
<totfact> 0.22622388E+00</totfact>
</mgrwt>
</event>
<event>
12    3  0.4806716E-008  0.2673988E+04  0.7818608E-02  0.8343495E-01
         -2   -1    0    0    0  501 -0.00000000000E+00  0.00000000000E+00  0.92194149495E+03  0.92194149495E+03  0.00000000000E+00 0.  1.
          2   -1    0    0  501    0  0.00000000000E+00 -0.00000000000E+00 -0.19389000202E+04  0.19389000202E+04  0.00000000000E+00 0. -1.
         23    2    1    2    0    0  0.12781430738E+02 -0.33241564779E+02 -0.17290719254E+04  0.17319375677E+04  0.93003486948E+02 0.  0.
        254    2    1    2    0    0 -0.12781430738E+02  0.33241564779E+02  0.71211340009E+03  0.11289039475E+04  0.87524297287E+03 0.  0.
         23    2    4    4    0    0  0.28670130753E+03 -0.17462224606E+03  0.28156891441E+02  0.34863729307E+03  0.89803023466E+02 0.  0.
         23    2    4    4    0    0 -0.29948273827E+03  0.20786381084E+03  0.68395650865E+03  0.78026665446E+03  0.90123648181E+02 0.  0.
          3    1    3    3  502    0 -0.19249721110E+02 -0.28930853133E+02 -0.15186932601E+04  0.15190907690E+04  0.00000000000E+00 0. -1.
         -3    1    3    3    0  502  0.32031151847E+02 -0.43107116456E+01 -0.21037866525E+03  0.21284679870E+03  0.00000000000E+00 0.  1.
         13    1    5    5    0    0  0.15639122431E+03 -0.70558518783E+02 -0.25496604733E+02  0.17345545961E+03  0.00000000000E+00 0.  1.
        -13    1    5    5    0    0  0.13031008322E+03 -0.10406372728E+03  0.53653496173E+02  0.17518183346E+03  0.00000000000E+00 0. -1.
          2    1    6    6  503    0 -0.16349376680E+03  0.15349162125E+03  0.35099000915E+03  0.41651395666E+03  0.00000000000E+00 0. -1.
         -2    1    6    6    0  503 -0.13598897147E+03  0.54372189590E+02  0.33296649950E+03  0.36375269779E+03  0.00000000000E+00 0.  1.
<mgrwt>
<rscale>  0 0.26739876E+04</rscale>
<asrwt>0</asrwt>
<pdfrwt beam="1">  1        2 0.29829231E+00 0.26739876E+04</pdfrwt>
<pdfrwt beam="2">  1       -2 0.14183715E+00 0.26739876E+04</pdfrwt>
<totfact> 0.22053428E+00</totfact>
</mgrwt>
</event>
<event>
12    3  0.4806716E-008  0.1382150E+04  0.7818608E-02  0.8966842E-01
         -1   -1    0    0    0  501 -0.00000000000E+00  0.00000000000E+00  0.32787006474E+03  0.32787006474E+03  0.00000000000E+00 0.  1.
          1   -1    0    0  501    0  0.00000000000E+00 -0.00000000000E+00 -0.14566273999E+04  0.14566273999E+04  0.00000000000E+00 0. -1.
         23    2    1    2    0    0  0.30993768316E+03  0.21606189076E+03 -0.49525077225E+03  0.62957372662E+03  0.91354484030E+02 0.  0.
        254    2    1    2    0    0 -0.30993768316E+03 -0.21606189076E+03 -0.63350656292E+03  0.11549237380E+04  0.88869239183E+03 0.  0.
         23    2    4    4    0    0 -0.20067222959E+03  0.30865380914E+03 -0.98626835155E+02  0.39210826907E+03  0.92114735140E+02 0.  0.
         23    2    4    4    0    0 -0.10926545357E+03 -0.52471569990E+03 -0.53487972777E+03  0.76281546896E+03  0.92334237618E+02 0.  0.
          4    1    3    3  502    0  0.23344550739E+03  0.15208702438E+03 -0.29444030338E+03  0.40536694508E+03  0.00000000000E+00 0. -1.
         -4    1    3    3    0  502  0.76492175771E+02  0.63974866377E+02 -0.20081046886E+03  0.22420678154E+03  0.00000000000E+00 0.  1.
         13    1    5    5    0    0 -0.18265820235E+03  0.30981039201E+03 -0.85174821998E+02  0.36959606084E+03  0.00000000000E+00 0. -1.
        -13    1    5    5    0    0 -0.18014027240E+02 -0.11565828684E+01 -0.13452013158E+02  0.22512208228E+02  0.00000000000E+00 0.  1.
          2    1    6    6  503    0 -0.10953060044E+03 -0.30403054515E+03 -0.32126033876E+03  0.45567502683E+03  0.00000000000E+00 0.  1.
         -2    1    6    6    0  503  0.26514686160E+00 -0.22068515475E+03 -0.21361938900E+03  0.30714044213E+03  0.00000000000E+00 0. -1.
<mgrwt>
<rscale>  0 0.13821498E+04</rscale>
<asrwt>0</asrwt>
<pdfrwt beam="1">  1        1 0.22409652E+00 0.13821498E+04</pdfrwt>
<pdfrwt beam="2">  1       -1 0.50441549E-01 0.13821498E+04</pdfrwt>
<totfact> 0.27022684E+01</totfact>
</mgrwt>
</event>
<event>
12    3  0.4806716E-008  0.1399951E+04  0.7818608E-02  0.8953854E-01
          1   -1    0    0  501    0  0.00000000000E+00  0.00000000000E+00  0.95667252437E+03  0.95667252437E+03  0.00000000000E+00 0. -1.
         -1   -1    0    0    0  501 -0.00000000000E+00 -0.00000000000E+00 -0.51215584375E+03  0.51215584375E+03  0.00000000000E+00 0.  1.
         23    2    1    2    0    0  0.38530014372E+03  0.11772145280E+03  0.87134492268E+02  0.42239233797E+03  0.92240588854E+02 0.  0.
        254    2    1    2    0    0 -0.38530014372E+03 -0.11772145280E+03  0.35738218836E+03  0.10464360301E+04  0.89721335001E+03 0.  0.
         23    2    4    4    0    0 -0.38874590807E+03  0.80603484528E+02  0.59690413244E+03  0.72241053281E+03  0.89230778508E+02 0.  0.
         23    2    4    4    0    0  0.34457643501E+01 -0.19832493732E+03 -0.23952194408E+03  0.32402549734E+03  0.90978608313E+02 0.  0.
          2    1    3    3  502    0  0.25916510135E+03  0.70449953502E+02  0.10109935202E+03  0.28696833394E+03  0.00000000000E+00 0.  1.
         -2    1    3    3    0  502  0.12613504238E+03  0.47271499293E+02 -0.13964859748E+02  0.13542400403E+03  0.00000000000E+00 0. -1.
         13    1    5    5    0    0 -0.32333535273E+03  0.55441454539E+02  0.42585862834E+03  0.53756402087E+03  0.00000000000E+00 0. -1.
        -13    1    5    5    0    0 -0.65410555348E+02  0.25162029989E+02  0.17104550410E+03  0.18484651194E+03  0.00000000000E+00 0.  1.
          4    1    6    6  503    0 -0.32983473186E+02 -0.10652127936E+03 -0.16974623674E+03  0.20309721157E+03  0.00000000000E+00 0.  1.
         -4    1    6    6    0  503  0.36429237536E+02 -0.91803657967E+02 -0.69775707339E+02  0.12092828577E+03  0.00000000000E+00 0. -1.
<mgrwt>
<rscale>  0 0.13999506E+04</rscale>
<asrwt>0</asrwt>
<pdfrwt beam="1">  1        1 0.14718039E+00 0.13999506E+04</pdfrwt>
<pdfrwt beam="2">  1       -1 0.78793207E-01 0.13999506E+04</pdfrwt>
<totfact> 0.25728072E+01</totfact>
</mgrwt>
</event>
<event>
12    3  0.4806716E-008  0.2077709E+04  0.7818608E-02  0.8571127E-01
          2   -1    0    0  501    0  0.00000000000E+00  0.00000000000E+00  0.92766301486E+03  0.92766301486E+03  0.00000000000E+00 0.  1.
         -2   -1    0    0    0  501 -0.00000000000E+00 -0.00000000000E+00 -0.11633741651E+04  0.11633741651E+04  0.00000000000E+00 0. -1.
         23    2    1    2    0    0 -0.50300044801E+03  0.65230614969E+03  0.46347423844E+02  0.82995137380E+03  0.90324058567E+02 0.  0.
        254    2    1    2    0    0  0.50300044801E+03 -0.65230614969E+03 -0.28205857411E+03  0.12610858062E+04  0.91228702047E+03 0.  0.
         23    2    4    4    0    0  0.41150480559E+03 -0.71330847677E+03  0.11880051703E+03  0.83687113542E+03  0.89969697106E+02 0.  0.
         23    2    4    4    0    0  0.91495642413E+02  0.61002327080E+02 -0.40085909114E+03  0.42421467076E+03  0.84719179945E+02 0.  0.
          4    1    3    3  502    0 -0.27573437916E+03  0.37404146696E+03  0.69825700027E+02  0.46990647500E+03  0.00000000000E+00 0. -1.
         -4    1    3    3    0  502 -0.22726606884E+03  0.27826468273E+03 -0.23478276183E+02  0.36004489880E+03  0.00000000000E+00 0.  1.
         13    1    5    5    0    0  0.12223472227E+03 -0.19212412741E+03  0.72593265422E+02  0.23900374442E+03  0.00000000000E+00 0. -1.
        -13    1    5    5    0    0  0.28927008332E+03 -0.52118434936E+03  0.46207251609E+02  0.59786739101E+03  0.00000000000E+00 0.  1.
          4    1    6    6  503    0  0.50359046852E+02  0.33400564071E+01 -0.72719827840E+02  0.88517585471E+02  0.00000000000E+00 0. -1.
         -4    1    6    6    0  503  0.41136595561E+02  0.57662270672E+02 -0.32813926330E+03  0.33569708529E+03  0.00000000000E+00 0.  1.
<mgrwt>
<rscale>  0 0.20777095E+04</rscale>
<asrwt>0</asrwt>
<pdfrwt beam="1">  1        2 0.14271739E+00 0.20777095E+04</pdfrwt>
<pdfrwt beam="2">  1       -2 0.17898064E+00 0.20777095E+04</pdfrwt>
<totfact> 0.47783999E+00</totfact>
</mgrwt>
</event>
<event>
12    3  0.4806716E-008  0.1270956E+04  0.7818608E-02  0.9052920E-01
         -2   -1    0    0    0  501 -0.00000000000E+00  0.00000000000E+00  0.21629260158E+03  0.21629260158E+03  0.00000000000E+00 0.  1.
          2   -1    0    0  501    0  0.00000000000E+00 -0.00000000000E+00 -0.18670641286E+04  0.18670641286E+04  0.00000000000E+00 0. -1.
         23    2    1    2    0    0  0.17058454995E+03 -0.19299563527E+03 -0.13933748968E+03  0.30639234254E+03  0.90082893044E+02 0.  0.
        254    2    1    2    0    0 -0.17058454995E+03  0.19299563527E+03 -0.15114340374E+04  0.17769643877E+04  0.89823336712E+03 0.  0.
         23    2    4    4    0    0  0.17051446280E+03 -0.17651481671E+03 -0.10822405696E+03  0.28327125620E+03  0.91090589778E+02 0.  0.
         23    2    4    4    0    0 -0.34109901275E+03  0.36951045198E+03 -0.14032099804E+04  0.14936931315E+04  0.96095844027E+02 0.  0.
          1    1    3    3  502    0 -0.58290119519E+01  0.20021157523E+01 -0.13577500151E+02  0.14910880530E+02  0.00000000000E+00 0. -1.
         -1    1    3    3    0  502  0.17641356191E+03 -0.19499775102E+03 -0.12575998953E+03  0.29148146201E+03  0.00000000000E+00 0.  1.
         13    1    5    5    0    0  0.42482755063E+01  0.96248798167E+01 -0.11535681065E+02  0.15612754206E+02  0.00000000000E+00 0. -1.
        -13    1    5    5    0    0  0.16626618729E+03 -0.18613969653E+03 -0.96688375895E+02  0.26765850200E+03  0.00000000000E+00 0.  1.
          4    1    6    6  503    0  0.57993677456E+00  0.25116634229E+02 -0.10022169960E+03  0.10332265343E+03  0.00000000000E+00 0. -1.
         -4    1    6    6    0  503 -0.34167894953E+03  0.34439381775E+03 -0.13029882808E+04  0.13903704780E+04  0.00000000000E+00 0.  1.
<mgrwt>
<rscale>  0 0.12709558E+04</rscale>
<asrwt>0</asrwt>
<pdfrwt beam="1">  1        2 0.28724063E+00 0.12709558E+04</pdfrwt>
<pdfrwt beam="2">  1       -2 0.33275785E-01 0.12709558E+04</pdfrwt>
<totfact> 0.65640050E+01</totfact>
</mgrwt>
</event>
<event>
12    3  0.4806716E-008  0.1724685E+04  0.7818608E-02  0.8747410E-01
         -2   -1    0    0    0  501 -0.00000000000E+00  0.00000000000E+00  0.56965203951E+03  0.56965203951E+03  0.00000000000E+00 0.  1.
          2   -1    0    0  501    0  0.00000000000E+00 -0.00000000000E+00 -0.13054182399E+04  0.13054182399E+04  0.00000000000E+00 0. -1.
         23    2    1    2    0    0 -0.31910717765E+03 -0.47794296972E+03 -0.11769694143E+02  0.58231536940E+03  0.93240498753E+02 0.  0.
        254    2    1    2    0    0  0.31910717765E+03  0.47794296972E+03 -0.72399650622E+03  0.12927549100E+04  0.90376182877E+03 0.  0.
         23    2    4    4    0    0 -0.63300208008E+02  0.46851174202E+02  0.17965460619E+03  0.21714616899E+03  0.93138243067E+02 0.  0.
         23    2    4    4    0    0  0.38240738565E+03  0.43109179551E+03 -0.90365111241E+03  0.10756087410E+04  0.90957605422E+02 0.  0.
          2    1    3    3  502    0 -0.67606832967E+02 -0.59308019592E+02 -0.26384100763E+02  0.93724307545E+02  0.00000000000E+00 0. -1.
         -2    1    3    3    0  502 -0.25150034468E+03 -0.41863495012E+03  0.14614406620E+02  0.48859106185E+03  0.00000000000E+00 0.  1.
         13    1    5    5    0    0 -0.75956693447E+02  0.59928902687E+01  0.13686343796E+03  0.15664269745E+03  0.00000000000E+00 0.  1.
        -13    1    5    5    0    0  0.12656485439E+02  0.40858283934E+02  0.42791168229E+02  0.60503471537E+02  0.00000000000E+00 0. -1.
          1    1    6    6  503    0  0.96785316689E+02  0.81283625752E+02 -0.14167371050E+03  0.18985748757E+03  0.00000000000E+00 0. -1.
         -1    1    6    6    0  503  0.28562206897E+03  0.34980816976E+03 -0.76197740191E+03  0.88575125342E+03  0.00000000000E+00 0.  1.
<mgrwt>
<rscale>  0 0.17246845E+04</rscale>
<asrwt>0</asrwt>
<pdfrwt beam="1">  1        2 0.20083357E+00 0.17246845E+04</pdfrwt>
<pdfrwt beam="2">  1       -2 0.87638776E-01 0.17246845E+04</pdfrwt>
<totfact> 0.17513392E+01</totfact>
</mgrwt>
</event>
<event>
12    3  0.4806716E-008  0.1329814E+04  0.7818608E-02  0.9006250E-01
         -1   -1    0    0    0  501 -0.00000000000E+00  0.00000000000E+00  0.59642031215E+03  0.59642031215E+03  0.00000000000E+00 0.  1.
          1   -1    0    0  501    0  0.00000000000E+00 -0.00000000000E+00 -0.74125852576E+03  0.74125852576E+03  0.00000000000E+00 0. -1.
         23    2    1    2    0    0  0.28990710298E+02 -0.30291692714E+03 -0.21634396119E+03  0.38474891384E+03  0.92886442113E+02 0.  0.
        254    2    1    2    0    0 -0.28990710298E+02  0.30291692714E+03  0.71505747573E+02  0.95292992407E+03  0.90020177861E+03 0.  0.
         23    2    4    4    0    0  0.54885787124E+01  0.40332377037E+03  0.41337675658E+03  0.58485476587E+03  0.92057406187E+02 0.  0.
         23    2    4    4    0    0 -0.34479289010E+02 -0.10040684324E+03 -0.34187100900E+03  0.36807515820E+03  0.85633987105E+02 0.  0.
          4    1    3    3  502    0  0.21085383211E+01 -0.27546706688E+03 -0.16674595754E+03  0.32201050484E+03  0.00000000000E+00 0. -1.
         -4    1    3    3    0  502  0.26882171977E+02 -0.27449860255E+02 -0.49598003645E+02  0.62738408999E+02  0.00000000000E+00 0.  1.
         13    1    5    5    0    0  0.82822711070E+01  0.10742228957E+03  0.57843822101E+02  0.12228676162E+03  0.00000000000E+00 0. -1.
        -13    1    5    5    0    0 -0.27936923946E+01  0.29590148080E+03  0.35553293448E+03  0.46256800425E+03  0.00000000000E+00 0.  1.
          4    1    6    6  503    0  0.17553401501E+02  0.50509629266E+01 -0.35794490231E+02  0.40185565339E+02  0.00000000000E+00 0. -1.
         -4    1    6    6    0  503 -0.52032690511E+02 -0.10545780616E+03 -0.30607651877E+03  0.32788959286E+03  0.00000000000E+00 0.  1.
<mgrwt>
<rscale>  0 0.13298145E+04</rscale>
<asrwt>0</asrwt>
<pdfrwt beam="1">  1        1 0.11403977E+00 0.13298145E+04</pdfrwt>
<pdfrwt beam="2">  1       -1 0.91756972E-01 0.13298145E+04</pdfrwt>
<totfact> 0.28312881E+01</totfact>
</mgrwt>
</event>
<event>
12    3  0.4806716E-008  0.1056444E+04  0.7818608E-02  0.9248716E-01
          1   -1    0    0  501    0  0.00000000000E+00  0.00000000000E+00  0.11294278225E+04  0.11294278225E+04  0.00000000000E+00 0. -1.
         -1   -1    0    0    0  501 -0.00000000000E+00 -0.00000000000E+00 -0.24704398408E+03  0.24704398408E+03  0.00000000000E+00 0.  1.
         23    2    1    2    0    0  0.78814429448E+02  0.71395309470E+02  0.15208136501E+03  0.20999241839E+03  0.98280566208E+02 0.  0.
        254    2    1    2    0    0 -0.78814429448E+02 -0.71395309470E+02  0.73030247345E+03  0.11664793882E+04  0.90334016623E+03 0.  0.
         23    2    4    4    0    0  0.23144198938E+03  0.30175887179E+03  0.45828428231E+03  0.60264732319E+03  0.92387778330E+02 0.  0.
         23    2    4    4    0    0 -0.31025641882E+03 -0.37315418126E+03  0.27201819114E+03  0.56383206504E+03  0.91703941248E+02 0.  0.
          3    1    3    3  502    0  0.20201466325E+02  0.43018219258E+02  0.13433887361E+03  0.14249771714E+03  0.00000000000E+00 0. -1.
         -3    1    3    3    0  502  0.58612963123E+02  0.28377090212E+02  0.17742491407E+02  0.67494701246E+02  0.00000000000E+00 0.  1.
         13    1    5    5    0    0  0.16471290969E+03  0.16658543374E+03  0.33003268777E+03  0.40472536905E+03  0.00000000000E+00 0.  1.
        -13    1    5    5    0    0  0.66729079683E+02  0.13517343805E+03  0.12825159454E+03  0.19792195414E+03  0.00000000000E+00 0. -1.
          4    1    6    6  503    0 -0.43981829154E+01 -0.21593789205E+02 -0.37588684105E+01  0.22355420750E+02  0.00000000000E+00 0. -1.
         -4    1    6    6    0  503 -0.30585823591E+03 -0.35156039206E+03  0.27577705955E+03  0.54147664429E+03  0.00000000000E+00 0.  1.
<mgrwt>
<rscale>  0 0.10564437E+04</rscale>
<asrwt>0</asrwt>
<pdfrwt beam="1">  1        1 0.17375812E+00 0.10564437E+04</pdfrwt>
<pdfrwt beam="2">  1       -1 0.38006767E-01 0.10564437E+04</pdfrwt>
<totfact> 0.80440454E+01</totfact>
</mgrwt>
</event>
<event>
12    3  0.4806716E-008  0.2553401E+04  0.7818608E-02  0.8384204E-01
          1   -1    0    0  501    0  0.00000000000E+00  0.00000000000E+00  0.22060717467E+04  0.22060717467E+04  0.00000000000E+00 0. -1.
         -1   -1    0    0    0  501 -0.00000000000E+00 -0.00000000000E+00 -0.73885342481E+03  0.73885342481E+03  0.00000000000E+00 0.  1.
         23    2    1    2    0    0 -0.81643349367E+03 -0.13062465702E+03 -0.22453117879E+03  0.86158498792E+03  0.91038401566E+02 0.  0.
        254    2    1    2    0    0  0.81643349367E+03  0.13062465702E+03  0.16917495007E+04  0.20833401836E+04  0.89143900349E+03 0.  0.
         23    2    4    4    0    0 -0.16179670126E+02 -0.30556271628E+02  0.94444815208E+03  0.94937851757E+03  0.90231869152E+02 0.  0.
         23    2    4    4    0    0  0.83261316379E+03  0.16118092865E+03  0.74730134864E+03  0.11339616661E+04  0.90475312225E+02 0.  0.
          4    1    3    3  502    0 -0.81699396427E+03 -0.12541931926E+03 -0.22272069041E+03  0.85604535466E+03  0.00000000000E+00 0.  1.
         -4    1    3    3    0  502  0.56047060210E+00 -0.52053377624E+01 -0.18104883797E+01  0.55396332631E+01  0.00000000000E+00 0. -1.
         13    1    5    5    0    0 -0.18025115907E+02 -0.10976225844E+02  0.90550674666E+03  0.90575264315E+03  0.00000000000E+00 0. -1.
        -13    1    5    5    0    0  0.18454457808E+01 -0.19580045784E+02  0.38941405419E+02  0.43625874421E+02  0.00000000000E+00 0.  1.
          4    1    6    6  503    0  0.51926628002E+03  0.90183919147E+02  0.52009655232E+03  0.74045326157E+03  0.00000000000E+00 0. -1.
         -4    1    6    6    0  503  0.31334688377E+03  0.70997009501E+02  0.22720479633E+03  0.39350840448E+03  0.00000000000E+00 0.  1.
<mgrwt>
<rscale>  0 0.25534006E+04</rscale>
<asrwt>0</asrwt>
<pdfrwt beam="1">  1        1 0.33939565E+00 0.25534006E+04</pdfrwt>
<pdfrwt beam="2">  1       -1 0.11366976E+00 0.25534006E+04</pdfrwt>
<totfact> 0.13464827E+00</totfact>
</mgrwt>
</event>
<event>
12    3  0.4806716E-008  0.2675242E+04  0.7818608E-02  0.8343083E-01
          2   -1    0    0  501    0  0.00000000000E+00  0.00000000000E+00  0.17575689316E+04  0.17575689316E+04  0.00000000000E+00 0. -1.
         -2   -1    0    0    0  501 -0.00000000000E+00 -0.00000000000E+00 -0.10180140207E+04  0.10180140207E+04  0.00000000000E+00 0.  1.
         23    2    1    2    0    0  0.90857987007E+03 -0.84852841785E+02  0.11035092626E+04  0.14350527714E+04  0.94479516332E+02 0.  0.
        254    2    1    2    0    0 -0.90857987007E+03  0.84852841785E+02 -0.36395435165E+03  0.13405301809E+04  0.91205318421E+03 0.  0.
         23    2    4    4    0    0 -0.80830967491E+03  0.35699610899E+03 -0.29899804967E+02  0.88875648425E+03  0.90461801755E+02 0.  0.
         23    2    4    4    0    0 -0.10027019516E+03 -0.27214326720E+03 -0.33405454668E+03  0.45177369667E+03  0.91602199352E+02 0.  0.
          3    1    3    3  502    0  0.35251483014E+03 -0.51010228278E+02  0.49783342913E+03  0.61213305091E+03  0.00000000000E+00 0. -1.
         -3    1    3    3    0  502  0.55606503993E+03 -0.33842613506E+02  0.60567583345E+03  0.82291972047E+03  0.00000000000E+00 0.  1.
         13    1    5    5    0    0 -0.61118983674E+02  0.49762500105E+02  0.12279529252E+02  0.79766054314E+02  0.00000000000E+00 0.  1.
        -13    1    5    5    0    0 -0.74719069123E+03  0.30723360888E+03 -0.42179334219E+02  0.80899042993E+03  0.00000000000E+00 0. -1.
          1    1    6    6  503    0 -0.10788408757E+03 -0.23982543360E+03 -0.32356681419E+03  0.41695407205E+03  0.00000000000E+00 0. -1.
         -1    1    6    6    0  503  0.76138924118E+01 -0.32317833600E+02 -0.10487732496E+02  0.34819624627E+02  0.00000000000E+00 0.  1.
<mgrwt>
<rscale>  0 0.26752419E+04</rscale>
<asrwt>0</asrwt>
<pdfrwt beam="1">  1        2 0.27039522E+00 0.26752419E+04</pdfrwt>
<pdfrwt beam="2">  1       -2 0.15661754E+00 0.26752419E+04</pdfrwt>
<totfact> 0.21380784E+00</totfact>
</mgrwt>
</event>
<event>
12    3  0.4806716E-008  0.1773388E+04  0.7818608E-02  0.8720581E-01
          2   -1    0    0  501    0  0.00000000000E+00  0.00000000000E+00  0.67426704057E+03  0.67426704057E+03  0.00000000000E+00 0.  1.
         -2   -1    0    0    0  501 -0.00000000000E+00 -0.00000000000E+00 -0.11660455893E+04  0.11660455893E+04  0.00000000000E+00 0. -1.
         23    2    1    2    0    0  0.64169688925E+03 -0.14626118499E+03 -0.28352967600E+03  0.72245813628E+03  0.91593938629E+02 0.  0.
        254    2    1    2    0    0 -0.64169688925E+03  0.14626118499E+03 -0.20824887277E+03  0.11178544936E+04  0.87924049269E+03 0.  0.
         23    2    4    4    0    0 -0.34671226576E+03 -0.28707317930E+03  0.14233508548E+03  0.48068756812E+03  0.90448084992E+02 0.  0.
         23    2    4    4    0    0 -0.29498462349E+03  0.43333436430E+03 -0.35058395824E+03  0.63716692550E+03  0.90983404005E+02 0.  0.
          4    1    3    3  502    0  0.61756827825E+03 -0.14249878220E+03 -0.29030133791E+03  0.69711645226E+03  0.00000000000E+00 0. -1.
         -4    1    3    3    0  502  0.24128611004E+02 -0.37624027965E+01  0.67716619083E+01  0.25341684017E+02  0.00000000000E+00 0.  1.
         13    1    5    5    0    0 -0.33831412804E+03 -0.26037614197E+03  0.11631082123E+03  0.44247078059E+03  0.00000000000E+00 0. -1.
        -13    1    5    5    0    0 -0.83981377232E+01 -0.26697037331E+02  0.26024264244E+02  0.38216787527E+02  0.00000000000E+00 0.  1.
          1    1    6    6  503    0 -0.15301845167E+03  0.26965986028E+03 -0.25003662746E+03  0.39830817450E+03  0.00000000000E+00 0. -1.
         -1    1    6    6    0  503 -0.14196617182E+03  0.16367450402E+03 -0.10054733078E+03  0.23885875101E+03  0.00000000000E+00 0.  1.
<mgrwt>
<rscale>  0 0.17733878E+04</rscale>
<asrwt>0</asrwt>
<pdfrwt beam="1">  1        2 0.10373339E+00 0.17733878E+04</pdfrwt>
<pdfrwt beam="2">  1       -2 0.17939163E+00 0.17733878E+04</pdfrwt>
<totfact> 0.74348418E+00</totfact>
</mgrwt>
</event>
<event>
12    3  0.4806716E-008  0.1517421E+04  0.7818608E-02  0.8872950E-01
         -2   -1    0    0    0  501 -0.00000000000E+00  0.00000000000E+00  0.34123756686E+03  0.34123756686E+03  0.00000000000E+00 0. -1.
          2   -1    0    0  501    0  0.00000000000E+00 -0.00000000000E+00 -0.16869241313E+04  0.16869241313E+04  0.00000000000E+00 0.  1.
         23    2    1    2    0    0  0.36030587629E+03  0.39106597509E+03 -0.48035699265E+03  0.72190223909E+03  0.87447590352E+02 0.  0.
        254    2    1    2    0    0 -0.36030587629E+03 -0.39106597509E+03 -0.86532957184E+03  0.13062594591E+04  0.82144116360E+03 0.  0.
         23    2    4    4    0    0  0.14693230937E+03  0.68310332306E+02  0.15932811425E+02  0.18676135035E+03  0.91490668741E+02 0.  0.
         23    2    4    4    0    0 -0.50723818566E+03 -0.45937630739E+03 -0.88126238326E+03  0.11194981088E+04  0.91298732622E+02 0.  0.
          2    1    3    3  502    0  0.32197085651E+03  0.33419303690E+03 -0.45160924138E+03  0.64753465178E+03  0.00000000000E+00 0. -1.
         -2    1    3    3    0  502  0.38335019780E+02  0.56872938191E+02 -0.28747751269E+02  0.74367587315E+02  0.00000000000E+00 0.  1.
         13    1    5    5    0    0  0.22500802139E+02  0.68161368273E+01 -0.32187046155E+02  0.39859148991E+02  0.00000000000E+00 0.  1.
        -13    1    5    5    0    0  0.12443150723E+03  0.61494195479E+02  0.48119857579E+02  0.14690220136E+03  0.00000000000E+00 0. -1.
          2    1    6    6  503    0 -0.46926755169E+03 -0.38722525510E+03 -0.76341040531E+03  0.97619203039E+03  0.00000000000E+00 0. -1.
         -2    1    6    6    0  503 -0.37970633970E+02 -0.72151052298E+02 -0.11785197795E+03  0.14330607838E+03  0.00000000000E+00 0.  1.
<mgrwt>
<rscale>  0 0.15174213E+04</rscale>
<asrwt>0</asrwt>
<pdfrwt beam="1">  1        2 0.25952679E+00 0.15174213E+04</pdfrwt>
<pdfrwt beam="2">  1       -2 0.52498087E-01 0.15174213E+04</pdfrwt>
<totfact> 0.32943194E+01</totfact>
</mgrwt>
</event>
<event>
12    3  0.4806716E-008  0.2794852E+04  0.7818608E-02  0.8304868E-01
         -1   -1    0    0    0  501 -0.00000000000E+00  0.00000000000E+00  0.18466141766E+04  0.18466141766E+04  0.00000000000E+00 0.  1.
          1   -1    0    0  501    0  0.00000000000E+00 -0.00000000000E+00 -0.10575024695E+04  0.10575024695E+04  0.00000000000E+00 0. -1.
         23    2    1    2    0    0  0.11184039607E+04 -0.33914719355E+03  0.81008263740E+03  0.14249069747E+04  0.90982244788E+02 0.  0.
        254    2    1    2    0    0 -0.11184039607E+04  0.33914719355E+03 -0.20970930295E+02  0.14792096714E+04  0.90651708967E+03 0.  0.
         23    2    4    4    0    0 -0.39911562494E+03 -0.30158102178E+02  0.39143968534E+03  0.56713139478E+03  0.90610145594E+02 0.  0.
         23    2    4    4    0    0 -0.71928833576E+03  0.36930529573E+03 -0.41241061563E+03  0.91207827663E+03  0.89678065339E+02 0.  0.
          2    1    3    3  502    0  0.86634011486E+03 -0.22638648604E+03  0.63926921557E+03  0.11002096008E+04  0.00000000000E+00 0. -1.
         -2    1    3    3    0  502  0.25206384584E+03 -0.11276070751E+03  0.17081342183E+03  0.32469737390E+03  0.00000000000E+00 0.  1.
         13    1    5    5    0    0 -0.18102719150E+03 -0.31606456818E+02  0.23697714745E+03  0.29987994362E+03  0.00000000000E+00 0. -1.
        -13    1    5    5    0    0 -0.21808843344E+03  0.14483546399E+01  0.15446253789E+03  0.26725145116E+03  0.00000000000E+00 0.  1.
          2    1    6    6  503    0 -0.48627960134E+03  0.23890629715E+03 -0.22937226918E+03  0.58834998713E+03  0.00000000000E+00 0. -1.
         -2    1    6    6    0  503 -0.23300873442E+03  0.13039899858E+03 -0.18303834645E+03  0.32372828950E+03  0.00000000000E+00 0.  1.
<mgrwt>
<rscale>  0 0.27948517E+04</rscale>
<asrwt>0</asrwt>
<pdfrwt beam="1">  1        1 0.16269269E+00 0.27948517E+04</pdfrwt>
<pdfrwt beam="2">  1       -1 0.28409449E+00 0.27948517E+04</pdfrwt>
<totfact> 0.49524927E-01</totfact>
</mgrwt>
</event>
<event>
12    3  0.4806716E-008  0.2824448E+04  0.7818608E-02  0.8295718E-01
         -1   -1    0    0    0  501 -0.00000000000E+00  0.00000000000E+00  0.95544818819E+03  0.95544818819E+03  0.00000000000E+00 0.  1.
          1   -1    0    0  501    0  0.00000000000E+00 -0.00000000000E+00 -0.20873724480E+04  0.20873724480E+04  0.00000000000E+00 0. -1.
         23    2    1    2    0    0 -0.65957283430E+03  0.47727576771E+03  0.53669899209E+03  0.97934128710E+03  0.90747266141E+02 0.  0.
        254    2    1    2    0    0  0.65957283430E+03 -0.47727576771E+03 -0.16686232519E+04  0.20634793491E+04  0.90045265570E+03 0.  0.
         23    2    4    4    0    0  0.84838602977E+02 -0.58041874342E+03 -0.10598036720E+04  0.12150895261E+04  0.95787405152E+02 0.  0.
         23    2    4    4    0    0  0.57473423132E+03  0.10314297571E+03 -0.60881957989E+03  0.84838982298E+03  0.90255752143E+02 0.  0.
          4    1    3    3  502    0 -0.23558881428E+03  0.12517332557E+03  0.14966736632E+03  0.30589339874E+03  0.00000000000E+00 0. -1.
         -4    1    3    3    0  502 -0.42398402002E+03  0.35210244214E+03  0.38703162577E+03  0.67344788836E+03  0.00000000000E+00 0.  1.
         13    1    5    5    0    0  0.27463863074E+02 -0.43225364196E+02 -0.13005886591E+03  0.13977841209E+03  0.00000000000E+00 0.  1.
        -13    1    5    5    0    0  0.57374739903E+02 -0.53719337922E+03 -0.92974480608E+03  0.10753111140E+04  0.00000000000E+00 0. -1.
          3    1    6    6  503    0  0.57370387258E+03  0.98917733810E+02 -0.58921491472E+03  0.82830855797E+03  0.00000000000E+00 0. -1.
         -3    1    6    6    0  503  0.10303587427E+01  0.42252418957E+01 -0.19604665170E+02  0.20081265016E+02  0.00000000000E+00 0.  1.
<mgrwt>
<rscale>  0 0.28244477E+04</rscale>
<asrwt>0</asrwt>
<pdfrwt beam="1">  1        1 0.32113422E+00 0.28244477E+04</pdfrwt>
<pdfrwt beam="2">  1       -1 0.14699203E+00 0.28244477E+04</pdfrwt>
<totfact> 0.82721994E-01</totfact>
</mgrwt>
</event>
<event>
12    3  0.4806716E-008  0.2510127E+04  0.7818608E-02  0.8399386E-01
         -2   -1    0    0    0  501 -0.00000000000E+00  0.00000000000E+00  0.88152967653E+03  0.88152967653E+03  0.00000000000E+00 0.  1.
          2   -1    0    0  501    0  0.00000000000E+00 -0.00000000000E+00 -0.17868766268E+04  0.17868766268E+04  0.00000000000E+00 0. -1.
         23    2    1    2    0    0 -0.38195634424E+02 -0.89656051326E+03  0.26428138259E+03  0.93988308622E+03  0.90862017090E+02 0.  0.
        254    2    1    2    0    0  0.38195634424E+02  0.89656051326E+03 -0.11696283329E+04  0.17285232171E+04  0.90248679473E+03 0.  0.
         23    2    4    4    0    0  0.53382390087E+02  0.55695078482E+03 -0.67308901339E+02  0.57136517588E+03  0.94254017037E+02 0.  0.
         23    2    4    4    0    0 -0.15186755663E+02  0.33960972844E+03 -0.11023194315E+04  0.11571580413E+04  0.91330159704E+02 0.  0.
          2    1    3    3  502    0 -0.12946956932E+02 -0.73495005301E+03  0.18435858660E+03  0.75783064900E+03  0.00000000000E+00 0. -1.
         -2    1    3    3    0  502 -0.25248677492E+02 -0.16161046024E+03  0.79922795994E+02  0.18205243721E+03  0.00000000000E+00 0.  1.
         13    1    5    5    0    0  0.70497126364E+02  0.42065161234E+03 -0.23442728783E+02  0.42716177886E+03  0.00000000000E+00 0.  1.
        -13    1    5    5    0    0 -0.17114736277E+02  0.13629917248E+03 -0.43866172556E+02  0.14420339702E+03  0.00000000000E+00 0. -1.
          3    1    6    6  503    0  0.15488016727E+02  0.11088572229E+03 -0.24586495059E+03  0.27015753922E+03  0.00000000000E+00 0. -1.
         -3    1    6    6    0  503 -0.30674772390E+02  0.22872400614E+03 -0.85645448096E+03  0.88700050203E+03  0.00000000000E+00 0.  1.
<mgrwt>
<rscale>  0 0.25101273E+04</rscale>
<asrwt>0</asrwt>
<pdfrwt beam="1">  1        2 0.27490410E+00 0.25101273E+04</pdfrwt>
<pdfrwt beam="2">  1       -2 0.13561995E+00 0.25101273E+04</pdfrwt>
<totfact> 0.30493334E+00</totfact>
</mgrwt>
</event>
<event>
12    3  0.4806716E-008  0.1541983E+04  0.7818608E-02  0.8857005E-01
         -1   -1    0    0    0  501 -0.00000000000E+00  0.00000000000E+00  0.80190584740E+03  0.80190584740E+03  0.00000000000E+00 0.  1.
          1   -1    0    0  501    0  0.00000000000E+00 -0.00000000000E+00 -0.74126872387E+03  0.74126872387E+03  0.00000000000E+00 0. -1.
         23    2    1    2    0    0  0.42448971708E+02  0.45538356775E+03  0.21299358676E+03  0.51323431116E+03  0.94165180297E+02 0.  0.
        254    2    1    2    0    0 -0.42448971708E+02 -0.45538356775E+03 -0.15235646323E+03  0.10299402601E+04  0.91015841397E+03 0.  0.
         23    2    4    4    0    0  0.29200416413E+03 -0.94836402580E+02  0.23507416085E+03  0.39739461571E+03  0.91663757152E+02 0.  0.
         23    2    4    4    0    0 -0.33445313584E+03 -0.36054716517E+03 -0.38743062408E+03  0.63254564439E+03  0.90323559407E+02 0.  0.
          3    1    3    3  502    0 -0.47661786499E+01  0.22519661671E+02 -0.87094201235E+01  0.24611087330E+02  0.00000000000E+00 0. -1.
         -3    1    3    3    0  502  0.47215150358E+02  0.43286390607E+03  0.22170300688E+03  0.48862322383E+03  0.00000000000E+00 0.  1.
         13    1    5    5    0    0  0.37209176535E+02  0.14202977016E+02  0.11915855288E+02  0.41572045677E+02  0.00000000000E+00 0. -1.
        -13    1    5    5    0    0  0.25479498760E+03 -0.10903937960E+03  0.22315830556E+03  0.35582257004E+03  0.00000000000E+00 0.  1.
          1    1    6    6  503    0 -0.86475466704E+02 -0.76862178894E+02 -0.47464531963E+02  0.12505471875E+03  0.00000000000E+00 0. -1.
         -1    1    6    6    0  503 -0.24797766914E+03 -0.28368498627E+03 -0.33996609211E+03  0.50749092565E+03  0.00000000000E+00 0.  1.
<mgrwt>
<rscale>  0 0.15419828E+04</rscale>
<asrwt>0</asrwt>
<pdfrwt beam="1">  1        1 0.11404134E+00 0.15419828E+04</pdfrwt>
<pdfrwt beam="2">  1       -1 0.12337013E+00 0.15419828E+04</pdfrwt>
<totfact> 0.13908165E+01</totfact>
</mgrwt>
</event>
<event>
12    3  0.4806716E-008  0.1368040E+04  0.7818608E-02  0.8977284E-01
         -2   -1    0    0    0  501 -0.00000000000E+00  0.00000000000E+00  0.33479757922E+03  0.33479757922E+03  0.00000000000E+00 0.  1.
          2   -1    0    0  501    0  0.00000000000E+00 -0.00000000000E+00 -0.13975105897E+04  0.13975105897E+04  0.00000000000E+00 0. -1.
         23    2    1    2    0    0 -0.21930348534E+03  0.19832643464E+03  0.58617936703E+01  0.30915461797E+03  0.90082316944E+02 0.  0.
        254    2    1    2    0    0  0.21930348534E+03 -0.19832643464E+03 -0.10685748041E+04  0.14231535509E+04  0.89223680944E+03 0.  0.
         23    2    4    4    0    0 -0.57875015730E+00  0.29899260178E+03 -0.13810031463E+03  0.34154496580E+03  0.90467429989E+02 0.  0.
         23    2    4    4    0    0  0.21988223550E+03 -0.49731903642E+03 -0.93047448949E+03  0.10816085851E+04  0.91760200169E+02 0.  0.
          1    1    3    3  502    0 -0.21102156679E+03  0.20033073780E+03  0.21061401239E+02  0.29172947876E+03  0.00000000000E+00 0. -1.
         -1    1    3    3    0  502 -0.82819185556E+01 -0.20043031605E+01 -0.15199607568E+02  0.17425139206E+02  0.00000000000E+00 0.  1.
         13    1    5    5    0    0 -0.15887588491E+02  0.14860937837E+03 -0.22265744757E+02  0.15110567890E+03  0.00000000000E+00 0.  1.
        -13    1    5    5    0    0  0.15308838334E+02  0.15038322341E+03 -0.11583456987E+03  0.19043928689E+03  0.00000000000E+00 0. -1.
          1    1    6    6  503    0  0.92220708520E+02 -0.26019968220E+03 -0.39074680577E+03  0.47842616977E+03  0.00000000000E+00 0. -1.
         -1    1    6    6    0  503  0.12766152698E+03 -0.23711935422E+03 -0.53972768372E+03  0.60318241535E+03  0.00000000000E+00 0.  1.
<mgrwt>
<rscale>  0 0.13680397E+04</rscale>
<asrwt>0</asrwt>
<pdfrwt beam="1">  1        2 0.21500163E+00 0.13680397E+04</pdfrwt>
<pdfrwt beam="2">  1       -2 0.51507319E-01 0.13680397E+04</pdfrwt>
<totfact> 0.50420507E+01</totfact>
</mgrwt>
</event>
<event>
12    3  0.4806716E-008  0.1879817E+04  0.7818608E-02  0.8664969E-01
          1   -1    0    0  501    0  0.00000000000E+00  0.00000000000E+00  0.65124181720E+03  0.65124181720E+03  0.00000000000E+00 0. -1.
         -1   -1    0    0    0  501 -0.00000000000E+00 -0.00000000000E+00 -0.13565278292E+04  0.13565278292E+04  0.00000000000E+00 0.  1.
         23    2    1    2    0    0  0.23987098197E+03 -0.53223476746E+03 -0.71563922263E+03  0.92783232402E+03  0.89002184545E+02 0.  0.
        254    2    1    2    0    0 -0.23987098197E+03  0.53223476746E+03  0.10353210642E+02  0.10799373224E+04  0.90848527539E+03 0.  0.
         23    2    4    4    0    0  0.21249337118E+03  0.15702458896E+03  0.30786594205E+03  0.41506213889E+03  0.87664054974E+02 0.  0.
         23    2    4    4    0    0 -0.45236435315E+03  0.37521017849E+03 -0.29751273141E+03  0.66487518348E+03  0.90160957277E+02 0.  0.
          3    1    3    3  502    0  0.13514376430E+03 -0.23307419847E+03 -0.38396666652E+03  0.46906057180E+03  0.00000000000E+00 0. -1.
         -3    1    3    3    0  502  0.10472721767E+03 -0.29916056899E+03 -0.33167255610E+03  0.45877175222E+03  0.00000000000E+00 0.  1.
         13    1    5    5    0    0  0.13267539609E+03  0.12155070027E+03  0.14838423752E+03  0.23322781868E+03  0.00000000000E+00 0. -1.
        -13    1    5    5    0    0  0.79817975090E+02  0.35473888695E+02  0.15948170453E+03  0.18183432021E+03  0.00000000000E+00 0.  1.
          3    1    6    6  503    0 -0.12154466839E+01  0.19651380349E+02 -0.14938239657E+02  0.24714470747E+02  0.00000000000E+00 0. -1.
         -3    1    6    6    0  503 -0.45114890646E+03  0.35555879814E+03 -0.28257449175E+03  0.64016071273E+03  0.00000000000E+00 0.  1.
<mgrwt>
<rscale>  0 0.18798166E+04</rscale>
<asrwt>0</asrwt>
<pdfrwt beam="1">  1        1 0.10019105E+00 0.18798166E+04</pdfrwt>
<pdfrwt beam="2">  1       -1 0.20869659E+00 0.18798166E+04</pdfrwt>
<totfact> 0.37340528E+00</totfact>
</mgrwt>
</event>
<event>
12    3  0.4806716E-008  0.2213667E+04  0.7818608E-02  0.8512761E-01
         -2   -1    0    0    0  501 -0.00000000000E+00  0.00000000000E+00  0.36359426887E+03  0.36359426887E+03  0.00000000000E+00 0.  1.
          2   -1    0    0  501    0  0.00000000000E+00 -0.00000000000E+00 -0.33693625256E+04  0.33693625256E+04  0.00000000000E+00 0. -1.
         23    2    1    2    0    0 -0.20232727068E+03  0.37800803710E+03 -0.26365470691E+04  0.26728306845E+04  0.93898987760E+02 0.  0.
        254    2    1    2    0    0  0.20232727068E+03 -0.37800803710E+03 -0.36922118767E+03  0.10601261100E+04  0.89650247244E+03 0.  0.
         23    2    4    4    0    0 -0.48481888924E+02 -0.57733393615E+03 -0.42314725033E+03  0.72335674402E+03  0.92338595828E+02 0.  0.
         23    2    4    4    0    0  0.25080915960E+03  0.19932589906E+03  0.53926062652E+02  0.33676936597E+03  0.88710411164E+02 0.  0.
          1    1    3    3  502    0 -0.14888126564E+03  0.32434011623E+03 -0.19774134127E+04  0.20093595863E+04  0.00000000000E+00 0. -1.
         -1    1    3    3    0  502 -0.53446005032E+02  0.53667920868E+02 -0.65913365635E+03  0.66347109818E+03  0.00000000000E+00 0.  1.
         13    1    5    5    0    0  0.82143561312E+01 -0.17574743274E+02 -0.50750083315E-01  0.19399737714E+02  0.00000000000E+00 0. -1.
        -13    1    5    5    0    0 -0.56696245055E+02 -0.55975919288E+03 -0.42309650024E+03  0.70395700631E+03  0.00000000000E+00 0.  1.
          3    1    6    6  503    0  0.26265276060E+02  0.63504359114E+02  0.23290634955E+02  0.72561160614E+02  0.00000000000E+00 0. -1.
         -3    1    6    6    0  503  0.22454388354E+03  0.13582153994E+03  0.30635427697E+02  0.26420820536E+03  0.00000000000E+00 0.  1.
<mgrwt>
<rscale>  0 0.22136675E+04</rscale>
<asrwt>0</asrwt>
<pdfrwt beam="1">  1        2 0.51836344E+00 0.22136675E+04</pdfrwt>
<pdfrwt beam="2">  1       -2 0.55937582E-01 0.22136675E+04</pdfrwt>
<totfact> 0.27485003E+00</totfact>
</mgrwt>
</event>
<event>
12    3  0.4806716E-008  0.1398103E+04  0.7818608E-02  0.8955193E-01
          2   -1    0    0  501    0  0.00000000000E+00  0.00000000000E+00  0.85657768829E+03  0.85657768829E+03  0.00000000000E+00 0.  1.
         -2   -1    0    0    0  501 -0.00000000000E+00 -0.00000000000E+00 -0.57049488832E+03  0.57049488832E+03  0.00000000000E+00 0. -1.
         23    2    1    2    0    0  0.14628126047E+03  0.20708457483E+03 -0.23795977753E+03  0.36111260499E+03  0.97443468057E+02 0.  0.
        254    2    1    2    0    0 -0.14628126047E+03 -0.20708457483E+03  0.52404257749E+03  0.10659599716E+04  0.89295453959E+03 0.  0.
         23    2    4    4    0    0 -0.32960397978E+02  0.34463389894E+03  0.20507711436E+03  0.41267451096E+03  0.91568100536E+02 0.  0.
         23    2    4    4    0    0 -0.11332086249E+03 -0.55171847377E+03  0.31896546314E+03  0.65328546066E+03  0.88363081993E+02 0.  0.
          3    1    3    3  502    0  0.10232075985E+03  0.12363073682E+03 -0.20682287622E+03  0.26178196865E+03  0.00000000000E+00 0. -1.
         -3    1    3    3    0  502  0.43960500619E+02  0.83453838011E+02 -0.31136901311E+02  0.99330636345E+02  0.00000000000E+00 0.  1.
         13    1    5    5    0    0 -0.54927607369E+02  0.21588565049E+03  0.16090526545E+03  0.27479839990E+03  0.00000000000E+00 0.  1.
        -13    1    5    5    0    0  0.21967209391E+02  0.12874824844E+03  0.44171848910E+02  0.13787611106E+03  0.00000000000E+00 0. -1.
          3    1    6    6  503    0 -0.10115722635E+03 -0.31314315278E+03  0.15654469021E+03  0.36441413064E+03  0.00000000000E+00 0. -1.
         -3    1    6    6    0  503 -0.12163636139E+02 -0.23857532099E+03  0.16242077293E+03  0.28887133002E+03  0.00000000000E+00 0.  1.
<mgrwt>
<rscale>  0 0.13981033E+04</rscale>
<asrwt>0</asrwt>
<pdfrwt beam="1">  1        2 0.13178118E+00 0.13981033E+04</pdfrwt>
<pdfrwt beam="2">  1       -2 0.87768444E-01 0.13981033E+04</pdfrwt>
<totfact> 0.34242092E+01</totfact>
</mgrwt>
</event>
<event>
12    3  0.4806716E-008  0.1925847E+04  0.7818608E-02  0.8642096E-01
          1   -1    0    0  501    0  0.00000000000E+00  0.00000000000E+00  0.16059265402E+04  0.16059265402E+04  0.00000000000E+00 0. -1.
         -1   -1    0    0    0  501 -0.00000000000E+00 -0.00000000000E+00 -0.57737504921E+03  0.57737504921E+03  0.00000000000E+00 0.  1.
         23    2    1    2    0    0 -0.19048823795E+03  0.19192143473E+03 -0.37145436818E+03  0.46841075432E+03  0.91162937762E+02 0.  0.
        254    2    1    2    0    0  0.19048823795E+03 -0.19192143473E+03  0.14000058591E+04  0.17148908351E+04  0.95274055473E+03 0.  0.
         23    2    4    4    0    0 -0.81703190915E+02 -0.52732428238E+03  0.66432681341E+03  0.85692301785E+03  0.90777934025E+02 0.  0.
         23    2    4    4    0    0  0.27219142886E+03  0.33540284765E+03  0.73567904573E+03  0.85796781721E+03  0.91114613945E+02 0.  0.
          1    1    3    3  502    0 -0.10799410068E+03  0.58102309013E+02 -0.11813718266E+03  0.17027917671E+03  0.00000000000E+00 0. -1.
         -1    1    3    3    0  502 -0.82494137271E+02  0.13381912571E+03 -0.25331718552E+03  0.29813157761E+03  0.00000000000E+00 0.  1.
         13    1    5    5    0    0  0.16546042555E+02 -0.12572960086E+03  0.13418855946E+03  0.18463009925E+03  0.00000000000E+00 0. -1.
        -13    1    5    5    0    0 -0.98249233470E+02 -0.40159468152E+03  0.53013825395E+03  0.67229291860E+03  0.00000000000E+00 0.  1.
          1    1    6    6  503    0  0.12139770587E+03  0.10798931970E+03  0.20824433925E+03  0.26413027276E+03  0.00000000000E+00 0. -1.
         -1    1    6    6    0  503  0.15079372299E+03  0.22741352795E+03  0.52743470648E+03  0.59383754444E+03  0.00000000000E+00 0.  1.
<mgrwt>
<rscale>  0 0.19258473E+04</rscale>
<asrwt>0</asrwt>
<pdfrwt beam="1">  1        1 0.24706562E+00 0.19258473E+04</pdfrwt>
<pdfrwt beam="2">  1       -1 0.88826931E-01 0.19258473E+04</pdfrwt>
<totfact> 0.64164348E+00</totfact>
</mgrwt>
</event>
<event>
12    3  0.4806716E-008  0.4284584E+04  0.7818608E-02  0.7949475E-01
         -1   -1    0    0    0  501 -0.00000000000E+00  0.00000000000E+00  0.21345294270E+04  0.21345294270E+04  0.00000000000E+00 0.  1.
          1   -1    0    0  501    0  0.00000000000E+00 -0.00000000000E+00 -0.21500826439E+04  0.21500826439E+04  0.00000000000E+00 0. -1.
         23    2    1    2    0    0 -0.30383253379E+03  0.11356283308E+04 -0.16813094161E+04  0.20535586759E+04  0.91301524277E+02 0.  0.
        254    2    1    2    0    0  0.30383253379E+03 -0.11356283308E+04  0.16657561992E+04  0.22310533950E+04  0.90602959210E+03 0.  0.
         23    2    4    4    0    0  0.33315183538E+03 -0.10783255528E+04  0.17531908481E+04  0.20869580184E+04  0.89103746612E+02 0.  0.
         23    2    4    4    0    0 -0.29319301593E+02 -0.57302778014E+02 -0.87434648868E+02  0.14409537657E+03  0.94738745562E+02 0.  0.
          4    1    3    3  502    0 -0.30483280152E+03  0.11315192281E+04 -0.16607703463E+04  0.20325887296E+04  0.00000000000E+00 0. -1.
         -4    1    3    3    0  502  0.10002677326E+01  0.41091027221E+01 -0.20539069779E+02  0.20969946306E+02  0.00000000000E+00 0.  1.
         13    1    5    5    0    0  0.25868421989E+02 -0.52398092461E+02  0.62073513028E+02  0.85251723557E+02  0.00000000000E+00 0. -1.
        -13    1    5    5    0    0  0.30728341339E+03 -0.10259274603E+04  0.16911173350E+04  0.20017062949E+04  0.00000000000E+00 0.  1.
          4    1    6    6  503    0 -0.21233052188E+02 -0.61087554063E+02 -0.10561396079E+03  0.12384199805E+03  0.00000000000E+00 0.  1.
         -4    1    6    6    0  503 -0.80862494042E+01  0.37847760492E+01  0.18179311925E+02  0.20253378514E+02  0.00000000000E+00 0. -1.
<mgrwt>
<rscale>  0 0.42845838E+04</rscale>
<asrwt>0</asrwt>
<pdfrwt beam="1">  1        1 0.33078194E+00 0.42845838E+04</pdfrwt>
<pdfrwt beam="2">  1       -1 0.32838914E+00 0.42845838E+04</pdfrwt>
<totfact> 0.38859612E-02</totfact>
</mgrwt>
</event>
<event>
12    3  0.4806716E-008  0.1058424E+04  0.7818608E-02  0.9246690E-01
          2   -1    0    0  501    0  0.00000000000E+00  0.00000000000E+00  0.19739417203E+04  0.19739417203E+04  0.00000000000E+00 0. -1.
         -2   -1    0    0    0  501 -0.00000000000E+00 -0.00000000000E+00 -0.14188131151E+03  0.14188131151E+03  0.00000000000E+00 0.  1.
         23    2    1    2    0    0  0.63382292791E+02  0.88284406075E+02  0.36254956217E+03  0.38912876641E+03  0.90374556252E+02 0.  0.
        254    2    1    2    0    0 -0.63382292791E+02 -0.88284406075E+02  0.14695108467E+04  0.17266942654E+04  0.90011083009E+03 0.  0.
         23    2    4    4    0    0  0.19848184733E+03  0.23075022646E+03  0.11587723335E+04  0.12011338100E+04  0.85606061387E+02 0.  0.
         23    2    4    4    0    0 -0.26186414012E+03 -0.31903463254E+03  0.31073851313E+03  0.52556045548E+03  0.96433625762E+02 0.  0.
          1    1    3    3  502    0 -0.68312214455E-01  0.76511883362E+02  0.20926438709E+03  0.22281305318E+03  0.00000000000E+00 0. -1.
         -1    1    3    3    0  502  0.63450605006E+02  0.11772522713E+02  0.15328517509E+03  0.16631571323E+03  0.00000000000E+00 0.  1.
         13    1    5    5    0    0  0.72749959623E+02  0.14928115777E+03  0.58320463676E+03  0.60638689715E+03  0.00000000000E+00 0. -1.
        -13    1    5    5    0    0  0.12573188771E+03  0.81469068692E+02  0.57556769676E+03  0.59474691281E+03  0.00000000000E+00 0.  1.
          3    1    6    6  503    0 -0.19379169274E+03 -0.18412514303E+03  0.15709008926E+03  0.31005577661E+03  0.00000000000E+00 0. -1.
         -3    1    6    6    0  503 -0.68072447387E+02 -0.13490948951E+03  0.15364842388E+03  0.21550467886E+03  0.00000000000E+00 0.  1.
<mgrwt>
<rscale>  0 0.10584242E+04</rscale>
<asrwt>0</asrwt>
<pdfrwt beam="1">  1        2 0.30368332E+00 0.10584242E+04</pdfrwt>
<pdfrwt beam="2">  1       -2 0.21827895E-01 0.10584242E+04</pdfrwt>
<totfact> 0.12618651E+02</totfact>
</mgrwt>
</event>
<event>
12    3  0.4806716E-008  0.1805148E+04  0.7818608E-02  0.8703566E-01
         -2   -1    0    0    0  501 -0.00000000000E+00  0.00000000000E+00  0.35260929080E+03  0.35260929080E+03  0.00000000000E+00 0.  1.
          2   -1    0    0  501    0  0.00000000000E+00 -0.00000000000E+00 -0.23103197888E+04  0.23103197888E+04  0.00000000000E+00 0. -1.
         23    2    1    2    0    0 -0.19079151917E+03  0.60426014871E+03 -0.40317170588E+03  0.75667077371E+03  0.92040774968E+02 0.  0.
        254    2    1    2    0    0  0.19079151917E+03 -0.60426014871E+03 -0.15545387921E+04  0.19062583059E+04  0.90316008628E+03 0.  0.
         23    2    4    4    0    0 -0.14133631326E+03 -0.27918063979E+02  0.40822588982E+02  0.17542074735E+03  0.91381524881E+02 0.  0.
         23    2    4    4    0    0  0.33212783243E+03 -0.57634208473E+03 -0.15953613811E+04  0.17308375585E+04  0.90230937014E+02 0.  0.
          1    1    3    3  502    0 -0.28114777019E+02  0.78492614918E+02 -0.93093429980E+02  0.12497166874E+03  0.00000000000E+00 0. -1.
         -1    1    3    3    0  502 -0.16267674215E+03  0.52576753380E+03 -0.31007827590E+03  0.63169910497E+03  0.00000000000E+00 0.  1.
         13    1    5    5    0    0 -0.11261041846E+03 -0.56971814463E+02  0.45813326047E+02  0.13426002693E+03  0.00000000000E+00 0.  1.
        -13    1    5    5    0    0 -0.28725894803E+02  0.29053750484E+02 -0.49907370649E+01  0.41160720425E+02  0.00000000000E+00 0. -1.
          1    1    6    6  503    0  0.41628675623E+02 -0.60602402497E+02 -0.25934352382E+03  0.26956383505E+03  0.00000000000E+00 0. -1.
         -1    1    6    6    0  503  0.29049915681E+03 -0.51573968224E+03 -0.13360178573E+04  0.14612737235E+04  0.00000000000E+00 0.  1.
<mgrwt>
<rscale>  0 0.18051484E+04</rscale>
<asrwt>0</asrwt>
<pdfrwt beam="1">  1        2 0.35543381E+00 0.18051484E+04</pdfrwt>
<pdfrwt beam="2">  1       -2 0.54247584E-01 0.18051484E+04</pdfrwt>
<totfact> 0.13511277E+01</totfact>
</mgrwt>
</event>
<event>
12    3  0.4806716E-008  0.1630588E+04  0.7818608E-02  0.8801974E-01
         -2   -1    0    0    0  501 -0.00000000000E+00  0.00000000000E+00  0.50734802331E+03  0.50734802331E+03  0.00000000000E+00 0.  1.
          2   -1    0    0  501    0  0.00000000000E+00 -0.00000000000E+00 -0.13101550479E+04  0.13101550479E+04  0.00000000000E+00 0. -1.
         23    2    1    2    0    0  0.42136680843E+02 -0.11151188854E+03  0.32732835385E+03  0.36008603862E+03  0.91146600687E+02 0.  0.
        254    2    1    2    0    0 -0.42136680843E+02  0.11151188854E+03 -0.11301353785E+04  0.14574170326E+04  0.91249549705E+03 0.  0.
         23    2    4    4    0    0  0.13605881785E+03  0.41867656522E+03 -0.94578356892E+03  0.10471704450E+04  0.90869761227E+02 0.  0.
         23    2    4    4    0    0 -0.17819549869E+03 -0.30716467669E+03 -0.18435180955E+03  0.41024658760E+03  0.90625043968E+02 0.  0.
          2    1    3    3  502    0  0.33123049111E+02 -0.86997075148E+02  0.31955004681E+03  0.33283308111E+03  0.00000000000E+00 0.  1.
         -2    1    3    3    0  502  0.90136317319E+01 -0.24514813390E+02  0.77783070427E+01  0.27252957509E+02  0.00000000000E+00 0. -1.
         13    1    5    5    0    0  0.12503940369E+03  0.40335347877E+03 -0.93371058392E+03  0.10247655029E+04  0.00000000000E+00 0. -1.
        -13    1    5    5    0    0  0.11019414154E+02  0.15323086453E+02 -0.12072984998E+02  0.22404942167E+02  0.00000000000E+00 0.  1.
          2    1    6    6  503    0 -0.17556671121E+03 -0.31138989478E+03 -0.18816994346E+03  0.40397433616E+03  0.00000000000E+00 0. -1.
         -2    1    6    6    0  503 -0.26287874743E+01  0.42252180922E+01  0.38181339088E+01  0.62722514345E+01  0.00000000000E+00 0.  1.
<mgrwt>
<rscale>  0 0.16305883E+04</rscale>
<asrwt>0</asrwt>
<pdfrwt beam="1">  1        2 0.20156231E+00 0.16305883E+04</pdfrwt>
<pdfrwt beam="2">  1       -2 0.78053543E-01 0.16305883E+04</pdfrwt>
<totfact> 0.22793010E+01</totfact>
</mgrwt>
</event>
<event>
12    3  0.4806716E-008  0.1729682E+04  0.7818608E-02  0.8744614E-01
          2   -1    0    0  501    0  0.00000000000E+00  0.00000000000E+00  0.46904828374E+03  0.46904828374E+03  0.00000000000E+00 0. -1.
         -2   -1    0    0    0  501 -0.00000000000E+00 -0.00000000000E+00 -0.15946125675E+04  0.15946125675E+04  0.00000000000E+00 0.  1.
         23    2    1    2    0    0  0.29784237252E+03 -0.23652862402E+03 -0.10139095234E+04  0.10867797636E+04  0.91770714888E+02 0.  0.
        254    2    1    2    0    0 -0.29784237252E+03  0.23652862402E+03 -0.11165476035E+03  0.97688108761E+03  0.89284601415E+03 0.  0.
         23    2    4    4    0    0 -0.36994104852E+03 -0.60820942931E+02 -0.39368256710E+03  0.55133300099E+03  0.91796230123E+02 0.  0.
         23    2    4    4    0    0  0.72098676004E+02  0.29734956695E+03  0.28202780675E+03  0.42554808662E+03  0.89087070879E+02 0.  0.
          2    1    3    3  502    0  0.28042229982E+03 -0.20205500153E+03 -0.83424583023E+03  0.90301107143E+03  0.00000000000E+00 0. -1.
         -2    1    3    3    0  502  0.17420072697E+02 -0.34473622486E+02 -0.17966369321E+03  0.18376869222E+03  0.00000000000E+00 0.  1.
         13    1    5    5    0    0 -0.33857814745E+03 -0.27266395870E+02 -0.35440955480E+03  0.49090197678E+03  0.00000000000E+00 0.  1.
        -13    1    5    5    0    0 -0.31362901073E+02 -0.33554547062E+02 -0.39273012301E+02  0.60431024213E+02  0.00000000000E+00 0. -1.
          4    1    6    6  503    0  0.27074418379E+01  0.72025605159E+01 -0.68310190225E+01  0.10289311939E+02  0.00000000000E+00 0. -1.
         -4    1    6    6    0  503  0.69391234166E+02  0.29014700643E+03  0.28885882578E+03  0.41525877468E+03  0.00000000000E+00 0.  1.
<mgrwt>
<rscale>  0 0.17296824E+04</rscale>
<asrwt>0</asrwt>
<pdfrwt beam="1">  1        2 0.72161273E-01 0.17296824E+04</pdfrwt>
<pdfrwt beam="2">  1       -2 0.24532501E+00 0.17296824E+04</pdfrwt>
<totfact> 0.43223968E+00</totfact>
</mgrwt>
</event>
<event>
12    3  0.4806716E-008  0.1524215E+04  0.7818608E-02  0.8868508E-01
         -2   -1    0    0    0  501 -0.00000000000E+00  0.00000000000E+00  0.26010301125E+03  0.26010301125E+03  0.00000000000E+00 0. -1.
          2   -1    0    0  501    0  0.00000000000E+00 -0.00000000000E+00 -0.22329909967E+04  0.22329909967E+04  0.00000000000E+00 0.  1.
         23    2    1    2    0    0 -0.27628927933E+03  0.22967440617E+03 -0.99754958205E+02  0.38384926454E+03  0.91121388732E+02 0.  0.
        254    2    1    2    0    0  0.27628927933E+03 -0.22967440617E+03 -0.18731330273E+04  0.21092447434E+04  0.90066639280E+03 0.  0.
         23    2    4    4    0    0  0.29193900065E+03  0.22632620900E+03 -0.13790875954E+04  0.14305750356E+04  0.90611278022E+02 0.  0.
         23    2    4    4    0    0 -0.15649721322E+02 -0.45600061517E+03 -0.49404543187E+03  0.67866970783E+03  0.91269977344E+02 0.  0.
          1    1    3    3  502    0 -0.21563138955E+03  0.14849302211E+03 -0.36395252268E+02  0.26433253331E+03  0.00000000000E+00 0. -1.
         -1    1    3    3    0  502 -0.60657889774E+02  0.81181384059E+02 -0.63359705937E+02  0.11951673124E+03  0.00000000000E+00 0.  1.
         13    1    5    5    0    0  0.26848900048E+03  0.18851694326E+03 -0.10971175072E+04  0.11451165032E+04  0.00000000000E+00 0.  1.
        -13    1    5    5    0    0  0.23450000167E+02  0.37809265741E+02 -0.28197008819E+03  0.28545853239E+03  0.00000000000E+00 0. -1.
          2    1    6    6  503    0  0.18366014556E+02 -0.45696737825E+02 -0.27378260258E+02  0.56347772567E+02  0.00000000000E+00 0. -1.
         -2    1    6    6    0  503 -0.34015735878E+02 -0.41030387734E+03 -0.46666717161E+03  0.62232193526E+03  0.00000000000E+00 0.  1.
<mgrwt>
<rscale>  0 0.15242148E+04</rscale>
<asrwt>0</asrwt>
<pdfrwt beam="1">  1        2 0.34353708E+00 0.15242148E+04</pdfrwt>
<pdfrwt beam="2">  1       -2 0.40015848E-01 0.15242148E+04</pdfrwt>
<totfact> 0.28229522E+01</totfact>
</mgrwt>
</event>
<event>
12    3  0.4806716E-008  0.1335138E+04  0.7818608E-02  0.9002155E-01
         -2   -1    0    0    0  501 -0.00000000000E+00  0.00000000000E+00  0.23393625264E+03  0.23393625264E+03  0.00000000000E+00 0.  1.
          2   -1    0    0  501    0  0.00000000000E+00 -0.00000000000E+00 -0.19050005996E+04  0.19050005996E+04  0.00000000000E+00 0. -1.
         23    2    1    2    0    0 -0.10366372851E+03  0.33063070135E+03 -0.60908292563E+03  0.70616751447E+03  0.87336813047E+02 0.  0.
        254    2    1    2    0    0  0.10366372851E+03 -0.33063070135E+03 -0.10619814213E+04  0.14327693377E+04  0.89719596893E+03 0.  0.
         23    2    4    4    0    0  0.35970196506E+03  0.96262841241E+02 -0.74143929301E+03  0.83393048503E+03  0.83998752154E+02 0.  0.
         23    2    4    4    0    0 -0.25603823654E+03 -0.42689354259E+03 -0.32054212828E+03  0.59883885270E+03  0.89816703470E+02 0.  0.
          1    1    3    3  502    0 -0.64937451399E+02  0.30264347502E+03 -0.53047315883E+03  0.61417564085E+03  0.00000000000E+00 0. -1.
         -1    1    3    3    0  502 -0.38726277115E+02  0.27987226330E+02 -0.78609766800E+02  0.91991873626E+02  0.00000000000E+00 0.  1.
         13    1    5    5    0    0  0.47217754838E+02  0.30198234344E+02 -0.64655229130E+02  0.85567215587E+02  0.00000000000E+00 0. -1.
        -13    1    5    5    0    0  0.31248421022E+03  0.66064606898E+02 -0.67678406388E+03  0.74836326944E+03  0.00000000000E+00 0.  1.
          3    1    6    6  503    0 -0.18469167885E+02 -0.33270478387E+02 -0.58088629935E+02  0.69442953725E+02  0.00000000000E+00 0. -1.
         -3    1    6    6    0  503 -0.23756906866E+03 -0.39362306421E+03 -0.26245349834E+03  0.52939589897E+03  0.00000000000E+00 0.  1.
<mgrwt>
<rscale>  0 0.13351385E+04</rscale>
<asrwt>0</asrwt>
<pdfrwt beam="1">  1        2 0.29307701E+00 0.13351385E+04</pdfrwt>
<pdfrwt beam="2">  1       -2 0.35990193E-01 0.13351385E+04</pdfrwt>
<totfact> 0.53590970E+01</totfact>
</mgrwt>
</event>
<event>
12    3  0.4806716E-008  0.1546604E+04  0.7818608E-02  0.8854040E-01
          2   -1    0    0  501    0  0.00000000000E+00  0.00000000000E+00  0.61849517204E+03  0.61849517204E+03  0.00000000000E+00 0. -1.
         -2   -1    0    0    0  501 -0.00000000000E+00 -0.00000000000E+00 -0.96685588103E+03  0.96685588103E+03  0.00000000000E+00 0.  1.
         23    2    1    2    0    0  0.47548753492E+03 -0.96248528085E+02 -0.25244812450E+03  0.55435303794E+03  0.90692117007E+02 0.  0.
        254    2    1    2    0    0 -0.47548753492E+03  0.96248528085E+02 -0.95912584494E+02  0.10309980151E+04  0.90465767466E+03 0.  0.
         23    2    4    4    0    0  0.50160222640E+02  0.13986211198E+03 -0.38486733950E+03  0.42268351502E+03  0.91983838544E+02 0.  0.
         23    2    4    4    0    0 -0.52564775756E+03 -0.43613583895E+02  0.28895475501E+03  0.60831450011E+03  0.91345338572E+02 0.  0.
          1    1    3    3  502    0  0.37579064470E+03 -0.42094105012E+02 -0.17293565497E+03  0.41580916666E+03  0.00000000000E+00 0. -1.
         -1    1    3    3    0  502  0.99696890219E+02 -0.54154423073E+02 -0.79512469528E+02  0.13854387128E+03  0.00000000000E+00 0.  1.
         13    1    5    5    0    0  0.44567236364E+02  0.49201293924E+02 -0.76852118211E+02  0.10155419221E+03  0.00000000000E+00 0. -1.
        -13    1    5    5    0    0  0.55929862763E+01  0.90660818056E+02 -0.30801522129E+03  0.32112932282E+03  0.00000000000E+00 0.  1.
          1    1    6    6  503    0 -0.13809988808E+03 -0.44415082556E+02  0.52210426348E+02  0.15417589716E+03  0.00000000000E+00 0. -1.
         -1    1    6    6    0  503 -0.38754786948E+03  0.80149866109E+00  0.23674432866E+03  0.45413860295E+03  0.00000000000E+00 0.  1.
<mgrwt>
<rscale>  0 0.15466036E+04</rscale>
<asrwt>0</asrwt>
<pdfrwt beam="1">  1        2 0.95153104E-01 0.15466036E+04</pdfrwt>
<pdfrwt beam="2">  1       -2 0.14874706E+00 0.15466036E+04</pdfrwt>
<totfact> 0.14088876E+01</totfact>
</mgrwt>
</event>
<event>
12    3  0.4806716E-008  0.3046259E+04  0.7818608E-02  0.8230643E-01
         -1   -1    0    0    0  501 -0.00000000000E+00  0.00000000000E+00  0.98409214226E+03  0.98409214226E+03  0.00000000000E+00 0.  1.
          1   -1    0    0  501    0  0.00000000000E+00 -0.00000000000E+00 -0.23574255679E+04  0.23574255679E+04  0.00000000000E+00 0. -1.
         23    2    1    2    0    0 -0.54648709149E+03 -0.11110023682E+04 -0.13088670684E+04  0.18040503618E+04  0.92142834239E+02 0.  0.
        254    2    1    2    0    0  0.54648709149E+03  0.11110023682E+04 -0.64466357179E+02  0.15374673483E+04  0.90921698877E+03 0.  0.
         23    2    4    4    0    0 -0.19690204692E+03  0.57526183043E+03 -0.37894648753E+02  0.61550599045E+03  0.87835244890E+02 0.  0.
         23    2    4    4    0    0  0.74338913840E+03  0.53574053774E+03 -0.26571708425E+02  0.92196135786E+03  0.98292191074E+02 0.  0.
          3    1    3    3  502    0 -0.41313968467E+03 -0.82588028332E+03 -0.10320613489E+04  0.13848874573E+04  0.00000000000E+00 0. -1.
         -3    1    3    3    0  502 -0.13334740682E+03 -0.28512208484E+03 -0.27680571948E+03  0.41916290450E+03  0.00000000000E+00 0.  1.
         13    1    5    5    0    0 -0.97170697969E+02  0.34982863739E+03  0.15013277476E+02  0.36338356950E+03  0.00000000000E+00 0. -1.
        -13    1    5    5    0    0 -0.99731348947E+02  0.22543319303E+03 -0.52907926230E+02  0.25212242094E+03  0.00000000000E+00 0.  1.
          2    1    6    6  503    0  0.22375726243E+03  0.19144232067E+03 -0.47400537322E+02  0.29826881428E+03  0.00000000000E+00 0. -1.
         -2    1    6    6    0  503  0.51963187597E+03  0.34429821707E+03  0.20828828897E+02  0.62369254358E+03  0.00000000000E+00 0.  1.
<mgrwt>
<rscale>  0 0.30462593E+04</rscale>
<asrwt>0</asrwt>
<pdfrwt beam="1">  1        1 0.36268085E+00 0.30462593E+04</pdfrwt>
<pdfrwt beam="2">  1       -1 0.15139879E+00 0.30462593E+04</pdfrwt>
<totfact> 0.49009900E-01</totfact>
</mgrwt>
</event>
<event>
12    3  0.4806716E-008  0.1307716E+04  0.7818608E-02  0.9023468E-01
         -1   -1    0    0    0  501 -0.00000000000E+00  0.00000000000E+00  0.24848726044E+03  0.24848726044E+03  0.00000000000E+00 0.  1.
          1   -1    0    0  501    0  0.00000000000E+00 -0.00000000000E+00 -0.17205326403E+04  0.17205326403E+04  0.00000000000E+00 0. -1.
         23    2    1    2    0    0 -0.17682852341E+03  0.65735267265E+01 -0.69945089540E+03  0.72714464880E+03  0.90533127922E+02 0.  0.
        254    2    1    2    0    0  0.17682852341E+03 -0.65735267265E+01 -0.77259448447E+03  0.12418752519E+04  0.95605458318E+03 0.  0.
         23    2    4    4    0    0  0.32372912988E+03  0.40353403286E+03 -0.38017898534E+03  0.64881864670E+03  0.93751321078E+02 0.  0.
         23    2    4    4    0    0 -0.14690060647E+03 -0.41010755959E+03 -0.39241549913E+03  0.59305660525E+03  0.89208825010E+02 0.  0.
          2    1    3    3  502    0  0.78064860296E+01  0.14071279596E+01 -0.89229156839E+02  0.89581045224E+02  0.00000000000E+00 0. -1.
         -2    1    3    3    0  502 -0.18463500944E+03  0.51663987669E+01 -0.61022173856E+03  0.63756360357E+03  0.00000000000E+00 0.  1.
         13    1    5    5    0    0  0.11932060573E+03  0.19273430563E+03 -0.21236159306E+03  0.31061449696E+03  0.00000000000E+00 0. -1.
        -13    1    5    5    0    0  0.20440852416E+03  0.21079972723E+03 -0.16781739228E+03  0.33820414974E+03  0.00000000000E+00 0.  1.
          2    1    6    6  503    0 -0.45519517364E+02 -0.24131869917E+03 -0.18833492134E+03  0.30947824419E+03  0.00000000000E+00 0. -1.
         -2    1    6    6    0  503 -0.10138108911E+03 -0.16878886041E+03 -0.20408057779E+03  0.28357836105E+03  0.00000000000E+00 0.  1.
<mgrwt>
<rscale>  0 0.13077162E+04</rscale>
<asrwt>0</asrwt>
<pdfrwt beam="1">  1        1 0.26469733E+00 0.13077162E+04</pdfrwt>
<pdfrwt beam="2">  1       -1 0.38228810E-01 0.13077162E+04</pdfrwt>
<totfact> 0.29987469E+01</totfact>
</mgrwt>
</event>
<event>
12    3  0.4806716E-008  0.1909425E+04  0.7818608E-02  0.8650179E-01
         -2   -1    0    0    0  501 -0.00000000000E+00  0.00000000000E+00  0.58169574367E+03  0.58169574367E+03  0.00000000000E+00 0.  1.
          2   -1    0    0  501    0  0.00000000000E+00 -0.00000000000E+00 -0.15669284470E+04  0.15669284470E+04  0.00000000000E+00 0. -1.
         23    2    1    2    0    0 -0.50442161102E+02 -0.69262795663E+03 -0.25641060536E+02  0.70093296198E+03  0.91496750145E+02 0.  0.
        254    2    1    2    0    0  0.50442161102E+02  0.69262795663E+03 -0.95959164281E+03  0.14476912287E+04  0.83229554532E+03 0.  0.
         23    2    4    4    0    0  0.30832536088E+03  0.74213670952E+03 -0.73403722946E+03  0.10919137081E+04  0.87369719629E+02 0.  0.
         23    2    4    4    0    0 -0.25788319978E+03 -0.49508752894E+02 -0.22555441335E+03  0.35577752060E+03  0.82146146837E+02 0.  0.
          4    1    3    3  502    0 -0.22279939417E+02 -0.42042648304E+03 -0.59468681620E+02  0.42519565782E+03  0.00000000000E+00 0. -1.
         -4    1    3    3    0  502 -0.28162221685E+02 -0.27220147359E+03  0.33827621084E+02  0.27573730416E+03  0.00000000000E+00 0.  1.
         13    1    5    5    0    0  0.76835363717E+02  0.12381046944E+03 -0.10156245175E+03  0.17761654502E+03  0.00000000000E+00 0.  1.
        -13    1    5    5    0    0  0.23148999717E+03  0.61832624008E+03 -0.63247477771E+03  0.91429716307E+03  0.00000000000E+00 0. -1.
          3    1    6    6  503    0 -0.18827168582E+03 -0.16463881428E+02 -0.11570535802E+03  0.22159651836E+03  0.00000000000E+00 0. -1.
         -3    1    6    6    0  503 -0.69611513958E+02 -0.33044871467E+02 -0.10984905533E+03  0.13418100224E+03  0.00000000000E+00 0.  1.
<mgrwt>
<rscale>  0 0.19094246E+04</rscale>
<asrwt>0</asrwt>
<pdfrwt beam="1">  1        2 0.24106591E+00 0.19094246E+04</pdfrwt>
<pdfrwt beam="2">  1       -2 0.89491655E-01 0.19094246E+04</pdfrwt>
<totfact> 0.11662429E+01</totfact>
</mgrwt>
</event>
<event>
12    3  0.4806716E-008  0.1758876E+04  0.7818608E-02  0.8728480E-01
          1   -1    0    0  501    0  0.00000000000E+00  0.00000000000E+00  0.66993316442E+03  0.66993316442E+03  0.00000000000E+00 0. -1.
         -1   -1    0    0    0  501 -0.00000000000E+00 -0.00000000000E+00 -0.11544605298E+04  0.11544605298E+04  0.00000000000E+00 0.  1.
         23    2    1    2    0    0 -0.39477326533E+03 -0.42950414665E+03  0.10454763140E+03  0.59953648560E+03  0.90520977231E+02 0.  0.
        254    2    1    2    0    0  0.39477326533E+03  0.42950414665E+03 -0.58907499676E+03  0.12248572086E+04  0.90163522927E+03 0.  0.
         23    2    4    4    0    0  0.46005364436E+03  0.17617077282E+03 -0.75166765336E+03  0.90353111644E+03  0.93159650038E+02 0.  0.
         23    2    4    4    0    0 -0.65280379024E+02  0.25333337383E+03  0.16259265659E+03  0.32132609217E+03  0.91513711243E+02 0.  0.
          2    1    3    3  502    0 -0.99198766419E+02 -0.13210099865E+03  0.67994187257E+02  0.17864567894E+03  0.00000000000E+00 0. -1.
         -2    1    3    3    0  502 -0.29557449892E+03 -0.29740314800E+03  0.36553444140E+02  0.42089080666E+03  0.00000000000E+00 0.  1.
         13    1    5    5    0    0  0.27316411337E+03  0.57505061557E+02 -0.39324643281E+03  0.48225327563E+03  0.00000000000E+00 0. -1.
        -13    1    5    5    0    0  0.18688953099E+03  0.11866571126E+03 -0.35842122055E+03  0.42127784082E+03  0.00000000000E+00 0.  1.
          3    1    6    6  503    0 -0.82105019736E+02  0.17165680620E+03  0.13567292621E+03  0.23369731767E+03  0.00000000000E+00 0. -1.
         -3    1    6    6    0  503  0.16824640712E+02  0.81676567636E+02  0.26919730384E+02  0.87628774497E+02  0.00000000000E+00 0.  1.
<mgrwt>
<rscale>  0 0.17588762E+04</rscale>
<asrwt>0</asrwt>
<pdfrwt beam="1">  1        1 0.10306664E+00 0.17588762E+04</pdfrwt>
<pdfrwt beam="2">  1       -1 0.17760931E+00 0.17588762E+04</pdfrwt>
<totfact> 0.59689471E+00</totfact>
</mgrwt>
</event>
<event>
12    3  0.4806716E-008  0.1429032E+04  0.7818608E-02  0.8933068E-01
          2   -1    0    0  501    0  0.00000000000E+00  0.00000000000E+00  0.77294230992E+03  0.77294230992E+03  0.00000000000E+00 0. -1.
         -2   -1    0    0    0  501 -0.00000000000E+00 -0.00000000000E+00 -0.66050611188E+03  0.66050611188E+03  0.00000000000E+00 0.  1.
         23    2    1    2    0    0  0.30768696624E+03 -0.77709099562E+02  0.31479849230E+03  0.45612955243E+03  0.90808064073E+02 0.  0.
        254    2    1    2    0    0 -0.30768696624E+03  0.77709099562E+02 -0.20236229425E+03  0.97731886936E+03  0.90193774781E+03 0.  0.
         23    2    4    4    0    0 -0.51371457620E+02 -0.30832699447E+03 -0.35426458969E+03  0.48121334094E+03  0.91423836130E+02 0.  0.
         23    2    4    4    0    0 -0.25631550862E+03  0.38603609404E+03  0.15190229544E+03  0.49610552843E+03  0.91240791947E+02 0.  0.
          4    1    3    3  502    0  0.13737699331E+03 -0.32361970302E+02  0.20361066164E+03  0.24774389386E+03  0.00000000000E+00 0.  1.
         -4    1    3    3    0  502  0.17030997293E+03 -0.45347129261E+02  0.11118783066E+03  0.20838565858E+03  0.00000000000E+00 0. -1.
         13    1    5    5    0    0 -0.44176854895E+01 -0.13005559219E+02  0.42331166705E+01  0.14372883929E+02  0.00000000000E+00 0. -1.
        -13    1    5    5    0    0 -0.46953772130E+02 -0.29532143526E+03 -0.35849770636E+03  0.46684045701E+03  0.00000000000E+00 0.  1.
          1    1    6    6  503    0  0.68216668705E+01  0.20432440629E+02  0.10619447083E+02  0.24016503187E+02  0.00000000000E+00 0. -1.
         -1    1    6    6    0  503 -0.26313717550E+03  0.36560365341E+03  0.14128284836E+03  0.47208902524E+03  0.00000000000E+00 0.  1.
<mgrwt>
<rscale>  0 0.14290320E+04</rscale>
<asrwt>0</asrwt>
<pdfrwt beam="1">  1        2 0.11891420E+00 0.14290320E+04</pdfrwt>
<pdfrwt beam="2">  1       -2 0.10161633E+00 0.14290320E+04</pdfrwt>
<totfact> 0.27845454E+01</totfact>
</mgrwt>
</event>
<event>
12    3  0.4806716E-008  0.1560457E+04  0.7818608E-02  0.8845216E-01
          1   -1    0    0  501    0  0.00000000000E+00  0.00000000000E+00  0.37581655175E+03  0.37581655175E+03  0.00000000000E+00 0. -1.
         -1   -1    0    0    0  501 -0.00000000000E+00 -0.00000000000E+00 -0.16198241666E+04  0.16198241666E+04  0.00000000000E+00 0.  1.
         23    2    1    2    0    0 -0.18705970405E+03 -0.33555814333E+03 -0.15484571605E+02  0.39366694238E+03  0.84517981092E+02 0.  0.
        254    2    1    2    0    0  0.18705970405E+03  0.33555814333E+03 -0.12285230433E+04  0.16019737760E+04  0.95365639027E+03 0.  0.
         23    2    4    4    0    0 -0.13127268692E+03 -0.79381514658E+02  0.74954436080E+02  0.19452946992E+03  0.93218045348E+02 0.  0.
         23    2    4    4    0    0  0.31833239097E+03  0.41493965799E+03 -0.13034774794E+04  0.14074443061E+04  0.91298984841E+02 0.  0.
          3    1    3    3  502    0 -0.54328992299E+02 -0.61939134462E+02  0.26775582824E+02  0.86631562480E+02  0.00000000000E+00 0. -1.
         -3    1    3    3    0  502 -0.13273071175E+03 -0.27361900887E+03 -0.42260154429E+02  0.30703537990E+03  0.00000000000E+00 0.  1.
         13    1    5    5    0    0 -0.93974448265E+01  0.16358667865E+02  0.25753212890E+02  0.31924065495E+02  0.00000000000E+00 0.  1.
        -13    1    5    5    0    0 -0.12187524209E+03 -0.95740182522E+02  0.49201223190E+02  0.16260540442E+03  0.00000000000E+00 0. -1.
          2    1    6    6  503    0  0.27343716407E+03  0.39203608311E+03 -0.12147218340E+04  0.13053770747E+04  0.00000000000E+00 0.  1.
         -2    1    6    6    0  503  0.44895226902E+02  0.22903574881E+02 -0.88755645387E+02  0.10206723142E+03  0.00000000000E+00 0. -1.
<mgrwt>
<rscale>  0 0.15604573E+04</rscale>
<asrwt>0</asrwt>
<pdfrwt beam="1">  1        1 0.57817931E-01 0.15604573E+04</pdfrwt>
<pdfrwt beam="2">  1       -1 0.24920372E+00 0.15604573E+04</pdfrwt>
<totfact> 0.44297126E+00</totfact>
</mgrwt>
</event>
<event>
12    3  0.4806716E-008  0.1524691E+04  0.7818608E-02  0.8868197E-01
          1   -1    0    0  501    0  0.00000000000E+00  0.00000000000E+00  0.92316953796E+03  0.92316953796E+03  0.00000000000E+00 0. -1.
         -1   -1    0    0    0  501 -0.00000000000E+00 -0.00000000000E+00 -0.62953873068E+03  0.62953873068E+03  0.00000000000E+00 0.  1.
         23    2    1    2    0    0  0.17286837795E+03 -0.13304716848E+03  0.57913682675E+03  0.62526068111E+03  0.89254860466E+02 0.  0.
        254    2    1    2    0    0 -0.17286837795E+03  0.13304716848E+03 -0.28550601947E+03  0.92744758752E+03  0.85502065198E+03 0.  0.
         23    2    4    4    0    0 -0.23157718356E+03  0.45064158712E+03 -0.49981095201E+02  0.51749365121E+03  0.92713198530E+02 0.  0.
         23    2    4    4    0    0  0.58708805616E+02 -0.31759441864E+03 -0.23552492427E+03  0.40995393631E+03  0.90979675419E+02 0.  0.
          3    1    3    3  502    0  0.15059372717E+03 -0.11104174703E+03  0.37878586971E+03  0.42247778088E+03  0.00000000000E+00 0. -1.
         -3    1    3    3    0  502  0.22274650777E+02 -0.22005421445E+02  0.20035095704E+03  0.20278290023E+03  0.00000000000E+00 0.  1.
         13    1    5    5    0    0 -0.20820132440E+03  0.36087001198E+03 -0.70343460122E+02  0.42252001067E+03  0.00000000000E+00 0.  1.
        -13    1    5    5    0    0 -0.23375859161E+02  0.89771575135E+02  0.20362364920E+02  0.94973640548E+02  0.00000000000E+00 0. -1.
          2    1    6    6  503    0  0.41887629339E+02 -0.70153452462E+02 -0.93438939004E+02  0.12412459751E+03  0.00000000000E+00 0. -1.
         -2    1    6    6    0  503  0.16821176277E+02 -0.24744096618E+03 -0.14208598526E+03  0.28582933881E+03  0.00000000000E+00 0.  1.
<mgrwt>
<rscale>  0 0.15246914E+04</rscale>
<asrwt>0</asrwt>
<pdfrwt beam="1">  1        1 0.14202608E+00 0.15246914E+04</pdfrwt>
<pdfrwt beam="2">  1       -1 0.96852112E-01 0.15246914E+04</pdfrwt>
<totfact> 0.17246027E+01</totfact>
</mgrwt>
</event>
<event>
12    3  0.4806716E-008  0.2049735E+04  0.7818608E-02  0.8583715E-01
          2   -1    0    0  501    0  0.00000000000E+00  0.00000000000E+00  0.15397702794E+04  0.15397702794E+04  0.00000000000E+00 0. -1.
         -2   -1    0    0    0  501 -0.00000000000E+00 -0.00000000000E+00 -0.68214937800E+03  0.68214937800E+03  0.00000000000E+00 0.  1.
         23    2    1    2    0    0  0.16710046990E+03 -0.74368001037E+03 -0.16835766913E+02  0.76773506483E+03  0.90283785178E+02 0.  0.
        254    2    1    2    0    0 -0.16710046990E+03  0.74368001037E+03  0.87445666834E+03  0.14541845926E+04  0.87692407861E+03 0.  0.
         23    2    4    4    0    0 -0.20221906301E+03  0.58640579296E+03  0.72965938003E+02  0.63101687718E+03  0.89966481043E+02 0.  0.
         23    2    4    4    0    0  0.35118593102E+02  0.15727421740E+03  0.80149073034E+03  0.82316771541E+03  0.96172770721E+02 0.  0.
          1    1    3    3  502    0  0.38998323541E+02 -0.16094350324E+03 -0.40979887521E+02  0.17059610680E+03  0.00000000000E+00 0. -1.
         -1    1    3    3    0  502  0.12810214636E+03 -0.58273650712E+03  0.24144120608E+02  0.59713895803E+03  0.00000000000E+00 0.  1.
         13    1    5    5    0    0 -0.14588857663E+03  0.49615176784E+03  0.84460781253E+02  0.52400732542E+03  0.00000000000E+00 0. -1.
        -13    1    5    5    0    0 -0.56330486380E+02  0.90254025122E+02 -0.11494843251E+02  0.10700955176E+03  0.00000000000E+00 0.  1.
          1    1    6    6  503    0 -0.30568413044E+02  0.83314886856E+02  0.37855889173E+03  0.38882210940E+03  0.00000000000E+00 0. -1.
         -1    1    6    6    0  503  0.65687006147E+02  0.73959330547E+02  0.42293183861E+03  0.43434560601E+03  0.00000000000E+00 0.  1.
<mgrwt>
<rscale>  0 0.20497349E+04</rscale>
<asrwt>0</asrwt>
<pdfrwt beam="1">  1        2 0.23688774E+00 0.20497349E+04</pdfrwt>
<pdfrwt beam="2">  1       -2 0.10494606E+00 0.20497349E+04</pdfrwt>
<totfact> 0.82106523E+00</totfact>
</mgrwt>
</event>
<event>
12    3  0.4806716E-008  0.1685071E+04  0.7818608E-02  0.8769925E-01
          1   -1    0    0  501    0  0.00000000000E+00  0.00000000000E+00  0.53262571955E+03  0.53262571955E+03  0.00000000000E+00 0. -1.
         -1   -1    0    0    0  501 -0.00000000000E+00 -0.00000000000E+00 -0.13327678111E+04  0.13327678111E+04  0.00000000000E+00 0.  1.
         23    2    1    2    0    0  0.43076779730E+03 -0.10057825859E+03 -0.73490015906E+03  0.86267071262E+03  0.91900126903E+02 0.  0.
        254    2    1    2    0    0 -0.43076779730E+03  0.10057825859E+03 -0.65241932496E+02  0.10027228180E+04  0.89750747003E+03 0.  0.
         23    2    4    4    0    0  0.23527146738E+03 -0.51495574308E+02  0.12707201745E+03  0.28698707248E+03  0.90608082504E+02 0.  0.
         23    2    4    4    0    0 -0.66603926469E+03  0.15207383290E+03 -0.19231394994E+03  0.71573574555E+03  0.92510806742E+02 0.  0.
          3    1    3    3  502    0  0.17689043685E+03 -0.18469205363E+02 -0.22143669600E+03  0.28401681029E+03  0.00000000000E+00 0. -1.
         -3    1    3    3    0  502  0.25387736045E+03 -0.82109053232E+02 -0.51346346306E+03  0.57865390232E+03  0.00000000000E+00 0.  1.
         13    1    5    5    0    0  0.89274489346E+02  0.15626137304E+02  0.16993823551E+02  0.92211174236E+02  0.00000000000E+00 0. -1.
        -13    1    5    5    0    0  0.14599697804E+03 -0.67121711612E+02  0.11007819390E+03  0.19477589825E+03  0.00000000000E+00 0.  1.
          4    1    6    6  503    0 -0.48535034020E+03  0.14999789422E+03 -0.12743114798E+03  0.52373945667E+03  0.00000000000E+00 0.  1.
         -4    1    6    6    0  503 -0.18068892449E+03  0.20759386869E+01 -0.64882801960E+02  0.19199628888E+03  0.00000000000E+00 0. -1.
<mgrwt>
<rscale>  0 0.16850714E+04</rscale>
<asrwt>0</asrwt>
<pdfrwt beam="1">  1        1 0.81942420E-01 0.16850714E+04</pdfrwt>
<pdfrwt beam="2">  1       -1 0.20504120E+00 0.16850714E+04</pdfrwt>
<totfact> 0.53727623E+00</totfact>
</mgrwt>
</event>
<event>
12    3  0.4806716E-008  0.1866938E+04  0.7818608E-02  0.8671490E-01
         -2   -1    0    0    0  501 -0.00000000000E+00  0.00000000000E+00  0.39994926698E+03  0.39994926698E+03  0.00000000000E+00 0. -1.
          2   -1    0    0  501    0  0.00000000000E+00 -0.00000000000E+00 -0.21786883386E+04  0.21786883386E+04  0.00000000000E+00 0.  1.
         23    2    1    2    0    0  0.13010800872E+03  0.50341521498E+03 -0.13788716746E+02  0.52789033746E+03  0.90128281125E+02 0.  0.
        254    2    1    2    0    0 -0.13010800872E+03 -0.50341521498E+03 -0.17649503549E+04  0.20507472681E+04  0.90562665039E+03 0.  0.
         23    2    4    4    0    0  0.32596665381E+03 -0.40860517891E+03 -0.12007081529E+04  0.13131874958E+04  0.97718365757E+02 0.  0.
         23    2    4    4    0    0 -0.45607466253E+03 -0.94810036071E+02 -0.56424220198E+03  0.73755977234E+03  0.92909173591E+02 0.  0.
          2    1    3    3  502    0  0.83343080671E+02  0.43938983720E+03 -0.24445120426E+02  0.44789179725E+03  0.00000000000E+00 0. -1.
         -2    1    3    3    0  502  0.46764928049E+02  0.64025377788E+02  0.10656403680E+02  0.79998540210E+02  0.00000000000E+00 0.  1.
         13    1    5    5    0    0  0.33225569028E+03 -0.40153003507E+03 -0.11653048482E+04  0.12765404820E+04  0.00000000000E+00 0. -1.
        -13    1    5    5    0    0 -0.62890364709E+01 -0.70751438381E+01 -0.35403304655E+02  0.36647013801E+02  0.00000000000E+00 0.  1.
          2    1    6    6  503    0 -0.44618284451E+03 -0.74493314703E+02 -0.53519626751E+03  0.70075918077E+03  0.00000000000E+00 0. -1.
         -2    1    6    6    0  503 -0.98918180161E+01 -0.20316721368E+02 -0.29045934468E+02  0.36800591571E+02  0.00000000000E+00 0.  1.
<mgrwt>
<rscale>  0 0.18669385E+04</rscale>
<asrwt>0</asrwt>
<pdfrwt beam="1">  1        2 0.33518282E+00 0.18669385E+04</pdfrwt>
<pdfrwt beam="2">  1       -2 0.61530657E-01 0.18669385E+04</pdfrwt>
<totfact> 0.12239764E+01</totfact>
</mgrwt>
</event>
<event>
12    3  0.4806716E-008  0.1673362E+04  0.7818608E-02  0.8776705E-01
          1   -1    0    0  501    0  0.00000000000E+00  0.00000000000E+00  0.85450246156E+03  0.85450246156E+03  0.00000000000E+00 0. -1.
         -1   -1    0    0    0  501 -0.00000000000E+00 -0.00000000000E+00 -0.81923080779E+03  0.81923080779E+03  0.00000000000E+00 0.  1.
         23    2    1    2    0    0  0.24486494366E+02  0.56797096349E+02 -0.57597894510E+03  0.58658639065E+03  0.92229875509E+02 0.  0.
        254    2    1    2    0    0 -0.24486494366E+02 -0.56797096349E+02  0.61125059887E+03  0.10871468787E+04  0.89690330732E+03 0.  0.
         23    2    4    4    0    0  0.77207549448E+02  0.21247884801E+03 -0.13744274801E+03  0.27991070338E+03  0.91385044401E+02 0.  0.
         23    2    4    4    0    0 -0.10169404381E+03 -0.26927594436E+03  0.74869334688E+03  0.80723617532E+03  0.90759585343E+02 0.  0.
          4    1    3    3  502    0 -0.34412851259E+02  0.32304121133E+02 -0.23543829631E+03  0.24012286843E+03  0.00000000000E+00 0. -1.
         -4    1    3    3    0  502  0.58899345625E+02  0.24492975217E+02 -0.34054064880E+03  0.34646352223E+03  0.00000000000E+00 0.  1.
         13    1    5    5    0    0  0.71761837591E+01  0.13574257601E+03 -0.10269949371E+03  0.17036645962E+03  0.00000000000E+00 0.  1.
        -13    1    5    5    0    0  0.70031365689E+02  0.76736271997E+02 -0.34743254304E+02  0.10954424375E+03  0.00000000000E+00 0. -1.
          1    1    6    6  503    0 -0.88370886000E+02 -0.14270695175E+03  0.33984403551E+03  0.37903648378E+03  0.00000000000E+00 0. -1.
         -1    1    6    6    0  503 -0.13323157814E+02 -0.12656899261E+03  0.40884931137E+03  0.42819969154E+03  0.00000000000E+00 0.  1.
<mgrwt>
<rscale>  0 0.16733616E+04</rscale>
<asrwt>0</asrwt>
<pdfrwt beam="1">  1        1 0.13146192E+00 0.16733616E+04</pdfrwt>
<pdfrwt beam="2">  1       -1 0.12603551E+00 0.16733616E+04</pdfrwt>
<totfact> 0.10382640E+01</totfact>
</mgrwt>
</event>
<event>
12    3  0.4806716E-008  0.1994065E+04  0.7818608E-02  0.8609400E-01
         -2   -1    0    0    0  501 -0.00000000000E+00  0.00000000000E+00  0.50586612963E+03  0.50586612963E+03  0.00000000000E+00 0.  1.
          2   -1    0    0  501    0  0.00000000000E+00 -0.00000000000E+00 -0.19650934923E+04  0.19650934923E+04  0.00000000000E+00 0. -1.
         23    2    1    2    0    0  0.13333512712E+03 -0.35257951929E+03  0.27973718675E+03  0.47741665596E+03  0.87081549052E+02 0.  0.
        254    2    1    2    0    0 -0.13333512712E+03  0.35257951929E+03 -0.17389645494E+04  0.19935429659E+04  0.89895788526E+03 0.  0.
         23    2    4    4    0    0 -0.82412573286E+02  0.54862428234E+03 -0.55912958082E+03  0.79296390489E+03  0.91571998425E+02 0.  0.
         23    2    4    4    0    0 -0.50922553835E+02 -0.19604476305E+03 -0.11798349686E+04  0.12005790611E+04  0.91394054380E+02 0.  0.
          3    1    3    3  502    0  0.44620765380E+02 -0.23706202650E+03  0.17451903639E+03  0.29773530388E+03  0.00000000000E+00 0. -1.
         -3    1    3    3    0  502  0.88714361741E+02 -0.11551749278E+03  0.10521815037E+03  0.17968135208E+03  0.00000000000E+00 0.  1.
         13    1    5    5    0    0 -0.60949431780E+02  0.15214377949E+03 -0.18868595809E+03  0.24992989748E+03  0.00000000000E+00 0. -1.
        -13    1    5    5    0    0 -0.21463141506E+02  0.39648050285E+03 -0.37044362273E+03  0.54303400741E+03  0.00000000000E+00 0.  1.
          4    1    6    6  503    0  0.17685660470E+02 -0.55161594135E+02 -0.47596447879E+03  0.47947655743E+03  0.00000000000E+00 0. -1.
         -4    1    6    6    0  503 -0.68608214305E+02 -0.14088316892E+03 -0.70387048978E+03  0.72110250362E+03  0.00000000000E+00 0.  1.
<mgrwt>
<rscale>  0 0.19940654E+04</rscale>
<asrwt>0</asrwt>
<pdfrwt beam="1">  1        2 0.30232208E+00 0.19940654E+04</pdfrwt>
<pdfrwt beam="2">  1       -2 0.77825556E-01 0.19940654E+04</pdfrwt>
<totfact> 0.95488147E+00</totfact>
</mgrwt>
</event>
<event>
12    3  0.4806716E-008  0.2012621E+04  0.7818608E-02  0.8600743E-01
         -2   -1    0    0    0  501 -0.00000000000E+00  0.00000000000E+00  0.20774754282E+04  0.20774754282E+04  0.00000000000E+00 0.  1.
          2   -1    0    0  501    0  0.00000000000E+00 -0.00000000000E+00 -0.48744767126E+03  0.48744767126E+03  0.00000000000E+00 0. -1.
         23    2    1    2    0    0  0.69726666579E+03  0.33546606023E+03  0.90468281521E+03  0.11939270960E+04  0.91063898781E+02 0.  0.
        254    2    1    2    0    0 -0.69726666579E+03 -0.33546606023E+03  0.68534494177E+03  0.13709960035E+04  0.90067423166E+03 0.  0.
         23    2    4    4    0    0  0.17147659429E+03 -0.17041418537E+03  0.17132412855E+02  0.25869142278E+03  0.90457258886E+02 0.  0.
         23    2    4    4    0    0 -0.86874326009E+03 -0.16505187486E+03  0.66821252892E+03  0.11123045807E+04  0.93576295646E+02 0.  0.
          4    1    3    3  502    0  0.58032114543E+03  0.27050764429E+03  0.79612258794E+03  0.10216448466E+04  0.00000000000E+00 0. -1.
         -4    1    3    3    0  502  0.11694552036E+03  0.64958415943E+02  0.10856022726E+03  0.17228224946E+03  0.00000000000E+00 0.  1.
         13    1    5    5    0    0  0.17388457520E+03 -0.16208513573E+03  0.33604927899E+02  0.24007650426E+03  0.00000000000E+00 0.  1.
        -13    1    5    5    0    0 -0.24079809035E+01 -0.83290496399E+01 -0.16472515044E+02  0.18614918528E+02  0.00000000000E+00 0. -1.
          3    1    6    6  503    0 -0.51241121952E+03 -0.73586790704E+02  0.43990055428E+03  0.67933259255E+03  0.00000000000E+00 0. -1.
         -3    1    6    6    0  503 -0.35633204057E+03 -0.91465084154E+02  0.22831197464E+03  0.43297198815E+03  0.00000000000E+00 0.  1.
<mgrwt>
<rscale>  0 0.20126207E+04</rscale>
<asrwt>0</asrwt>
<pdfrwt beam="1">  1        2 0.74991951E-01 0.20126207E+04</pdfrwt>
<pdfrwt beam="2">  1       -2 0.31961160E+00 0.20126207E+04</pdfrwt>
<totfact> 0.14195361E+00</totfact>
</mgrwt>
</event>
<event>
12    3  0.4806716E-008  0.1718793E+04  0.7818608E-02  0.8750718E-01
          1   -1    0    0  501    0  0.00000000000E+00  0.00000000000E+00  0.13338824854E+04  0.13338824854E+04  0.00000000000E+00 0. -1.
         -1   -1    0    0    0  501 -0.00000000000E+00 -0.00000000000E+00 -0.55369375615E+03  0.55369375615E+03  0.00000000000E+00 0.  1.
         23    2    1    2    0    0  0.48241991527E+03  0.14183637954E+03  0.67231248334E+03  0.84443751798E+03  0.90686897145E+02 0.  0.
        254    2    1    2    0    0 -0.48241991527E+03 -0.14183637954E+03  0.10787624595E+03  0.10431387236E+04  0.90755417415E+03 0.  0.
         23    2    4    4    0    0  0.34341439559E+02 -0.20823039280E+03 -0.29812449201E+03  0.37620563342E+03  0.90073497334E+02 0.  0.
         23    2    4    4    0    0 -0.51676135483E+03  0.66394013266E+02  0.40600073796E+03  0.66693309018E+03  0.92264211469E+02 0.  0.
          2    1    3    3  502    0  0.36061718197E+03  0.75184235114E+02  0.53157135295E+03  0.64673450845E+03  0.00000000000E+00 0. -1.
         -2    1    3    3    0  502  0.12180273330E+03  0.66652144421E+02  0.14074113039E+03  0.19770300953E+03  0.00000000000E+00 0.  1.
         13    1    5    5    0    0 -0.55127502965E+01 -0.12195685142E+02 -0.76451449904E+02  0.77614105319E+02  0.00000000000E+00 0. -1.
        -13    1    5    5    0    0  0.39854189855E+02 -0.19603470766E+03 -0.22167304210E+03  0.29859152810E+03  0.00000000000E+00 0.  1.
          4    1    6    6  503    0 -0.88499096873E+01 -0.10534030194E+02  0.31657840485E+01  0.14117679775E+02  0.00000000000E+00 0. -1.
         -4    1    6    6    0  503 -0.50791144514E+03  0.76928043460E+02  0.40283495391E+03  0.65281541040E+03  0.00000000000E+00 0.  1.
<mgrwt>
<rscale>  0 0.17187931E+04</rscale>
<asrwt>0</asrwt>
<pdfrwt beam="1">  1        1 0.20521269E+00 0.17187931E+04</pdfrwt>
<pdfrwt beam="2">  1       -1 0.85183655E-01 0.17187931E+04</pdfrwt>
<totfact> 0.11077767E+01</totfact>
</mgrwt>
</event>
<event>
12    3  0.4806716E-008  0.1453572E+04  0.7818608E-02  0.8915928E-01
         -1   -1    0    0    0  501 -0.00000000000E+00  0.00000000000E+00  0.86769377747E+03  0.86769377747E+03  0.00000000000E+00 0.  1.
          1   -1    0    0  501    0  0.00000000000E+00 -0.00000000000E+00 -0.60876031648E+03  0.60876031648E+03  0.00000000000E+00 0. -1.
         23    2    1    2    0    0  0.16571136874E+03  0.21901257093E+03  0.44692142635E+03  0.53261975504E+03  0.92294518688E+02 0.  0.
        254    2    1    2    0    0 -0.16571136874E+03 -0.21901257093E+03 -0.18798796536E+03  0.94383433890E+03  0.88320836738E+03 0.  0.
         23    2    4    4    0    0  0.98564861913E+02  0.16217527855E+03  0.23008061332E+03  0.31222088580E+03  0.92352260009E+02 0.  0.
         23    2    4    4    0    0 -0.26427623066E+03 -0.38118784947E+03 -0.41806857868E+03  0.63161345310E+03  0.94911089882E+02 0.  0.
          1    1    3    3  502    0  0.63143216008E+02  0.97839905156E+02  0.27485522536E+03  0.29850478669E+03  0.00000000000E+00 0.  1.
         -1    1    3    3    0  502  0.10256815274E+03  0.12117266577E+03  0.17206620099E+03  0.23411496835E+03  0.00000000000E+00 0. -1.
         13    1    5    5    0    0  0.98647583030E+02  0.99597484593E+02  0.19598064959E+03  0.24095522321E+03  0.00000000000E+00 0. -1.
        -13    1    5    5    0    0 -0.82721117587E-01  0.62577793954E+02  0.34099963725E+02  0.71265662594E+02  0.00000000000E+00 0.  1.
          4    1    6    6  503    0 -0.24481640304E+03 -0.38066621200E+03 -0.38994756149E+03  0.59741186536E+03  0.00000000000E+00 0. -1.
         -4    1    6    6    0  503 -0.19459827613E+02 -0.52163747199E+00 -0.28121017186E+02  0.34201587740E+02  0.00000000000E+00 0.  1.
<mgrwt>
<rscale>  0 0.14535715E+04</rscale>
<asrwt>0</asrwt>
<pdfrwt beam="1">  1        1 0.93655434E-01 0.14535715E+04</pdfrwt>
<pdfrwt beam="2">  1       -1 0.13349135E+00 0.14535715E+04</pdfrwt>
<totfact> 0.15440753E+01</totfact>
</mgrwt>
</event>
<event>
12    3  0.4806716E-008  0.2481088E+04  0.7818608E-02  0.8409754E-01
         -2   -1    0    0    0  501 -0.00000000000E+00  0.00000000000E+00  0.27839067970E+04  0.27839067970E+04  0.00000000000E+00 0.  1.
          2   -1    0    0  501    0  0.00000000000E+00 -0.00000000000E+00 -0.55280212940E+03  0.55280212940E+03  0.00000000000E+00 0. -1.
         23    2    1    2    0    0 -0.10346544622E+04 -0.27815997483E+03  0.98261408167E+03  0.14566083315E+04  0.91074530529E+02 0.  0.
        254    2    1    2    0    0  0.10346544622E+04  0.27815997483E+03  0.12484905859E+04  0.18801005949E+04  0.91003663447E+03 0.  0.
         23    2    4    4    0    0  0.85316816356E+03  0.28230674072E+03  0.13716139099E+04  0.16423462310E+04  0.91560982280E+02 0.  0.
         23    2    4    4    0    0  0.18148629863E+03 -0.41467658950E+01 -0.12312332403E+03  0.23775436386E+03  0.91724110000E+02 0.  0.
          4    1    3    3  502    0 -0.85104551423E+03 -0.25888900074E+03  0.83781198686E+03  0.12219782761E+04  0.00000000000E+00 0.  1.
         -4    1    3    3    0  502 -0.18360894796E+03 -0.19270974082E+02  0.14480209480E+03  0.23463005535E+03  0.00000000000E+00 0. -1.
         13    1    5    5    0    0  0.56934933147E+03  0.16541603986E+03  0.97032195777E+03  0.11371217302E+04  0.00000000000E+00 0. -1.
        -13    1    5    5    0    0  0.28381883209E+03  0.11689070086E+03  0.40129195215E+03  0.50522450084E+03  0.00000000000E+00 0.  1.
          4    1    6    6  503    0  0.14224621989E+03  0.33130817078E+01 -0.43686074811E+02  0.14884030608E+03  0.00000000000E+00 0. -1.
         -4    1    6    6    0  503  0.39240078742E+02 -0.74598476028E+01 -0.79437249224E+02  0.88914057776E+02  0.00000000000E+00 0.  1.
<mgrwt>
<rscale>  0 0.24810882E+04</rscale>
<asrwt>0</asrwt>
<pdfrwt beam="1">  1        2 0.85046483E-01 0.24810882E+04</pdfrwt>
<pdfrwt beam="2">  1       -2 0.42829335E+00 0.24810882E+04</pdfrwt>
<totfact> 0.23619120E-01</totfact>
</mgrwt>
</event>
<event>
12    3  0.4806716E-008  0.1717163E+04  0.7818608E-02  0.8751636E-01
         -2   -1    0    0    0  501 -0.00000000000E+00  0.00000000000E+00  0.12548558289E+04  0.12548558289E+04  0.00000000000E+00 0.  1.
          2   -1    0    0  501    0  0.00000000000E+00 -0.00000000000E+00 -0.58744764369E+03  0.58744764369E+03  0.00000000000E+00 0. -1.
         23    2    1    2    0    0 -0.85210653348E+02  0.50383561866E+03  0.63137138952E+03  0.81696470432E+03  0.87694415601E+02 0.  0.
        254    2    1    2    0    0  0.85210653348E+02 -0.50383561866E+03  0.36036795688E+02  0.10253387683E+04  0.88820591812E+03 0.  0.
         23    2    4    4    0    0 -0.19862161619E+02  0.75378504010E+02 -0.31194966743E+03  0.33416311267E+03  0.90972339343E+02 0.  0.
         23    2    4    4    0    0  0.10507281497E+03 -0.57921412267E+03  0.34798646312E+03  0.69117565560E+03  0.10049831856E+03 0.  0.
          1    1    3    3  502    0  0.12936302014E+02  0.37090359773E+02  0.30065121751E+02  0.49466698331E+02  0.00000000000E+00 0. -1.
         -1    1    3    3    0  502 -0.98146955362E+02  0.46674525889E+03  0.60130626777E+03  0.76749800599E+03  0.00000000000E+00 0.  1.
         13    1    5    5    0    0 -0.42874749561E+02  0.13590589517E+02 -0.68526874280E+02  0.81968779252E+02  0.00000000000E+00 0.  1.
        -13    1    5    5    0    0  0.23012587942E+02  0.61787914493E+02 -0.24342279315E+03  0.25219433341E+03  0.00000000000E+00 0. -1.
          3    1    6    6  503    0 -0.14362326928E+02 -0.17507185856E+03  0.96542561007E+02  0.20044175758E+03  0.00000000000E+00 0. -1.
         -3    1    6    6    0  503  0.11943514189E+03 -0.40414226411E+03  0.25144390211E+03  0.49073389802E+03  0.00000000000E+00 0.  1.
<mgrwt>
<rscale>  0 0.17171629E+04</rscale>
<asrwt>0</asrwt>
<pdfrwt beam="1">  1        2 0.90376561E-01 0.17171629E+04</pdfrwt>
<pdfrwt beam="2">  1       -2 0.19305474E+00 0.17171629E+04</pdfrwt>
<totfact> 0.71429329E+00</totfact>
</mgrwt>
</event>
<event>
12    3  0.4806716E-008  0.1640556E+04  0.7818608E-02  0.8796013E-01
          2   -1    0    0  501    0  0.00000000000E+00  0.00000000000E+00  0.40009684946E+03  0.40009684946E+03  0.00000000000E+00 0. -1.
         -2   -1    0    0    0  501 -0.00000000000E+00 -0.00000000000E+00 -0.16817324750E+04  0.16817324750E+04  0.00000000000E+00 0.  1.
         23    2    1    2    0    0  0.42555854452E+03 -0.16922045102E+03 -0.35111337950E+02  0.46848453662E+03  0.92245970834E+02 0.  0.
        254    2    1    2    0    0 -0.42555854452E+03  0.16922045102E+03 -0.12465242876E+04  0.16133447878E+04  0.91614571386E+03 0.  0.
         23    2    4    4    0    0  0.25182097949E+03  0.20406925146E+03 -0.47045179333E+03  0.57851327185E+03  0.91074973318E+02 0.  0.
         23    2    4    4    0    0 -0.67737952401E+03 -0.34848800436E+02 -0.77607249424E+03  0.10348315160E+04  0.92359578211E+02 0.  0.
          3    1    3    3  502    0  0.32290629038E+03 -0.83788261095E+02 -0.23380181243E+02  0.33441826795E+03  0.00000000000E+00 0. -1.
         -3    1    3    3    0  502  0.10265225414E+03 -0.85432189925E+02 -0.11731156707E+02  0.13406626867E+03  0.00000000000E+00 0.  1.
         13    1    5    5    0    0  0.17707582190E+03  0.98199773294E+02 -0.23892846164E+03  0.31318660884E+03  0.00000000000E+00 0.  1.
        -13    1    5    5    0    0  0.74745157589E+02  0.10586947816E+03 -0.23152333168E+03  0.26532666301E+03  0.00000000000E+00 0. -1.
          1    1    6    6  503    0 -0.63906336221E+03 -0.54108329113E+02 -0.73457680792E+03  0.97515782257E+03  0.00000000000E+00 0. -1.
         -1    1    6    6    0  503 -0.38316161801E+02  0.19259528677E+02 -0.41495686322E+02  0.59673693395E+02  0.00000000000E+00 0.  1.
<mgrwt>
<rscale>  0 0.16405558E+04</rscale>
<asrwt>0</asrwt>
<pdfrwt beam="1">  1        2 0.61553361E-01 0.16405558E+04</pdfrwt>
<pdfrwt beam="2">  1       -2 0.25872808E+00 0.16405558E+04</pdfrwt>
<totfact> 0.43190995E+00</totfact>
</mgrwt>
</event>
<event>
12    3  0.4806716E-008  0.2424619E+04  0.7818608E-02  0.8430344E-01
          3   -1    0    0  501    0  0.00000000000E+00  0.00000000000E+00  0.70893445275E+03  0.70893445275E+03  0.00000000000E+00 0. -1.
         -3   -1    0    0    0  501 -0.00000000000E+00 -0.00000000000E+00 -0.20731035080E+04  0.20731035080E+04  0.00000000000E+00 0.  1.
         23    2    1    2    0    0 -0.34262741902E+03  0.97179508205E+03 -0.41600647871E+03  0.11148814970E+04  0.90111776502E+02 0.  0.
        254    2    1    2    0    0  0.34262741902E+03 -0.97179508205E+03 -0.94816257657E+03  0.16671564638E+04  0.90477575861E+03 0.  0.
         23    2    4    4    0    0  0.23184051775E+03 -0.13250704065E+03  0.11504481649E+03  0.30486904860E+03  0.91660708602E+02 0.  0.
         23    2    4    4    0    0  0.11078690127E+03 -0.83928804140E+03 -0.10632073931E+04  0.13622874152E+04  0.93482014298E+02 0.  0.
          1    1    3    3  502    0 -0.10679212538E+03  0.24759350129E+03 -0.71531424851E+02  0.27896925398E+03  0.00000000000E+00 0. -1.
         -1    1    3    3    0  502 -0.23583529363E+03  0.72420158075E+03 -0.34447505386E+03  0.83591224301E+03  0.00000000000E+00 0.  1.
         13    1    5    5    0    0  0.15476693940E+03 -0.54907133026E+02  0.31433693068E+02  0.16719950911E+03  0.00000000000E+00 0. -1.
        -13    1    5    5    0    0  0.77073578351E+02 -0.77599907625E+02  0.83611123418E+02  0.13766953949E+03  0.00000000000E+00 0.  1.
          3    1    6    6  503    0  0.59416371358E+02 -0.45401443031E+03 -0.50002705522E+03  0.67800181716E+03  0.00000000000E+00 0. -1.
         -3    1    6    6    0  503  0.51370529914E+02 -0.38527361108E+03 -0.56318033784E+03  0.68428559803E+03  0.00000000000E+00 0.  1.
<mgrwt>
<rscale>  0 0.24246191E+04</rscale>
<asrwt>0</asrwt>
<pdfrwt beam="1">  1        3 0.10906684E+00 0.24246191E+04</pdfrwt>
<pdfrwt beam="2">  1       -3 0.31893899E+00 0.24246191E+04</pdfrwt>
<totfact> 0.49653048E-02</totfact>
</mgrwt>
</event>
<event>
12    3  0.4806716E-008  0.2964937E+04  0.7818608E-02  0.8253815E-01
          1   -1    0    0  501    0  0.00000000000E+00  0.00000000000E+00  0.11087624193E+04  0.11087624193E+04  0.00000000000E+00 0. -1.
         -1   -1    0    0    0  501 -0.00000000000E+00 -0.00000000000E+00 -0.19821319967E+04  0.19821319967E+04  0.00000000000E+00 0.  1.
         23    2    1    2    0    0  0.35759561372E+03  0.77651851366E+03 -0.14863983429E+04  0.17175541557E+04  0.98775599925E+02 0.  0.
        254    2    1    2    0    0 -0.35759561372E+03 -0.77651851366E+03  0.61302876542E+03  0.13733402603E+04  0.88283836476E+03 0.  0.
         23    2    4    4    0    0 -0.90774267723E+02  0.18693613670E+03  0.12064853491E+03  0.25525401244E+03  0.86101422809E+02 0.  0.
         23    2    4    4    0    0 -0.26682134600E+03 -0.96345465036E+03  0.49238023050E+03  0.11180862478E+04  0.90774843728E+02 0.  0.
          4    1    3    3  502    0  0.13689381354E+03  0.21756159262E+03 -0.38606185638E+03  0.46380676981E+03  0.00000000000E+00 0. -1.
         -4    1    3    3    0  502  0.22070180018E+03  0.55895692104E+03 -0.11003364865E+04  0.12537473859E+04  0.00000000000E+00 0.  1.
         13    1    5    5    0    0  0.11659596590E+01  0.32546099628E+01  0.30905799277E+02  0.31098559080E+02  0.00000000000E+00 0. -1.
        -13    1    5    5    0    0 -0.91940227382E+02  0.18368152673E+03  0.89742735635E+02  0.22415545336E+03  0.00000000000E+00 0.  1.
          4    1    6    6  503    0 -0.90361436597E+02 -0.26548120634E+03  0.18046954172E+03  0.33348870390E+03  0.00000000000E+00 0. -1.
         -4    1    6    6    0  503 -0.17645990940E+03 -0.69797344402E+03  0.31191068879E+03  0.78459754394E+03  0.00000000000E+00 0.  1.
<mgrwt>
<rscale>  0 0.29649374E+04</rscale>
<asrwt>0</asrwt>
<pdfrwt beam="1">  1        1 0.17057884E+00 0.29649374E+04</pdfrwt>
<pdfrwt beam="2">  1       -1 0.30494338E+00 0.29649374E+04</pdfrwt>
<totfact> 0.32691729E-01</totfact>
</mgrwt>
</event>
<event>
12    3  0.4806716E-008  0.1793036E+04  0.7818608E-02  0.8710012E-01
         -2   -1    0    0    0  501 -0.00000000000E+00  0.00000000000E+00  0.55104430438E+03  0.55104430438E+03  0.00000000000E+00 0.  1.
          2   -1    0    0  501    0  0.00000000000E+00 -0.00000000000E+00 -0.14585842944E+04  0.14585842944E+04  0.00000000000E+00 0. -1.
         23    2    1    2    0    0 -0.43817752003E+03  0.24023724430E+03 -0.80034075895E+03  0.94812097624E+03  0.93137439018E+02 0.  0.
        254    2    1    2    0    0  0.43817752003E+03 -0.24023724430E+03 -0.10719923105E+03  0.10615076225E+04  0.93037265916E+03 0.  0.
         23    2    4    4    0    0 -0.20896690834E+03  0.10757466397E+02  0.19389090580E+03  0.29932998373E+03  0.90674494442E+02 0.  0.
         23    2    4    4    0    0  0.64714442837E+03 -0.25099471070E+03 -0.30109013684E+03  0.76217763879E+03  0.92006666007E+02 0.  0.
          2    1    3    3  502    0 -0.39911255383E+03  0.22000388055E+03 -0.76972805079E+03  0.89452434861E+03  0.00000000000E+00 0. -1.
         -2    1    3    3    0  502 -0.39064966199E+02  0.20233363747E+02 -0.30612708158E+02  0.53596627631E+02  0.00000000000E+00 0.  1.
         13    1    5    5    0    0 -0.24583711724E+02 -0.17139885264E+02 -0.47459383195E+00  0.29972650672E+02  0.00000000000E+00 0. -1.
        -13    1    5    5    0    0 -0.18438319662E+03  0.27897351661E+02  0.19436549963E+03  0.26935733306E+03  0.00000000000E+00 0.  1.
          1    1    6    6  503    0  0.20368313175E+01 -0.74577926190E+01 -0.12454160107E+02  0.14658562567E+02  0.00000000000E+00 0. -1.
         -1    1    6    6    0  503  0.64510759706E+03 -0.24353691808E+03 -0.28863597674E+03  0.74751907622E+03  0.00000000000E+00 0.  1.
<mgrwt>
<rscale>  0 0.17930360E+04</rscale>
<asrwt>0</asrwt>
<pdfrwt beam="1">  1        2 0.22439758E+00 0.17930360E+04</pdfrwt>
<pdfrwt beam="2">  1       -2 0.84776047E-01 0.17930360E+04</pdfrwt>
<totfact> 0.15342161E+01</totfact>
</mgrwt>
</event>
<event>
12    3  0.4806716E-008  0.1139883E+04  0.7818608E-02  0.9167168E-01
          2   -1    0    0  501    0  0.00000000000E+00  0.00000000000E+00  0.23936422202E+03  0.23936422202E+03  0.00000000000E+00 0. -1.
         -2   -1    0    0    0  501 -0.00000000000E+00 -0.00000000000E+00 -0.13570679216E+04  0.13570679216E+04  0.00000000000E+00 0.  1.
         23    2    1    2    0    0 -0.79875812490E+02 -0.18699971227E+03 -0.27256579111E+03  0.34973157306E+03  0.81676342340E+02 0.  0.
        254    2    1    2    0    0  0.79875812490E+02  0.18699971227E+03 -0.84513790844E+03  0.12467005705E+04  0.89367510342E+03 0.  0.
         23    2    4    4    0    0  0.14867490647E+03  0.52844739067E+03 -0.52102919287E+03  0.76242955789E+03  0.92013794646E+02 0.  0.
         23    2    4    4    0    0 -0.68799093982E+02 -0.34144767840E+03 -0.32410871557E+03  0.48427101264E+03  0.90289100977E+02 0.  0.
          3    1    3    3  502    0 -0.77064759077E+02 -0.19516049305E+03 -0.25557266240E+03  0.33067201409E+03  0.00000000000E+00 0. -1.
         -3    1    3    3    0  502 -0.28110534132E+01  0.81607807843E+01 -0.16993128715E+02  0.19059558962E+02  0.00000000000E+00 0.  1.
         13    1    5    5    0    0 -0.12637764083E+02  0.44079420240E+02 -0.36933731494E+02  0.58879613550E+02  0.00000000000E+00 0. -1.
        -13    1    5    5    0    0  0.16131267055E+03  0.48436797043E+03 -0.48409546137E+03  0.70354994434E+03  0.00000000000E+00 0.  1.
          4    1    6    6  503    0  0.17608195286E+02 -0.11290718958E+03 -0.12225780048E+03  0.16734709970E+03  0.00000000000E+00 0. -1.
         -4    1    6    6    0  503 -0.86407289267E+02 -0.22854048883E+03 -0.20185091509E+03  0.31692391294E+03  0.00000000000E+00 0.  1.
<mgrwt>
<rscale>  0 0.11398833E+04</rscale>
<asrwt>0</asrwt>
<pdfrwt beam="1">  1        2 0.36825264E-01 0.11398833E+04</pdfrwt>
<pdfrwt beam="2">  1       -2 0.20877968E+00 0.11398833E+04</pdfrwt>
<totfact> 0.16324015E+01</totfact>
</mgrwt>
</event>
<event>
12    3  0.4806716E-008  0.1392376E+04  0.7818608E-02  0.8959356E-01
          1   -1    0    0  501    0  0.00000000000E+00  0.00000000000E+00  0.97041145527E+03  0.97041145527E+03  0.00000000000E+00 0. -1.
         -1   -1    0    0    0  501 -0.00000000000E+00 -0.00000000000E+00 -0.49945589189E+03  0.49945589189E+03  0.00000000000E+00 0.  1.
         23    2    1    2    0    0  0.27865015448E+02 -0.35751114425E+03 -0.41546427305E+02  0.37227614684E+03  0.90954640000E+02 0.  0.
        254    2    1    2    0    0 -0.27865015448E+02  0.35751114425E+03  0.51250199068E+03  0.10975912003E+04  0.90191877419E+03 0.  0.
         23    2    4    4    0    0  0.26066248846E+03  0.39118883115E+03 -0.27089336308E+02  0.47825000964E+03  0.83759208858E+02 0.  0.
         23    2    4    4    0    0 -0.28852750391E+03 -0.33677686902E+02  0.53959132699E+03  0.61934119069E+03  0.89679447007E+02 0.  0.
          1    1    3    3  502    0  0.22707270226E+02 -0.29251416076E+03  0.28270267307E+01  0.29340781592E+03  0.00000000000E+00 0. -1.
         -1    1    3    3    0  502  0.51577452217E+01 -0.64996983491E+02 -0.44373454036E+02  0.78868330918E+02  0.00000000000E+00 0.  1.
         13    1    5    5    0    0  0.22138474447E+03  0.35953548702E+03 -0.45226231768E+02  0.42464383141E+03  0.00000000000E+00 0.  1.
        -13    1    5    5    0    0  0.39277743988E+02  0.31653344130E+02  0.18136895461E+02  0.53606178230E+02  0.00000000000E+00 0. -1.
          1    1    6    6  503    0 -0.29247497108E+03 -0.25887382081E+02  0.50994136334E+03  0.58843177965E+03  0.00000000000E+00 0.  1.
         -1    1    6    6    0  503  0.39474671707E+01 -0.77903048211E+01  0.29649963653E+02  0.30909411041E+02  0.00000000000E+00 0. -1.
<mgrwt>
<rscale>  0 0.13923760E+04</rscale>
<asrwt>0</asrwt>
<pdfrwt beam="1">  1        1 0.14929407E+00 0.13923760E+04</pdfrwt>
<pdfrwt beam="2">  1       -1 0.76839368E-01 0.13923760E+04</pdfrwt>
<totfact> 0.26472927E+01</totfact>
</mgrwt>
</event>
<event>
12    3  0.4806716E-008  0.2706108E+04  0.7818608E-02  0.8333026E-01
         -1   -1    0    0    0  501 -0.00000000000E+00  0.00000000000E+00  0.53811239349E+03  0.53811239349E+03  0.00000000000E+00 0.  1.
          1   -1    0    0  501    0  0.00000000000E+00 -0.00000000000E+00 -0.34021805287E+04  0.34021805287E+04  0.00000000000E+00 0. -1.
         23    2    1    2    0    0  0.78723348452E+03 -0.79221475360E+03 -0.18934571824E+04  0.22014639936E+04  0.11799507752E+03 0.  0.
        254    2    1    2    0    0 -0.78723348452E+03  0.79221475360E+03 -0.97061095283E+03  0.17388289287E+04  0.91329055970E+03 0.  0.
         23    2    4    4    0    0 -0.59414010924E+03  0.93391715823E+03 -0.53154589876E+03  0.12309495447E+04  0.86556405371E+02 0.  0.
         23    2    4    4    0    0 -0.19309337529E+03 -0.14170240463E+03 -0.43906505407E+03  0.50787938394E+03  0.88310383729E+02 0.  0.
          1    1    3    3  502    0  0.16546597957E+03 -0.22623611853E+03 -0.53170813994E+03  0.60106182527E+03  0.00000000000E+00 0. -1.
         -1    1    3    3    0  502  0.62176750495E+03 -0.56597863508E+03 -0.13617490425E+04  0.16004021683E+04  0.00000000000E+00 0.  1.
         13    1    5    5    0    0 -0.11313121255E+03  0.20252497664E+03 -0.14838600265E+03  0.27537872684E+03  0.00000000000E+00 0. -1.
        -13    1    5    5    0    0 -0.48100889669E+03  0.73139218159E+03 -0.38315989611E+03  0.95557081788E+03  0.00000000000E+00 0.  1.
          2    1    6    6  503    0 -0.13215787796E+03 -0.61484212271E+02 -0.32188890547E+03  0.35335319516E+03  0.00000000000E+00 0. -1.
         -2    1    6    6    0  503 -0.60935497330E+02 -0.80218192359E+02 -0.11717614860E+03  0.15452618879E+03  0.00000000000E+00 0.  1.
<mgrwt>
<rscale>  0 0.27061083E+04</rscale>
<asrwt>0</asrwt>
<pdfrwt beam="1">  1        1 0.52341239E+00 0.27061083E+04</pdfrwt>
<pdfrwt beam="2">  1       -1 0.82786522E-01 0.27061083E+04</pdfrwt>
<totfact> 0.37695087E-01</totfact>
</mgrwt>
</event>
<event>
12    3  0.4806716E-008  0.1771477E+04  0.7818608E-02  0.8721616E-01
         -1   -1    0    0    0  501 -0.00000000000E+00  0.00000000000E+00  0.10010930608E+04  0.10010930608E+04  0.00000000000E+00 0.  1.
          1   -1    0    0  501    0  0.00000000000E+00 -0.00000000000E+00 -0.78367614159E+03  0.78367614159E+03  0.00000000000E+00 0. -1.
         23    2    1    2    0    0  0.57394276268E+03 -0.13762797420E+03  0.37223141412E+03  0.70374371688E+03  0.91363227181E+02 0.  0.
        254    2    1    2    0    0 -0.57394276268E+03  0.13762797420E+03 -0.15481449492E+03  0.10810254855E+04  0.89235464830E+03 0.  0.
         23    2    4    4    0    0 -0.22922080604E+03 -0.72610828395E+02  0.34612890771E+03  0.43120967538E+03  0.91225287440E+02 0.  0.
         23    2    4    4    0    0 -0.34472195663E+03  0.21023880259E+03 -0.50094340262E+03  0.64981581012E+03  0.91009411282E+02 0.  0.
          2    1    3    3  502    0  0.14612210265E+02 -0.20131472196E+02  0.85345671679E+01  0.26298891580E+02  0.00000000000E+00 0. -1.
         -2    1    3    3    0  502  0.55933055241E+03 -0.11749650200E+03  0.36369684695E+03  0.67744482530E+03  0.00000000000E+00 0.  1.
         13    1    5    5    0    0 -0.65468615785E+02 -0.63344186776E+02  0.15050010471E+03  0.17592301489E+03  0.00000000000E+00 0. -1.
        -13    1    5    5    0    0 -0.16375219026E+03 -0.92666416196E+01  0.19562880299E+03  0.25528666049E+03  0.00000000000E+00 0.  1.
          1    1    6    6  503    0 -0.17657836476E+03  0.12911124552E+03 -0.20429008454E+03  0.29930598267E+03  0.00000000000E+00 0. -1.
         -1    1    6    6    0  503 -0.16814359188E+03  0.81127557070E+02 -0.29665331808E+03  0.35050982745E+03  0.00000000000E+00 0.  1.
<mgrwt>
<rscale>  0 0.17714771E+04</rscale>
<asrwt>0</asrwt>
<pdfrwt beam="1">  1        1 0.12056556E+00 0.17714771E+04</pdfrwt>
<pdfrwt beam="2">  1       -1 0.15401432E+00 0.17714771E+04</pdfrwt>
<totfact> 0.70199403E+00</totfact>
</mgrwt>
</event>
<event>
12    3  0.4806716E-008  0.1686624E+04  0.7818608E-02  0.8769030E-01
          1   -1    0    0  501    0  0.00000000000E+00  0.00000000000E+00  0.25485977976E+04  0.25485977976E+04  0.00000000000E+00 0. -1.
         -1   -1    0    0    0  501 -0.00000000000E+00 -0.00000000000E+00 -0.27904564331E+03  0.27904564331E+03  0.00000000000E+00 0.  1.
         23    2    1    2    0    0 -0.14785917541E+03  0.57002525284E+03  0.10308501619E+04  0.11903681556E+04  0.86793806691E+02 0.  0.
        254    2    1    2    0    0  0.14785917541E+03 -0.57002525284E+03  0.12387019924E+04  0.16372752853E+04  0.89414574282E+03 0.  0.
         23    2    4    4    0    0 -0.12837463195E+03 -0.71610472162E+03  0.96818536855E+03  0.12145302134E+04  0.91731744185E+02 0.  0.
         23    2    4    4    0    0  0.27623380736E+03  0.14607946878E+03  0.27051662383E+03  0.42274507194E+03  0.88824684404E+02 0.  0.
          1    1    3    3  502    0 -0.12126520833E+03  0.54305772937E+03  0.94727283269E+03  0.10986094701E+04  0.00000000000E+00 0. -1.
         -1    1    3    3    0  502 -0.26593967077E+02  0.26967523479E+02  0.83577329190E+02  0.91758685485E+02  0.00000000000E+00 0.  1.
         13    1    5    5    0    0 -0.91482404538E+02 -0.26031905482E+03  0.37300400201E+03  0.46396877714E+03  0.00000000000E+00 0. -1.
        -13    1    5    5    0    0 -0.36892227414E+02 -0.45578566680E+03  0.59518136654E+03  0.75056143625E+03  0.00000000000E+00 0.  1.
          1    1    6    6  503    0  0.19925823846E+03  0.66126813886E+02  0.14473754225E+03  0.25500109263E+03  0.00000000000E+00 0. -1.
         -1    1    6    6    0  503  0.76975568902E+02  0.79952654893E+02  0.12577908158E+03  0.16774397931E+03  0.00000000000E+00 0.  1.
<mgrwt>
<rscale>  0 0.16866240E+04</rscale>
<asrwt>0</asrwt>
<pdfrwt beam="1">  1        1 0.39209195E+00 0.16866240E+04</pdfrwt>
<pdfrwt beam="2">  1       -1 0.42930101E-01 0.16866240E+04</pdfrwt>
<totfact> 0.63948671E+00</totfact>
</mgrwt>
</event>
<event>
12    3  0.4806716E-008  0.1347304E+04  0.7818608E-02  0.8992871E-01
          2   -1    0    0  501    0  0.00000000000E+00  0.00000000000E+00  0.17646773727E+04  0.17646773727E+04  0.00000000000E+00 0.  1.
         -2   -1    0    0    0  501 -0.00000000000E+00 -0.00000000000E+00 -0.25716151995E+03  0.25716151995E+03  0.00000000000E+00 0. -1.
         23    2    1    2    0    0 -0.15835287244E+02 -0.21211268089E+03  0.11626829828E+04  0.11854089723E+04  0.90111972325E+02 0.  0.
        254    2    1    2    0    0  0.15835287244E+02  0.21211268089E+03  0.34483286996E+03  0.83642992030E+03  0.73175320816E+03 0.  0.
         23    2    4    4    0    0 -0.24447713551E+03  0.35179571429E+03  0.11983257788E+03  0.45392641208E+03  0.90332975626E+02 0.  0.
         23    2    4    4    0    0  0.26031242275E+03 -0.13968303340E+03  0.22500029208E+03  0.38250350822E+03  0.91705480239E+02 0.  0.
          3    1    3    3  502    0  0.23341930604E+02 -0.11735542030E+03  0.78447936571E+03  0.79355215054E+03  0.00000000000E+00 0. -1.
         -3    1    3    3    0  502 -0.39177217849E+02 -0.94757260594E+02  0.37820361706E+03  0.39185682180E+03  0.00000000000E+00 0.  1.
         13    1    5    5    0    0 -0.71486063906E+02  0.18073560003E+03  0.59675145759E+02  0.20331438088E+03  0.00000000000E+00 0. -1.
        -13    1    5    5    0    0 -0.17299107160E+03  0.17106011426E+03  0.60157432118E+02  0.25061203120E+03  0.00000000000E+00 0.  1.
          2    1    6    6  503    0  0.14409236633E+03 -0.11940424751E+03  0.16798134021E+03  0.25147110176E+03  0.00000000000E+00 0. -1.
         -2    1    6    6    0  503  0.11622005642E+03 -0.20278785883E+02  0.57018951870E+02  0.13103240646E+03  0.00000000000E+00 0.  1.
<mgrwt>
<rscale>  0 0.13473041E+04</rscale>
<asrwt>0</asrwt>
<pdfrwt beam="1">  1        2 0.27148882E+00 0.13473041E+04</pdfrwt>
<pdfrwt beam="2">  1       -2 0.39563312E-01 0.13473041E+04</pdfrwt>
<totfact> 0.53293609E+01</totfact>
</mgrwt>
</event>
<event>
12    3  0.4806716E-008  0.1389896E+04  0.7818608E-02  0.8961165E-01
          1   -1    0    0  501    0  0.00000000000E+00  0.00000000000E+00  0.34513421838E+03  0.34513421838E+03  0.00000000000E+00 0. -1.
         -1   -1    0    0    0  501 -0.00000000000E+00 -0.00000000000E+00 -0.13993184538E+04  0.13993184538E+04  0.00000000000E+00 0.  1.
         23    2    1    2    0    0 -0.18280373277E+03 -0.21982647718E+03 -0.65337218076E+03  0.71793409253E+03  0.82421294857E+02 0.  0.
        254    2    1    2    0    0  0.18280373277E+03  0.21982647718E+03 -0.40081205468E+03  0.10265185797E+04  0.90074924726E+03 0.  0.
         23    2    4    4    0    0 -0.19597408978E+03 -0.24597645222E+03 -0.69249798701E+02  0.33488453565E+03  0.91879587981E+02 0.  0.
         23    2    4    4    0    0  0.37877782255E+03  0.46580292939E+03 -0.33156225598E+03  0.69163404402E+03  0.89325882932E+02 0.  0.
          1    1    3    3  502    0 -0.11690593757E+03 -0.78326862680E+02 -0.28466623615E+03  0.31754836113E+03  0.00000000000E+00 0. -1.
         -1    1    3    3    0  502 -0.65897795204E+02 -0.14149961450E+03 -0.36870594461E+03  0.40038573140E+03  0.00000000000E+00 0.  1.
         13    1    5    5    0    0  0.82630024370E+01 -0.74367925905E+01 -0.10728829552E+02  0.15449623842E+02  0.00000000000E+00 0.  1.
        -13    1    5    5    0    0 -0.20423709222E+03 -0.23853965963E+03 -0.58520969149E+02  0.31943491181E+03  0.00000000000E+00 0. -1.
          1    1    6    6  503    0  0.28329109659E+03  0.36284984770E+03 -0.21029670148E+03  0.50610133376E+03  0.00000000000E+00 0. -1.
         -1    1    6    6    0  503  0.95486725967E+02  0.10295308170E+03 -0.12126555451E+03  0.18553271026E+03  0.00000000000E+00 0.  1.
<mgrwt>
<rscale>  0 0.13898959E+04</rscale>
<asrwt>0</asrwt>
<pdfrwt beam="1">  1        1 0.53097573E-01 0.13898959E+04</pdfrwt>
<pdfrwt beam="2">  1       -1 0.21527976E+00 0.13898959E+04</pdfrwt>
<totfact> 0.84296703E+00</totfact>
</mgrwt>
</event>
<event>
12    3  0.4806716E-008  0.1218506E+04  0.7818608E-02  0.9096811E-01
          2   -1    0    0  501    0  0.00000000000E+00  0.00000000000E+00  0.14368080384E+04  0.14368080384E+04  0.00000000000E+00 0. -1.
         -2   -1    0    0    0  501 -0.00000000000E+00 -0.00000000000E+00 -0.25834277435E+03  0.25834277435E+03  0.00000000000E+00 0.  1.
         23    2    1    2    0    0  0.15662808839E+03  0.18986720215E+03  0.39274041945E+03  0.47223140064E+03  0.90418726828E+02 0.  0.
        254    2    1    2    0    0 -0.15662808839E+03 -0.18986720215E+03  0.78572484464E+03  0.12229194121E+04  0.90420486869E+03 0.  0.
         23    2    4    4    0    0 -0.17307837031E+03 -0.34219396388E+03 -0.23863151920E+02  0.39412889154E+03  0.87836791507E+02 0.  0.
         23    2    4    4    0    0  0.16450281920E+02  0.15232676173E+03  0.80958799656E+03  0.82879052060E+03  0.89369730561E+02 0.  0.
          4    1    3    3  502    0  0.79052474998E+02  0.49261778004E+02  0.20507487628E+03  0.22523703394E+03  0.00000000000E+00 0.  1.
         -4    1    3    3    0  502  0.77575613389E+02  0.14060542415E+03  0.18766554317E+03  0.24699436671E+03  0.00000000000E+00 0. -1.
         13    1    5    5    0    0 -0.16988265746E+03 -0.33142709868E+03 -0.53416268024E+01  0.37246821612E+03  0.00000000000E+00 0. -1.
        -13    1    5    5    0    0 -0.31957128439E+01 -0.10766865204E+02 -0.18521525117E+02  0.21660675418E+02  0.00000000000E+00 0.  1.
          3    1    6    6  503    0  0.10544112319E+02  0.16393519705E+03  0.74357363208E+03  0.76150356103E+03  0.00000000000E+00 0. -1.
         -3    1    6    6    0  503  0.59061696012E+01 -0.11608435320E+02  0.66014364476E+02  0.67286959562E+02  0.00000000000E+00 0.  1.
<mgrwt>
<rscale>  0 0.12185056E+04</rscale>
<asrwt>0</asrwt>
<pdfrwt beam="1">  1        2 0.22104739E+00 0.12185056E+04</pdfrwt>
<pdfrwt beam="2">  1       -2 0.39745043E-01 0.12185056E+04</pdfrwt>
<totfact> 0.81326834E+01</totfact>
</mgrwt>
</event>
<event>
12    3  0.4806716E-008  0.1199492E+04  0.7818608E-02  0.9113301E-01
         -1   -1    0    0    0  501 -0.00000000000E+00  0.00000000000E+00  0.49620347165E+03  0.49620347165E+03  0.00000000000E+00 0.  1.
          1   -1    0    0  501    0  0.00000000000E+00 -0.00000000000E+00 -0.72489469882E+03  0.72489469882E+03  0.00000000000E+00 0. -1.
         23    2    1    2    0    0  0.21907416567E+03  0.93054234638E+02 -0.11275258534E+03  0.27878696506E+03  0.91413597125E+02 0.  0.
        254    2    1    2    0    0 -0.21907416567E+03 -0.93054234638E+02 -0.11593864183E+03  0.94231120540E+03  0.90435394537E+03 0.  0.
         23    2    4    4    0    0  0.33218402150E+03  0.73692721498E+02 -0.42437565650E+02  0.35454576269E+03  0.90138279993E+02 0.  0.
         23    2    4    4    0    0 -0.55125818717E+03 -0.16674695614E+03 -0.73501076176E+02  0.58776544272E+03  0.91518692897E+02 0.  0.
          3    1    3    3  502    0  0.67272882760E+01  0.29692783751E+02 -0.28527510091E+02  0.41722136168E+02  0.00000000000E+00 0. -1.
         -3    1    3    3    0  502  0.21234687740E+03  0.63361450887E+02 -0.84225075248E+02  0.23706482890E+03  0.00000000000E+00 0.  1.
         13    1    5    5    0    0  0.24309329082E+03  0.47810619689E+02 -0.70561213328E+02  0.25760257806E+03  0.00000000000E+00 0.  1.
        -13    1    5    5    0    0  0.89090730673E+02  0.25882101809E+02  0.28123647678E+02  0.96943184622E+02  0.00000000000E+00 0. -1.
          4    1    6    6  503    0 -0.17995418944E+02 -0.45491154972E+01  0.14400262106E+02  0.23492490364E+02  0.00000000000E+00 0. -1.
         -4    1    6    6    0  503 -0.53326276823E+03 -0.16219784064E+03 -0.87901338282E+02  0.56427295235E+03  0.00000000000E+00 0.  1.
<mgrwt>
<rscale>  0 0.11994920E+04</rscale>
<asrwt>0</asrwt>
<pdfrwt beam="1">  1        1 0.11152226E+00 0.11994920E+04</pdfrwt>
<pdfrwt beam="2">  1       -1 0.76338996E-01 0.11994920E+04</pdfrwt>
<totfact> 0.44047994E+01</totfact>
</mgrwt>
</event>
<event>
12    3  0.4806716E-008  0.2357505E+04  0.7818608E-02  0.8455587E-01
          1   -1    0    0  501    0  0.00000000000E+00  0.00000000000E+00  0.14972081871E+04  0.14972081871E+04  0.00000000000E+00 0. -1.
         -1   -1    0    0    0  501 -0.00000000000E+00 -0.00000000000E+00 -0.92803235697E+03  0.92803235697E+03  0.00000000000E+00 0.  1.
         23    2    1    2    0    0 -0.16924862494E+03  0.18763146402E+03  0.12407811480E+04  0.12696357806E+04  0.92663341066E+02 0.  0.
        254    2    1    2    0    0  0.16924862494E+03 -0.18763146402E+03 -0.67160531788E+03  0.11556047635E+04  0.90582448798E+03 0.  0.
         23    2    4    4    0    0  0.29024926562E+03 -0.40150702697E+03 -0.73100218658E+03  0.88768197769E+03  0.90346930351E+02 0.  0.
         23    2    4    4    0    0 -0.12100064068E+03  0.21387556294E+03  0.59396868705E+02  0.26792278579E+03  0.88717076502E+02 0.  0.
          4    1    3    3  502    0 -0.34723240461E+02  0.60178195382E+02  0.55221906146E+03  0.55657255633E+03  0.00000000000E+00 0.  1.
         -4    1    3    3    0  502 -0.13452538448E+03  0.12745326864E+03  0.68856208653E+03  0.71306322424E+03  0.00000000000E+00 0. -1.
         13    1    5    5    0    0  0.52752966870E+02 -0.36676702329E+02 -0.60457408175E+02  0.88222186612E+02  0.00000000000E+00 0. -1.
        -13    1    5    5    0    0  0.23749629875E+03 -0.36483032464E+03 -0.67054477841E+03  0.79945979108E+03  0.00000000000E+00 0.  1.
          3    1    6    6  503    0 -0.10995867212E+03  0.16956421936E+03  0.12526989291E+02  0.20248422043E+03  0.00000000000E+00 0. -1.
         -3    1    6    6    0  503 -0.11041968553E+02  0.44311343585E+02  0.46869879413E+02  0.65438565358E+02  0.00000000000E+00 0.  1.
<mgrwt>
<rscale>  0 0.23575052E+04</rscale>
<asrwt>0</asrwt>
<pdfrwt beam="1">  1        1 0.23033972E+00 0.23575052E+04</pdfrwt>
<pdfrwt beam="2">  1       -1 0.14277421E+00 0.23575052E+04</pdfrwt>
<totfact> 0.23526798E+00</totfact>
</mgrwt>
</event>
<event>
12    3  0.4806716E-008  0.1548034E+04  0.7818608E-02  0.8853125E-01
          1   -1    0    0  501    0  0.00000000000E+00  0.00000000000E+00  0.24109947365E+04  0.24109947365E+04  0.00000000000E+00 0.  1.
         -1   -1    0    0    0  501 -0.00000000000E+00 -0.00000000000E+00 -0.24848756606E+03  0.24848756606E+03  0.00000000000E+00 0. -1.
         23    2    1    2    0    0  0.21210860580E+03 -0.33070951214E+03  0.18094165294E+03  0.44171444527E+03  0.89514955832E+02 0.  0.
        254    2    1    2    0    0 -0.21210860580E+03  0.33070951214E+03  0.19815655175E+04  0.22177678572E+04  0.91516857821E+03 0.  0.
         23    2    4    4    0    0 -0.32790727453E+03 -0.22137814439E+03  0.61918399043E+03  0.74058804832E+03  0.92468263776E+02 0.  0.
         23    2    4    4    0    0  0.11579866873E+03  0.55208765653E+03  0.13623815270E+04  0.14771798089E+04  0.88128602137E+02 0.  0.
          4    1    3    3  502    0  0.15407799532E+03 -0.29731418318E+03  0.16281744004E+03  0.37235100503E+03  0.00000000000E+00 0. -1.
         -4    1    3    3    0  502  0.58030610483E+02 -0.33395328957E+02  0.18124212895E+02  0.69363440242E+02  0.00000000000E+00 0.  1.
         13    1    5    5    0    0 -0.30372125086E+01 -0.28129427983E+02  0.41976074128E+02  0.50620946037E+02  0.00000000000E+00 0.  1.
        -13    1    5    5    0    0 -0.32487006202E+03 -0.19324871641E+03  0.57720791630E+03  0.68996710228E+03  0.00000000000E+00 0. -1.
          4    1    6    6  503    0  0.11902498524E+03  0.53934064759E+03  0.13518719958E+04  0.14603469362E+04  0.00000000000E+00 0. -1.
         -4    1    6    6    0  503 -0.32263165094E+01  0.12747008945E+02  0.10509531264E+02  0.16832872680E+02  0.00000000000E+00 0.  1.
<mgrwt>
<rscale>  0 0.15480339E+04</rscale>
<asrwt>0</asrwt>
<pdfrwt beam="1">  1        1 0.37092225E+00 0.15480339E+04</pdfrwt>
<pdfrwt beam="2">  1       -1 0.38228858E-01 0.15480339E+04</pdfrwt>
<totfact> 0.99718668E+00</totfact>
</mgrwt>
</event>
<event>
12    3  0.4806716E-008  0.2587706E+04  0.7818608E-02  0.8372389E-01
          2   -1    0    0  501    0  0.00000000000E+00  0.00000000000E+00  0.97154644428E+03  0.97154644428E+03  0.00000000000E+00 0.  1.
         -2   -1    0    0    0  501 -0.00000000000E+00 -0.00000000000E+00 -0.17230836387E+04  0.17230836387E+04  0.00000000000E+00 0. -1.
         23    2    1    2    0    0 -0.75287114980E+03 -0.39202718298E+03  0.45537535014E+03  0.96733506436E+03  0.88713791607E+02 0.  0.
        254    2    1    2    0    0  0.75287114980E+03  0.39202718298E+03 -0.12069125445E+04  0.17272950186E+04  0.89800329104E+03 0.  0.
         23    2    4    4    0    0  0.58872227195E+03 -0.18785815922E+03 -0.55982567532E+03  0.83843647226E+03  0.87671716031E+02 0.  0.
         23    2    4    4    0    0  0.16414887786E+03  0.57988534220E+03 -0.64708686922E+03  0.88885854634E+03  0.90201080348E+02 0.  0.
          1    1    3    3  502    0 -0.45396530381E+03 -0.20102842742E+03  0.23085234706E+03  0.54753057617E+03  0.00000000000E+00 0.  1.
         -1    1    3    3    0  502 -0.29890584600E+03 -0.19099875556E+03  0.22452300308E+03  0.41980448820E+03  0.00000000000E+00 0. -1.
         13    1    5    5    0    0  0.12102534722E+03 -0.20590828248E+02 -0.72427455531E+02  0.14253719933E+03  0.00000000000E+00 0.  1.
        -13    1    5    5    0    0  0.46769692473E+03 -0.16726733097E+03 -0.48739821979E+03  0.69589927293E+03  0.00000000000E+00 0. -1.
          2    1    6    6  503    0  0.71575758911E+02  0.12229053568E+03 -0.13162335903E+03  0.19339796540E+03  0.00000000000E+00 0.  1.
         -2    1    6    6    0  503  0.92573118944E+02  0.45759480652E+03 -0.51546351019E+03  0.69546058094E+03  0.00000000000E+00 0. -1.
<mgrwt>
<rscale>  0 0.25877062E+04</rscale>
<asrwt>0</asrwt>
<pdfrwt beam="1">  1        2 0.14946868E+00 0.25877062E+04</pdfrwt>
<pdfrwt beam="2">  1       -2 0.26508979E+00 0.25877062E+04</pdfrwt>
<totfact> 0.12084705E+00</totfact>
</mgrwt>
</event>
<event>
12    3  0.4806716E-008  0.1831522E+04  0.7818608E-02  0.8689714E-01
         -1   -1    0    0    0  501 -0.00000000000E+00  0.00000000000E+00  0.66923567121E+03  0.66923567121E+03  0.00000000000E+00 0.  1.
          1   -1    0    0  501    0  0.00000000000E+00 -0.00000000000E+00 -0.12530981549E+04  0.12530981549E+04  0.00000000000E+00 0. -1.
         23    2    1    2    0    0  0.24363864439E+03 -0.50205601996E+03 -0.67762004551E+03  0.88248399711E+03  0.90493330516E+02 0.  0.
        254    2    1    2    0    0 -0.24363864439E+03  0.50205601996E+03  0.93757561857E+02  0.10398498290E+04  0.87239735795E+03 0.  0.
         23    2    4    4    0    0  0.26351954794E+03  0.90622523477E+02 -0.15938056302E+03  0.33338895413E+03  0.89950191531E+02 0.  0.
         23    2    4    4    0    0 -0.50715819233E+03  0.41143349648E+03  0.25313812488E+03  0.70646087483E+03  0.92309822445E+02 0.  0.
          3    1    3    3  502    0  0.76767260609E+02 -0.12620738781E+03 -0.24120782075E+03  0.28284753814E+03  0.00000000000E+00 0. -1.
         -3    1    3    3    0  502  0.16687138378E+03 -0.37584863215E+03 -0.43641222476E+03  0.59963645898E+03  0.00000000000E+00 0.  1.
         13    1    5    5    0    0  0.59392960737E+02  0.50155992443E+02 -0.12646513101E+02  0.78759644848E+02  0.00000000000E+00 0.  1.
        -13    1    5    5    0    0  0.20412658721E+03  0.40466531035E+02 -0.14673404992E+03  0.25462930928E+03  0.00000000000E+00 0. -1.
          3    1    6    6  503    0 -0.79999322730E+02  0.11162983530E+03  0.43508036388E+02  0.14406269814E+03  0.00000000000E+00 0. -1.
         -3    1    6    6    0  503 -0.42715886960E+03  0.29980366119E+03  0.20963008849E+03  0.56239817669E+03  0.00000000000E+00 0.  1.
<mgrwt>
<rscale>  0 0.18315218E+04</rscale>
<asrwt>0</asrwt>
<pdfrwt beam="1">  1        1 0.19278433E+00 0.18315218E+04</pdfrwt>
<pdfrwt beam="2">  1       -1 0.10295933E+00 0.18315218E+04</pdfrwt>
<totfact> 0.81990774E+00</totfact>
</mgrwt>
</event>
<event>
12    3  0.4806716E-008  0.1811227E+04  0.7818608E-02  0.8700352E-01
         -1   -1    0    0    0  501 -0.00000000000E+00  0.00000000000E+00  0.65496272516E+03  0.65496272516E+03  0.00000000000E+00 0.  1.
          1   -1    0    0  501    0  0.00000000000E+00 -0.00000000000E+00 -0.12521871696E+04  0.12521871696E+04  0.00000000000E+00 0. -1.
         23    2    1    2    0    0 -0.65726353919E+03 -0.47440145993E+02 -0.36041586516E+02  0.66800801027E+03  0.10339138470E+03 0.  0.
        254    2    1    2    0    0  0.65726353919E+03  0.47440145993E+02 -0.56118285792E+03  0.12391418845E+04  0.88673585835E+03 0.  0.
         23    2    4    4    0    0 -0.74816731768E+01 -0.26326156574E+03 -0.39188822881E+03  0.48065931267E+03  0.89968680886E+02 0.  0.
         23    2    4    4    0    0  0.66474521237E+03  0.31070171173E+03 -0.16929462911E+03  0.75848257183E+03  0.90627751178E+02 0.  0.
          1    1    3    3  502    0 -0.14525243719E+02 -0.13920574125E+00 -0.18198080658E+02  0.23284591965E+02  0.00000000000E+00 0. -1.
         -1    1    3    3    0  502 -0.64273829547E+03 -0.47300940251E+02 -0.17843505858E+02  0.64472341831E+03  0.00000000000E+00 0.  1.
         13    1    5    5    0    0 -0.64365934907E+01 -0.21304072206E+03 -0.36746738622E+03  0.42480590736E+03  0.00000000000E+00 0. -1.
        -13    1    5    5    0    0 -0.10450796861E+01 -0.50220843675E+02 -0.24420842591E+02  0.55853405302E+02  0.00000000000E+00 0.  1.
          1    1    6    6  503    0  0.20912207087E+03  0.14285746114E+03 -0.44403288874E+02  0.25712243541E+03  0.00000000000E+00 0. -1.
         -1    1    6    6    0  503  0.45562314149E+03  0.16784425059E+03 -0.12489134023E+03  0.50136013642E+03  0.00000000000E+00 0.  1.
<mgrwt>
<rscale>  0 0.18112271E+04</rscale>
<asrwt>0</asrwt>
<pdfrwt beam="1">  1        1 0.19264418E+00 0.18112271E+04</pdfrwt>
<pdfrwt beam="2">  1       -1 0.10076350E+00 0.18112271E+04</pdfrwt>
<totfact> 0.86457328E+00</totfact>
</mgrwt>
</event>
<event>
12    3  0.4806716E-008  0.1750879E+04  0.7818608E-02  0.8732866E-01
          1   -1    0    0  501    0  0.00000000000E+00  0.00000000000E+00  0.16120343230E+04  0.16120343230E+04  0.00000000000E+00 0. -1.
         -1   -1    0    0    0  501 -0.00000000000E+00 -0.00000000000E+00 -0.47542075880E+03  0.47542075880E+03  0.00000000000E+00 0.  1.
         23    2    1    2    0    0 -0.55473662952E+03 -0.58155633813E+02  0.79469572466E+03  0.97492677370E+03  0.88465323176E+02 0.  0.
        254    2    1    2    0    0  0.55473662952E+03  0.58155633813E+02  0.34191783952E+03  0.11125283081E+04  0.89983144057E+03 0.  0.
         23    2    4    4    0    0  0.45500529901E+03 -0.28169148094E+03 -0.85913457274E+02  0.54967040910E+03  0.91523351863E+02 0.  0.
         23    2    4    4    0    0  0.99731330508E+02  0.33984711476E+03  0.42783129680E+03  0.56285789898E+03  0.91252376597E+02 0.  0.
          2    1    3    3  502    0 -0.18699815005E+03 -0.94057078255E+01  0.19954189405E+03  0.27363066886E+03  0.00000000000E+00 0. -1.
         -2    1    3    3    0  502 -0.36773847948E+03 -0.48749925988E+02  0.59515383061E+03  0.70129610484E+03  0.00000000000E+00 0.  1.
         13    1    5    5    0    0  0.28503768002E+03 -0.21418192300E+03 -0.86092286580E+02  0.36678639148E+03  0.00000000000E+00 0.  1.
        -13    1    5    5    0    0  0.16996761899E+03 -0.67509557949E+02  0.17882930572E+00  0.18288401762E+03  0.00000000000E+00 0. -1.
          1    1    6    6  503    0  0.97842470708E+02  0.33797123522E+03  0.39128375153E+03  0.52621352997E+03  0.00000000000E+00 0. -1.
         -1    1    6    6    0  503  0.18888598001E+01  0.18758795378E+01  0.36547545270E+02  0.36644369017E+02  0.00000000000E+00 0.  1.
<mgrwt>
<rscale>  0 0.17508793E+04</rscale>
<asrwt>0</asrwt>
<pdfrwt beam="1">  1        1 0.24800528E+00 0.17508793E+04</pdfrwt>
<pdfrwt beam="2">  1       -1 0.73141656E-01 0.17508793E+04</pdfrwt>
<totfact> 0.97734642E+00</totfact>
</mgrwt>
</event>
<event>
12    3  0.4806716E-008  0.1167364E+04  0.7818608E-02  0.9141912E-01
         -2   -1    0    0    0  501 -0.00000000000E+00  0.00000000000E+00  0.48732134456E+03  0.48732134456E+03  0.00000000000E+00 0.  1.
          2   -1    0    0  501    0  0.00000000000E+00 -0.00000000000E+00 -0.69909678354E+03  0.69909678354E+03  0.00000000000E+00 0. -1.
         23    2    1    2    0    0 -0.19633333030E+03  0.10755167061E+03 -0.18049749337E+03  0.30216192899E+03  0.92781182248E+02 0.  0.
        254    2    1    2    0    0  0.19633333030E+03 -0.10755167061E+03 -0.31277945608E+02  0.88425619911E+03  0.85487810671E+03 0.  0.
         23    2    4    4    0    0 -0.84988069745E+02  0.32774817489E+03  0.42177170001E+02  0.35284111054E+03  0.89867110087E+02 0.  0.
         23    2    4    4    0    0  0.28132140005E+03 -0.43529984550E+03 -0.73455115609E+02  0.53141508857E+03  0.91535002758E+02 0.  0.
          3    1    3    3  502    0 -0.17048292871E+03  0.10093880666E+03 -0.18934333808E+03  0.27405103785E+03  0.00000000000E+00 0. -1.
         -3    1    3    3    0  502 -0.25850401593E+02  0.66128639543E+01  0.88458447086E+01  0.28110891143E+02  0.00000000000E+00 0.  1.
         13    1    5    5    0    0 -0.62929498042E+02  0.18389680524E+03  0.66217454617E+02  0.20533608547E+03  0.00000000000E+00 0. -1.
        -13    1    5    5    0    0 -0.22058571704E+02  0.14385136965E+03 -0.24040284616E+02  0.14750502507E+03  0.00000000000E+00 0.  1.
          1    1    6    6  503    0  0.11290302484E+03 -0.11219813144E+03 -0.47604008855E+02  0.16613745928E+03  0.00000000000E+00 0. -1.
         -1    1    6    6    0  503  0.16841837520E+03 -0.32310171406E+03 -0.25851106754E+02  0.36527762929E+03  0.00000000000E+00 0.  1.
<mgrwt>
<rscale>  0 0.11673642E+04</rscale>
<asrwt>0</asrwt>
<pdfrwt beam="1">  1        2 0.10755335E+00 0.11673642E+04</pdfrwt>
<pdfrwt beam="2">  1       -2 0.74972515E-01 0.11673642E+04</pdfrwt>
<totfact> 0.64887580E+01</totfact>
</mgrwt>
</event>
<event>
12    3  0.4806716E-008  0.1872897E+04  0.7818608E-02  0.8668466E-01
         -2   -1    0    0    0  501 -0.00000000000E+00  0.00000000000E+00  0.38864293151E+03  0.38864293151E+03  0.00000000000E+00 0.  1.
          2   -1    0    0  501    0  0.00000000000E+00 -0.00000000000E+00 -0.22564052682E+04  0.22564052682E+04  0.00000000000E+00 0. -1.
         23    2    1    2    0    0 -0.58299347616E+03  0.24838569409E+03 -0.27759113168E+03  0.69852742879E+03  0.96472203824E+02 0.  0.
        254    2    1    2    0    0  0.58299347616E+03 -0.24838569409E+03 -0.15901712050E+04  0.19465207709E+04  0.92667243622E+03 0.  0.
         23    2    4    4    0    0  0.19517165069E+03  0.46824505923E+01 -0.14324182686E+04  0.14486620526E+04  0.93197358888E+02 0.  0.
         23    2    4    4    0    0  0.38782182548E+03 -0.25306814468E+03 -0.15775293637E+03  0.49785871832E+03  0.92347497565E+02 0.  0.
          1    1    3    3  502    0 -0.31803377856E+02  0.11870705238E+01 -0.35665059172E+02  0.47800213652E+02  0.00000000000E+00 0. -1.
         -1    1    3    3    0  502 -0.55119009831E+03  0.24719862357E+03 -0.24192607251E+03  0.65072721514E+03  0.00000000000E+00 0.  1.
         13    1    5    5    0    0  0.68432361083E+02  0.33516091505E+02 -0.75895866536E+03  0.76277426029E+03  0.00000000000E+00 0. -1.
        -13    1    5    5    0    0  0.12673928960E+03 -0.28833640913E+02 -0.67345960325E+03  0.68588779227E+03  0.00000000000E+00 0.  1.
          1    1    6    6  503    0  0.32186307091E+03 -0.21625017284E+03 -0.93953883615E+02  0.39898283913E+03  0.00000000000E+00 0. -1.
         -1    1    6    6    0  503  0.65958754564E+02 -0.36817971839E+02 -0.63799052754E+02  0.98875879193E+02  0.00000000000E+00 0.  1.
<mgrwt>
<rscale>  0 0.18728972E+04</rscale>
<asrwt>0</asrwt>
<pdfrwt beam="1">  1        2 0.34713927E+00 0.18728972E+04</pdfrwt>
<pdfrwt beam="2">  1       -2 0.59791220E-01 0.18728972E+04</pdfrwt>
<totfact> 0.11755336E+01</totfact>
</mgrwt>
</event>
<event>
12    3  0.4806716E-008  0.2424960E+04  0.7818608E-02  0.8430218E-01
         -1   -1    0    0    0  501 -0.00000000000E+00  0.00000000000E+00  0.62785816683E+03  0.62785816683E+03  0.00000000000E+00 0.  1.
          1   -1    0    0  501    0  0.00000000000E+00 -0.00000000000E+00 -0.23414643340E+04  0.23414643340E+04  0.00000000000E+00 0. -1.
         23    2    1    2    0    0  0.70122427523E+02  0.20238443583E+03  0.50971486803E+03  0.56066047027E+03  0.93028498428E+02 0.  0.
        254    2    1    2    0    0 -0.70122427523E+02 -0.20238443583E+03 -0.22233210352E+04  0.24086620305E+04  0.90145423467E+03 0.  0.
         23    2    4    4    0    0  0.22920545162E+03 -0.13359509556E+03 -0.19968977153E+04  0.20163161656E+04  0.86876955733E+02 0.  0.
         23    2    4    4    0    0 -0.29932787915E+03 -0.68789340262E+02 -0.22642331985E+03  0.39234586497E+03  0.91315964756E+02 0.  0.
          4    1    3    3  502    0 -0.15939682096E+02  0.51975172535E+01  0.22532835157E+02  0.28085873872E+02  0.00000000000E+00 0. -1.
         -4    1    3    3    0  502  0.86062109619E+02  0.19718691857E+03  0.48718203288E+03  0.53257459640E+03  0.00000000000E+00 0.  1.
         13    1    5    5    0    0  0.41002410883E+02 -0.50398357738E+02 -0.29788072833E+03  0.30488378191E+03  0.00000000000E+00 0. -1.
        -13    1    5    5    0    0  0.18820304074E+03 -0.83196737827E+02 -0.16990169870E+04  0.17114323837E+04  0.00000000000E+00 0.  1.
          4    1    6    6  503    0 -0.11762174911E+03 -0.16803590921E+02 -0.36230076045E+02  0.12421696721E+03  0.00000000000E+00 0. -1.
         -4    1    6    6    0  503 -0.18170613003E+03 -0.51985749341E+02 -0.19019324380E+03  0.26812889776E+03  0.00000000000E+00 0.  1.
<mgrwt>
<rscale>  0 0.24249598E+04</rscale>
<asrwt>0</asrwt>
<pdfrwt beam="1">  1        1 0.36022528E+00 0.24249598E+04</pdfrwt>
<pdfrwt beam="2">  1       -1 0.96593564E-01 0.24249598E+04</pdfrwt>
<totfact> 0.16070813E+00</totfact>
</mgrwt>
</event>
<event>
12    3  0.4806716E-008  0.2778736E+04  0.7818608E-02  0.8309901E-01
          2   -1    0    0  501    0  0.00000000000E+00  0.00000000000E+00  0.20176228576E+04  0.20176228576E+04  0.00000000000E+00 0. -1.
         -2   -1    0    0    0  501 -0.00000000000E+00 -0.00000000000E+00 -0.95674131499E+03  0.95674131499E+03  0.00000000000E+00 0.  1.
         23    2    1    2    0    0 -0.95860774648E+03  0.68764898531E+03 -0.47115771692E+02  0.11840011869E+04  0.88594446430E+02 0.  0.
        254    2    1    2    0    0  0.95860774648E+03 -0.68764898531E+03  0.11079973143E+04  0.17903629858E+04  0.76547477659E+03 0.  0.
         23    2    4    4    0    0  0.53661024705E+03 -0.68697887590E+03  0.10255983220E+04  0.13491781519E+04  0.92407977855E+02 0.  0.
         23    2    4    4    0    0  0.42199749943E+03 -0.67010941394E+00  0.82398992306E+02  0.44118483382E+03  0.98854059539E+02 0.  0.
          4    1    3    3  502    0 -0.36243329967E+03  0.20793192933E+03 -0.18353275276E+02  0.41824684895E+03  0.00000000000E+00 0. -1.
         -4    1    3    3    0  502 -0.59617444681E+03  0.47971705598E+03 -0.28762496416E+02  0.76575433791E+03  0.00000000000E+00 0.  1.
         13    1    5    5    0    0  0.51912138575E+03 -0.66099992000E+03  0.95642917861E+03  0.12732496539E+04  0.00000000000E+00 0. -1.
        -13    1    5    5    0    0  0.17488861302E+02 -0.25978955898E+02  0.69169143409E+02  0.75928498070E+02  0.00000000000E+00 0.  1.
          1    1    6    6  503    0  0.38757486502E+03 -0.72967182680E+01  0.45525498434E+02  0.39030768516E+03  0.00000000000E+00 0. -1.
         -1    1    6    6    0  503  0.34422634408E+02  0.66266088541E+01  0.36873493872E+02  0.50877148651E+02  0.00000000000E+00 0.  1.
<mgrwt>
<rscale>  0 0.27787358E+04</rscale>
<asrwt>0</asrwt>
<pdfrwt beam="1">  1        2 0.31040352E+00 0.27787358E+04</pdfrwt>
<pdfrwt beam="2">  1       -2 0.14719097E+00 0.27787358E+04</pdfrwt>
<totfact> 0.17935613E+00</totfact>
</mgrwt>
</event>
<event>
12    3  0.4806716E-008  0.1576159E+04  0.7818608E-02  0.8835330E-01
          1   -1    0    0  501    0  0.00000000000E+00  0.00000000000E+00  0.16948740728E+04  0.16948740728E+04  0.00000000000E+00 0. -1.
         -1   -1    0    0    0  501 -0.00000000000E+00 -0.00000000000E+00 -0.36643955789E+03  0.36643955789E+03  0.00000000000E+00 0.  1.
         23    2    1    2    0    0  0.24727868273E+01  0.42783866522E+03  0.53236474176E+02  0.44033388073E+03  0.89486122970E+02 0.  0.
        254    2    1    2    0    0 -0.24727868273E+01 -0.42783866522E+03  0.12751980408E+04  0.16209797500E+04  0.90465090976E+03 0.  0.
         23    2    4    4    0    0 -0.31679445827E+03 -0.54646763445E+03  0.95316273488E+03  0.11468848837E+04  0.88544525052E+02 0.  0.
         23    2    4    4    0    0  0.31432167145E+03  0.11862896923E+03  0.32203530588E+03  0.47409486632E+03  0.90488996842E+02 0.  0.
          1    1    3    3  502    0  0.57755229056E+00  0.25872562001E+03 -0.12147557241E+02  0.25901127999E+03  0.00000000000E+00 0.  1.
         -1    1    3    3    0  502  0.18952345368E+01  0.16911304521E+03  0.65384031417E+02  0.18132260074E+03  0.00000000000E+00 0. -1.
         13    1    5    5    0    0 -0.20878336764E+03 -0.32313892877E+03  0.64809749755E+03  0.75368403740E+03  0.00000000000E+00 0. -1.
        -13    1    5    5    0    0 -0.10801109063E+03 -0.22332870568E+03  0.30506523733E+03  0.39320084627E+03  0.00000000000E+00 0.  1.
          2    1    6    6  503    0  0.28294561035E+03  0.87133206868E+02  0.24133585923E+03  0.38195996008E+03  0.00000000000E+00 0. -1.
         -2    1    6    6    0  503  0.31376061099E+02  0.31495762360E+02  0.80699446653E+02  0.92134906234E+02  0.00000000000E+00 0.  1.
<mgrwt>
<rscale>  0 0.15761585E+04</rscale>
<asrwt>0</asrwt>
<pdfrwt beam="1">  1        1 0.26074985E+00 0.15761585E+04</pdfrwt>
<pdfrwt beam="2">  1       -1 0.56375317E-01 0.15761585E+04</pdfrwt>
<totfact> 0.14708061E+01</totfact>
</mgrwt>
</event>
<event>
12    3  0.4806716E-008  0.2263528E+04  0.7818608E-02  0.8492442E-01
         -1   -1    0    0    0  501 -0.00000000000E+00  0.00000000000E+00  0.85375604408E+03  0.85375604408E+03  0.00000000000E+00 0.  1.
          1   -1    0    0  501    0  0.00000000000E+00 -0.00000000000E+00 -0.15002995893E+04  0.15002995893E+04  0.00000000000E+00 0. -1.
         23    2    1    2    0    0 -0.56415398291E+03  0.66973801626E+03  0.11157081709E+03  0.88643958934E+03  0.80674478317E+02 0.  0.
        254    2    1    2    0    0  0.56415398291E+03 -0.66973801626E+03 -0.75811436235E+03  0.14676160441E+04  0.90129947274E+03 0.  0.
         23    2    4    4    0    0  0.55622545045E+03 -0.83605946614E+03 -0.78299128289E+03  0.12764502458E+04  0.88700047091E+02 0.  0.
         23    2    4    4    0    0  0.79285324582E+01  0.16632144988E+03  0.24876920548E+02  0.19116579823E+03  0.90552829445E+02 0.  0.
          4    1    3    3  502    0 -0.26625004390E+03  0.29909252965E+03  0.12059273417E+02  0.40061309670E+03  0.00000000000E+00 0. -1.
         -4    1    3    3    0  502 -0.29790393901E+03  0.37064548661E+03  0.99511543676E+02  0.48582649264E+03  0.00000000000E+00 0.  1.
         13    1    5    5    0    0  0.27864518016E+02 -0.15122725156E+02 -0.21290685044E+02  0.38189284493E+02  0.00000000000E+00 0. -1.
        -13    1    5    5    0    0  0.52836093244E+03 -0.82093674099E+03 -0.76170059785E+03  0.12382609613E+04  0.00000000000E+00 0.  1.
          1    1    6    6  503    0 -0.21651506888E+02  0.13356914188E+03 -0.88790236477E+01  0.13560361527E+03  0.00000000000E+00 0. -1.
         -1    1    6    6    0  503  0.29580039346E+02  0.32752308001E+02  0.33755944196E+02  0.55562182964E+02  0.00000000000E+00 0.  1.
<mgrwt>
<rscale>  0 0.22635281E+04</rscale>
<asrwt>0</asrwt>
<pdfrwt beam="1">  1        1 0.23081532E+00 0.22635281E+04</pdfrwt>
<pdfrwt beam="2">  1       -1 0.13134709E+00 0.22635281E+04</pdfrwt>
<totfact> 0.29291913E+00</totfact>
</mgrwt>
</event>
<event>
12    3  0.4806716E-008  0.1945191E+04  0.7818608E-02  0.8632683E-01
          2   -1    0    0  501    0  0.00000000000E+00  0.00000000000E+00  0.12017158361E+04  0.12017158361E+04  0.00000000000E+00 0. -1.
         -2   -1    0    0    0  501 -0.00000000000E+00 -0.00000000000E+00 -0.78715981799E+03  0.78715981799E+03  0.00000000000E+00 0.  1.
         23    2    1    2    0    0  0.10885552177E+03 -0.90178279994E+02 -0.58490162749E+03  0.60835150425E+03  0.89442674822E+02 0.  0.
        254    2    1    2    0    0 -0.10885552177E+03  0.90178279994E+02  0.99945764564E+03  0.13805241499E+04  0.94178006786E+03 0.  0.
         23    2    4    4    0    0 -0.24609598778E+03 -0.27393096650E+03  0.95237726254E+02  0.39280808758E+03  0.98115032250E+02 0.  0.
         23    2    4    4    0    0  0.13724046601E+03  0.36410924649E+03  0.90421991938E+03  0.98771606232E+03  0.80986840059E+02 0.  0.
          2    1    3    3  502    0  0.76348078175E+02 -0.91397367323E+01 -0.33244560332E+03  0.34122227799E+03  0.00000000000E+00 0. -1.
         -2    1    3    3    0  502  0.32507443597E+02 -0.81038543262E+02 -0.25245602416E+03  0.26712922625E+03  0.00000000000E+00 0.  1.
         13    1    5    5    0    0 -0.17869742191E+03 -0.24375878770E+03  0.10116975217E+03  0.31872626803E+03  0.00000000000E+00 0.  1.
        -13    1    5    5    0    0 -0.67398565876E+02 -0.30172178794E+02 -0.59320259199E+01  0.74081819543E+02  0.00000000000E+00 0. -1.
          3    1    6    6  503    0  0.30636096231E+02  0.58877780049E+02  0.91410960422E+02  0.11296515862E+03  0.00000000000E+00 0. -1.
         -3    1    6    6    0  503  0.10660436978E+03  0.30523146644E+03  0.81280895896E+03  0.87475090371E+03  0.00000000000E+00 0.  1.
<mgrwt>
<rscale>  0 0.19451914E+04</rscale>
<asrwt>0</asrwt>
<pdfrwt beam="1">  1        2 0.18487936E+00 0.19451914E+04</pdfrwt>
<pdfrwt beam="2">  1       -2 0.12110151E+00 0.19451914E+04</pdfrwt>
<totfact> 0.91541147E+00</totfact>
</mgrwt>
</event>
<event>
12    3  0.4806716E-008  0.1533208E+04  0.7818608E-02  0.8862665E-01
         -2   -1    0    0    0  501 -0.00000000000E+00  0.00000000000E+00  0.19001507377E+03  0.19001507377E+03  0.00000000000E+00 0.  1.
          2   -1    0    0  501    0  0.00000000000E+00 -0.00000000000E+00 -0.30928172703E+04  0.30928172703E+04  0.00000000000E+00 0. -1.
         23    2    1    2    0    0  0.33450535714E+03  0.11598240063E+03 -0.21256190951E+03  0.42316323665E+03  0.92405672236E+02 0.  0.
        254    2    1    2    0    0 -0.33450535714E+03 -0.11598240063E+03 -0.26902402870E+04  0.28596691074E+04  0.90275625219E+03 0.  0.
         23    2    4    4    0    0 -0.14408337114E+03  0.75046244939E+01 -0.12022901275E+02  0.17026649099E+03  0.89609098698E+02 0.  0.
         23    2    4    4    0    0 -0.19042198600E+03 -0.12348702512E+03 -0.26782173858E+04  0.26894026165E+04  0.92349823403E+02 0.  0.
          3    1    3    3  502    0  0.28035864762E+03  0.11395463033E+03 -0.14225595367E+03  0.33440003802E+03  0.00000000000E+00 0. -1.
         -3    1    3    3    0  502  0.54146709522E+02  0.20277702983E+01 -0.70305955844E+02  0.88763198633E+02  0.00000000000E+00 0.  1.
         13    1    5    5    0    0 -0.64368355806E+02 -0.13643379962E+02 -0.46817458712E+02  0.80754575637E+02  0.00000000000E+00 0. -1.
        -13    1    5    5    0    0 -0.79715015338E+02  0.21148004455E+02  0.34794557437E+02  0.89511915352E+02  0.00000000000E+00 0.  1.
          3    1    6    6  503    0 -0.81391838672E+02 -0.32195140486E+02 -0.60308636149E+03  0.60940488830E+03  0.00000000000E+00 0. -1.
         -3    1    6    6    0  503 -0.10903014733E+03 -0.91291884639E+02 -0.20751310243E+04  0.20799977281E+04  0.00000000000E+00 0.  1.
<mgrwt>
<rscale>  0 0.15332083E+04</rscale>
<asrwt>0</asrwt>
<pdfrwt beam="1">  1        2 0.47581804E+00 0.15332083E+04</pdfrwt>
<pdfrwt beam="2">  1       -2 0.29233089E-01 0.15332083E+04</pdfrwt>
<totfact> 0.15898739E+01</totfact>
</mgrwt>
</event>
<event>
12    3  0.4806716E-008  0.1878158E+04  0.7818608E-02  0.8665805E-01
          1   -1    0    0  501    0  0.00000000000E+00  0.00000000000E+00  0.23929976702E+04  0.23929976702E+04  0.00000000000E+00 0. -1.
         -1   -1    0    0    0  501 -0.00000000000E+00 -0.00000000000E+00 -0.36852095866E+03  0.36852095866E+03  0.00000000000E+00 0.  1.
         23    2    1    2    0    0 -0.38407938130E+01 -0.41934672533E+03  0.16498540530E+04  0.17047024614E+04  0.90142430923E+02 0.  0.
        254    2    1    2    0    0  0.38407938130E+01  0.41934672533E+03  0.37462265848E+03  0.10568161674E+04  0.89479151078E+03 0.  0.
         23    2    4    4    0    0 -0.14313898263E+03  0.63832653082E+03  0.40677409388E+03  0.77607007020E+03  0.94181007168E+02 0.  0.
         23    2    4    4    0    0  0.14697977645E+03 -0.21897980549E+03 -0.32151435405E+02  0.28074609724E+03  0.90716296329E+02 0.  0.
          3    1    3    3  502    0  0.11683306035E+02 -0.40620867421E+03  0.15256543953E+04  0.15788487326E+04  0.00000000000E+00 0. -1.
         -3    1    3    3    0  502 -0.15524099848E+02 -0.13138051126E+02  0.12419965777E+03  0.12585372880E+03  0.00000000000E+00 0.  1.
         13    1    5    5    0    0 -0.14467195749E+03  0.53651766047E+03  0.31366386097E+03  0.63809575532E+03  0.00000000000E+00 0. -1.
        -13    1    5    5    0    0  0.15329748553E+01  0.10180887035E+03  0.93110232911E+02  0.13797431488E+03  0.00000000000E+00 0.  1.
          1    1    6    6  503    0  0.15781933773E+03 -0.18862840795E+03 -0.21850630808E+02  0.24691105628E+03  0.00000000000E+00 0. -1.
         -1    1    6    6    0  503 -0.10839561282E+02 -0.30351397533E+02 -0.10300804597E+02  0.33835040954E+02  0.00000000000E+00 0.  1.
<mgrwt>
<rscale>  0 0.18781585E+04</rscale>
<asrwt>0</asrwt>
<pdfrwt beam="1">  1        1 0.36815348E+00 0.18781585E+04</pdfrwt>
<pdfrwt beam="2">  1       -1 0.56695534E-01 0.18781585E+04</pdfrwt>
<totfact> 0.47445918E+00</totfact>
</mgrwt>
</event>
<event>
12    3  0.4806716E-008  0.1254531E+04  0.7818608E-02  0.9066420E-01
         -1   -1    0    0    0  501 -0.00000000000E+00  0.00000000000E+00  0.36344363419E+03  0.36344363419E+03  0.00000000000E+00 0.  1.
          1   -1    0    0  501    0  0.00000000000E+00 -0.00000000000E+00 -0.10825947091E+04  0.10825947091E+04  0.00000000000E+00 0. -1.
         23    2    1    2    0    0 -0.40420347834E+02 -0.16451019891E+03  0.86919999527E+02  0.21520002789E+03  0.10029235077E+03 0.  0.
        254    2    1    2    0    0  0.40420347834E+02  0.16451019891E+03 -0.80607107439E+03  0.12308383153E+04  0.91461192398E+03 0.  0.
         23    2    4    4    0    0  0.20029907699E+02 -0.18617014371E+03 -0.84059817559E+03  0.86620243374E+03  0.92956139147E+02 0.  0.
         23    2    4    4    0    0  0.20390440136E+02  0.35068034262E+03  0.34527101201E+02  0.36463588160E+03  0.91513565582E+02 0.  0.
          3    1    3    3  502    0 -0.71826668808E+02 -0.84467827232E+02  0.49652733077E+02  0.12148776931E+03  0.00000000000E+00 0. -1.
         -3    1    3    3    0  502  0.31406320973E+02 -0.80042371677E+02  0.37267266450E+02  0.93712258587E+02  0.00000000000E+00 0.  1.
         13    1    5    5    0    0  0.11622335228E+02  0.65717133771E+01 -0.10003732895E+03  0.10092439386E+03  0.00000000000E+00 0. -1.
        -13    1    5    5    0    0  0.84075724707E+01 -0.19274185709E+03 -0.74056084664E+03  0.76527803988E+03  0.00000000000E+00 0.  1.
          1    1    6    6  503    0 -0.15868546449E+02  0.23573988754E+03 -0.91272376251E+01  0.23644959676E+03  0.00000000000E+00 0.  1.
         -1    1    6    6    0  503  0.36258986584E+02  0.11494045508E+03  0.43654338826E+02  0.12818628484E+03  0.00000000000E+00 0. -1.
<mgrwt>
<rscale>  0 0.12545312E+04</rscale>
<asrwt>0</asrwt>
<pdfrwt beam="1">  1        1 0.16655303E+00 0.12545312E+04</pdfrwt>
<pdfrwt beam="2">  1       -1 0.55914405E-01 0.12545312E+04</pdfrwt>
<totfact> 0.41681068E+01</totfact>
</mgrwt>
</event>
<event>
12    3  0.4806716E-008  0.1507848E+04  0.7818608E-02  0.8879251E-01
          2   -1    0    0  501    0  0.00000000000E+00  0.00000000000E+00  0.16504799853E+04  0.16504799853E+04  0.00000000000E+00 0. -1.
         -2   -1    0    0    0  501 -0.00000000000E+00 -0.00000000000E+00 -0.34438535843E+03  0.34438535843E+03  0.00000000000E+00 0.  1.
         23    2    1    2    0    0 -0.12403616396E+03 -0.18807901069E+03 -0.13143180143E+03  0.28505670207E+03  0.11499704664E+03 0.  0.
        254    2    1    2    0    0  0.12403616396E+03  0.18807901069E+03  0.14375264283E+04  0.17098086417E+04  0.89788901031E+03 0.  0.
         23    2    4    4    0    0  0.24191917135E+03 -0.23906272060E+03  0.23094246201E+03  0.42122799381E+03  0.91775444246E+02 0.  0.
         23    2    4    4    0    0 -0.11788300739E+03  0.42714173129E+03  0.12065839663E+04  0.12885806479E+04  0.90822663900E+02 0.  0.
          2    1    3    3  502    0  0.15598050181E+01 -0.45163612242E+01  0.17000105512E+02  0.17658824927E+02  0.00000000000E+00 0. -1.
         -2    1    3    3    0  502 -0.12559596898E+03 -0.18356264946E+03 -0.14843190694E+03  0.26739787714E+03  0.00000000000E+00 0.  1.
         13    1    5    5    0    0  0.87440729543E+01  0.48651470055E+01  0.22416915164E+02  0.24548860517E+02  0.00000000000E+00 0.  1.
        -13    1    5    5    0    0  0.23317509839E+03 -0.24392786760E+03  0.20852554685E+03  0.39667913330E+03  0.00000000000E+00 0. -1.
          4    1    6    6  503    0 -0.40343980229E+02  0.29199218504E+03  0.84168146921E+03  0.89180422094E+03  0.00000000000E+00 0. -1.
         -4    1    6    6    0  503 -0.77539027161E+02  0.13514954624E+03  0.36490249708E+03  0.39677642692E+03  0.00000000000E+00 0.  1.
<mgrwt>
<rscale>  0 0.15078477E+04</rscale>
<asrwt>0</asrwt>
<pdfrwt beam="1">  1        2 0.25391999E+00 0.15078477E+04</pdfrwt>
<pdfrwt beam="2">  1       -2 0.52982364E-01 0.15078477E+04</pdfrwt>
<totfact> 0.33896657E+01</totfact>
</mgrwt>
</event>
<event>
12    3  0.4806716E-008  0.1794576E+04  0.7818608E-02  0.8709189E-01
         -2   -1    0    0    0  501 -0.00000000000E+00  0.00000000000E+00  0.15950952517E+04  0.15950952517E+04  0.00000000000E+00 0.  1.
          2   -1    0    0  501    0  0.00000000000E+00 -0.00000000000E+00 -0.50475082610E+03  0.50475082610E+03  0.00000000000E+00 0. -1.
         23    2    1    2    0    0  0.46605793860E+03 -0.23538301928E+02  0.96420512536E+03  0.10751208803E+04  0.91811381339E+02 0.  0.
        254    2    1    2    0    0 -0.46605793860E+03  0.23538301928E+02  0.12613930022E+03  0.10247251974E+04  0.90354111884E+03 0.  0.
         23    2    4    4    0    0 -0.57308017781E+02 -0.14754404235E+03 -0.33239173713E+03  0.38056301397E+03  0.96387174187E+02 0.  0.
         23    2    4    4    0    0 -0.40874992082E+03  0.17108234428E+03  0.45853103735E+03  0.64416218348E+03  0.91370345947E+02 0.  0.
          2    1    3    3  502    0  0.31399016932E+02 -0.32775518054E+01  0.13543759661E+03  0.13906826808E+03  0.00000000000E+00 0. -1.
         -2    1    3    3    0  502  0.43465892167E+03 -0.20260750123E+02  0.82876752875E+03  0.93605261224E+03  0.00000000000E+00 0.  1.
         13    1    5    5    0    0 -0.62339091417E+02 -0.15912333329E+03 -0.29300685772E+03  0.33920409223E+03  0.00000000000E+00 0. -1.
        -13    1    5    5    0    0  0.50310736359E+01  0.11579290937E+02 -0.39384879411E+02  0.41358921731E+02  0.00000000000E+00 0.  1.
          2    1    6    6  503    0 -0.39203011433E+03  0.18141277187E+03  0.42991171272E+03  0.60944424279E+03  0.00000000000E+00 0. -1.
         -2    1    6    6    0  503 -0.16719806496E+02 -0.10330427594E+02  0.28619324629E+02  0.34717940690E+02  0.00000000000E+00 0.  1.
<mgrwt>
<rscale>  0 0.17945759E+04</rscale>
<asrwt>0</asrwt>
<pdfrwt beam="1">  1        2 0.77653974E-01 0.17945759E+04</pdfrwt>
<pdfrwt beam="2">  1       -2 0.24539927E+00 0.17945759E+04</pdfrwt>
<totfact> 0.39451362E+00</totfact>
</mgrwt>
</event>
<event>
12    3  0.4806716E-008  0.2265268E+04  0.7818608E-02  0.8491743E-01
          2   -1    0    0  501    0  0.00000000000E+00  0.00000000000E+00  0.15290975184E+04  0.15290975184E+04  0.00000000000E+00 0.  1.
         -2   -1    0    0    0  501 -0.00000000000E+00 -0.00000000000E+00 -0.83896565427E+03  0.83896565427E+03  0.00000000000E+00 0. -1.
         23    2    1    2    0    0 -0.44657764085E+03 -0.22607387148E+03  0.11340887320E+04  0.12431102473E+04  0.92870072311E+02 0.  0.
        254    2    1    2    0    0  0.44657764085E+03  0.22607387148E+03 -0.44395686784E+03  0.11249529253E+04  0.90436740270E+03 0.  0.
         23    2    4    4    0    0 -0.22265824113E+03  0.20886964518E+03 -0.19157039037E+01  0.31754791329E+03  0.87348647892E+02 0.  0.
         23    2    4    4    0    0  0.66923588199E+03  0.17204226303E+02 -0.44204116394E+03  0.80740501206E+03  0.91267802338E+02 0.  0.
          1    1    3    3  502    0 -0.12967719688E+03 -0.10151992333E+03  0.44473751304E+03  0.47425091009E+03  0.00000000000E+00 0. -1.
         -1    1    3    3    0  502 -0.31690044398E+03 -0.12455394815E+03  0.68935121892E+03  0.76885933722E+03  0.00000000000E+00 0.  1.
         13    1    5    5    0    0 -0.14838139352E+02  0.59423467425E+02 -0.59897103891E+01  0.61540194108E+02  0.00000000000E+00 0. -1.
        -13    1    5    5    0    0 -0.20782010178E+03  0.14944617775E+03  0.40740064855E+01  0.25600771918E+03  0.00000000000E+00 0.  1.
          4    1    6    6  503    0  0.34594788907E+03  0.40768202242E+01 -0.28248555762E+03  0.44664824267E+03  0.00000000000E+00 0.  1.
         -4    1    6    6    0  503  0.32328799292E+03  0.13127406079E+02 -0.15955560632E+03  0.36075676939E+03  0.00000000000E+00 0. -1.
<mgrwt>
<rscale>  0 0.22652685E+04</rscale>
<asrwt>0</asrwt>
<pdfrwt beam="1">  1        2 0.23524577E+00 0.22652685E+04</pdfrwt>
<pdfrwt beam="2">  1       -2 0.12907164E+00 0.22652685E+04</pdfrwt>
<totfact> 0.49155367E+00</totfact>
</mgrwt>
</event>
<event>
12    3  0.4806716E-008  0.1691768E+04  0.7818608E-02  0.8766073E-01
         -2   -1    0    0    0  501 -0.00000000000E+00  0.00000000000E+00  0.30368234466E+03  0.30368234466E+03  0.00000000000E+00 0.  1.
          2   -1    0    0  501    0  0.00000000000E+00 -0.00000000000E+00 -0.23561449639E+04  0.23561449639E+04  0.00000000000E+00 0. -1.
         23    2    1    2    0    0  0.21734584622E+03 -0.30424901452E+03 -0.14772078259E+04  0.15275476389E+04  0.10701471126E+03 0.  0.
        254    2    1    2    0    0 -0.21734584622E+03  0.30424901452E+03 -0.57525479325E+03  0.11322796696E+04  0.90073996986E+03 0.  0.
         23    2    4    4    0    0 -0.35937398130E+03 -0.68209020210E+02  0.55549293620E+02  0.38065639983E+03  0.89506658043E+02 0.  0.
         23    2    4    4    0    0  0.14202813508E+03  0.37245803473E+03 -0.63080408687E+03  0.75162326977E+03  0.90148570988E+02 0.  0.
          4    1    3    3  502    0  0.22556310144E+03 -0.28540364208E+03 -0.14377223770E+04  0.14830305408E+04  0.00000000000E+00 0. -1.
         -4    1    3    3    0  502 -0.82172552213E+01 -0.18845372434E+02 -0.39485448932E+02  0.44517098096E+02  0.00000000000E+00 0.  1.
         13    1    5    5    0    0 -0.33242200740E+03 -0.73380002388E+02  0.72960718855E+02  0.34815554318E+03  0.00000000000E+00 0.  1.
        -13    1    5    5    0    0 -0.26951973904E+02  0.51709821778E+01 -0.17411425235E+02  0.32500856646E+02  0.00000000000E+00 0. -1.
          1    1    6    6  503    0  0.39541876403E+02  0.71272152348E+02 -0.20088077016E+03  0.21678644679E+03  0.00000000000E+00 0. -1.
         -1    1    6    6    0  503  0.10248625868E+03  0.30118588238E+03 -0.42992331671E+03  0.53483682298E+03  0.00000000000E+00 0.  1.
<mgrwt>
<rscale>  0 0.16917679E+04</rscale>
<asrwt>0</asrwt>
<pdfrwt beam="1">  1        2 0.36248384E+00 0.16917679E+04</pdfrwt>
<pdfrwt beam="2">  1       -2 0.46720361E-01 0.16917679E+04</pdfrwt>
<totfact> 0.17435809E+01</totfact>
</mgrwt>
</event>
<event>
12    3  0.5327081E-008  0.2744947E+04  0.7818608E-02  0.8320567E-01
         -1   -1    0    0    0  501 -0.00000000000E+00  0.00000000000E+00  0.17401137713E+04  0.17401137713E+04  0.00000000000E+00 0. -1.
          1   -1    0    0  501    0  0.00000000000E+00 -0.00000000000E+00 -0.10825060184E+04  0.10825060184E+04  0.00000000000E+00 0.  1.
         23    2    1    2    0    0  0.10797790611E+04 -0.24380681074E+02 -0.29577464528E+03  0.11236864887E+04  0.93120597465E+02 0.  0.
        254    2    1    2    0    0 -0.10797790611E+04  0.24380681074E+02  0.95338239810E+03  0.16989333010E+04  0.90051048055E+03 0.  0.
         23    2    4    4    0    0 -0.49076301770E+02 -0.26224373010E+03  0.33058433485E+02  0.28470508650E+03  0.93722296625E+02 0.  0.
         23    2    4    4    0    0 -0.10307027594E+04  0.28662441117E+03  0.92032396462E+03  0.14142282145E+04  0.92431117306E+02 0.  0.
          3    1    3    3  502    0  0.89510155868E+03  0.87833779817E+01 -0.22357195658E+03  0.92264205836E+03  0.00000000000E+00 0. -1.
         -3    1    3    3    0  502  0.18467750247E+03 -0.33164059056E+02 -0.72202688694E+02  0.20104443038E+03  0.00000000000E+00 0.  1.
         13    1    5    5    0    0 -0.23362356349E+02 -0.25248504297E+03  0.20266013010E+02  0.25437218382E+03  0.00000000000E+00 0. -1.
        -13    1    5    5    0    0 -0.25713945421E+02 -0.97586871284E+01  0.12792420476E+02  0.30332902683E+02  0.00000000000E+00 0.  1.
          3    1    6    6  503    0 -0.10078330098E+04  0.26615354917E+03  0.90210491712E+03  0.13785348632E+04  0.00000000000E+00 0. -1.
         -3    1    6    6    0  503 -0.22869749539E+02  0.20470861999E+02  0.18219047495E+02  0.35693351293E+02  0.00000000000E+00 0.  1.
<mgrwt>
<rscale>  0 0.27449471E+04</rscale>
<asrwt>0</asrwt>
<pdfrwt beam="1">  1        1 0.16653939E+00 0.27449471E+04</pdfrwt>
<pdfrwt beam="2">  1       -1 0.26770981E+00 0.27449471E+04</pdfrwt>
<totfact> 0.60785091E-01</totfact>
</mgrwt>
</event>
<event>
12    3  0.4806716E-008  0.1264662E+04  0.7818608E-02  0.9058068E-01
          2   -1    0    0  501    0  0.00000000000E+00  0.00000000000E+00  0.33523110728E+03  0.33523110728E+03  0.00000000000E+00 0. -1.
         -2   -1    0    0    0  501 -0.00000000000E+00 -0.00000000000E+00 -0.11927360096E+04  0.11927360096E+04  0.00000000000E+00 0.  1.
         23    2    1    2    0    0 -0.27935540024E+03 -0.32948828777E+01 -0.38963323433E+03  0.48789486982E+03  0.90427046887E+02 0.  0.
        254    2    1    2    0    0  0.27935540024E+03  0.32948828777E+01 -0.46787166796E+03  0.10400722470E+04  0.88588717423E+03 0.  0.
         23    2    4    4    0    0  0.76136581969E+02 -0.27455326596E+03  0.14400043126E+03  0.33211437741E+03  0.91583625800E+02 0.  0.
         23    2    4    4    0    0  0.20321881827E+03  0.27784814884E+03 -0.61187209922E+03  0.70795786961E+03  0.91210730867E+02 0.  0.
          3    1    3    3  502    0 -0.30123270829E+02  0.76542131475E+01 -0.82358942033E+01  0.32153201671E+02  0.00000000000E+00 0. -1.
         -3    1    3    3    0  502 -0.24923212941E+03 -0.10949096025E+02 -0.38139734013E+03  0.45574166815E+03  0.00000000000E+00 0.  1.
         13    1    5    5    0    0  0.72451086587E+01 -0.41292909412E+02  0.63166012397E+02  0.75812539129E+02  0.00000000000E+00 0.  1.
        -13    1    5    5    0    0  0.68891473310E+02 -0.23326035655E+03  0.80834418867E+02  0.25630183828E+03  0.00000000000E+00 0. -1.
          1    1    6    6  503    0  0.19275307658E+02  0.90914689089E+02 -0.18321550846E+03  0.20543841101E+03  0.00000000000E+00 0. -1.
         -1    1    6    6    0  503  0.18394351061E+03  0.18693345975E+03 -0.42865659077E+03  0.50251945861E+03  0.00000000000E+00 0.  1.
<mgrwt>
<rscale>  0 0.12646616E+04</rscale>
<asrwt>0</asrwt>
<pdfrwt beam="1">  1        2 0.51574018E-01 0.12646616E+04</pdfrwt>
<pdfrwt beam="2">  1       -2 0.18349784E+00 0.12646616E+04</pdfrwt>
<totfact> 0.16328642E+01</totfact>
</mgrwt>
</event>
<event>
12    3  0.4806716E-008  0.1687900E+04  0.7818608E-02  0.8768296E-01
          2   -1    0    0  501    0  0.00000000000E+00  0.00000000000E+00  0.30761712148E+04  0.30761712148E+04  0.00000000000E+00 0. -1.
         -2   -1    0    0    0  501 -0.00000000000E+00 -0.00000000000E+00 -0.23153833899E+03  0.23153833899E+03  0.00000000000E+00 0.  1.
         23    2    1    2    0    0 -0.54072283261E+03  0.39580754234E+02  0.15271917474E+04  0.16231747687E+04  0.91836149591E+02 0.  0.
        254    2    1    2    0    0  0.54072283261E+03 -0.39580754234E+02  0.13174411284E+04  0.16845347851E+04  0.89892074054E+03 0.  0.
         23    2    4    4    0    0 -0.34039753074E+02 -0.33593370368E+03  0.71639502919E+03  0.79705756264E+03  0.89826289347E+02 0.  0.
         23    2    4    4    0    0  0.57476258568E+03  0.29635294945E+03  0.60104609917E+03  0.88747722248E+03  0.90456102823E+02 0.  0.
          4    1    3    3  502    0 -0.22270894169E+03  0.35748088537E+02  0.51593577489E+03  0.56308695807E+03  0.00000000000E+00 0. -1.
         -4    1    3    3    0  502 -0.31801389092E+03  0.38326656968E+01  0.10112559725E+04  0.10600878106E+04  0.00000000000E+00 0.  1.
         13    1    5    5    0    0 -0.19047284473E+02 -0.19976081780E+03  0.32057463397E+03  0.37820005198E+03  0.00000000000E+00 0.  1.
        -13    1    5    5    0    0 -0.14992468601E+02 -0.13617288588E+03  0.39582039522E+03  0.41885751066E+03  0.00000000000E+00 0. -1.
          1    1    6    6  503    0  0.44069612596E+03  0.21291838816E+03  0.40175577947E+03  0.63321009293E+03  0.00000000000E+00 0. -1.
         -1    1    6    6    0  503  0.13406645972E+03  0.83434561292E+02  0.19929031970E+03  0.25426712954E+03  0.00000000000E+00 0.  1.
<mgrwt>
<rscale>  0 0.16879000E+04</rscale>
<asrwt>0</asrwt>
<pdfrwt beam="1">  1        2 0.47325708E+00 0.16879000E+04</pdfrwt>
<pdfrwt beam="2">  1       -2 0.35621285E-01 0.16879000E+04</pdfrwt>
<totfact> 0.11056177E+01</totfact>
</mgrwt>
</event>
<event>
12    3  0.4806716E-008  0.4215570E+04  0.7818608E-02  0.7962417E-01
         -2   -1    0    0    0  501 -0.00000000000E+00  0.00000000000E+00  0.12769567157E+04  0.12769567157E+04  0.00000000000E+00 0. -1.
          2   -1    0    0  501    0  0.00000000000E+00 -0.00000000000E+00 -0.34791760108E+04  0.34791760108E+04  0.00000000000E+00 0.  1.
         23    2    1    2    0    0  0.10610333755E+04 -0.90773987914E+03 -0.26759623255E+04  0.30198228918E+04  0.93661186797E+02 0.  0.
        254    2    1    2    0    0 -0.10610333755E+04  0.90773987914E+03  0.47374303049E+03  0.17363098347E+04  0.91681834141E+03 0.  0.
         23    2    4    4    0    0 -0.12163358075E+04  0.76268783903E+03  0.42013861368E+03  0.14986410582E+04  0.90791134342E+02 0.  0.
         23    2    4    4    0    0  0.15530243203E+03  0.14505204011E+03  0.53604416814E+02  0.23766877656E+03  0.91946039141E+02 0.  0.
          3    1    3    3  502    0  0.31015672390E+03 -0.21094163374E+03 -0.71044684408E+03  0.80338551424E+03  0.00000000000E+00 0. -1.
         -3    1    3    3    0  502  0.75087665160E+03 -0.69679824539E+03 -0.19655154815E+04  0.22164373775E+04  0.00000000000E+00 0.  1.
         13    1    5    5    0    0 -0.25380140307E+02  0.27790572246E+02  0.52482010735E+00  0.37639644843E+02  0.00000000000E+00 0.  1.
        -13    1    5    5    0    0 -0.11909556672E+04  0.73489726678E+03  0.41961379357E+03  0.14610014133E+04  0.00000000000E+00 0. -1.
          2    1    6    6  503    0  0.43736327207E+02 -0.44448972121E+01  0.14851305202E+01  0.43986691640E+02  0.00000000000E+00 0.  1.
         -2    1    6    6    0  503  0.11156610482E+03  0.14949693732E+03  0.52119286294E+02  0.19368208492E+03  0.00000000000E+00 0. -1.
<mgrwt>
<rscale>  0 0.42155698E+04</rscale>
<asrwt>0</asrwt>
<pdfrwt beam="1">  1        2 0.53525784E+00 0.42155698E+04</pdfrwt>
<pdfrwt beam="2">  1       -2 0.19645488E+00 0.42155698E+04</pdfrwt>
<totfact> 0.91320305E-02</totfact>
</mgrwt>
</event>
<event>
12    3  0.4806716E-008  0.2507788E+04  0.7818608E-02  0.8400216E-01
          2   -1    0    0  501    0  0.00000000000E+00  0.00000000000E+00  0.29774265387E+04  0.29774265387E+04  0.00000000000E+00 0. -1.
         -2   -1    0    0    0  501 -0.00000000000E+00 -0.00000000000E+00 -0.52805663191E+03  0.52805663191E+03  0.00000000000E+00 0.  1.
         23    2    1    2    0    0  0.51407982035E+03  0.76309002445E+03  0.18714894489E+04  0.20879471761E+04  0.10230447546E+03 0.  0.
        254    2    1    2    0    0 -0.51407982035E+03 -0.76309002445E+03  0.57788045788E+03  0.14175359945E+04  0.91042738590E+03 0.  0.
         23    2    4    4    0    0 -0.51146184312E+03 -0.94583978475E+03  0.41393480618E+03  0.11558885487E+04  0.92359070418E+02 0.  0.
         23    2    4    4    0    0 -0.26179772365E+01  0.18274976030E+03  0.16394565170E+03  0.26164744579E+03  0.90426105090E+02 0.  0.
          4    1    3    3  502    0  0.45565438705E+02  0.70157932779E+02  0.11241171543E+03  0.14012401116E+03  0.00000000000E+00 0.  1.
         -4    1    3    3    0  502  0.46851438165E+03  0.69293209167E+03  0.17590777335E+04  0.19478231650E+04  0.00000000000E+00 0. -1.
         13    1    5    5    0    0 -0.47580917204E+01 -0.33677675717E+02  0.25396674091E+02  0.42447807168E+02  0.00000000000E+00 0.  1.
        -13    1    5    5    0    0 -0.50670375140E+03 -0.91216210903E+03  0.38853813209E+03  0.11134407415E+04  0.00000000000E+00 0. -1.
          1    1    6    6  503    0 -0.22296800213E+02  0.14281477729E+03  0.16196236805E+03  0.21708297164E+03  0.00000000000E+00 0. -1.
         -1    1    6    6    0  503  0.19678822977E+02  0.39934983020E+02  0.19832836490E+01  0.44564474153E+02  0.00000000000E+00 0.  1.
<mgrwt>
<rscale>  0 0.25077877E+04</rscale>
<asrwt>0</asrwt>
<pdfrwt beam="1">  1        2 0.45806561E+00 0.25077877E+04</pdfrwt>
<pdfrwt beam="2">  1       -2 0.81239484E-01 0.25077877E+04</pdfrwt>
<totfact> 0.21408765E+00</totfact>
</mgrwt>
</event>
<event>
12    3  0.4806716E-008  0.2111076E+04  0.7818608E-02  0.8556380E-01
          2   -1    0    0  501    0  0.00000000000E+00  0.00000000000E+00  0.90300748415E+03  0.90300748415E+03  0.00000000000E+00 0. -1.
         -2   -1    0    0    0  501 -0.00000000000E+00 -0.00000000000E+00 -0.12338331695E+04  0.12338331695E+04  0.00000000000E+00 0.  1.
         23    2    1    2    0    0 -0.54232019831E+03 -0.16882536756E+03 -0.79313386850E+03  0.97983658741E+03  0.91679891175E+02 0.  0.
        254    2    1    2    0    0  0.54232019831E+03  0.16882536756E+03  0.46230818309E+03  0.11570040663E+04  0.89572113462E+03 0.  0.
         23    2    4    4    0    0 -0.21600542473E+03  0.10542251153E+03 -0.94055329107E+01  0.25713176017E+03  0.90862690849E+02 0.  0.
         23    2    4    4    0    0  0.75832562304E+03  0.63402856035E+02  0.47171371601E+03  0.89987230611E+03  0.90435970309E+02 0.  0.
          4    1    3    3  502    0 -0.29573914918E+03 -0.10385625514E+03 -0.51162954741E+03  0.60001046647E+03  0.00000000000E+00 0. -1.
         -4    1    3    3    0  502 -0.24658104914E+03 -0.64969112428E+02 -0.28150432109E+03  0.37982612095E+03  0.00000000000E+00 0.  1.
         13    1    5    5    0    0 -0.13740731071E+03  0.34462586688E+02  0.28796221293E+02  0.14456023408E+03  0.00000000000E+00 0.  1.
        -13    1    5    5    0    0 -0.78598114022E+02  0.70959924841E+02 -0.38201754204E+02  0.11257152609E+03  0.00000000000E+00 0. -1.
          3    1    6    6  503    0  0.10253082380E+03 -0.17338482945E+02  0.84783123709E+02  0.13416918754E+03  0.00000000000E+00 0. -1.
         -3    1    6    6    0  503  0.65579479925E+03  0.80741338980E+02  0.38693059230E+03  0.76570311857E+03  0.00000000000E+00 0.  1.
<mgrwt>
<rscale>  0 0.21110761E+04</rscale>
<asrwt>0</asrwt>
<pdfrwt beam="1">  1        2 0.13892423E+00 0.21110761E+04</pdfrwt>
<pdfrwt beam="2">  1       -2 0.18982049E+00 0.21110761E+04</pdfrwt>
<totfact> 0.41750435E+00</totfact>
</mgrwt>
</event>
<event>
12    3  0.4806716E-008  0.3435446E+04  0.7818608E-02  0.8129261E-01
          1   -1    0    0  501    0  0.00000000000E+00  0.00000000000E+00  0.29035581553E+04  0.29035581553E+04  0.00000000000E+00 0. -1.
         -1   -1    0    0    0  501 -0.00000000000E+00 -0.00000000000E+00 -0.10161920866E+04  0.10161920866E+04  0.00000000000E+00 0.  1.
         23    2    1    2    0    0 -0.47334193505E+03 -0.22349700168E+03 -0.84063117773E+03  0.99446887628E+03  0.91126679270E+02 0.  0.
        254    2    1    2    0    0  0.47334193505E+03  0.22349700168E+03  0.27279972465E+04  0.29252813656E+04  0.91722330640E+03 0.  0.
         23    2    4    4    0    0  0.39109388188E+03  0.56354450947E+03  0.18605805737E+04  0.19854613847E+04  0.98792714230E+02 0.  0.
         23    2    4    4    0    0  0.82248053174E+02 -0.34004750778E+03  0.86741667279E+03  0.93981998088E+03  0.91939449750E+02 0.  0.
          4    1    3    3  502    0 -0.20861397272E+02 -0.30454028506E+02 -0.37293691701E+02  0.52473471288E+02  0.00000000000E+00 0. -1.
         -4    1    3    3    0  502 -0.45248053778E+03 -0.19304297318E+03 -0.80333748603E+03  0.94199540499E+03  0.00000000000E+00 0.  1.
         13    1    5    5    0    0  0.17406970108E+03  0.19896691023E+03  0.60846085835E+03  0.66340990974E+03  0.00000000000E+00 0. -1.
        -13    1    5    5    0    0  0.21702418080E+03  0.36457759924E+03  0.12521197154E+04  0.13220514750E+04  0.00000000000E+00 0.  1.
          3    1    6    6  503    0  0.94724067195E+02 -0.33374683900E+03  0.84440645340E+03  0.91289750793E+03  0.00000000000E+00 0. -1.
         -3    1    6    6    0  503 -0.12476014021E+02 -0.63006687799E+01  0.23010219394E+02  0.26922472945E+02  0.00000000000E+00 0.  1.
<mgrwt>
<rscale>  0 0.34354463E+04</rscale>
<asrwt>0</asrwt>
<pdfrwt beam="1">  1        1 0.44670125E+00 0.34354463E+04</pdfrwt>
<pdfrwt beam="2">  1       -1 0.15633724E+00 0.34354463E+04</pdfrwt>
<totfact> 0.17942502E-01</totfact>
</mgrwt>
</event>
<event>
12    3  0.4806716E-008  0.1441096E+04  0.7818608E-02  0.8924597E-01
          1   -1    0    0  501    0  0.00000000000E+00  0.00000000000E+00  0.61831357613E+03  0.61831357613E+03  0.00000000000E+00 0. -1.
         -1   -1    0    0    0  501 -0.00000000000E+00 -0.00000000000E+00 -0.83968571642E+03  0.83968571642E+03  0.00000000000E+00 0.  1.
         23    2    1    2    0    0  0.12564664075E+03 -0.14442412868E+03  0.26974424033E+03  0.34310093765E+03  0.91164088032E+02 0.  0.
        254    2    1    2    0    0 -0.12564664075E+03  0.14442412868E+03 -0.49111638062E+03  0.11148983549E+04  0.98242436613E+03 0.  0.
         23    2    4    4    0    0  0.35764472661E+03  0.26220241245E+03 -0.75057667810E+02  0.45850406013E+03  0.89064381693E+02 0.  0.
         23    2    4    4    0    0 -0.48329136736E+03 -0.11777828377E+03 -0.41605871281E+03  0.65639429477E+03  0.10152018425E+03 0.  0.
          2    1    3    3  502    0  0.74508537344E+02 -0.19564964199E+02  0.93851489014E+02  0.12141833449E+03  0.00000000000E+00 0.  1.
         -2    1    3    3    0  502  0.51138103403E+02 -0.12485916449E+03  0.17589275132E+03  0.22168260316E+03  0.00000000000E+00 0. -1.
         13    1    5    5    0    0  0.26127787092E+03  0.17392748311E+03 -0.13811869901E+02  0.31417775695E+03  0.00000000000E+00 0.  1.
        -13    1    5    5    0    0  0.96366855693E+02  0.88274929349E+02 -0.61245797910E+02  0.14432630318E+03  0.00000000000E+00 0. -1.
          2    1    6    6  503    0 -0.21713941636E+03 -0.54614206138E+02 -0.12281985513E+03  0.25537610393E+03  0.00000000000E+00 0. -1.
         -2    1    6    6    0  503 -0.26615195100E+03 -0.63164077633E+02 -0.29323885768E+03  0.40101819083E+03  0.00000000000E+00 0.  1.
<mgrwt>
<rscale>  0 0.14410955E+04</rscale>
<asrwt>0</asrwt>
<pdfrwt beam="1">  1        1 0.95125165E-01 0.14410955E+04</pdfrwt>
<pdfrwt beam="2">  1       -1 0.12918242E+00 0.14410955E+04</pdfrwt>
<totfact> 0.16422772E+01</totfact>
</mgrwt>
</event>
<event>
12    3  0.4806716E-008  0.1942707E+04  0.7818608E-02  0.8633886E-01
         -2   -1    0    0    0  501 -0.00000000000E+00  0.00000000000E+00  0.90473499745E+03  0.90473499745E+03  0.00000000000E+00 0. -1.
          2   -1    0    0  501    0  0.00000000000E+00 -0.00000000000E+00 -0.10428770749E+04  0.10428770749E+04  0.00000000000E+00 0.  1.
         23    2    1    2    0    0  0.63629335000E+03 -0.34601469079E+03 -0.28973769827E+03  0.78609156876E+03  0.96936201604E+02 0.  0.
        254    2    1    2    0    0 -0.63629335000E+03  0.34601469079E+03  0.15159562083E+03  0.11615205036E+04  0.89529506560E+03 0.  0.
         23    2    4    4    0    0 -0.54411643651E+03 -0.16022911194E+02 -0.24981946714E+03  0.60601385258E+03  0.92323307973E+02 0.  0.
         23    2    4    4    0    0 -0.92176913488E+02  0.36203760198E+03  0.40141508797E+03  0.55550665100E+03  0.88801789516E+02 0.  0.
          1    1    3    3  502    0  0.58533432801E+03 -0.29656302386E+03 -0.23709048668E+03  0.69769463345E+03  0.00000000000E+00 0.  1.
         -1    1    3    3    0  502  0.50959021989E+02 -0.49451666930E+02 -0.52647211593E+02  0.88396935313E+02  0.00000000000E+00 0. -1.
         13    1    5    5    0    0 -0.32656643462E+01  0.12607845216E+01  0.63985936306E+01  0.72935685149E+01  0.00000000000E+00 0. -1.
        -13    1    5    5    0    0 -0.54085077216E+03 -0.17283695716E+02 -0.25621806077E+03  0.59872028407E+03  0.00000000000E+00 0.  1.
          4    1    6    6  503    0 -0.20215651395E+02  0.11756164198E+03  0.73153265314E+02  0.13993145627E+03  0.00000000000E+00 0. -1.
         -4    1    6    6    0  503 -0.71961262094E+02  0.24447596000E+03  0.32826182266E+03  0.41557519473E+03  0.00000000000E+00 0.  1.
<mgrwt>
<rscale>  0 0.19427068E+04</rscale>
<asrwt>0</asrwt>
<pdfrwt beam="1">  1        2 0.16044263E+00 0.19427068E+04</pdfrwt>
<pdfrwt beam="2">  1       -2 0.13919000E+00 0.19427068E+04</pdfrwt>
<totfact> 0.80491340E+00</totfact>
</mgrwt>
</event>
<event>
12    3  0.4806716E-008  0.1265711E+04  0.7818608E-02  0.9057207E-01
          2   -1    0    0  501    0  0.00000000000E+00  0.00000000000E+00  0.21725077912E+04  0.21725077912E+04  0.00000000000E+00 0. -1.
         -2   -1    0    0    0  501 -0.00000000000E+00 -0.00000000000E+00 -0.18435210475E+03  0.18435210475E+03  0.00000000000E+00 0.  1.
         23    2    1    2    0    0 -0.20337184093E+03 -0.21794743868E+03  0.59808318517E+03  0.67399107444E+03  0.87745543100E+02 0.  0.
        254    2    1    2    0    0  0.20337184093E+03  0.21794743868E+03  0.13900725013E+04  0.16828688215E+04  0.90049137692E+03 0.  0.
         23    2    4    4    0    0 -0.20774603904E+03  0.23400025737E+03  0.12559367994E+03  0.35013481110E+03  0.94372010230E+02 0.  0.
         23    2    4    4    0    0  0.41111787997E+03 -0.16052818690E+02  0.12644788213E+04  0.13327340104E+04  0.89429573884E+02 0.  0.
          4    1    3    3  502    0 -0.20725771313E+03 -0.20278153900E+03  0.58730637961E+03  0.65498465306E+03  0.00000000000E+00 0. -1.
         -4    1    3    3    0  502  0.38858721974E+01 -0.15165899679E+02  0.10776805564E+02  0.19006421388E+02  0.00000000000E+00 0.  1.
         13    1    5    5    0    0 -0.51326252730E+02  0.11206532048E+03  0.18207397040E+02  0.12459747020E+03  0.00000000000E+00 0.  1.
        -13    1    5    5    0    0 -0.15641978631E+03  0.12193493690E+03  0.10738628290E+03  0.22553734090E+03  0.00000000000E+00 0. -1.
          4    1    6    6  503    0  0.39199579380E+03 -0.33722463880E+02  0.12098816972E+04  0.12722466853E+04  0.00000000000E+00 0. -1.
         -4    1    6    6    0  503  0.19122086173E+02  0.17669645189E+02  0.54597124133E+02  0.60487325154E+02  0.00000000000E+00 0.  1.
<mgrwt>
<rscale>  0 0.12657115E+04</rscale>
<asrwt>0</asrwt>
<pdfrwt beam="1">  1        2 0.33423195E+00 0.12657115E+04</pdfrwt>
<pdfrwt beam="2">  1       -2 0.28361864E-01 0.12657115E+04</pdfrwt>
<totfact> 0.59971947E+01</totfact>
</mgrwt>
</event>
<event>
12    3  0.4806716E-008  0.1503701E+04  0.7818608E-02  0.8881996E-01
         -2   -1    0    0    0  501 -0.00000000000E+00  0.00000000000E+00  0.31163157564E+03  0.31163157564E+03  0.00000000000E+00 0.  1.
          2   -1    0    0  501    0  0.00000000000E+00 -0.00000000000E+00 -0.18139338828E+04  0.18139338828E+04  0.00000000000E+00 0. -1.
         23    2    1    2    0    0 -0.20928256445E+03 -0.39146768219E+03 -0.76814490099E+03  0.89183545129E+03  0.90982115136E+02 0.  0.
        254    2    1    2    0    0  0.20928256445E+03  0.39146768219E+03 -0.73415740620E+03  0.12337300072E+04  0.88659827180E+03 0.  0.
         23    2    4    4    0    0 -0.57194197309E+02 -0.83298399241E+02  0.14460024742E+03  0.19598013448E+03  0.85376706626E+02 0.  0.
         23    2    4    4    0    0  0.26647676175E+03  0.47476608143E+03 -0.87875765361E+03  0.10377498727E+04  0.91088352089E+02 0.  0.
          2    1    3    3  502    0 -0.16527871009E+03 -0.26099359190E+03 -0.59683917795E+03  0.67205037859E+03  0.00000000000E+00 0. -1.
         -2    1    3    3    0  502 -0.44003854353E+02 -0.13047409029E+03 -0.17130572304E+03  0.21978507270E+03  0.00000000000E+00 0.  1.
         13    1    5    5    0    0 -0.31722042877E+02 -0.81189092713E+02  0.55615739308E+02  0.10339761718E+03  0.00000000000E+00 0.  1.
        -13    1    5    5    0    0 -0.25472154432E+02 -0.21093065277E+01  0.88984508107E+02  0.92582517294E+02  0.00000000000E+00 0. -1.
          3    1    6    6  503    0  0.17519100196E+03  0.27708126811E+03 -0.60342266037E+03  0.68672033853E+03  0.00000000000E+00 0. -1.
         -3    1    6    6    0  503  0.91285759797E+02  0.19768481332E+03 -0.27533499324E+03  0.35102953418E+03  0.00000000000E+00 0.  1.
<mgrwt>
<rscale>  0 0.15037009E+04</rscale>
<asrwt>0</asrwt>
<pdfrwt beam="1">  1        2 0.27906675E+00 0.15037009E+04</pdfrwt>
<pdfrwt beam="2">  1       -2 0.47943319E-01 0.15037009E+04</pdfrwt>
<totfact> 0.33748616E+01</totfact>
</mgrwt>
</event>
<event>
12    3  0.4806716E-008  0.2412829E+04  0.7818608E-02  0.8434716E-01
          2   -1    0    0  501    0  0.00000000000E+00  0.00000000000E+00  0.37294651302E+04  0.37294651302E+04  0.00000000000E+00 0. -1.
         -2   -1    0    0    0  501 -0.00000000000E+00 -0.00000000000E+00 -0.39025312736E+03  0.39025312736E+03  0.00000000000E+00 0.  1.
         23    2    1    2    0    0 -0.68891574835E+03  0.66110752078E+03  0.21177572799E+04  0.23250117850E+04  0.95476914940E+02 0.  0.
        254    2    1    2    0    0  0.68891574835E+03 -0.66110752078E+03  0.12214547229E+04  0.17947064725E+04  0.90407500804E+03 0.  0.
         23    2    4    4    0    0  0.64599981857E+02 -0.44846671368E+03  0.98483629277E+03  0.10878483207E+04  0.90641570508E+02 0.  0.
         23    2    4    4    0    0  0.62431576649E+03 -0.21264080710E+03  0.23661843012E+03  0.70685815187E+03  0.93133647276E+02 0.  0.
          4    1    3    3  502    0 -0.60247407908E+03  0.61594992022E+03  0.18803522429E+04  0.20683553557E+04  0.00000000000E+00 0. -1.
         -4    1    3    3    0  502 -0.86441669273E+02  0.45157600557E+02  0.23740503704E+03  0.25665642927E+03  0.00000000000E+00 0.  1.
         13    1    5    5    0    0  0.44689082154E+02 -0.43430668627E+03  0.91417201472E+03  0.10130794067E+04  0.00000000000E+00 0. -1.
        -13    1    5    5    0    0  0.19910899703E+02 -0.14160027410E+02  0.70664278046E+02  0.74768913962E+02  0.00000000000E+00 0.  1.
          1    1    6    6  503    0  0.54849381565E+03 -0.15788167105E+03  0.22088946606E+03  0.61201653905E+03  0.00000000000E+00 0. -1.
         -1    1    6    6    0  503  0.75821950842E+02 -0.54759136056E+02  0.15728964064E+02  0.94841612817E+02  0.00000000000E+00 0.  1.
<mgrwt>
<rscale>  0 0.24128286E+04</rscale>
<asrwt>0</asrwt>
<pdfrwt beam="1">  1        2 0.57376384E+00 0.24128286E+04</pdfrwt>
<pdfrwt beam="2">  1       -2 0.60038945E-01 0.24128286E+04</pdfrwt>
<totfact> 0.12932673E+00</totfact>
</mgrwt>
</event>
<event>
12    3  0.4806716E-008  0.2018364E+04  0.7818608E-02  0.8598083E-01
          1   -1    0    0  501    0  0.00000000000E+00  0.00000000000E+00  0.12561289217E+04  0.12561289217E+04  0.00000000000E+00 0. -1.
         -1   -1    0    0    0  501 -0.00000000000E+00 -0.00000000000E+00 -0.81078344639E+03  0.81078344639E+03  0.00000000000E+00 0.  1.
         23    2    1    2    0    0  0.37100127941E+03 -0.89190380462E+02 -0.54872299767E+03  0.67444661040E+03  0.90467833083E+02 0.  0.
        254    2    1    2    0    0 -0.37100127941E+03  0.89190380462E+02  0.99406847299E+03  0.13924657577E+04  0.89732484872E+03 0.  0.
         23    2    4    4    0    0 -0.56701902778E+02 -0.29069515517E+03  0.37111608056E+02  0.31211125423E+03  0.91199695963E+02 0.  0.
         23    2    4    4    0    0 -0.31429937663E+03  0.37988553563E+03  0.95695686493E+03  0.10803545035E+04  0.91116922326E+02 0.  0.
          4    1    3    3  502    0  0.13865608048E+03 -0.73108858979E+02 -0.18413640945E+03  0.24181941858E+03  0.00000000000E+00 0. -1.
         -4    1    3    3    0  502  0.23234519892E+03 -0.16081521482E+02 -0.36458658821E+03  0.43262719182E+03  0.00000000000E+00 0.  1.
         13    1    5    5    0    0 -0.42921116381E+02 -0.18419028686E+03 -0.20514507656E+02  0.19023440548E+03  0.00000000000E+00 0.  1.
        -13    1    5    5    0    0 -0.13780786397E+02 -0.10650486832E+03  0.57626115713E+02  0.12187684875E+03  0.00000000000E+00 0. -1.
          2    1    6    6  503    0 -0.26072390555E+03  0.33554394395E+03  0.74984453979E+03  0.86187790730E+03  0.00000000000E+00 0. -1.
         -2    1    6    6    0  503 -0.53575471074E+02  0.44341591686E+02  0.20711232515E+03  0.21847659619E+03  0.00000000000E+00 0.  1.
<mgrwt>
<rscale>  0 0.20183642E+04</rscale>
<asrwt>0</asrwt>
<pdfrwt beam="1">  1        1 0.19325060E+00 0.20183642E+04</pdfrwt>
<pdfrwt beam="2">  1       -1 0.12473592E+00 0.20183642E+04</pdfrwt>
<totfact> 0.50687683E+00</totfact>
</mgrwt>
</event>
<event>
12    3  0.4806716E-008  0.1820094E+04  0.7818608E-02  0.8695686E-01
         -2   -1    0    0    0  501 -0.00000000000E+00  0.00000000000E+00  0.28753703917E+04  0.28753703917E+04  0.00000000000E+00 0.  1.
          2   -1    0    0  501    0  0.00000000000E+00 -0.00000000000E+00 -0.28802744380E+03  0.28802744380E+03  0.00000000000E+00 0. -1.
         23    2    1    2    0    0  0.38427583777E+03  0.53422845748E+03  0.70505033238E+03  0.96885618878E+03  0.92295065366E+02 0.  0.
        254    2    1    2    0    0 -0.38427583777E+03 -0.53422845748E+03  0.18822926156E+04  0.21945416468E+04  0.91647126766E+03 0.  0.
         23    2    4    4    0    0 -0.37442276077E+03  0.16468828083E+03  0.61346820793E+03  0.74302074637E+03  0.91771203367E+02 0.  0.
         23    2    4    4    0    0 -0.98530770015E+01 -0.69891673830E+03  0.12688244076E+04  0.14515209004E+04  0.91737978183E+02 0.  0.
          4    1    3    3  502    0  0.20776865318E+03  0.21892160457E+03  0.29024860208E+03  0.41873468115E+03  0.00000000000E+00 0. -1.
         -4    1    3    3    0  502  0.17650718459E+03  0.31530685290E+03  0.41480173030E+03  0.55012150763E+03  0.00000000000E+00 0.  1.
         13    1    5    5    0    0 -0.12642386703E+03  0.82703961656E+02  0.29243474122E+03  0.32915196688E+03  0.00000000000E+00 0.  1.
        -13    1    5    5    0    0 -0.24799889374E+03  0.81984319169E+02  0.32103346671E+03  0.41386877949E+03  0.00000000000E+00 0. -1.
          4    1    6    6  503    0 -0.23653849686E+02 -0.62930656961E+03  0.11828201594E+04  0.13400185792E+04  0.00000000000E+00 0. -1.
         -4    1    6    6    0  503  0.13800772685E+02 -0.69610168686E+02  0.86004248232E+02  0.11150232116E+03  0.00000000000E+00 0.  1.
<mgrwt>
<rscale>  0 0.18200940E+04</rscale>
<asrwt>0</asrwt>
<pdfrwt beam="1">  1        2 0.44311916E-01 0.18200940E+04</pdfrwt>
<pdfrwt beam="2">  1       -2 0.44236466E+00 0.18200940E+04</pdfrwt>
<totfact> 0.42381365E-01</totfact>
</mgrwt>
</event>
<event>
12    3  0.4806716E-008  0.1055382E+04  0.7818608E-02  0.9249805E-01
          2   -1    0    0  501    0  0.00000000000E+00  0.00000000000E+00  0.15636083876E+04  0.15636083876E+04  0.00000000000E+00 0. -1.
         -2   -1    0    0    0  501 -0.00000000000E+00 -0.00000000000E+00 -0.17808682452E+03  0.17808682452E+03  0.00000000000E+00 0.  1.
         23    2    1    2    0    0 -0.39991237016E+02  0.78158310407E+02  0.30605546442E+03  0.33118499093E+03  0.91134682726E+02 0.  0.
        254    2    1    2    0    0  0.39991237016E+02 -0.78158310407E+02  0.10794660987E+04  0.14105102212E+04  0.90365037785E+03 0.  0.
         23    2    4    4    0    0  0.12825294234E+03 -0.16750973621E+02 -0.12254890121E+03  0.20001179988E+03  0.90868446474E+02 0.  0.
         23    2    4    4    0    0 -0.88261705327E+02 -0.61407336786E+02  0.12020149999E+04  0.12104984213E+04  0.94368312628E+02 0.  0.
          4    1    3    3  502    0 -0.21359711878E+02  0.48431480034E+02  0.28582904323E+03  0.29068898759E+03  0.00000000000E+00 0. -1.
         -4    1    3    3    0  502 -0.18631525138E+02  0.29726830373E+02  0.20226421187E+02  0.40496003346E+02  0.00000000000E+00 0.  1.
         13    1    5    5    0    0  0.12800018646E+03  0.10659707963E+02 -0.11272257792E+03  0.17089194445E+03  0.00000000000E+00 0.  1.
        -13    1    5    5    0    0  0.25275588804E+00 -0.27410681584E+02 -0.98263232958E+01  0.29119855425E+02  0.00000000000E+00 0. -1.
          1    1    6    6  503    0 -0.36396167673E+02  0.20671966215E+02  0.24274811714E+03  0.24633038705E+03  0.00000000000E+00 0. -1.
         -1    1    6    6    0  503 -0.51865537654E+02 -0.82079303000E+02  0.95926688275E+03  0.96416803427E+03  0.00000000000E+00 0.  1.
<mgrwt>
<rscale>  0 0.10553825E+04</rscale>
<asrwt>0</asrwt>
<pdfrwt beam="1">  1        2 0.24055513E+00 0.10553825E+04</pdfrwt>
<pdfrwt beam="2">  1       -2 0.27397974E-01 0.10553825E+04</pdfrwt>
<totfact> 0.14109146E+02</totfact>
</mgrwt>
</event>
<event>
12    3  0.4806716E-008  0.4704076E+04  0.7818608E-02  0.7875852E-01
         -2   -1    0    0    0  501 -0.00000000000E+00  0.00000000000E+00  0.11188139938E+04  0.11188139938E+04  0.00000000000E+00 0.  1.
          2   -1    0    0  501    0  0.00000000000E+00 -0.00000000000E+00 -0.49445945706E+04  0.49445945706E+04  0.00000000000E+00 0. -1.
         23    2    1    2    0    0  0.74987528885E+03 -0.16776730089E+04 -0.14213553191E+03  0.18453027311E+04  0.89665970652E+02 0.  0.
        254    2    1    2    0    0 -0.74987528885E+03  0.16776730089E+04 -0.36836450448E+04  0.42181058332E+04  0.91993278581E+03 0.  0.
         23    2    4    4    0    0 -0.13520690526E+03  0.13152053424E+04 -0.25838209719E+04  0.29039376702E+04  0.93151370097E+02 0.  0.
         23    2    4    4    0    0 -0.61466838359E+03  0.36246766656E+03 -0.10998240730E+04  0.13141681631E+04  0.90691445452E+02 0.  0.
          2    1    3    3  502    0  0.55076272225E+03 -0.12223112598E+04 -0.63864260937E+02  0.13421859171E+04  0.00000000000E+00 0. -1.
         -2    1    3    3    0  502  0.19911256659E+03 -0.45536174911E+03 -0.78271270972E+02  0.50311681406E+03  0.00000000000E+00 0.  1.
         13    1    5    5    0    0 -0.34618726858E+02  0.78110876474E+03 -0.15115270891E+04  0.17017765716E+04  0.00000000000E+00 0.  1.
        -13    1    5    5    0    0 -0.10058817840E+03  0.53409657763E+03 -0.10722938828E+04  0.12021610986E+04  0.00000000000E+00 0. -1.
          2    1    6    6  503    0 -0.57449736719E+03  0.30903471244E+03 -0.99012196148E+03  0.11857028198E+04  0.00000000000E+00 0.  1.
         -2    1    6    6    0  503 -0.40171016399E+02  0.53432954125E+02 -0.10970211149E+03  0.12846534323E+03  0.00000000000E+00 0. -1.
<mgrwt>
<rscale>  0 0.47040755E+04</rscale>
<asrwt>0</asrwt>
<pdfrwt beam="1">  1        2 0.76070683E+00 0.47040755E+04</pdfrwt>
<pdfrwt beam="2">  1       -2 0.17212524E+00 0.47040755E+04</pdfrwt>
<totfact> 0.60810687E-03</totfact>
</mgrwt>
</event>
<event>
12    3  0.4806716E-008  0.1974844E+04  0.7818608E-02  0.8618473E-01
          1   -1    0    0  501    0  0.00000000000E+00  0.00000000000E+00  0.73093283001E+03  0.73093283001E+03  0.00000000000E+00 0. -1.
         -1   -1    0    0    0  501 -0.00000000000E+00 -0.00000000000E+00 -0.13339155068E+04  0.13339155068E+04  0.00000000000E+00 0.  1.
         23    2    1    2    0    0 -0.10802442562E+03 -0.27378941514E+02 -0.10485067975E+04  0.10583229822E+04  0.90896354302E+02 0.  0.
        254    2    1    2    0    0  0.10802442562E+03  0.27378941514E+02  0.44552412071E+03  0.10065253546E+04  0.89564650641E+03 0.  0.
         23    2    4    4    0    0  0.29879885770E+03 -0.33504377715E+03  0.11982696328E+03  0.47564454752E+03  0.10170616743E+03 0.  0.
         23    2    4    4    0    0 -0.19077443208E+03  0.36242271866E+03  0.32569715742E+03  0.53088080712E+03  0.89502413831E+02 0.  0.
          1    1    3    3  502    0 -0.42748977894E+02 -0.15827634475E+02 -0.13650641360E+03  0.14391660806E+03  0.00000000000E+00 0. -1.
         -1    1    3    3    0  502 -0.65275447722E+02 -0.11551307039E+02 -0.91200038394E+03  0.91440637415E+03  0.00000000000E+00 0.  1.
         13    1    5    5    0    0  0.18704744187E+03 -0.14265694771E+03  0.36451841402E+02  0.23804723687E+03  0.00000000000E+00 0. -1.
        -13    1    5    5    0    0  0.11175141583E+03 -0.19238682944E+03  0.83375121881E+02  0.23759731065E+03  0.00000000000E+00 0.  1.
          3    1    6    6  503    0 -0.15260181587E+03  0.33470688252E+03  0.26200736615E+03  0.45162359475E+03  0.00000000000E+00 0. -1.
         -3    1    6    6    0  503 -0.38172616218E+02  0.27715836136E+02  0.63689791271E+02  0.79257212377E+02  0.00000000000E+00 0.  1.
<mgrwt>
<rscale>  0 0.19748444E+04</rscale>
<asrwt>0</asrwt>
<pdfrwt beam="1">  1        1 0.11245121E+00 0.19748444E+04</pdfrwt>
<pdfrwt beam="2">  1       -1 0.20521777E+00 0.19748444E+04</pdfrwt>
<totfact> 0.32838684E+00</totfact>
</mgrwt>
</event>
<event>
12    3  0.4806716E-008  0.2805228E+04  0.7818608E-02  0.8301647E-01
         -1   -1    0    0    0  501 -0.00000000000E+00  0.00000000000E+00  0.14119909462E+04  0.14119909462E+04  0.00000000000E+00 0.  1.
          1   -1    0    0  501    0  0.00000000000E+00 -0.00000000000E+00 -0.13932989801E+04  0.13932989801E+04  0.00000000000E+00 0. -1.
         23    2    1    2    0    0 -0.54434647087E+03 -0.43934309088E+03 -0.10346125712E+04  0.12520155126E+04  0.88228336598E+02 0.  0.
        254    2    1    2    0    0  0.54434647087E+03  0.43934309088E+03  0.10533045373E+04  0.15532744137E+04  0.90215049973E+03 0.  0.
         23    2    4    4    0    0  0.72466111044E+03  0.35739712060E+03  0.49053198698E+03  0.94980708081E+03  0.92980824397E+02 0.  0.
         23    2    4    4    0    0 -0.18031463957E+03  0.81945970277E+02  0.56277255036E+03  0.60346733294E+03  0.90726882423E+02 0.  0.
          3    1    3    3  502    0 -0.29863457510E+03 -0.22244029133E+03 -0.47597808138E+03  0.60433221543E+03  0.00000000000E+00 0. -1.
         -3    1    3    3    0  502 -0.24571189577E+03 -0.21690279954E+03 -0.55863448987E+03  0.64768329718E+03  0.00000000000E+00 0.  1.
         13    1    5    5    0    0  0.51278965510E+03  0.24464686701E+03  0.39250992239E+03  0.69055728154E+03  0.00000000000E+00 0.  1.
        -13    1    5    5    0    0  0.21187145534E+03  0.11275025359E+03  0.98022064583E+02  0.25924979927E+03  0.00000000000E+00 0. -1.
          3    1    6    6  503    0 -0.66302131664E+01  0.33708361152E+02  0.13423479732E+03  0.13856115671E+03  0.00000000000E+00 0. -1.
         -3    1    6    6    0  503 -0.17368442641E+03  0.48237609124E+02  0.42853775304E+03  0.46490617623E+03  0.00000000000E+00 0.  1.
<mgrwt>
<rscale>  0 0.28052277E+04</rscale>
<asrwt>0</asrwt>
<pdfrwt beam="1">  1        1 0.21435369E+00 0.28052277E+04</pdfrwt>
<pdfrwt beam="2">  1       -1 0.21722938E+00 0.28052277E+04</pdfrwt>
<totfact> 0.77203947E-01</totfact>
</mgrwt>
</event>
<event>
12    3  0.4806716E-008  0.1515982E+04  0.7818608E-02  0.8873894E-01
          1   -1    0    0  501    0  0.00000000000E+00  0.00000000000E+00  0.21904200702E+04  0.21904200702E+04  0.00000000000E+00 0. -1.
         -1   -1    0    0    0  501 -0.00000000000E+00 -0.00000000000E+00 -0.26230153530E+03  0.26230153530E+03  0.00000000000E+00 0.  1.
         23    2    1    2    0    0  0.23371000419E+03 -0.28648208706E+03  0.11313334238E+04  0.11940470351E+04  0.95606767790E+02 0.  0.
        254    2    1    2    0    0 -0.23371000419E+03  0.28648208706E+03  0.79678511114E+03  0.12586745704E+04  0.90150030981E+03 0.  0.
         23    2    4    4    0    0 -0.97605158969E+02 -0.21569228348E+03  0.66824390283E+03  0.71506156367E+03  0.93344512221E+02 0.  0.
         23    2    4    4    0    0 -0.13610484522E+03  0.50217437054E+03  0.12854120831E+03  0.54361300673E+03  0.91041921843E+02 0.  0.
          1    1    3    3  502    0  0.21018389499E+03 -0.24800201449E+03  0.86801464196E+03  0.92689356862E+03  0.00000000000E+00 0. -1.
         -1    1    3    3    0  502  0.23526109199E+02 -0.38480072577E+02  0.26331878184E+03  0.26715346651E+03  0.00000000000E+00 0.  1.
         13    1    5    5    0    0 -0.64760157850E+02 -0.95103417716E+02  0.20318069510E+03  0.23349717978E+03  0.00000000000E+00 0. -1.
        -13    1    5    5    0    0 -0.32845001119E+02 -0.12058886576E+03  0.46506320773E+03  0.48156438389E+03  0.00000000000E+00 0.  1.
          3    1    6    6  503    0 -0.59683248024E+02  0.28235584638E+03  0.11445757860E+03  0.31046328507E+03  0.00000000000E+00 0. -1.
         -3    1    6    6    0  503 -0.76421597193E+02  0.21981852416E+03  0.14083629701E+02  0.23314972166E+03  0.00000000000E+00 0.  1.
<mgrwt>
<rscale>  0 0.15159823E+04</rscale>
<asrwt>0</asrwt>
<pdfrwt beam="1">  1        1 0.33698769E+00 0.15159823E+04</pdfrwt>
<pdfrwt beam="2">  1       -1 0.40354084E-01 0.15159823E+04</pdfrwt>
<totfact> 0.12819968E+01</totfact>
</mgrwt>
</event>
<event>
12    3  0.4806716E-008  0.1143170E+04  0.7818608E-02  0.9164108E-01
          1   -1    0    0  501    0  0.00000000000E+00  0.00000000000E+00  0.13176021039E+04  0.13176021039E+04  0.00000000000E+00 0.  1.
         -1   -1    0    0    0  501 -0.00000000000E+00 -0.00000000000E+00 -0.24795753473E+03  0.24795753473E+03  0.00000000000E+00 0. -1.
         23    2    1    2    0    0  0.83210614312E+02  0.13281546386E+01  0.44890962999E+03  0.46549120371E+03  0.90754804278E+02 0.  0.
        254    2    1    2    0    0 -0.83210614312E+02 -0.13281546386E+01  0.62073493922E+03  0.11000684350E+04  0.90438538605E+03 0.  0.
         23    2    4    4    0    0 -0.13533060005E+02 -0.35190471857E+03 -0.16519561159E+02  0.36400936161E+03  0.90608193754E+02 0.  0.
         23    2    4    4    0    0 -0.69677554307E+02  0.35057656393E+03  0.63725450038E+03  0.73605907335E+03  0.89054884513E+02 0.  0.
          1    1    3    3  502    0  0.26616576158E+02 -0.17725167619E+02  0.35453023554E+02  0.47744534479E+02  0.00000000000E+00 0. -1.
         -1    1    3    3    0  502  0.56594038154E+02  0.19053322257E+02  0.41345660644E+03  0.41774666923E+03  0.00000000000E+00 0.  1.
         13    1    5    5    0    0 -0.32554672293E+02 -0.30826645820E+03  0.87705680495E+01  0.31010472232E+03  0.00000000000E+00 0. -1.
        -13    1    5    5    0    0  0.19021612288E+02 -0.43638260369E+02 -0.25290129209E+02  0.53904639295E+02  0.00000000000E+00 0.  1.
          2    1    6    6  503    0 -0.76401720306E+02  0.34040653022E+03  0.57452175526E+03  0.67215256895E+03  0.00000000000E+00 0. -1.
         -2    1    6    6    0  503  0.67241659987E+01  0.10170033708E+02  0.62732745117E+02  0.63906504395E+02  0.00000000000E+00 0.  1.
<mgrwt>
<rscale>  0 0.11431699E+04</rscale>
<asrwt>0</asrwt>
<pdfrwt beam="1">  1        1 0.20270801E+00 0.11431699E+04</pdfrwt>
<pdfrwt beam="2">  1       -1 0.38147314E-01 0.11431699E+04</pdfrwt>
<totfact> 0.57960610E+01</totfact>
</mgrwt>
</event>
<event>
12    3  0.4806716E-008  0.3474857E+04  0.7818608E-02  0.8119774E-01
          2   -1    0    0  501    0  0.00000000000E+00  0.00000000000E+00  0.17819775771E+04  0.17819775771E+04  0.00000000000E+00 0. -1.
         -2   -1    0    0    0  501 -0.00000000000E+00 -0.00000000000E+00 -0.16939933844E+04  0.16939933844E+04  0.00000000000E+00 0.  1.
         23    2    1    2    0    0  0.10444537057E+04 -0.13061878483E+03 -0.11905643646E+04  0.15918886813E+04  0.93387670765E+02 0.  0.
        254    2    1    2    0    0 -0.10444537057E+04  0.13061878483E+03  0.12785485574E+04  0.18840822801E+04  0.89840682016E+03 0.  0.
         23    2    4    4    0    0  0.13879963472E+03  0.10452713806E+03  0.18275672951E+03  0.26857079238E+03  0.92406640189E+02 0.  0.
         23    2    4    4    0    0 -0.11832533404E+04  0.26091646771E+02  0.10957918279E+04  0.16155114878E+04  0.91369554326E+02 0.  0.
          1    1    3    3  502    0  0.87136889419E+01  0.76150991108E+01 -0.98339592427E+01  0.15186338065E+02  0.00000000000E+00 0. -1.
         -1    1    3    3    0  502  0.10357400168E+04 -0.13823388394E+03 -0.11807304054E+04  0.15767023432E+04  0.00000000000E+00 0.  1.
         13    1    5    5    0    0  0.90702113875E+02  0.11221479901E+02  0.76200629944E+02  0.11899298751E+03  0.00000000000E+00 0. -1.
        -13    1    5    5    0    0  0.48097520842E+02  0.93305658162E+02  0.10655609956E+03  0.14957780487E+03  0.00000000000E+00 0.  1.
          3    1    6    6  503    0 -0.11719071789E+04  0.18775724635E+02  0.10908138067E+04  0.16011226451E+04  0.00000000000E+00 0. -1.
         -3    1    6    6    0  503 -0.11346161534E+02  0.73159221360E+01  0.49780211157E+01  0.14388842639E+02  0.00000000000E+00 0.  1.
<mgrwt>
<rscale>  0 0.34748572E+04</rscale>
<asrwt>0</asrwt>
<pdfrwt beam="1">  1        2 0.27415040E+00 0.34748572E+04</pdfrwt>
<pdfrwt beam="2">  1       -2 0.26061437E+00 0.34748572E+04</pdfrwt>
<totfact> 0.40216301E-01</totfact>
</mgrwt>
</event>
<event>
12    3  0.4806716E-008  0.1602023E+04  0.7818608E-02  0.8819306E-01
         -1   -1    0    0    0  501 -0.00000000000E+00  0.00000000000E+00  0.99306507197E+03  0.99306507197E+03  0.00000000000E+00 0.  1.
          1   -1    0    0  501    0  0.00000000000E+00 -0.00000000000E+00 -0.64610010164E+03  0.64610010164E+03  0.00000000000E+00 0. -1.
         23    2    1    2    0    0 -0.24687050174E+03 -0.37559103780E+03 -0.20092800101E+03  0.50074158707E+03  0.91413364048E+02 0.  0.
        254    2    1    2    0    0  0.24687050174E+03  0.37559103780E+03  0.54789297135E+03  0.11384235865E+04  0.89095896764E+03 0.  0.
         23    2    4    4    0    0  0.11860629233E+03  0.16397172447E+03  0.76541577017E+03  0.79679435983E+03  0.89809641027E+02 0.  0.
         23    2    4    4    0    0  0.12826420941E+03  0.21161931334E+03 -0.21752279883E+03  0.34162922671E+03  0.90332271853E+02 0.  0.
          3    1    3    3  502    0 -0.20834909730E+03 -0.34257969688E+03 -0.14793871762E+03  0.42738280175E+03  0.00000000000E+00 0. -1.
         -3    1    3    3    0  502 -0.38521404442E+02 -0.33011340924E+02 -0.52989283397E+02  0.73358785327E+02  0.00000000000E+00 0.  1.
         13    1    5    5    0    0  0.44571290268E+01 -0.10924167861E+02  0.58247960888E+02  0.59430870684E+02  0.00000000000E+00 0.  1.
        -13    1    5    5    0    0  0.11414916330E+03  0.17489589233E+03  0.70716780928E+03  0.73736348914E+03  0.00000000000E+00 0. -1.
          3    1    6    6  503    0  0.65134875240E+02  0.97938135573E+02 -0.16210057654E+03  0.20027737587E+03  0.00000000000E+00 0. -1.
         -3    1    6    6    0  503  0.63129334171E+02  0.11368117776E+03 -0.55422222283E+02  0.14135185083E+03  0.00000000000E+00 0.  1.
<mgrwt>
<rscale>  0 0.16020230E+04</rscale>
<asrwt>0</asrwt>
<pdfrwt beam="1">  1        1 0.99400016E-01 0.16020230E+04</pdfrwt>
<pdfrwt beam="2">  1       -1 0.15277924E+00 0.16020230E+04</pdfrwt>
<totfact> 0.97870212E+00</totfact>
</mgrwt>
</event>
<event>
12    3  0.4806716E-008  0.1495463E+04  0.7818608E-02  0.8887475E-01
         -2   -1    0    0    0  501 -0.00000000000E+00  0.00000000000E+00  0.67240140529E+03  0.67240140529E+03  0.00000000000E+00 0.  1.
          2   -1    0    0  501    0  0.00000000000E+00 -0.00000000000E+00 -0.83150118491E+03  0.83150118491E+03  0.00000000000E+00 0. -1.
         23    2    1    2    0    0  0.95563530283E+02 -0.18164733030E+03  0.37501145002E+03  0.43666137414E+03  0.88946203377E+02 0.  0.
        254    2    1    2    0    0 -0.95563530283E+02  0.18164733030E+03 -0.53411122964E+03  0.10672412161E+04  0.90088893139E+03 0.  0.
         23    2    4    4    0    0 -0.21763184911E+02  0.19999004591E+03  0.21443451594E+03  0.30894758817E+03  0.94851441345E+02 0.  0.
         23    2    4    4    0    0 -0.73800345372E+02 -0.18342715614E+02 -0.74854574558E+03  0.75829362789E+03  0.94369204094E+02 0.  0.
          2    1    3    3  502    0  0.17396158943E+02 -0.55768000796E+02  0.41330819291E+02  0.71560693694E+02  0.00000000000E+00 0. -1.
         -2    1    3    3    0  502  0.78167371340E+02 -0.12587932950E+03  0.33368063073E+03  0.36510068045E+03  0.00000000000E+00 0.  1.
         13    1    5    5    0    0  0.18473933019E+01  0.19587273284E+03  0.17430365700E+03  0.26220470090E+03  0.00000000000E+00 0.  1.
        -13    1    5    5    0    0 -0.23610578213E+02  0.41173130754E+01  0.40130858941E+02  0.46742887265E+02  0.00000000000E+00 0. -1.
          4    1    6    6  503    0 -0.46502159374E+01  0.33421086279E+02 -0.16778880675E+03  0.17114811476E+03  0.00000000000E+00 0. -1.
         -4    1    6    6    0  503 -0.69150129434E+02 -0.51763801894E+02 -0.58075693883E+03  0.58714551313E+03  0.00000000000E+00 0.  1.
<mgrwt>
<rscale>  0 0.14954632E+04</rscale>
<asrwt>0</asrwt>
<pdfrwt beam="1">  1        2 0.12792326E+00 0.14954632E+04</pdfrwt>
<pdfrwt beam="2">  1       -2 0.10344637E+00 0.14954632E+04</pdfrwt>
<totfact> 0.24085558E+01</totfact>
</mgrwt>
</event>
<event>
12    3  0.4806716E-008  0.1650073E+04  0.7818608E-02  0.8790363E-01
         -2   -1    0    0    0  501 -0.00000000000E+00  0.00000000000E+00  0.22476860813E+04  0.22476860813E+04  0.00000000000E+00 0.  1.
          2   -1    0    0  501    0  0.00000000000E+00 -0.00000000000E+00 -0.30283827615E+03  0.30283827615E+03  0.00000000000E+00 0. -1.
         23    2    1    2    0    0  0.45371769430E+03  0.35271767822E+03  0.67925158498E+03  0.89439872111E+03  0.91087046073E+02 0.  0.
        254    2    1    2    0    0 -0.45371769430E+03 -0.35271767822E+03  0.12655962202E+04  0.16561256364E+04  0.90041591737E+03 0.  0.
         23    2    4    4    0    0 -0.61632799084E+03 -0.49229422709E+03  0.11400489510E+04  0.13891759497E+04  0.88794201363E+02 0.  0.
         23    2    4    4    0    0  0.16261029655E+03  0.13957654887E+03  0.12554726922E+03  0.26694968671E+03  0.97858555512E+02 0.  0.
          3    1    3    3  502    0  0.16480353126E+02  0.76419093418E+01  0.32054252356E+01  0.18446559801E+02  0.00000000000E+00 0. -1.
         -3    1    3    3    0  502  0.43723734117E+03  0.34507576888E+03  0.67604615975E+03  0.87595216130E+03  0.00000000000E+00 0.  1.
         13    1    5    5    0    0 -0.94625465534E+02 -0.53121966680E+02  0.20390203323E+03  0.23098043473E+03  0.00000000000E+00 0. -1.
        -13    1    5    5    0    0 -0.52170252531E+03 -0.43917226041E+03  0.93614691777E+03  0.11581955150E+04  0.00000000000E+00 0.  1.
          3    1    6    6  503    0  0.79810242004E+02  0.55999167406E+02  0.36879021314E+01  0.97566295927E+02  0.00000000000E+00 0. -1.
         -3    1    6    6    0  503  0.82800054543E+02  0.83577381465E+02  0.12185936709E+03  0.16938339078E+03  0.00000000000E+00 0.  1.
<mgrwt>
<rscale>  0 0.16500732E+04</rscale>
<asrwt>0</asrwt>
<pdfrwt beam="1">  1        2 0.46590505E-01 0.16500732E+04</pdfrwt>
<pdfrwt beam="2">  1       -2 0.34579785E+00 0.16500732E+04</pdfrwt>
<totfact> 0.17246697E+00</totfact>
</mgrwt>
</event>
<event>
12    3  0.4806716E-008  0.1471766E+04  0.7818608E-02  0.8903448E-01
         -2   -1    0    0    0  501 -0.00000000000E+00  0.00000000000E+00  0.27325638463E+03  0.27325638463E+03  0.00000000000E+00 0.  1.
          2   -1    0    0  501    0  0.00000000000E+00 -0.00000000000E+00 -0.19817431812E+04  0.19817431812E+04  0.00000000000E+00 0. -1.
         23    2    1    2    0    0  0.14828475831E+03  0.25134028679E+03  0.78926637783E+01  0.30467117089E+03  0.87188983920E+02 0.  0.
        254    2    1    2    0    0 -0.14828475831E+03 -0.25134028679E+03 -0.17163794603E+04  0.19503283949E+04  0.87901199471E+03 0.  0.
         23    2    4    4    0    0 -0.43115494013E+03  0.32016709686E+02 -0.50251543593E+03  0.66879418188E+03  0.88567727021E+02 0.  0.
         23    2    4    4    0    0  0.28287018181E+03 -0.28335699648E+03 -0.12138640244E+04  0.12815342130E+04  0.92505903805E+02 0.  0.
          4    1    3    3  502    0  0.14450733977E+02  0.44564153349E+02 -0.29759293717E+02  0.55501378710E+02  0.00000000000E+00 0. -1.
         -4    1    3    3    0  502  0.13383402434E+03  0.20677613344E+03  0.37651957495E+02  0.24916979218E+03  0.00000000000E+00 0.  1.
         13    1    5    5    0    0 -0.41236439154E+03  0.26317212152E+02 -0.44150301974E+03  0.60469984579E+03  0.00000000000E+00 0.  1.
        -13    1    5    5    0    0 -0.18790548590E+02  0.56994975339E+01 -0.61012416198E+02  0.64094336089E+02  0.00000000000E+00 0. -1.
          2    1    6    6  503    0  0.19411962480E+03 -0.14382057305E+03 -0.63112213461E+03  0.67578246112E+03  0.00000000000E+00 0. -1.
         -2    1    6    6    0  503  0.88750557018E+02 -0.13953642343E+03 -0.58274188976E+03  0.60575175189E+03  0.00000000000E+00 0.  1.
<mgrwt>
<rscale>  0 0.14717663E+04</rscale>
<asrwt>0</asrwt>
<pdfrwt beam="1">  1        2 0.30488357E+00 0.14717663E+04</pdfrwt>
<pdfrwt beam="2">  1       -2 0.42039443E-01 0.14717663E+04</pdfrwt>
<totfact> 0.35524465E+01</totfact>
</mgrwt>
</event>
<event>
12    3  0.4806716E-008  0.1320596E+04  0.7818608E-02  0.9013390E-01
         -1   -1    0    0    0  501 -0.00000000000E+00  0.00000000000E+00  0.20413400545E+03  0.20413400545E+03  0.00000000000E+00 0.  1.
          1   -1    0    0  501    0  0.00000000000E+00 -0.00000000000E+00 -0.21358187797E+04  0.21358187797E+04  0.00000000000E+00 0. -1.
         23    2    1    2    0    0 -0.55585978388E+02 -0.11527795307E+02  0.81713633493E+02  0.13544900613E+03  0.91905518366E+02 0.  0.
        254    2    1    2    0    0  0.55585978388E+02  0.11527795307E+02 -0.20133984077E+04  0.22045037790E+04  0.89601399115E+03 0.  0.
         23    2    4    4    0    0  0.17175774054E+03 -0.38437312479E+03 -0.13606181897E+04  0.14268392229E+04  0.85702330097E+02 0.  0.
         23    2    4    4    0    0 -0.11617176215E+03  0.39590092010E+03 -0.65278021802E+03  0.77766455608E+03  0.91688232064E+02 0.  0.
          4    1    3    3  502    0 -0.58160989746E+02 -0.22846374005E+01  0.53125790972E+01  0.58447786895E+02  0.00000000000E+00 0. -1.
         -4    1    3    3    0  502  0.25750113582E+01 -0.92431579061E+01  0.76401054395E+02  0.77001219239E+02  0.00000000000E+00 0.  1.
         13    1    5    5    0    0  0.92079024515E+02 -0.23301295758E+03 -0.66883599225E+03  0.71422347322E+03  0.00000000000E+00 0. -1.
        -13    1    5    5    0    0  0.79678716022E+02 -0.15136016721E+03 -0.69178219744E+03  0.71261574969E+03  0.00000000000E+00 0.  1.
          3    1    6    6  503    0 -0.70716786857E+02  0.22448255312E+03 -0.45324802471E+03  0.51071229915E+03  0.00000000000E+00 0. -1.
         -3    1    6    6    0  503 -0.45454975293E+02  0.17141836698E+03 -0.19953219331E+03  0.26695225694E+03  0.00000000000E+00 0.  1.
<mgrwt>
<rscale>  0 0.13205957E+04</rscale>
<asrwt>0</asrwt>
<pdfrwt beam="1">  1        1 0.32858750E+00 0.13205957E+04</pdfrwt>
<pdfrwt beam="2">  1       -1 0.31405232E-01 0.13205957E+04</pdfrwt>
<totfact> 0.22289865E+01</totfact>
</mgrwt>
</event>
<event>
12    3  0.4806716E-008  0.2457983E+04  0.7818608E-02  0.8418109E-01
         -2   -1    0    0    0  501 -0.00000000000E+00  0.00000000000E+00  0.43219292257E+03  0.43219292257E+03  0.00000000000E+00 0.  1.
          2   -1    0    0  501    0  0.00000000000E+00 -0.00000000000E+00 -0.34947833393E+04  0.34947833393E+04  0.00000000000E+00 0. -1.
         23    2    1    2    0    0 -0.45604863980E+03  0.85148054667E+03 -0.62151073541E+03  0.11522242810E+04  0.91354892119E+02 0.  0.
        254    2    1    2    0    0  0.45604863980E+03 -0.85148054667E+03 -0.24410796814E+04  0.27747519809E+04  0.89854274330E+03 0.  0.
         23    2    4    4    0    0 -0.10897000597E+03 -0.36436292090E+03 -0.26522341032E+03  0.47279784867E+03  0.92517825290E+02 0.  0.
         23    2    4    4    0    0  0.56501864578E+03 -0.48711762576E+03 -0.21758562710E+04  0.23019541322E+04  0.90070323854E+02 0.  0.
          1    1    3    3  502    0 -0.15211482734E+03  0.25199374948E+03 -0.14359998467E+03  0.32750683363E+03  0.00000000000E+00 0. -1.
         -1    1    3    3    0  502 -0.30393381247E+03  0.59948679719E+03 -0.47791075074E+03  0.82471744739E+03  0.00000000000E+00 0.  1.
         13    1    5    5    0    0 -0.64699756222E+02 -0.32738935576E+03 -0.22614545994E+03  0.40312729723E+03  0.00000000000E+00 0. -1.
        -13    1    5    5    0    0 -0.44270249748E+02 -0.36973565139E+02 -0.39077950378E+02  0.69670551438E+02  0.00000000000E+00 0.  1.
          1    1    6    6  503    0  0.51937536129E+03 -0.46187537989E+03 -0.20765968197E+04  0.21898251036E+04  0.00000000000E+00 0. -1.
         -1    1    6    6    0  503  0.45643284481E+02 -0.25242245875E+02 -0.99259451310E+02  0.11212902866E+03  0.00000000000E+00 0.  1.
<mgrwt>
<rscale>  0 0.24579834E+04</rscale>
<asrwt>0</asrwt>
<pdfrwt beam="1">  1        2 0.53765895E+00 0.24579834E+04</pdfrwt>
<pdfrwt beam="2">  1       -2 0.66491222E-01 0.24579834E+04</pdfrwt>
<totfact> 0.15277086E+00</totfact>
</mgrwt>
</event>
<event>
12    3  0.4806716E-008  0.3553254E+04  0.7818608E-02  0.8101284E-01
          2   -1    0    0  501    0  0.00000000000E+00  0.00000000000E+00  0.34823289028E+04  0.34823289028E+04  0.00000000000E+00 0. -1.
         -2   -1    0    0    0  501 -0.00000000000E+00 -0.00000000000E+00 -0.90640587421E+03  0.90640587421E+03  0.00000000000E+00 0.  1.
         23    2    1    2    0    0  0.11621502200E+04 -0.53616507107E+03 -0.10407926876E+03  0.12873295137E+04  0.91206718814E+02 0.  0.
        254    2    1    2    0    0 -0.11621502200E+04  0.53616507107E+03  0.26800022973E+04  0.31014052633E+04  0.89344063941E+03 0.  0.
         23    2    4    4    0    0 -0.81155924162E+03  0.51166429030E+03  0.25318970682E+04  0.27091241491E+04  0.91772231976E+02 0.  0.
         23    2    4    4    0    0 -0.35059097834E+03  0.24500780766E+02  0.14810522917E+03  0.39228111422E+03  0.91842208804E+02 0.  0.
          1    1    3    3  502    0  0.61112799820E+03 -0.27250988490E+03 -0.95076590240E+01  0.66920061501E+03  0.00000000000E+00 0. -1.
         -1    1    3    3    0  502  0.55102222176E+03 -0.26365518617E+03 -0.94571609736E+02  0.61812889872E+03  0.00000000000E+00 0.  1.
         13    1    5    5    0    0 -0.43530494550E+03  0.31596262145E+03  0.14967298689E+04  0.15904474446E+04  0.00000000000E+00 0. -1.
        -13    1    5    5    0    0 -0.37625429612E+03  0.19570166885E+03  0.10351671993E+04  0.11186767044E+04  0.00000000000E+00 0.  1.
          1    1    6    6  503    0 -0.13353187626E+03 -0.18566810789E+02  0.19181813789E+02  0.13617426489E+03  0.00000000000E+00 0. -1.
         -1    1    6    6    0  503 -0.21705910208E+03  0.43067591555E+02  0.12892341538E+03  0.25610684933E+03  0.00000000000E+00 0.  1.
<mgrwt>
<rscale>  0 0.35532539E+04</rscale>
<asrwt>0</asrwt>
<pdfrwt beam="1">  1        2 0.53574290E+00 0.35532539E+04</pdfrwt>
<pdfrwt beam="2">  1       -2 0.13944706E+00 0.35532539E+04</pdfrwt>
<totfact> 0.24792694E-01</totfact>
</mgrwt>
</event>
<event>
12    3  0.5131275E-008  0.1559287E+04  0.7818608E-02  0.8845957E-01
          1   -1    0    0  501    0  0.00000000000E+00  0.00000000000E+00  0.14212773507E+04  0.14212773507E+04  0.00000000000E+00 0. -1.
         -1   -1    0    0    0  501 -0.00000000000E+00 -0.00000000000E+00 -0.42767449274E+03  0.42767449274E+03  0.00000000000E+00 0.  1.
         23    2    1    2    0    0  0.54528531934E+02  0.16385099567E+03 -0.24129526303E+03  0.31072302317E+03  0.92221925769E+02 0.  0.
        254    2    1    2    0    0 -0.54528531934E+02 -0.16385099567E+03  0.12348981210E+04  0.15382288203E+04  0.90075192185E+03 0.  0.
         23    2    4    4    0    0  0.38817815521E+03 -0.19547985143E+03  0.45074029595E+03  0.63260930737E+03  0.90183528855E+02 0.  0.
         23    2    4    4    0    0 -0.44270668714E+03  0.31628855768E+02  0.78415782502E+03  0.90561951289E+03  0.90849393144E+02 0.  0.
          3    1    3    3  502    0  0.66212391814E+00 -0.91473814930E+00  0.74494321564E+01  0.75345333908E+01  0.00000000000E+00 0. -1.
         -3    1    3    3    0  502  0.53866408015E+02  0.16476573382E+03 -0.24874469518E+03  0.30318848978E+03  0.00000000000E+00 0.  1.
         13    1    5    5    0    0  0.62454749349E+02 -0.36575491187E+02  0.12931511356E+03  0.14819163561E+03  0.00000000000E+00 0.  1.
        -13    1    5    5    0    0  0.32572340586E+03 -0.15890436025E+03  0.32142518240E+03  0.48441767175E+03  0.00000000000E+00 0. -1.
          2    1    6    6  503    0 -0.13156464595E+03 -0.29469425069E+01  0.15849621435E+03  0.20600725836E+03  0.00000000000E+00 0. -1.
         -2    1    6    6    0  503 -0.31114204119E+03  0.34575798275E+02  0.62566161068E+03  0.69961225453E+03  0.00000000000E+00 0.  1.
<mgrwt>
<rscale>  0 0.15592871E+04</rscale>
<asrwt>0</asrwt>
<pdfrwt beam="1">  1        1 0.21865805E+00 0.15592871E+04</pdfrwt>
<pdfrwt beam="2">  1       -1 0.65796076E-01 0.15592871E+04</pdfrwt>
<totfact> 0.16731187E+01</totfact>
</mgrwt>
</event>
<event>
12    3  0.4806716E-008  0.3573324E+04  0.7818608E-02  0.8096630E-01
         -1   -1    0    0    0  501 -0.00000000000E+00  0.00000000000E+00  0.12619362925E+04  0.12619362925E+04  0.00000000000E+00 0.  1.
          1   -1    0    0  501    0  0.00000000000E+00 -0.00000000000E+00 -0.25295744094E+04  0.25295744094E+04  0.00000000000E+00 0. -1.
         23    2    1    2    0    0  0.10739423610E+04 -0.51375413221E+03  0.65191668787E+03  0.13604170952E+04  0.91890162297E+02 0.  0.
        254    2    1    2    0    0 -0.10739423610E+04  0.51375413221E+03 -0.19195548047E+04  0.24310936067E+04  0.89901611377E+03 0.  0.
         23    2    4    4    0    0 -0.10343287043E+04  0.74486211322E+02 -0.13364994048E+04  0.16939400863E+04  0.88421111341E+02 0.  0.
         23    2    4    4    0    0 -0.39613656664E+02  0.43926792089E+03 -0.58305539999E+03  0.73715352032E+03  0.94425446506E+02 0.  0.
          2    1    3    3  502    0  0.34955411568E+03 -0.12015178113E+03  0.20159612276E+03  0.42102912845E+03  0.00000000000E+00 0. -1.
         -2    1    3    3    0  502  0.72438824529E+03 -0.39360235109E+03  0.45032056511E+03  0.93938796674E+03  0.00000000000E+00 0.  1.
         13    1    5    5    0    0 -0.93221499952E+03  0.43182120058E+02 -0.11789245044E+04  0.15035798908E+04  0.00000000000E+00 0.  1.
        -13    1    5    5    0    0 -0.10211370479E+03  0.31304091264E+02 -0.15757490035E+03  0.19036019557E+03  0.00000000000E+00 0. -1.
          2    1    6    6  503    0 -0.54050451487E+02  0.14001410637E+03 -0.16821013111E+03  0.22543302663E+03  0.00000000000E+00 0. -1.
         -2    1    6    6    0  503  0.14436794823E+02  0.29925381452E+03 -0.41484526889E+03  0.51172049370E+03  0.00000000000E+00 0.  1.
<mgrwt>
<rscale>  0 0.35733244E+04</rscale>
<asrwt>0</asrwt>
<pdfrwt beam="1">  1        1 0.38916530E+00 0.35733244E+04</pdfrwt>
<pdfrwt beam="2">  1       -1 0.19414404E+00 0.35733244E+04</pdfrwt>
<totfact> 0.17313403E-01</totfact>
</mgrwt>
</event>
<event>
12    3  0.4806716E-008  0.2451315E+04  0.7818608E-02  0.8420538E-01
         -2   -1    0    0    0  501 -0.00000000000E+00  0.00000000000E+00  0.30007522224E+03  0.30007522224E+03  0.00000000000E+00 0.  1.
          2   -1    0    0  501    0  0.00000000000E+00 -0.00000000000E+00 -0.50062008128E+04  0.50062008128E+04  0.00000000000E+00 0. -1.
         23    2    1    2    0    0 -0.99532219622E+03 -0.20246900991E+03 -0.26832630912E+04  0.28708970942E+04  0.10241745301E+03 0.  0.
        254    2    1    2    0    0  0.99532219622E+03  0.20246900991E+03 -0.20228624994E+04  0.24353789409E+04  0.89857549487E+03 0.  0.
         23    2    4    4    0    0  0.14586297935E+03  0.38803161415E+03 -0.10230110709E+04  0.11071584361E+04  0.86044228592E+02 0.  0.
         23    2    4    4    0    0  0.84945921687E+03 -0.18556260424E+03 -0.99985142857E+03  0.13282205048E+04  0.91936874412E+02 0.  0.
          4    1    3    3  502    0 -0.25796089293E+03 -0.18932937224E+02 -0.59978232919E+03  0.65317770997E+03  0.00000000000E+00 0.  1.
         -4    1    3    3    0  502 -0.73736130329E+03 -0.18353607269E+03 -0.20834807620E+04  0.22177193842E+04  0.00000000000E+00 0. -1.
         13    1    5    5    0    0  0.88974837248E+02  0.19217459533E+03 -0.62554525206E+03  0.66041991121E+03  0.00000000000E+00 0. -1.
        -13    1    5    5    0    0  0.56888142098E+02  0.19585701882E+03 -0.39746581881E+03  0.44673852493E+03  0.00000000000E+00 0.  1.
          3    1    6    6  503    0  0.51420317642E+03 -0.14141989895E+03 -0.55852402758E+03  0.77223933068E+03  0.00000000000E+00 0. -1.
         -3    1    6    6    0  503  0.33525604045E+03 -0.44142705286E+02 -0.44132740099E+03  0.55598117410E+03  0.00000000000E+00 0.  1.
<mgrwt>
<rscale>  0 0.24513154E+04</rscale>
<asrwt>0</asrwt>
<pdfrwt beam="1">  1        2 0.77018466E+00 0.24513154E+04</pdfrwt>
<pdfrwt beam="2">  1       -2 0.46165424E-01 0.24513154E+04</pdfrwt>
<totfact> 0.13580692E-01</totfact>
</mgrwt>
</event>
<event>
12    3  0.4806716E-008  0.2910093E+04  0.7818608E-02  0.8269881E-01
         -1   -1    0    0    0  501 -0.00000000000E+00  0.00000000000E+00  0.12917052030E+04  0.12917052030E+04  0.00000000000E+00 0.  1.
          1   -1    0    0  501    0  0.00000000000E+00 -0.00000000000E+00 -0.16390430840E+04  0.16390430840E+04  0.00000000000E+00 0. -1.
         23    2    1    2    0    0 -0.11416135779E+04 -0.61545517256E+03 -0.36993734300E+03  0.13516500308E+04  0.89652314688E+02 0.  0.
        254    2    1    2    0    0  0.11416135779E+04  0.61545517256E+03  0.22599462016E+02  0.15790982562E+04  0.90054091325E+03 0.  0.
         23    2    4    4    0    0  0.77760048174E+03  0.38330552679E+03 -0.40812406944E+03  0.96235538817E+03  0.89314058356E+02 0.  0.
         23    2    4    4    0    0  0.36401309613E+03  0.23214964577E+03  0.43072353145E+03  0.61674286802E+03  0.91923949696E+02 0.  0.
          4    1    3    3  502    0 -0.40942495163E+03 -0.17482196872E+03 -0.11291788038E+03  0.45928418161E+03  0.00000000000E+00 0. -1.
         -4    1    3    3    0  502 -0.73218862624E+03 -0.44063320383E+03 -0.25701946262E+03  0.89236584924E+03  0.00000000000E+00 0.  1.
         13    1    5    5    0    0  0.27649406165E+03  0.89424058129E+02 -0.13407843175E+03  0.32003539517E+03  0.00000000000E+00 0.  1.
        -13    1    5    5    0    0  0.50110642010E+03  0.29388146866E+03 -0.27404563769E+03  0.64231999301E+03  0.00000000000E+00 0. -1.
          4    1    6    6  503    0  0.12208241977E+02 -0.86701837737E+01  0.12227394857E+02  0.19331902230E+02  0.00000000000E+00 0. -1.
         -4    1    6    6    0  503  0.35180485415E+03  0.24081982954E+03  0.41849613659E+03  0.59741096579E+03  0.00000000000E+00 0.  1.
<mgrwt>
<rscale>  0 0.29100931E+04</rscale>
<asrwt>0</asrwt>
<pdfrwt beam="1">  1        1 0.25216047E+00 0.29100931E+04</pdfrwt>
<pdfrwt beam="2">  1       -1 0.19872388E+00 0.29100931E+04</pdfrwt>
<totfact> 0.69109384E-01</totfact>
</mgrwt>
</event>
<event>
12    3  0.4806716E-008  0.1486655E+04  0.7818608E-02  0.8893376E-01
          2   -1    0    0  501    0  0.00000000000E+00  0.00000000000E+00  0.27831265999E+04  0.27831265999E+04  0.00000000000E+00 0. -1.
         -2   -1    0    0    0  501 -0.00000000000E+00 -0.00000000000E+00 -0.19853046854E+03  0.19853046854E+03  0.00000000000E+00 0.  1.
         23    2    1    2    0    0 -0.35630825144E+03 -0.13773064765E+03  0.30443875064E+03  0.49700813325E+03  0.91699674351E+02 0.  0.
        254    2    1    2    0    0  0.35630825144E+03  0.13773064765E+03  0.22801573807E+04  0.24846489352E+04  0.91018533768E+03 0.  0.
         23    2    4    4    0    0  0.43873438842E+03  0.35262345778E+03  0.79115872609E+03  0.97525246323E+03  0.91400605113E+02 0.  0.
         23    2    4    4    0    0 -0.82426136982E+02 -0.21489281013E+03  0.14889986546E+04  0.15093964720E+04  0.90486066045E+02 0.  0.
          1    1    3    3  502    0 -0.85461791957E+02  0.61533943834E+01  0.76821461561E+02  0.11507875175E+03  0.00000000000E+00 0. -1.
         -1    1    3    3    0  502 -0.27084645949E+03 -0.14388404204E+03  0.22761728908E+03  0.38192938151E+03  0.00000000000E+00 0.  1.
         13    1    5    5    0    0  0.17775642050E+03  0.17872594059E+03  0.41448756186E+03  0.48511879556E+03  0.00000000000E+00 0.  1.
        -13    1    5    5    0    0  0.26097796792E+03  0.17389751719E+03  0.37667116422E+03  0.49013366767E+03  0.00000000000E+00 0. -1.
          4    1    6    6  503    0 -0.94595388474E+02 -0.12585971169E+03  0.94596295802E+03  0.95897594990E+03  0.00000000000E+00 0. -1.
         -4    1    6    6    0  503  0.12169251492E+02 -0.89033098439E+02  0.54303569662E+03  0.55042052205E+03  0.00000000000E+00 0.  1.
<mgrwt>
<rscale>  0 0.14866545E+04</rscale>
<asrwt>0</asrwt>
<pdfrwt beam="1">  1        2 0.42817330E+00 0.14866545E+04</pdfrwt>
<pdfrwt beam="2">  1       -2 0.30543151E-01 0.14866545E+04</pdfrwt>
<totfact> 0.22823905E+01</totfact>
</mgrwt>
</event>
<event>
12    3  0.4806716E-008  0.1428121E+04  0.7818608E-02  0.8933711E-01
          1   -1    0    0  501    0  0.00000000000E+00  0.00000000000E+00  0.23790035042E+04  0.23790035042E+04  0.00000000000E+00 0. -1.
         -1   -1    0    0    0  501 -0.00000000000E+00 -0.00000000000E+00 -0.21432618403E+03  0.21432618403E+03  0.00000000000E+00 0.  1.
         23    2    1    2    0    0  0.27399295802E+03  0.17601007932E+03  0.83100324452E+03  0.89756177427E+03  0.94863360434E+02 0.  0.
        254    2    1    2    0    0 -0.27399295802E+03 -0.17601007932E+03  0.13336740756E+04  0.16957679140E+04  0.99543487426E+03 0.  0.
         23    2    4    4    0    0 -0.69158749998E+02  0.16427625011E+03 -0.86115071936E+02  0.21848437719E+03  0.92466201459E+02 0.  0.
         23    2    4    4    0    0 -0.20483420802E+03 -0.34028632942E+03  0.14197891476E+04  0.14772835368E+04  0.93880698972E+02 0.  0.
          1    1    3    3  502    0  0.25418949716E+03  0.16957570287E+03  0.81751142494E+03  0.87275033622E+03  0.00000000000E+00 0. -1.
         -1    1    3    3    0  502  0.19803460857E+02  0.64343764468E+01  0.13491819586E+02  0.24811438046E+02  0.00000000000E+00 0.  1.
         13    1    5    5    0    0 -0.78645600979E+02  0.15940962880E+03 -0.97622017982E+02  0.20279698889E+03  0.00000000000E+00 0.  1.
        -13    1    5    5    0    0  0.94868509807E+01  0.48666213053E+01  0.11506946046E+02  0.15687388303E+02  0.00000000000E+00 0. -1.
          1    1    6    6  503    0 -0.33345375152E+02 -0.72415656434E+02  0.17172489065E+03  0.18932876012E+03  0.00000000000E+00 0. -1.
         -1    1    6    6    0  503 -0.17148883287E+03 -0.26787067299E+03  0.12480642569E+04  0.12879547766E+04  0.00000000000E+00 0.  1.
<mgrwt>
<rscale>  0 0.14281215E+04</rscale>
<asrwt>0</asrwt>
<pdfrwt beam="1">  1        1 0.36600052E+00 0.14281215E+04</pdfrwt>
<pdfrwt beam="2">  1       -1 0.32973261E-01 0.14281215E+04</pdfrwt>
<totfact> 0.13830593E+01</totfact>
</mgrwt>
</event>
<event>
12    3  0.4806716E-008  0.3235185E+04  0.7818608E-02  0.8179586E-01
         -1   -1    0    0    0  501 -0.00000000000E+00  0.00000000000E+00  0.13832645399E+04  0.13832645399E+04  0.00000000000E+00 0.  1.
          1   -1    0    0  501    0  0.00000000000E+00 -0.00000000000E+00 -0.18916155485E+04  0.18916155485E+04  0.00000000000E+00 0. -1.
         23    2    1    2    0    0 -0.11723239227E+04  0.90263355708E+03 -0.43217241358E+03  0.15442478986E+04  0.94009887975E+02 0.  0.
        254    2    1    2    0    0  0.11723239227E+04 -0.90263355708E+03 -0.76178595059E+02  0.17306321898E+04  0.89453556659E+03 0.  0.
         23    2    4    4    0    0  0.85565816634E+03 -0.83758691778E+03 -0.39831134409E+03  0.12651972970E+04  0.91485141310E+02 0.  0.
         23    2    4    4    0    0  0.31666575639E+03 -0.65046639298E+02  0.32213274903E+03  0.46543489279E+03  0.91388538011E+02 0.  0.
          4    1    3    3  502    0 -0.79099935708E+02  0.77492266674E+02 -0.54745395111E+02  0.12352695863E+03  0.00000000000E+00 0. -1.
         -4    1    3    3    0  502 -0.10932239870E+04  0.82514129040E+03 -0.37742701847E+03  0.14207209399E+04  0.00000000000E+00 0.  1.
         13    1    5    5    0    0  0.45149082248E+02 -0.32457994258E+02 -0.89789327080E+00  0.55612653519E+02  0.00000000000E+00 0. -1.
        -13    1    5    5    0    0  0.81050908409E+03 -0.80512892352E+03 -0.39741345082E+03  0.12095846435E+04  0.00000000000E+00 0.  1.
          2    1    6    6  503    0  0.68440026941E+02 -0.45751982086E+02  0.48776958511E+02  0.95689460413E+02  0.00000000000E+00 0. -1.
         -2    1    6    6    0  503  0.24822572944E+03 -0.19294657212E+02  0.27335579052E+03  0.36974543238E+03  0.00000000000E+00 0.  1.
<mgrwt>
<rscale>  0 0.32351845E+04</rscale>
<asrwt>0</asrwt>
<pdfrwt beam="1">  1        1 0.29101778E+00 0.32351845E+04</pdfrwt>
<pdfrwt beam="2">  1       -1 0.21280993E+00 0.32351845E+04</pdfrwt>
<totfact> 0.36232065E-01</totfact>
</mgrwt>
</event>
<event>
12    3  0.4806716E-008  0.1651335E+04  0.7818608E-02  0.8789617E-01
         -1   -1    0    0    0  501 -0.00000000000E+00  0.00000000000E+00  0.95848644460E+03  0.95848644460E+03  0.00000000000E+00 0.  1.
          1   -1    0    0  501    0  0.00000000000E+00 -0.00000000000E+00 -0.71125311902E+03  0.71125311902E+03  0.00000000000E+00 0. -1.
         23    2    1    2    0    0  0.31269851583E+03  0.31665738469E+03 -0.28824513610E+03  0.53836390201E+03  0.93263987820E+02 0.  0.
        254    2    1    2    0    0 -0.31269851583E+03 -0.31665738469E+03  0.53547846168E+03  0.11313756616E+04  0.89175189580E+03 0.  0.
         23    2    4    4    0    0  0.15940437783E+03 -0.25520804009E+03  0.56456295573E+03  0.64598062884E+03  0.89547431283E+02 0.  0.
         23    2    4    4    0    0 -0.47210289366E+03 -0.61449344601E+02 -0.29084494049E+02  0.48539503277E+03  0.90029250171E+02 0.  0.
          3    1    3    3  502    0  0.19128789274E+03  0.25425987544E+03 -0.20000306841E+03  0.37581959707E+03  0.00000000000E+00 0. -1.
         -3    1    3    3    0  502  0.12141062309E+03  0.62397509255E+02 -0.88242067693E+02  0.16254430495E+03  0.00000000000E+00 0.  1.
         13    1    5    5    0    0  0.48799493041E+01 -0.11408814745E+02  0.57660285053E+00  0.12422054176E+02  0.00000000000E+00 0. -1.
        -13    1    5    5    0    0  0.15452442853E+03 -0.24379922535E+03  0.56398635288E+03  0.63355857466E+03  0.00000000000E+00 0.  1.
          4    1    6    6  503    0 -0.45474586769E+01 -0.72778082771E+01 -0.11545033225E+02  0.14385189116E+02  0.00000000000E+00 0. -1.
         -4    1    6    6    0  503 -0.46755543499E+03 -0.54171536324E+02 -0.17539460824E+02  0.47100984365E+03  0.00000000000E+00 0.  1.
<mgrwt>
<rscale>  0 0.16513346E+04</rscale>
<asrwt>0</asrwt>
<pdfrwt beam="1">  1        1 0.10942356E+00 0.16513346E+04</pdfrwt>
<pdfrwt beam="2">  1       -1 0.14745945E+00 0.16513346E+04</pdfrwt>
<totfact> 0.92812798E+00</totfact>
</mgrwt>
</event>
<event>
12    3  0.4806716E-008  0.2821012E+04  0.7818608E-02  0.8296775E-01
          2   -1    0    0  501    0  0.00000000000E+00  0.00000000000E+00  0.44055769998E+04  0.44055769998E+04  0.00000000000E+00 0. -1.
         -2   -1    0    0    0  501 -0.00000000000E+00 -0.00000000000E+00 -0.45159281714E+03  0.45159281714E+03  0.00000000000E+00 0.  1.
         23    2    1    2    0    0 -0.11816955565E+04  0.43683513081E+03  0.17829911317E+04  0.21851185021E+04  0.91957450582E+02 0.  0.
        254    2    1    2    0    0  0.11816955565E+04 -0.43683513081E+03  0.21709930510E+04  0.26720513149E+04  0.91619762172E+03 0.  0.
         23    2    4    4    0    0  0.53651463529E+03  0.22972689853E+03  0.57716315149E+03  0.82572605790E+03  0.89910052114E+02 0.  0.
         23    2    4    4    0    0  0.64518092124E+03 -0.66656202934E+03  0.15938298995E+04  0.18463252570E+04  0.89776644512E+02 0.  0.
          3    1    3    3  502    0 -0.92790192710E+03  0.37456809695E+03  0.13736379795E+04  0.16994659586E+04  0.00000000000E+00 0. -1.
         -3    1    3    3    0  502 -0.25379362942E+03  0.62267033854E+02  0.40935315218E+03  0.48565254353E+03  0.00000000000E+00 0.  1.
         13    1    5    5    0    0  0.29559865821E+03  0.10144977222E+03  0.25399302587E+03  0.40271960494E+03  0.00000000000E+00 0. -1.
        -13    1    5    5    0    0  0.24091597708E+03  0.12827712631E+03  0.32317012562E+03  0.42300645296E+03  0.00000000000E+00 0.  1.
          1    1    6    6  503    0  0.37845713996E+01 -0.20021368485E+01  0.28584505765E+02  0.28903382198E+02  0.00000000000E+00 0. -1.
         -1    1    6    6    0  503  0.64139634984E+03 -0.66455989249E+03  0.15652453937E+04  0.18174218748E+04  0.00000000000E+00 0.  1.
<mgrwt>
<rscale>  0 0.28210118E+04</rscale>
<asrwt>0</asrwt>
<pdfrwt beam="1">  1        2 0.67778105E+00 0.28210118E+04</pdfrwt>
<pdfrwt beam="2">  1       -2 0.69475821E-01 0.28210118E+04</pdfrwt>
<totfact> 0.24918748E-01</totfact>
</mgrwt>
</event>
<event>
12    3  0.4806716E-008  0.1146959E+04  0.7818608E-02  0.9160594E-01
         -2   -1    0    0    0  501 -0.00000000000E+00  0.00000000000E+00  0.42998475643E+03  0.42998475643E+03  0.00000000000E+00 0. -1.
          2   -1    0    0  501    0  0.00000000000E+00 -0.00000000000E+00 -0.76486141455E+03  0.76486141455E+03  0.00000000000E+00 0.  1.
         23    2    1    2    0    0 -0.11808134680E+03 -0.12606172402E+03 -0.18242308338E+03  0.26722240587E+03  0.91076177585E+02 0.  0.
        254    2    1    2    0    0  0.11808134680E+03  0.12606172402E+03 -0.15245357475E+03  0.92762376511E+03  0.89855939949E+03 0.  0.
         23    2    4    4    0    0  0.19254323267E+03 -0.30032599141E+03  0.14396996049E+03  0.39510506690E+03  0.90067012857E+02 0.  0.
         23    2    4    4    0    0 -0.74461885868E+02  0.42638771543E+03 -0.29642353524E+03  0.53251869821E+03  0.91423166527E+02 0.  0.
          3    1    3    3  502    0 -0.12650008194E+03 -0.10201502822E+03 -0.12708372687E+03  0.20629980695E+03  0.00000000000E+00 0. -1.
         -3    1    3    3    0  502  0.84187351338E+01 -0.24046695806E+02 -0.55339356512E+02  0.60922598924E+02  0.00000000000E+00 0.  1.
         13    1    5    5    0    0 -0.21108444106E+01  0.29086012178E+00 -0.63531659692E+01  0.67009687037E+01  0.00000000000E+00 0.  1.
        -13    1    5    5    0    0  0.19465407708E+03 -0.30061685153E+03  0.15032312646E+03  0.38840409820E+03  0.00000000000E+00 0. -1.
          2    1    6    6  503    0 -0.36574461484E+02  0.36631312723E+03 -0.27082608945E+03  0.45702272278E+03  0.00000000000E+00 0. -1.
         -2    1    6    6    0  503 -0.37887424384E+02  0.60074588207E+02 -0.25597445787E+02  0.75495975426E+02  0.00000000000E+00 0.  1.
<mgrwt>
<rscale>  0 0.11469590E+04</rscale>
<asrwt>0</asrwt>
<pdfrwt beam="1">  1        2 0.11767099E+00 0.11469590E+04</pdfrwt>
<pdfrwt beam="2">  1       -2 0.66151502E-01 0.11469590E+04</pdfrwt>
<totfact> 0.76105202E+01</totfact>
</mgrwt>
</event>
<event>
12    3  0.6333449E-008  0.1988067E+04  0.7818608E-02  0.8612220E-01
         -1   -1    0    0    0  501 -0.00000000000E+00  0.00000000000E+00  0.13975044600E+04  0.13975044600E+04  0.00000000000E+00 0.  1.
          1   -1    0    0  501    0  0.00000000000E+00 -0.00000000000E+00 -0.70704803306E+03  0.70704803306E+03  0.00000000000E+00 0. -1.
         23    2    1    2    0    0  0.31360062015E+03  0.49837773357E+03 -0.27652276824E+03  0.65728439692E+03  0.93979906359E+02 0.  0.
        254    2    1    2    0    0 -0.31360062015E+03 -0.49837773357E+03  0.96697919517E+03  0.14472680961E+04  0.90156001681E+03 0.  0.
         23    2    4    4    0    0 -0.25630655507E+03 -0.51793456125E+03  0.11174905625E+04  0.12613866031E+04  0.91442579414E+02 0.  0.
         23    2    4    4    0    0 -0.57294065080E+02  0.19556827681E+02 -0.15051136734E+03  0.18588149301E+03  0.90736863194E+02 0.  0.
          3    1    3    3  502    0  0.29605551758E+03  0.47612700454E+03 -0.23710847396E+03  0.60874150701E+03  0.00000000000E+00 0. -1.
         -3    1    3    3    0  502  0.17545102575E+02  0.22250729032E+02 -0.39414294276E+02  0.48542889903E+02  0.00000000000E+00 0.  1.
         13    1    5    5    0    0 -0.99843098445E+02 -0.26103311093E+03  0.45798332594E+03  0.53652181330E+03  0.00000000000E+00 0.  1.
        -13    1    5    5    0    0 -0.15646345662E+03 -0.25690145032E+03  0.65950723657E+03  0.72486478982E+03  0.00000000000E+00 0. -1.
          3    1    6    6  503    0  0.59741793073E+01  0.72491999061E+01  0.95099958502E+01  0.13367188887E+02  0.00000000000E+00 0. -1.
         -3    1    6    6    0  503 -0.63268244388E+02  0.12307627775E+02 -0.16002136319E+03  0.17251430412E+03  0.00000000000E+00 0.  1.
<mgrwt>
<rscale>  0 0.19880672E+04</rscale>
<asrwt>0</asrwt>
<pdfrwt beam="1">  1        1 0.10877662E+00 0.19880672E+04</pdfrwt>
<pdfrwt beam="2">  1       -1 0.21500068E+00 0.19880672E+04</pdfrwt>
<totfact> 0.29622654E+00</totfact>
</mgrwt>
</event>
<event>
12    3  0.4806716E-008  0.1374625E+04  0.7818608E-02  0.8972394E-01
         -1   -1    0    0    0  501 -0.00000000000E+00  0.00000000000E+00  0.34713316088E+03  0.34713316088E+03  0.00000000000E+00 0.  1.
          1   -1    0    0  501    0  0.00000000000E+00 -0.00000000000E+00 -0.13608571199E+04  0.13608571199E+04  0.00000000000E+00 0. -1.
         23    2    1    2    0    0 -0.16225403207E+03  0.36408007647E+03 -0.37316296119E+03  0.55365789574E+03  0.91683133191E+02 0.  0.
        254    2    1    2    0    0  0.16225403207E+03 -0.36408007647E+03 -0.64056099783E+03  0.11543323850E+04  0.87366137043E+03 0.  0.
         23    2    4    4    0    0  0.46320822874E+03 -0.31894304624E+03 -0.18606886892E+03  0.59905447593E+03  0.89208246470E+02 0.  0.
         23    2    4    4    0    0 -0.30095419667E+03 -0.45137030231E+02 -0.45449212891E+03  0.55527790910E+03  0.95706222888E+02 0.  0.
          2    1    3    3  502    0 -0.14590745488E+03  0.36415216235E+03 -0.36253120256E+03  0.53415789385E+03  0.00000000000E+00 0. -1.
         -2    1    3    3    0  502 -0.16346577194E+02 -0.72085880339E-01 -0.10631758625E+02  0.19500001892E+02  0.00000000000E+00 0.  1.
         13    1    5    5    0    0  0.44124590439E+03 -0.31981174119E+03 -0.18917285231E+03  0.57685688520E+03  0.00000000000E+00 0.  1.
        -13    1    5    5    0    0  0.21962324346E+02  0.86869495476E+00  0.31039833880E+01  0.22197590735E+02  0.00000000000E+00 0. -1.
          4    1    6    6  503    0 -0.22114728358E+03 -0.18167579239E+02 -0.25088566769E+03  0.33493253085E+03  0.00000000000E+00 0. -1.
         -4    1    6    6    0  503 -0.79806913090E+02 -0.26969450992E+02 -0.20360646123E+03  0.22034537825E+03  0.00000000000E+00 0.  1.
<mgrwt>
<rscale>  0 0.13746252E+04</rscale>
<asrwt>0</asrwt>
<pdfrwt beam="1">  1        1 0.20936264E+00 0.13746252E+04</pdfrwt>
<pdfrwt beam="2">  1       -1 0.53405101E-01 0.13746252E+04</pdfrwt>
<totfact> 0.28288999E+01</totfact>
</mgrwt>
</event>
<event>
12    3  0.4806716E-008  0.2232381E+04  0.7818608E-02  0.8505070E-01
         -1   -1    0    0    0  501 -0.00000000000E+00  0.00000000000E+00  0.53728067446E+03  0.53728067446E+03  0.00000000000E+00 0.  1.
          1   -1    0    0  501    0  0.00000000000E+00 -0.00000000000E+00 -0.23188650971E+04  0.23188650971E+04  0.00000000000E+00 0. -1.
         23    2    1    2    0    0  0.46836071785E+03 -0.18878326844E+03 -0.17514500688E+04  0.18250470939E+04  0.90656865026E+02 0.  0.
        254    2    1    2    0    0 -0.46836071785E+03  0.18878326844E+03 -0.30134353929E+02  0.10310986777E+04  0.89847399483E+03 0.  0.
         23    2    4    4    0    0 -0.10124303636E+02 -0.84596513685E+02 -0.37078935765E+03  0.39128413966E+03  0.91430074675E+02 0.  0.
         23    2    4    4    0    0 -0.45823641421E+03  0.27337978212E+03  0.34065500372E+03  0.63981453803E+03  0.92734540122E+02 0.  0.
          2    1    3    3  502    0  0.41519500202E+03 -0.19488404910E+03 -0.15988063679E+04  0.16632944671E+04  0.00000000000E+00 0. -1.
         -2    1    3    3    0  502  0.53165715829E+02  0.61007806612E+01 -0.15264370088E+03  0.16175262682E+03  0.00000000000E+00 0.  1.
         13    1    5    5    0    0  0.22007063138E+02  0.10083665148E+02 -0.91075766526E+02  0.94237924314E+02  0.00000000000E+00 0. -1.
        -13    1    5    5    0    0 -0.32131366774E+02 -0.94680178834E+02 -0.27971359112E+03  0.29704621535E+03  0.00000000000E+00 0.  1.
          3    1    6    6  503    0 -0.16924118887E+03  0.74720352138E+02  0.73971514757E+02  0.19924230482E+03  0.00000000000E+00 0. -1.
         -3    1    6    6    0  503 -0.28899522534E+03  0.19865942998E+03  0.26668348896E+03  0.44057223321E+03  0.00000000000E+00 0.  1.
<mgrwt>
<rscale>  0 0.22323812E+04</rscale>
<asrwt>0</asrwt>
<pdfrwt beam="1">  1        1 0.35674848E+00 0.22323812E+04</pdfrwt>
<pdfrwt beam="2">  1       -1 0.82658565E-01 0.22323812E+04</pdfrwt>
<totfact> 0.23883198E+00</totfact>
</mgrwt>
</event>
<event>
12    3  0.4806716E-008  0.1114663E+04  0.7818608E-02  0.9191017E-01
          1   -1    0    0  501    0  0.00000000000E+00  0.00000000000E+00  0.17168598531E+04  0.17168598531E+04  0.00000000000E+00 0. -1.
         -1   -1    0    0    0  501 -0.00000000000E+00 -0.00000000000E+00 -0.18092239912E+03  0.18092239912E+03  0.00000000000E+00 0.  1.
         23    2    1    2    0    0  0.32104203837E+02 -0.37004536987E+02 -0.17282967754E+02  0.10429710896E+03  0.90438765475E+02 0.  0.
        254    2    1    2    0    0 -0.32104203837E+02  0.37004536987E+02  0.15532204218E+04  0.17934851433E+04  0.89537437139E+03 0.  0.
         23    2    4    4    0    0  0.16598727462E+02  0.33003346033E+03  0.18388102602E+03  0.38938939739E+03  0.92813082990E+02 0.  0.
         23    2    4    4    0    0 -0.48702931299E+02 -0.29302892335E+03  0.13693393957E+04  0.14040957459E+04  0.90313661692E+02 0.  0.
          1    1    3    3  502    0  0.99785440366E+01 -0.41965789849E+02  0.29534219671E+02  0.52277805905E+02  0.00000000000E+00 0. -1.
         -1    1    3    3    0  502  0.22125659801E+02  0.49612528614E+01 -0.46817187424E+02  0.52019303051E+02  0.00000000000E+00 0.  1.
         13    1    5    5    0    0 -0.64408620406E+01  0.42365079336E+02  0.63707531180E+02  0.76778474718E+02  0.00000000000E+00 0. -1.
        -13    1    5    5    0    0  0.23039589503E+02  0.28766838100E+03  0.12017349484E+03  0.31261092267E+03  0.00000000000E+00 0.  1.
          1    1    6    6  503    0 -0.28665657675E+02 -0.16733623937E+02  0.16525066291E+03  0.16855122572E+03  0.00000000000E+00 0. -1.
         -1    1    6    6    0  503 -0.20037273625E+02 -0.27629529941E+03  0.12040887328E+04  0.12355445202E+04  0.00000000000E+00 0.  1.
<mgrwt>
<rscale>  0 0.11146630E+04</rscale>
<asrwt>0</asrwt>
<pdfrwt beam="1">  1        1 0.26413227E+00 0.11146630E+04</pdfrwt>
<pdfrwt beam="2">  1       -1 0.27834216E-01 0.11146630E+04</pdfrwt>
<totfact> 0.53789762E+01</totfact>
</mgrwt>
</event>
<event>
12    3  0.4806716E-008  0.1158953E+04  0.7818608E-02  0.9149564E-01
         -1   -1    0    0    0  501 -0.00000000000E+00  0.00000000000E+00  0.87950997747E+03  0.87950997747E+03  0.00000000000E+00 0.  1.
          1   -1    0    0  501    0  0.00000000000E+00 -0.00000000000E+00 -0.38179547800E+03  0.38179547800E+03  0.00000000000E+00 0. -1.
         23    2    1    2    0    0  0.73774498649E+02 -0.13209619137E+02  0.45781918684E+03  0.47309756904E+03  0.92767080941E+02 0.  0.
        254    2    1    2    0    0 -0.73774498649E+02  0.13209619137E+02  0.39895312635E+02  0.78820788643E+03  0.78362163419E+03 0.  0.
         23    2    4    4    0    0  0.49020361172E+02  0.79913237682E+02 -0.34549292344E+03  0.36796046853E+03  0.85090686247E+02 0.  0.
         23    2    4    4    0    0 -0.12279485982E+03 -0.66703618545E+02  0.38538823608E+03  0.42024741790E+03  0.92497834664E+02 0.  0.
          3    1    3    3  502    0  0.12086768519E+02  0.19621762904E+02  0.22509563658E+02  0.32214655186E+02  0.00000000000E+00 0. -1.
         -3    1    3    3    0  502  0.61687730130E+02 -0.32831382041E+02  0.43530962318E+03  0.44088291386E+03  0.00000000000E+00 0.  1.
         13    1    5    5    0    0  0.42759045228E+02  0.31381114278E+00 -0.79865524915E+02  0.90592143679E+02  0.00000000000E+00 0.  1.
        -13    1    5    5    0    0  0.62613159437E+01  0.79599426539E+02 -0.26562739853E+03  0.27736832485E+03  0.00000000000E+00 0. -1.
          2    1    6    6  503    0 -0.57866993188E+01 -0.91551417352E+01  0.15609867023E+03  0.15647395105E+03  0.00000000000E+00 0. -1.
         -2    1    6    6    0  503 -0.11700816050E+03 -0.57548476810E+02  0.22928956585E+03  0.26377346685E+03  0.00000000000E+00 0.  1.
<mgrwt>
<rscale>  0 0.11589529E+04</rscale>
<asrwt>0</asrwt>
<pdfrwt beam="1">  1        1 0.58737766E-01 0.11589529E+04</pdfrwt>
<pdfrwt beam="2">  1       -1 0.13530923E+00 0.11589529E+04</pdfrwt>
<totfact> 0.29021429E+01</totfact>
</mgrwt>
</event>
<event>
12    3  0.4806716E-008  0.2337334E+04  0.7818608E-02  0.8463345E-01
         -2   -1    0    0    0  501 -0.00000000000E+00  0.00000000000E+00  0.60242915041E+03  0.60242915041E+03  0.00000000000E+00 0.  1.
          2   -1    0    0  501    0  0.00000000000E+00 -0.00000000000E+00 -0.22671250431E+04  0.22671250431E+04  0.00000000000E+00 0. -1.
         23    2    1    2    0    0 -0.83553369888E+03 -0.44115893843E+03 -0.31986474131E+03  0.10019643997E+04  0.94241363671E+02 0.  0.
        254    2    1    2    0    0  0.83553369888E+03  0.44115893843E+03 -0.13448311513E+04  0.18675897938E+04  0.88689516925E+03 0.  0.
         23    2    4    4    0    0  0.53989759290E+03 -0.41738066113E+02 -0.19495181872E+03  0.58263225976E+03  0.90678892255E+02 0.  0.
         23    2    4    4    0    0  0.29563610598E+03  0.48289700454E+03 -0.11498793326E+04  0.12849575340E+04  0.91121679399E+02 0.  0.
          1    1    3    3  502    0 -0.54182501896E+02 -0.61625235809E+01 -0.27752000943E+02  0.61187366057E+02  0.00000000000E+00 0. -1.
         -1    1    3    3    0  502 -0.78135119699E+03 -0.43499641485E+03 -0.29211274036E+03  0.94077703365E+03  0.00000000000E+00 0.  1.
         13    1    5    5    0    0  0.36299487961E+03  0.13285230245E+02 -0.11673005167E+03  0.38153333397E+03  0.00000000000E+00 0. -1.
        -13    1    5    5    0    0  0.17690271330E+03 -0.55023296358E+02 -0.78221767055E+02  0.20109892579E+03  0.00000000000E+00 0.  1.
          1    1    6    6  503    0  0.16669454359E+03  0.26099235962E+03 -0.72823007214E+03  0.79134260634E+03  0.00000000000E+00 0. -1.
         -1    1    6    6    0  503  0.12894156239E+03  0.22190464492E+03 -0.42164926049E+03  0.49361492768E+03  0.00000000000E+00 0.  1.
<mgrwt>
<rscale>  0 0.23373337E+04</rscale>
<asrwt>0</asrwt>
<pdfrwt beam="1">  1        2 0.34878846E+00 0.23373337E+04</pdfrwt>
<pdfrwt beam="2">  1       -2 0.92681409E-01 0.23373337E+04</pdfrwt>
<totfact> 0.42224772E+00</totfact>
</mgrwt>
</event>
<event>
12    3  0.4806716E-008  0.1077067E+04  0.7818608E-02  0.9227837E-01
          1   -1    0    0  501    0  0.00000000000E+00  0.00000000000E+00  0.93834042527E+03  0.93834042527E+03  0.00000000000E+00 0. -1.
         -1   -1    0    0    0  501 -0.00000000000E+00 -0.00000000000E+00 -0.30907580851E+03  0.30907580851E+03  0.00000000000E+00 0.  1.
         23    2    1    2    0    0  0.90633400144E+02  0.41864273622E+02  0.10829586438E+03  0.17494196789E+03  0.94391033797E+02 0.  0.
        254    2    1    2    0    0 -0.90633400144E+02 -0.41864273622E+02  0.52096875238E+03  0.10724742659E+04  0.93210813719E+03 0.  0.
         23    2    4    4    0    0  0.40148289813E+03  0.79870363118E+02  0.18862468293E+03  0.46004714090E+03  0.92175422108E+02 0.  0.
         23    2    4    4    0    0 -0.49211629828E+03 -0.12173463674E+03  0.33234406945E+03  0.61242712499E+03  0.87273306994E+02 0.  0.
          1    1    3    3  502    0  0.48432766914E+02  0.25123387262E+02  0.11665038044E+03  0.12877976843E+03  0.00000000000E+00 0. -1.
         -1    1    3    3    0  502  0.42200633230E+02  0.16740886360E+02 -0.83545160620E+01  0.46162199469E+02  0.00000000000E+00 0.  1.
         13    1    5    5    0    0  0.11791274281E+03  0.27611461367E+02  0.10375636047E+03  0.15947159638E+03  0.00000000000E+00 0.  1.
        -13    1    5    5    0    0  0.28357015533E+03  0.52258901750E+02  0.84868322463E+02  0.30057554452E+03  0.00000000000E+00 0. -1.
          3    1    6    6  503    0 -0.10228286707E+01 -0.35843352170E+01  0.16016228399E+02  0.16444245485E+02  0.00000000000E+00 0. -1.
         -3    1    6    6    0  503 -0.49109346961E+03 -0.11815030152E+03  0.31632784105E+03  0.59598287950E+03  0.00000000000E+00 0.  1.
<mgrwt>
<rscale>  0 0.10770670E+04</rscale>
<asrwt>0</asrwt>
<pdfrwt beam="1">  1        1 0.14436006E+00 0.10770670E+04</pdfrwt>
<pdfrwt beam="2">  1       -1 0.47550125E-01 0.10770670E+04</pdfrwt>
<totfact> 0.74591127E+01</totfact>
</mgrwt>
</event>
<event>
12    3  0.4806716E-008  0.2098457E+04  0.7818608E-02  0.8561923E-01
         -2   -1    0    0    0  501 -0.00000000000E+00  0.00000000000E+00  0.27779963623E+04  0.27779963623E+04  0.00000000000E+00 0.  1.
          2   -1    0    0  501    0  0.00000000000E+00 -0.00000000000E+00 -0.39628589324E+03  0.39628589324E+03  0.00000000000E+00 0. -1.
         23    2    1    2    0    0 -0.11676175198E+03  0.61775788275E+03  0.18496656417E+04  0.19562636637E+04  0.10220776442E+03 0.  0.
        254    2    1    2    0    0  0.11676175198E+03 -0.61775788275E+03  0.53204482734E+03  0.12180185919E+04  0.89735137126E+03 0.  0.
         23    2    4    4    0    0  0.59030147764E+02  0.17192590621E+03 -0.73565497720E+02  0.21705522818E+03  0.93048450042E+02 0.  0.
         23    2    4    4    0    0  0.57731604220E+02 -0.78968378895E+03  0.60561032506E+03  0.10009633637E+04  0.90721359328E+02 0.  0.
          1    1    3    3  502    0 -0.25324771757E+01  0.79443307816E+02  0.15037471078E+03  0.17008881868E+03  0.00000000000E+00 0. -1.
         -1    1    3    3    0  502 -0.11422927481E+03  0.53831457493E+03  0.16992909310E+04  0.17861748450E+04  0.00000000000E+00 0.  1.
         13    1    5    5    0    0  0.46741397170E+02  0.11136838857E+03 -0.92827691647E+02  0.15233074712E+03  0.00000000000E+00 0. -1.
        -13    1    5    5    0    0  0.12288750593E+02  0.60557517631E+02  0.19262193927E+02  0.64724481054E+02  0.00000000000E+00 0.  1.
          1    1    6    6  503    0  0.60054387133E+02 -0.46935335495E+03  0.31495029876E+03  0.56841251913E+03  0.00000000000E+00 0. -1.
         -1    1    6    6    0  503 -0.23227829129E+01 -0.32033043401E+03  0.29066002630E+03  0.43255084460E+03  0.00000000000E+00 0.  1.
<mgrwt>
<rscale>  0 0.20984573E+04</rscale>
<asrwt>0</asrwt>
<pdfrwt beam="1">  1        2 0.60967062E-01 0.20984573E+04</pdfrwt>
<pdfrwt beam="2">  1       -2 0.42738404E+00 0.20984573E+04</pdfrwt>
<totfact> 0.36357462E-01</totfact>
</mgrwt>
</event>
<event>
12    3  0.4806716E-008  0.2588789E+04  0.7818608E-02  0.8372019E-01
         -2   -1    0    0    0  501 -0.00000000000E+00  0.00000000000E+00  0.12228758911E+04  0.12228758911E+04  0.00000000000E+00 0.  1.
          2   -1    0    0  501    0  0.00000000000E+00 -0.00000000000E+00 -0.13700962917E+04  0.13700962917E+04  0.00000000000E+00 0. -1.
         23    2    1    2    0    0  0.23044686570E+03  0.12231716273E+03  0.10414453826E+04  0.10776902033E+04  0.93490336490E+02 0.  0.
        254    2    1    2    0    0 -0.23044686570E+03 -0.12231716273E+03 -0.11886657833E+04  0.15152819795E+04  0.90282107143E+03 0.  0.
         23    2    4    4    0    0 -0.48191367528E+03  0.40345512132E+02 -0.30774957130E+03  0.58045927637E+03  0.91403622033E+02 0.  0.
         23    2    4    4    0    0  0.25146680958E+03 -0.16266267486E+03 -0.88091621197E+03  0.93482270317E+03  0.90473265358E+02 0.  0.
          4    1    3    3  502    0  0.12847352469E+03  0.47505278772E+02  0.37231431305E+03  0.39671166577E+03  0.00000000000E+00 0. -1.
         -4    1    3    3    0  502  0.10197334101E+03  0.74811883956E+02  0.66913106956E+03  0.68097853748E+03  0.00000000000E+00 0.  1.
         13    1    5    5    0    0  0.32266173097E+01 -0.33958369969E+01 -0.53825036296E+01  0.71354126366E+01  0.00000000000E+00 0.  1.
        -13    1    5    5    0    0 -0.48514029259E+03  0.43741349128E+02 -0.30236706767E+03  0.57332386374E+03  0.00000000000E+00 0. -1.
          1    1    6    6  503    0  0.24245746667E+03 -0.12481840402E+03 -0.79609419965E+03  0.84150533679E+03  0.00000000000E+00 0. -1.
         -1    1    6    6    0  503  0.90093429133E+01 -0.37844270844E+02 -0.84822012318E+02  0.93317366385E+02  0.00000000000E+00 0.  1.
<mgrwt>
<rscale>  0 0.25887895E+04</rscale>
<asrwt>0</asrwt>
<pdfrwt beam="1">  1        2 0.21078405E+00 0.25887895E+04</pdfrwt>
<pdfrwt beam="2">  1       -2 0.18813475E+00 0.25887895E+04</pdfrwt>
<totfact> 0.21268070E+00</totfact>
</mgrwt>
</event>
<event>
12    3  0.4806716E-008  0.1728043E+04  0.7818608E-02  0.8745530E-01
         -1   -1    0    0    0  501 -0.00000000000E+00  0.00000000000E+00  0.41544777907E+03  0.41544777907E+03  0.00000000000E+00 0.  1.
          1   -1    0    0  501    0  0.00000000000E+00 -0.00000000000E+00 -0.17969363665E+04  0.17969363665E+04  0.00000000000E+00 0. -1.
         23    2    1    2    0    0  0.39493015487E+02  0.43567834777E+03  0.67194654087E+02  0.45244345222E+03  0.93886287209E+02 0.  0.
        254    2    1    2    0    0 -0.39493015487E+02 -0.43567834777E+03 -0.14486832415E+04  0.17599406933E+04  0.89851699420E+03 0.  0.
         23    2    4    4    0    0  0.15638490661E+03 -0.40457019680E+02 -0.12557698309E+04  0.12694091571E+04  0.91371388123E+02 0.  0.
         23    2    4    4    0    0 -0.19587792210E+03 -0.39522132809E+03 -0.19291341062E+03  0.49053153622E+03  0.94008220327E+02 0.  0.
          1    1    3    3  502    0  0.58742977941E+02  0.15022836152E+03  0.26410790097E+02  0.16345283080E+03  0.00000000000E+00 0. -1.
         -1    1    3    3    0  502 -0.19249962454E+02  0.28544998625E+03  0.40783863989E+02  0.28899062142E+03  0.00000000000E+00 0.  1.
         13    1    5    5    0    0  0.67229237986E+02  0.22167289985E+01 -0.81119251721E+03  0.81397664850E+03  0.00000000000E+00 0. -1.
        -13    1    5    5    0    0  0.89155668623E+02 -0.42673748678E+02 -0.44457731365E+03  0.45543250860E+03  0.00000000000E+00 0.  1.
          2    1    6    6  503    0 -0.15424679455E+03 -0.34045853347E+03 -0.19526313047E+03  0.42170105142E+03  0.00000000000E+00 0. -1.
         -2    1    6    6    0  503 -0.41631127549E+02 -0.54762794619E+02  0.23497198537E+01  0.68830484808E+02  0.00000000000E+00 0.  1.
<mgrwt>
<rscale>  0 0.17280431E+04</rscale>
<asrwt>0</asrwt>
<pdfrwt beam="1">  1        1 0.27645174E+00 0.17280431E+04</pdfrwt>
<pdfrwt beam="2">  1       -1 0.63915044E-01 0.17280431E+04</pdfrwt>
<totfact> 0.96480966E+00</totfact>
</mgrwt>
</event>
<event>
12    3  0.4806716E-008  0.1716948E+04  0.7818608E-02  0.8751757E-01
         -2   -1    0    0    0  501 -0.00000000000E+00  0.00000000000E+00  0.27244375329E+03  0.27244375329E+03  0.00000000000E+00 0.  1.
          2   -1    0    0  501    0  0.00000000000E+00 -0.00000000000E+00 -0.27050644047E+04  0.27050644047E+04  0.00000000000E+00 0. -1.
         23    2    1    2    0    0  0.50863252687E+03  0.95629543946E+02 -0.27143200751E+03  0.59215984653E+03  0.95529535107E+02 0.  0.
        254    2    1    2    0    0 -0.50863252687E+03 -0.95629543946E+02 -0.21611886439E+04  0.23853483115E+04  0.86677457012E+03 0.  0.
         23    2    4    4    0    0 -0.51576925424E+03  0.73885648097E+01 -0.51910639841E+03  0.73723515500E+03  0.89284412914E+02 0.  0.
         23    2    4    4    0    0  0.71367273642E+01 -0.10301810876E+03 -0.16420822455E+04  0.16481131565E+04  0.95808203956E+02 0.  0.
          4    1    3    3  502    0  0.35665147109E+02 -0.17849619781E+02 -0.19431660220E+02  0.44364412129E+02  0.00000000000E+00 0. -1.
         -4    1    3    3    0  502  0.47296737976E+03  0.11347916373E+03 -0.25200034729E+03  0.54779543440E+03  0.00000000000E+00 0.  1.
         13    1    5    5    0    0 -0.35152586796E+03 -0.10094262283E+02 -0.29612018918E+03  0.45973850873E+03  0.00000000000E+00 0.  1.
        -13    1    5    5    0    0 -0.16424338627E+03  0.17482827093E+02 -0.22298620923E+03  0.27749664626E+03  0.00000000000E+00 0. -1.
          2    1    6    6  503    0 -0.80345768173E+00 -0.46197852307E+02 -0.21643639041E+03  0.22131334843E+03  0.00000000000E+00 0. -1.
         -2    1    6    6    0  503  0.79401850459E+01 -0.56820256449E+02 -0.14256458551E+04  0.14267998080E+04  0.00000000000E+00 0.  1.
<mgrwt>
<rscale>  0 0.17169483E+04</rscale>
<asrwt>0</asrwt>
<pdfrwt beam="1">  1        2 0.41616376E+00 0.17169483E+04</pdfrwt>
<pdfrwt beam="2">  1       -2 0.41914423E-01 0.17169483E+04</pdfrwt>
<totfact> 0.13553465E+01</totfact>
</mgrwt>
</event>
<event>
12    3  0.4806716E-008  0.2475929E+04  0.7818608E-02  0.8411612E-01
         -3   -1    0    0    0  501 -0.00000000000E+00  0.00000000000E+00  0.19445726344E+04  0.19445726344E+04  0.00000000000E+00 0.  1.
          3   -1    0    0  501    0  0.00000000000E+00 -0.00000000000E+00 -0.78811953547E+03  0.78811953547E+03  0.00000000000E+00 0. -1.
         23    2    1    2    0    0  0.63370837696E+03 -0.62038922412E+03  0.12146806565E+04  0.15066727475E+04  0.90247295712E+02 0.  0.
        254    2    1    2    0    0 -0.63370837696E+03  0.62038922412E+03 -0.58227557572E+02  0.12260194223E+04  0.84454963091E+03 0.  0.
         23    2    4    4    0    0  0.48316676939E+02  0.40662487378E+03 -0.23971193336E+03  0.48324620388E+03  0.91579437239E+02 0.  0.
         23    2    4    4    0    0 -0.68202505390E+03  0.21376435035E+03  0.18148437579E+03  0.74277321847E+03  0.89006200875E+02 0.  0.
          4    1    3    3  502    0  0.25607395706E+03 -0.31307807359E+03  0.56063901170E+03  0.69130879720E+03  0.00000000000E+00 0. -1.
         -4    1    3    3    0  502  0.37763441990E+03 -0.30731115054E+03  0.65404164475E+03  0.81536395027E+03  0.00000000000E+00 0.  1.
         13    1    5    5    0    0 -0.13462424025E+02  0.46222114854E+02 -0.56583871866E+02  0.74293036804E+02  0.00000000000E+00 0. -1.
        -13    1    5    5    0    0  0.61779100964E+02  0.36040275892E+03 -0.18312806149E+03  0.40895316707E+03  0.00000000000E+00 0.  1.
          2    1    6    6  503    0 -0.11775539045E+02  0.18798589586E+02  0.41131584365E+01  0.22560327182E+02  0.00000000000E+00 0. -1.
         -2    1    6    6    0  503 -0.67024951485E+03  0.19496576076E+03  0.17737121735E+03  0.72021289129E+03  0.00000000000E+00 0.  1.
<mgrwt>
<rscale>  0 0.24759287E+04</rscale>
<asrwt>0</asrwt>
<pdfrwt beam="1">  1        3 0.12124916E+00 0.24759287E+04</pdfrwt>
<pdfrwt beam="2">  1       -3 0.29916502E+00 0.24759287E+04</pdfrwt>
<totfact> 0.49393397E-02</totfact>
</mgrwt>
</event>
<event>
12    3  0.4806716E-008  0.1481807E+04  0.7818608E-02  0.8896642E-01
          1   -1    0    0  501    0  0.00000000000E+00  0.00000000000E+00  0.89116242421E+03  0.89116242421E+03  0.00000000000E+00 0. -1.
         -1   -1    0    0    0  501 -0.00000000000E+00 -0.00000000000E+00 -0.61597953258E+03  0.61597953258E+03  0.00000000000E+00 0.  1.
         23    2    1    2    0    0  0.33485693625E+03  0.10332347681E+03 -0.21908742474E+03  0.42272560033E+03  0.88841009016E+02 0.  0.
        254    2    1    2    0    0 -0.33485693625E+03 -0.10332347681E+03  0.49427031637E+03  0.10844163565E+04  0.89936131776E+03 0.  0.
         23    2    4    4    0    0 -0.89304142325E+02  0.72227828360E+00 -0.25384249315E+03  0.28438932315E+03  0.92008283713E+02 0.  0.
         23    2    4    4    0    0 -0.24555279393E+03 -0.10404575509E+03  0.74811280952E+03  0.80002703330E+03  0.96170600941E+02 0.  0.
          3    1    3    3  502    0  0.11165248201E+03  0.19540320999E+01 -0.10122008910E+03  0.15071695796E+03  0.00000000000E+00 0. -1.
         -3    1    3    3    0  502  0.22320445424E+03  0.10136944471E+03 -0.11786733564E+03  0.27200864237E+03  0.00000000000E+00 0.  1.
         13    1    5    5    0    0 -0.68300443958E+02 -0.75304257826E+01 -0.66269256901E+02  0.95463460903E+02  0.00000000000E+00 0. -1.
        -13    1    5    5    0    0 -0.21003698366E+02  0.82527040662E+01 -0.18757323625E+03  0.18892586225E+03  0.00000000000E+00 0.  1.
          2    1    6    6  503    0 -0.49293639447E+02 -0.35216643812E+02  0.29927196641E+03  0.30534207828E+03  0.00000000000E+00 0. -1.
         -2    1    6    6    0  503 -0.19625915448E+03 -0.68829111282E+02  0.44884084311E+03  0.49468495502E+03  0.00000000000E+00 0.  1.
<mgrwt>
<rscale>  0 0.14818068E+04</rscale>
<asrwt>0</asrwt>
<pdfrwt beam="1">  1        1 0.13710191E+00 0.14818068E+04</pdfrwt>
<pdfrwt beam="2">  1       -1 0.94766082E-01 0.14818068E+04</pdfrwt>
<totfact> 0.19307722E+01</totfact>
</mgrwt>
</event>
<event>
12    3  0.4806716E-008  0.1797508E+04  0.7818608E-02  0.8707626E-01
         -1   -1    0    0    0  501 -0.00000000000E+00  0.00000000000E+00  0.97986321045E+03  0.97986321045E+03  0.00000000000E+00 0.  1.
          1   -1    0    0  501    0  0.00000000000E+00 -0.00000000000E+00 -0.82435894686E+03  0.82435894686E+03  0.00000000000E+00 0. -1.
         23    2    1    2    0    0 -0.21444570556E+03  0.12853046165E+03  0.68742836465E+03  0.73709118476E+03  0.90766832653E+02 0.  0.
        254    2    1    2    0    0  0.21444570556E+03 -0.12853046165E+03 -0.53192410106E+03  0.10671309726E+04  0.89068413205E+03 0.  0.
         23    2    4    4    0    0  0.36588494113E+03 -0.29378800326E+03  0.50734574050E+01  0.47797669511E+03  0.90844923330E+02 0.  0.
         23    2    4    4    0    0 -0.15143923557E+03  0.16525754161E+03 -0.53699755847E+03  0.58915427744E+03  0.92154694370E+02 0.  0.
          1    1    3    3  502    0 -0.11426049428E+02 -0.62972965468E+01  0.10387311148E+03  0.10468922503E+03  0.00000000000E+00 0. -1.
         -1    1    3    3    0  502 -0.20301965613E+03  0.13482775820E+03  0.58355525318E+03  0.63240195973E+03  0.00000000000E+00 0.  1.
         13    1    5    5    0    0  0.33539553123E+03 -0.29160549633E+03 -0.85310502142E+01  0.44451851106E+03  0.00000000000E+00 0.  1.
        -13    1    5    5    0    0  0.30489409896E+02 -0.21825069342E+01  0.13604507619E+02  0.33458184050E+02  0.00000000000E+00 0. -1.
          1    1    6    6  503    0 -0.97685424272E+02  0.41386927341E+02 -0.26607292873E+03  0.28644392692E+03  0.00000000000E+00 0. -1.
         -1    1    6    6    0  503 -0.53753811300E+02  0.12387061427E+03 -0.27092462974E+03  0.30271035051E+03  0.00000000000E+00 0.  1.
<mgrwt>
<rscale>  0 0.17975083E+04</rscale>
<asrwt>0</asrwt>
<pdfrwt beam="1">  1        1 0.12682445E+00 0.17975083E+04</pdfrwt>
<pdfrwt beam="2">  1       -1 0.15074819E+00 0.17975083E+04</pdfrwt>
<totfact> 0.68431951E+00</totfact>
</mgrwt>
</event>
<event>
12    3  0.4806716E-008  0.1169141E+04  0.7818608E-02  0.9140305E-01
         -1   -1    0    0    0  501 -0.00000000000E+00  0.00000000000E+00  0.20132681362E+03  0.20132681362E+03  0.00000000000E+00 0.  1.
          1   -1    0    0  501    0  0.00000000000E+00 -0.00000000000E+00 -0.16973516634E+04  0.16973516634E+04  0.00000000000E+00 0. -1.
         23    2    1    2    0    0  0.16577776868E+03 -0.36126959142E+02 -0.72266666811E+02  0.20482042057E+03  0.89115137812E+02 0.  0.
        254    2    1    2    0    0 -0.16577776868E+03  0.36126959142E+02 -0.14237581830E+04  0.16938580565E+04  0.90182056202E+03 0.  0.
         23    2    4    4    0    0  0.94458661180E+02 -0.28734026053E+03 -0.14762073573E+03  0.34850497101E+03  0.90426595701E+02 0.  0.
         23    2    4    4    0    0 -0.26023642986E+03  0.32346721967E+03 -0.12761374473E+04  0.13453530855E+04  0.95362983514E+02 0.  0.
          1    1    3    3  502    0  0.10549604983E+03  0.10519866501E+02 -0.72780442329E+02  0.12859656646E+03  0.00000000000E+00 0. -1.
         -1    1    3    3    0  502  0.60281718850E+02 -0.46646825643E+02  0.51377551869E+00  0.76223854110E+02  0.00000000000E+00 0.  1.
         13    1    5    5    0    0  0.99574267514E+02 -0.28821991769E+03 -0.15288226119E+03  0.34111397141E+03  0.00000000000E+00 0. -1.
        -13    1    5    5    0    0 -0.51156063341E+01  0.87965716154E+00  0.52615254640E+01  0.73909996006E+01  0.00000000000E+00 0.  1.
          1    1    6    6  503    0 -0.89403322156E+02  0.10757319106E+03 -0.58294269611E+03  0.59948905945E+03  0.00000000000E+00 0. -1.
         -1    1    6    6    0  503 -0.17083310770E+03  0.21589402861E+03 -0.69319475116E+03  0.74586402602E+03  0.00000000000E+00 0.  1.
<mgrwt>
<rscale>  0 0.11691405E+04</rscale>
<asrwt>0</asrwt>
<pdfrwt beam="1">  1        1 0.26113103E+00 0.11691405E+04</pdfrwt>
<pdfrwt beam="2">  1       -1 0.30973355E-01 0.11691405E+04</pdfrwt>
<totfact> 0.45806340E+01</totfact>
</mgrwt>
</event>
<event>
12    3  0.4806716E-008  0.1422639E+04  0.7818608E-02  0.8937593E-01
          1   -1    0    0  501    0  0.00000000000E+00  0.00000000000E+00  0.16062350207E+04  0.16062350207E+04  0.00000000000E+00 0. -1.
         -1   -1    0    0    0  501 -0.00000000000E+00 -0.00000000000E+00 -0.31500693103E+03  0.31500693103E+03  0.00000000000E+00 0.  1.
         23    2    1    2    0    0 -0.41698878052E+03 -0.17441894484E+02  0.41238107410E+03  0.59556664026E+03  0.10226245619E+03 0.  0.
        254    2    1    2    0    0  0.41698878052E+03  0.17441894484E+02  0.87884701554E+03  0.13256753114E+04  0.90047714679E+03 0.  0.
         23    2    4    4    0    0 -0.12044408635E+03  0.26080729621E+03  0.51692606287E+02  0.30564366763E+03  0.90657058873E+02 0.  0.
         23    2    4    4    0    0  0.53743286688E+03 -0.24336540173E+03  0.82715440926E+03  0.10200316438E+04  0.90660534265E+02 0.  0.
          1    1    3    3  502    0 -0.13491506867E+02 -0.17413648640E+02  0.58632164620E+01  0.22795464983E+02  0.00000000000E+00 0. -1.
         -1    1    3    3    0  502 -0.40349727366E+03 -0.28245843532E-01  0.40651785764E+03  0.57277117528E+03  0.00000000000E+00 0.  1.
         13    1    5    5    0    0 -0.10998228452E+03  0.23348609981E+03  0.14741768345E+02  0.25851340670E+03  0.00000000000E+00 0. -1.
        -13    1    5    5    0    0 -0.10461801832E+02  0.27321196408E+02  0.36950837942E+02  0.47130260930E+02  0.00000000000E+00 0.  1.
          1    1    6    6  503    0  0.15175855234E+03 -0.11043775455E+03  0.23046181175E+03  0.29722012468E+03  0.00000000000E+00 0.  1.
         -1    1    6    6    0  503  0.38567431454E+03 -0.13292764718E+03  0.59669259751E+03  0.72281151914E+03  0.00000000000E+00 0. -1.
<mgrwt>
<rscale>  0 0.14226386E+04</rscale>
<asrwt>0</asrwt>
<pdfrwt beam="1">  1        1 0.24711308E+00 0.14226386E+04</pdfrwt>
<pdfrwt beam="2">  1       -1 0.48462606E-01 0.14226386E+04</pdfrwt>
<totfact> 0.22907289E+01</totfact>
</mgrwt>
</event>
<event>
12    3  0.4806716E-008  0.1377796E+04  0.7818608E-02  0.8970049E-01
         -1   -1    0    0    0  501 -0.00000000000E+00  0.00000000000E+00  0.96289296193E+03  0.96289296193E+03  0.00000000000E+00 0.  1.
          1   -1    0    0  501    0  0.00000000000E+00 -0.00000000000E+00 -0.49286949804E+03  0.49286949804E+03  0.00000000000E+00 0. -1.
         23    2    1    2    0    0 -0.32809861724E+03 -0.95849267745E+02  0.63914678227E+02  0.35938254169E+03  0.90746572470E+02 0.  0.
        254    2    1    2    0    0  0.32809861724E+03  0.95849267745E+02  0.40610878566E+03  0.10963799183E+04  0.95931683748E+03 0.  0.
         23    2    4    4    0    0 -0.24363326964E+03 -0.23341846259E+03  0.98766188555E+02  0.36298171096E+03  0.90330580283E+02 0.  0.
         23    2    4    4    0    0  0.57173188688E+03  0.32926773033E+03  0.30734259711E+03  0.73339820733E+03  0.90104771282E+02 0.  0.
          1    1    3    3  502    0 -0.32115442751E+03 -0.78637129382E+02  0.46433882846E+02  0.33388631284E+03  0.00000000000E+00 0. -1.
         -1    1    3    3    0  502 -0.69441897249E+01 -0.17212138363E+02  0.17480795382E+02  0.25496228842E+02  0.00000000000E+00 0.  1.
         13    1    5    5    0    0 -0.15897459470E+03 -0.12108475789E+03  0.97408713316E+02  0.22231261274E+03  0.00000000000E+00 0. -1.
        -13    1    5    5    0    0 -0.84658674938E+02 -0.11233370470E+03  0.13574752395E+01  0.14066909822E+03  0.00000000000E+00 0.  1.
          4    1    6    6  503    0  0.48863077245E+03  0.30358821838E+03  0.23965571243E+03  0.62318592621E+03  0.00000000000E+00 0. -1.
         -4    1    6    6    0  503  0.83101114425E+02  0.25679511957E+02  0.67686884671E+02  0.11021228112E+03  0.00000000000E+00 0.  1.
<mgrwt>
<rscale>  0 0.13777962E+04</rscale>
<asrwt>0</asrwt>
<pdfrwt beam="1">  1        1 0.75826077E-01 0.13777962E+04</pdfrwt>
<pdfrwt beam="2">  1       -1 0.14813738E+00 0.13777962E+04</pdfrwt>
<totfact> 0.15935778E+01</totfact>
</mgrwt>
</event>
<event>
12    3  0.4806716E-008  0.1263031E+04  0.7818608E-02  0.9059407E-01
          1   -1    0    0  501    0  0.00000000000E+00  0.00000000000E+00  0.76920455210E+03  0.76920455210E+03  0.00000000000E+00 0. -1.
         -1   -1    0    0    0  501 -0.00000000000E+00 -0.00000000000E+00 -0.51847292299E+03  0.51847292299E+03  0.00000000000E+00 0.  1.
         23    2    1    2    0    0 -0.32776070261E+02  0.11429445276E+03 -0.22087629806E+03  0.26648947762E+03  0.89960046269E+02 0.  0.
        254    2    1    2    0    0  0.32776070261E+02 -0.11429445276E+03  0.47160792717E+03  0.10211879975E+04  0.89792727796E+03 0.  0.
         23    2    4    4    0    0  0.60168889660E+02 -0.47407326972E+03  0.42549902242E+03  0.64559901088E+03  0.85923829187E+02 0.  0.
         23    2    4    4    0    0 -0.27392819400E+02  0.35977881695E+03  0.46108904744E+02  0.37558898659E+03  0.93540857771E+02 0.  0.
          2    1    3    3  502    0  0.11223213778E+02  0.72845917322E+02 -0.61358929467E+02  0.95903109560E+02  0.00000000000E+00 0. -1.
         -2    1    3    3    0  502 -0.43999284038E+02  0.41448535441E+02 -0.15951736859E+03  0.17058636806E+03  0.00000000000E+00 0.  1.
         13    1    5    5    0    0  0.40546845828E+02 -0.96253424170E+02  0.65017409921E+02  0.12302858190E+03  0.00000000000E+00 0.  1.
        -13    1    5    5    0    0  0.19622043833E+02 -0.37781984554E+03  0.36048161250E+03  0.52257042898E+03  0.00000000000E+00 0. -1.
          2    1    6    6  503    0  0.19688147060E+02  0.16710934490E+02  0.88891241798E+01  0.27311078244E+02  0.00000000000E+00 0. -1.
         -2    1    6    6    0  503 -0.47080966460E+02  0.34306788246E+03  0.37219780564E+02  0.34827790835E+03  0.00000000000E+00 0.  1.
<mgrwt>
<rscale>  0 0.12630309E+04</rscale>
<asrwt>0</asrwt>
<pdfrwt beam="1">  1        1 0.11833916E+00 0.12630309E+04</pdfrwt>
<pdfrwt beam="2">  1       -1 0.79765065E-01 0.12630309E+04</pdfrwt>
<totfact> 0.36417590E+01</totfact>
</mgrwt>
</event>
<event>
12    3  0.4806716E-008  0.1948902E+04  0.7818608E-02  0.8630890E-01
          1   -1    0    0  501    0  0.00000000000E+00  0.00000000000E+00  0.26121389984E+04  0.26121389984E+04  0.00000000000E+00 0. -1.
         -1   -1    0    0    0  501 -0.00000000000E+00 -0.00000000000E+00 -0.36351626547E+03  0.36351626547E+03  0.00000000000E+00 0.  1.
         23    2    1    2    0    0 -0.72354866047E+03 -0.24037600708E+03  0.13554988555E+04  0.15576250570E+04  0.86691302000E+02 0.  0.
        254    2    1    2    0    0  0.72354866047E+03  0.24037600708E+03  0.89312387740E+03  0.14180302069E+04  0.79488119776E+03 0.  0.
         23    2    4    4    0    0 -0.59002819702E+02 -0.17428624023E+03  0.11300505782E+03  0.23436416382E+03  0.91100998492E+02 0.  0.
         23    2    4    4    0    0  0.78255148017E+03  0.41466224730E+03  0.78011881958E+03  0.11836660431E+04  0.90268103446E+02 0.  0.
          4    1    3    3  502    0 -0.70714509991E+03 -0.23962027149E+03  0.12938555322E+04  0.14938320538E+04  0.00000000000E+00 0. -1.
         -4    1    3    3    0  502 -0.16403560555E+02 -0.75573559117E+00  0.61643323384E+02  0.63793003167E+02  0.00000000000E+00 0.  1.
         13    1    5    5    0    0 -0.60814432999E+02 -0.18459344171E+03  0.10334059155E+03  0.22011908560E+03  0.00000000000E+00 0. -1.
        -13    1    5    5    0    0  0.18116132974E+01  0.10307201487E+02  0.96644662681E+01  0.14245078219E+02  0.00000000000E+00 0.  1.
          2    1    6    6  503    0  0.42362896204E+03  0.24916766050E+03  0.37992945945E+03  0.62120239430E+03  0.00000000000E+00 0. -1.
         -2    1    6    6    0  503  0.35892251813E+03  0.16549458681E+03  0.40018936013E+03  0.56246364882E+03  0.00000000000E+00 0.  1.
<mgrwt>
<rscale>  0 0.19489023E+04</rscale>
<asrwt>0</asrwt>
<pdfrwt beam="1">  1        1 0.40186753E+00 0.19489023E+04</pdfrwt>
<pdfrwt beam="2">  1       -1 0.55925581E-01 0.19489023E+04</pdfrwt>
<totfact> 0.34126473E+00</totfact>
</mgrwt>
</event>
<event>
12    3  0.4806716E-008  0.2655592E+04  0.7818608E-02  0.8349559E-01
         -2   -1    0    0    0  501 -0.00000000000E+00  0.00000000000E+00  0.79041797731E+03  0.79041797731E+03  0.00000000000E+00 0.  1.
          2   -1    0    0  501    0  0.00000000000E+00 -0.00000000000E+00 -0.22305182617E+04  0.22305182617E+04  0.00000000000E+00 0. -1.
         23    2    1    2    0    0  0.43422595821E+03  0.97571131600E+03 -0.11963105345E+04  0.16062921553E+04  0.91928441148E+02 0.  0.
        254    2    1    2    0    0 -0.43422595821E+03 -0.97571131600E+03 -0.24378974992E+03  0.14146440837E+04  0.89510875681E+03 0.  0.
         23    2    4    4    0    0 -0.13049238310E+03 -0.37908617524E+03 -0.53802321961E+03  0.67735268951E+03  0.92752848166E+02 0.  0.
         23    2    4    4    0    0 -0.30373357512E+03 -0.59662514076E+03  0.29423346969E+03  0.73729139422E+03  0.93859586993E+02 0.  0.
          3    1    3    3  502    0  0.25772435012E+03  0.63590413730E+03 -0.82318448849E+03  0.10716476168E+04  0.00000000000E+00 0. -1.
         -3    1    3    3    0  502  0.17650160810E+03  0.33980717870E+03 -0.37312604599E+03  0.53464453851E+03  0.00000000000E+00 0.  1.
         13    1    5    5    0    0 -0.10391666216E+03 -0.33882698392E+03 -0.41813619067E+03  0.54812432135E+03  0.00000000000E+00 0. -1.
        -13    1    5    5    0    0 -0.26575720931E+02 -0.40259191316E+02 -0.11988702894E+03  0.12922836816E+03  0.00000000000E+00 0.  1.
          2    1    6    6  503    0 -0.15511236341E+03 -0.36646116715E+03  0.21388643843E+03  0.45177543189E+03  0.00000000000E+00 0. -1.
         -2    1    6    6    0  503 -0.14862121170E+03 -0.23016397361E+03  0.80347031254E+02  0.28551596233E+03  0.00000000000E+00 0.  1.
<mgrwt>
<rscale>  0 0.26555916E+04</rscale>
<asrwt>0</asrwt>
<pdfrwt beam="1">  1        2 0.34315666E+00 0.26555916E+04</pdfrwt>
<pdfrwt beam="2">  1       -2 0.12160276E+00 0.26555916E+04</pdfrwt>
<totfact> 0.22448942E+00</totfact>
</mgrwt>
</event>
<event>
12    3  0.4806716E-008  0.1109013E+04  0.7818608E-02  0.9196452E-01
          1   -1    0    0  501    0  0.00000000000E+00  0.00000000000E+00  0.23488911280E+04  0.23488911280E+04  0.00000000000E+00 0. -1.
         -1   -1    0    0    0  501 -0.00000000000E+00 -0.00000000000E+00 -0.13090312320E+03  0.13090312320E+03  0.00000000000E+00 0.  1.
         23    2    1    2    0    0  0.48324089499E+02  0.38330786468E+01  0.72759110685E+03  0.73479407777E+03  0.90463295543E+02 0.  0.
        254    2    1    2    0    0 -0.48324089499E+02 -0.38330786468E+01  0.14903968979E+04  0.17450001734E+04  0.90630722261E+03 0.  0.
         23    2    4    4    0    0  0.40132123023E+03 -0.59862086559E+02  0.48737576442E+03  0.64043924626E+03  0.89359348475E+02 0.  0.
         23    2    4    4    0    0 -0.44964531972E+03  0.56029007912E+02  0.10030211335E+04  0.11045609272E+04  0.93184141783E+02 0.  0.
          1    1    3    3  502    0  0.68722289535E+02 -0.16483070398E+02  0.42491755622E+03  0.43075442456E+03  0.00000000000E+00 0. -1.
         -1    1    3    3    0  502 -0.20398200037E+02  0.20316149044E+02  0.30267355063E+03  0.30403965322E+03  0.00000000000E+00 0.  1.
         13    1    5    5    0    0  0.50477062062E+02 -0.39265560063E+02  0.79784926734E+02  0.10225141826E+03  0.00000000000E+00 0.  1.
        -13    1    5    5    0    0  0.35084416816E+03 -0.20596526496E+02  0.40759083769E+03  0.53818782800E+03  0.00000000000E+00 0. -1.
          1    1    6    6  503    0 -0.40333967868E+03  0.78675844555E+02  0.88322032109E+03  0.97414111940E+03  0.00000000000E+00 0. -1.
         -1    1    6    6    0  503 -0.46305641049E+02 -0.22646836643E+02  0.11980081241E+03  0.13041980776E+03  0.00000000000E+00 0.  1.
<mgrwt>
<rscale>  0 0.11090125E+04</rscale>
<asrwt>0</asrwt>
<pdfrwt beam="1">  1        1 0.36136784E+00 0.11090125E+04</pdfrwt>
<pdfrwt beam="2">  1       -1 0.20138944E-01 0.11090125E+04</pdfrwt>
<totfact> 0.34918064E+01</totfact>
</mgrwt>
</event>
<event>
12    3  0.4806716E-008  0.1533861E+04  0.7818608E-02  0.8862243E-01
         -2   -1    0    0    0  501 -0.00000000000E+00  0.00000000000E+00  0.58624703971E+03  0.58624703971E+03  0.00000000000E+00 0.  1.
          2   -1    0    0  501    0  0.00000000000E+00 -0.00000000000E+00 -0.10033014240E+04  0.10033014240E+04  0.00000000000E+00 0. -1.
         23    2    1    2    0    0  0.46224767115E+03 -0.34199997461E+02  0.49773403989E+02  0.47579112793E+03  0.95169618885E+02 0.  0.
        254    2    1    2    0    0 -0.46224767115E+03  0.34199997461E+02 -0.46682778831E+03  0.11137573358E+04  0.89871278494E+03 0.  0.
         23    2    4    4    0    0 -0.90433478786E+02  0.38144466200E+03  0.21157003937E+02  0.40296299388E+03  0.90847737297E+02 0.  0.
         23    2    4    4    0    0 -0.37181419237E+03 -0.34724466454E+03 -0.48798479225E+03  0.71079434192E+03  0.90965863632E+02 0.  0.
          3    1    3    3  502    0  0.30939067336E+03 -0.39431339387E+02  0.74985178976E+02  0.32078060470E+03  0.00000000000E+00 0. -1.
         -3    1    3    3    0  502  0.15285699779E+03  0.52313419257E+01 -0.25211774987E+02  0.15501052323E+03  0.00000000000E+00 0.  1.
         13    1    5    5    0    0 -0.48344501401E+02  0.30047253028E+03 -0.15231850545E+02  0.30471780641E+03  0.00000000000E+00 0. -1.
        -13    1    5    5    0    0 -0.42088977386E+02  0.80972131715E+02  0.36388854482E+02  0.98245187476E+02  0.00000000000E+00 0.  1.
          1    1    6    6  503    0 -0.25099523486E+03 -0.24050977664E+03 -0.27262191969E+03  0.44177626881E+03  0.00000000000E+00 0. -1.
         -1    1    6    6    0  503 -0.12081895750E+03 -0.10673488789E+03 -0.21536287256E+03  0.26901807311E+03  0.00000000000E+00 0.  1.
<mgrwt>
<rscale>  0 0.15338611E+04</rscale>
<asrwt>0</asrwt>
<pdfrwt beam="1">  1        2 0.15435406E+00 0.15338611E+04</pdfrwt>
<pdfrwt beam="2">  1       -2 0.90191853E-01 0.15338611E+04</pdfrwt>
<totfact> 0.25409811E+01</totfact>
</mgrwt>
</event>
<event>
12    3  0.4806716E-008  0.3056883E+04  0.7818608E-02  0.8227672E-01
         -4   -1    0    0    0  501 -0.00000000000E+00  0.00000000000E+00  0.25251533275E+04  0.25251533275E+04  0.00000000000E+00 0.  1.
          4   -1    0    0  501    0  0.00000000000E+00 -0.00000000000E+00 -0.92514530398E+03  0.92514530398E+03  0.00000000000E+00 0. -1.
         23    2    1    2    0    0  0.54558809587E+03 -0.25690468166E+03  0.21462650078E+04  0.22318633749E+04  0.10532926850E+03 0.  0.
        254    2    1    2    0    0 -0.54558809587E+03  0.25690468166E+03 -0.54625698428E+03  0.12184352565E+04  0.90692965312E+03 0.  0.
         23    2    4    4    0    0 -0.59750943047E+03 -0.17776228190E+03 -0.23417347331E+03  0.67240242237E+03  0.93117418567E+02 0.  0.
         23    2    4    4    0    0  0.51921334601E+02  0.43466696356E+03 -0.31208351098E+03  0.54603283418E+03  0.95522478918E+02 0.  0.
          3    1    3    3  502    0  0.20693970579E+03 -0.82950764030E+02  0.97965762468E+03  0.10047058936E+04  0.00000000000E+00 0. -1.
         -3    1    3    3    0  502  0.33864839008E+03 -0.17395391763E+03  0.11666073831E+04  0.12271574813E+04  0.00000000000E+00 0.  1.
         13    1    5    5    0    0 -0.24102124687E+03 -0.34054289655E+02 -0.12033027211E+03  0.27153325850E+03  0.00000000000E+00 0.  1.
        -13    1    5    5    0    0 -0.35648818360E+03 -0.14370799224E+03 -0.11384320120E+03  0.40086916387E+03  0.00000000000E+00 0. -1.
          1    1    6    6  503    0 -0.26640579317E+02  0.16177166544E+03 -0.12055439308E+03  0.20350222086E+03  0.00000000000E+00 0. -1.
         -1    1    6    6    0  503  0.78561913918E+02  0.27289529812E+03 -0.19152911790E+03  0.34253061332E+03  0.00000000000E+00 0.  1.
<mgrwt>
<rscale>  0 0.30568832E+04</rscale>
<asrwt>0</asrwt>
<pdfrwt beam="1">  1        4 0.14233005E+00 0.30568832E+04</pdfrwt>
<pdfrwt beam="2">  1       -4 0.38848512E+00 0.30568832E+04</pdfrwt>
<totfact> 0.47348328E-03</totfact>
</mgrwt>
</event>
<event>
12    3  0.4806716E-008  0.1928875E+04  0.7818608E-02  0.8640615E-01
          1   -1    0    0  501    0  0.00000000000E+00  0.00000000000E+00  0.21440765590E+04  0.21440765590E+04  0.00000000000E+00 0. -1.
         -1   -1    0    0    0  501 -0.00000000000E+00 -0.00000000000E+00 -0.43381836990E+03  0.43381836990E+03  0.00000000000E+00 0.  1.
         23    2    1    2    0    0 -0.20725123328E+03 -0.70366849198E+03  0.86003211800E+03  0.11340462890E+04  0.91122562001E+02 0.  0.
        254    2    1    2    0    0  0.20725123328E+03  0.70366849198E+03  0.85022607106E+03  0.14438486399E+04  0.90758586514E+03 0.  0.
         23    2    4    4    0    0 -0.74808791646E+01 -0.88289858039E+02  0.55149059279E+03  0.56581764198E+03  0.90314270498E+02 0.  0.
         23    2    4    4    0    0  0.21473211244E+03  0.79195835002E+03  0.29873547828E+03  0.87803099788E+03  0.91584054170E+02 0.  0.
          1    1    3    3  502    0 -0.18020843540E+03 -0.66345271315E+03  0.77348477673E+03  0.10348542325E+04  0.00000000000E+00 0. -1.
         -1    1    3    3    0  502 -0.27042797881E+02 -0.40215778835E+02  0.86547341273E+02  0.99192056466E+02  0.00000000000E+00 0.  1.
         13    1    5    5    0    0  0.18449979261E+02  0.12514339792E+02  0.10790526388E+03  0.11018419310E+03  0.00000000000E+00 0.  1.
        -13    1    5    5    0    0 -0.25930858426E+02 -0.10080419783E+03  0.44358532890E+03  0.45563344888E+03  0.00000000000E+00 0. -1.
          3    1    6    6  503    0  0.17772672409E+03  0.71456277600E+03  0.24159097838E+03  0.77495351482E+03  0.00000000000E+00 0. -1.
         -3    1    6    6    0  503  0.37005388358E+02  0.77395574020E+02  0.57144499900E+02  0.10307748306E+03  0.00000000000E+00 0.  1.
<mgrwt>
<rscale>  0 0.19288751E+04</rscale>
<asrwt>0</asrwt>
<pdfrwt beam="1">  1        1 0.32985792E+00 0.19288751E+04</pdfrwt>
<pdfrwt beam="2">  1       -1 0.66741289E-01 0.19288751E+04</pdfrwt>
<totfact> 0.50494566E+00</totfact>
</mgrwt>
</event>
<event>
12    3  0.4806716E-008  0.2572895E+04  0.7818608E-02  0.8377467E-01
         -2   -1    0    0    0  501 -0.00000000000E+00  0.00000000000E+00  0.11827660895E+04  0.11827660895E+04  0.00000000000E+00 0.  1.
          2   -1    0    0  501    0  0.00000000000E+00 -0.00000000000E+00 -0.13992179897E+04  0.13992179897E+04  0.00000000000E+00 0. -1.
         23    2    1    2    0    0  0.41583637670E+03 -0.74353248775E+03 -0.83649648952E+03  0.11975722215E+04  0.93233020903E+02 0.  0.
        254    2    1    2    0    0 -0.41583637670E+03  0.74353248775E+03  0.62004458930E+03  0.13844118578E+04  0.89798688559E+03 0.  0.
         23    2    4    4    0    0 -0.22947793563E+03 -0.46147296014E+02 -0.12355421215E+03  0.28009742648E+03  0.91647308253E+02 0.  0.
         23    2    4    4    0    0 -0.18635844107E+03  0.78967978376E+03  0.74359880145E+03  0.11043144313E+04  0.90816057006E+02 0.  0.
          4    1    3    3  502    0  0.37537421075E+03 -0.67823958834E+03 -0.79453120526E+03  0.11100425998E+04  0.00000000000E+00 0. -1.
         -4    1    3    3    0  502  0.40462165948E+02 -0.65292899405E+02 -0.41965284252E+02  0.87529621662E+02  0.00000000000E+00 0.  1.
         13    1    5    5    0    0 -0.11256407568E+03 -0.46457787553E+01 -0.12070636782E+02  0.11330469834E+03  0.00000000000E+00 0. -1.
        -13    1    5    5    0    0 -0.11691385995E+03 -0.41501517258E+02 -0.11148357537E+03  0.16679272814E+03  0.00000000000E+00 0.  1.
          3    1    6    6  503    0 -0.55674256418E+02  0.39757536900E+03  0.33106884063E+03  0.52035792883E+03  0.00000000000E+00 0. -1.
         -3    1    6    6    0  503 -0.13068418465E+03  0.39210441476E+03  0.41252996082E+03  0.58395650246E+03  0.00000000000E+00 0.  1.
<mgrwt>
<rscale>  0 0.25728953E+04</rscale>
<asrwt>0</asrwt>
<pdfrwt beam="1">  1        2 0.21526431E+00 0.25728953E+04</pdfrwt>
<pdfrwt beam="2">  1       -2 0.18196401E+00 0.25728953E+04</pdfrwt>
<totfact> 0.22573817E+00</totfact>
</mgrwt>
</event>
<event>
12    3  0.4806716E-008  0.2219664E+04  0.7818608E-02  0.8510288E-01
          1   -1    0    0  501    0  0.00000000000E+00  0.00000000000E+00  0.18400720943E+04  0.18400720943E+04  0.00000000000E+00 0. -1.
         -1   -1    0    0    0  501 -0.00000000000E+00 -0.00000000000E+00 -0.66939061692E+03  0.66939061692E+03  0.00000000000E+00 0.  1.
         23    2    1    2    0    0 -0.12112686284E+03  0.26917424342E+03  0.14804037977E+04  0.15124486442E+04  0.93696355626E+02 0.  0.
        254    2    1    2    0    0  0.12112686284E+03 -0.26917424342E+03 -0.30972232026E+03  0.99701406701E+03  0.90054574782E+03 0.  0.
         23    2    4    4    0    0  0.28933546365E+03 -0.52961366134E+03 -0.11970807012E+03  0.62231914644E+03  0.93517149077E+02 0.  0.
         23    2    4    4    0    0 -0.16820860082E+03  0.26043941792E+03 -0.19001425015E+03  0.37469492056E+03  0.90377234093E+02 0.  0.
          1    1    3    3  502    0 -0.11289899284E+03  0.27649950404E+03  0.14298701425E+04  0.14607281687E+04  0.00000000000E+00 0. -1.
         -1    1    3    3    0  502 -0.82278699944E+01 -0.73252606217E+01  0.50533655166E+02  0.51720475561E+02  0.00000000000E+00 0.  1.
         13    1    5    5    0    0  0.12449782291E+03 -0.14322280740E+03 -0.22156447227E+02  0.19105859997E+03  0.00000000000E+00 0. -1.
        -13    1    5    5    0    0  0.16483764074E+03 -0.38639085394E+03 -0.97551622890E+02  0.43126054647E+03  0.00000000000E+00 0.  1.
          2    1    6    6  503    0 -0.17881010682E+02 -0.42887494917E+01 -0.85161918759E+01  0.20264487146E+02  0.00000000000E+00 0. -1.
         -2    1    6    6    0  503 -0.15032759013E+03  0.26472816741E+03 -0.18149805827E+03  0.35443043342E+03  0.00000000000E+00 0.  1.
<mgrwt>
<rscale>  0 0.22196639E+04</rscale>
<asrwt>0</asrwt>
<pdfrwt beam="1">  1        1 0.28308801E+00 0.22196639E+04</pdfrwt>
<pdfrwt beam="2">  1       -1 0.10298317E+00 0.22196639E+04</pdfrwt>
<totfact> 0.31012862E+00</totfact>
</mgrwt>
</event>
<event>
12    3  0.4806716E-008  0.1128014E+04  0.7818608E-02  0.9178310E-01
          1   -1    0    0  501    0  0.00000000000E+00  0.00000000000E+00  0.84959084671E+03  0.84959084671E+03  0.00000000000E+00 0. -1.
         -1   -1    0    0    0  501 -0.00000000000E+00 -0.00000000000E+00 -0.37441988084E+03  0.37441988084E+03  0.00000000000E+00 0.  1.
         23    2    1    2    0    0 -0.50750978249E+02  0.11354645147E+03 -0.63329332423E+02  0.16683461386E+03  0.91404188108E+02 0.  0.
        254    2    1    2    0    0  0.50750978249E+02 -0.11354645147E+03  0.53850029830E+03  0.10571761137E+04  0.90120491878E+03 0.  0.
         23    2    4    4    0    0 -0.54013104759E+02 -0.87738377604E+02  0.77245098688E+03  0.78444910835E+03  0.89802216407E+02 0.  0.
         23    2    4    4    0    0  0.10476408301E+03 -0.25808073864E+02 -0.23395068858E+03  0.27272700533E+03  0.89473599378E+02 0.  0.
          3    1    3    3  502    0 -0.25528521078E+01 -0.93913671328E+01  0.11494003304E+02  0.15060774962E+02  0.00000000000E+00 0. -1.
         -3    1    3    3    0  502 -0.48198126141E+02  0.12293781860E+03 -0.74823335727E+02  0.15177383890E+03  0.00000000000E+00 0.  1.
         13    1    5    5    0    0  0.19292000511E+02 -0.35945102710E+02  0.14568549558E+03  0.15128944218E+03  0.00000000000E+00 0.  1.
        -13    1    5    5    0    0 -0.73305105270E+02 -0.51793274894E+02  0.62676549130E+03  0.63315966617E+03  0.00000000000E+00 0. -1.
          2    1    6    6  503    0  0.11171846853E+03 -0.31340562338E+02 -0.15678194691E+03  0.19504826565E+03  0.00000000000E+00 0. -1.
         -2    1    6    6    0  503 -0.69543855230E+01  0.55324884741E+01 -0.77168741674E+02  0.77678739680E+02  0.00000000000E+00 0.  1.
<mgrwt>
<rscale>  0 0.11280137E+04</rscale>
<asrwt>0</asrwt>
<pdfrwt beam="1">  1        1 0.13070628E+00 0.11280137E+04</pdfrwt>
<pdfrwt beam="2">  1       -1 0.57603059E-01 0.11280137E+04</pdfrwt>
<totfact> 0.60854888E+01</totfact>
</mgrwt>
</event>
<event>
12    3  0.4806716E-008  0.2427593E+04  0.7818608E-02  0.8429245E-01
          3   -1    0    0  501    0  0.00000000000E+00  0.00000000000E+00  0.75931331498E+03  0.75931331498E+03  0.00000000000E+00 0. -1.
         -3   -1    0    0    0  501 -0.00000000000E+00 -0.00000000000E+00 -0.19403091170E+04  0.19403091170E+04  0.00000000000E+00 0.  1.
         23    2    1    2    0    0  0.69015379254E+03 -0.21918376721E+03 -0.13501407336E+04  0.15349061823E+04  0.93290978651E+02 0.  0.
        254    2    1    2    0    0 -0.69015379254E+03  0.21918376721E+03  0.16914493158E+03  0.11647162497E+04  0.89643747874E+03 0.  0.
         23    2    4    4    0    0 -0.17892605167E+03  0.38401420231E+03  0.38362201362E+03  0.57900633275E+03  0.92741816290E+02 0.  0.
         23    2    4    4    0    0 -0.51122774087E+03 -0.16483043510E+03 -0.21447708204E+03  0.58570991696E+03  0.92373225193E+02 0.  0.
          4    1    3    3  502    0  0.35607470785E+03 -0.15853801702E+03 -0.68575123171E+03  0.78878276617E+03  0.00000000000E+00 0.  1.
         -4    1    3    3    0  502  0.33407908470E+03 -0.60645750188E+02 -0.66438950193E+03  0.74612341614E+03  0.00000000000E+00 0. -1.
         13    1    5    5    0    0 -0.83648643768E+02  0.96459051915E+02  0.14635015962E+03  0.19421589410E+03  0.00000000000E+00 0. -1.
        -13    1    5    5    0    0 -0.95277407905E+02  0.28755515039E+03  0.23727185400E+03  0.38479043865E+03  0.00000000000E+00 0.  1.
          2    1    6    6  503    0 -0.27651822436E+02 -0.79541607387E+01 -0.37787732791E+02  0.47495312470E+02  0.00000000000E+00 0. -1.
         -2    1    6    6    0  503 -0.48357591843E+03 -0.15687627437E+03 -0.17668934925E+03  0.53821460449E+03  0.00000000000E+00 0.  1.
<mgrwt>
<rscale>  0 0.24275935E+04</rscale>
<asrwt>0</asrwt>
<pdfrwt beam="1">  1        3 0.11681744E+00 0.24275935E+04</pdfrwt>
<pdfrwt beam="2">  1       -3 0.29850909E+00 0.24275935E+04</pdfrwt>
<totfact> 0.54770822E-02</totfact>
</mgrwt>
</event>
<event>
12    3  0.4806716E-008  0.1980328E+04  0.7818608E-02  0.8615873E-01
         -1   -1    0    0    0  501 -0.00000000000E+00  0.00000000000E+00  0.53011212915E+03  0.53011212915E+03  0.00000000000E+00 0.  1.
          1   -1    0    0  501    0  0.00000000000E+00 -0.00000000000E+00 -0.18494672473E+04  0.18494672473E+04  0.00000000000E+00 0. -1.
         23    2    1    2    0    0  0.12135086046E+03  0.67829858813E+03 -0.81423771725E+02  0.69946324327E+03  0.88340206495E+02 0.  0.
        254    2    1    2    0    0 -0.12135086046E+03 -0.67829858813E+03 -0.12379313464E+04  0.16801161332E+04  0.90305104867E+03 0.  0.
         23    2    4    4    0    0  0.35438219948E+03 -0.97873674196E+02 -0.38328807139E+03  0.53905831359E+03  0.92239472965E+02 0.  0.
         23    2    4    4    0    0 -0.47573305995E+03 -0.58042491394E+03 -0.85464327500E+03  0.11410578196E+04  0.91557604964E+02 0.  0.
          3    1    3    3  502    0  0.10452876023E+03  0.37288637360E+03 -0.68826038165E+02  0.39332878468E+03  0.00000000000E+00 0. -1.
         -3    1    3    3    0  502  0.16822100236E+02  0.30541221454E+03 -0.12597733560E+02  0.30613445859E+03  0.00000000000E+00 0.  1.
         13    1    5    5    0    0  0.21711792621E+03 -0.66479512221E+02 -0.17073299486E+03  0.28409413046E+03  0.00000000000E+00 0. -1.
        -13    1    5    5    0    0  0.13726427327E+03 -0.31394161975E+02 -0.21255507653E+03  0.25496418313E+03  0.00000000000E+00 0.  1.
          3    1    6    6  503    0 -0.37371507999E+03 -0.49189121467E+03 -0.65855688208E+03  0.90294910987E+03  0.00000000000E+00 0. -1.
         -3    1    6    6    0  503 -0.10201797996E+03 -0.88533699265E+02 -0.19608639292E+03  0.23810870969E+03  0.00000000000E+00 0.  1.
<mgrwt>
<rscale>  0 0.19803283E+04</rscale>
<asrwt>0</asrwt>
<pdfrwt beam="1">  1        1 0.28453342E+00 0.19803283E+04</pdfrwt>
<pdfrwt beam="2">  1       -1 0.81555712E-01 0.19803283E+04</pdfrwt>
<totfact> 0.52442251E+00</totfact>
</mgrwt>
</event>
<event>
12    3  0.4806716E-008  0.2410653E+04  0.7818608E-02  0.8435526E-01
          2   -1    0    0  501    0  0.00000000000E+00  0.00000000000E+00  0.12495160753E+04  0.12495160753E+04  0.00000000000E+00 0.  1.
         -2   -1    0    0    0  501 -0.00000000000E+00 -0.00000000000E+00 -0.11626996005E+04  0.11626996005E+04  0.00000000000E+00 0. -1.
         23    2    1    2    0    0 -0.39315528442E+03  0.96774682599E+03  0.25363270395E+02  0.10487864347E+04  0.90579761843E+02 0.  0.
        254    2    1    2    0    0  0.39315528442E+03 -0.96774682599E+03  0.61453204408E+02  0.13634292410E+04  0.87410399958E+03 0.  0.
         23    2    4    4    0    0 -0.56312445456E+02 -0.50621803311E+03 -0.31987615353E+03  0.60912476639E+03  0.96355793145E+02 0.  0.
         23    2    4    4    0    0  0.44946772987E+03 -0.46152879288E+03  0.38132935794E+03  0.75430447463E+03  0.92374749643E+02 0.  0.
          3    1    3    3  502    0 -0.31979469465E+03  0.84587563594E+03  0.75928044376E-01  0.90430871054E+03  0.00000000000E+00 0. -1.
         -3    1    3    3    0  502 -0.73360589765E+02  0.12187119005E+03  0.25287342350E+02  0.14447772416E+03  0.00000000000E+00 0.  1.
         13    1    5    5    0    0 -0.55915058807E+02 -0.48722652829E+03 -0.27944030801E+03  0.56444935062E+03  0.00000000000E+00 0.  1.
        -13    1    5    5    0    0 -0.39738664882E+00 -0.18991504818E+02 -0.40435845519E+02  0.44675415770E+02  0.00000000000E+00 0. -1.
          3    1    6    6  503    0 -0.35407070727E+01  0.63108523294E+00  0.29505060659E+01  0.46519201617E+01  0.00000000000E+00 0. -1.
         -3    1    6    6    0  503  0.45300843695E+03 -0.46215987811E+03  0.37837885188E+03  0.74965255447E+03  0.00000000000E+00 0.  1.
<mgrwt>
<rscale>  0 0.24106529E+04</rscale>
<asrwt>0</asrwt>
<pdfrwt beam="1">  1        2 0.19223324E+00 0.24106529E+04</pdfrwt>
<pdfrwt beam="2">  1       -2 0.17887686E+00 0.24106529E+04</pdfrwt>
<totfact> 0.29356935E+00</totfact>
</mgrwt>
</event>
<event>
12    3  0.4806716E-008  0.2209603E+04  0.7818608E-02  0.8514442E-01
          2   -1    0    0  501    0  0.00000000000E+00  0.00000000000E+00  0.12502077536E+04  0.12502077536E+04  0.00000000000E+00 0.  1.
         -2   -1    0    0    0  501 -0.00000000000E+00 -0.00000000000E+00 -0.97630693224E+03  0.97630693224E+03  0.00000000000E+00 0. -1.
         23    2    1    2    0    0 -0.37027196838E+03 -0.44250319636E+03  0.82360300630E+03  0.10098287385E+04  0.92313377663E+02 0.  0.
        254    2    1    2    0    0  0.37027196838E+03  0.44250319636E+03 -0.54970218490E+03  0.12166859474E+04  0.91937032429E+03 0.  0.
         23    2    4    4    0    0 -0.24341089903E+03  0.24809950138E+03 -0.42185830226E+03  0.55429299362E+03  0.92054696974E+02 0.  0.
         23    2    4    4    0    0  0.61368286741E+03  0.19440369498E+03 -0.12784388264E+03  0.66239295379E+03  0.89559525065E+02 0.  0.
          1    1    3    3  502    0 -0.11612843259E+02 -0.30104019765E+02  0.85631836890E+02  0.91509134100E+02  0.00000000000E+00 0. -1.
         -1    1    3    3    0  502 -0.35865912512E+03 -0.41239917659E+03  0.73797116941E+03  0.91831960437E+03  0.00000000000E+00 0.  1.
         13    1    5    5    0    0 -0.17634816818E+02  0.61134466549E+02 -0.10382316062E+03  0.12176887306E+03  0.00000000000E+00 0. -1.
        -13    1    5    5    0    0 -0.22577608221E+03  0.18696503483E+03 -0.31803514164E+03  0.43252412056E+03  0.00000000000E+00 0.  1.
          1    1    6    6  503    0  0.11914227156E+03  0.75464229356E+02 -0.19976115419E+02  0.14243867443E+03  0.00000000000E+00 0. -1.
         -1    1    6    6    0  503  0.49454059585E+03  0.11893946562E+03 -0.10786776722E+03  0.51995427936E+03  0.00000000000E+00 0.  1.
<mgrwt>
<rscale>  0 0.22096031E+04</rscale>
<asrwt>0</asrwt>
<pdfrwt beam="1">  1        2 0.19233965E+00 0.22096031E+04</pdfrwt>
<pdfrwt beam="2">  1       -2 0.15020107E+00 0.22096031E+04</pdfrwt>
<totfact> 0.48221932E+00</totfact>
</mgrwt>
</event>
<event>
12    3  0.4806716E-008  0.1211506E+04  0.7818608E-02  0.9102845E-01
          1   -1    0    0  501    0  0.00000000000E+00  0.00000000000E+00  0.20957558515E+04  0.20957558515E+04  0.00000000000E+00 0. -1.
         -1   -1    0    0    0  501 -0.00000000000E+00 -0.00000000000E+00 -0.17508546979E+03  0.17508546979E+03  0.00000000000E+00 0.  1.
         23    2    1    2    0    0 -0.21735791719E+03 -0.36479740375E+02  0.71477073680E+03  0.75372084773E+03  0.92858357192E+02 0.  0.
        254    2    1    2    0    0  0.21735791719E+03  0.36479740375E+02  0.12058996449E+04  0.15171204735E+04  0.89380386107E+03 0.  0.
         23    2    4    4    0    0  0.35479418693E+03  0.27222158695E+03  0.25391789254E+03  0.52241452808E+03  0.91973558747E+02 0.  0.
         23    2    4    4    0    0 -0.13743626975E+03 -0.23574184658E+03  0.95198175236E+03  0.99470594547E+03  0.93315136307E+02 0.  0.
          4    1    3    3  502    0 -0.17050343450E+03  0.16822180644E+01  0.60319197002E+03  0.62682916630E+03  0.00000000000E+00 0. -1.
         -4    1    3    3    0  502 -0.46854482681E+02 -0.38161958439E+02  0.11157876678E+03  0.12689168143E+03  0.00000000000E+00 0.  1.
         13    1    5    5    0    0  0.16583169015E+03  0.17740008883E+03  0.10954553428E+03  0.26640413858E+03  0.00000000000E+00 0.  1.
        -13    1    5    5    0    0  0.18896249679E+03  0.94821498121E+02  0.14437235827E+03  0.25601038950E+03  0.00000000000E+00 0. -1.
          4    1    6    6  503    0  0.49521382160E+01 -0.36831741762E+02  0.21496418032E+03  0.21815292731E+03  0.00000000000E+00 0.  1.
         -4    1    6    6    0  503 -0.14238840796E+03 -0.19891010481E+03  0.73701757204E+03  0.77655301816E+03  0.00000000000E+00 0. -1.
<mgrwt>
<rscale>  0 0.12115055E+04</rscale>
<asrwt>0</asrwt>
<pdfrwt beam="1">  1        1 0.32242396E+00 0.12115055E+04</pdfrwt>
<pdfrwt beam="2">  1       -1 0.26936228E-01 0.12115055E+04</pdfrwt>
<totfact> 0.31320881E+01</totfact>
</mgrwt>
</event>
<event>
12    3  0.4806716E-008  0.1571876E+04  0.7818608E-02  0.8838014E-01
         -2   -1    0    0    0  501 -0.00000000000E+00  0.00000000000E+00  0.44532941588E+03  0.44532941588E+03  0.00000000000E+00 0. -1.
          2   -1    0    0  501    0  0.00000000000E+00 -0.00000000000E+00 -0.13870599973E+04  0.13870599973E+04  0.00000000000E+00 0.  1.
         23    2    1    2    0    0 -0.23593923470E+03 -0.77485032314E+02 -0.86205183393E+03  0.90192401655E+03  0.93071556096E+02 0.  0.
        254    2    1    2    0    0  0.23593923470E+03  0.77485032314E+02 -0.79678747494E+02  0.93046539662E+03  0.89316622126E+03 0.  0.
         23    2    4    4    0    0  0.13333605335E+03 -0.37987508369E+03 -0.17004391190E+03  0.44614505571E+03  0.89704495057E+02 0.  0.
         23    2    4    4    0    0  0.10260318135E+03  0.45736011600E+03  0.90365164409E+02  0.48432034091E+03  0.81820786752E+02 0.  0.
          3    1    3    3  502    0  0.16503718462E+01  0.11386941803E+02 -0.34658303084E+02  0.36518271366E+02  0.00000000000E+00 0. -1.
         -3    1    3    3    0  502 -0.23758960655E+03 -0.88871974117E+02 -0.82739353084E+03  0.86540574519E+03  0.00000000000E+00 0.  1.
         13    1    5    5    0    0  0.49071477081E+01 -0.84631072035E+02 -0.67117248288E+02  0.10812596113E+03  0.00000000000E+00 0. -1.
        -13    1    5    5    0    0  0.12842890564E+03 -0.29524401165E+03 -0.10292666361E+03  0.33801909458E+03  0.00000000000E+00 0.  1.
          2    1    6    6  503    0  0.32297711652E+02  0.74602213993E+02  0.43915040540E+02  0.92396771027E+02  0.00000000000E+00 0. -1.
         -2    1    6    6    0  503  0.70305469700E+02  0.38275790201E+03  0.46450123869E+02  0.39192356988E+03  0.00000000000E+00 0.  1.
<mgrwt>
<rscale>  0 0.15718761E+04</rscale>
<asrwt>0</asrwt>
<pdfrwt beam="1">  1        2 0.21339385E+00 0.15718761E+04</pdfrwt>
<pdfrwt beam="2">  1       -2 0.68512218E-01 0.15718761E+04</pdfrwt>
<totfact> 0.27556768E+01</totfact>
</mgrwt>
</event>
<event>
12    3  0.4806716E-008  0.1456148E+04  0.7818608E-02  0.8914149E-01
          1   -1    0    0  501    0  0.00000000000E+00  0.00000000000E+00  0.10569541144E+04  0.10569541144E+04  0.00000000000E+00 0. -1.
         -1   -1    0    0    0  501 -0.00000000000E+00 -0.00000000000E+00 -0.50152790615E+03  0.50152790615E+03  0.00000000000E+00 0.  1.
         23    2    1    2    0    0  0.35040865392E+03 -0.42009309436E+02 -0.12207963689E+03  0.38439285919E+03  0.91123134441E+02 0.  0.
        254    2    1    2    0    0 -0.35040865392E+03  0.42009309436E+02  0.67750584513E+03  0.11740891614E+04  0.89158296406E+03 0.  0.
         23    2    4    4    0    0 -0.30227593534E+03  0.30832634125E+03  0.75628910424E+03  0.87567040168E+03  0.91594592672E+02 0.  0.
         23    2    4    4    0    0 -0.48132718580E+02 -0.26631703181E+03 -0.78783259105E+02  0.29841875967E+03  0.98007316959E+02 0.  0.
          1    1    3    3  502    0  0.15174323294E+03  0.24700460520E+02 -0.36418424826E+02  0.15799500992E+03  0.00000000000E+00 0. -1.
         -1    1    3    3    0  502  0.19866542099E+03 -0.66709769956E+02 -0.85661212065E+02  0.22639784927E+03  0.00000000000E+00 0.  1.
         13    1    5    5    0    0 -0.94101922807E+02  0.49716112422E+02  0.14258417515E+03  0.17792445226E+03  0.00000000000E+00 0. -1.
        -13    1    5    5    0    0 -0.20817401254E+03  0.25861022882E+03  0.61370492909E+03  0.69774594942E+03  0.00000000000E+00 0.  1.
          3    1    6    6  503    0  0.29035666493E+02 -0.10391702345E+03 -0.33935837709E+02  0.11310817288E+03  0.00000000000E+00 0. -1.
         -3    1    6    6    0  503 -0.77168385073E+02 -0.16240000836E+03 -0.44847421397E+02  0.18531058679E+03  0.00000000000E+00 0.  1.
<mgrwt>
<rscale>  0 0.14561483E+04</rscale>
<asrwt>0</asrwt>
<pdfrwt beam="1">  1        1 0.16260832E+00 0.14561483E+04</pdfrwt>
<pdfrwt beam="2">  1       -1 0.77158140E-01 0.14561483E+04</pdfrwt>
<totfact> 0.22356334E+01</totfact>
</mgrwt>
</event>
<event>
12    3  0.4806716E-008  0.1949535E+04  0.7818608E-02  0.8630585E-01
         -2   -1    0    0    0  501 -0.00000000000E+00  0.00000000000E+00  0.21581187933E+04  0.21581187933E+04  0.00000000000E+00 0. -1.
          2   -1    0    0  501    0  0.00000000000E+00 -0.00000000000E+00 -0.44027782531E+03  0.44027782531E+03  0.00000000000E+00 0.  1.
         23    2    1    2    0    0 -0.62672702563E+03 -0.28613348328E+03  0.11225633216E+04  0.13201422370E+04  0.89263541569E+02 0.  0.
        254    2    1    2    0    0  0.62672702563E+03  0.28613348328E+03  0.59527764639E+03  0.12782543817E+04  0.89717314553E+03 0.  0.
         23    2    4    4    0    0  0.44553538151E+03 -0.16278579743E+03  0.62028884109E+03  0.78633479960E+03  0.92537444697E+02 0.  0.
         23    2    4    4    0    0  0.18119164411E+03  0.44891928071E+03 -0.25011194693E+02  0.49191958206E+03  0.83668290725E+02 0.  0.
          3    1    3    3  502    0 -0.61582554385E+03 -0.27396316314E+03  0.10655212433E+04  0.12608062639E+04  0.00000000000E+00 0. -1.
         -3    1    3    3    0  502 -0.10901481780E+02 -0.12170320141E+02  0.57042078351E+02  0.59335973069E+02  0.00000000000E+00 0.  1.
         13    1    5    5    0    0  0.31572749911E+03 -0.15880107785E+03  0.45273726369E+03  0.57434542390E+03  0.00000000000E+00 0. -1.
        -13    1    5    5    0    0  0.12980788240E+03 -0.39847195727E+01  0.16755157740E+03  0.21198937570E+03  0.00000000000E+00 0.  1.
          2    1    6    6  503    0  0.18478735291E+03  0.39411222072E+03 -0.32463956448E+02  0.43649137080E+03  0.00000000000E+00 0. -1.
         -2    1    6    6    0  503 -0.35957087960E+01  0.54807059988E+02  0.74527617543E+01  0.55428211265E+02  0.00000000000E+00 0.  1.
<mgrwt>
<rscale>  0 0.19495352E+04</rscale>
<asrwt>0</asrwt>
<pdfrwt beam="1">  1        2 0.67735051E-01 0.19495352E+04</pdfrwt>
<pdfrwt beam="2">  1       -2 0.33201827E+00 0.19495352E+04</pdfrwt>
<totfact> 0.13444197E+00</totfact>
</mgrwt>
</event>
<event>
12    3  0.4806716E-008  0.2124233E+04  0.7818608E-02  0.8550643E-01
         -2   -1    0    0    0  501 -0.00000000000E+00  0.00000000000E+00  0.85946377160E+03  0.85946377160E+03  0.00000000000E+00 0.  1.
          2   -1    0    0  501    0  0.00000000000E+00 -0.00000000000E+00 -0.13125521142E+04  0.13125521142E+04  0.00000000000E+00 0. -1.
         23    2    1    2    0    0 -0.30359948548E+03 -0.20522041858E+03 -0.98713972490E+03  0.10567448808E+04  0.89313150771E+02 0.  0.
        254    2    1    2    0    0  0.30359948548E+03  0.20522041858E+03  0.53405138225E+03  0.11152710050E+04  0.90792646616E+03 0.  0.
         23    2    4    4    0    0  0.37254700560E+03 -0.63261923250E+00  0.72014000288E+03  0.81510872964E+03  0.83719446957E+02 0.  0.
         23    2    4    4    0    0 -0.68947520123E+02  0.20585303781E+03 -0.18608862063E+03  0.30016227537E+03  0.91319127896E+02 0.  0.
          3    1    3    3  502    0 -0.27877654475E+03 -0.15478406024E+03 -0.79537448590E+03  0.85691017034E+03  0.00000000000E+00 0. -1.
         -3    1    3    3    0  502 -0.24822940728E+02 -0.50436358342E+02 -0.19176523900E+03  0.19983471049E+03  0.00000000000E+00 0.  1.
         13    1    5    5    0    0  0.24395283557E+03  0.37779503400E+02  0.44138389689E+03  0.50572722024E+03  0.00000000000E+00 0.  1.
        -13    1    5    5    0    0  0.12859417003E+03 -0.38412122632E+02  0.27875610599E+03  0.30938150940E+03  0.00000000000E+00 0. -1.
          4    1    6    6  503    0 -0.58870813678E+02  0.21424033958E+03 -0.17254140219E+03  0.28130984924E+03  0.00000000000E+00 0. -1.
         -4    1    6    6    0  503 -0.10076706445E+02 -0.83873017684E+01 -0.13547218439E+02  0.18852426134E+02  0.00000000000E+00 0.  1.
<mgrwt>
<rscale>  0 0.21242326E+04</rscale>
<asrwt>0</asrwt>
<pdfrwt beam="1">  1        2 0.20193109E+00 0.21242326E+04</pdfrwt>
<pdfrwt beam="2">  1       -2 0.13222520E+00 0.21242326E+04</pdfrwt>
<totfact> 0.62200861E+00</totfact>
</mgrwt>
</event>
<event>
12    3  0.4806716E-008  0.1200286E+04  0.7818608E-02  0.9112606E-01
          2   -1    0    0  501    0  0.00000000000E+00  0.00000000000E+00  0.66426951237E+03  0.66426951237E+03  0.00000000000E+00 0.  1.
         -2   -1    0    0    0  501 -0.00000000000E+00 -0.00000000000E+00 -0.54220714895E+03  0.54220714895E+03  0.00000000000E+00 0. -1.
         23    2    1    2    0    0 -0.11963770537E+03  0.16991464022E+03  0.15420967614E+03  0.27460997930E+03  0.91901311245E+02 0.  0.
        254    2    1    2    0    0  0.11963770537E+03 -0.16991464022E+03 -0.32147312714E+02  0.93186668201E+03  0.90783142588E+03 0.  0.
         23    2    4    4    0    0 -0.94623407283E+01 -0.24862484632E+03  0.39123248125E+03  0.47289824363E+03  0.93091591144E+02 0.  0.
         23    2    4    4    0    0  0.12910004610E+03  0.78710206096E+02 -0.42337979397E+03  0.45896843838E+03  0.92409193504E+02 0.  0.
          3    1    3    3  502    0 -0.38766873445E+02  0.91026350605E+02  0.12211393279E+03  0.15716386214E+03  0.00000000000E+00 0. -1.
         -3    1    3    3    0  502 -0.80870831927E+02  0.78888289619E+02  0.32095743348E+02  0.11744611716E+03  0.00000000000E+00 0.  1.
         13    1    5    5    0    0  0.39221239872E+02 -0.14250024734E+03  0.23965298937E+03  0.28156381419E+03  0.00000000000E+00 0. -1.
        -13    1    5    5    0    0 -0.48683580600E+02 -0.10612459898E+03  0.15157949189E+03  0.19133442944E+03  0.00000000000E+00 0.  1.
          1    1    6    6  503    0  0.70307197546E+02  0.81507670988E+02 -0.34196072273E+03  0.35850207579E+03  0.00000000000E+00 0. -1.
         -1    1    6    6    0  503  0.58792848554E+02 -0.27974648917E+01 -0.81419071234E+02  0.10046636259E+03  0.00000000000E+00 0.  1.
<mgrwt>
<rscale>  0 0.12002861E+04</rscale>
<asrwt>0</asrwt>
<pdfrwt beam="1">  1        2 0.10219531E+00 0.12002861E+04</pdfrwt>
<pdfrwt beam="2">  1       -2 0.83416485E-01 0.12002861E+04</pdfrwt>
<totfact> 0.54333425E+01</totfact>
</mgrwt>
</event>
<event>
12    3  0.4806716E-008  0.1490917E+04  0.7818608E-02  0.8890516E-01
         -1   -1    0    0    0  501 -0.00000000000E+00  0.00000000000E+00  0.72003269966E+03  0.72003269966E+03  0.00000000000E+00 0.  1.
          1   -1    0    0  501    0  0.00000000000E+00 -0.00000000000E+00 -0.77178217864E+03  0.77178217864E+03  0.00000000000E+00 0. -1.
         23    2    1    2    0    0 -0.27291307489E+03  0.28140114053E+03  0.23363193436E+03  0.46529843408E+03  0.90832833656E+02 0.  0.
        254    2    1    2    0    0  0.27291307489E+03 -0.28140114053E+03 -0.28538141334E+03  0.10265164442E+04  0.90477915030E+03 0.  0.
         23    2    4    4    0    0 -0.95065530012E+02 -0.23806539672E+03 -0.51361853135E+03  0.58133239771E+03  0.91819239624E+02 0.  0.
         23    2    4    4    0    0  0.36797860491E+03 -0.43335743810E+02  0.22823711801E+03  0.44518404650E+03  0.93863799532E+02 0.  0.
          2    1    3    3  502    0 -0.21455685412E+03  0.25773281397E+03  0.21937285751E+03  0.40073095421E+03  0.00000000000E+00 0.  1.
         -2    1    3    3    0  502 -0.58356220774E+02  0.23668326557E+02  0.14259076846E+02  0.64567479876E+02  0.00000000000E+00 0. -1.
         13    1    5    5    0    0 -0.57004768608E+01 -0.25652155909E+02 -0.13935862142E+03  0.14181450526E+03  0.00000000000E+00 0. -1.
        -13    1    5    5    0    0 -0.89365053151E+02 -0.21241324081E+03 -0.37425990993E+03  0.43951789244E+03  0.00000000000E+00 0.  1.
          1    1    6    6  503    0  0.49530108174E+02 -0.40152972448E+02  0.37865592826E+02  0.74157237895E+02  0.00000000000E+00 0. -1.
         -1    1    6    6    0  503  0.31844849673E+03 -0.31827713619E+01  0.19037152519E+03  0.37102680861E+03  0.00000000000E+00 0.  1.
<mgrwt>
<rscale>  0 0.14909170E+04</rscale>
<asrwt>0</asrwt>
<pdfrwt beam="1">  1        1 0.11873572E+00 0.14909170E+04</pdfrwt>
<pdfrwt beam="2">  1       -1 0.11077426E+00 0.14909170E+04</pdfrwt>
<totfact> 0.17019134E+01</totfact>
</mgrwt>
</event>
<event>
12    3  0.4806716E-008  0.2047772E+04  0.7818608E-02  0.8584606E-01
         -1   -1    0    0    0  501 -0.00000000000E+00  0.00000000000E+00  0.56912701203E+03  0.56912701203E+03  0.00000000000E+00 0.  1.
          1   -1    0    0  501    0  0.00000000000E+00 -0.00000000000E+00 -0.18420192734E+04  0.18420192734E+04  0.00000000000E+00 0. -1.
         23    2    1    2    0    0 -0.21933412774E+03 -0.45845542554E+03  0.24843364062E+03  0.57297577422E+03  0.91066608899E+02 0.  0.
        254    2    1    2    0    0  0.21933412774E+03  0.45845542554E+03 -0.15213259020E+04  0.18381705112E+04  0.89785828024E+03 0.  0.
         23    2    4    4    0    0 -0.23531035398E+03  0.19376918129E+03 -0.11343036952E+04  0.11789408125E+04  0.10168140414E+03 0.  0.
         23    2    4    4    0    0  0.45464448172E+03  0.26468624425E+03 -0.38702220672E+03  0.65922969872E+03  0.89650401694E+02 0.  0.
          1    1    3    3  502    0  0.34040291343E+01 -0.98028294866E+01  0.19817418861E+02  0.22369912172E+02  0.00000000000E+00 0. -1.
         -1    1    3    3    0  502 -0.22273815688E+03 -0.44865259605E+03  0.22861622176E+03  0.55060586205E+03  0.00000000000E+00 0.  1.
         13    1    5    5    0    0 -0.23533022806E+03  0.18146612685E+03 -0.97795321798E+03  0.10221070237E+04  0.00000000000E+00 0.  1.
        -13    1    5    5    0    0  0.19874088131E-01  0.12303054446E+02 -0.15635047726E+03  0.15683378872E+03  0.00000000000E+00 0. -1.
          2    1    6    6  503    0  0.16468919646E+03  0.12538381311E+03 -0.19625363338E+03  0.28523520230E+03  0.00000000000E+00 0. -1.
         -2    1    6    6    0  503  0.28995528526E+03  0.13930243114E+03 -0.19076857335E+03  0.37399449641E+03  0.00000000000E+00 0.  1.
<mgrwt>
<rscale>  0 0.20477724E+04</rscale>
<asrwt>0</asrwt>
<pdfrwt beam="1">  1        1 0.28338759E+00 0.20477724E+04</pdfrwt>
<pdfrwt beam="2">  1       -1 0.87558000E-01 0.20477724E+04</pdfrwt>
<totfact> 0.45221705E+00</totfact>
</mgrwt>
</event>
<event>
12    3  0.4806716E-008  0.1357584E+04  0.7818608E-02  0.8985107E-01
         -2   -1    0    0    0  501 -0.00000000000E+00  0.00000000000E+00  0.22883445672E+03  0.22883445672E+03  0.00000000000E+00 0. -1.
          2   -1    0    0  501    0  0.00000000000E+00 -0.00000000000E+00 -0.20135023479E+04  0.20135023479E+04  0.00000000000E+00 0.  1.
         23    2    1    2    0    0 -0.30314958795E+03  0.31594062498E+02 -0.14464086102E+03  0.34953332002E+03  0.91404079055E+02 0.  0.
        254    2    1    2    0    0  0.30314958795E+03 -0.31594062498E+02 -0.16400270301E+04  0.18928034846E+04  0.89449344000E+03 0.  0.
         23    2    4    4    0    0 -0.17467995771E+03  0.27875248405E+03 -0.83152960709E+03  0.89950071216E+03  0.97180289728E+02 0.  0.
         23    2    4    4    0    0  0.47782954566E+03 -0.31034654655E+03 -0.80849742305E+03  0.99330277243E+03  0.91357873062E+02 0.  0.
          4    1    3    3  502    0 -0.29062959833E+03  0.21176431716E+02 -0.11039285356E+03  0.31160967059E+03  0.00000000000E+00 0. -1.
         -4    1    3    3    0  502 -0.12519989616E+02  0.10417630782E+02 -0.34248007459E+02  0.37923649429E+02  0.00000000000E+00 0.  1.
         13    1    5    5    0    0 -0.14012339918E+03  0.18591109741E+03 -0.67733057712E+03  0.71622218190E+03  0.00000000000E+00 0. -1.
        -13    1    5    5    0    0 -0.34556558527E+02  0.92841386639E+02 -0.15419902997E+03  0.18327853026E+03  0.00000000000E+00 0.  1.
          3    1    6    6  503    0  0.46192293158E+03 -0.30783468022E+03 -0.80319430210E+03  0.97634833538E+03  0.00000000000E+00 0. -1.
         -3    1    6    6    0  503  0.15906614077E+02 -0.25118663318E+01 -0.53031209503E+01  0.16954437050E+02  0.00000000000E+00 0.  1.
<mgrwt>
<rscale>  0 0.13575842E+04</rscale>
<asrwt>0</asrwt>
<pdfrwt beam="1">  1        2 0.30976960E+00 0.13575842E+04</pdfrwt>
<pdfrwt beam="2">  1       -2 0.35205301E-01 0.13575842E+04</pdfrwt>
<totfact> 0.48601065E+01</totfact>
</mgrwt>
</event>
<event>
12    3  0.4806716E-008  0.3316079E+04  0.7818608E-02  0.8158816E-01
          1   -1    0    0  501    0  0.00000000000E+00  0.00000000000E+00  0.14778576736E+04  0.14778576736E+04  0.00000000000E+00 0. -1.
         -1   -1    0    0    0  501 -0.00000000000E+00 -0.00000000000E+00 -0.18601895810E+04  0.18601895810E+04  0.00000000000E+00 0.  1.
         23    2    1    2    0    0  0.10001174394E+04 -0.46943631965E+03  0.89832399893E+03  0.14274139738E+04  0.99595656975E+02 0.  0.
        254    2    1    2    0    0 -0.10001174394E+04  0.46943631965E+03 -0.12806559064E+04  0.19106332807E+04  0.88872641017E+03 0.  0.
         23    2    4    4    0    0  0.87156679263E+01  0.22935585674E+03 -0.64593919623E+03  0.69141933158E+03  0.90239542144E+02 0.  0.
         23    2    4    4    0    0 -0.10088331073E+04  0.24008046290E+03 -0.63471671016E+03  0.12192139492E+04  0.90744060926E+02 0.  0.
          2    1    3    3  502    0  0.98982364499E+03 -0.45837326207E+03  0.89698009788E+03  0.14122429648E+04  0.00000000000E+00 0. -1.
         -2    1    3    3    0  502  0.10293794391E+02 -0.11063057573E+02  0.13439010490E+01  0.15171009059E+02  0.00000000000E+00 0.  1.
         13    1    5    5    0    0 -0.36640816693E+02  0.57073342703E+02 -0.20126425797E+03  0.21238459791E+03  0.00000000000E+00 0.  1.
        -13    1    5    5    0    0  0.45356484619E+02  0.17228251404E+03 -0.44467493826E+03  0.47903473367E+03  0.00000000000E+00 0. -1.
          2    1    6    6  503    0 -0.32887101574E+03  0.12232764746E+03 -0.21502617554E+03  0.41152940903E+03  0.00000000000E+00 0. -1.
         -2    1    6    6    0  503 -0.67996209157E+03  0.11775281544E+03 -0.41969053461E+03  0.80768454013E+03  0.00000000000E+00 0.  1.
<mgrwt>
<rscale>  0 0.33160793E+04</rscale>
<asrwt>0</asrwt>
<pdfrwt beam="1">  1        1 0.22736272E+00 0.33160793E+04</pdfrwt>
<pdfrwt beam="2">  1       -1 0.28618301E+00 0.33160793E+04</pdfrwt>
<totfact> 0.22788524E-01</totfact>
</mgrwt>
</event>
<event>
12    3  0.4806716E-008  0.1510195E+04  0.7818608E-02  0.8877701E-01
         -2   -1    0    0    0  501 -0.00000000000E+00  0.00000000000E+00  0.12401580186E+04  0.12401580186E+04  0.00000000000E+00 0. -1.
          2   -1    0    0  501    0  0.00000000000E+00 -0.00000000000E+00 -0.45975788151E+03  0.45975788151E+03  0.00000000000E+00 0.  1.
         23    2    1    2    0    0 -0.33370799395E+03  0.17825449209E+03 -0.83776716276E+02  0.39811570266E+03  0.91333922164E+02 0.  0.
        254    2    1    2    0    0  0.33370799395E+03 -0.17825449209E+03  0.86417685338E+03  0.13018001975E+04  0.89707660266E+03 0.  0.
         23    2    4    4    0    0  0.53749367784E+03 -0.19747018178E+03  0.90429034200E+03  0.10742247587E+04  0.91235317888E+02 0.  0.
         23    2    4    4    0    0 -0.20378568389E+03  0.19215689684E+02 -0.40113488619E+02  0.22757543874E+03  0.91014507963E+02 0.  0.
          4    1    3    3  502    0 -0.69548060770E+02 -0.19902529356E-01 -0.43791478805E+01  0.69685795462E+02  0.00000000000E+00 0. -1.
         -4    1    3    3    0  502 -0.26415993318E+03  0.17827439462E+03 -0.79397568395E+02  0.32842990720E+03  0.00000000000E+00 0.  1.
         13    1    5    5    0    0  0.30616795132E+03 -0.15206003346E+03  0.48806333238E+03  0.59587489006E+03  0.00000000000E+00 0. -1.
        -13    1    5    5    0    0  0.23132572652E+03 -0.45410148314E+02  0.41622700962E+03  0.47834986867E+03  0.00000000000E+00 0.  1.
          2    1    6    6  503    0 -0.66294701162E+01  0.25410993225E+02 -0.96759760387E+01  0.27987371492E+02  0.00000000000E+00 0. -1.
         -2    1    6    6    0  503 -0.19715621378E+03 -0.61953035413E+01 -0.30437512580E+02  0.19958806725E+03  0.00000000000E+00 0.  1.
<mgrwt>
<rscale>  0 0.15101953E+04</rscale>
<asrwt>0</asrwt>
<pdfrwt beam="1">  1        2 0.70731982E-01 0.15101953E+04</pdfrwt>
<pdfrwt beam="2">  1       -2 0.19079354E+00 0.15101953E+04</pdfrwt>
<totfact> 0.10019863E+01</totfact>
</mgrwt>
</event>
<event>
12    3  0.4806716E-008  0.1673651E+04  0.7818608E-02  0.8776537E-01
         -2   -1    0    0    0  501 -0.00000000000E+00  0.00000000000E+00  0.47365456402E+03  0.47365456402E+03  0.00000000000E+00 0.  1.
          2   -1    0    0  501    0  0.00000000000E+00 -0.00000000000E+00 -0.14784542968E+04  0.14784542968E+04  0.00000000000E+00 0. -1.
         23    2    1    2    0    0  0.18078474972E+03 -0.34994341735E+03 -0.87444947190E+03  0.96337599712E+03  0.91037969218E+02 0.  0.
        254    2    1    2    0    0 -0.18078474972E+03  0.34994341735E+03 -0.13035026092E+03  0.98873286374E+03  0.89747309945E+03 0.  0.
         23    2    4    4    0    0 -0.32817836288E+03  0.31200243774E+03 -0.43495804736E+03  0.63545957992E+03  0.97845877432E+02 0.  0.
         23    2    4    4    0    0  0.14739361316E+03  0.37940979616E+02  0.30460778644E+03  0.35327328382E+03  0.94083549907E+02 0.  0.
          3    1    3    3  502    0  0.16689125636E+02 -0.72658106066E-01 -0.23863106475E+02  0.29120096915E+02  0.00000000000E+00 0.  1.
         -3    1    3    3    0  502  0.16409562408E+03 -0.34987075925E+03 -0.85058636542E+03  0.93425590020E+03  0.00000000000E+00 0. -1.
         13    1    5    5    0    0 -0.29510848488E+03  0.28842523469E+03 -0.34920841643E+03  0.54057807204E+03  0.00000000000E+00 0.  1.
        -13    1    5    5    0    0 -0.33069878001E+02  0.23577203044E+02 -0.85749630929E+02  0.94881507886E+02  0.00000000000E+00 0. -1.
          2    1    6    6  503    0  0.11219806057E+03  0.66940686067E+02  0.19683230586E+03  0.23624651717E+03  0.00000000000E+00 0. -1.
         -2    1    6    6    0  503  0.35195552598E+02 -0.28999706452E+02  0.10777548058E+03  0.11702676664E+03  0.00000000000E+00 0.  1.
<mgrwt>
<rscale>  0 0.16736507E+04</rscale>
<asrwt>0</asrwt>
<pdfrwt beam="1">  1        2 0.22745450E+00 0.16736507E+04</pdfrwt>
<pdfrwt beam="2">  1       -2 0.72869934E-01 0.16736507E+04</pdfrwt>
<totfact> 0.21185075E+01</totfact>
</mgrwt>
</event>
<event>
12    3  0.4806716E-008  0.1441024E+04  0.7818608E-02  0.8924647E-01
          1   -1    0    0  501    0  0.00000000000E+00  0.00000000000E+00  0.67114725068E+03  0.67114725068E+03  0.00000000000E+00 0. -1.
         -1   -1    0    0    0  501 -0.00000000000E+00 -0.00000000000E+00 -0.77350814991E+03  0.77350814991E+03  0.00000000000E+00 0.  1.
         23    2    1    2    0    0  0.71837548299E+02  0.17204562994E+03 -0.42104380262E+03  0.46968521099E+03  0.92552588179E+02 0.  0.
        254    2    1    2    0    0 -0.71837548299E+02 -0.17204562994E+03  0.31868290339E+03  0.97497018959E+03  0.90235677288E+03 0.  0.
         23    2    4    4    0    0  0.37940293959E+03 -0.22343167030E+03  0.22176943455E+03  0.50178146079E+03  0.93459351744E+02 0.  0.
         23    2    4    4    0    0 -0.45124048789E+03  0.51386040359E+02  0.96913468836E+02  0.47318872880E+03  0.90867208406E+02 0.  0.
          1    1    3    3  502    0  0.18086004976E+02  0.13727507548E+02 -0.79802234338E+01  0.24067239259E+02  0.00000000000E+00 0. -1.
         -1    1    3    3    0  502  0.53751543322E+02  0.15831812239E+03 -0.41306357918E+03  0.44561797174E+03  0.00000000000E+00 0.  1.
         13    1    5    5    0    0  0.34016305689E+03 -0.22910459878E+03  0.19650372596E+03  0.45476756346E+03  0.00000000000E+00 0. -1.
        -13    1    5    5    0    0  0.39239882704E+02  0.56729284812E+01  0.25265708590E+02  0.47013897336E+02  0.00000000000E+00 0.  1.
          1    1    6    6  503    0 -0.43758774280E+03  0.64909591902E+02  0.10048050147E+03  0.45364371366E+03  0.00000000000E+00 0. -1.
         -1    1    6    6    0  503 -0.13652745093E+02 -0.13523551543E+02 -0.35670326337E+01  0.19545015137E+02  0.00000000000E+00 0.  1.
<mgrwt>
<rscale>  0 0.14410245E+04</rscale>
<asrwt>0</asrwt>
<pdfrwt beam="1">  1        1 0.10325342E+00 0.14410245E+04</pdfrwt>
<pdfrwt beam="2">  1       -1 0.11900125E+00 0.14410245E+04</pdfrwt>
<totfact> 0.17837796E+01</totfact>
</mgrwt>
</event>
<event>
12    3  0.4806716E-008  0.1654377E+04  0.7818608E-02  0.8787821E-01
          4   -1    0    0  501    0  0.00000000000E+00  0.00000000000E+00  0.26270820481E+04  0.26270820481E+04  0.00000000000E+00 0. -1.
         -4   -1    0    0    0  501 -0.00000000000E+00 -0.00000000000E+00 -0.26045663277E+03  0.26045663277E+03  0.00000000000E+00 0.  1.
         23    2    1    2    0    0  0.10720702581E+03  0.22439635351E+03  0.17474173324E+04  0.17673721937E+04  0.91049807854E+02 0.  0.
        254    2    1    2    0    0 -0.10720702581E+03 -0.22439635351E+03  0.61920808292E+03  0.11201664872E+04  0.89972620237E+03 0.  0.
         23    2    4    4    0    0  0.29152160193E+03  0.17149801192E+03  0.33522714645E+03  0.48418981571E+03  0.87556412887E+02 0.  0.
         23    2    4    4    0    0 -0.39872862774E+03 -0.39589436543E+03  0.28398093647E+03  0.63597667148E+03  0.90023814809E+02 0.  0.
          1    1    3    3  502    0  0.90560869430E+02  0.23005037787E+03  0.16258314992E+04  0.16445219704E+04  0.00000000000E+00 0. -1.
         -1    1    3    3    0  502  0.16646156381E+02 -0.56540243651E+01  0.12158583328E+03  0.12285022331E+03  0.00000000000E+00 0.  1.
         13    1    5    5    0    0  0.66319565263E+02  0.81453146298E+02  0.12455175893E+03  0.16292955666E+03  0.00000000000E+00 0. -1.
        -13    1    5    5    0    0  0.22520203667E+03  0.90044865624E+02  0.21067538752E+03  0.32126025906E+03  0.00000000000E+00 0.  1.
          4    1    6    6  503    0 -0.23701812561E+03 -0.25740801609E+03  0.13022705963E+03  0.37335715565E+03  0.00000000000E+00 0. -1.
         -4    1    6    6    0  503 -0.16171050213E+03 -0.13848634934E+03  0.15375387684E+03  0.26261951583E+03  0.00000000000E+00 0.  1.
<mgrwt>
<rscale>  0 0.16543772E+04</rscale>
<asrwt>0</asrwt>
<pdfrwt beam="1">  1        4 0.40416645E+00 0.16543772E+04</pdfrwt>
<pdfrwt beam="2">  1       -4 0.40070253E-01 0.16543772E+04</pdfrwt>
<totfact> 0.74916412E-02</totfact>
</mgrwt>
</event>
<event>
12    3  0.4806716E-008  0.1699873E+04  0.7818608E-02  0.8761437E-01
         -1   -1    0    0    0  501 -0.00000000000E+00  0.00000000000E+00  0.10106477814E+04  0.10106477814E+04  0.00000000000E+00 0.  1.
          1   -1    0    0  501    0  0.00000000000E+00 -0.00000000000E+00 -0.71478120285E+03  0.71478120285E+03  0.00000000000E+00 0. -1.
         23    2    1    2    0    0  0.36269041416E+03 -0.42402857024E+03 -0.15540819698E+03  0.58620426773E+03  0.90217353737E+02 0.  0.
        254    2    1    2    0    0 -0.36269041416E+03  0.42402857024E+03  0.45127477553E+03  0.11392247165E+04  0.88478215781E+03 0.  0.
         23    2    4    4    0    0 -0.42211973920E+02  0.99070289341E+02 -0.25620951343E+03  0.29218987396E+03  0.90193318504E+02 0.  0.
         23    2    4    4    0    0 -0.32047844024E+03  0.32495828090E+03  0.70748428895E+03  0.84703484255E+03  0.92896126890E+02 0.  0.
          1    1    3    3  502    0  0.19881384293E+03 -0.26465688274E+03 -0.13219754404E+03  0.35643568897E+03  0.00000000000E+00 0. -1.
         -1    1    3    3    0  502  0.16387657123E+03 -0.15937168750E+03 -0.23210652931E+02  0.22976857876E+03  0.00000000000E+00 0.  1.
         13    1    5    5    0    0 -0.57861115769E+02  0.99136974596E+02 -0.17364466248E+03  0.20815503178E+03  0.00000000000E+00 0.  1.
        -13    1    5    5    0    0  0.15649141849E+02 -0.66685254929E-01 -0.82564850948E+02  0.84034842176E+02  0.00000000000E+00 0. -1.
          1    1    6    6  503    0 -0.77205409781E+02  0.14103543866E+03  0.24283289166E+03  0.29123784701E+03  0.00000000000E+00 0. -1.
         -1    1    6    6    0  503 -0.24327303046E+03  0.18392284224E+03  0.46465139729E+03  0.55579699554E+03  0.00000000000E+00 0.  1.
<mgrwt>
<rscale>  0 0.16998730E+04</rscale>
<asrwt>0</asrwt>
<pdfrwt beam="1">  1        1 0.10996634E+00 0.16998730E+04</pdfrwt>
<pdfrwt beam="2">  1       -1 0.15548427E+00 0.16998730E+04</pdfrwt>
<totfact> 0.79453138E+00</totfact>
</mgrwt>
</event>
<event>
12    3  0.4806716E-008  0.2243036E+04  0.7818608E-02  0.8500726E-01
          1   -1    0    0  501    0  0.00000000000E+00  0.00000000000E+00  0.21426972002E+04  0.21426972002E+04  0.00000000000E+00 0. -1.
         -1   -1    0    0    0  501 -0.00000000000E+00 -0.00000000000E+00 -0.58701813210E+03  0.58701813210E+03  0.00000000000E+00 0.  1.
         23    2    1    2    0    0  0.61294671234E+03  0.33000850740E+03  0.14242590979E+04  0.15877781451E+04  0.88972876922E+02 0.  0.
        254    2    1    2    0    0 -0.61294671234E+03 -0.33000850740E+03  0.13141997017E+03  0.11419371872E+04  0.89562271291E+03 0.  0.
         23    2    4    4    0    0 -0.63884435028E+03  0.20136817757E+02  0.33336279232E+03  0.72664674556E+03  0.91417428388E+02 0.  0.
         23    2    4    4    0    0  0.25897637937E+02 -0.35014532516E+03 -0.20194282215E+03  0.41529044167E+03  0.91721377751E+02 0.  0.
          2    1    3    3  502    0  0.63849592343E+02  0.30378436049E+02  0.21471150184E+03  0.22605452626E+03  0.00000000000E+00 0.  1.
         -2    1    3    3    0  502  0.54909712000E+03  0.29963007136E+03  0.12095475961E+04  0.13617236188E+04  0.00000000000E+00 0. -1.
         13    1    5    5    0    0 -0.41538526705E+03 -0.16112806533E+02  0.25185257490E+03  0.48603936271E+03  0.00000000000E+00 0.  1.
        -13    1    5    5    0    0 -0.22345908323E+03  0.36249624291E+02  0.81510217425E+02  0.24060738285E+03  0.00000000000E+00 0. -1.
          4    1    6    6  503    0 -0.12071991786E+02 -0.48510935887E+02  0.58276520142E+00  0.49993834636E+02  0.00000000000E+00 0. -1.
         -4    1    6    6    0  503  0.37969629723E+02 -0.30163438927E+03 -0.20252558736E+03  0.36529660703E+03  0.00000000000E+00 0.  1.
<mgrwt>
<rscale>  0 0.22430355E+04</rscale>
<asrwt>0</asrwt>
<pdfrwt beam="1">  1        1 0.32964572E+00 0.22430355E+04</pdfrwt>
<pdfrwt beam="2">  1       -1 0.90310483E-01 0.22430355E+04</pdfrwt>
<totfact> 0.25949058E+00</totfact>
</mgrwt>
</event>
<event>
12    3  0.4806716E-008  0.1496561E+04  0.7818608E-02  0.8886743E-01
         -4   -1    0    0    0  501 -0.00000000000E+00  0.00000000000E+00  0.20199266725E+04  0.20199266725E+04  0.00000000000E+00 0. -1.
          4   -1    0    0  501    0  0.00000000000E+00 -0.00000000000E+00 -0.27719989989E+03  0.27719989989E+03  0.00000000000E+00 0.  1.
         23    2    1    2    0    0  0.33366551232E+02  0.24502066424E+02 -0.16328090069E+03  0.19032380924E+03  0.88593576702E+02 0.  0.
        254    2    1    2    0    0 -0.33366551232E+02 -0.24502066424E+02  0.19060076733E+04  0.21068027632E+04  0.89668219237E+03 0.  0.
         23    2    4    4    0    0  0.12280077003E+02  0.26517766855E+03  0.13892832388E+03  0.31329601648E+03  0.91560464057E+02 0.  0.
         23    2    4    4    0    0 -0.45646628235E+02 -0.28967973497E+03  0.17670793495E+04  0.17935067467E+04  0.89994775638E+02 0.  0.
          2    1    3    3  502    0 -0.61852556407E+01 -0.10150151943E+02  0.58206921988E+01  0.13234932168E+02  0.00000000000E+00 0. -1.
         -2    1    3    3    0  502  0.39551806873E+02  0.34652218367E+02 -0.16910159289E+03  0.17708887707E+03  0.00000000000E+00 0.  1.
         13    1    5    5    0    0  0.33020126156E+02  0.22997303075E+03  0.14205168030E+03  0.27231710097E+03  0.00000000000E+00 0.  1.
        -13    1    5    5    0    0 -0.20740049153E+02  0.35204637799E+02 -0.31233564165E+01  0.40978915515E+02  0.00000000000E+00 0. -1.
          1    1    6    6  503    0  0.14102531295E+02 -0.14976933822E+03  0.73106162214E+03  0.74637847733E+03  0.00000000000E+00 0. -1.
         -1    1    6    6    0  503 -0.59749159530E+02 -0.13991039676E+03  0.10360177273E+04  0.10471282694E+04  0.00000000000E+00 0.  1.
<mgrwt>
<rscale>  0 0.14965607E+04</rscale>
<asrwt>0</asrwt>
<pdfrwt beam="1">  1        4 0.42646140E-01 0.14965607E+04</pdfrwt>
<pdfrwt beam="2">  1       -4 0.31075794E+00 0.14965607E+04</pdfrwt>
<totfact> 0.27585889E-01</totfact>
</mgrwt>
</event>
<event>
12    3  0.4806716E-008  0.1270200E+04  0.7818608E-02  0.9053536E-01
         -2   -1    0    0    0  501 -0.00000000000E+00  0.00000000000E+00  0.18707725766E+03  0.18707725766E+03  0.00000000000E+00 0.  1.
          2   -1    0    0  501    0  0.00000000000E+00 -0.00000000000E+00 -0.21560717412E+04  0.21560717412E+04  0.00000000000E+00 0. -1.
         23    2    1    2    0    0 -0.47940380025E+02 -0.22117383243E+03 -0.88146804689E+03  0.91480002589E+03  0.93043137755E+02 0.  0.
        254    2    1    2    0    0  0.47940380025E+02  0.22117383243E+03 -0.10875264367E+04  0.14283489730E+04  0.89791474763E+03 0.  0.
         23    2    4    4    0    0 -0.14168606604E+03 -0.26437900372E+03 -0.71748821247E+03  0.78284744749E+03  0.89942159659E+02 0.  0.
         23    2    4    4    0    0  0.18962644607E+03  0.48555283615E+03 -0.37003822419E+03  0.64550152550E+03  0.89577822679E+02 0.  0.
          2    1    3    3  502    0 -0.42485004355E+02 -0.20697159725E+03 -0.87117623668E+03  0.89643195671E+03  0.00000000000E+00 0. -1.
         -2    1    3    3    0  502 -0.54553756693E+01 -0.14202235178E+02 -0.10291810216E+02  0.18368069176E+02  0.00000000000E+00 0.  1.
         13    1    5    5    0    0 -0.37230856044E+02 -0.10472384814E+03 -0.37115815331E+03  0.38744237736E+03  0.00000000000E+00 0. -1.
        -13    1    5    5    0    0 -0.10445521000E+03 -0.15965515558E+03 -0.34633005917E+03  0.39540507012E+03  0.00000000000E+00 0.  1.
          1    1    6    6  503    0  0.10417350368E+03  0.16815036977E+03 -0.16918841977E+03  0.26029096624E+03  0.00000000000E+00 0. -1.
         -1    1    6    6    0  503  0.85452942393E+02  0.31740246638E+03 -0.20084980442E+03  0.38521055926E+03  0.00000000000E+00 0.  1.
<mgrwt>
<rscale>  0 0.12702000E+04</rscale>
<asrwt>0</asrwt>
<pdfrwt beam="1">  1        2 0.33170334E+00 0.12702000E+04</pdfrwt>
<pdfrwt beam="2">  1       -2 0.28781117E-01 0.12702000E+04</pdfrwt>
<totfact> 0.59588913E+01</totfact>
</mgrwt>
</event>
<event>
12    3  0.4806716E-008  0.2301989E+04  0.7818608E-02  0.8477137E-01
         -1   -1    0    0    0  501 -0.00000000000E+00  0.00000000000E+00  0.62532546030E+03  0.62532546030E+03  0.00000000000E+00 0.  1.
          1   -1    0    0  501    0  0.00000000000E+00 -0.00000000000E+00 -0.21185581032E+04  0.21185581032E+04  0.00000000000E+00 0. -1.
         23    2    1    2    0    0 -0.42175968500E+02  0.77137724022E+03  0.72363766399E+02  0.78124340686E+03  0.91121276451E+02 0.  0.
        254    2    1    2    0    0  0.42175968500E+02 -0.77137724022E+03 -0.15655964093E+04  0.19626401566E+04  0.89669538228E+03 0.  0.
         23    2    4    4    0    0  0.10665396519E+03 -0.60763481193E+03 -0.31897440884E+03  0.70040610447E+03  0.90713310665E+02 0.  0.
         23    2    4    4    0    0 -0.64477996690E+02 -0.16374242830E+03 -0.12466220005E+04  0.12622340522E+04  0.90550513797E+02 0.  0.
          3    1    3    3  502    0 -0.22459107540E+02  0.23839186325E+03 -0.18694563975E+02  0.24017614099E+03  0.00000000000E+00 0. -1.
         -3    1    3    3    0  502 -0.19716860960E+02  0.53298537697E+03  0.91058330374E+02  0.54106726588E+03  0.00000000000E+00 0.  1.
         13    1    5    5    0    0  0.11605723586E+03 -0.55156881382E+03 -0.30866896114E+03  0.64263050499E+03  0.00000000000E+00 0. -1.
        -13    1    5    5    0    0 -0.94032706719E+01 -0.56065998110E+02 -0.10305447700E+02  0.57775599484E+02  0.00000000000E+00 0.  1.
          2    1    6    6  503    0 -0.18490485965E+02 -0.70468354597E+02 -0.25589030710E+03  0.26605927222E+03  0.00000000000E+00 0.  1.
         -2    1    6    6    0  503 -0.45987510725E+02 -0.93274073700E+02 -0.99073169336E+03  0.99617477994E+03  0.00000000000E+00 0. -1.
<mgrwt>
<rscale>  0 0.23019890E+04</rscale>
<asrwt>0</asrwt>
<pdfrwt beam="1">  1        1 0.32593202E+00 0.23019890E+04</pdfrwt>
<pdfrwt beam="2">  1       -1 0.96203916E-01 0.23019890E+04</pdfrwt>
<totfact> 0.23279116E+00</totfact>
</mgrwt>
</event>
<event>
12    3  0.4806716E-008  0.1845016E+04  0.7818608E-02  0.8682720E-01
          1   -1    0    0  501    0  0.00000000000E+00  0.00000000000E+00  0.12726710919E+04  0.12726710919E+04  0.00000000000E+00 0. -1.
         -1   -1    0    0    0  501 -0.00000000000E+00 -0.00000000000E+00 -0.66868900177E+03  0.66868900177E+03  0.00000000000E+00 0.  1.
         23    2    1    2    0    0  0.12949080613E+03 -0.13153278846E+03 -0.47872443536E+03  0.52118654332E+03  0.91594675703E+02 0.  0.
        254    2    1    2    0    0 -0.12949080613E+03  0.13153278846E+03  0.10827065255E+04  0.14201735504E+04  0.90031702721E+03 0.  0.
         23    2    4    4    0    0 -0.49187787275E+03  0.16801624442E+03  0.49802845458E+03  0.72528406967E+03  0.88494858915E+02 0.  0.
         23    2    4    4    0    0  0.36238706662E+03 -0.36483455961E+02  0.58467807093E+03  0.69488948070E+03  0.91474122823E+02 0.  0.
          1    1    3    3  502    0  0.90624197209E+00 -0.16918979994E+02 -0.14156057616E+03  0.14257092930E+03  0.00000000000E+00 0. -1.
         -1    1    3    3    0  502  0.12858456416E+03 -0.11461380846E+03 -0.33716385919E+03  0.37861561401E+03  0.00000000000E+00 0.  1.
         13    1    5    5    0    0 -0.38246885128E+03  0.16814435901E+03  0.39887827383E+03  0.57763208447E+03  0.00000000000E+00 0. -1.
        -13    1    5    5    0    0 -0.10940902147E+03 -0.12811459563E+00  0.99150180753E+02  0.14765198521E+03  0.00000000000E+00 0.  1.
          3    1    6    6  503    0  0.30014966369E+03 -0.46599192962E+02  0.41818058496E+03  0.51685230679E+03  0.00000000000E+00 0. -1.
         -3    1    6    6    0  503  0.62237402930E+02  0.10115737001E+02  0.16649748597E+03  0.17803717390E+03  0.00000000000E+00 0.  1.
<mgrwt>
<rscale>  0 0.18450162E+04</rscale>
<asrwt>0</asrwt>
<pdfrwt beam="1">  1        1 0.19579555E+00 0.18450162E+04</pdfrwt>
<pdfrwt beam="2">  1       -1 0.10287523E+00 0.18450162E+04</pdfrwt>
<totfact> 0.79426179E+00</totfact>
</mgrwt>
</event>
<event>
12    3  0.4806716E-008  0.2546718E+04  0.7818608E-02  0.8386529E-01
          1   -1    0    0  501    0  0.00000000000E+00  0.00000000000E+00  0.22507118542E+04  0.22507118542E+04  0.00000000000E+00 0. -1.
         -1   -1    0    0    0  501 -0.00000000000E+00 -0.00000000000E+00 -0.72041322002E+03  0.72041322002E+03  0.00000000000E+00 0.  1.
         23    2    1    2    0    0  0.80615180202E+03  0.42611916444E+03 -0.65179350521E+02  0.91870324458E+03  0.91153901063E+02 0.  0.
        254    2    1    2    0    0 -0.80615180202E+03 -0.42611916444E+03  0.15954779846E+04  0.20524218296E+04  0.91401701127E+03 0.  0.
         23    2    4    4    0    0 -0.25560343839E+03  0.28208866914E+02 -0.31146682190E+02  0.27371044877E+03  0.88421920736E+02 0.  0.
         23    2    4    4    0    0 -0.55054836363E+03 -0.45432803136E+03  0.16266246668E+04  0.17787113808E+04  0.91590986031E+02 0.  0.
          3    1    3    3  502    0  0.52093344121E+02  0.37944040958E+02  0.16923210791E+02  0.66632288039E+02  0.00000000000E+00 0. -1.
         -3    1    3    3    0  502  0.75405845789E+03  0.38817512349E+03 -0.82102561312E+02  0.85207095655E+03  0.00000000000E+00 0.  1.
         13    1    5    5    0    0 -0.31853965622E+02 -0.23117006478E+02  0.97193155186E+01  0.40540550175E+02  0.00000000000E+00 0.  1.
        -13    1    5    5    0    0 -0.22374947277E+03  0.51325873392E+02 -0.40865997709E+02  0.23316989860E+03  0.00000000000E+00 0. -1.
          4    1    6    6  503    0 -0.45309630307E+03 -0.32734411940E+03  0.12331156756E+04  0.13538924262E+04  0.00000000000E+00 0.  1.
         -4    1    6    6    0  503 -0.97452060553E+02 -0.12698391195E+03  0.39350899127E+03  0.42481895463E+03  0.00000000000E+00 0. -1.
<mgrwt>
<rscale>  0 0.25467176E+04</rscale>
<asrwt>0</asrwt>
<pdfrwt beam="1">  1        1 0.34626336E+00 0.25467176E+04</pdfrwt>
<pdfrwt beam="2">  1       -1 0.11083280E+00 0.25467176E+04</pdfrwt>
<totfact> 0.13338650E+00</totfact>
</mgrwt>
</event>
<event>
12    3  0.4806716E-008  0.1683433E+04  0.7818608E-02  0.8770870E-01
          1   -1    0    0  501    0  0.00000000000E+00  0.00000000000E+00  0.51555037344E+04  0.51555037344E+04  0.00000000000E+00 0. -1.
         -1   -1    0    0    0  501 -0.00000000000E+00 -0.00000000000E+00 -0.13742342429E+03  0.13742342429E+03  0.00000000000E+00 0.  1.
         23    2    1    2    0    0  0.12333999741E+01 -0.27392408307E+03  0.34525462599E+04  0.34645680927E+04  0.90113637335E+02 0.  0.
        254    2    1    2    0    0 -0.12333999741E+01  0.27392408307E+03  0.15655340502E+04  0.18283590660E+04  0.90386065699E+03 0.  0.
         23    2    4    4    0    0 -0.30745714039E+03 -0.11966529623E+03  0.10525235818E+04  0.11070320288E+04  0.94150657829E+02 0.  0.
         23    2    4    4    0    0  0.30622374042E+03  0.39358937931E+03  0.51301046842E+03  0.72132703714E+03  0.91909602882E+02 0.  0.
          2    1    3    3  502    0  0.24472739609E+02 -0.24902580504E+03  0.28097042945E+04  0.28208245229E+04  0.00000000000E+00 0. -1.
         -2    1    3    3    0  502 -0.23239339635E+02 -0.24898278034E+02  0.64284196541E+03  0.64374356979E+03  0.00000000000E+00 0.  1.
         13    1    5    5    0    0 -0.25851430381E+03 -0.91291811568E+02  0.96183173228E+03  0.10001420506E+04  0.00000000000E+00 0. -1.
        -13    1    5    5    0    0 -0.48942836586E+02 -0.28373484664E+02  0.90691849514E+02  0.10688997826E+03  0.00000000000E+00 0.  1.
          1    1    6    6  503    0  0.19826700061E+02  0.78749293080E+02  0.73875820830E+02  0.10978244896E+03  0.00000000000E+00 0. -1.
         -1    1    6    6    0  503  0.28639704036E+03  0.31484008623E+03  0.43913464759E+03  0.61154458818E+03  0.00000000000E+00 0.  1.
<mgrwt>
<rscale>  0 0.16834334E+04</rscale>
<asrwt>0</asrwt>
<pdfrwt beam="1">  1        1 0.79315427E+00 0.16834334E+04</pdfrwt>
<pdfrwt beam="2">  1       -1 0.21142069E-01 0.16834334E+04</pdfrwt>
<totfact> 0.98760179E-02</totfact>
</mgrwt>
</event>
<event>
12    3  0.4806716E-008  0.1945992E+04  0.7818608E-02  0.8632296E-01
          2   -1    0    0  501    0  0.00000000000E+00  0.00000000000E+00  0.31610557176E+04  0.31610557176E+04  0.00000000000E+00 0. -1.
         -2   -1    0    0    0  501 -0.00000000000E+00 -0.00000000000E+00 -0.29949538132E+03  0.29949538132E+03  0.00000000000E+00 0.  1.
         23    2    1    2    0    0  0.66360875605E+03 -0.34665160401E+03  0.84112614850E+03  0.11296270515E+04  0.89555358308E+02 0.  0.
        254    2    1    2    0    0 -0.66360875605E+03  0.34665160401E+03  0.20204341877E+04  0.23309240473E+04  0.88910555720E+03 0.  0.
         23    2    4    4    0    0 -0.66802585933E+03 -0.72954015964E+02  0.15602803267E+04  0.17014282928E+04  0.93822708801E+02 0.  0.
         23    2    4    4    0    0  0.44171032792E+01  0.41960561997E+03  0.46015386108E+03  0.62949575452E+03  0.91841940193E+02 0.  0.
          3    1    3    3  502    0  0.14504580971E+03 -0.42113030765E+02  0.14023105872E+03  0.20609838452E+03  0.00000000000E+00 0. -1.
         -3    1    3    3    0  502  0.51856294634E+03 -0.30453857324E+03  0.70089508978E+03  0.92352866701E+03  0.00000000000E+00 0.  1.
         13    1    5    5    0    0 -0.41719953756E+03 -0.88640887149E+02  0.94439437495E+03  0.10362400284E+04  0.00000000000E+00 0.  1.
        -13    1    5    5    0    0 -0.25082632177E+03  0.15686871184E+02  0.61588595171E+03  0.66518826443E+03  0.00000000000E+00 0. -1.
          2    1    6    6  503    0  0.18364951817E+02  0.12644568658E+02  0.26377502818E+02  0.34538807546E+02  0.00000000000E+00 0. -1.
         -2    1    6    6    0  503 -0.13947848538E+02  0.40696105131E+03  0.43377635826E+03  0.59495694697E+03  0.00000000000E+00 0.  1.
<mgrwt>
<rscale>  0 0.19459924E+04</rscale>
<asrwt>0</asrwt>
<pdfrwt beam="1">  1        2 0.48631624E+00 0.19459924E+04</pdfrwt>
<pdfrwt beam="2">  1       -2 0.46076214E-01 0.19459924E+04</pdfrwt>
<totfact> 0.57501204E+00</totfact>
</mgrwt>
</event>
<event>
12    3  0.4806716E-008  0.1744931E+04  0.7818608E-02  0.8736146E-01
          2   -1    0    0  501    0  0.00000000000E+00  0.00000000000E+00  0.55777221362E+03  0.55777221362E+03  0.00000000000E+00 0. -1.
         -2   -1    0    0    0  501 -0.00000000000E+00 -0.00000000000E+00 -0.13647072710E+04  0.13647072710E+04  0.00000000000E+00 0.  1.
         23    2    1    2    0    0 -0.46761745080E+03  0.41830755821E+03 -0.41737540582E+03  0.75899357007E+03  0.90673681272E+02 0.  0.
        254    2    1    2    0    0  0.46761745080E+03 -0.41830755821E+03 -0.38955965160E+03  0.11634859146E+04  0.89905253337E+03 0.  0.
         23    2    4    4    0    0  0.35373647893E+03 -0.63334517868E+02  0.22803205213E+03  0.43649980685E+03  0.96915978575E+02 0.  0.
         23    2    4    4    0    0  0.11388097187E+03 -0.35497304034E+03 -0.61759170373E+03  0.72698610774E+03  0.90080814855E+02 0.  0.
          3    1    3    3  502    0 -0.29434707232E+03  0.28907810155E+03 -0.22662061620E+03  0.47070505783E+03  0.00000000000E+00 0. -1.
         -3    1    3    3    0  502 -0.17327037848E+03  0.12922945666E+03 -0.19075478962E+03  0.28828851224E+03  0.00000000000E+00 0.  1.
         13    1    5    5    0    0  0.23842277680E+03 -0.86350951694E+02  0.17069344002E+03  0.30567655753E+03  0.00000000000E+00 0.  1.
        -13    1    5    5    0    0  0.11531370213E+03  0.23016433827E+02  0.57338612110E+02  0.13082324933E+03  0.00000000000E+00 0. -1.
          3    1    6    6  503    0 -0.14989740400E+02 -0.55062988770E+02 -0.88714872317E+02  0.10548437619E+03  0.00000000000E+00 0. -1.
         -3    1    6    6    0  503  0.12887071227E+03 -0.29991005157E+03 -0.52887683141E+03  0.62150173155E+03  0.00000000000E+00 0.  1.
<mgrwt>
<rscale>  0 0.17449307E+04</rscale>
<asrwt>0</asrwt>
<pdfrwt beam="1">  1        2 0.85811111E-01 0.17449307E+04</pdfrwt>
<pdfrwt beam="2">  1       -2 0.20995496E+00 0.17449307E+04</pdfrwt>
<totfact> 0.58776042E+00</totfact>
</mgrwt>
</event>
<event>
12    3  0.4806716E-008  0.2551606E+04  0.7818608E-02  0.8384828E-01
         -2   -1    0    0    0  501 -0.00000000000E+00  0.00000000000E+00  0.39022904224E+03  0.39022904224E+03  0.00000000000E+00 0.  1.
          2   -1    0    0  501    0  0.00000000000E+00 -0.00000000000E+00 -0.41710715691E+04  0.41710715691E+04  0.00000000000E+00 0. -1.
         23    2    1    2    0    0 -0.93174692834E+03  0.24832159744E+03 -0.68624428874E+03  0.11870742491E+04  0.91641119135E+02 0.  0.
        254    2    1    2    0    0  0.93174692834E+03 -0.24832159744E+03 -0.30945982382E+04  0.33742263623E+04  0.93757630859E+03 0.  0.
         23    2    4    4    0    0  0.97550179814E+03 -0.30400050440E+02 -0.29094939661E+04  0.30701034842E+04  0.88613448760E+02 0.  0.
         23    2    4    4    0    0 -0.43754869801E+02 -0.21792154700E+03 -0.18510427203E+03  0.30412287817E+03  0.93929996389E+02 0.  0.
          4    1    3    3  502    0 -0.21742301865E+01 -0.44722669075E+01 -0.15655727197E+01  0.52133929582E+01  0.00000000000E+00 0. -1.
         -4    1    3    3    0  502 -0.92957269815E+03  0.25279386435E+03 -0.68467871602E+03  0.11818608561E+04  0.00000000000E+00 0.  1.
         13    1    5    5    0    0  0.32765808270E+03  0.25952024158E+02 -0.91183137225E+03  0.96926249187E+03  0.00000000000E+00 0. -1.
        -13    1    5    5    0    0  0.64784371544E+03 -0.56352074598E+02 -0.19976625939E+04  0.21008409923E+04  0.00000000000E+00 0.  1.
          3    1    6    6  503    0 -0.60883800624E+02 -0.74258233888E+02 -0.84393655028E+02  0.12784135281E+03  0.00000000000E+00 0. -1.
         -3    1    6    6    0  503  0.17128930823E+02 -0.14366331312E+03 -0.10071061700E+03  0.17628152536E+03  0.00000000000E+00 0.  1.
<mgrwt>
<rscale>  0 0.25516060E+04</rscale>
<asrwt>0</asrwt>
<pdfrwt beam="1">  1        2 0.64170333E+00 0.25516060E+04</pdfrwt>
<pdfrwt beam="2">  1       -2 0.60035236E-01 0.25516060E+04</pdfrwt>
<totfact> 0.56788308E-01</totfact>
</mgrwt>
</event>
<event>
12    3  0.4806716E-008  0.1522619E+04  0.7818608E-02  0.8869549E-01
          1   -1    0    0  501    0  0.00000000000E+00  0.00000000000E+00  0.24721617416E+04  0.24721617416E+04  0.00000000000E+00 0. -1.
         -1   -1    0    0    0  501 -0.00000000000E+00 -0.00000000000E+00 -0.23444747941E+03  0.23444747941E+03  0.00000000000E+00 0.  1.
         23    2    1    2    0    0  0.35176732555E+02  0.80825554166E+02  0.15784966958E+04  0.15844743257E+04  0.10553149947E+03 0.  0.
        254    2    1    2    0    0 -0.35176732555E+02 -0.80825554166E+02  0.65921756639E+03  0.11221348953E+04  0.90379685258E+03 0.  0.
         23    2    4    4    0    0  0.35606242264E+03  0.57355306308E+02  0.43425819115E+02  0.37389991146E+03  0.88573483853E+02 0.  0.
         23    2    4    4    0    0 -0.39123915520E+03 -0.13818086047E+03  0.61579174728E+03  0.74823498386E+03  0.92163378308E+02 0.  0.
          3    1    3    3  502    0  0.26957661900E+02  0.54641349996E+02  0.15014511093E+04  0.15026868690E+04  0.00000000000E+00 0. -1.
         -3    1    3    3    0  502  0.82190706548E+01  0.26184204170E+02  0.77045586471E+02  0.81787456649E+02  0.00000000000E+00 0.  1.
         13    1    5    5    0    0  0.19247573603E+03  0.39486827574E+02  0.67143141194E+02  0.20763988037E+03  0.00000000000E+00 0. -1.
        -13    1    5    5    0    0  0.16358668662E+03  0.17868478733E+02 -0.23717322079E+02  0.16626003109E+03  0.00000000000E+00 0.  1.
          2    1    6    6  503    0 -0.37774576501E+03 -0.14955902345E+03  0.59962567038E+03  0.72430015122E+03  0.00000000000E+00 0. -1.
         -2    1    6    6    0  503 -0.13493390192E+02  0.11378162974E+02  0.16166076895E+02  0.23934832644E+02  0.00000000000E+00 0.  1.
<mgrwt>
<rscale>  0 0.15226189E+04</rscale>
<asrwt>0</asrwt>
<pdfrwt beam="1">  1        1 0.38033256E+00 0.15226189E+04</pdfrwt>
<pdfrwt beam="2">  1       -1 0.36068845E-01 0.15226189E+04</pdfrwt>
<totfact> 0.10076491E+01</totfact>
</mgrwt>
</event>
<event>
12    3  0.4806716E-008  0.2174120E+04  0.7818608E-02  0.8529278E-01
          2   -1    0    0  501    0  0.00000000000E+00  0.00000000000E+00  0.71545660916E+03  0.71545660916E+03  0.00000000000E+00 0. -1.
         -2   -1    0    0    0  501 -0.00000000000E+00 -0.00000000000E+00 -0.16516711050E+04  0.16516711050E+04  0.00000000000E+00 0.  1.
         23    2    1    2    0    0 -0.69381348237E+03  0.38319029827E+03 -0.84940845847E+03  0.11653281718E+04  0.91011349599E+02 0.  0.
        254    2    1    2    0    0  0.69381348237E+03 -0.38319029827E+03 -0.86806037404E+02  0.12017995424E+04  0.89920792862E+03 0.  0.
         23    2    4    4    0    0  0.32620385349E+03 -0.65151222359E+03 -0.67292385829E+02  0.73743161861E+03  0.91651488942E+02 0.  0.
         23    2    4    4    0    0  0.36760962888E+03  0.26832192532E+03 -0.19513651575E+02  0.46436792375E+03  0.90129302428E+02 0.  0.
          4    1    3    3  502    0 -0.61437524088E+03  0.30443713037E+03 -0.74078857774E+03  0.10094090449E+04  0.00000000000E+00 0.  1.
         -4    1    3    3    0  502 -0.79438241485E+02  0.78753167896E+02 -0.10861988072E+03  0.15591912696E+03  0.00000000000E+00 0. -1.
         13    1    5    5    0    0  0.26095932946E+03 -0.44461288911E+03 -0.23247376411E+02  0.51606281915E+03  0.00000000000E+00 0. -1.
        -13    1    5    5    0    0  0.65244524027E+02 -0.20689933447E+03 -0.44045009418E+02  0.22136879946E+03  0.00000000000E+00 0.  1.
          1    1    6    6  503    0  0.30241750828E+03  0.25772128843E+03 -0.86425129832E+01  0.39743088060E+03  0.00000000000E+00 0. -1.
         -1    1    6    6    0  503  0.65192120604E+02  0.10600636886E+02 -0.10871138591E+02  0.66937043149E+02  0.00000000000E+00 0.  1.
<mgrwt>
<rscale>  0 0.21741196E+04</rscale>
<asrwt>0</asrwt>
<pdfrwt beam="1">  1        2 0.11007025E+00 0.21741196E+04</pdfrwt>
<pdfrwt beam="2">  1       -2 0.25410325E+00 0.21741196E+04</pdfrwt>
<totfact> 0.22129240E+00</totfact>
</mgrwt>
</event>
<event>
12    3  0.4806716E-008  0.1495330E+04  0.7818608E-02  0.8887564E-01
          2   -1    0    0  501    0  0.00000000000E+00  0.00000000000E+00  0.43372180234E+03  0.43372180234E+03  0.00000000000E+00 0. -1.
         -2   -1    0    0    0  501 -0.00000000000E+00 -0.00000000000E+00 -0.12888520023E+04  0.12888520023E+04  0.00000000000E+00 0.  1.
         23    2    1    2    0    0  0.34710219057E+03 -0.12634933479E+03 -0.25987567526E+03  0.46044511877E+03  0.89611694028E+02 0.  0.
        254    2    1    2    0    0 -0.34710219057E+03  0.12634933479E+03 -0.59525452475E+03  0.12621286859E+04  0.10498556022E+04 0.  0.
         23    2    4    4    0    0 -0.11668713322E+01 -0.57973971142E+01  0.28633473251E+03  0.30034784638E+03  0.90478054708E+02 0.  0.
         23    2    4    4    0    0 -0.34593531924E+03  0.13214673190E+03 -0.88158925726E+03  0.96178083953E+03  0.10338646398E+03 0.  0.
          1    1    3    3  502    0  0.32586745968E+03 -0.94631751552E+02 -0.21579149826E+03  0.40213273978E+03  0.00000000000E+00 0. -1.
         -1    1    3    3    0  502  0.21234730895E+02 -0.31717583233E+02 -0.44084176994E+02  0.58312378991E+02  0.00000000000E+00 0.  1.
         13    1    5    5    0    0  0.24096697052E+02  0.21056633794E+02  0.39790088651E+02  0.51061568624E+02  0.00000000000E+00 0.  1.
        -13    1    5    5    0    0 -0.25263568384E+02 -0.26854030908E+02  0.24654464386E+03  0.24928627776E+03  0.00000000000E+00 0. -1.
          2    1    6    6  503    0 -0.34077811352E+03  0.12409235848E+03 -0.78509452141E+03  0.86481329987E+03  0.00000000000E+00 0. -1.
         -2    1    6    6    0  503 -0.51572057196E+01  0.80543734226E+01 -0.96494735846E+02  0.96967539662E+02  0.00000000000E+00 0.  1.
<mgrwt>
<rscale>  0 0.14953303E+04</rscale>
<asrwt>0</asrwt>
<pdfrwt beam="1">  1        2 0.66726432E-01 0.14953303E+04</pdfrwt>
<pdfrwt beam="2">  1       -2 0.19828492E+00 0.14953303E+04</pdfrwt>
<totfact> 0.95606364E+00</totfact>
</mgrwt>
</event>
<event>
12    3  0.4806716E-008  0.2416404E+04  0.7818608E-02  0.8433388E-01
          2   -1    0    0  501    0  0.00000000000E+00  0.00000000000E+00  0.14285128606E+04  0.14285128606E+04  0.00000000000E+00 0.  1.
         -2   -1    0    0    0  501 -0.00000000000E+00 -0.00000000000E+00 -0.10218679793E+04  0.10218679793E+04  0.00000000000E+00 0. -1.
         23    2    1    2    0    0 -0.30059542140E+02  0.79045067172E+03 -0.50806567620E+03  0.94460836689E+03  0.91860736832E+02 0.  0.
        254    2    1    2    0    0  0.30059542140E+02 -0.79045067172E+03  0.91471055745E+03  0.15057724730E+04  0.89718420401E+03 0.  0.
         23    2    4    4    0    0  0.17185028295E+03 -0.77299861909E+03  0.10289578764E+04  0.13015468822E+04  0.90612308169E+02 0.  0.
         23    2    4    4    0    0 -0.14179074081E+03 -0.17452052635E+02 -0.11424731891E+03  0.20422559076E+03  0.90809986914E+02 0.  0.
          2    1    3    3  502    0 -0.28868258698E+02  0.38881701237E+03 -0.30216368995E+03  0.49326964329E+03  0.00000000000E+00 0. -1.
         -2    1    3    3    0  502 -0.11912834423E+01  0.40163365935E+03 -0.20590198625E+03  0.45133872360E+03  0.00000000000E+00 0.  1.
         13    1    5    5    0    0  0.96412946351E+02 -0.59319976011E+03  0.74716787849E+03  0.95887499200E+03  0.00000000000E+00 0. -1.
        -13    1    5    5    0    0  0.75437336597E+02 -0.17979885897E+03  0.28178999787E+03  0.34267189021E+03  0.00000000000E+00 0.  1.
          3    1    6    6  503    0 -0.73868775677E+02  0.18417567490E+02 -0.10068305222E+03  0.12622551175E+03  0.00000000000E+00 0. -1.
         -3    1    6    6    0  503 -0.67921965131E+02 -0.35869620125E+02 -0.13564266695E+02  0.78000079013E+02  0.00000000000E+00 0.  1.
<mgrwt>
<rscale>  0 0.24164036E+04</rscale>
<asrwt>0</asrwt>
<pdfrwt beam="1">  1        2 0.21977121E+00 0.24164036E+04</pdfrwt>
<pdfrwt beam="2">  1       -2 0.15721046E+00 0.24164036E+04</pdfrwt>
<totfact> 0.33075575E+00</totfact>
</mgrwt>
</event>
<event>
12    3  0.4806716E-008  0.3477860E+04  0.7818608E-02  0.8119057E-01
         -1   -1    0    0    0  501 -0.00000000000E+00  0.00000000000E+00  0.20014668407E+04  0.20014668407E+04  0.00000000000E+00 0.  1.
          1   -1    0    0  501    0  0.00000000000E+00 -0.00000000000E+00 -0.15108306178E+04  0.15108306178E+04  0.00000000000E+00 0. -1.
         23    2    1    2    0    0  0.50436269764E+03  0.72961714251E+02  0.17828581242E+04  0.18565256870E+04  0.91648202580E+02 0.  0.
        254    2    1    2    0    0 -0.50436269764E+03 -0.72961714251E+02 -0.12922219014E+04  0.16557717715E+04  0.90113127473E+03 0.  0.
         23    2    4    4    0    0  0.67269531853E+02  0.25942713673E+03 -0.11988385312E+03  0.30652070899E+03  0.88063486249E+02 0.  0.
         23    2    4    4    0    0 -0.57163222949E+03 -0.33238885098E+03 -0.11723380482E+04  0.13492510625E+04  0.94107258905E+02 0.  0.
          2    1    3    3  502    0  0.43507787675E+02  0.33815580932E+02  0.20493102132E+03  0.21221014255E+03  0.00000000000E+00 0. -1.
         -2    1    3    3    0  502  0.46085490996E+03  0.39146133319E+02  0.15779271029E+04  0.16443155445E+04  0.00000000000E+00 0.  1.
         13    1    5    5    0    0  0.81045549156E+01  0.11302260044E+02  0.12881422606E+02  0.18956685914E+02  0.00000000000E+00 0. -1.
        -13    1    5    5    0    0  0.59164976937E+02  0.24812487669E+03 -0.13276527572E+03  0.28756402307E+03  0.00000000000E+00 0.  1.
          4    1    6    6  503    0 -0.37002605793E+02 -0.39258073940E+02 -0.59403230823E+02  0.80244208745E+02  0.00000000000E+00 0. -1.
         -4    1    6    6    0  503 -0.53462962370E+03 -0.29313077704E+03 -0.11129348174E+04  0.12690068537E+04  0.00000000000E+00 0.  1.
<mgrwt>
<rscale>  0 0.34778599E+04</rscale>
<asrwt>0</asrwt>
<pdfrwt beam="1">  1        1 0.23243548E+00 0.34778599E+04</pdfrwt>
<pdfrwt beam="2">  1       -1 0.30791797E+00 0.34778599E+04</pdfrwt>
<totfact> 0.15414534E-01</totfact>
</mgrwt>
</event>
<event>
12    3  0.4806716E-008  0.2267258E+04  0.7818608E-02  0.8490944E-01
         -2   -1    0    0    0  501 -0.00000000000E+00  0.00000000000E+00  0.99546745104E+03  0.99546745104E+03  0.00000000000E+00 0.  1.
          2   -1    0    0  501    0  0.00000000000E+00 -0.00000000000E+00 -0.12909655997E+04  0.12909655997E+04  0.00000000000E+00 0. -1.
         23    2    1    2    0    0 -0.10270147792E+03 -0.62128331406E+03 -0.84642506950E+03  0.10591719329E+04  0.94176617784E+02 0.  0.
        254    2    1    2    0    0  0.10270147792E+03  0.62128331406E+03  0.55092692087E+03  0.12272611178E+04  0.89783563593E+03 0.  0.
         23    2    4    4    0    0  0.24227326571E+03  0.62885942877E+03  0.30930460537E+02  0.68102924894E+03  0.93185986582E+02 0.  0.
         23    2    4    4    0    0 -0.13957178779E+03 -0.75761147043E+01  0.51999646034E+03  0.54623186883E+03  0.91843640512E+02 0.  0.
          1    1    3    3  502    0 -0.11592026052E+03 -0.45913548740E+03 -0.64778956904E+03  0.80241773930E+03  0.00000000000E+00 0. -1.
         -1    1    3    3    0  502  0.13218782597E+02 -0.16214782667E+03 -0.19863550046E+03  0.25675419363E+03  0.00000000000E+00 0.  1.
         13    1    5    5    0    0  0.44678738315E+02  0.12499439246E+03  0.43421242986E+02  0.13966099007E+03  0.00000000000E+00 0.  1.
        -13    1    5    5    0    0  0.19759452740E+03  0.50386503631E+03 -0.12490782449E+02  0.54136825888E+03  0.00000000000E+00 0. -1.
          3    1    6    6  503    0 -0.15077688991E+03 -0.12837391757E+01  0.43782560168E+03  0.46306217294E+03  0.00000000000E+00 0. -1.
         -3    1    6    6    0  503  0.11205102114E+02 -0.62923755286E+01  0.82170858656E+02  0.83169695896E+02  0.00000000000E+00 0.  1.
<mgrwt>
<rscale>  0 0.22672576E+04</rscale>
<asrwt>0</asrwt>
<pdfrwt beam="1">  1        2 0.19861009E+00 0.22672576E+04</pdfrwt>
<pdfrwt beam="2">  1       -2 0.15314884E+00 0.22672576E+04</pdfrwt>
<totfact> 0.43129236E+00</totfact>
</mgrwt>
</event>
<event>
12    3  0.4806716E-008  0.2021811E+04  0.7818608E-02  0.8596491E-01
          2   -1    0    0  501    0  0.00000000000E+00  0.00000000000E+00  0.20932403667E+04  0.20932403667E+04  0.00000000000E+00 0. -1.
         -2   -1    0    0    0  501 -0.00000000000E+00 -0.00000000000E+00 -0.48820480482E+03  0.48820480482E+03  0.00000000000E+00 0.  1.
         23    2    1    2    0    0  0.47242150887E+03  0.44370054796E+03  0.27095389802E+02  0.65568752011E+03  0.95601807419E+02 0.  0.
        254    2    1    2    0    0 -0.47242150887E+03 -0.44370054796E+03  0.15779401721E+04  0.19257576514E+04  0.89364147564E+03 0.  0.
         23    2    4    4    0    0 -0.89243420134E+01  0.23328894092E+03  0.20310745553E+03  0.32224555224E+03  0.89923209494E+02 0.  0.
         23    2    4    4    0    0 -0.46349716686E+03 -0.67698948888E+03  0.13748327165E+04  0.16035120992E+04  0.89116002748E+02 0.  0.
          4    1    3    3  502    0  0.15334592924E+03  0.17402797240E+03 -0.30569872882E+02  0.23395560758E+03  0.00000000000E+00 0.  1.
         -4    1    3    3    0  502  0.31907557964E+03  0.26967257556E+03  0.57665262684E+02  0.42173191253E+03  0.00000000000E+00 0. -1.
         13    1    5    5    0    0 -0.72676459204E+01  0.28480870713E+02 -0.54954702500E+01  0.29902823731E+02  0.00000000000E+00 0.  1.
        -13    1    5    5    0    0 -0.16566960930E+01  0.20480807021E+03  0.20860292578E+03  0.29234272851E+03  0.00000000000E+00 0. -1.
          2    1    6    6  503    0 -0.30969084963E+03 -0.43732554238E+03  0.97620452921E+03  0.11136145362E+04  0.00000000000E+00 0. -1.
         -2    1    6    6    0  503 -0.15380631723E+03 -0.23966394650E+03  0.39862818733E+03  0.48989756297E+03  0.00000000000E+00 0.  1.
<mgrwt>
<rscale>  0 0.20218111E+04</rscale>
<asrwt>0</asrwt>
<pdfrwt beam="1">  1        2 0.32203697E+00 0.20218111E+04</pdfrwt>
<pdfrwt beam="2">  1       -2 0.75108433E-01 0.20218111E+04</pdfrwt>
<totfact> 0.87490647E+00</totfact>
</mgrwt>
</event>
<event>
12    3  0.4806716E-008  0.2684791E+04  0.7818608E-02  0.8339957E-01
          3   -1    0    0  501    0  0.00000000000E+00  0.00000000000E+00  0.22819346320E+04  0.22819346320E+04  0.00000000000E+00 0. -1.
         -3   -1    0    0    0  501 -0.00000000000E+00 -0.00000000000E+00 -0.78969218162E+03  0.78969218162E+03  0.00000000000E+00 0.  1.
         23    2    1    2    0    0 -0.61461703011E+03  0.82466346822E+03 -0.16137770986E+02  0.10326564347E+04  0.91076642984E+02 0.  0.
        254    2    1    2    0    0  0.61461703011E+03 -0.82466346822E+03  0.15083802213E+04  0.20389703789E+04  0.90794569467E+03 0.  0.
         23    2    4    4    0    0 -0.13780198181E+03 -0.21268823076E+03  0.77189263462E+03  0.81777635694E+03  0.93350205655E+02 0.  0.
         23    2    4    4    0    0  0.75241901191E+03 -0.61197523746E+03  0.73648758670E+03  0.12211940220E+04  0.90844995327E+02 0.  0.
          2    1    3    3  502    0 -0.90673904807E+02  0.10303276681E+03  0.26816185258E+02  0.13984497074E+03  0.00000000000E+00 0. -1.
         -2    1    3    3    0  502 -0.52394312530E+03  0.72163070141E+03 -0.42953956244E+02  0.89281146393E+03  0.00000000000E+00 0.  1.
         13    1    5    5    0    0 -0.84483419349E+02 -0.17027053414E+03  0.65949679435E+03  0.68634213385E+03  0.00000000000E+00 0.  1.
        -13    1    5    5    0    0 -0.53318562457E+02 -0.42417696622E+02  0.11239584027E+03  0.13143422309E+03  0.00000000000E+00 0. -1.
          3    1    6    6  503    0  0.14019450670E+02  0.98455667699E+00  0.67301642923E+01  0.15582344507E+02  0.00000000000E+00 0. -1.
         -3    1    6    6    0  503  0.73839956124E+03 -0.61295979414E+03  0.72975742241E+03  0.12056116775E+04  0.00000000000E+00 0.  1.
<mgrwt>
<rscale>  0 0.26847912E+04</rscale>
<asrwt>0</asrwt>
<pdfrwt beam="1">  1        3 0.35106686E+00 0.26847912E+04</pdfrwt>
<pdfrwt beam="2">  1       -3 0.12149111E+00 0.26847912E+04</pdfrwt>
<totfact> 0.25519633E-02</totfact>
</mgrwt>
</event>
<event>
12    3  0.4806716E-008  0.1396865E+04  0.7818608E-02  0.8956091E-01
          1   -1    0    0  501    0  0.00000000000E+00  0.00000000000E+00  0.86479458017E+03  0.86479458017E+03  0.00000000000E+00 0. -1.
         -1   -1    0    0    0  501 -0.00000000000E+00 -0.00000000000E+00 -0.56407367054E+03  0.56407367054E+03  0.00000000000E+00 0.  1.
         23    2    1    2    0    0  0.21704814762E+03  0.10884482411E+03 -0.23487544826E+03  0.35701754640E+03  0.11549007801E+03 0.  0.
        254    2    1    2    0    0 -0.21704814762E+03 -0.10884482411E+03  0.53559635788E+03  0.10718507043E+04  0.89612687697E+03 0.  0.
         23    2    4    4    0    0  0.14393012631E+03  0.15968676331E+03 -0.12589335437E+03  0.26621499390E+03  0.93837853061E+02 0.  0.
         23    2    4    4    0    0 -0.36097827394E+03 -0.26853158743E+03  0.66148971225E+03  0.80563571041E+03  0.95214131173E+02 0.  0.
          4    1    3    3  502    0  0.70178648834E+02  0.85554410350E+02 -0.54807181353E+02  0.12348452134E+03  0.00000000000E+00 0. -1.
         -4    1    3    3    0  502  0.14686949879E+03  0.23290413764E+02 -0.18006826690E+03  0.23353302506E+03  0.00000000000E+00 0.  1.
         13    1    5    5    0    0  0.55886904831E+02  0.77857917147E+02 -0.53557015807E+01  0.95988983397E+02  0.00000000000E+00 0. -1.
        -13    1    5    5    0    0  0.88043221482E+02  0.81828846167E+02 -0.12053765279E+03  0.17022601051E+03  0.00000000000E+00 0.  1.
          2    1    6    6  503    0 -0.21679567924E+03 -0.15039147826E+03  0.46605622748E+03  0.53556173355E+03  0.00000000000E+00 0.  1.
         -2    1    6    6    0  503 -0.14418259470E+03 -0.11814010916E+03  0.19543348477E+03  0.27007397686E+03  0.00000000000E+00 0. -1.
<mgrwt>
<rscale>  0 0.13968649E+04</rscale>
<asrwt>0</asrwt>
<pdfrwt beam="1">  1        1 0.13304532E+00 0.13968649E+04</pdfrwt>
<pdfrwt beam="2">  1       -1 0.86780564E-01 0.13968649E+04</pdfrwt>
<totfact> 0.24848385E+01</totfact>
</mgrwt>
</event>
<event>
12    3  0.4806716E-008  0.1408026E+04  0.7818608E-02  0.8948029E-01
         -1   -1    0    0    0  501 -0.00000000000E+00  0.00000000000E+00  0.17065824864E+03  0.17065824864E+03  0.00000000000E+00 0.  1.
          1   -1    0    0  501    0  0.00000000000E+00 -0.00000000000E+00 -0.29042513579E+04  0.29042513579E+04  0.00000000000E+00 0. -1.
         23    2    1    2    0    0  0.16626110979E+02 -0.13012029400E+03 -0.16514223931E+04  0.16591388138E+04  0.91312455301E+02 0.  0.
        254    2    1    2    0    0 -0.16626110979E+02  0.13012029400E+03 -0.10821707161E+04  0.14157707927E+04  0.90338572060E+03 0.  0.
         23    2    4    4    0    0 -0.33941291729E+03 -0.22867182263E+03 -0.45110314713E+03  0.61628279024E+03  0.93906854400E+02 0.  0.
         23    2    4    4    0    0  0.32278680631E+03  0.35879211664E+03 -0.63106756900E+03  0.79948800248E+03  0.89508011823E+02 0.  0.
          1    1    3    3  502    0  0.49552328153E+01 -0.10531280992E+03 -0.15632814686E+04  0.15668325668E+04  0.00000000000E+00 0. -1.
         -1    1    3    3    0  502  0.11670878164E+02 -0.24807484080E+02 -0.88140924509E+02  0.92306247009E+02  0.00000000000E+00 0.  1.
         13    1    5    5    0    0 -0.17138578734E+03 -0.86149941799E+02 -0.15175288111E+03  0.24458911975E+03  0.00000000000E+00 0.  1.
        -13    1    5    5    0    0 -0.16802712995E+03 -0.14252188083E+03 -0.29935026602E+03  0.37169367049E+03  0.00000000000E+00 0. -1.
          2    1    6    6  503    0  0.89758148136E+02  0.13440452307E+03 -0.15518840153E+03  0.22406369842E+03  0.00000000000E+00 0. -1.
         -2    1    6    6    0  503  0.23302865817E+03  0.22438759356E+03 -0.47587916747E+03  0.57542430406E+03  0.00000000000E+00 0.  1.
<mgrwt>
<rscale>  0 0.14080262E+04</rscale>
<asrwt>0</asrwt>
<pdfrwt beam="1">  1        1 0.44680792E+00 0.14080262E+04</pdfrwt>
<pdfrwt beam="2">  1       -1 0.26255114E-01 0.14080262E+04</pdfrwt>
<totfact> 0.88601555E+00</totfact>
</mgrwt>
</event>
<event>
12    3  0.8017280E-008  0.3079039E+04  0.7818608E-02  0.8221514E-01
          2   -1    0    0  501    0  0.00000000000E+00  0.00000000000E+00  0.17064970520E+04  0.17064970520E+04  0.00000000000E+00 0. -1.
         -2   -1    0    0    0  501 -0.00000000000E+00 -0.00000000000E+00 -0.13888804555E+04  0.13888804555E+04  0.00000000000E+00 0.  1.
         23    2    1    2    0    0 -0.63763022196E+03  0.22565158220E+03  0.13851387077E+04  0.15443492910E+04  0.94416929250E+02 0.  0.
        254    2    1    2    0    0  0.63763022196E+03 -0.22565158220E+03 -0.10675221112E+04  0.15510282165E+04  0.89921862407E+03 0.  0.
         23    2    4    4    0    0 -0.10530893081E+03 -0.33850772019E+03 -0.34026081458E+03  0.50046041870E+03  0.94898689199E+02 0.  0.
         23    2    4    4    0    0  0.74293915277E+03  0.11285613799E+03 -0.72726129661E+03  0.10505677978E+04  0.10044208052E+03 0.  0.
          1    1    3    3  502    0 -0.63954101632E+03  0.22003428236E+03  0.13652262318E+04  0.15235716133E+04  0.00000000000E+00 0. -1.
         -1    1    3    3    0  502  0.19107943549E+01  0.56172998376E+01  0.19912475923E+02  0.20777677683E+02  0.00000000000E+00 0.  1.
         13    1    5    5    0    0 -0.10352645156E+03 -0.34484614808E+03 -0.33086310709E+03  0.48898567224E+03  0.00000000000E+00 0. -1.
        -13    1    5    5    0    0 -0.17824792410E+01  0.63384278899E+01 -0.93977074875E+01  0.11474746463E+02  0.00000000000E+00 0.  1.
          1    1    6    6  503    0  0.70276116901E+03  0.12773005514E+03 -0.69793064815E+03  0.99864679306E+03  0.00000000000E+00 0. -1.
         -1    1    6    6    0  503  0.40177983760E+02 -0.14873917144E+02 -0.29330648457E+02  0.51921004701E+02  0.00000000000E+00 0.  1.
<mgrwt>
<rscale>  0 0.30790391E+04</rscale>
<asrwt>0</asrwt>
<pdfrwt beam="1">  1        2 0.26253801E+00 0.30790391E+04</pdfrwt>
<pdfrwt beam="2">  1       -2 0.21367392E+00 0.30790391E+04</pdfrwt>
<totfact> 0.89711627E-01</totfact>
</mgrwt>
</event>
<event>
12    3  0.4806716E-008  0.1507169E+04  0.7818608E-02  0.8879699E-01
          2   -1    0    0  501    0  0.00000000000E+00  0.00000000000E+00  0.12432892170E+04  0.12432892170E+04  0.00000000000E+00 0. -1.
         -2   -1    0    0    0  501 -0.00000000000E+00 -0.00000000000E+00 -0.45676409645E+03  0.45676409645E+03  0.00000000000E+00 0.  1.
         23    2    1    2    0    0  0.23209570516E+03  0.36561646635E+03  0.21350484899E+02  0.44313302128E+03  0.91472479597E+02 0.  0.
        254    2    1    2    0    0 -0.23209570516E+03 -0.36561646635E+03  0.76517463565E+03  0.12569202922E+04  0.89822746619E+03 0.  0.
         23    2    4    4    0    0 -0.12834781823E+03  0.26499563629E+03  0.86428285024E+02  0.32004011036E+03  0.90884399587E+02 0.  0.
         23    2    4    4    0    0 -0.10374788693E+03 -0.63061210263E+03  0.67874635063E+03  0.93688018182E+03  0.92804194733E+02 0.  0.
          2    1    3    3  502    0  0.39384411386E+02  0.19386869520E+02  0.16379505942E+02  0.46853716874E+02  0.00000000000E+00 0. -1.
         -2    1    3    3    0  502  0.19271129377E+03  0.34622959683E+03  0.49709789572E+01  0.39627930440E+03  0.00000000000E+00 0.  1.
         13    1    5    5    0    0 -0.35088809519E+01  0.62071856974E+01  0.25297378258E+02  0.26283050557E+02  0.00000000000E+00 0. -1.
        -13    1    5    5    0    0 -0.12483893728E+03  0.25878845059E+03  0.61130906766E+02  0.29375705980E+03  0.00000000000E+00 0.  1.
          2    1    6    6  503    0  0.49633432413E+01 -0.96965284972E+02  0.14365165559E+03  0.17338598392E+03  0.00000000000E+00 0. -1.
         -2    1    6    6    0  503 -0.10871123017E+03 -0.53364681766E+03  0.53509469504E+03  0.76349419790E+03  0.00000000000E+00 0.  1.
<mgrwt>
<rscale>  0 0.15071694E+04</rscale>
<asrwt>0</asrwt>
<pdfrwt beam="1">  1        2 0.19127526E+00 0.15071694E+04</pdfrwt>
<pdfrwt beam="2">  1       -2 0.70271400E-01 0.15071694E+04</pdfrwt>
<totfact> 0.31774592E+01</totfact>
</mgrwt>
</event>
<event>
12    3  0.4806716E-008  0.1530617E+04  0.7818608E-02  0.8864345E-01
          2   -1    0    0  501    0  0.00000000000E+00  0.00000000000E+00  0.11547454860E+04  0.11547454860E+04  0.00000000000E+00 0. -1.
         -2   -1    0    0    0  501 -0.00000000000E+00 -0.00000000000E+00 -0.50720868004E+03  0.50720868004E+03  0.00000000000E+00 0.  1.
         23    2    1    2    0    0  0.30198134536E+03  0.38083440334E+03  0.33914562623E+03  0.59939117986E+03  0.89568158307E+02 0.  0.
        254    2    1    2    0    0 -0.30198134536E+03 -0.38083440334E+03  0.30839117977E+03  0.10625629862E+04  0.89314467149E+03 0.  0.
         23    2    4    4    0    0  0.23254759722E+03 -0.26274781650E+03 -0.96706292675E+02  0.37566835691E+03  0.93058085561E+02 0.  0.
         23    2    4    4    0    0 -0.53452894259E+03 -0.11808658684E+03  0.40509747244E+03  0.68689462931E+03  0.89747630303E+02 0.  0.
          2    1    3    3  502    0  0.27736402266E+03  0.35898747897E+03  0.33925492948E+03  0.56647746496E+03  0.00000000000E+00 0. -1.
         -2    1    3    3    0  502  0.24617322698E+02  0.21846924370E+02 -0.10930325027E+00  0.32913714899E+02  0.00000000000E+00 0.  1.
         13    1    5    5    0    0  0.22388159466E+03 -0.23247424705E+03 -0.11070439769E+03  0.34120771919E+03  0.00000000000E+00 0. -1.
        -13    1    5    5    0    0  0.86660025652E+01 -0.30273569449E+02  0.13998105015E+02  0.34460637714E+02  0.00000000000E+00 0.  1.
          4    1    6    6  503    0 -0.49009672781E+03 -0.80782734300E+02  0.36283241223E+03  0.61511625904E+03  0.00000000000E+00 0. -1.
         -4    1    6    6    0  503 -0.44432214779E+02 -0.37303852540E+02  0.42265060215E+02  0.71778370276E+02  0.00000000000E+00 0.  1.
<mgrwt>
<rscale>  0 0.15306168E+04</rscale>
<asrwt>0</asrwt>
<pdfrwt beam="1">  1        2 0.17765315E+00 0.15306168E+04</pdfrwt>
<pdfrwt beam="2">  1       -2 0.78032105E-01 0.15306168E+04</pdfrwt>
<totfact> 0.28423907E+01</totfact>
</mgrwt>
</event>
<event>
12    3  0.4806716E-008  0.1662666E+04  0.7818608E-02  0.8782948E-01
         -1   -1    0    0    0  501 -0.00000000000E+00  0.00000000000E+00  0.62043717440E+03  0.62043717440E+03  0.00000000000E+00 0.  1.
          1   -1    0    0  501    0  0.00000000000E+00 -0.00000000000E+00 -0.11139160658E+04  0.11139160658E+04  0.00000000000E+00 0. -1.
         23    2    1    2    0    0  0.41255474261E+03 -0.33597000956E+02 -0.59540106460E+03  0.73098989450E+03  0.92269301597E+02 0.  0.
        254    2    1    2    0    0 -0.41255474261E+03  0.33597000956E+02  0.10192217317E+03  0.10033633457E+04  0.90830595069E+03 0.  0.
         23    2    4    4    0    0 -0.63219934646E+03  0.11856798301E+03  0.26586579150E+03  0.70217513219E+03  0.92902728243E+02 0.  0.
         23    2    4    4    0    0  0.21964460385E+03 -0.84970982057E+02 -0.16394361834E+03  0.30118821355E+03  0.91504153984E+02 0.  0.
          3    1    3    3  502    0  0.33180680449E+03 -0.27588486451E+02 -0.53430706904E+03  0.62955613262E+03  0.00000000000E+00 0. -1.
         -3    1    3    3    0  502  0.80747938118E+02 -0.60085145051E+01 -0.61093995563E+02  0.10143376189E+03  0.00000000000E+00 0.  1.
         13    1    5    5    0    0 -0.23580382181E+02 -0.86919986097E+01  0.24772422419E+02  0.35288215826E+02  0.00000000000E+00 0.  1.
        -13    1    5    5    0    0 -0.60861896428E+03  0.12725998162E+03  0.24109336908E+03  0.66688691636E+03  0.00000000000E+00 0. -1.
          4    1    6    6  503    0  0.13838520037E+03 -0.70700863002E+02 -0.55684706158E+02  0.16507532284E+03  0.00000000000E+00 0. -1.
         -4    1    6    6    0  503  0.81259403481E+02 -0.14270119054E+02 -0.10825891218E+03  0.13611289071E+03  0.00000000000E+00 0.  1.
<mgrwt>
<rscale>  0 0.16626665E+04</rscale>
<asrwt>0</asrwt>
<pdfrwt beam="1">  1        1 0.17137170E+00 0.16626665E+04</pdfrwt>
<pdfrwt beam="2">  1       -1 0.95451874E-01 0.16626665E+04</pdfrwt>
<totfact> 0.12518160E+01</totfact>
</mgrwt>
</event>
<event>
12    3  0.4806716E-008  0.1806711E+04  0.7818608E-02  0.8702739E-01
         -1   -1    0    0    0  501 -0.00000000000E+00  0.00000000000E+00  0.88524886064E+03  0.88524886064E+03  0.00000000000E+00 0.  1.
          1   -1    0    0  501    0  0.00000000000E+00 -0.00000000000E+00 -0.92183293254E+03  0.92183293254E+03  0.00000000000E+00 0. -1.
         23    2    1    2    0    0 -0.81136862591E+02  0.17479654083E+03  0.63361471759E+03  0.66855718458E+03  0.91455330884E+02 0.  0.
        254    2    1    2    0    0  0.81136862591E+02 -0.17479654083E+03 -0.67019878950E+03  0.11385246086E+04  0.89996380248E+03 0.  0.
         23    2    4    4    0    0 -0.34695208775E+03 -0.23556583915E+03 -0.14774716392E+03  0.45420173791E+03  0.92752242571E+02 0.  0.
         23    2    4    4    0    0  0.42808895035E+03  0.60769298317E+02 -0.52245162558E+03  0.68432287069E+03  0.91591665845E+02 0.  0.
          2    1    3    3  502    0 -0.33555715793E+02  0.10693449176E+03  0.22206118181E+03  0.24874111051E+03  0.00000000000E+00 0. -1.
         -2    1    3    3    0  502 -0.47581146799E+02  0.67862049074E+02  0.41155353578E+03  0.41981607407E+03  0.00000000000E+00 0.  1.
         13    1    5    5    0    0 -0.35002820402E+03 -0.23672398346E+03 -0.13896555760E+03  0.44482515009E+03  0.00000000000E+00 0.  1.
        -13    1    5    5    0    0  0.30761162675E+01  0.11581443062E+01 -0.87816063232E+01  0.93765878197E+01  0.00000000000E+00 0. -1.
          1    1    6    6  503    0  0.25629892053E+02 -0.17322028688E+02 -0.25478515601E+02  0.40076162513E+02  0.00000000000E+00 0. -1.
         -1    1    6    6    0  503  0.40245905829E+03  0.78091327005E+02 -0.49697310998E+03  0.64424670818E+03  0.00000000000E+00 0.  1.
<mgrwt>
<rscale>  0 0.18067114E+04</rscale>
<asrwt>0</asrwt>
<pdfrwt beam="1">  1        1 0.14182045E+00 0.18067114E+04</pdfrwt>
<pdfrwt beam="2">  1       -1 0.13619213E+00 0.18067114E+04</pdfrwt>
<totfact> 0.74183255E+00</totfact>
</mgrwt>
</event>
<event>
12    3  0.4806716E-008  0.2622568E+04  0.7818608E-02  0.8360575E-01
         -1   -1    0    0    0  501 -0.00000000000E+00  0.00000000000E+00  0.67252546792E+03  0.67252546792E+03  0.00000000000E+00 0.  1.
          1   -1    0    0  501    0  0.00000000000E+00 -0.00000000000E+00 -0.25567299415E+04  0.25567299415E+04  0.00000000000E+00 0. -1.
         23    2    1    2    0    0  0.42088316985E+03 -0.10771899788E+04 -0.83709273507E+03  0.14300545228E+04  0.82769547951E+02 0.  0.
        254    2    1    2    0    0 -0.42088316985E+03  0.10771899788E+04 -0.10471117385E+04  0.17992008866E+04  0.89621422903E+03 0.  0.
         23    2    4    4    0    0 -0.43938487835E+02  0.43578337310E+03 -0.94099680125E+03  0.10420462109E+04  0.92453159009E+02 0.  0.
         23    2    4    4    0    0 -0.37694468202E+03  0.64140660568E+03 -0.10611493722E+03  0.75715467570E+03  0.92374758079E+02 0.  0.
          1    1    3    3  502    0  0.16610579110E+03 -0.48434536873E+03 -0.41371726409E+03  0.65828834461E+03  0.00000000000E+00 0. -1.
         -1    1    3    3    0  502  0.25477737875E+03 -0.59284461005E+03 -0.42337547098E+03  0.77176617820E+03  0.00000000000E+00 0.  1.
         13    1    5    5    0    0  0.11859981717E+02  0.69954710684E+01 -0.16988814209E+02  0.21868140982E+02  0.00000000000E+00 0.  1.
        -13    1    5    5    0    0 -0.55798469552E+02  0.42878790203E+03 -0.92400798704E+03  0.10201780699E+04  0.00000000000E+00 0. -1.
          3    1    6    6  503    0 -0.30921891361E+03  0.54551560069E+03 -0.12160168242E+03  0.63874140018E+03  0.00000000000E+00 0. -1.
         -3    1    6    6    0  503 -0.67725768405E+02  0.95891004987E+02  0.15486745208E+02  0.11841327552E+03  0.00000000000E+00 0.  1.
<mgrwt>
<rscale>  0 0.26225682E+04</rscale>
<asrwt>0</asrwt>
<pdfrwt beam="1">  1        1 0.39334308E+00 0.26225682E+04</pdfrwt>
<pdfrwt beam="2">  1       -1 0.10346545E+00 0.26225682E+04</pdfrwt>
<totfact> 0.95761569E-01</totfact>
</mgrwt>
</event>
<event>
12    3  0.4806716E-008  0.1261265E+04  0.7818608E-02  0.9060859E-01
         -2   -1    0    0    0  501 -0.00000000000E+00  0.00000000000E+00  0.78544282352E+03  0.78544282352E+03  0.00000000000E+00 0.  1.
          2   -1    0    0  501    0  0.00000000000E+00 -0.00000000000E+00 -0.50633554600E+03  0.50633554600E+03  0.00000000000E+00 0. -1.
         23    2    1    2    0    0  0.23388916637E+03 -0.19319642994E+03  0.11347112734E+02  0.31728883247E+03  0.92273742512E+02 0.  0.
        254    2    1    2    0    0 -0.23388916637E+03  0.19319642994E+03  0.26776016478E+03  0.97448953705E+03  0.88651302827E+03 0.  0.
         23    2    4    4    0    0  0.28727010207E+03 -0.11568447682E+03  0.11718134603E+03  0.34354109494E+03  0.91553297762E+02 0.  0.
         23    2    4    4    0    0 -0.52115926844E+03  0.30888090676E+03  0.15057881875E+03  0.63094844211E+03  0.91692738575E+02 0.  0.
          1    1    3    3  502    0  0.30152705376E+02  0.68474977427E+01  0.71206805764E+01  0.31729764554E+02  0.00000000000E+00 0. -1.
         -1    1    3    3    0  502  0.20373646099E+03 -0.20004392768E+03  0.42264321576E+01  0.28555906791E+03  0.00000000000E+00 0.  1.
         13    1    5    5    0    0  0.18338764252E+03 -0.10142665171E+03  0.40020794273E+02  0.21335429942E+03  0.00000000000E+00 0. -1.
        -13    1    5    5    0    0  0.10388245955E+03 -0.14257825109E+02  0.77160551761E+02  0.13018679552E+03  0.00000000000E+00 0.  1.
          1    1    6    6  503    0 -0.41384498627E+03  0.20218320859E+03  0.12710286987E+03  0.47780839468E+03  0.00000000000E+00 0. -1.
         -1    1    6    6    0  503 -0.10731428216E+03  0.10669769817E+03  0.23475948883E+02  0.15314004743E+03  0.00000000000E+00 0.  1.
<mgrwt>
<rscale>  0 0.12612654E+04</rscale>
<asrwt>0</asrwt>
<pdfrwt beam="1">  1        2 0.77897776E-01 0.12612654E+04</pdfrwt>
<pdfrwt beam="2">  1       -2 0.12083736E+00 0.12612654E+04</pdfrwt>
<totfact> 0.31113362E+01</totfact>
</mgrwt>
</event>
<event>
12    3  0.4806716E-008  0.1301881E+04  0.7818608E-02  0.9028075E-01
          2   -1    0    0  501    0  0.00000000000E+00  0.00000000000E+00  0.11369027899E+04  0.11369027899E+04  0.00000000000E+00 0. -1.
         -2   -1    0    0    0  501 -0.00000000000E+00 -0.00000000000E+00 -0.37269987796E+03  0.37269987796E+03  0.00000000000E+00 0.  1.
         23    2    1    2    0    0  0.29198089193E+02 -0.19774504048E+03 -0.87646872509E+02  0.23679271084E+03  0.91832370129E+02 0.  0.
        254    2    1    2    0    0 -0.29198089193E+02  0.19774504048E+03  0.85184978441E+03  0.12728099570E+04  0.92436004994E+03 0.  0.
         23    2    4    4    0    0 -0.13948921779E+03 -0.29164285734E+03  0.76118740279E+02  0.34453461808E+03  0.91636468272E+02 0.  0.
         23    2    4    4    0    0  0.11029112860E+03  0.48938789781E+03  0.77573104413E+03  0.92827533889E+03  0.90949460662E+02 0.  0.
          1    1    3    3  502    0  0.55129889794E+01 -0.69377268597E+02  0.14441094509E+02  0.71078433129E+02  0.00000000000E+00 0. -1.
         -1    1    3    3    0  502  0.23685100213E+02 -0.12836777188E+03 -0.10208796702E+03  0.16571427772E+03  0.00000000000E+00 0.  1.
         13    1    5    5    0    0 -0.13077482185E+03 -0.17809472888E+03  0.63855818159E+02  0.22999424340E+03  0.00000000000E+00 0. -1.
        -13    1    5    5    0    0 -0.87143959417E+01 -0.11354812845E+03  0.12262922120E+02  0.11454037467E+03  0.00000000000E+00 0.  1.
          3    1    6    6  503    0  0.11144730821E+03  0.46728683854E+03  0.76582699361E+03  0.90402902394E+03  0.00000000000E+00 0. -1.
         -3    1    6    6    0  503 -0.11561796063E+01  0.22101059268E+02  0.99040505194E+01  0.24246314952E+02  0.00000000000E+00 0.  1.
<mgrwt>
<rscale>  0 0.13018810E+04</rscale>
<asrwt>0</asrwt>
<pdfrwt beam="1">  1        2 0.17490812E+00 0.13018810E+04</pdfrwt>
<pdfrwt beam="2">  1       -2 0.57338443E-01 0.13018810E+04</pdfrwt>
<totfact> 0.57753114E+01</totfact>
</mgrwt>
</event>
<event>
12    3  0.4806716E-008  0.1609533E+04  0.7818608E-02  0.8814713E-01
         -2   -1    0    0    0  501 -0.00000000000E+00  0.00000000000E+00  0.34069162012E+03  0.34069162012E+03  0.00000000000E+00 0. -1.
          2   -1    0    0  501    0  0.00000000000E+00 -0.00000000000E+00 -0.19009832474E+04  0.19009832474E+04  0.00000000000E+00 0.  1.
         23    2    1    2    0    0 -0.50809233015E+03 -0.15024016676E+03 -0.29057350165E+03  0.61019276714E+03  0.84689607073E+02 0.  0.
        254    2    1    2    0    0  0.50809233015E+03  0.15024016676E+03 -0.12697181256E+04  0.16314821004E+04  0.87682370041E+03 0.  0.
         23    2    4    4    0    0 -0.25716051862E+01 -0.17069558693E+03  0.27609216430E+02  0.19799825235E+03  0.96423246949E+02 0.  0.
         23    2    4    4    0    0  0.51066393534E+03  0.32093575369E+03 -0.12973273421E+04  0.14334838480E+04  0.89667704466E+02 0.  0.
          1    1    3    3  502    0 -0.41917433176E+03 -0.89307157608E+02 -0.23862861264E+03  0.49053695435E+03  0.00000000000E+00 0. -1.
         -1    1    3    3    0  502 -0.88917998390E+02 -0.60933009154E+02 -0.51944889006E+02  0.11965581280E+03  0.00000000000E+00 0.  1.
         13    1    5    5    0    0 -0.76867485101E+01 -0.16839261772E+03 -0.12765723464E+01  0.16857280160E+03  0.00000000000E+00 0. -1.
        -13    1    5    5    0    0  0.51151433239E+01 -0.23029692128E+01  0.28885788776E+02  0.29425450747E+02  0.00000000000E+00 0.  1.
          3    1    6    6  503    0  0.34238530833E+03  0.24317524248E+03 -0.97605944382E+03  0.10625694969E+04  0.00000000000E+00 0. -1.
         -3    1    6    6    0  503  0.16827862701E+03  0.77760511207E+02 -0.32126789824E+03  0.37091435110E+03  0.00000000000E+00 0.  1.
<mgrwt>
<rscale>  0 0.16095329E+04</rscale>
<asrwt>0</asrwt>
<pdfrwt beam="1">  1        2 0.29245896E+00 0.16095329E+04</pdfrwt>
<pdfrwt beam="2">  1       -2 0.52414095E-01 0.16095329E+04</pdfrwt>
<totfact> 0.24965086E+01</totfact>
</mgrwt>
</event>
<event>
12    3  0.4806716E-008  0.1459492E+04  0.7818608E-02  0.8911846E-01
         -1   -1    0    0    0  501 -0.00000000000E+00  0.00000000000E+00  0.44905375153E+03  0.44905375153E+03  0.00000000000E+00 0.  1.
          1   -1    0    0  501    0  0.00000000000E+00 -0.00000000000E+00 -0.11858921247E+04  0.11858921247E+04  0.00000000000E+00 0. -1.
         23    2    1    2    0    0 -0.97373430624E+02 -0.43177019754E+03 -0.16115719825E+03  0.47985925899E+03  0.91576074481E+02 0.  0.
        254    2    1    2    0    0  0.97373430624E+02  0.43177019754E+03 -0.57568117495E+03  0.11550866173E+04  0.89828124200E+03 0.  0.
         23    2    4    4    0    0 -0.11000609021E+02  0.11874242267E+03 -0.75188012485E+03  0.76741762367E+03  0.96877812858E+02 0.  0.
         23    2    4    4    0    0  0.10837403964E+03  0.31302777487E+03  0.17619894990E+03  0.38766899361E+03  0.97518502604E+02 0.  0.
          3    1    3    3  502    0 -0.27288082189E+02 -0.10353922487E+03 -0.82406382973E+02  0.13511410907E+03  0.00000000000E+00 0. -1.
         -3    1    3    3    0  502 -0.70085348435E+02 -0.32823097267E+03 -0.78750815276E+02  0.34474514991E+03  0.00000000000E+00 0.  1.
         13    1    5    5    0    0 -0.34822553389E+02  0.10013566395E+03 -0.38611142144E+03  0.40040203694E+03  0.00000000000E+00 0.  1.
        -13    1    5    5    0    0  0.23821944368E+02  0.18606758720E+02 -0.36576870342E+03  0.36701558673E+03  0.00000000000E+00 0. -1.
          1    1    6    6  503    0  0.11573267395E+03  0.28596455378E+03  0.18316026116E+03  0.35877215487E+03  0.00000000000E+00 0. -1.
         -1    1    6    6    0  503 -0.73586343086E+01  0.27063221090E+02 -0.69613112637E+01  0.28896838740E+02  0.00000000000E+00 0.  1.
<mgrwt>
<rscale>  0 0.14594921E+04</rscale>
<asrwt>0</asrwt>
<pdfrwt beam="1">  1        1 0.18244494E+00 0.14594921E+04</pdfrwt>
<pdfrwt beam="2">  1       -1 0.69085193E-01 0.14594921E+04</pdfrwt>
<totfact> 0.22513998E+01</totfact>
</mgrwt>
</event>
<event>
12    3  0.4806716E-008  0.1494344E+04  0.7818608E-02  0.8888223E-01
          2   -1    0    0  501    0  0.00000000000E+00  0.00000000000E+00  0.43112707110E+04  0.43112707110E+04  0.00000000000E+00 0. -1.
         -2   -1    0    0    0  501 -0.00000000000E+00 -0.00000000000E+00 -0.12948982902E+03  0.12948982902E+03  0.00000000000E+00 0.  1.
         23    2    1    2    0    0 -0.38924313296E+03 -0.23450599417E+02  0.10181870155E+04  0.10941106069E+04  0.91176062613E+02 0.  0.
        254    2    1    2    0    0  0.38924313296E+03  0.23450599417E+02  0.31635938665E+04  0.33466499331E+04  0.10196467407E+04 0.  0.
         23    2    4    4    0    0  0.52514144603E+03  0.29256482774E+03  0.10778800211E+04  0.12377136103E+04  0.93498259519E+02 0.  0.
         23    2    4    4    0    0 -0.13589831308E+03 -0.26911422832E+03  0.20857138454E+04  0.21089363228E+04  0.80742488593E+02 0.  0.
          1    1    3    3  502    0 -0.60751022668E+01  0.12681709365E+02  0.57596648242E+02  0.59288333664E+02  0.00000000000E+00 0. -1.
         -1    1    3    3    0  502 -0.38316803069E+03 -0.36132308781E+02  0.96059036728E+03  0.10348222732E+04  0.00000000000E+00 0.  1.
         13    1    5    5    0    0  0.31261560872E+03  0.14760017025E+03  0.53520749986E+03  0.63715100014E+03  0.00000000000E+00 0. -1.
        -13    1    5    5    0    0  0.21252583731E+03  0.14496465749E+03  0.54267252123E+03  0.60056261017E+03  0.00000000000E+00 0.  1.
          2    1    6    6  503    0  0.85511697603E+01 -0.31599719604E+01  0.46420793497E+02  0.47307483509E+02  0.00000000000E+00 0. -1.
         -2    1    6    6    0  503 -0.14444948284E+03 -0.26595425636E+03  0.20392930519E+04  0.20616288393E+04  0.00000000000E+00 0.  1.
<mgrwt>
<rscale>  0 0.14943436E+04</rscale>
<asrwt>0</asrwt>
<pdfrwt beam="1">  1        2 0.66327231E+00 0.14943436E+04</pdfrwt>
<pdfrwt beam="2">  1       -2 0.19921515E-01 0.14943436E+04</pdfrwt>
<totfact> 0.39766287E+00</totfact>
</mgrwt>
</event>
<event>
12    3  0.4806716E-008  0.2260364E+04  0.7818608E-02  0.8493715E-01
          2   -1    0    0  501    0  0.00000000000E+00  0.00000000000E+00  0.29322495044E+04  0.29322495044E+04  0.00000000000E+00 0. -1.
         -2   -1    0    0    0  501 -0.00000000000E+00 -0.00000000000E+00 -0.43560805907E+03  0.43560805907E+03  0.00000000000E+00 0.  1.
         23    2    1    2    0    0 -0.82476642983E+02  0.38871382386E+03 -0.25362485396E+03  0.47946889543E+03  0.87544398103E+02 0.  0.
        254    2    1    2    0    0  0.82476642983E+02 -0.38871382386E+03  0.27502662993E+04  0.28883886680E+04  0.78798702220E+03 0.  0.
         23    2    4    4    0    0  0.35845847706E+03 -0.37424650409E+03  0.11863587294E+04  0.12977427734E+04  0.90201693325E+02 0.  0.
         23    2    4    4    0    0 -0.27598183407E+03 -0.14467319764E+02  0.15639075699E+04  0.15906458946E+04  0.89287171028E+02 0.  0.
          2    1    3    3  502    0 -0.62621165699E+02  0.30251579215E+03 -0.23723138880E+03  0.38950731280E+03  0.00000000000E+00 0.  1.
         -2    1    3    3    0  502 -0.19855477285E+02  0.86198031713E+02 -0.16393465162E+02  0.89961582631E+02  0.00000000000E+00 0. -1.
         13    1    5    5    0    0  0.42468252247E+02 -0.70535275728E+02  0.26416785002E+03  0.27670097679E+03  0.00000000000E+00 0.  1.
        -13    1    5    5    0    0  0.31599022481E+03 -0.30371122837E+03  0.92219087938E+03  0.10210417966E+04  0.00000000000E+00 0. -1.
          3    1    6    6  503    0 -0.28599509201E+02  0.26475321945E+02  0.25107944290E+03  0.25408612959E+03  0.00000000000E+00 0.  1.
         -3    1    6    6    0  503 -0.24738232487E+03 -0.40942641709E+02  0.13128281270E+04  0.13365597650E+04  0.00000000000E+00 0. -1.
<mgrwt>
<rscale>  0 0.22603641E+04</rscale>
<asrwt>0</asrwt>
<pdfrwt beam="1">  1        2 0.45111530E+00 0.22603641E+04</pdfrwt>
<pdfrwt beam="2">  1       -2 0.67016626E-01 0.22603641E+04</pdfrwt>
<totfact> 0.35699610E+00</totfact>
</mgrwt>
</event>
<event>
12    3  0.4806716E-008  0.1410995E+04  0.7818608E-02  0.8945898E-01
          2   -1    0    0  501    0  0.00000000000E+00  0.00000000000E+00  0.70555276378E+03  0.70555276378E+03  0.00000000000E+00 0. -1.
         -2   -1    0    0    0  501 -0.00000000000E+00 -0.00000000000E+00 -0.70544178703E+03  0.70544178703E+03  0.00000000000E+00 0.  1.
         23    2    1    2    0    0  0.24496391258E+03 -0.30626874502E+03  0.46117259080E-01  0.40225275537E+03  0.89439445619E+02 0.  0.
        254    2    1    2    0    0 -0.24496391258E+03  0.30626874502E+03  0.64859484923E-01  0.10087417954E+04  0.92938266769E+03 0.  0.
         23    2    4    4    0    0  0.32293009553E+03  0.17085108597E+03  0.13996118035E+03  0.40117727370E+03  0.88770111801E+02 0.  0.
         23    2    4    4    0    0 -0.56789400812E+03  0.13541765905E+03 -0.13989632087E+03  0.60756452174E+03  0.93392294383E+02 0.  0.
          3    1    3    3  502    0  0.16455661914E+03 -0.19476021650E+03 -0.42183817990E+02  0.25843741473E+03  0.00000000000E+00 0. -1.
         -3    1    3    3    0  502  0.80407293443E+02 -0.11150852852E+03  0.42229935249E+02  0.14381534064E+03  0.00000000000E+00 0.  1.
         13    1    5    5    0    0  0.22407942618E+03  0.16072479495E+03  0.90890870919E+02  0.29035357646E+03  0.00000000000E+00 0.  1.
        -13    1    5    5    0    0  0.98850669350E+02  0.10126291022E+02  0.49070309433E+02  0.11082369723E+03  0.00000000000E+00 0. -1.
          4    1    6    6  503    0 -0.65275608805E+02  0.35716116100E+02 -0.43418945476E+02  0.86149584331E+02  0.00000000000E+00 0. -1.
         -4    1    6    6    0  503 -0.50261839931E+03  0.99701542953E+02 -0.96477375391E+02  0.52141493741E+03  0.00000000000E+00 0.  1.
<mgrwt>
<rscale>  0 0.14109945E+04</rscale>
<asrwt>0</asrwt>
<pdfrwt beam="1">  1        2 0.10854658E+00 0.14109945E+04</pdfrwt>
<pdfrwt beam="2">  1       -2 0.10852951E+00 0.14109945E+04</pdfrwt>
<totfact> 0.26780068E+01</totfact>
</mgrwt>
</event>
<event>
12    3  0.4806716E-008  0.1685171E+04  0.7818608E-02  0.8769867E-01
          2   -1    0    0  501    0  0.00000000000E+00  0.00000000000E+00  0.18205856177E+04  0.18205856177E+04  0.00000000000E+00 0. -1.
         -2   -1    0    0    0  501 -0.00000000000E+00 -0.00000000000E+00 -0.38995715835E+03  0.38995715835E+03  0.00000000000E+00 0.  1.
         23    2    1    2    0    0 -0.12067346350E+03 -0.56667151772E+03  0.31942752047E+03  0.66788506419E+03  0.91421137293E+02 0.  0.
        254    2    1    2    0    0  0.12067346350E+03  0.56667151772E+03  0.11112009389E+04  0.15426577119E+04  0.89963692435E+03 0.  0.
         23    2    4    4    0    0  0.32810151803E+03  0.25505906198E+03  0.65804333550E+02  0.42846833467E+03  0.80926956384E+02 0.  0.
         23    2    4    4    0    0 -0.20742805453E+03  0.31161245573E+03  0.10453966053E+04  0.11141893772E+04  0.91843265760E+02 0.  0.
          2    1    3    3  502    0 -0.10716425371E+03 -0.53193115751E+03  0.27029418132E+03  0.60621273333E+03  0.00000000000E+00 0.  1.
         -2    1    3    3    0  502 -0.13509209793E+02 -0.34740360211E+02  0.49133339152E+02  0.61672330854E+02  0.00000000000E+00 0. -1.
         13    1    5    5    0    0  0.45902113571E+02  0.53833066044E+01  0.12854578426E+02  0.47971076773E+02  0.00000000000E+00 0. -1.
        -13    1    5    5    0    0  0.28219940446E+03  0.24967575538E+03  0.52949755124E+02  0.38049725790E+03  0.00000000000E+00 0.  1.
          3    1    6    6  503    0 -0.37395816505E+01  0.66947115218E+02  0.17639929578E+03  0.18871304210E+03  0.00000000000E+00 0. -1.
         -3    1    6    6    0  503 -0.20368847288E+03  0.24466534052E+03  0.86899730957E+03  0.92547633513E+03  0.00000000000E+00 0.  1.
<mgrwt>
<rscale>  0 0.16851711E+04</rscale>
<asrwt>0</asrwt>
<pdfrwt beam="1">  1        2 0.28009009E+00 0.16851711E+04</pdfrwt>
<pdfrwt beam="2">  1       -2 0.59993410E-01 0.16851711E+04</pdfrwt>
<totfact> 0.20740355E+01</totfact>
</mgrwt>
</event>
<event>
12    3  0.4806716E-008  0.1454694E+04  0.7818608E-02  0.8915153E-01
         -2   -1    0    0    0  501 -0.00000000000E+00  0.00000000000E+00  0.17393900129E+03  0.17393900129E+03  0.00000000000E+00 0.  1.
          2   -1    0    0  501    0  0.00000000000E+00 -0.00000000000E+00 -0.30414899707E+04  0.30414899707E+04  0.00000000000E+00 0. -1.
         23    2    1    2    0    0 -0.25219546473E+03 -0.15621933383E+03 -0.16330658568E+03  0.35053962718E+03  0.90564654273E+02 0.  0.
        254    2    1    2    0    0  0.25219546473E+03  0.15621933383E+03 -0.27042443837E+04  0.28648893448E+04  0.89813486647E+03 0.  0.
         23    2    4    4    0    0  0.12302160730E+03  0.28971405034E+03 -0.26220793426E+04  0.26424656108E+04  0.90861864298E+02 0.  0.
         23    2    4    4    0    0  0.12917385743E+03 -0.13349471651E+03 -0.82165041076E+02  0.22242373399E+03  0.90633871620E+02 0.  0.
          1    1    3    3  502    0 -0.29992989356E+02 -0.40035525172E+02  0.22430580006E+01  0.50074484476E+02  0.00000000000E+00 0.  1.
         -1    1    3    3    0  502 -0.22220247537E+03 -0.11618380865E+03 -0.16554964368E+03  0.30046514270E+03  0.00000000000E+00 0. -1.
         13    1    5    5    0    0 -0.36244678691E+01  0.82864655593E+02 -0.80752653912E+03  0.81177509157E+03  0.00000000000E+00 0.  1.
        -13    1    5    5    0    0  0.12664607517E+03  0.20684939475E+03 -0.18145528035E+04  0.18306905192E+04  0.00000000000E+00 0. -1.
          3    1    6    6  503    0  0.43108534054E+02 -0.10898262519E+03 -0.45867768366E+02  0.12585471973E+03  0.00000000000E+00 0. -1.
         -3    1    6    6    0  503  0.86065323379E+02 -0.24512091319E+02 -0.36297272711E+02  0.96569014261E+02  0.00000000000E+00 0.  1.
<mgrwt>
<rscale>  0 0.14546941E+04</rscale>
<asrwt>0</asrwt>
<pdfrwt beam="1">  1        2 0.46792152E+00 0.14546941E+04</pdfrwt>
<pdfrwt beam="2">  1       -2 0.26759847E-01 0.14546941E+04</pdfrwt>
<totfact> 0.20313958E+01</totfact>
</mgrwt>
</event>
<event>
12    3  0.4806716E-008  0.1432658E+04  0.7818608E-02  0.8930513E-01
         -1   -1    0    0    0  501 -0.00000000000E+00  0.00000000000E+00  0.43710819785E+03  0.43710819785E+03  0.00000000000E+00 0.  1.
          1   -1    0    0  501    0  0.00000000000E+00 -0.00000000000E+00 -0.11739128239E+04  0.11739128239E+04  0.00000000000E+00 0. -1.
         23    2    1    2    0    0  0.15078685023E+03  0.78234394980E+02 -0.66531129579E+03  0.69305612552E+03  0.93970091327E+02 0.  0.
        254    2    1    2    0    0 -0.15078685023E+03 -0.78234394980E+02 -0.71493330264E+02  0.91796489623E+03  0.89927246132E+03 0.  0.
         23    2    4    4    0    0 -0.27057228526E+02  0.29825393524E+02  0.39889121830E+03  0.41213880792E+03  0.95512016209E+02 0.  0.
         23    2    4    4    0    0 -0.12372962171E+03 -0.10805978850E+03 -0.47038454857E+03  0.50582608831E+03  0.87249475134E+02 0.  0.
          3    1    3    3  502    0  0.10605784523E+03  0.29316278294E+01 -0.34084628899E+03  0.35697766554E+03  0.00000000000E+00 0. -1.
         -3    1    3    3    0  502  0.44729005001E+02  0.75302767150E+02 -0.32446500680E+03  0.33607845998E+03  0.00000000000E+00 0.  1.
         13    1    5    5    0    0 -0.36573020245E+02  0.28443824305E+02  0.39980433189E+03  0.40247998801E+03  0.00000000000E+00 0. -1.
        -13    1    5    5    0    0  0.95157917188E+01  0.13815692190E+01 -0.91311359095E+00  0.96588199058E+01  0.00000000000E+00 0.  1.
          3    1    6    6  503    0 -0.61064070725E+02 -0.45783156611E+02 -0.33909977162E+03  0.34758246975E+03  0.00000000000E+00 0. -1.
         -3    1    6    6    0  503 -0.62665550983E+02 -0.62276631892E+02 -0.13128477695E+03  0.15824361857E+03  0.00000000000E+00 0.  1.
<mgrwt>
<rscale>  0 0.14326576E+04</rscale>
<asrwt>0</asrwt>
<pdfrwt beam="1">  1        1 0.18060198E+00 0.14326576E+04</pdfrwt>
<pdfrwt beam="2">  1       -1 0.67247414E-01 0.14326576E+04</pdfrwt>
<totfact> 0.24328906E+01</totfact>
</mgrwt>
</event>
<event>
12    3  0.4806716E-008  0.2626142E+04  0.7818608E-02  0.8359375E-01
          1   -1    0    0  501    0  0.00000000000E+00  0.00000000000E+00  0.23396816824E+04  0.23396816824E+04  0.00000000000E+00 0. -1.
         -1   -1    0    0    0  501 -0.00000000000E+00 -0.00000000000E+00 -0.73691868946E+03  0.73691868946E+03  0.00000000000E+00 0.  1.
         23    2    1    2    0    0 -0.78717422484E+03 -0.84761383167E+03  0.75447937568E+03  0.13837536184E+04  0.86269811369E+02 0.  0.
        254    2    1    2    0    0  0.78717422484E+03  0.84761383167E+03  0.84828361729E+03  0.16928467534E+04  0.89891744193E+03 0.  0.
         23    2    4    4    0    0  0.93135159242E+03  0.87711837041E+03  0.80703091925E+03  0.15153124509E+04  0.90113788753E+02 0.  0.
         23    2    4    4    0    0 -0.14417736758E+03 -0.29504538740E+02  0.41252698045E+02  0.17753430251E+03  0.90327251379E+02 0.  0.
          3    1    3    3  502    0 -0.66467728934E+03 -0.74192505678E+03  0.61941393969E+03  0.11729971515E+04  0.00000000000E+00 0. -1.
         -3    1    3    3    0  502 -0.12249693550E+03 -0.10568877490E+03  0.13506543599E+03  0.21075646691E+03  0.00000000000E+00 0.  1.
         13    1    5    5    0    0  0.69325679671E+03  0.64375485771E+03  0.54971148434E+03  0.10941700138E+04  0.00000000000E+00 0.  1.
        -13    1    5    5    0    0  0.23809479571E+03  0.23336351270E+03  0.25731943490E+03  0.42114243717E+03  0.00000000000E+00 0. -1.
          2    1    6    6  503    0 -0.14568091725E+03 -0.42472021164E+02  0.20650660413E+02  0.15314454612E+03  0.00000000000E+00 0.  1.
         -2    1    6    6    0  503  0.15035496627E+01  0.12967482424E+02  0.20602037632E+02  0.24389756386E+02  0.00000000000E+00 0. -1.
<mgrwt>
<rscale>  0 0.26261418E+04</rscale>
<asrwt>0</asrwt>
<pdfrwt beam="1">  1        1 0.35995102E+00 0.26261418E+04</pdfrwt>
<pdfrwt beam="2">  1       -1 0.11337211E+00 0.26261418E+04</pdfrwt>
<totfact> 0.10906533E+00</totfact>
</mgrwt>
</event>
<event>
12    3  0.4806716E-008  0.2632662E+04  0.7818608E-02  0.8357191E-01
          2   -1    0    0  501    0  0.00000000000E+00  0.00000000000E+00  0.71724154155E+03  0.71724154155E+03  0.00000000000E+00 0. -1.
         -2   -1    0    0    0  501 -0.00000000000E+00 -0.00000000000E+00 -0.24158203135E+04  0.24158203135E+04  0.00000000000E+00 0.  1.
         23    2    1    2    0    0 -0.98682418264E+03  0.98148357048E+01 -0.14907145564E+04  0.17898492602E+04  0.86094060043E+02 0.  0.
        254    2    1    2    0    0  0.98682418264E+03 -0.98148357048E+01 -0.20786421555E+03  0.13432125948E+04  0.88718332062E+03 0.  0.
         23    2    4    4    0    0  0.35585578930E+03  0.16827456967E+03 -0.48032225650E+03  0.62733140204E+03  0.88800587385E+02 0.  0.
         23    2    4    4    0    0  0.63096839334E+03 -0.17808940538E+03  0.27245804095E+03  0.71588119280E+03  0.91736298265E+02 0.  0.
          1    1    3    3  502    0 -0.12871707235E+03 -0.21466877431E+02 -0.23107288483E+03  0.26537443292E+03  0.00000000000E+00 0. -1.
         -1    1    3    3    0  502 -0.85810711029E+03  0.31281713136E+02 -0.12596416715E+04  0.15244748273E+04  0.00000000000E+00 0.  1.
         13    1    5    5    0    0  0.32385868651E+03  0.12423123126E+03 -0.39059956663E+03  0.52238479027E+03  0.00000000000E+00 0. -1.
        -13    1    5    5    0    0  0.31997102787E+02  0.44043338414E+02 -0.89722689869E+02  0.10494661177E+03  0.00000000000E+00 0.  1.
          1    1    6    6  503    0  0.61420625513E+03 -0.15517388655E+03  0.26337545104E+03  0.68607207138E+03  0.00000000000E+00 0. -1.
         -1    1    6    6    0  503  0.16762138204E+02 -0.22915518826E+02  0.90825899170E+01  0.29809121420E+02  0.00000000000E+00 0.  1.
<mgrwt>
<rscale>  0 0.26326615E+04</rscale>
<asrwt>0</asrwt>
<pdfrwt beam="1">  1        2 0.11034485E+00 0.26326615E+04</pdfrwt>
<pdfrwt beam="2">  1       -2 0.37166466E+00 0.26326615E+04</pdfrwt>
<totfact> 0.39702860E-01</totfact>
</mgrwt>
</event>
<event>
12    3  0.4806716E-008  0.1358602E+04  0.7818608E-02  0.8984342E-01
          2   -1    0    0  501    0  0.00000000000E+00  0.00000000000E+00  0.30980925964E+04  0.30980925964E+04  0.00000000000E+00 0. -1.
         -2   -1    0    0    0  501 -0.00000000000E+00 -0.00000000000E+00 -0.14894632976E+03  0.14894632976E+03  0.00000000000E+00 0.  1.
         23    2    1    2    0    0  0.97592152919E+01  0.17554024376E+03  0.41689006467E+02  0.20139162475E+03  0.88943767613E+02 0.  0.
        254    2    1    2    0    0 -0.97592152919E+01 -0.17554024376E+03  0.29074572602E+04  0.30456473014E+04  0.88980343074E+03 0.  0.
         23    2    4    4    0    0 -0.30949120560E+03 -0.24285366629E+03  0.64570871566E+03  0.76154641211E+03  0.90832168021E+02 0.  0.
         23    2    4    4    0    0  0.29973199031E+03  0.67313422530E+02  0.22617485445E+04  0.22841008893E+04  0.85088371607E+02 0.  0.
          2    1    3    3  502    0  0.21265554570E+02  0.11674756197E+02  0.27257945124E+02  0.36489989255E+02  0.00000000000E+00 0. -1.
         -2    1    3    3    0  502 -0.11506339278E+02  0.16386548756E+03  0.14431061343E+02  0.16490163549E+03  0.00000000000E+00 0.  1.
         13    1    5    5    0    0 -0.32032742860E+02 -0.57016964407E+02  0.15234985935E+03  0.16579357795E+03  0.00000000000E+00 0.  1.
        -13    1    5    5    0    0 -0.27745846274E+03 -0.18583670188E+03  0.49335885631E+03  0.59575283416E+03  0.00000000000E+00 0. -1.
          2    1    6    6  503    0  0.26557521270E+03  0.34714695727E+02  0.20298969685E+04  0.20474904167E+04  0.00000000000E+00 0. -1.
         -2    1    6    6    0  503  0.34156777609E+02  0.32598726802E+02  0.23185157601E+03  0.23661047260E+03  0.00000000000E+00 0.  1.
<mgrwt>
<rscale>  0 0.13586015E+04</rscale>
<asrwt>0</asrwt>
<pdfrwt beam="1">  1        2 0.47662958E+00 0.13586015E+04</pdfrwt>
<pdfrwt beam="2">  1       -2 0.22914822E-01 0.13586015E+04</pdfrwt>
<totfact> 0.25016043E+01</totfact>
</mgrwt>
</event>
<event>
12    3  0.4806716E-008  0.1306664E+04  0.7818608E-02  0.9024297E-01
          1   -1    0    0  501    0  0.00000000000E+00  0.00000000000E+00  0.11658018346E+04  0.11658018346E+04  0.00000000000E+00 0. -1.
         -1   -1    0    0    0  501 -0.00000000000E+00 -0.00000000000E+00 -0.36613684734E+03  0.36613684734E+03  0.00000000000E+00 0.  1.
         23    2    1    2    0    0  0.14698673249E+03 -0.24476692512E+03  0.19332540104E+01  0.29977566870E+03  0.91355169030E+02 0.  0.
        254    2    1    2    0    0 -0.14698673249E+03  0.24476692512E+03  0.79773173323E+03  0.12321630132E+04  0.89461378584E+03 0.  0.
         23    2    4    4    0    0 -0.42399463349E+03 -0.10244070316E+03  0.57335648729E+03  0.72611224021E+03  0.90751181672E+02 0.  0.
         23    2    4    4    0    0  0.27700790100E+03  0.34720762828E+03  0.22437524593E+03  0.50605077301E+03  0.91959879980E+02 0.  0.
          2    1    3    3  502    0  0.16447984309E+02 -0.71336551414E+02 -0.32314115863E+02  0.80022758260E+02  0.00000000000E+00 0. -1.
         -2    1    3    3    0  502  0.13053874818E+03 -0.17343037371E+03  0.34247369874E+02  0.21975291044E+03  0.00000000000E+00 0.  1.
         13    1    5    5    0    0 -0.36139045479E+03 -0.55147046039E+02  0.49356747649E+03  0.61420933837E+03  0.00000000000E+00 0. -1.
        -13    1    5    5    0    0 -0.62604178705E+02 -0.47293657124E+02  0.79789010807E+02  0.11190290184E+03  0.00000000000E+00 0.  1.
          3    1    6    6  503    0  0.23256410337E+03  0.26877305576E+03  0.13822389442E+03  0.38135398604E+03  0.00000000000E+00 0. -1.
         -3    1    6    6    0  503  0.44443797633E+02  0.78434572522E+02  0.86151351512E+02  0.12469678698E+03  0.00000000000E+00 0.  1.
<mgrwt>
<rscale>  0 0.13066645E+04</rscale>
<asrwt>0</asrwt>
<pdfrwt beam="1">  1        1 0.17935413E+00 0.13066645E+04</pdfrwt>
<pdfrwt beam="2">  1       -1 0.56328746E-01 0.13066645E+04</pdfrwt>
<totfact> 0.35459289E+01</totfact>
</mgrwt>
</event>
<event>
12    3  0.4806716E-008  0.2054283E+04  0.7818608E-02  0.8581654E-01
          2   -1    0    0  501    0  0.00000000000E+00  0.00000000000E+00  0.81446956160E+03  0.81446956160E+03  0.00000000000E+00 0.  1.
         -2   -1    0    0    0  501 -0.00000000000E+00 -0.00000000000E+00 -0.12953461235E+04  0.12953461235E+04  0.00000000000E+00 0. -1.
         23    2    1    2    0    0 -0.49707453363E+03 -0.64497028992E+03 -0.12843817935E+03  0.82957628029E+03  0.92901410287E+02 0.  0.
        254    2    1    2    0    0  0.49707453363E+03  0.64497028992E+03 -0.35243838255E+03  0.12802394048E+04  0.92289238446E+03 0.  0.
         23    2    4    4    0    0  0.28610530088E+02 -0.21946755804E+03 -0.28506246850E+02  0.24116654124E+03  0.91455579590E+02 0.  0.
         23    2    4    4    0    0  0.46846400354E+03  0.86443784796E+03 -0.32393213570E+03  0.10390728636E+04  0.89605087448E+02 0.  0.
          1    1    3    3  502    0 -0.33652050838E+03 -0.39969180151E+03 -0.43172645443E+02  0.52427422793E+03  0.00000000000E+00 0. -1.
         -1    1    3    3    0  502 -0.16055402525E+03 -0.24527848841E+03 -0.85265533910E+02  0.30530205236E+03  0.00000000000E+00 0.  1.
         13    1    5    5    0    0  0.37408647692E+01 -0.26422155720E+02 -0.37838694473E+02  0.46302172536E+02  0.00000000000E+00 0.  1.
        -13    1    5    5    0    0  0.24869665319E+02 -0.19304540232E+03  0.93324476230E+01  0.19486436870E+03  0.00000000000E+00 0. -1.
          1    1    6    6  503    0  0.17751170110E+03  0.33200767831E+03 -0.17014514540E+03  0.41314509919E+03  0.00000000000E+00 0. -1.
         -1    1    6    6    0  503  0.29095230244E+03  0.53243016965E+03 -0.15378699030E+03  0.62592776439E+03  0.00000000000E+00 0.  1.
<mgrwt>
<rscale>  0 0.20542833E+04</rscale>
<asrwt>0</asrwt>
<pdfrwt beam="1">  1        2 0.12530301E+00 0.20542833E+04</pdfrwt>
<pdfrwt beam="2">  1       -2 0.19928402E+00 0.20542833E+04</pdfrwt>
<totfact> 0.41803017E+00</totfact>
</mgrwt>
</event>
<event>
12    3  0.4806716E-008  0.3494288E+04  0.7818608E-02  0.8115145E-01
         -1   -1    0    0    0  501 -0.00000000000E+00  0.00000000000E+00  0.14107540232E+04  0.14107540232E+04  0.00000000000E+00 0.  1.
          1   -1    0    0  501    0  0.00000000000E+00 -0.00000000000E+00 -0.21637452284E+04  0.21637452284E+04  0.00000000000E+00 0. -1.
         23    2    1    2    0    0  0.13503723501E+04 -0.63047938703E+03 -0.10252587512E+04  0.18109977448E+04  0.86876828945E+02 0.  0.
        254    2    1    2    0    0 -0.13503723501E+04  0.63047938703E+03  0.27226754606E+03  0.17635015068E+04  0.90266173432E+03 0.  0.
         23    2    4    4    0    0 -0.10677790378E+04  0.61558392167E+02  0.32056446865E+03  0.11200715106E+04  0.88640290481E+02 0.  0.
         23    2    4    4    0    0 -0.28259331231E+03  0.56892099487E+03 -0.48296922591E+02  0.64342999626E+03  0.90219115409E+02 0.  0.
          1    1    3    3  502    0  0.10124713292E+04 -0.45741746099E+03 -0.80615265757E+03  0.13726656670E+04  0.00000000000E+00 0. -1.
         -1    1    3    3    0  502  0.33790102082E+03 -0.17306192604E+03 -0.21910609367E+03  0.43833207777E+03  0.00000000000E+00 0.  1.
         13    1    5    5    0    0 -0.19976664442E+03  0.40224641967E+02  0.40636565619E+02  0.20778850909E+03  0.00000000000E+00 0.  1.
        -13    1    5    5    0    0 -0.86801239333E+03  0.21333750200E+02  0.27992790303E+03  0.91228300147E+03  0.00000000000E+00 0. -1.
          1    1    6    6  503    0 -0.82452899039E+02  0.13192979228E+03 -0.47913176073E+02  0.16278704830E+03  0.00000000000E+00 0. -1.
         -1    1    6    6    0  503 -0.20014041327E+03  0.43699120258E+03 -0.38374651822E+00  0.48064294796E+03  0.00000000000E+00 0.  1.
<mgrwt>
<rscale>  0 0.34942881E+04</rscale>
<asrwt>0</asrwt>
<pdfrwt beam="1">  1        1 0.33288388E+00 0.34942881E+04</pdfrwt>
<pdfrwt beam="2">  1       -1 0.21703908E+00 0.34942881E+04</pdfrwt>
<totfact> 0.21687280E-01</totfact>
</mgrwt>
</event>
<event>
12    3  0.4806716E-008  0.2614597E+04  0.7818608E-02  0.8363260E-01
          2   -1    0    0  501    0  0.00000000000E+00  0.00000000000E+00  0.41718242452E+04  0.41718242452E+04  0.00000000000E+00 0.  1.
         -2   -1    0    0    0  501 -0.00000000000E+00 -0.00000000000E+00 -0.40965999671E+03  0.40965999671E+03  0.00000000000E+00 0. -1.
         23    2    1    2    0    0 -0.92022584937E+03  0.17721802075E+03  0.27967120628E+04  0.29510168406E+04  0.93167541903E+02 0.  0.
        254    2    1    2    0    0  0.92022584937E+03 -0.17721802075E+03  0.96545218568E+03  0.16304674012E+04  0.92092572066E+03 0.  0.
         23    2    4    4    0    0  0.89425377497E+03 -0.45626949004E+03  0.64857860182E+03  0.11991240082E+04  0.96811789874E+02 0.  0.
         23    2    4    4    0    0  0.25972074403E+02  0.27905146929E+03  0.31687358386E+03  0.43134339307E+03  0.84285131762E+02 0.  0.
          2    1    3    3  502    0 -0.97755071055E+01  0.13205590681E+02  0.57797208753E+02  0.60087149242E+02  0.00000000000E+00 0. -1.
         -2    1    3    3    0  502 -0.91045034227E+03  0.16401243007E+03  0.27389148540E+04  0.28909296914E+04  0.00000000000E+00 0.  1.
         13    1    5    5    0    0  0.60350551188E+03 -0.28457177326E+03  0.47830598565E+03  0.82096078646E+03  0.00000000000E+00 0.  1.
        -13    1    5    5    0    0  0.29074826309E+03 -0.17169771679E+03  0.17027261617E+03  0.37816322171E+03  0.00000000000E+00 0. -1.
          3    1    6    6  503    0  0.44324546235E+02  0.79464233371E+02  0.11781687529E+03  0.14886250665E+03  0.00000000000E+00 0. -1.
         -3    1    6    6    0  503 -0.18352471832E+02  0.19958723592E+03  0.19905670857E+03  0.28248088642E+03  0.00000000000E+00 0.  1.
<mgrwt>
<rscale>  0 0.26145971E+04</rscale>
<asrwt>0</asrwt>
<pdfrwt beam="1">  1        2 0.64181909E+00 0.26145971E+04</pdfrwt>
<pdfrwt beam="2">  1       -2 0.63024618E-01 0.26145971E+04</pdfrwt>
<totfact> 0.50829589E-01</totfact>
</mgrwt>
</event>
<event>
12    3  0.4806716E-008  0.3187927E+04  0.7818608E-02  0.8192013E-01
         -1   -1    0    0    0  501 -0.00000000000E+00  0.00000000000E+00  0.11416434530E+04  0.11416434530E+04  0.00000000000E+00 0.  1.
          1   -1    0    0  501    0  0.00000000000E+00 -0.00000000000E+00 -0.22254934622E+04  0.22254934622E+04  0.00000000000E+00 0. -1.
         23    2    1    2    0    0  0.12470261908E+04  0.17108664126E+03 -0.12964715510E+04  0.18094101346E+04  0.93710155055E+02 0.  0.
        254    2    1    2    0    0 -0.12470261908E+04 -0.17108664126E+03  0.21262154178E+03  0.15577267806E+04  0.89272607425E+03 0.  0.
         23    2    4    4    0    0 -0.42110633675E+03 -0.47230269124E+03 -0.31462428493E+02  0.64051930039E+03  0.94205683265E+02 0.  0.
         23    2    4    4    0    0 -0.82591985405E+03  0.30121604997E+03  0.24408397027E+03  0.91720748023E+03  0.93903477908E+02 0.  0.
          4    1    3    3  502    0  0.39061875197E+03  0.99124406453E+01 -0.40368207603E+03  0.56181890710E+03  0.00000000000E+00 0.  1.
         -4    1    3    3    0  502  0.85640743883E+03  0.16117420062E+03 -0.89278947502E+03  0.12475912275E+04  0.00000000000E+00 0. -1.
         13    1    5    5    0    0 -0.30833517979E+03 -0.33284120654E+03 -0.64118405462E+02  0.45821940354E+03  0.00000000000E+00 0. -1.
        -13    1    5    5    0    0 -0.11277115696E+03 -0.13946148470E+03  0.32655976968E+02  0.18229989684E+03  0.00000000000E+00 0.  1.
          1    1    6    6  503    0 -0.21002066917E+03  0.11133406923E+03  0.92851699833E+02  0.25519677626E+03  0.00000000000E+00 0. -1.
         -1    1    6    6    0  503 -0.61589918488E+03  0.18988198074E+03  0.15123227044E+03  0.66201070397E+03  0.00000000000E+00 0.  1.
<mgrwt>
<rscale>  0 0.31879273E+04</rscale>
<asrwt>0</asrwt>
<pdfrwt beam="1">  1        1 0.34238361E+00 0.31879273E+04</pdfrwt>
<pdfrwt beam="2">  1       -1 0.17563745E+00 0.31879273E+04</pdfrwt>
<totfact> 0.39223584E-01</totfact>
</mgrwt>
</event>
<event>
12    3  0.4806716E-008  0.1792210E+04  0.7818608E-02  0.8710453E-01
         -2   -1    0    0    0  501 -0.00000000000E+00  0.00000000000E+00  0.71979647241E+03  0.71979647241E+03  0.00000000000E+00 0. -1.
          2   -1    0    0  501    0  0.00000000000E+00 -0.00000000000E+00 -0.11155990821E+04  0.11155990821E+04  0.00000000000E+00 0.  1.
         23    2    1    2    0    0  0.48812922622E+03  0.35351154084E+03  0.12953588549E+03  0.62321929307E+03  0.91554304283E+02 0.  0.
        254    2    1    2    0    0 -0.48812922622E+03 -0.35351154084E+03 -0.52533849521E+03  0.12121762615E+04  0.91112578897E+03 0.  0.
         23    2    4    4    0    0 -0.58131740769E+03 -0.13606479682E+03 -0.68480085804E+03  0.91285100036E+03  0.88888560928E+02 0.  0.
         23    2    4    4    0    0  0.93188181475E+02 -0.21744674402E+03  0.15946236284E+03  0.29932526111E+03  0.90555193811E+02 0.  0.
          2    1    3    3  502    0  0.15831536389E+03  0.11822935901E+03  0.86869704505E+02  0.21584318691E+03  0.00000000000E+00 0. -1.
         -2    1    3    3    0  502  0.32981386233E+03  0.23528218184E+03  0.42666180985E+02  0.40737610616E+03  0.00000000000E+00 0.  1.
         13    1    5    5    0    0 -0.64075082773E+02  0.12611491545E+02 -0.79847606237E+02  0.10315185977E+03  0.00000000000E+00 0.  1.
        -13    1    5    5    0    0 -0.51724232492E+03 -0.14867628837E+03 -0.60495325181E+03  0.80969914060E+03  0.00000000000E+00 0. -1.
          1    1    6    6  503    0  0.13128537859E+02 -0.78723031575E+01  0.44866821084E+02  0.47406363470E+02  0.00000000000E+00 0. -1.
         -1    1    6    6    0  503  0.80059643616E+02 -0.20957444086E+03  0.11459554175E+03  0.25191889764E+03  0.00000000000E+00 0.  1.
<mgrwt>
<rscale>  0 0.17922101E+04</rscale>
<asrwt>0</asrwt>
<pdfrwt beam="1">  1        2 0.17163063E+00 0.17922101E+04</pdfrwt>
<pdfrwt beam="2">  1       -2 0.11073792E+00 0.17922101E+04</pdfrwt>
<totfact> 0.13015029E+01</totfact>
</mgrwt>
</event>
<event>
12    3  0.4806716E-008  0.3015625E+04  0.7818608E-02  0.8239283E-01
          1   -1    0    0  501    0  0.00000000000E+00  0.00000000000E+00  0.15197158727E+04  0.15197158727E+04  0.00000000000E+00 0. -1.
         -1   -1    0    0    0  501 -0.00000000000E+00 -0.00000000000E+00 -0.14960022238E+04  0.14960022238E+04  0.00000000000E+00 0.  1.
         23    2    1    2    0    0 -0.11545114901E+04 -0.31500806154E+03  0.76206965377E+03  0.14215953008E+04  0.89756239033E+02 0.  0.
        254    2    1    2    0    0  0.11545114901E+04  0.31500806154E+03 -0.73835600493E+03  0.15941227957E+04  0.75095341949E+03 0.  0.
         23    2    4    4    0    0  0.97646130494E+03  0.42038217999E+03 -0.82790526281E+03  0.13504173965E+04  0.89454811786E+02 0.  0.
         23    2    4    4    0    0  0.17805018512E+03 -0.10537411845E+03  0.89549257876E+02  0.24370539918E+03  0.92561756382E+02 0.  0.
          4    1    3    3  502    0 -0.92756493956E+03 -0.21999261406E+03  0.58520906572E+03  0.11185897898E+04  0.00000000000E+00 0. -1.
         -4    1    3    3    0  502 -0.22694655051E+03 -0.95015447482E+02  0.17686058805E+03  0.30300551092E+03  0.00000000000E+00 0.  1.
         13    1    5    5    0    0  0.46114637340E+03  0.19558935489E+03 -0.33383284379E+03  0.60195975035E+03  0.00000000000E+00 0.  1.
        -13    1    5    5    0    0  0.51531493154E+03  0.22479282510E+03 -0.49407241902E+03  0.74845764618E+03  0.00000000000E+00 0. -1.
          3    1    6    6  503    0  0.16389786599E+03 -0.52775723064E+02  0.68496265573E+02  0.18530927073E+03  0.00000000000E+00 0. -1.
         -3    1    6    6    0  503  0.14152319134E+02 -0.52598395382E+02  0.21052992303E+02  0.58396128455E+02  0.00000000000E+00 0.  1.
<mgrwt>
<rscale>  0 0.30156249E+04</rscale>
<asrwt>0</asrwt>
<pdfrwt beam="1">  1        1 0.23380244E+00 0.30156249E+04</pdfrwt>
<pdfrwt beam="2">  1       -1 0.23015419E+00 0.30156249E+04</pdfrwt>
<totfact> 0.50737350E-01</totfact>
</mgrwt>
</event>
<event>
12    3  0.4806716E-008  0.1616278E+04  0.7818608E-02  0.8810610E-01
          2   -1    0    0  501    0  0.00000000000E+00  0.00000000000E+00  0.11165659729E+04  0.11165659729E+04  0.00000000000E+00 0. -1.
         -2   -1    0    0    0  501 -0.00000000000E+00 -0.00000000000E+00 -0.58490795300E+03  0.58490795300E+03  0.00000000000E+00 0.  1.
         23    2    1    2    0    0  0.54219420582E+02 -0.97903144171E+02  0.66919943852E+03  0.68461367994E+03  0.91341288812E+02 0.  0.
        254    2    1    2    0    0 -0.54219420582E+02  0.97903144171E+02 -0.13754141860E+03  0.10168602460E+04  0.10012803538E+04 0.  0.
         23    2    4    4    0    0  0.27702901574E+03 -0.32380748021E+03 -0.17852284823E+03  0.47112377354E+03  0.92145769563E+02 0.  0.
         23    2    4    4    0    0 -0.33124843632E+03  0.42171062438E+03  0.40981429626E+02  0.54573647245E+03  0.92646869909E+02 0.  0.
          4    1    3    3  502    0  0.24116738518E+02 -0.10261097804E+03  0.59722888192E+03  0.60645936986E+03  0.00000000000E+00 0. -1.
         -4    1    3    3    0  502  0.30102682064E+02  0.47078338693E+01  0.71970556598E+02  0.78154310081E+02  0.00000000000E+00 0.  1.
         13    1    5    5    0    0  0.24646536905E+02 -0.43583617341E+02 -0.54786312925E+02  0.74219428493E+02  0.00000000000E+00 0.  1.
        -13    1    5    5    0    0  0.25238247883E+03 -0.28022386287E+03 -0.12373653530E+03  0.39690434504E+03  0.00000000000E+00 0. -1.
          1    1    6    6  503    0 -0.97183483214E+02  0.10997783980E+03 -0.29208643279E+02  0.14964257248E+03  0.00000000000E+00 0. -1.
         -1    1    6    6    0  503 -0.23406495311E+03  0.31173278459E+03  0.70190072904E+02  0.39609389997E+03  0.00000000000E+00 0.  1.
<mgrwt>
<rscale>  0 0.16162776E+04</rscale>
<asrwt>0</asrwt>
<pdfrwt beam="1">  1        2 0.17177938E+00 0.16162776E+04</pdfrwt>
<pdfrwt beam="2">  1       -2 0.89985839E-01 0.16162776E+04</pdfrwt>
<totfact> 0.21550482E+01</totfact>
</mgrwt>
</event>
<event>
12    3  0.4806716E-008  0.2486176E+04  0.7818608E-02  0.8407927E-01
         -1   -1    0    0    0  501 -0.00000000000E+00  0.00000000000E+00  0.12696199225E+04  0.12696199225E+04  0.00000000000E+00 0.  1.
          1   -1    0    0  501    0  0.00000000000E+00 -0.00000000000E+00 -0.12171104925E+04  0.12171104925E+04  0.00000000000E+00 0. -1.
         23    2    1    2    0    0  0.54915158172E+03 -0.64266175448E+03  0.67820562308E+03  0.10876222511E+04  0.91529795963E+02 0.  0.
        254    2    1    2    0    0 -0.54915158172E+03  0.64266175448E+03 -0.62569619313E+03  0.13991081639E+04  0.92272766183E+03 0.  0.
         23    2    4    4    0    0  0.19333420103E+03  0.36360226574E+03 -0.36904555128E+03  0.56065895514E+03  0.92515534498E+02 0.  0.
         23    2    4    4    0    0 -0.74248578275E+03  0.27905948875E+03 -0.25665064185E+03  0.83844920879E+03  0.89264707050E+02 0.  0.
          4    1    3    3  502    0  0.12236290887E+03 -0.12073758004E+03  0.96392475720E+02  0.19708311464E+03  0.00000000000E+00 0. -1.
         -4    1    3    3    0  502  0.42678867285E+03 -0.52192417445E+03  0.58181314736E+03  0.89053913647E+03  0.00000000000E+00 0.  1.
         13    1    5    5    0    0  0.94102856607E+01  0.17453403680E+02 -0.54769233533E+02  0.58248122013E+02  0.00000000000E+00 0. -1.
        -13    1    5    5    0    0  0.18392391536E+03  0.34614886206E+03 -0.31427631775E+03  0.50241083313E+03  0.00000000000E+00 0.  1.
          3    1    6    6  503    0 -0.57323921845E+03  0.17574427510E+03 -0.18224009710E+03  0.62665836369E+03  0.00000000000E+00 0.  1.
         -3    1    6    6    0  503 -0.16924656430E+03  0.10331521365E+03 -0.74410544748E+02  0.21179084510E+03  0.00000000000E+00 0. -1.
<mgrwt>
<rscale>  0 0.24861760E+04</rscale>
<asrwt>0</asrwt>
<pdfrwt beam="1">  1        1 0.18724777E+00 0.24861760E+04</pdfrwt>
<pdfrwt beam="2">  1       -1 0.19532614E+00 0.24861760E+04</pdfrwt>
<totfact> 0.14976333E+00</totfact>
</mgrwt>
</event>
<event>
12    3  0.4806716E-008  0.1453900E+04  0.7818608E-02  0.8915701E-01
          1   -1    0    0  501    0  0.00000000000E+00  0.00000000000E+00  0.11143153794E+04  0.11143153794E+04  0.00000000000E+00 0. -1.
         -1   -1    0    0    0  501 -0.00000000000E+00 -0.00000000000E+00 -0.47424319037E+03  0.47424319037E+03  0.00000000000E+00 0.  1.
         23    2    1    2    0    0 -0.41775895998E+03 -0.24763818789E+02  0.36042131335E+03  0.55854004943E+03  0.83232615835E+02 0.  0.
        254    2    1    2    0    0  0.41775895998E+03  0.24763818789E+02  0.27965087569E+03  0.10300185203E+04  0.89866442269E+03 0.  0.
         23    2    4    4    0    0  0.23113671502E+03 -0.42701676044E+03  0.13092063338E+03  0.51055148754E+03  0.88063127706E+02 0.  0.
         23    2    4    4    0    0  0.18662224496E+03  0.45178057923E+03  0.14873024231E+03  0.51946703280E+03  0.93764380787E+02 0.  0.
          4    1    3    3  502    0 -0.32705585257E+03  0.78615963512E+01  0.24847743047E+03  0.41081427537E+03  0.00000000000E+00 0. -1.
         -4    1    3    3    0  502 -0.90703107407E+02 -0.32625415141E+02  0.11194388288E+03  0.14772577406E+03  0.00000000000E+00 0.  1.
         13    1    5    5    0    0  0.47849538488E+02 -0.15611570320E+03  0.70886429165E+02  0.17800723851E+03  0.00000000000E+00 0.  1.
        -13    1    5    5    0    0  0.18328717653E+03 -0.27090105723E+03  0.60034204210E+02  0.33254424903E+03  0.00000000000E+00 0. -1.
          4    1    6    6  503    0  0.96771520133E+02  0.30602249118E+03  0.13332543446E+03  0.34754879325E+03  0.00000000000E+00 0. -1.
         -4    1    6    6    0  503  0.89850724829E+02  0.14575808805E+03  0.15404807850E+02  0.17191823955E+03  0.00000000000E+00 0.  1.
<mgrwt>
<rscale>  0 0.14539002E+04</rscale>
<asrwt>0</asrwt>
<pdfrwt beam="1">  1        1 0.17143313E+00 0.14539002E+04</pdfrwt>
<pdfrwt beam="2">  1       -1 0.72960491E-01 0.14539002E+04</pdfrwt>
<totfact> 0.22744786E+01</totfact>
</mgrwt>
</event>
<event>
12    3  0.4806716E-008  0.1495440E+04  0.7818608E-02  0.8887491E-01
         -1   -1    0    0    0  501 -0.00000000000E+00  0.00000000000E+00  0.42443667959E+03  0.42443667959E+03  0.00000000000E+00 0.  1.
          1   -1    0    0  501    0  0.00000000000E+00 -0.00000000000E+00 -0.13172407806E+04  0.13172407806E+04  0.00000000000E+00 0. -1.
         23    2    1    2    0    0  0.23863817292E+03  0.18387084201E+03 -0.70022475766E+03  0.76804679624E+03  0.93938841060E+02 0.  0.
        254    2    1    2    0    0 -0.23863817292E+03 -0.18387084201E+03 -0.19257934331E+03  0.97363066391E+03  0.90560101707E+03 0.  0.
         23    2    4    4    0    0 -0.59668095966E+02 -0.53268374032E+03 -0.17446469690E+03  0.57116091482E+03  0.92057651944E+02 0.  0.
         23    2    4    4    0    0 -0.17897007695E+03  0.34881289830E+03 -0.18114646406E+02  0.40246974909E+03  0.89179773762E+02 0.  0.
          3    1    3    3  502    0  0.22284646974E+03  0.15551726783E+03 -0.67261898171E+03  0.72543949729E+03  0.00000000000E+00 0. -1.
         -3    1    3    3    0  502  0.15791703176E+02  0.28353574184E+02 -0.27605775950E+02  0.42607298952E+02  0.00000000000E+00 0.  1.
         13    1    5    5    0    0 -0.11791684426E+02 -0.34389311745E+03 -0.14811766984E+03  0.37462029333E+03  0.00000000000E+00 0. -1.
        -13    1    5    5    0    0 -0.47876411540E+02 -0.18879062286E+03 -0.26347027065E+02  0.19654062150E+03  0.00000000000E+00 0.  1.
          2    1    6    6  503    0 -0.10239433751E+03  0.26901355965E+03  0.11178582704E+02  0.28805877237E+03  0.00000000000E+00 0. -1.
         -2    1    6    6    0  503 -0.76575739448E+02  0.79799338656E+02 -0.29293229110E+02  0.11441097672E+03  0.00000000000E+00 0.  1.
<mgrwt>
<rscale>  0 0.14954401E+04</rscale>
<asrwt>0</asrwt>
<pdfrwt beam="1">  1        1 0.20265243E+00 0.14954401E+04</pdfrwt>
<pdfrwt beam="2">  1       -1 0.65297951E-01 0.14954401E+04</pdfrwt>
<totfact> 0.20229929E+01</totfact>
</mgrwt>
</event>
<event>
12    3  0.4806716E-008  0.3480890E+04  0.7818608E-02  0.8118334E-01
          2   -1    0    0  501    0  0.00000000000E+00  0.00000000000E+00  0.21082228847E+04  0.21082228847E+04  0.00000000000E+00 0. -1.
         -2   -1    0    0    0  501 -0.00000000000E+00 -0.00000000000E+00 -0.14368260072E+04  0.14368260072E+04  0.00000000000E+00 0.  1.
         23    2    1    2    0    0  0.31241088237E+03 -0.12987699102E+04  0.12509437642E+04  0.18324163325E+04  0.92116639736E+02 0.  0.
        254    2    1    2    0    0 -0.31241088237E+03  0.12987699102E+04 -0.57954688673E+03  0.17126325593E+04  0.90157187737E+03 0.  0.
         23    2    4    4    0    0  0.24968372114E+03  0.23074630866E+03  0.38345210668E+02  0.35399734498E+03  0.90873238674E+02 0.  0.
         23    2    4    4    0    0 -0.56209460351E+03  0.10680236016E+04 -0.61789209740E+03  0.13586352143E+04  0.86453714285E+02 0.  0.
          1    1    3    3  502    0  0.15967110222E+03 -0.55403315165E+03  0.59143508217E+03  0.82598005450E+03  0.00000000000E+00 0. -1.
         -1    1    3    3    0  502  0.15273978015E+03 -0.74473675860E+03  0.65950868206E+03  0.10064362780E+04  0.00000000000E+00 0.  1.
         13    1    5    5    0    0  0.20445070665E+03  0.21388146236E+03  0.58630608262E+02  0.30163375079E+03  0.00000000000E+00 0. -1.
        -13    1    5    5    0    0  0.45233014495E+02  0.16864846304E+02 -0.20285397595E+02  0.52363594193E+02  0.00000000000E+00 0.  1.
          1    1    6    6  503    0 -0.11996212938E+03  0.23724307536E+03 -0.17694882067E+03  0.31935258638E+03  0.00000000000E+00 0. -1.
         -1    1    6    6    0  503 -0.44213247414E+03  0.83078052623E+03 -0.44094327673E+03  0.10392826279E+04  0.00000000000E+00 0.  1.
<mgrwt>
<rscale>  0 0.34808904E+04</rscale>
<asrwt>0</asrwt>
<pdfrwt beam="1">  1        2 0.32434198E+00 0.34808904E+04</pdfrwt>
<pdfrwt beam="2">  1       -2 0.22105016E+00 0.34808904E+04</pdfrwt>
<totfact> 0.46574865E-01</totfact>
</mgrwt>
</event>
<event>
12    3  0.4806716E-008  0.2014897E+04  0.7818608E-02  0.8599687E-01
         -2   -1    0    0    0  501 -0.00000000000E+00  0.00000000000E+00  0.30773964551E+03  0.30773964551E+03  0.00000000000E+00 0.  1.
          2   -1    0    0  501    0  0.00000000000E+00 -0.00000000000E+00 -0.32980877915E+04  0.32980877915E+04  0.00000000000E+00 0. -1.
         23    2    1    2    0    0  0.65220932206E+03  0.11014480187E+02 -0.20192220394E+04  0.21239492063E+04  0.91674795445E+02 0.  0.
        254    2    1    2    0    0 -0.65220932206E+03 -0.11014480187E+02 -0.97112610657E+03  0.14818782307E+04  0.90960368134E+03 0.  0.
         23    2    4    4    0    0 -0.17750948332E+03 -0.43311474608E+03 -0.39433184953E+03  0.61898698978E+03  0.92462349209E+02 0.  0.
         23    2    4    4    0    0 -0.47469983874E+03  0.42210026590E+03 -0.57679425705E+03  0.86289124089E+03  0.91548387608E+02 0.  0.
          3    1    3    3  502    0  0.62245631793E+03  0.24302243397E+01 -0.18498374661E+04  0.19517572658E+04  0.00000000000E+00 0. -1.
         -3    1    3    3    0  502  0.29753004138E+02  0.85842558471E+01 -0.16938457327E+03  0.17219194048E+03  0.00000000000E+00 0.  1.
         13    1    5    5    0    0 -0.25138454919E+02 -0.17670282409E+02 -0.48316400246E+02  0.57259543561E+02  0.00000000000E+00 0.  1.
        -13    1    5    5    0    0 -0.15237102841E+03 -0.41544446367E+03 -0.34601544928E+03  0.56172744622E+03  0.00000000000E+00 0. -1.
          2    1    6    6  503    0 -0.33794183439E+03  0.24253738256E+03 -0.36633907203E+03  0.55428637099E+03  0.00000000000E+00 0. -1.
         -2    1    6    6    0  503 -0.13675800435E+03  0.17956288333E+03 -0.21045518501E+03  0.30860486990E+03  0.00000000000E+00 0.  1.
<mgrwt>
<rscale>  0 0.20148969E+04</rscale>
<asrwt>0</asrwt>
<pdfrwt beam="1">  1        2 0.50739813E+00 0.20148969E+04</pdfrwt>
<pdfrwt beam="2">  1       -2 0.47344560E-01 0.20148969E+04</pdfrwt>
<totfact> 0.44006734E+00</totfact>
</mgrwt>
</event>
<event>
12    3  0.4806716E-008  0.1613750E+04  0.7818608E-02  0.8812145E-01
          2   -1    0    0  501    0  0.00000000000E+00  0.00000000000E+00  0.89906393224E+03  0.89906393224E+03  0.00000000000E+00 0. -1.
         -2   -1    0    0    0  501 -0.00000000000E+00 -0.00000000000E+00 -0.72413896871E+03  0.72413896871E+03  0.00000000000E+00 0.  1.
         23    2    1    2    0    0 -0.13161881900E+03  0.40251408457E+03 -0.29377034704E+03  0.52349868568E+03  0.91699265617E+02 0.  0.
        254    2    1    2    0    0  0.13161881900E+03 -0.40251408457E+03  0.46869531057E+03  0.10997042153E+04  0.90018496162E+03 0.  0.
         23    2    4    4    0    0  0.16070651033E+03 -0.61778880332E+03  0.86261635916E+02  0.65054319126E+03  0.90971346566E+02 0.  0.
         23    2    4    4    0    0 -0.29087691334E+02  0.21527471874E+03  0.38243367465E+03  0.44916102401E+03  0.91108790264E+02 0.  0.
          3    1    3    3  502    0  0.34757968631E+01  0.83548233146E+02 -0.84062033305E+02  0.11856986914E+03  0.00000000000E+00 0. -1.
         -3    1    3    3    0  502 -0.13509461586E+03  0.31896585143E+03 -0.20970831373E+03  0.40492881653E+03  0.00000000000E+00 0.  1.
         13    1    5    5    0    0  0.60026114281E+02 -0.18055499854E+03  0.66059802185E+02  0.20141285798E+03  0.00000000000E+00 0. -1.
        -13    1    5    5    0    0  0.10068039605E+03 -0.43723380478E+03  0.20201833730E+02  0.44913033328E+03  0.00000000000E+00 0.  1.
          1    1    6    6  503    0 -0.96101464899E+01  0.22659536247E+02  0.52093128074E+01  0.25158426787E+02  0.00000000000E+00 0. -1.
         -1    1    6    6    0  503 -0.19477544844E+02  0.19261518250E+03  0.37722436184E+03  0.42400259722E+03  0.00000000000E+00 0.  1.
<mgrwt>
<rscale>  0 0.16137500E+04</rscale>
<asrwt>0</asrwt>
<pdfrwt beam="1">  1        2 0.13831753E+00 0.16137500E+04</pdfrwt>
<pdfrwt beam="2">  1       -2 0.11140599E+00 0.16137500E+04</pdfrwt>
<totfact> 0.17922031E+01</totfact>
</mgrwt>
</event>
<event>
12    3  0.4806716E-008  0.1420688E+04  0.7818608E-02  0.8938978E-01
         -1   -1    0    0    0  501 -0.00000000000E+00  0.00000000000E+00  0.43783388970E+03  0.43783388970E+03  0.00000000000E+00 0.  1.
          1   -1    0    0  501    0  0.00000000000E+00 -0.00000000000E+00 -0.11524657581E+04  0.11524657581E+04  0.00000000000E+00 0. -1.
         23    2    1    2    0    0 -0.12871469329E+02 -0.30469122366E+02  0.25191948917E+03  0.26928401492E+03  0.89198708096E+02 0.  0.
        254    2    1    2    0    0  0.12871469329E+02  0.30469122366E+02 -0.96655135755E+03  0.13210156328E+04  0.89987039806E+03 0.  0.
         23    2    4    4    0    0  0.22586382591E+03 -0.58212702443E+02  0.66469862106E+02  0.25867776459E+03  0.89959750678E+02 0.  0.
         23    2    4    4    0    0 -0.21299235658E+03  0.88681824809E+02 -0.10330212197E+04  0.10623378683E+04  0.90546651306E+02 0.  0.
          2    1    3    3  502    0 -0.24858005711E+02  0.26235938473E+02  0.78121137523E+02  0.86076460449E+02  0.00000000000E+00 0. -1.
         -2    1    3    3    0  502  0.11986536382E+02 -0.56705060839E+02  0.17379835165E+03  0.18320755447E+03  0.00000000000E+00 0.  1.
         13    1    5    5    0    0  0.23162628506E+03 -0.56214345829E+02  0.53405717106E+02  0.24426002381E+03  0.00000000000E+00 0.  1.
        -13    1    5    5    0    0 -0.57624591530E+01 -0.19983566137E+01  0.13064145000E+02  0.14417740781E+02  0.00000000000E+00 0. -1.
          3    1    6    6  503    0 -0.13699218553E+02 -0.15069317252E+02 -0.14060715102E+03  0.14207436021E+03  0.00000000000E+00 0. -1.
         -3    1    6    6    0  503 -0.19929313803E+03  0.10375114206E+03 -0.89241406863E+03  0.92026350804E+03  0.00000000000E+00 0.  1.
<mgrwt>
<rscale>  0 0.14206880E+04</rscale>
<asrwt>0</asrwt>
<pdfrwt beam="1">  1        1 0.17730242E+00 0.14206880E+04</pdfrwt>
<pdfrwt beam="2">  1       -1 0.67359060E-01 0.14206880E+04</pdfrwt>
<totfact> 0.25172903E+01</totfact>
</mgrwt>
</event>
<event>
12    3  0.4806716E-008  0.1600534E+04  0.7818608E-02  0.8820220E-01
          1   -1    0    0  501    0  0.00000000000E+00  0.00000000000E+00  0.17403194448E+04  0.17403194448E+04  0.00000000000E+00 0. -1.
         -1   -1    0    0    0  501 -0.00000000000E+00 -0.00000000000E+00 -0.36799392584E+03  0.36799392584E+03  0.00000000000E+00 0.  1.
         23    2    1    2    0    0  0.22415275043E+03  0.48740552271E+02 -0.17856901810E+03  0.30549171999E+03  0.93905270339E+02 0.  0.
        254    2    1    2    0    0 -0.22415275043E+03 -0.48740552271E+02  0.15508945371E+04  0.18028216506E+04  0.89009659138E+03 0.  0.
         23    2    4    4    0    0 -0.55637501074E+03 -0.77839280458E+02  0.87566655276E+03  0.10442211317E+04  0.89407796743E+02 0.  0.
         23    2    4    4    0    0  0.33222226031E+03  0.29098728187E+02  0.67522798429E+03  0.75860051893E+03  0.91233493438E+02 0.  0.
          3    1    3    3  502    0  0.21056133617E+03  0.66560744137E+02 -0.14182277051E+03  0.26245019944E+03  0.00000000000E+00 0.  1.
         -3    1    3    3    0  502  0.13591414260E+02 -0.17820191867E+02 -0.36746247585E+02  0.43041520551E+02  0.00000000000E+00 0. -1.
         13    1    5    5    0    0 -0.44106172856E+03 -0.41602577854E+02  0.74037725250E+03  0.86280049775E+03  0.00000000000E+00 0. -1.
        -13    1    5    5    0    0 -0.11531328218E+03 -0.36236702604E+02  0.13528930026E+03  0.18142063396E+03  0.00000000000E+00 0.  1.
          4    1    6    6  503    0  0.16768253582E+03  0.11622535360E+01  0.24274095349E+03  0.29502873445E+03  0.00000000000E+00 0. -1.
         -4    1    6    6    0  503  0.16453972449E+03  0.27936474651E+02  0.43248703080E+03  0.46357178448E+03  0.00000000000E+00 0.  1.
<mgrwt>
<rscale>  0 0.16005336E+04</rscale>
<asrwt>0</asrwt>
<pdfrwt beam="1">  1        1 0.26774145E+00 0.16005336E+04</pdfrwt>
<pdfrwt beam="2">  1       -1 0.56614451E-01 0.16005336E+04</pdfrwt>
<totfact> 0.13555176E+01</totfact>
</mgrwt>
</event>
<event>
12    3  0.4806716E-008  0.1725043E+04  0.7818608E-02  0.8747209E-01
         -1   -1    0    0    0  501 -0.00000000000E+00  0.00000000000E+00  0.48776139796E+03  0.48776139796E+03  0.00000000000E+00 0. -1.
          1   -1    0    0  501    0  0.00000000000E+00 -0.00000000000E+00 -0.15252206045E+04  0.15252206045E+04  0.00000000000E+00 0.  1.
         23    2    1    2    0    0 -0.10971636741E+03 -0.60749514548E+03 -0.28449901180E+03  0.68565641489E+03  0.89983323466E+02 0.  0.
        254    2    1    2    0    0  0.10971636741E+03  0.60749514548E+03 -0.75296019470E+03  0.13273255875E+04  0.90208432393E+03 0.  0.
         23    2    4    4    0    0  0.65739771097E+02  0.67072601024E+03 -0.12841609074E+03  0.69147237989E+03  0.86303310944E+02 0.  0.
         23    2    4    4    0    0  0.43976596316E+02 -0.63230864757E+02 -0.62454410396E+03  0.63585320765E+03  0.91224342184E+02 0.  0.
          3    1    3    3  502    0 -0.31617273256E+01 -0.15291372472E+03 -0.37635051328E+02  0.15750873251E+03  0.00000000000E+00 0. -1.
         -3    1    3    3    0  502 -0.10655464009E+03 -0.45458142076E+03 -0.24686396048E+03  0.52814768238E+03  0.00000000000E+00 0.  1.
         13    1    5    5    0    0  0.78882403925E+02  0.38026376234E+03 -0.84002959959E+02  0.39734048357E+03  0.00000000000E+00 0.  1.
        -13    1    5    5    0    0 -0.13142632828E+02  0.29046224789E+03 -0.44413130785E+02  0.29413189632E+03  0.00000000000E+00 0. -1.
          4    1    6    6  503    0 -0.39324642926E+01 -0.90965560569E+01 -0.33412120633E+01  0.10458264940E+02  0.00000000000E+00 0. -1.
         -4    1    6    6    0  503  0.47909060609E+02 -0.54134308700E+02 -0.62120289190E+03  0.62539494271E+03  0.00000000000E+00 0.  1.
<mgrwt>
<rscale>  0 0.17250435E+04</rscale>
<asrwt>0</asrwt>
<pdfrwt beam="1">  1        1 0.23464932E+00 0.17250435E+04</pdfrwt>
<pdfrwt beam="2">  1       -1 0.75040215E-01 0.17250435E+04</pdfrwt>
<totfact> 0.10655995E+01</totfact>
</mgrwt>
</event>
<event>
12    3  0.4806716E-008  0.3309251E+04  0.7818608E-02  0.8160545E-01
          1   -1    0    0  501    0  0.00000000000E+00  0.00000000000E+00  0.14286194042E+04  0.14286194042E+04  0.00000000000E+00 0. -1.
         -1   -1    0    0    0  501 -0.00000000000E+00 -0.00000000000E+00 -0.19163857446E+04  0.19163857446E+04  0.00000000000E+00 0.  1.
         23    2    1    2    0    0 -0.68509909256E+03  0.13310235677E+04 -0.56023866577E+03  0.16015088681E+04  0.99893880826E+02 0.  0.
        254    2    1    2    0    0  0.68509909256E+03 -0.13310235677E+04  0.72472325347E+02  0.17434962808E+04  0.89081004638E+03 0.  0.
         23    2    4    4    0    0  0.37933187590E+03 -0.13662167724E+04  0.62373362711E+02  0.14222875266E+04  0.92576621303E+02 0.  0.
         23    2    4    4    0    0  0.30576721666E+03  0.35193204689E+02  0.10098962636E+02  0.32120875414E+03  0.91328649651E+02 0.  0.
          2    1    3    3  502    0 -0.61241107981E+03  0.11456799065E+04 -0.51431437576E+03  0.13971932779E+04  0.00000000000E+00 0. -1.
         -2    1    3    3    0  502 -0.72688012748E+02  0.18534366124E+03 -0.45924290005E+02  0.20431559014E+03  0.00000000000E+00 0.  1.
         13    1    5    5    0    0  0.17499902700E+03 -0.56244123466E+03 -0.15973760110E+02  0.58925373389E+03  0.00000000000E+00 0. -1.
        -13    1    5    5    0    0  0.20433284890E+03 -0.80377553774E+03  0.78347122821E+02  0.83303379275E+03  0.00000000000E+00 0.  1.
          1    1    6    6  503    0  0.20827627044E+03  0.48571394181E+02  0.41623944660E+02  0.21787780504E+03  0.00000000000E+00 0. -1.
         -1    1    6    6    0  503  0.97490946227E+02 -0.13378189492E+02 -0.31524982025E+02  0.10333094910E+03  0.00000000000E+00 0.  1.
<mgrwt>
<rscale>  0 0.33092512E+04</rscale>
<asrwt>0</asrwt>
<pdfrwt beam="1">  1        1 0.21978760E+00 0.33092512E+04</pdfrwt>
<pdfrwt beam="2">  1       -1 0.29482858E+00 0.33092512E+04</pdfrwt>
<totfact> 0.21691748E-01</totfact>
</mgrwt>
</event>
<event>
12    3  0.4806716E-008  0.1584283E+04  0.7818608E-02  0.8830262E-01
          2   -1    0    0  501    0  0.00000000000E+00  0.00000000000E+00  0.96696740834E+03  0.96696740834E+03  0.00000000000E+00 0.  1.
         -2   -1    0    0    0  501 -0.00000000000E+00 -0.00000000000E+00 -0.64892387225E+03  0.64892387225E+03  0.00000000000E+00 0. -1.
         23    2    1    2    0    0  0.71403564748E+02  0.20738823752E+03 -0.32484891262E+03  0.40271523781E+03  0.92435905433E+02 0.  0.
        254    2    1    2    0    0 -0.71403564748E+02 -0.20738823752E+03  0.64289244870E+03  0.12131760428E+04  0.10051751390E+04 0.  0.
         23    2    4    4    0    0 -0.45937320691E+03 -0.30819340914E+03  0.16901777965E+03  0.58562305597E+03  0.91544705932E+02 0.  0.
         23    2    4    4    0    0  0.38796964216E+03  0.10080517162E+03  0.47387466906E+03  0.62755298681E+03  0.92646766872E+02 0.  0.
          3    1    3    3  502    0  0.13038282105E+02  0.15824590183E+03 -0.18843302531E+03  0.24641178396E+03  0.00000000000E+00 0. -1.
         -3    1    3    3    0  502  0.58365282644E+02  0.49142335690E+02 -0.13641588731E+03  0.15630345385E+03  0.00000000000E+00 0.  1.
         13    1    5    5    0    0 -0.20912646025E+03 -0.91576737285E+02  0.48552263104E+02  0.23340415044E+03  0.00000000000E+00 0.  1.
        -13    1    5    5    0    0 -0.25024674666E+03 -0.21661667186E+03  0.12046551654E+03  0.35221890553E+03  0.00000000000E+00 0. -1.
          3    1    6    6  503    0  0.10075937684E+03  0.69701133581E+02  0.13900961783E+03  0.18529536932E+03  0.00000000000E+00 0. -1.
         -3    1    6    6    0  503  0.28721026532E+03  0.31104038042E+02  0.33486505123E+03  0.44225761748E+03  0.00000000000E+00 0.  1.
<mgrwt>
<rscale>  0 0.15842831E+04</rscale>
<asrwt>0</asrwt>
<pdfrwt beam="1">  1        2 0.14876422E+00 0.15842831E+04</pdfrwt>
<pdfrwt beam="2">  1       -2 0.99834442E-01 0.15842831E+04</pdfrwt>
<totfact> 0.21072409E+01</totfact>
</mgrwt>
</event>
<event>
12    3  0.4806716E-008  0.1566011E+04  0.7818608E-02  0.8841705E-01
         -1   -1    0    0    0  501 -0.00000000000E+00  0.00000000000E+00  0.18476409141E+04  0.18476409141E+04  0.00000000000E+00 0.  1.
          1   -1    0    0  501    0  0.00000000000E+00 -0.00000000000E+00 -0.33182707752E+03  0.33182707752E+03  0.00000000000E+00 0. -1.
         23    2    1    2    0    0 -0.51067702641E+02 -0.19281538888E+02 -0.21017726461E+03  0.23563847210E+03  0.91494912317E+02 0.  0.
        254    2    1    2    0    0  0.51067702641E+02  0.19281538888E+02  0.17259911012E+04  0.19438295195E+04  0.89243948342E+03 0.  0.
         23    2    4    4    0    0 -0.26180001814E+03 -0.22789260312E+03  0.13194549217E+04  0.13674244019E+04  0.91727402511E+02 0.  0.
         23    2    4    4    0    0  0.31286772078E+03  0.24717414201E+03  0.40653617944E+03  0.57640511760E+03  0.89386392809E+02 0.  0.
          1    1    3    3  502    0 -0.63373306532E+02 -0.15283788199E+01 -0.20332321968E+03  0.21297615731E+03  0.00000000000E+00 0. -1.
         -1    1    3    3    0  502  0.12305603891E+02 -0.17753160068E+02 -0.68540449252E+01  0.22662314784E+02  0.00000000000E+00 0.  1.
         13    1    5    5    0    0 -0.18549846203E+01 -0.34675678776E+02  0.10991941408E+03  0.11527411357E+03  0.00000000000E+00 0.  1.
        -13    1    5    5    0    0 -0.25994503352E+03 -0.19321692435E+03  0.12095355076E+04  0.12521502883E+04  0.00000000000E+00 0. -1.
          2    1    6    6  503    0  0.27895057737E+03  0.18138734408E+03  0.31007910777E+03  0.45482287353E+03  0.00000000000E+00 0. -1.
         -2    1    6    6    0  503  0.33917143409E+02  0.65786797937E+02  0.96457071670E+02  0.12158224408E+03  0.00000000000E+00 0.  1.
<mgrwt>
<rscale>  0 0.15660106E+04</rscale>
<asrwt>0</asrwt>
<pdfrwt beam="1">  1        1 0.51050321E-01 0.15660106E+04</pdfrwt>
<pdfrwt beam="2">  1       -1 0.28425244E+00 0.15660106E+04</pdfrwt>
<totfact> 0.30926566E+00</totfact>
</mgrwt>
</event>
<event>
12    3  0.4806716E-008  0.1180520E+04  0.7818608E-02  0.9130080E-01
          1   -1    0    0  501    0  0.00000000000E+00  0.00000000000E+00  0.24765060129E+03  0.24765060129E+03  0.00000000000E+00 0. -1.
         -1   -1    0    0    0  501 -0.00000000000E+00 -0.00000000000E+00 -0.14068488296E+04  0.14068488296E+04  0.00000000000E+00 0.  1.
         23    2    1    2    0    0 -0.48856457955E+02 -0.12133240825E+03 -0.58115876726E+03  0.60323346078E+03  0.95060973436E+02 0.  0.
        254    2    1    2    0    0  0.48856457955E+02  0.12133240825E+03 -0.57803946104E+03  0.10512659701E+04  0.86828682736E+03 0.  0.
         23    2    4    4    0    0 -0.37537640633E+03 -0.79515021607E+02 -0.31921441025E+03  0.50726173942E+03  0.90479541792E+02 0.  0.
         23    2    4    4    0    0  0.42423286428E+03  0.20084742985E+03 -0.25882505079E+03  0.54400423066E+03  0.92935369201E+02 0.  0.
          4    1    3    3  502    0 -0.11726655714E+02  0.59802764687E+01 -0.90967943893E+01  0.16000932130E+02  0.00000000000E+00 0. -1.
         -4    1    3    3    0  502 -0.37129802241E+02 -0.12731268471E+03 -0.57206197287E+03  0.58723252865E+03  0.00000000000E+00 0.  1.
         13    1    5    5    0    0 -0.26033980844E+03 -0.93590753607E+02 -0.24579027413E+03  0.37006608041E+03  0.00000000000E+00 0.  1.
        -13    1    5    5    0    0 -0.11503659789E+03  0.14075732000E+02 -0.73424136126E+02  0.13719565901E+03  0.00000000000E+00 0. -1.
          2    1    6    6  503    0  0.30733000193E+03  0.11725603190E+03 -0.13985258884E+03  0.35743454465E+03  0.00000000000E+00 0. -1.
         -2    1    6    6    0  503  0.11690286235E+03  0.83591397955E+02 -0.11897246194E+03  0.18656968601E+03  0.00000000000E+00 0.  1.
<mgrwt>
<rscale>  0 0.11805202E+04</rscale>
<asrwt>0</asrwt>
<pdfrwt beam="1">  1        1 0.38100093E-01 0.11805202E+04</pdfrwt>
<pdfrwt beam="2">  1       -1 0.21643828E+00 0.11805202E+04</pdfrwt>
<totfact> 0.12987519E+01</totfact>
</mgrwt>
</event>
<event>
12    3  0.4806716E-008  0.1364202E+04  0.7818608E-02  0.8980146E-01
         -2   -1    0    0    0  501 -0.00000000000E+00  0.00000000000E+00  0.40262488896E+03  0.40262488896E+03  0.00000000000E+00 0.  1.
          2   -1    0    0  501    0  0.00000000000E+00 -0.00000000000E+00 -0.11555713014E+04  0.11555713014E+04  0.00000000000E+00 0. -1.
         23    2    1    2    0    0  0.49221390451E+02 -0.12495398429E+03  0.16481745932E+03  0.23216207681E+03  0.93264095683E+02 0.  0.
        254    2    1    2    0    0 -0.49221390451E+02  0.12495398429E+03 -0.91776387173E+03  0.13260341135E+04  0.94764956736E+03 0.  0.
         23    2    4    4    0    0  0.28525066640E+03  0.10487097338E+03  0.26818795670E+02  0.31854345542E+03  0.91568670683E+02 0.  0.
         23    2    4    4    0    0 -0.33447205685E+03  0.20083010910E+02 -0.94458266740E+03  0.10074906581E+04  0.10259691270E+03 0.  0.
          2    1    3    3  502    0  0.54978773614E+02 -0.10729007113E+03  0.17380561725E+03  0.21152356252E+03  0.00000000000E+00 0.  1.
         -2    1    3    3    0  502 -0.57573831633E+01 -0.17663913161E+02 -0.89881579355E+01  0.20638514290E+02  0.00000000000E+00 0. -1.
         13    1    5    5    0    0  0.19806799997E+03  0.11597490584E+03  0.18902373009E+02  0.23030069714E+03  0.00000000000E+00 0.  1.
        -13    1    5    5    0    0  0.87182666423E+02 -0.11103932458E+02  0.79164226605E+01  0.88242758278E+02  0.00000000000E+00 0. -1.
          4    1    6    6  503    0 -0.11756783069E+02  0.21915417433E+02 -0.10783312729E+03  0.11066386407E+03  0.00000000000E+00 0. -1.
         -4    1    6    6    0  503 -0.32271527378E+03 -0.18324065228E+01 -0.83674954011E+03  0.89682679405E+03  0.00000000000E+00 0.  1.
<mgrwt>
<rscale>  0 0.13642020E+04</rscale>
<asrwt>0</asrwt>
<pdfrwt beam="1">  1        2 0.17778020E+00 0.13642020E+04</pdfrwt>
<pdfrwt beam="2">  1       -2 0.61942290E-01 0.13642020E+04</pdfrwt>
<totfact> 0.47582163E+01</totfact>
</mgrwt>
</event>
<event>
12    3  0.4806716E-008  0.1890758E+04  0.7818608E-02  0.8659470E-01
          1   -1    0    0  501    0  0.00000000000E+00  0.00000000000E+00  0.72036102600E+03  0.72036102600E+03  0.00000000000E+00 0. -1.
         -1   -1    0    0    0  501 -0.00000000000E+00 -0.00000000000E+00 -0.12406853994E+04  0.12406853994E+04  0.00000000000E+00 0.  1.
         23    2    1    2    0    0 -0.72667041593E+03 -0.13505696903E+03 -0.24711974812E+03  0.78429779868E+03  0.88116904341E+02 0.  0.
        254    2    1    2    0    0  0.72667041593E+03  0.13505696903E+03 -0.27320462532E+03  0.11767486268E+04  0.87396011638E+03 0.  0.
         23    2    4    4    0    0  0.17762234384E+03 -0.75396266981E+02  0.28812841676E+03  0.35861571226E+03  0.91394477029E+02 0.  0.
         23    2    4    4    0    0  0.54904807209E+03  0.21045323601E+03 -0.56133304208E+03  0.81813291450E+03  0.92208088869E+02 0.  0.
          4    1    3    3  502    0 -0.17594486280E+03 -0.10052071332E+02 -0.27509947707E+02  0.17836601724E+03  0.00000000000E+00 0. -1.
         -4    1    3    3    0  502 -0.55072555313E+03 -0.12500489770E+03 -0.21960980042E+03  0.60593178144E+03  0.00000000000E+00 0.  1.
         13    1    5    5    0    0  0.12721391890E+03 -0.67805424592E+02  0.26700706749E+03  0.30343653513E+03  0.00000000000E+00 0. -1.
        -13    1    5    5    0    0  0.50408424946E+02 -0.75908423891E+01  0.21121349270E+02  0.55179177130E+02  0.00000000000E+00 0.  1.
          3    1    6    6  503    0  0.30271335991E+03  0.11521511542E+03 -0.37156704247E+03  0.49292186819E+03  0.00000000000E+00 0. -1.
         -3    1    6    6    0  503  0.24633471217E+03  0.95238120585E+02 -0.18976599961E+03  0.32521104631E+03  0.00000000000E+00 0.  1.
<mgrwt>
<rscale>  0 0.18907580E+04</rscale>
<asrwt>0</asrwt>
<pdfrwt beam="1">  1        1 0.11082478E+00 0.18907580E+04</pdfrwt>
<pdfrwt beam="2">  1       -1 0.19087467E+00 0.18907580E+04</pdfrwt>
<totfact> 0.42528676E+00</totfact>
</mgrwt>
</event>
<event>
12    3  0.4806716E-008  0.1887870E+04  0.7818608E-02  0.8660918E-01
          1   -1    0    0  501    0  0.00000000000E+00  0.00000000000E+00  0.49949464159E+03  0.49949464159E+03  0.00000000000E+00 0. -1.
         -1   -1    0    0    0  501 -0.00000000000E+00 -0.00000000000E+00 -0.17838302640E+04  0.17838302640E+04  0.00000000000E+00 0.  1.
         23    2    1    2    0    0 -0.16485009395E+03 -0.60747971926E+03 -0.91956069587E+03  0.11179394856E+04  0.89384882357E+02 0.  0.
        254    2    1    2    0    0  0.16485009395E+03  0.60747971926E+03 -0.36477492649E+03  0.11653854200E+04  0.91041488748E+03 0.  0.
         23    2    4    4    0    0 -0.25275029953E+03  0.20122156671E+03  0.16217747815E+03  0.37338723265E+03  0.93507530522E+02 0.  0.
         23    2    4    4    0    0  0.41760039348E+03  0.40625815255E+03 -0.52695240464E+03  0.79199818734E+03  0.10072992034E+03 0.  0.
          1    1    3    3  502    0 -0.10962362658E+02 -0.69294594983E+02 -0.60687600743E+02  0.92762595764E+02  0.00000000000E+00 0. -1.
         -1    1    3    3    0  502 -0.15388773129E+03 -0.53818512427E+03 -0.85887309513E+03  0.10251768898E+04  0.00000000000E+00 0.  1.
         13    1    5    5    0    0 -0.35879427192E+01 -0.89343734596E+01  0.92064180239E+01  0.13321204709E+02  0.00000000000E+00 0.  1.
        -13    1    5    5    0    0 -0.24916235681E+03  0.21015594017E+03  0.15297106013E+03  0.36006602794E+03  0.00000000000E+00 0. -1.
          3    1    6    6  503    0  0.38601789484E+03  0.35000717186E+03 -0.43020454507E+03  0.67571501840E+03  0.00000000000E+00 0. -1.
         -3    1    6    6    0  503  0.31582498643E+02  0.56250980687E+02 -0.96747859568E+02  0.11628316894E+03  0.00000000000E+00 0.  1.
<mgrwt>
<rscale>  0 0.18878704E+04</rscale>
<asrwt>0</asrwt>
<pdfrwt beam="1">  1        1 0.76845330E-01 0.18878704E+04</pdfrwt>
<pdfrwt beam="2">  1       -1 0.27443542E+00 0.18878704E+04</pdfrwt>
<totfact> 0.20110367E+00</totfact>
</mgrwt>
</event>
<event>
12    3  0.4806716E-008  0.1531749E+04  0.7818608E-02  0.8863610E-01
          1   -1    0    0  501    0  0.00000000000E+00  0.00000000000E+00  0.19768515325E+04  0.19768515325E+04  0.00000000000E+00 0. -1.
         -1   -1    0    0    0  501 -0.00000000000E+00 -0.00000000000E+00 -0.29671627860E+03  0.29671627860E+03  0.00000000000E+00 0.  1.
         23    2    1    2    0    0 -0.24189036683E+03  0.24637550914E+03  0.30392029175E+02  0.35918158694E+03  0.94211973198E+02 0.  0.
        254    2    1    2    0    0  0.24189036683E+03 -0.24637550914E+03  0.16497432247E+04  0.19143862241E+04  0.90775000226E+03 0.  0.
         23    2    4    4    0    0  0.17523047744E+01 -0.14477119542E+03  0.16281853225E+04  0.16371392238E+04  0.90970457385E+02 0.  0.
         23    2    4    4    0    0  0.24013806205E+03 -0.10160431372E+03  0.21557902217E+02  0.27724700034E+03  0.91713851925E+02 0.  0.
          2    1    3    3  502    0 -0.23200555442E+02  0.65329056181E+01  0.24763135332E+02  0.34556584034E+02  0.00000000000E+00 0. -1.
         -2    1    3    3    0  502 -0.21868981138E+03  0.23984260352E+03  0.56288938429E+01  0.32462500291E+03  0.00000000000E+00 0.  1.
         13    1    5    5    0    0  0.13826168369E+02 -0.15471260266E+03  0.14718138477E+04  0.14799875522E+04  0.00000000000E+00 0.  1.
        -13    1    5    5    0    0 -0.12073863595E+02  0.99414072414E+01  0.15637147475E+03  0.15715167157E+03  0.00000000000E+00 0. -1.
          3    1    6    6  503    0  0.66986675972E+01 -0.76169708233E+01  0.23493622856E+02  0.25589855549E+02  0.00000000000E+00 0. -1.
         -3    1    6    6    0  503  0.23343939446E+03 -0.93987342895E+02 -0.19357206390E+01  0.25165714479E+03  0.00000000000E+00 0.  1.
<mgrwt>
<rscale>  0 0.15317494E+04</rscale>
<asrwt>0</asrwt>
<pdfrwt beam="1">  1        1 0.30413100E+00 0.15317494E+04</pdfrwt>
<pdfrwt beam="2">  1       -1 0.45648659E-01 0.15317494E+04</pdfrwt>
<totfact> 0.14221316E+01</totfact>
</mgrwt>
</event>
<event>
12    3  0.4806716E-008  0.3407120E+04  0.7818608E-02  0.8136161E-01
          1   -1    0    0  501    0  0.00000000000E+00  0.00000000000E+00  0.31167520768E+04  0.31167520768E+04  0.00000000000E+00 0. -1.
         -1   -1    0    0    0  501 -0.00000000000E+00 -0.00000000000E+00 -0.93113515995E+03  0.93113515995E+03  0.00000000000E+00 0.  1.
         23    2    1    2    0    0  0.41433350234E+03 -0.15297561449E+04  0.91810006247E+03  0.18338206636E+04  0.90357000517E+02 0.  0.
        254    2    1    2    0    0 -0.41433350234E+03  0.15297561449E+04  0.12675168544E+04  0.22140665732E+04  0.88524894821E+03 0.  0.
         23    2    4    4    0    0 -0.19748799103E+02  0.33088419386E+03  0.78962826526E+03  0.86118438842E+03  0.90837155124E+02 0.  0.
         23    2    4    4    0    0 -0.39458470324E+03  0.11988719510E+04  0.47788858915E+03  0.13528821848E+04  0.94454535260E+02 0.  0.
          3    1    3    3  502    0 -0.53431973647E+00 -0.28471985245E+02  0.68628886770E+01  0.29292297321E+02  0.00000000000E+00 0. -1.
         -3    1    3    3    0  502  0.41486782208E+03 -0.15012841596E+04  0.91123717380E+03  0.18045283663E+04  0.00000000000E+00 0.  1.
         13    1    5    5    0    0 -0.49735750417E+02  0.16862337747E+03  0.35150868877E+03  0.39302143272E+03  0.00000000000E+00 0.  1.
        -13    1    5    5    0    0  0.29986951314E+02  0.16226081639E+03  0.43811957650E+03  0.46816295571E+03  0.00000000000E+00 0. -1.
          2    1    6    6  503    0 -0.35632020561E+03  0.10170094466E+04  0.37872645967E+03  0.11422372935E+04  0.00000000000E+00 0. -1.
         -2    1    6    6    0  503 -0.38264497625E+02  0.18186250443E+03  0.99162129481E+02  0.21064489127E+03  0.00000000000E+00 0.  1.
<mgrwt>
<rscale>  0 0.34071205E+04</rscale>
<asrwt>0</asrwt>
<pdfrwt beam="1">  1        1 0.47950031E+00 0.34071205E+04</pdfrwt>
<pdfrwt beam="2">  1       -1 0.14325157E+00 0.34071205E+04</pdfrwt>
<totfact> 0.15895946E-01</totfact>
</mgrwt>
</event>
<event>
12    3  0.4806716E-008  0.2959288E+04  0.7818608E-02  0.8255453E-01
         -1   -1    0    0    0  501 -0.00000000000E+00  0.00000000000E+00  0.20272904747E+04  0.20272904747E+04  0.00000000000E+00 0.  1.
          1   -1    0    0  501    0  0.00000000000E+00 -0.00000000000E+00 -0.10799371832E+04  0.10799371832E+04  0.00000000000E+00 0. -1.
         23    2    1    2    0    0 -0.98600541297E+03 -0.89825088745E+03  0.26510251264E+03  0.13630934980E+04  0.93183747202E+02 0.  0.
        254    2    1    2    0    0  0.98600541297E+03  0.89825088745E+03  0.68225077889E+03  0.17441341600E+04  0.89301540391E+03 0.  0.
         23    2    4    4    0    0  0.89939899319E+03  0.92482574688E+03  0.83876346935E+03  0.15409591848E+04  0.82521758576E+02 0.  0.
         23    2    4    4    0    0  0.86606419785E+02 -0.26574859430E+02 -0.15651269046E+03  0.20317497522E+03  0.92611841468E+02 0.  0.
          3    1    3    3  502    0 -0.94576060702E+03 -0.87213372655E+03  0.23911996070E+03  0.13085330406E+04  0.00000000000E+00 0. -1.
         -3    1    3    3    0  502 -0.40244805951E+02 -0.26117160897E+02  0.25982551943E+02  0.54560457337E+02  0.00000000000E+00 0.  1.
         13    1    5    5    0    0  0.19067792080E+02  0.35737846125E+02  0.16320602092E+02  0.43670772756E+02  0.00000000000E+00 0.  1.
        -13    1    5    5    0    0  0.88033120111E+03  0.88908790075E+03  0.82244286726E+03  0.14972884120E+04  0.00000000000E+00 0. -1.
          2    1    6    6  503    0  0.37189594185E+02 -0.13551114729E+02 -0.14564541166E+03  0.15092807745E+03  0.00000000000E+00 0. -1.
         -2    1    6    6    0  503  0.49416825600E+02 -0.13023744701E+02 -0.10867278805E+02  0.52246897774E+02  0.00000000000E+00 0.  1.
<mgrwt>
<rscale>  0 0.29592880E+04</rscale>
<asrwt>0</asrwt>
<pdfrwt beam="1">  1        1 0.16614418E+00 0.29592880E+04</pdfrwt>
<pdfrwt beam="2">  1       -1 0.31189084E+00 0.29592880E+04</pdfrwt>
<totfact> 0.30991525E-01</totfact>
</mgrwt>
</event>
<event>
12    3  0.4806716E-008  0.1754299E+04  0.7818608E-02  0.8730987E-01
          2   -1    0    0  501    0  0.00000000000E+00  0.00000000000E+00  0.26470402859E+04  0.26470402859E+04  0.00000000000E+00 0.  1.
         -2   -1    0    0    0  501 -0.00000000000E+00 -0.00000000000E+00 -0.29066103517E+03  0.29066103517E+03  0.00000000000E+00 0. -1.
         23    2    1    2    0    0  0.59466788183E+02  0.62011578615E+02  0.19324284295E+04  0.19366303899E+04  0.94211979859E+02 0.  0.
        254    2    1    2    0    0 -0.59466788183E+02 -0.62011578615E+02  0.42395082124E+03  0.10010709312E+04  0.90278844458E+03 0.  0.
         23    2    4    4    0    0  0.38771955791E+03  0.11022767975E+03  0.25192992370E+03  0.48368785111E+03  0.89491082714E+02 0.  0.
         23    2    4    4    0    0 -0.44718634609E+03 -0.17223925837E+03  0.17202089754E+03  0.51738308009E+03  0.91935151683E+02 0.  0.
          3    1    3    3  502    0  0.12037990269E+02 -0.13316392036E+02  0.76875759473E+02  0.78943789503E+02  0.00000000000E+00 0. -1.
         -3    1    3    3    0  502  0.47428797914E+02  0.75327970651E+02  0.18555526700E+04  0.18576866003E+04  0.00000000000E+00 0.  1.
         13    1    5    5    0    0  0.10795142966E+03  0.55380685584E+02  0.37620012105E+02  0.12702675628E+03  0.00000000000E+00 0. -1.
        -13    1    5    5    0    0  0.27976812825E+03  0.54846994171E+02  0.21430991159E+03  0.35666109483E+03  0.00000000000E+00 0.  1.
          2    1    6    6  503    0 -0.40773981777E+03 -0.16228535900E+03  0.18263931234E+03  0.47533715945E+03  0.00000000000E+00 0. -1.
         -2    1    6    6    0  503 -0.39446528317E+02 -0.99538993694E+01 -0.10618414803E+02  0.42045920633E+02  0.00000000000E+00 0.  1.
<mgrwt>
<rscale>  0 0.17542993E+04</rscale>
<asrwt>0</asrwt>
<pdfrwt beam="1">  1        2 0.40723695E+00 0.17542993E+04</pdfrwt>
<pdfrwt beam="2">  1       -2 0.44717084E-01 0.17542993E+04</pdfrwt>
<totfact> 0.12855821E+01</totfact>
</mgrwt>
</event>
<event>
12    3  0.4806716E-008  0.1670610E+04  0.7818608E-02  0.8778306E-01
         -2   -1    0    0    0  501 -0.00000000000E+00  0.00000000000E+00  0.36756364060E+03  0.36756364060E+03  0.00000000000E+00 0. -1.
          2   -1    0    0  501    0  0.00000000000E+00 -0.00000000000E+00 -0.18982686531E+04  0.18982686531E+04  0.00000000000E+00 0.  1.
         23    2    1    2    0    0  0.23556373796E+03 -0.24509366450E+03 -0.12163949913E+04  0.12664425259E+04  0.93266915810E+02 0.  0.
        254    2    1    2    0    0 -0.23556373796E+03  0.24509366450E+03 -0.31431002116E+03  0.99938976774E+03  0.88567936604E+03 0.  0.
         23    2    4    4    0    0  0.14224229195E+03  0.15372044236E+03  0.23003982019E+03  0.32413765350E+03  0.91016787047E+02 0.  0.
         23    2    4    4    0    0 -0.37780602991E+03  0.91373222145E+02 -0.54434984134E+03  0.67525211424E+03  0.92532189287E+02 0.  0.
          2    1    3    3  502    0  0.43117917335E+02 -0.10756673455E+03 -0.38718710938E+03  0.40415790831E+03  0.00000000000E+00 0. -1.
         -2    1    3    3    0  502  0.19244582062E+03 -0.13752692995E+03 -0.82920788195E+03  0.86228461764E+03  0.00000000000E+00 0.  1.
         13    1    5    5    0    0  0.24935120915E+02  0.92796789433E+02  0.92499647135E+02  0.13337611894E+03  0.00000000000E+00 0.  1.
        -13    1    5    5    0    0  0.11730717104E+03  0.60923652924E+02  0.13754017305E+03  0.19076153455E+03  0.00000000000E+00 0. -1.
          3    1    6    6  503    0 -0.37410646399E+03  0.75498948223E+02 -0.53230830754E+03  0.65498692495E+03  0.00000000000E+00 0. -1.
         -3    1    6    6    0  503 -0.36995659196E+01  0.15874273922E+02 -0.12041533803E+02  0.20265189288E+02  0.00000000000E+00 0.  1.
<mgrwt>
<rscale>  0 0.16706101E+04</rscale>
<asrwt>0</asrwt>
<pdfrwt beam="1">  1        2 0.29204134E+00 0.16706101E+04</pdfrwt>
<pdfrwt beam="2">  1       -2 0.56548251E-01 0.16706101E+04</pdfrwt>
<totfact> 0.21294997E+01</totfact>
</mgrwt>
</event>
<event>
12    3  0.4806716E-008  0.1504241E+04  0.7818608E-02  0.8881637E-01
          2   -1    0    0  501    0  0.00000000000E+00  0.00000000000E+00  0.44861697744E+03  0.44861697744E+03  0.00000000000E+00 0. -1.
         -2   -1    0    0    0  501 -0.00000000000E+00 -0.00000000000E+00 -0.12609541409E+04  0.12609541409E+04  0.00000000000E+00 0.  1.
         23    2    1    2    0    0 -0.44552820496E+03  0.16402253313E+03 -0.20099786586E+03  0.52213137967E+03  0.82596990033E+02 0.  0.
        254    2    1    2    0    0  0.44552820496E+03 -0.16402253313E+03 -0.61133929760E+03  0.11874397387E+04  0.90048799182E+03 0.  0.
         23    2    4    4    0    0  0.74404687340E+02 -0.13097764445E+02  0.22793868678E+03  0.25389670306E+03  0.82461396807E+02 0.  0.
         23    2    4    4    0    0  0.37112351762E+03 -0.15092476869E+03 -0.83927798438E+03  0.93354303562E+03  0.81265694758E+02 0.  0.
          3    1    3    3  502    0 -0.26499283255E+03  0.12872821422E+03 -0.15325776499E+03  0.33208447264E+03  0.00000000000E+00 0. -1.
         -3    1    3    3    0  502 -0.18053537242E+03  0.35294318911E+02 -0.47740100869E+02  0.19004690703E+03  0.00000000000E+00 0.  1.
         13    1    5    5    0    0  0.30586380543E+01 -0.65043009450E+01 -0.59177012439E+01  0.93102301552E+01  0.00000000000E+00 0.  1.
        -13    1    5    5    0    0  0.71346049285E+02 -0.65934634998E+01  0.23385638802E+03  0.24458647291E+03  0.00000000000E+00 0. -1.
          3    1    6    6  503    0  0.37387840699E+03 -0.15315906410E+03 -0.83674286811E+03  0.92918318402E+03  0.00000000000E+00 0. -1.
         -3    1    6    6    0  503 -0.27548893694E+01  0.22342954154E+01 -0.25351162729E+01  0.43598515982E+01  0.00000000000E+00 0.  1.
<mgrwt>
<rscale>  0 0.15042413E+04</rscale>
<asrwt>0</asrwt>
<pdfrwt beam="1">  1        2 0.69017997E-01 0.15042413E+04</pdfrwt>
<pdfrwt beam="2">  1       -2 0.19399294E+00 0.15042413E+04</pdfrwt>
<totfact> 0.98149705E+00</totfact>
</mgrwt>
</event>
<event>
12    3  0.4806716E-008  0.2009633E+04  0.7818608E-02  0.8602130E-01
         -2   -1    0    0    0  501 -0.00000000000E+00  0.00000000000E+00  0.27773811794E+03  0.27773811794E+03  0.00000000000E+00 0. -1.
          2   -1    0    0  501    0  0.00000000000E+00 -0.00000000000E+00 -0.36352819743E+04  0.36352819743E+04  0.00000000000E+00 0.  1.
         23    2    1    2    0    0 -0.11623144794E+03 -0.61584346494E+03 -0.23149414160E+04  0.23999802490E+04  0.90435132984E+02 0.  0.
        254    2    1    2    0    0  0.11623144794E+03  0.61584346494E+03 -0.10426024404E+04  0.15130398432E+04  0.89972039868E+03 0.  0.
         23    2    4    4    0    0  0.29574210777E+03  0.26102464482E+03 -0.10471391546E+02  0.40340737477E+03  0.83848676001E+02 0.  0.
         23    2    4    4    0    0 -0.17951065983E+03  0.35481882011E+03 -0.10321310488E+04  0.11096324685E+04  0.88708742807E+02 0.  0.
          2    1    3    3  502    0 -0.12407339526E+02 -0.13656483470E+02 -0.12602790029E+03  0.12737139894E+03  0.00000000000E+00 0. -1.
         -2    1    3    3    0  502 -0.10382410841E+03 -0.60218698146E+03 -0.21889135157E+04  0.22726088500E+04  0.00000000000E+00 0.  1.
         13    1    5    5    0    0  0.17468016492E+03  0.16637554637E+03 -0.46248633604E+02  0.24562760137E+03  0.00000000000E+00 0. -1.
        -13    1    5    5    0    0  0.12106194285E+03  0.94649098454E+02  0.35777242058E+02  0.15777977340E+03  0.00000000000E+00 0.  1.
          3    1    6    6  503    0 -0.13230223149E+03  0.16358381959E+03 -0.54204186679E+03  0.58144039406E+03  0.00000000000E+00 0. -1.
         -3    1    6    6    0  503 -0.47208428339E+02  0.19123500052E+03 -0.49008918202E+03  0.52819207440E+03  0.00000000000E+00 0.  1.
<mgrwt>
<rscale>  0 0.20096332E+04</rscale>
<asrwt>0</asrwt>
<pdfrwt beam="1">  1        2 0.55927414E+00 0.20096332E+04</pdfrwt>
<pdfrwt beam="2">  1       -2 0.42728942E-01 0.20096332E+04</pdfrwt>
<totfact> 0.31592156E+00</totfact>
</mgrwt>
</event>
<event>
12    3  0.4806716E-008  0.1501191E+04  0.7818608E-02  0.8883662E-01
         -2   -1    0    0    0  501 -0.00000000000E+00  0.00000000000E+00  0.58842547391E+03  0.58842547391E+03  0.00000000000E+00 0.  1.
          2   -1    0    0  501    0  0.00000000000E+00 -0.00000000000E+00 -0.95745909178E+03  0.95745909178E+03  0.00000000000E+00 0. -1.
         23    2    1    2    0    0  0.18136555694E+03  0.42338650654E+03  0.68470744195E+01  0.46954619652E+03  0.90978838594E+02 0.  0.
        254    2    1    2    0    0 -0.18136555694E+03 -0.42338650654E+03 -0.37588069229E+03  0.10763383692E+04  0.89725603423E+03 0.  0.
         23    2    4    4    0    0 -0.28299677864E+03 -0.27235708963E+01 -0.52998169864E+03  0.60772057673E+03  0.91373431221E+02 0.  0.
         23    2    4    4    0    0  0.10163122170E+03 -0.42066293565E+03  0.15410100635E+03  0.46861779245E+03  0.92570538454E+02 0.  0.
          3    1    3    3  502    0  0.20211057882E+02  0.27131222669E+02 -0.22721052819E+02  0.40753359928E+02  0.00000000000E+00 0. -1.
         -3    1    3    3    0  502  0.16115449905E+03  0.39625528387E+03  0.29568127238E+02  0.42879283659E+03  0.00000000000E+00 0.  1.
         13    1    5    5    0    0 -0.81184784768E+02 -0.18282082947E+02 -0.85455585859E+02  0.11928059771E+03  0.00000000000E+00 0.  1.
        -13    1    5    5    0    0 -0.20181199387E+03  0.15558512051E+02 -0.44452611278E+03  0.48843997902E+03  0.00000000000E+00 0. -1.
          2    1    6    6  503    0  0.11016432005E+03 -0.38950842045E+03  0.12127609230E+03  0.42256464308E+03  0.00000000000E+00 0. -1.
         -2    1    6    6    0  503 -0.85330983502E+01 -0.31154515191E+02  0.32824914052E+02  0.46053149368E+02  0.00000000000E+00 0.  1.
<mgrwt>
<rscale>  0 0.15011906E+04</rscale>
<asrwt>0</asrwt>
<pdfrwt beam="1">  1        2 0.14730140E+00 0.15011906E+04</pdfrwt>
<pdfrwt beam="2">  1       -2 0.90526997E-01 0.15011906E+04</pdfrwt>
<totfact> 0.27047755E+01</totfact>
</mgrwt>
</event>
<event>
12    3  0.4806716E-008  0.2515720E+04  0.7818608E-02  0.8397406E-01
          2   -1    0    0  501    0  0.00000000000E+00  0.00000000000E+00  0.16936750513E+04  0.16936750513E+04  0.00000000000E+00 0. -1.
         -2   -1    0    0    0  501 -0.00000000000E+00 -0.00000000000E+00 -0.93418864642E+03  0.93418864642E+03  0.00000000000E+00 0.  1.
         23    2    1    2    0    0 -0.14983746877E+03 -0.90788268067E+03  0.94630456467E+03  0.13233475129E+04  0.95152939473E+02 0.  0.
        254    2    1    2    0    0  0.14983746877E+03  0.90788268067E+03 -0.18681815978E+03  0.13045161848E+04  0.90562642559E+03 0.  0.
         23    2    4    4    0    0  0.99175403017E+02  0.88373217829E+03  0.18904555611E+03  0.91363173667E+03  0.90368160658E+02 0.  0.
         23    2    4    4    0    0  0.50662065754E+02  0.24150502383E+02 -0.37586371589E+03  0.39088444815E+03  0.91472548965E+02 0.  0.
          1    1    3    3  502    0 -0.41303754492E+02 -0.43861508918E+03  0.50413719457E+03  0.66950990100E+03  0.00000000000E+00 0. -1.
         -1    1    3    3    0  502 -0.10853371428E+03 -0.46926759150E+03  0.44216737011E+03  0.65383761191E+03  0.00000000000E+00 0.  1.
         13    1    5    5    0    0  0.10624233633E+03  0.81093926900E+03  0.15284856343E+03  0.83202921546E+03  0.00000000000E+00 0. -1.
        -13    1    5    5    0    0 -0.70669333144E+01  0.72792909289E+02  0.36196992675E+02  0.81602521211E+02  0.00000000000E+00 0.  1.
          3    1    6    6  503    0  0.25168458825E+02  0.18157262322E+02 -0.35762865219E+03  0.35897268749E+03  0.00000000000E+00 0. -1.
         -3    1    6    6    0  503  0.25493606929E+02  0.59932400606E+01 -0.18235063699E+02  0.31911760666E+02  0.00000000000E+00 0.  1.
<mgrwt>
<rscale>  0 0.25157202E+04</rscale>
<asrwt>0</asrwt>
<pdfrwt beam="1">  1        2 0.26056539E+00 0.25157202E+04</pdfrwt>
<pdfrwt beam="2">  1       -2 0.14372133E+00 0.25157202E+04</pdfrwt>
<totfact> 0.29539730E+00</totfact>
</mgrwt>
</event>
<event>
12    3  0.4806716E-008  0.1878820E+04  0.7818608E-02  0.8665472E-01
         -1   -1    0    0    0  501 -0.00000000000E+00  0.00000000000E+00  0.40352632041E+03  0.40352632041E+03  0.00000000000E+00 0.  1.
          1   -1    0    0  501    0  0.00000000000E+00 -0.00000000000E+00 -0.21869470204E+04  0.21869470204E+04  0.00000000000E+00 0. -1.
         23    2    1    2    0    0 -0.16089770246E+03  0.54466948806E+03 -0.77207167979E+02  0.58050603371E+03  0.92050999511E+02 0.  0.
        254    2    1    2    0    0  0.16089770246E+03 -0.54466948806E+03 -0.17062135320E+04  0.20099673071E+04  0.89791482724E+03 0.  0.
         23    2    4    4    0    0  0.40179879645E+03 -0.59013572803E+03 -0.84423323122E+03  0.11093748283E+04  0.90996212613E+02 0.  0.
         23    2    4    4    0    0 -0.24090109399E+03  0.45466239972E+02 -0.86198030083E+03  0.90059247882E+03  0.89197857754E+02 0.  0.
          1    1    3    3  502    0 -0.57790083753E+02  0.35132700904E+03 -0.54899166168E+02  0.36025585284E+03  0.00000000000E+00 0. -1.
         -1    1    3    3    0  502 -0.10310761871E+03  0.19334247901E+03 -0.22308001812E+02  0.22025018087E+03  0.00000000000E+00 0.  1.
         13    1    5    5    0    0  0.33553331367E+02 -0.25784999465E+02 -0.79823884629E+02  0.90346802935E+02  0.00000000000E+00 0.  1.
        -13    1    5    5    0    0  0.36824546508E+03 -0.56435072856E+03 -0.76440934660E+03  0.10190280254E+04  0.00000000000E+00 0. -1.
          3    1    6    6  503    0 -0.19432038111E+03  0.63350479960E+02 -0.76083825860E+03  0.78781250915E+03  0.00000000000E+00 0. -1.
         -3    1    6    6    0  503 -0.46580712877E+02 -0.17884239989E+02 -0.10114204223E+03  0.11277996967E+03  0.00000000000E+00 0.  1.
<mgrwt>
<rscale>  0 0.18788195E+04</rscale>
<asrwt>0</asrwt>
<pdfrwt beam="1">  1        1 0.33645339E+00 0.18788195E+04</pdfrwt>
<pdfrwt beam="2">  1       -1 0.62080973E-01 0.18788195E+04</pdfrwt>
<totfact> 0.54864051E+00</totfact>
</mgrwt>
</event>
<event>
12    3  0.4806716E-008  0.1963722E+04  0.7818608E-02  0.8623772E-01
          1   -1    0    0  501    0  0.00000000000E+00  0.00000000000E+00  0.10598002996E+04  0.10598002996E+04  0.00000000000E+00 0. -1.
         -1   -1    0    0    0  501 -0.00000000000E+00 -0.00000000000E+00 -0.90965331582E+03  0.90965331582E+03  0.00000000000E+00 0.  1.
         23    2    1    2    0    0 -0.11526470282E+03 -0.73721852386E+03 -0.14009067167E+03  0.76469510943E+03  0.91411763299E+02 0.  0.
        254    2    1    2    0    0  0.11526470282E+03  0.73721852386E+03  0.29023765541E+03  0.12047585060E+04  0.90023777826E+03 0.  0.
         23    2    4    4    0    0 -0.17604233729E+03  0.59738467484E+03  0.50427113612E+03  0.80664156842E+03  0.92314066869E+02 0.  0.
         23    2    4    4    0    0  0.29130704011E+03  0.13983384902E+03 -0.21403348071E+03  0.39811693753E+03  0.90958606721E+02 0.  0.
          4    1    3    3  502    0 -0.70451114635E+02 -0.25573872095E+03 -0.17527768830E+02  0.26584370526E+03  0.00000000000E+00 0. -1.
         -4    1    3    3    0  502 -0.44813588182E+02 -0.48147980291E+03 -0.12256290284E+03  0.49885140418E+03  0.00000000000E+00 0.  1.
         13    1    5    5    0    0 -0.82467559762E+02  0.15994000970E+03  0.11427404173E+03  0.21316721542E+03  0.00000000000E+00 0. -1.
        -13    1    5    5    0    0 -0.93574777526E+02  0.43744466514E+03  0.38999709439E+03  0.59347435301E+03  0.00000000000E+00 0.  1.
          3    1    6    6  503    0  0.66736635539E+02  0.61581741522E+02 -0.24611369156E+02  0.94084052334E+02  0.00000000000E+00 0. -1.
         -3    1    6    6    0  503  0.22457040457E+03  0.78252107500E+02 -0.18942211155E+03  0.30403288520E+03  0.00000000000E+00 0.  1.
<mgrwt>
<rscale>  0 0.19637218E+04</rscale>
<asrwt>0</asrwt>
<pdfrwt beam="1">  1        1 0.16304620E+00 0.19637218E+04</pdfrwt>
<pdfrwt beam="2">  1       -1 0.13994666E+00 0.19637218E+04</pdfrwt>
<totfact> 0.53112525E+00</totfact>
</mgrwt>
</event>
<event>
12    3  0.4806716E-008  0.2381224E+04  0.7818608E-02  0.8446567E-01
          2   -1    0    0  501    0  0.00000000000E+00  0.00000000000E+00  0.97607256367E+03  0.97607256367E+03  0.00000000000E+00 0.  1.
         -2   -1    0    0    0  501 -0.00000000000E+00 -0.00000000000E+00 -0.14523068357E+04  0.14523068357E+04  0.00000000000E+00 0. -1.
         23    2    1    2    0    0  0.40905099421E+03  0.54747638411E+03  0.56264154694E+03  0.88966171297E+03  0.88765681193E+02 0.  0.
        254    2    1    2    0    0 -0.40905099421E+03 -0.54747638411E+03 -0.10388758190E+04  0.15387176864E+04  0.90627592056E+03 0.  0.
         23    2    4    4    0    0 -0.47253178591E+03 -0.32621426512E+03 -0.12823566673E+03  0.59516399072E+03  0.89854071498E+02 0.  0.
         23    2    4    4    0    0  0.63480791695E+02 -0.22126211899E+03 -0.91064015226E+03  0.94355369570E+03  0.89673594486E+02 0.  0.
          2    1    3    3  502    0  0.13873474955E+03  0.21626549086E+03  0.26238967558E+03  0.36724165766E+03  0.00000000000E+00 0.  1.
         -2    1    3    3    0  502  0.27031624466E+03  0.33121089324E+03  0.30025187136E+03  0.52242005531E+03  0.00000000000E+00 0. -1.
         13    1    5    5    0    0 -0.10746438499E+03 -0.12091019561E+03 -0.47741957371E+02  0.16866287065E+03  0.00000000000E+00 0. -1.
        -13    1    5    5    0    0 -0.36506740092E+03 -0.20530406952E+03 -0.80493709360E+02  0.42650112007E+03  0.00000000000E+00 0.  1.
          4    1    6    6  503    0  0.11048448956E+02  0.32936420127E+01 -0.10286242829E+03  0.10350649958E+03  0.00000000000E+00 0. -1.
         -4    1    6    6    0  503  0.52432342740E+02 -0.22455576100E+03 -0.80777772397E+03  0.84004719612E+03  0.00000000000E+00 0.  1.
<mgrwt>
<rscale>  0 0.23812239E+04</rscale>
<asrwt>0</asrwt>
<pdfrwt beam="1">  1        2 0.15016501E+00 0.23812239E+04</pdfrwt>
<pdfrwt beam="2">  1       -2 0.22343182E+00 0.23812239E+04</pdfrwt>
<totfact> 0.22097666E+00</totfact>
</mgrwt>
</event>
<event>
12    3  0.4806716E-008  0.2176583E+04  0.7818608E-02  0.8528239E-01
          2   -1    0    0  501    0  0.00000000000E+00  0.00000000000E+00  0.22324762173E+04  0.22324762173E+04  0.00000000000E+00 0. -1.
         -2   -1    0    0    0  501 -0.00000000000E+00 -0.00000000000E+00 -0.53052214192E+03  0.53052214192E+03  0.00000000000E+00 0.  1.
         23    2    1    2    0    0  0.64168971407E+03 -0.13582149322E+03  0.15008774369E+04  0.16406024481E+04  0.93435244304E+02 0.  0.
        254    2    1    2    0    0 -0.64168971407E+03  0.13582149322E+03  0.20107663844E+03  0.11223959111E+04  0.88832854258E+03 0.  0.
         23    2    4    4    0    0 -0.13172436527E+03  0.42554269437E+03  0.26350662504E+03  0.52553884860E+03  0.91200037345E+02 0.  0.
         23    2    4    4    0    0 -0.50996534881E+03 -0.28972120115E+03 -0.62429986594E+02  0.59685706250E+03  0.91311655621E+02 0.  0.
          1    1    3    3  502    0  0.55438695097E+03 -0.10676829969E+03  0.13577432772E+04  0.14704459079E+04  0.00000000000E+00 0. -1.
         -1    1    3    3    0  502  0.87302763104E+02 -0.29053193532E+02  0.14313415974E+03  0.17015654024E+03  0.00000000000E+00 0.  1.
         13    1    5    5    0    0 -0.65647734766E+02  0.94329369385E+02  0.45813145118E+02  0.12371943774E+03  0.00000000000E+00 0. -1.
        -13    1    5    5    0    0 -0.66076630502E+02  0.33121332498E+03  0.21769347992E+03  0.40181941086E+03  0.00000000000E+00 0.  1.
          1    1    6    6  503    0 -0.49944009051E+03 -0.27442482034E+03 -0.74491181656E+02  0.57471586212E+03  0.00000000000E+00 0.  1.
         -1    1    6    6    0  503 -0.10525258297E+02 -0.15296380803E+02  0.12061195062E+02  0.22141200379E+02  0.00000000000E+00 0. -1.
<mgrwt>
<rscale>  0 0.21765827E+04</rscale>
<asrwt>0</asrwt>
<pdfrwt beam="1">  1        2 0.34345788E+00 0.21765827E+04</pdfrwt>
<pdfrwt beam="2">  1       -2 0.81618792E-01 0.21765827E+04</pdfrwt>
<totfact> 0.59895914E+00</totfact>
</mgrwt>
</event>
<event>
12    3  0.4806716E-008  0.1189936E+04  0.7818608E-02  0.9121712E-01
         -2   -1    0    0    0  501 -0.00000000000E+00  0.00000000000E+00  0.15058440190E+03  0.15058440190E+03  0.00000000000E+00 0.  1.
          2   -1    0    0  501    0  0.00000000000E+00 -0.00000000000E+00 -0.23507533003E+04  0.23507533003E+04  0.00000000000E+00 0. -1.
         23    2    1    2    0    0  0.23574238599E+03 -0.60238778146E+02 -0.38660749944E+03  0.46567460642E+03  0.90467107261E+02 0.  0.
        254    2    1    2    0    0 -0.23574238599E+03  0.60238778146E+02 -0.18135613989E+04  0.20356630958E+04  0.89202920848E+03 0.  0.
         23    2    4    4    0    0  0.22802863905E+03 -0.23967748922E+03 -0.91289529643E+03  0.97505041127E+03  0.88899511903E+02 0.  0.
         23    2    4    4    0    0 -0.46377102504E+03  0.29991626737E+03 -0.90066610250E+03  0.10606126845E+04  0.93094077048E+02 0.  0.
          1    1    3    3  502    0  0.90645300652E+02  0.14231209137E+02 -0.18375608871E+03  0.20539084201E+03  0.00000000000E+00 0. -1.
         -1    1    3    3    0  502  0.14509708534E+03 -0.74469987283E+02 -0.20285141072E+03  0.26028376440E+03  0.00000000000E+00 0.  1.
         13    1    5    5    0    0  0.65219806964E+02 -0.28302007343E+02 -0.26494018555E+03  0.27431355919E+03  0.00000000000E+00 0.  1.
        -13    1    5    5    0    0  0.16280883209E+03 -0.21137548188E+03 -0.64795511088E+03  0.70073685208E+03  0.00000000000E+00 0. -1.
          1    1    6    6  503    0 -0.43514433194E+03  0.24828766438E+03 -0.81037382869E+03  0.95273453603E+03  0.00000000000E+00 0. -1.
         -1    1    6    6    0  503 -0.28626693098E+02  0.51628602984E+02 -0.90292273811E+02  0.10787814845E+03  0.00000000000E+00 0.  1.
<mgrwt>
<rscale>  0 0.11899358E+04</rscale>
<asrwt>0</asrwt>
<pdfrwt beam="1">  1        2 0.36165435E+00 0.11899358E+04</pdfrwt>
<pdfrwt beam="2">  1       -2 0.23166831E-01 0.11899358E+04</pdfrwt>
<totfact> 0.69270865E+01</totfact>
</mgrwt>
</event>
<event>
12    3  0.4806716E-008  0.1973912E+04  0.7818608E-02  0.8618916E-01
          1   -1    0    0  501    0  0.00000000000E+00  0.00000000000E+00  0.13025912926E+04  0.13025912926E+04  0.00000000000E+00 0. -1.
         -1   -1    0    0    0  501 -0.00000000000E+00 -0.00000000000E+00 -0.74780354441E+03  0.74780354441E+03  0.00000000000E+00 0.  1.
         23    2    1    2    0    0 -0.28357237614E+03 -0.23988417623E+03  0.92555253722E+03  0.10014021095E+04  0.90559236599E+02 0.  0.
        254    2    1    2    0    0  0.28357237614E+03  0.23988417623E+03 -0.37076478908E+03  0.10489927274E+04  0.90827391399E+03 0.  0.
         23    2    4    4    0    0  0.53048223741E+03 -0.45879353750E+02 -0.38047522399E+03  0.66074160462E+03  0.91113954469E+02 0.  0.
         23    2    4    4    0    0 -0.24690986126E+03  0.28576352998E+03  0.97104349119E+01  0.38825112280E+03  0.89550919330E+02 0.  0.
          4    1    3    3  502    0 -0.18167820130E+03 -0.18668238220E+03  0.72314532006E+03  0.76863283470E+03  0.00000000000E+00 0. -1.
         -4    1    3    3    0  502 -0.10189417484E+03 -0.53201794033E+02  0.20240721716E+03  0.23276927485E+03  0.00000000000E+00 0.  1.
         13    1    5    5    0    0  0.43949101057E+03 -0.14917037176E+02 -0.27801872664E+03  0.52025885743E+03  0.00000000000E+00 0. -1.
        -13    1    5    5    0    0  0.90991226836E+02 -0.30962316574E+02 -0.10245649735E+03  0.14048274719E+03  0.00000000000E+00 0.  1.
          1    1    6    6  503    0 -0.11671624262E+03  0.97218787140E+02 -0.32315416653E+02  0.15530119129E+03  0.00000000000E+00 0. -1.
         -1    1    6    6    0  503 -0.13019361865E+03  0.18854474284E+03  0.42025851565E+02  0.23294993151E+03  0.00000000000E+00 0.  1.
<mgrwt>
<rscale>  0 0.19739122E+04</rscale>
<asrwt>0</asrwt>
<pdfrwt beam="1">  1        1 0.20039866E+00 0.19739122E+04</pdfrwt>
<pdfrwt beam="2">  1       -1 0.11504670E+00 0.19739122E+04</pdfrwt>
<totfact> 0.57427766E+00</totfact>
</mgrwt>
</event>
<event>
12    3  0.4806716E-008  0.2991363E+04  0.7818608E-02  0.8246202E-01
         -2   -1    0    0    0  501 -0.00000000000E+00  0.00000000000E+00  0.91515511483E+03  0.91515511483E+03  0.00000000000E+00 0.  1.
          2   -1    0    0  501    0  0.00000000000E+00 -0.00000000000E+00 -0.24444627433E+04  0.24444627433E+04  0.00000000000E+00 0. -1.
         23    2    1    2    0    0  0.38701700848E+03 -0.12341848287E+04 -0.30011211913E+03  0.13309523445E+04  0.91501382370E+02 0.  0.
        254    2    1    2    0    0 -0.38701700848E+03  0.12341848287E+04 -0.12291955093E+04  0.20286655136E+04  0.96517760533E+03 0.  0.
         23    2    4    4    0    0 -0.65799754407E+03  0.52135971014E+03 -0.68374161202E+03  0.10866086041E+04  0.91863763945E+02 0.  0.
         23    2    4    4    0    0  0.27098053559E+03  0.71282511856E+03 -0.54545389730E+03  0.94205690954E+03  0.91657876997E+02 0.  0.
          3    1    3    3  502    0  0.13386877856E+03 -0.56579803487E+03 -0.11560622060E+03  0.59280103271E+03  0.00000000000E+00 0. -1.
         -3    1    3    3    0  502  0.25314822992E+03 -0.66838679383E+03 -0.18450589853E+03  0.73815131177E+03  0.00000000000E+00 0.  1.
         13    1    5    5    0    0 -0.19703451105E+03  0.20521197661E+03 -0.25677128155E+03  0.38323105943E+03  0.00000000000E+00 0. -1.
        -13    1    5    5    0    0 -0.46096303302E+03  0.31614773354E+03 -0.42697033047E+03  0.70337754466E+03  0.00000000000E+00 0.  1.
          1    1    6    6  503    0  0.14604399120E+03  0.37082250113E+03 -0.22901759107E+03  0.45965990877E+03  0.00000000000E+00 0. -1.
         -1    1    6    6    0  503  0.12493654439E+03  0.34200261743E+03 -0.31643630623E+03  0.48239700077E+03  0.00000000000E+00 0.  1.
<mgrwt>
<rscale>  0 0.29913626E+04</rscale>
<asrwt>0</asrwt>
<pdfrwt beam="1">  1        2 0.37607118E+00 0.29913626E+04</pdfrwt>
<pdfrwt beam="2">  1       -2 0.14079310E+00 0.29913626E+04</pdfrwt>
<totfact> 0.11361789E+00</totfact>
</mgrwt>
</event>
<event>
12    3  0.4806716E-008  0.3751813E+04  0.7818608E-02  0.8056575E-01
          2   -1    0    0  501    0  0.00000000000E+00  0.00000000000E+00  0.28058065268E+04  0.28058065268E+04  0.00000000000E+00 0. -1.
         -2   -1    0    0    0  501 -0.00000000000E+00 -0.00000000000E+00 -0.12541941483E+04  0.12541941483E+04  0.00000000000E+00 0.  1.
         23    2    1    2    0    0 -0.73225129303E+03  0.43620790729E+03 -0.94310813375E+03  0.12750835377E+04  0.99578018225E+02 0.  0.
        254    2    1    2    0    0  0.73225129303E+03 -0.43620790729E+03  0.24947205123E+04  0.27849171374E+04  0.89758772999E+03 0.  0.
         23    2    4    4    0    0  0.40100749465E+03 -0.69531404128E+03  0.16013072873E+04  0.17933913472E+04  0.88311205700E+02 0.  0.
         23    2    4    4    0    0  0.33124379838E+03  0.25910613399E+03  0.89341322496E+03  0.99152579015E+03  0.89876355953E+02 0.  0.
          3    1    3    3  502    0 -0.39939683440E+03  0.25771507823E+03 -0.59390666821E+03  0.76069706416E+03  0.00000000000E+00 0. -1.
         -3    1    3    3    0  502 -0.33285445863E+03  0.17849282906E+03 -0.34920146554E+03  0.51438647356E+03  0.00000000000E+00 0.  1.
         13    1    5    5    0    0  0.28895768153E+03 -0.45221412024E+03  0.11412045571E+04  0.12610876232E+04  0.00000000000E+00 0.  1.
        -13    1    5    5    0    0  0.11204981312E+03 -0.24309992104E+03  0.46010273021E+03  0.53230372400E+03  0.00000000000E+00 0. -1.
          1    1    6    6  503    0  0.91097176159E+02  0.34871151799E+02  0.26540038063E+03  0.28275794378E+03  0.00000000000E+00 0. -1.
         -1    1    6    6    0  503  0.24014662222E+03  0.22423498219E+03  0.62801284433E+03  0.70876784636E+03  0.00000000000E+00 0.  1.
<mgrwt>
<rscale>  0 0.37518135E+04</rscale>
<asrwt>0</asrwt>
<pdfrwt beam="1">  1        2 0.43166254E+00 0.37518135E+04</pdfrwt>
<pdfrwt beam="2">  1       -2 0.19295295E+00 0.37518135E+04</pdfrwt>
<totfact> 0.27335960E-01</totfact>
</mgrwt>
</event>
<event>
12    3  0.4806716E-008  0.2617829E+04  0.7818608E-02  0.8362170E-01
          2   -1    0    0  501    0  0.00000000000E+00  0.00000000000E+00  0.11061777634E+04  0.11061777634E+04  0.00000000000E+00 0. -1.
         -2   -1    0    0    0  501 -0.00000000000E+00 -0.00000000000E+00 -0.15488081722E+04  0.15488081722E+04  0.00000000000E+00 0.  1.
         23    2    1    2    0    0 -0.88495585283E+03  0.47215502315E+03  0.37396738949E+03  0.10743091534E+04  0.90616341581E+02 0.  0.
        254    2    1    2    0    0  0.88495585283E+03 -0.47215502315E+03 -0.81659779824E+03  0.15806767822E+04  0.90864178768E+03 0.  0.
         23    2    4    4    0    0 -0.13464557847E+02 -0.34859644292E+03 -0.45561881130E+01  0.36021651660E+03  0.89634846143E+02 0.  0.
         23    2    4    4    0    0  0.89842041068E+03 -0.12355858023E+03 -0.81204161013E+03  0.12204602656E+04  0.87668273859E+02 0.  0.
          3    1    3    3  502    0 -0.58145848371E+03  0.34310363003E+03  0.21775233622E+03  0.70938716450E+03  0.00000000000E+00 0. -1.
         -3    1    3    3    0  502 -0.30349736912E+03  0.12905139312E+03  0.15621505327E+03  0.36492198891E+03  0.00000000000E+00 0.  1.
         13    1    5    5    0    0 -0.40317157973E+02 -0.22497714175E+03  0.26117986417E+02  0.23004855304E+03  0.00000000000E+00 0. -1.
        -13    1    5    5    0    0  0.26852600126E+02 -0.12361930117E+03 -0.30674174530E+02  0.13016796356E+03  0.00000000000E+00 0.  1.
          2    1    6    6  503    0  0.74679349958E+03 -0.92109513252E+02 -0.71323800914E+03  0.10367705393E+04  0.00000000000E+00 0. -1.
         -2    1    6    6    0  503  0.15162691110E+03 -0.31449066974E+02 -0.98803600985E+02  0.18368972631E+03  0.00000000000E+00 0.  1.
<mgrwt>
<rscale>  0 0.26178290E+04</rscale>
<asrwt>0</asrwt>
<pdfrwt beam="1">  1        2 0.17018119E+00 0.26178290E+04</pdfrwt>
<pdfrwt beam="2">  1       -2 0.23827818E+00 0.26178290E+04</pdfrwt>
<totfact> 0.14480217E+00</totfact>
</mgrwt>
</event>
<event>
12    3  0.4806716E-008  0.1776350E+04  0.7818608E-02  0.8718979E-01
          2   -1    0    0  501    0  0.00000000000E+00  0.00000000000E+00  0.11056254079E+04  0.11056254079E+04  0.00000000000E+00 0. -1.
         -2   -1    0    0    0  501 -0.00000000000E+00 -0.00000000000E+00 -0.71349162946E+03  0.71349162946E+03  0.00000000000E+00 0.  1.
         23    2    1    2    0    0 -0.14201910394E+03 -0.63983580809E+02  0.79570041572E+03  0.81581185588E+03  0.90258008626E+02 0.  0.
        254    2    1    2    0    0  0.14201910394E+03  0.63983580809E+02 -0.40356663723E+03  0.10033051815E+04  0.90525793677E+03 0.  0.
         23    2    4    4    0    0  0.18306046485E+01 -0.29778818296E+03  0.12933574953E+03  0.33743257094E+03  0.91933948056E+02 0.  0.
         23    2    4    4    0    0  0.14018849929E+03  0.36177176377E+03 -0.53290238676E+03  0.66587261058E+03  0.94179378381E+02 0.  0.
          3    1    3    3  502    0 -0.13051072225E+03 -0.73975039652E+02  0.56399592814E+03  0.58360668440E+03  0.00000000000E+00 0. -1.
         -3    1    3    3    0  502 -0.11508381686E+02  0.99914588426E+01  0.23170448758E+03  0.23220517149E+03  0.00000000000E+00 0.  1.
         13    1    5    5    0    0 -0.93533457378E+00 -0.11504838091E+03  0.26964974515E+01  0.11508377774E+03  0.00000000000E+00 0. -1.
        -13    1    5    5    0    0  0.27659392223E+01 -0.18273980205E+03  0.12663925208E+03  0.22234879320E+03  0.00000000000E+00 0.  1.
          1    1    6    6  503    0  0.16056304955E+02  0.65490758123E+02 -0.42767695417E+02  0.79849358793E+02  0.00000000000E+00 0. -1.
         -1    1    6    6    0  503  0.12413219433E+03  0.29628100564E+03 -0.49013469134E+03  0.58602325179E+03  0.00000000000E+00 0.  1.
<mgrwt>
<rscale>  0 0.17763496E+04</rscale>
<asrwt>0</asrwt>
<pdfrwt beam="1">  1        2 0.17009622E+00 0.17763496E+04</pdfrwt>
<pdfrwt beam="2">  1       -2 0.10976794E+00 0.17763496E+04</pdfrwt>
<totfact> 0.13501999E+01</totfact>
</mgrwt>
</event>
<event>
12    3  0.4806716E-008  0.2319987E+04  0.7818608E-02  0.8470082E-01
         -1   -1    0    0    0  501 -0.00000000000E+00  0.00000000000E+00  0.49852265300E+03  0.49852265300E+03  0.00000000000E+00 0. -1.
          1   -1    0    0  501    0  0.00000000000E+00 -0.00000000000E+00 -0.26991446085E+04  0.26991446085E+04  0.00000000000E+00 0.  1.
         23    2    1    2    0    0 -0.17915482784E+03  0.69863102298E+03 -0.74058546722E+01  0.72691878881E+03  0.90411947379E+02 0.  0.
        254    2    1    2    0    0  0.17915482784E+03 -0.69863102298E+03 -0.21932161008E+04  0.24707484727E+04  0.87989737569E+03 0.  0.
         23    2    4    4    0    0 -0.32250382063E+02 -0.16562207727E+03  0.97630380090E+01  0.19246528494E+03  0.92069589852E+02 0.  0.
         23    2    4    4    0    0  0.21140520990E+03 -0.53300894571E+03 -0.22029791389E+04  0.22782831878E+04  0.93094029958E+02 0.  0.
          1    1    3    3  502    0 -0.15162395500E+03  0.67063782707E+03 -0.50059860209E+01  0.68758270682E+03  0.00000000000E+00 0. -1.
         -1    1    3    3    0  502 -0.27530872833E+02  0.27993195914E+02 -0.23998686513E+01  0.39336081985E+02  0.00000000000E+00 0.  1.
         13    1    5    5    0    0 -0.48597864188E+02 -0.16633387953E+03  0.17864911003E+02  0.17420639176E+03  0.00000000000E+00 0. -1.
        -13    1    5    5    0    0  0.16347482125E+02  0.71180226689E+00 -0.81018729939E+01  0.18258893184E+02  0.00000000000E+00 0.  1.
          4    1    6    6  503    0  0.71689469447E+02 -0.30139082165E+03 -0.12282735227E+04  0.12667405630E+04  0.00000000000E+00 0. -1.
         -4    1    6    6    0  503  0.13971574045E+03 -0.23161812406E+03 -0.97470561618E+03  0.10115426248E+04  0.00000000000E+00 0.  1.
<mgrwt>
<rscale>  0 0.23199868E+04</rscale>
<asrwt>0</asrwt>
<pdfrwt beam="1">  1        1 0.41525301E+00 0.23199868E+04</pdfrwt>
<pdfrwt beam="2">  1       -1 0.76695794E-01 0.23199868E+04</pdfrwt>
<totfact> 0.15127272E+00</totfact>
</mgrwt>
</event>
<event>
12    3  0.4806716E-008  0.2406883E+04  0.7818608E-02  0.8436931E-01
          1   -1    0    0  501    0  0.00000000000E+00  0.00000000000E+00  0.27133876773E+04  0.27133876773E+04  0.00000000000E+00 0. -1.
         -1   -1    0    0    0  501 -0.00000000000E+00 -0.00000000000E+00 -0.53375028350E+03  0.53375028350E+03  0.00000000000E+00 0.  1.
         23    2    1    2    0    0  0.70682684797E+03 -0.73663208900E+03  0.72408299099E+03  0.12546543140E+04  0.87351257287E+02 0.  0.
        254    2    1    2    0    0 -0.70682684797E+03  0.73663208900E+03  0.14555544028E+04  0.19924836468E+04  0.89951177638E+03 0.  0.
         23    2    4    4    0    0 -0.25145250545E+03  0.62343303425E+01  0.95815729153E+03  0.99431796054E+03  0.85648012078E+02 0.  0.
         23    2    4    4    0    0 -0.45537434252E+03  0.73039775865E+03  0.49739711129E+03  0.99816568631E+03  0.89912031089E+02 0.  0.
          2    1    3    3  502    0  0.13212218298E+03 -0.13121696888E+03  0.17474160907E+03  0.25536012629E+03  0.00000000000E+00 0. -1.
         -2    1    3    3    0  502  0.57470466499E+03 -0.60541512011E+03  0.54934138192E+03  0.99929418767E+03  0.00000000000E+00 0.  1.
         13    1    5    5    0    0 -0.12438111121E+03 -0.43704014349E+01  0.63165049028E+03  0.64379507850E+03  0.00000000000E+00 0. -1.
        -13    1    5    5    0    0 -0.12707139424E+03  0.10604731777E+02  0.32650680125E+03  0.35052288204E+03  0.00000000000E+00 0.  1.
          4    1    6    6  503    0 -0.43025473478E+03  0.70577816948E+03  0.49370085426E+03  0.96279930142E+03  0.00000000000E+00 0. -1.
         -4    1    6    6    0  503 -0.25119607736E+02  0.24619589174E+02  0.36962570227E+01  0.35366384886E+02  0.00000000000E+00 0.  1.
<mgrwt>
<rscale>  0 0.24068830E+04</rscale>
<asrwt>0</asrwt>
<pdfrwt beam="1">  1        1 0.41744425E+00 0.24068830E+04</pdfrwt>
<pdfrwt beam="2">  1       -1 0.82115430E-01 0.24068830E+04</pdfrwt>
<totfact> 0.12684230E+00</totfact>
</mgrwt>
</event>
<event>
12    3  0.4806716E-008  0.2614528E+04  0.7818608E-02  0.8363283E-01
          1   -1    0    0  501    0  0.00000000000E+00  0.00000000000E+00  0.14168049470E+04  0.14168049470E+04  0.00000000000E+00 0. -1.
         -1   -1    0    0    0  501 -0.00000000000E+00 -0.00000000000E+00 -0.12061920257E+04  0.12061920257E+04  0.00000000000E+00 0.  1.
         23    2    1    2    0    0 -0.45989754943E+03  0.26101945444E+03 -0.92563033490E+03  0.10699264777E+04  0.91182449775E+02 0.  0.
        254    2    1    2    0    0  0.45989754943E+03 -0.26101945444E+03  0.11362432562E+04  0.15530704951E+04  0.91724713901E+03 0.  0.
         23    2    4    4    0    0  0.18981010474E+03 -0.32586300936E+02  0.11672865148E+04  0.11865104945E+04  0.90330520709E+02 0.  0.
         23    2    4    4    0    0  0.27008744469E+03 -0.22843315350E+03 -0.31043258604E+02  0.36656000066E+03  0.90959423832E+02 0.  0.
          1    1    3    3  502    0 -0.32570198309E+02  0.19377455282E+02 -0.29075751174E+02  0.47767173848E+02  0.00000000000E+00 0. -1.
         -1    1    3    3    0  502 -0.42732735112E+03  0.24164199916E+03 -0.89655458372E+03  0.10221593038E+04  0.00000000000E+00 0.  1.
         13    1    5    5    0    0  0.29769048018E+02 -0.29289859741E+02  0.43130023112E+03  0.43331741422E+03  0.00000000000E+00 0.  1.
        -13    1    5    5    0    0  0.16004105673E+03 -0.32964411957E+01  0.73598628368E+03  0.75319308025E+03  0.00000000000E+00 0. -1.
          1    1    6    6  503    0  0.27109405916E+03 -0.21645767815E+03 -0.43052531843E+02  0.34957035892E+03  0.00000000000E+00 0. -1.
         -1    1    6    6    0  503 -0.10066144713E+01 -0.11975475353E+02  0.12009273239E+02  0.16989641737E+02  0.00000000000E+00 0.  1.
<mgrwt>
<rscale>  0 0.26145277E+04</rscale>
<asrwt>0</asrwt>
<pdfrwt beam="1">  1        1 0.21796999E+00 0.26145277E+04</pdfrwt>
<pdfrwt beam="2">  1       -1 0.18556800E+00 0.26145277E+04</pdfrwt>
<totfact> 0.12490268E+00</totfact>
</mgrwt>
</event>
<event>
12    3  0.4806716E-008  0.1789554E+04  0.7818608E-02  0.8711874E-01
          1   -1    0    0  501    0  0.00000000000E+00  0.00000000000E+00  0.15502361570E+04  0.15502361570E+04  0.00000000000E+00 0. -1.
         -1   -1    0    0    0  501 -0.00000000000E+00 -0.00000000000E+00 -0.51645423810E+03  0.51645423810E+03  0.00000000000E+00 0.  1.
         23    2    1    2    0    0 -0.36908579357E+03 -0.51466806764E+03  0.15754825386E+03  0.65894449460E+03  0.90988195966E+02 0.  0.
        254    2    1    2    0    0  0.36908579357E+03  0.51466806764E+03  0.87623366506E+03  0.14077459005E+04  0.90158501641E+03 0.  0.
         23    2    4    4    0    0  0.91993586734E+01 -0.23845868632E+03  0.13962136066E+03  0.29072382957E+03  0.89883521532E+02 0.  0.
         23    2    4    4    0    0  0.35988643489E+03  0.75312675396E+03  0.73661230439E+03  0.11170220710E+04  0.91773996762E+02 0.  0.
          4    1    3    3  502    0 -0.22143030812E+03 -0.27480774347E+03  0.12933566850E+03  0.37587018021E+03  0.00000000000E+00 0. -1.
         -4    1    3    3    0  502 -0.14765548545E+03 -0.23986032417E+03  0.28212585362E+02  0.28307431439E+03  0.00000000000E+00 0.  1.
         13    1    5    5    0    0 -0.22284633194E+02 -0.21294109767E+03  0.11151086287E+03  0.24140254450E+03  0.00000000000E+00 0. -1.
        -13    1    5    5    0    0  0.31483991867E+02 -0.25517588652E+02  0.28110497795E+02  0.49321285069E+02  0.00000000000E+00 0.  1.
          2    1    6    6  503    0  0.25528488761E+03  0.59648885159E+03  0.53327102499E+03  0.83984957583E+03  0.00000000000E+00 0. -1.
         -2    1    6    6    0  503  0.10460154728E+03  0.15663790236E+03  0.20334127940E+03  0.27717249513E+03  0.00000000000E+00 0.  1.
<mgrwt>
<rscale>  0 0.17895542E+04</rscale>
<asrwt>0</asrwt>
<pdfrwt beam="1">  1        1 0.23849787E+00 0.17895542E+04</pdfrwt>
<pdfrwt beam="2">  1       -1 0.79454499E-01 0.17895542E+04</pdfrwt>
<totfact> 0.90261291E+00</totfact>
</mgrwt>
</event>
<event>
12    3  0.4806716E-008  0.1529508E+04  0.7818608E-02  0.8865064E-01
         -2   -1    0    0    0  501 -0.00000000000E+00  0.00000000000E+00  0.38954269472E+03  0.38954269472E+03  0.00000000000E+00 0.  1.
          2   -1    0    0  501    0  0.00000000000E+00 -0.00000000000E+00 -0.15013728780E+04  0.15013728780E+04  0.00000000000E+00 0. -1.
         23    2    1    2    0    0  0.41804342240E+03 -0.13299737048E+03 -0.61009142822E+03  0.75709178141E+03  0.92346148368E+02 0.  0.
        254    2    1    2    0    0 -0.41804342240E+03  0.13299737048E+03 -0.50173875509E+03  0.11338237913E+04  0.91726005466E+03 0.  0.
         23    2    4    4    0    0 -0.39824207488E+03  0.21698032037E+02 -0.74539946089E+03  0.85038595506E+03  0.92023700558E+02 0.  0.
         23    2    4    4    0    0 -0.19801347513E+02  0.11129933845E+03  0.24366070581E+03  0.28343783627E+03  0.90481110584E+02 0.  0.
          1    1    3    3  502    0  0.39277312726E+03 -0.10956109885E+03 -0.58999702164E+03  0.71719652078E+03  0.00000000000E+00 0. -1.
         -1    1    3    3    0  502  0.25270295143E+02 -0.23436271629E+02 -0.20094406579E+02  0.39895260623E+02  0.00000000000E+00 0.  1.
         13    1    5    5    0    0 -0.35542756298E+03  0.14105179920E+02 -0.58920179885E+03  0.68824884192E+03  0.00000000000E+00 0.  1.
        -13    1    5    5    0    0 -0.42814511907E+02  0.75928521169E+01 -0.15619766204E+03  0.16213711315E+03  0.00000000000E+00 0. -1.
          4    1    6    6  503    0  0.93256274365E+01  0.99337934344E+02  0.12115724515E+03  0.15695244687E+03  0.00000000000E+00 0. -1.
         -4    1    6    6    0  503 -0.29126974950E+02  0.11961404101E+02  0.12250346066E+03  0.12648538940E+03  0.00000000000E+00 0.  1.
<mgrwt>
<rscale>  0 0.15295082E+04</rscale>
<asrwt>0</asrwt>
<pdfrwt beam="1">  1        2 0.23098045E+00 0.15295082E+04</pdfrwt>
<pdfrwt beam="2">  1       -2 0.59929645E-01 0.15295082E+04</pdfrwt>
<totfact> 0.31712404E+01</totfact>
</mgrwt>
</event>
<event>
12    3  0.5436819E-008  0.2297533E+04  0.7818608E-02  0.8478895E-01
          1   -1    0    0  501    0  0.00000000000E+00  0.00000000000E+00  0.14681563924E+04  0.14681563924E+04  0.00000000000E+00 0. -1.
         -1   -1    0    0    0  501 -0.00000000000E+00 -0.00000000000E+00 -0.89885791993E+03  0.89885791993E+03  0.00000000000E+00 0.  1.
         23    2    1    2    0    0 -0.33481646397E+03 -0.11254954068E+03 -0.68977872119E+03  0.78033666383E+03  0.91439384577E+02 0.  0.
        254    2    1    2    0    0  0.33481646397E+03  0.11254954068E+03  0.12590771937E+04  0.15866776485E+04  0.89861065928E+03 0.  0.
         23    2    4    4    0    0  0.50587577870E+03  0.27369750836E+03  0.11904597831E+04  0.13252590261E+04  0.91084365699E+02 0.  0.
         23    2    4    4    0    0 -0.17105931473E+03 -0.16114796768E+03  0.68617410590E+02  0.26141862236E+03  0.91659099066E+02 0.  0.
          4    1    3    3  502    0 -0.30048220742E+02  0.15459946710E+02 -0.76866012513E+02  0.83966001463E+02  0.00000000000E+00 0. -1.
         -4    1    3    3    0  502 -0.30476824323E+03 -0.12800948739E+03 -0.61291270868E+03  0.69637066237E+03  0.00000000000E+00 0.  1.
         13    1    5    5    0    0  0.40167814281E+03  0.22223852773E+03  0.10246040555E+04  0.11227416284E+04  0.00000000000E+00 0. -1.
        -13    1    5    5    0    0  0.10419763589E+03  0.51458980622E+02  0.16585572759E+03  0.20251739774E+03  0.00000000000E+00 0.  1.
          1    1    6    6  503    0 -0.80498638185E+02 -0.10213190049E+03 -0.58233380689E+01  0.13017245144E+03  0.00000000000E+00 0. -1.
         -1    1    6    6    0  503 -0.90560676540E+02 -0.59016067190E+02  0.74440748659E+02  0.13124617093E+03  0.00000000000E+00 0.  1.
<mgrwt>
<rscale>  0 0.22975326E+04</rscale>
<asrwt>0</asrwt>
<pdfrwt beam="1">  1        1 0.22587021E+00 0.22975326E+04</pdfrwt>
<pdfrwt beam="2">  1       -1 0.13828583E+00 0.22975326E+04</pdfrwt>
<totfact> 0.26940500E+00</totfact>
</mgrwt>
</event>
<event>
12    3  0.4806716E-008  0.1223236E+04  0.7818608E-02  0.9092758E-01
          2   -1    0    0  501    0  0.00000000000E+00  0.00000000000E+00  0.73778829395E+03  0.73778829395E+03  0.00000000000E+00 0. -1.
         -2   -1    0    0    0  501 -0.00000000000E+00 -0.00000000000E+00 -0.50702386612E+03  0.50702386612E+03  0.00000000000E+00 0.  1.
         23    2    1    2    0    0 -0.12892826850E+03  0.21272544246E+03 -0.61578204047E+02  0.26841813239E+03  0.79886208406E+02 0.  0.
        254    2    1    2    0    0  0.12892826850E+03 -0.21272544246E+03  0.29234263188E+03  0.97639402768E+03  0.89777863117E+03 0.  0.
         23    2    4    4    0    0  0.35899354808E+03 -0.44294843863E+03  0.92242895664E+02  0.58466248878E+03  0.90784289029E+02 0.  0.
         23    2    4    4    0    0 -0.23006527958E+03  0.23022299617E+03  0.20009973622E+03  0.39173153890E+03  0.86492966779E+02 0.  0.
          2    1    3    3  502    0 -0.12300201864E+03  0.21177651327E+03 -0.72967194253E+02  0.25554451588E+03  0.00000000000E+00 0.  1.
         -2    1    3    3    0  502 -0.59262498589E+01  0.94892919260E+00  0.11388990206E+02  0.12873616505E+02  0.00000000000E+00 0. -1.
         13    1    5    5    0    0  0.74899132997E+02 -0.71654838396E+02 -0.15734201215E+02  0.10484207685E+03  0.00000000000E+00 0. -1.
        -13    1    5    5    0    0  0.28409441508E+03 -0.37129360024E+03  0.10797709688E+03  0.47982041193E+03  0.00000000000E+00 0.  1.
          2    1    6    6  503    0 -0.16484155445E+03  0.17921400470E+03  0.18889659863E+03  0.30817579809E+03  0.00000000000E+00 0. -1.
         -2    1    6    6    0  503 -0.65223725131E+02  0.51008991469E+02  0.11203137586E+02  0.83555740811E+02  0.00000000000E+00 0.  1.
<mgrwt>
<rscale>  0 0.12232355E+04</rscale>
<asrwt>0</asrwt>
<pdfrwt beam="1">  1        2 0.11350589E+00 0.12232355E+04</pdfrwt>
<pdfrwt beam="2">  1       -2 0.78003672E-01 0.12232355E+04</pdfrwt>
<totfact> 0.55241728E+01</totfact>
</mgrwt>
</event>
<event>
12    3  0.4806716E-008  0.4086632E+04  0.7818608E-02  0.7987295E-01
          1   -1    0    0  501    0  0.00000000000E+00  0.00000000000E+00  0.29529532210E+04  0.29529532210E+04  0.00000000000E+00 0. -1.
         -1   -1    0    0    0  501 -0.00000000000E+00 -0.00000000000E+00 -0.14138862281E+04  0.14138862281E+04  0.00000000000E+00 0.  1.
         23    2    1    2    0    0  0.43824990040E+03 -0.16615529531E+04  0.17084010551E+04  0.24247313514E+04  0.88694815814E+02 0.  0.
        254    2    1    2    0    0 -0.43824990040E+03  0.16615529531E+04 -0.16933406218E+03  0.19421080976E+04  0.88898180346E+03 0.  0.
         23    2    4    4    0    0 -0.50391409451E+03  0.55218188093E+03  0.17776024729E+03  0.77363552884E+03  0.89883155809E+02 0.  0.
         23    2    4    4    0    0  0.65664194112E+02  0.11093710722E+04 -0.34709430948E+03  0.11684725687E+04  0.99185291458E+02 0.  0.
          4    1    3    3  502    0  0.30395888873E+03 -0.11244411846E+04  0.10996613717E+04  0.16018783088E+04  0.00000000000E+00 0. -1.
         -4    1    3    3    0  502  0.13429101166E+03 -0.53711176849E+03  0.60873968338E+03  0.82285304264E+03  0.00000000000E+00 0.  1.
         13    1    5    5    0    0 -0.10303068491E+03  0.17103434879E+03  0.41293482994E+02  0.20389512558E+03  0.00000000000E+00 0. -1.
        -13    1    5    5    0    0 -0.40088340960E+03  0.38114753214E+03  0.13646676430E+03  0.56974040326E+03  0.00000000000E+00 0.  1.
          3    1    6    6  503    0  0.78785607370E+02  0.72165523913E+03 -0.25807793779E+03  0.77045290451E+03  0.00000000000E+00 0.  1.
         -3    1    6    6    0  503 -0.13121413258E+02  0.38771583307E+03 -0.89016371686E+02  0.39801966424E+03  0.00000000000E+00 0. -1.
<mgrwt>
<rscale>  0 0.40866318E+04</rscale>
<asrwt>0</asrwt>
<pdfrwt beam="1">  1        1 0.45430049E+00 0.40866318E+04</pdfrwt>
<pdfrwt beam="2">  1       -1 0.21752096E+00 0.40866318E+04</pdfrwt>
<totfact> 0.57456535E-02</totfact>
</mgrwt>
</event>
<event>
12    3  0.4806716E-008  0.1501100E+04  0.7818608E-02  0.8883722E-01
          2   -1    0    0  501    0  0.00000000000E+00  0.00000000000E+00  0.11949767867E+04  0.11949767867E+04  0.00000000000E+00 0. -1.
         -2   -1    0    0    0  501 -0.00000000000E+00 -0.00000000000E+00 -0.47141103368E+03  0.47141103368E+03  0.00000000000E+00 0.  1.
         23    2    1    2    0    0 -0.14102483498E+03  0.27924207399E+03  0.66541755651E+03  0.74103420453E+03  0.92125066090E+02 0.  0.
        254    2    1    2    0    0  0.14102483498E+03 -0.27924207399E+03  0.58148196488E+02  0.92535361583E+03  0.86892690234E+03 0.  0.
         23    2    4    4    0    0 -0.48088710159E+01 -0.51130571352E+03 -0.18131232803E+03  0.55020694848E+03  0.91634425558E+02 0.  0.
         23    2    4    4    0    0  0.14583370599E+03  0.23206363953E+03  0.23946052452E+03  0.37514666734E+03  0.90954255652E+02 0.  0.
          3    1    3    3  502    0 -0.21837328152E+02  0.43164843243E+02  0.19962890868E+03  0.20540636255E+03  0.00000000000E+00 0. -1.
         -3    1    3    3    0  502 -0.11918750682E+03  0.23607723074E+03  0.46578864783E+03  0.53562784198E+03  0.00000000000E+00 0.  1.
         13    1    5    5    0    0 -0.20044679136E+02 -0.14756334540E+03 -0.93050841788E+02  0.17559951373E+03  0.00000000000E+00 0.  1.
        -13    1    5    5    0    0  0.15235808120E+02 -0.36374236812E+03 -0.88261486240E+02  0.37460743475E+03  0.00000000000E+00 0. -1.
          3    1    6    6  503    0  0.10095839957E+03  0.21753653626E+03  0.18358091698E+03  0.30202101935E+03  0.00000000000E+00 0.  1.
         -3    1    6    6    0  503  0.44875306423E+02  0.14527103276E+02  0.55879607536E+02  0.73125647994E+02  0.00000000000E+00 0. -1.
<mgrwt>
<rscale>  0 0.15010999E+04</rscale>
<asrwt>0</asrwt>
<pdfrwt beam="1">  1        2 0.18384258E+00 0.15010999E+04</pdfrwt>
<pdfrwt beam="2">  1       -2 0.72524775E-01 0.15010999E+04</pdfrwt>
<totfact> 0.31693149E+01</totfact>
</mgrwt>
</event>
<event>
12    3  0.4806716E-008  0.2295857E+04  0.7818608E-02  0.8479557E-01
         -1   -1    0    0    0  501 -0.00000000000E+00  0.00000000000E+00  0.10417736909E+04  0.10417736909E+04  0.00000000000E+00 0.  1.
          1   -1    0    0  501    0  0.00000000000E+00 -0.00000000000E+00 -0.12648998141E+04  0.12648998141E+04  0.00000000000E+00 0. -1.
         23    2    1    2    0    0  0.69344288687E+03  0.42777545378E+03 -0.62181044704E+03  0.10289445021E+04  0.90684509238E+02 0.  0.
        254    2    1    2    0    0 -0.69344288687E+03 -0.42777545378E+03  0.39868432378E+03  0.12777290029E+04  0.89988184700E+03 0.  0.
         23    2    4    4    0    0 -0.53198116582E+03  0.17360203364E+03  0.79740274554E+02  0.57265059394E+03  0.91807213691E+02 0.  0.
         23    2    4    4    0    0 -0.16146172104E+03 -0.60137748742E+03  0.31894404923E+03  0.70507840893E+03  0.87666906338E+02 0.  0.
          4    1    3    3  502    0  0.51737114947E+03  0.33776213066E+03 -0.51404360109E+03  0.80373937755E+03  0.00000000000E+00 0. -1.
         -4    1    3    3    0  502  0.17607173740E+03  0.90013323127E+02 -0.10776684595E+03  0.22520512458E+03  0.00000000000E+00 0.  1.
         13    1    5    5    0    0 -0.32568391399E+03  0.12051055204E+03  0.92108096375E+02  0.35927246820E+03  0.00000000000E+00 0.  1.
        -13    1    5    5    0    0 -0.20629725183E+03  0.53091481595E+02 -0.12367821821E+02  0.21337812574E+03  0.00000000000E+00 0. -1.
          2    1    6    6  503    0 -0.20965977793E+02 -0.38932795094E+02  0.47671172215E+02  0.65022114845E+02  0.00000000000E+00 0. -1.
         -2    1    6    6    0  503 -0.14049574325E+03 -0.56244469233E+03  0.27127287701E+03  0.64005629409E+03  0.00000000000E+00 0.  1.
<mgrwt>
<rscale>  0 0.22958566E+04</rscale>
<asrwt>0</asrwt>
<pdfrwt beam="1">  1        1 0.19459997E+00 0.22958566E+04</pdfrwt>
<pdfrwt beam="2">  1       -1 0.16027288E+00 0.22958566E+04</pdfrwt>
<totfact> 0.25212980E+00</totfact>
</mgrwt>
</event>
<event>
12    3  0.4806716E-008  0.1862211E+04  0.7818608E-02  0.8673898E-01
          1   -1    0    0  501    0  0.00000000000E+00  0.00000000000E+00  0.19303678825E+04  0.19303678825E+04  0.00000000000E+00 0. -1.
         -1   -1    0    0    0  501 -0.00000000000E+00 -0.00000000000E+00 -0.44911518114E+03  0.44911518114E+03  0.00000000000E+00 0.  1.
         23    2    1    2    0    0 -0.47215017624E+03  0.36256678491E+03  0.76159025902E+02  0.60679470464E+03  0.89549728682E+02 0.  0.
        254    2    1    2    0    0  0.47215017624E+03 -0.36256678491E+03  0.14050936754E+04  0.17726883590E+04  0.90208387572E+03 0.  0.
         23    2    4    4    0    0  0.70604902459E+03 -0.13047763745E+03  0.80851676523E+03  0.10851642716E+04  0.91392000175E+02 0.  0.
         23    2    4    4    0    0 -0.23389884834E+03 -0.23208914747E+03  0.59657691018E+03  0.68752408736E+03  0.90616319184E+02 0.  0.
          4    1    3    3  502    0 -0.11907888524E+02  0.51428771925E+00 -0.91583376872E+01  0.15031215857E+02  0.00000000000E+00 0. -1.
         -4    1    3    3    0  502 -0.46024228772E+03  0.36205249719E+03  0.85317363589E+02  0.59176348878E+03  0.00000000000E+00 0.  1.
         13    1    5    5    0    0  0.64314623704E+03 -0.10453317498E+03  0.69390610989E+03  0.95187706992E+03  0.00000000000E+00 0.  1.
        -13    1    5    5    0    0  0.62902787542E+02 -0.25944462469E+02  0.11461065534E+03  0.13328720167E+03  0.00000000000E+00 0. -1.
          1    1    6    6  503    0 -0.10616034233E+03 -0.13392620315E+03  0.38805418579E+03  0.42401921806E+03  0.00000000000E+00 0. -1.
         -1    1    6    6    0  503 -0.12773850601E+03 -0.98162944314E+02  0.20852272439E+03  0.26350486929E+03  0.00000000000E+00 0.  1.
<mgrwt>
<rscale>  0 0.18622111E+04</rscale>
<asrwt>0</asrwt>
<pdfrwt beam="1">  1        1 0.29697967E+00 0.18622111E+04</pdfrwt>
<pdfrwt beam="2">  1       -1 0.69094644E-01 0.18622111E+04</pdfrwt>
<totfact> 0.66088236E+00</totfact>
</mgrwt>
</event>
<event>
12    3  0.4806716E-008  0.1445326E+04  0.7818608E-02  0.8921648E-01
          1   -1    0    0  501    0  0.00000000000E+00  0.00000000000E+00  0.44858196224E+03  0.44858196224E+03  0.00000000000E+00 0. -1.
         -1   -1    0    0    0  501 -0.00000000000E+00 -0.00000000000E+00 -0.11642052075E+04  0.11642052075E+04  0.00000000000E+00 0.  1.
         23    2    1    2    0    0 -0.20190935116E+03  0.37785184957E+03 -0.54763336972E+02  0.44164520067E+03  0.92260792824E+02 0.  0.
        254    2    1    2    0    0  0.20190935116E+03 -0.37785184957E+03 -0.66085990832E+03  0.11711419691E+04  0.86677464606E+03 0.  0.
         23    2    4    4    0    0  0.42907250951E+03 -0.41100881623E+03 -0.17580812667E+03  0.62666986904E+03  0.93675834236E+02 0.  0.
         23    2    4    4    0    0 -0.22716315835E+03  0.33156966667E+02 -0.48505178165E+03  0.54447210006E+03  0.92044293209E+02 0.  0.
          2    1    3    3  502    0 -0.18357148501E+02  0.10874929961E+03  0.52882100970E+01  0.11041449285E+03  0.00000000000E+00 0. -1.
         -2    1    3    3    0  502 -0.18355220266E+03  0.26910254996E+03 -0.60051547069E+02  0.33123070782E+03  0.00000000000E+00 0.  1.
         13    1    5    5    0    0  0.12564387473E+03 -0.65614136853E+02 -0.39699511648E+02  0.14719935271E+03  0.00000000000E+00 0. -1.
        -13    1    5    5    0    0  0.30342863478E+03 -0.34539467938E+03 -0.13610861503E+03  0.47947051633E+03  0.00000000000E+00 0.  1.
          3    1    6    6  503    0 -0.37723723550E+02 -0.26785288221E+02 -0.12411627252E+03  0.13245897511E+03  0.00000000000E+00 0. -1.
         -3    1    6    6    0  503 -0.18943943480E+03  0.59942254888E+02 -0.36093550913E+03  0.41201312495E+03  0.00000000000E+00 0.  1.
<mgrwt>
<rscale>  0 0.14453255E+04</rscale>
<asrwt>0</asrwt>
<pdfrwt beam="1">  1        1 0.69012610E-01 0.14453255E+04</pdfrwt>
<pdfrwt beam="2">  1       -1 0.17910849E+00 0.14453255E+04</pdfrwt>
<totfact> 0.10551169E+01</totfact>
</mgrwt>
</event>
<event>
12    3  0.4806716E-008  0.1425122E+04  0.7818608E-02  0.8935832E-01
          2   -1    0    0  501    0  0.00000000000E+00  0.00000000000E+00  0.35844937853E+03  0.35844937853E+03  0.00000000000E+00 0. -1.
         -2   -1    0    0    0  501 -0.00000000000E+00 -0.00000000000E+00 -0.14164984990E+04  0.14164984990E+04  0.00000000000E+00 0.  1.
         23    2    1    2    0    0  0.19350440516E+01  0.62344110837E+02  0.20012560425E+03  0.22882472659E+03  0.91760369815E+02 0.  0.
        254    2    1    2    0    0 -0.19350440516E+01 -0.62344110837E+02 -0.12581747247E+04  0.15461231509E+04  0.89643885871E+03 0.  0.
         23    2    4    4    0    0 -0.96945734042E+02 -0.55999989963E+02  0.10412467339E+03  0.17745041234E+03  0.90067902203E+02 0.  0.
         23    2    4    4    0    0  0.95010689991E+02 -0.63441208741E+01 -0.13622993981E+04  0.13686727386E+04  0.91313395735E+02 0.  0.
          4    1    3    3  502    0  0.51769600931E+01  0.79006768164E+02  0.10139821333E+03  0.12864862222E+03  0.00000000000E+00 0. -1.
         -4    1    3    3    0  502 -0.32419160415E+01 -0.16662657326E+02  0.98727390919E+02  0.10017610437E+03  0.00000000000E+00 0.  1.
         13    1    5    5    0    0 -0.87695793254E+02 -0.73215236965E+02  0.59661262259E+02  0.12888168719E+03  0.00000000000E+00 0.  1.
        -13    1    5    5    0    0 -0.92499407885E+01  0.17215247001E+02  0.44463411126E+02  0.48568725152E+02  0.00000000000E+00 0. -1.
          1    1    6    6  503    0  0.33036635439E+02 -0.22444049319E+02 -0.99730336575E+03  0.99810277926E+03  0.00000000000E+00 0. -1.
         -1    1    6    6    0  503  0.61974054551E+02  0.16099928445E+02 -0.36499603233E+03  0.37056995932E+03  0.00000000000E+00 0.  1.
<mgrwt>
<rscale>  0 0.14251218E+04</rscale>
<asrwt>0</asrwt>
<pdfrwt beam="1">  1        2 0.55146058E-01 0.14251218E+04</pdfrwt>
<pdfrwt beam="2">  1       -2 0.21792285E+00 0.14251218E+04</pdfrwt>
<totfact> 0.89008722E+00</totfact>
</mgrwt>
</event>
<event>
12    3  0.4806716E-008  0.1909126E+04  0.7818608E-02  0.8650327E-01
          2   -1    0    0  501    0  0.00000000000E+00  0.00000000000E+00  0.21509617213E+04  0.21509617213E+04  0.00000000000E+00 0. -1.
         -2   -1    0    0    0  501 -0.00000000000E+00 -0.00000000000E+00 -0.42362009854E+03  0.42362009854E+03  0.00000000000E+00 0.  1.
         23    2    1    2    0    0 -0.62721823855E+03 -0.15420035981E+03  0.11693188131E+04  0.13389126981E+04  0.90555268963E+02 0.  0.
        254    2    1    2    0    0  0.62721823855E+03  0.15420035981E+03  0.55802280960E+03  0.12356691217E+04  0.89348097489E+03 0.  0.
         23    2    4    4    0    0 -0.71917818526E+02  0.31508202072E+03  0.25938845074E+02  0.33671135204E+03  0.90845244823E+02 0.  0.
         23    2    4    4    0    0  0.69913605708E+03 -0.16088166091E+03  0.53208396452E+03  0.89895776963E+03  0.10167394534E+03 0.  0.
          1    1    3    3  502    0 -0.41078947586E+03 -0.56474834968E+02  0.75414228311E+03  0.86062069673E+03  0.00000000000E+00 0. -1.
         -1    1    3    3    0  502 -0.21642876269E+03 -0.97725524844E+02  0.41517653003E+03  0.47829200141E+03  0.00000000000E+00 0.  1.
         13    1    5    5    0    0 -0.29520788567E+02  0.24885761773E+03 -0.87761261928E+01  0.25075607919E+03  0.00000000000E+00 0. -1.
        -13    1    5    5    0    0 -0.42397029960E+02  0.66224402988E+02  0.34714971267E+02  0.85955272849E+02  0.00000000000E+00 0.  1.
          3    1    6    6  503    0  0.67176261433E+03 -0.13303888283E+03  0.49381154632E+03  0.84428324491E+03  0.00000000000E+00 0. -1.
         -3    1    6    6    0  503  0.27373442744E+02 -0.27842778072E+02  0.38272418200E+02  0.54674524719E+02  0.00000000000E+00 0.  1.
<mgrwt>
<rscale>  0 0.19091261E+04</rscale>
<asrwt>0</asrwt>
<pdfrwt beam="1">  1        2 0.33091718E+00 0.19091261E+04</pdfrwt>
<pdfrwt beam="2">  1       -2 0.65172324E-01 0.19091261E+04</pdfrwt>
<totfact> 0.11178492E+01</totfact>
</mgrwt>
</event>
<event>
12    3  0.4806716E-008  0.1795452E+04  0.7818608E-02  0.8708722E-01
          2   -1    0    0  501    0  0.00000000000E+00  0.00000000000E+00  0.67356639544E+03  0.67356639544E+03  0.00000000000E+00 0. -1.
         -2   -1    0    0    0  501 -0.00000000000E+00 -0.00000000000E+00 -0.11964853647E+04  0.11964853647E+04  0.00000000000E+00 0.  1.
         23    2    1    2    0    0 -0.21920829975E+03 -0.61311212989E+03 -0.65951281269E+02  0.66138573075E+03  0.95513092511E+02 0.  0.
        254    2    1    2    0    0  0.21920829975E+03  0.61311212989E+03 -0.45696768802E+03  0.12086660294E+04  0.90999743971E+03 0.  0.
         23    2    4    4    0    0 -0.14116823929E+03 -0.23221339832E+02 -0.43980261359E+03  0.47154809611E+03  0.91997639189E+02 0.  0.
         23    2    4    4    0    0  0.36037653904E+03  0.63633346972E+03 -0.17165074427E+02  0.73711793331E+03  0.90866238221E+02 0.  0.
          3    1    3    3  502    0 -0.17798025073E+03 -0.42790380812E+03 -0.99367797781E+01  0.46354867948E+03  0.00000000000E+00 0. -1.
         -3    1    3    3    0  502 -0.41228049022E+02 -0.18520832177E+03 -0.56014501491E+02  0.19783705127E+03  0.00000000000E+00 0.  1.
         13    1    5    5    0    0 -0.13792257526E+03 -0.33163961656E+02 -0.43866092520E+03  0.46102699749E+03  0.00000000000E+00 0. -1.
        -13    1    5    5    0    0 -0.32456640289E+01  0.99426218247E+01 -0.11416883900E+01  0.10521098617E+02  0.00000000000E+00 0.  1.
          2    1    6    6  503    0  0.31261172258E+03  0.60095458570E+03 -0.18672178413E+02  0.67765858174E+03  0.00000000000E+00 0. -1.
         -2    1    6    6    0  503  0.47764816457E+02  0.35378884023E+02  0.15071039866E+01  0.59459351563E+02  0.00000000000E+00 0.  1.
<mgrwt>
<rscale>  0 0.17954524E+04</rscale>
<asrwt>0</asrwt>
<pdfrwt beam="1">  1        2 0.10362560E+00 0.17954524E+04</pdfrwt>
<pdfrwt beam="2">  1       -2 0.18407467E+00 0.17954524E+04</pdfrwt>
<totfact> 0.69001969E+00</totfact>
</mgrwt>
</event>
<event>
12    3  0.4806716E-008  0.1828453E+04  0.7818608E-02  0.8691313E-01
          1   -1    0    0  501    0  0.00000000000E+00  0.00000000000E+00  0.92381287164E+03  0.92381287164E+03  0.00000000000E+00 0. -1.
         -1   -1    0    0    0  501 -0.00000000000E+00 -0.00000000000E+00 -0.90473962355E+03  0.90473962355E+03  0.00000000000E+00 0.  1.
         23    2    1    2    0    0 -0.64307819707E+03  0.20199242068E+03 -0.13986275531E+03  0.69440103248E+03  0.90998340811E+02 0.  0.
        254    2    1    2    0    0  0.64307819707E+03 -0.20199242068E+03  0.15893600340E+03  0.11341514627E+04  0.89815832771E+03 0.  0.
         23    2    4    4    0    0  0.14823372137E+03  0.31461606789E+02  0.46690018580E+03  0.49911637892E+03  0.90323348834E+02 0.  0.
         23    2    4    4    0    0  0.49484447570E+03 -0.23345402747E+03 -0.30796418241E+03  0.63503508380E+03  0.95161872281E+02 0.  0.
          3    1    3    3  502    0 -0.23534679259E+03  0.11738679416E+03 -0.38237362375E+02  0.26576280422E+03  0.00000000000E+00 0. -1.
         -3    1    3    3    0  502 -0.40773140448E+03  0.84605626518E+02 -0.10162539293E+03  0.42863822826E+03  0.00000000000E+00 0.  1.
         13    1    5    5    0    0  0.10309788795E+03  0.43957533511E+01  0.18045190740E+03  0.20787349045E+03  0.00000000000E+00 0. -1.
        -13    1    5    5    0    0  0.45135833418E+02  0.27065853438E+02  0.28644827840E+03  0.29124288847E+03  0.00000000000E+00 0.  1.
          1    1    6    6  503    0  0.28337667576E+03 -0.94538394511E+02 -0.20263653080E+03  0.36097286881E+03  0.00000000000E+00 0. -1.
         -1    1    6    6    0  503  0.21146779994E+03 -0.13891563296E+03 -0.10532765161E+03  0.27406221499E+03  0.00000000000E+00 0.  1.
<mgrwt>
<rscale>  0 0.18284530E+04</rscale>
<asrwt>0</asrwt>
<pdfrwt beam="1">  1        1 0.14212506E+00 0.18284530E+04</pdfrwt>
<pdfrwt beam="2">  1       -1 0.13919071E+00 0.18284530E+04</pdfrwt>
<totfact> 0.69712730E+00</totfact>
</mgrwt>
</event>
<event>
12    3  0.4806716E-008  0.1328636E+04  0.7818608E-02  0.9007159E-01
         -3   -1    0    0    0  501 -0.00000000000E+00  0.00000000000E+00  0.38327848307E+04  0.38327848307E+04  0.00000000000E+00 0.  1.
          3   -1    0    0  501    0  0.00000000000E+00 -0.00000000000E+00 -0.11514309847E+03  0.11514309847E+03  0.00000000000E+00 0. -1.
         23    2    1    2    0    0  0.54574259610E+02  0.23115810111E+03  0.17410386841E+04  0.17603167332E+04  0.10529427484E+03 0.  0.
        254    2    1    2    0    0 -0.54574259610E+02 -0.23115810111E+03  0.19766030482E+04  0.21876111960E+04  0.90679144080E+03 0.  0.
         23    2    4    4    0    0  0.29026656967E+03 -0.42204695564E+03  0.12870761036E+04  0.13881682893E+04  0.89821983497E+02 0.  0.
         23    2    4    4    0    0 -0.34484082928E+03  0.19088885453E+03  0.68952694463E+03  0.79944290671E+03  0.91147141487E+02 0.  0.
          1    1    3    3  502    0  0.26207736323E+02  0.12010499799E+03  0.53973885432E+03  0.55356127650E+03  0.00000000000E+00 0. -1.
         -1    1    3    3    0  502  0.28366523287E+02  0.11105310313E+03  0.12012998298E+04  0.12067554567E+04  0.00000000000E+00 0.  1.
         13    1    5    5    0    0  0.25324789905E+03 -0.40600904727E+03  0.12097463995E+04  0.13009474224E+04  0.00000000000E+00 0. -1.
        -13    1    5    5    0    0  0.37018670625E+02 -0.16037908365E+02  0.77329704063E+02  0.87220866827E+02  0.00000000000E+00 0.  1.
          2    1    6    6  503    0 -0.28517562109E+03  0.16863601696E+03  0.50264434370E+03  0.60200878510E+03  0.00000000000E+00 0. -1.
         -2    1    6    6    0  503 -0.59665208193E+02  0.22252837564E+02  0.18688260092E+03  0.19743412161E+03  0.00000000000E+00 0.  1.
<mgrwt>
<rscale>  0 0.13286365E+04</rscale>
<asrwt>0</asrwt>
<pdfrwt beam="1">  1        3 0.17714326E-01 0.13286365E+04</pdfrwt>
<pdfrwt beam="2">  1       -3 0.58965911E+00 0.13286365E+04</pdfrwt>
<totfact> 0.77534111E-02</totfact>
</mgrwt>
</event>
<event>
12    3  0.4806716E-008  0.2828053E+04  0.7818608E-02  0.8294612E-01
          1   -1    0    0  501    0  0.00000000000E+00  0.00000000000E+00  0.15193189349E+04  0.15193189349E+04  0.00000000000E+00 0. -1.
         -1   -1    0    0    0  501 -0.00000000000E+00 -0.00000000000E+00 -0.13160309483E+04  0.13160309483E+04  0.00000000000E+00 0.  1.
         23    2    1    2    0    0 -0.59120973090E+03  0.82822519535E+03 -0.67255649079E+03  0.12230365193E+04  0.89443692815E+02 0.  0.
        254    2    1    2    0    0  0.59120973090E+03 -0.82822519535E+03  0.87584447734E+03  0.16123133639E+04  0.89272891452E+03 0.  0.
         23    2    4    4    0    0  0.54530226433E+03 -0.97612940905E+03  0.88974807511E+03  0.14317069762E+04  0.89163029541E+02 0.  0.
         23    2    4    4    0    0  0.45907466573E+02  0.14790421370E+03 -0.13903597774E+02  0.18060638771E+03  0.91881474372E+02 0.  0.
          3    1    3    3  502    0 -0.14530165625E+03  0.14669567335E+03 -0.15300413767E+03  0.25698727212E+03  0.00000000000E+00 0. -1.
         -3    1    3    3    0  502 -0.44590807466E+03  0.68152952200E+03 -0.51955235312E+03  0.96604924721E+03  0.00000000000E+00 0.  1.
         13    1    5    5    0    0  0.19828476983E+03 -0.36590466727E+03  0.38646775611E+03  0.56794401308E+03  0.00000000000E+00 0.  1.
        -13    1    5    5    0    0  0.34701749450E+03 -0.61022474178E+03  0.50328031900E+03  0.86376296312E+03  0.00000000000E+00 0. -1.
          4    1    6    6  503    0  0.36221244861E+02  0.56436648818E+02 -0.48045576968E+02  0.82495159708E+02  0.00000000000E+00 0.  1.
         -4    1    6    6    0  503  0.96862217113E+01  0.91467564881E+02  0.34141979194E+02  0.98111227999E+02  0.00000000000E+00 0. -1.
<mgrwt>
<rscale>  0 0.28280529E+04</rscale>
<asrwt>0</asrwt>
<pdfrwt beam="1">  1        1 0.23374138E+00 0.28280529E+04</pdfrwt>
<pdfrwt beam="2">  1       -1 0.20246630E+00 0.28280529E+04</pdfrwt>
<totfact> 0.79289259E-01</totfact>
</mgrwt>
</event>
<event>
12    3  0.4806716E-008  0.1179173E+04  0.7818608E-02  0.9131285E-01
         -2   -1    0    0    0  501 -0.00000000000E+00  0.00000000000E+00  0.37177863088E+03  0.37177863088E+03  0.00000000000E+00 0. -1.
          2   -1    0    0  501    0  0.00000000000E+00 -0.00000000000E+00 -0.93499713197E+03  0.93499713197E+03  0.00000000000E+00 0.  1.
         23    2    1    2    0    0 -0.15291488906E+03  0.79235612955E+02  0.82669344550E+02  0.21191276461E+03  0.91714522397E+02 0.  0.
        254    2    1    2    0    0  0.15291488906E+03 -0.79235612955E+02 -0.64588784563E+03  0.10948629982E+04  0.86711742580E+03 0.  0.
         23    2    4    4    0    0 -0.17616824859E+03  0.99417602150E+02 -0.67073810367E+03  0.70659941538E+03  0.92054433199E+02 0.  0.
         23    2    4    4    0    0  0.32908313765E+03 -0.17865321510E+03  0.24850258037E+02  0.38826358286E+03  0.99591122587E+02 0.  0.
          4    1    3    3  502    0 -0.14550206289E+03  0.83587688439E+02  0.98009315840E+02  0.19432853099E+03  0.00000000000E+00 0. -1.
         -4    1    3    3    0  502 -0.74128261679E+01 -0.43520754841E+01 -0.15339971290E+02  0.17584233619E+02  0.00000000000E+00 0.  1.
         13    1    5    5    0    0 -0.81408464406E+02  0.96795694663E+02 -0.35030982241E+03  0.37244290335E+03  0.00000000000E+00 0.  1.
        -13    1    5    5    0    0 -0.94759784188E+02  0.26219074873E+01 -0.32042828127E+03  0.33415651203E+03  0.00000000000E+00 0. -1.
          3    1    6    6  503    0  0.12515400732E+02 -0.36353642654E+02 -0.91532965755E+01  0.39522214360E+02  0.00000000000E+00 0. -1.
         -3    1    6    6    0  503  0.31656773692E+03 -0.14229957245E+03  0.34003554613E+02  0.34874136850E+03  0.00000000000E+00 0.  1.
<mgrwt>
<rscale>  0 0.11791725E+04</rscale>
<asrwt>0</asrwt>
<pdfrwt beam="1">  1        2 0.14384571E+00 0.11791725E+04</pdfrwt>
<pdfrwt beam="2">  1       -2 0.57196713E-01 0.11791725E+04</pdfrwt>
<totfact> 0.78633435E+01</totfact>
</mgrwt>
</event>
<event>
12    3  0.4806716E-008  0.1701311E+04  0.7818608E-02  0.8760617E-01
         -1   -1    0    0    0  501 -0.00000000000E+00  0.00000000000E+00  0.44360539864E+03  0.44360539864E+03  0.00000000000E+00 0.  1.
          1   -1    0    0  501    0  0.00000000000E+00 -0.00000000000E+00 -0.16312132649E+04  0.16312132649E+04  0.00000000000E+00 0. -1.
         23    2    1    2    0    0  0.53154127300E+03  0.26479283676E+03 -0.66104566207E+03  0.89325206248E+03  0.90920341430E+02 0.  0.
        254    2    1    2    0    0 -0.53154127300E+03 -0.26479283676E+03 -0.52656220424E+03  0.11815666011E+04  0.87531737479E+03 0.  0.
         23    2    4    4    0    0  0.76888878414E+02  0.10064404006E+03  0.13559263238E+03  0.20692114147E+03  0.91596257601E+02 0.  0.
         23    2    4    4    0    0 -0.60843015141E+03 -0.36543687683E+03 -0.66215483662E+03  0.97464545964E+03  0.88053303414E+02 0.  0.
          1    1    3    3  502    0  0.19897905500E+03  0.13023529192E+03 -0.21280153000E+03  0.31912127281E+03  0.00000000000E+00 0. -1.
         -1    1    3    3    0  502  0.33256221800E+03  0.13455754485E+03 -0.44824413207E+03  0.57413078967E+03  0.00000000000E+00 0.  1.
         13    1    5    5    0    0  0.25251443313E+02 -0.10713440052E+01  0.72029707903E+02  0.76335194950E+02  0.00000000000E+00 0. -1.
        -13    1    5    5    0    0  0.51637435101E+02  0.10171538407E+03  0.63562924475E+02  0.13058594652E+03  0.00000000000E+00 0.  1.
          2    1    6    6  503    0 -0.10107579831E+03 -0.92670214723E+02 -0.99545810156E+02  0.16945044709E+03  0.00000000000E+00 0. -1.
         -2    1    6    6    0  503 -0.50735435311E+03 -0.27276666210E+03 -0.56260902646E+03  0.80519501255E+03  0.00000000000E+00 0.  1.
<mgrwt>
<rscale>  0 0.17013113E+04</rscale>
<asrwt>0</asrwt>
<pdfrwt beam="1">  1        1 0.25095589E+00 0.17013113E+04</pdfrwt>
<pdfrwt beam="2">  1       -1 0.68246985E-01 0.17013113E+04</pdfrwt>
<totfact> 0.10983628E+01</totfact>
</mgrwt>
</event>
<event>
12    3  0.4806716E-008  0.2026776E+04  0.7818608E-02  0.8594203E-01
          3   -1    0    0  501    0  0.00000000000E+00  0.00000000000E+00  0.94742441617E+03  0.94742441617E+03  0.00000000000E+00 0. -1.
         -3   -1    0    0    0  501 -0.00000000000E+00 -0.00000000000E+00 -0.10839446941E+04  0.10839446941E+04  0.00000000000E+00 0.  1.
         23    2    1    2    0    0  0.26166457812E+03  0.57943627044E+03 -0.56070776730E+03  0.85262324523E+03  0.91424586711E+02 0.  0.
        254    2    1    2    0    0 -0.26166457812E+03 -0.57943627044E+03  0.42418748940E+03  0.11787458650E+04  0.89738065789E+03 0.  0.
         23    2    4    4    0    0 -0.41328231873E+03 -0.53412078292E+03  0.61240725812E+03  0.91634412948E+03  0.92502043875E+02 0.  0.
         23    2    4    4    0    0  0.15161774060E+03 -0.45315487520E+02 -0.18821976871E+03  0.26240173553E+03  0.91578145850E+02 0.  0.
          1    1    3    3  502    0  0.13145367080E+03  0.33537431217E+03 -0.37161177156E+03  0.51754353014E+03  0.00000000000E+00 0.  1.
         -1    1    3    3    0  502  0.13021090732E+03  0.24406195828E+03 -0.18909599574E+03  0.33507971509E+03  0.00000000000E+00 0. -1.
         13    1    5    5    0    0 -0.32387578485E+03 -0.40237473941E+03  0.51655351751E+03  0.73049879629E+03  0.00000000000E+00 0.  1.
        -13    1    5    5    0    0 -0.89406533875E+02 -0.13174604352E+03  0.95853740602E+02  0.18584533319E+03  0.00000000000E+00 0. -1.
          1    1    6    6  503    0  0.21339607809E+02  0.21382394870E+02 -0.10075273629E+02  0.31844886725E+02  0.00000000000E+00 0. -1.
         -1    1    6    6    0  503  0.13027813280E+03 -0.66697882390E+02 -0.17814449508E+03  0.23055684880E+03  0.00000000000E+00 0.  1.
<mgrwt>
<rscale>  0 0.20267764E+04</rscale>
<asrwt>0</asrwt>
<pdfrwt beam="1">  1        3 0.14575760E+00 0.20267764E+04</pdfrwt>
<pdfrwt beam="2">  1       -3 0.16676072E+00 0.20267764E+04</pdfrwt>
<totfact> 0.20558542E-01</totfact>
</mgrwt>
</event>
<event>
12    3  0.4806716E-008  0.1457663E+04  0.7818608E-02  0.8913105E-01
          2   -1    0    0  501    0  0.00000000000E+00  0.00000000000E+00  0.11515313355E+04  0.11515313355E+04  0.00000000000E+00 0. -1.
         -2   -1    0    0    0  501 -0.00000000000E+00 -0.00000000000E+00 -0.46129468427E+03  0.46129468427E+03  0.00000000000E+00 0.  1.
         23    2    1    2    0    0  0.31531025349E+03 -0.14101745236E+03  0.52946352450E+03  0.63882426310E+03  0.91969220518E+02 0.  0.
        254    2    1    2    0    0 -0.31531025349E+03  0.14101745236E+03  0.16077312673E+03  0.97400175668E+03  0.89639552983E+03 0.  0.
         23    2    4    4    0    0  0.72743828509E+01  0.82671753976E+02  0.48781205933E+03  0.50310501109E+03  0.90920357521E+02 0.  0.
         23    2    4    4    0    0 -0.32258463634E+03  0.58345698387E+02 -0.32703893259E+03  0.47089674559E+03  0.85581618630E+02 0.  0.
          2    1    3    3  502    0  0.24090044338E+03 -0.85377186404E+02  0.44543376493E+03  0.51354992603E+03  0.00000000000E+00 0. -1.
         -2    1    3    3    0  502  0.74409810111E+02 -0.55640265958E+02  0.84029759570E+02  0.12527433708E+03  0.00000000000E+00 0.  1.
         13    1    5    5    0    0  0.46500190870E+02  0.27685873784E+02  0.17947977575E+03  0.18746137006E+03  0.00000000000E+00 0.  1.
        -13    1    5    5    0    0 -0.39225808019E+02  0.54985880192E+02  0.30833228357E+03  0.31564364104E+03  0.00000000000E+00 0. -1.
          3    1    6    6  503    0 -0.14415406885E+03  0.35427859095E+02 -0.20662564086E+03  0.25442029052E+03  0.00000000000E+00 0. -1.
         -3    1    6    6    0  503 -0.17843056749E+03  0.22917839292E+02 -0.12041329173E+03  0.21647645507E+03  0.00000000000E+00 0.  1.
<mgrwt>
<rscale>  0 0.14576629E+04</rscale>
<asrwt>0</asrwt>
<pdfrwt beam="1">  1        2 0.17715867E+00 0.14576629E+04</pdfrwt>
<pdfrwt beam="2">  1       -2 0.70968413E-01 0.14576629E+04</pdfrwt>
<totfact> 0.35423649E+01</totfact>
</mgrwt>
</event>
<event>
12    3  0.4806716E-008  0.1535998E+04  0.7818608E-02  0.8860861E-01
         -1   -1    0    0    0  501 -0.00000000000E+00  0.00000000000E+00  0.24000877974E+03  0.24000877974E+03  0.00000000000E+00 0.  1.
          1   -1    0    0  501    0  0.00000000000E+00 -0.00000000000E+00 -0.24575048626E+04  0.24575048626E+04  0.00000000000E+00 0. -1.
         23    2    1    2    0    0 -0.30715169476E+03  0.21168686482E+03 -0.14533068496E+03  0.41210235776E+03  0.97743812865E+02 0.  0.
        254    2    1    2    0    0  0.30715169476E+03 -0.21168686482E+03 -0.20721653979E+04  0.22854112846E+04  0.88886546288E+03 0.  0.
         23    2    4    4    0    0  0.14765809648E+03  0.13962115603E+03 -0.17778738773E+04  0.17917945949E+04  0.91626229693E+02 0.  0.
         23    2    4    4    0    0  0.15949359828E+03 -0.35130802085E+03 -0.29429152058E+03  0.49361668969E+03  0.90522946528E+02 0.  0.
          1    1    3    3  502    0 -0.24043175807E+03  0.15125724400E+03 -0.64870065606E+02  0.29136628076E+03  0.00000000000E+00 0.  1.
         -1    1    3    3    0  502 -0.66719936686E+02  0.60429620819E+02 -0.80460619350E+02  0.12073607700E+03  0.00000000000E+00 0. -1.
         13    1    5    5    0    0  0.92845380504E+01 -0.10273142086E+02 -0.48744496320E+02  0.50673129138E+02  0.00000000000E+00 0. -1.
        -13    1    5    5    0    0  0.13837355843E+03  0.14989429811E+03 -0.17291293810E+04  0.17411214658E+04  0.00000000000E+00 0.  1.
          4    1    6    6  503    0  0.90068358459E+02 -0.11337752344E+03 -0.14147696064E+03  0.20244135548E+03  0.00000000000E+00 0. -1.
         -4    1    6    6    0  503  0.69425239822E+02 -0.23793049741E+03 -0.15281455995E+03  0.29117533421E+03  0.00000000000E+00 0.  1.
<mgrwt>
<rscale>  0 0.15359984E+04</rscale>
<asrwt>0</asrwt>
<pdfrwt beam="1">  1        1 0.37807766E+00 0.15359984E+04</pdfrwt>
<pdfrwt beam="2">  1       -1 0.36924429E-01 0.15359984E+04</pdfrwt>
<totfact> 0.98748978E+00</totfact>
</mgrwt>
</event>
<event>
12    3  0.4806716E-008  0.2818793E+04  0.7818608E-02  0.8297457E-01
         -2   -1    0    0    0  501 -0.00000000000E+00  0.00000000000E+00  0.13226269248E+04  0.13226269248E+04  0.00000000000E+00 0.  1.
          2   -1    0    0  501    0  0.00000000000E+00 -0.00000000000E+00 -0.15018588287E+04  0.15018588287E+04  0.00000000000E+00 0. -1.
         23    2    1    2    0    0 -0.61017739155E+03  0.59520603702E+03  0.85581783752E+03  0.12113685437E+04  0.91667343997E+02 0.  0.
        254    2    1    2    0    0  0.61017739155E+03 -0.59520603702E+03 -0.10350497414E+04  0.16131172098E+04  0.89679010358E+03 0.  0.
         23    2    4    4    0    0  0.24889092028E+03 -0.77600361456E+03 -0.62996718214E+03  0.10336911548E+04  0.86778182481E+02 0.  0.
         23    2    4    4    0    0  0.36128647126E+03  0.18079757754E+03 -0.40508255923E+03  0.57942605502E+03  0.91798665969E+02 0.  0.
          2    1    3    3  502    0 -0.12656125720E+03  0.11734834561E+03  0.22797989937E+03  0.28594268754E+03  0.00000000000E+00 0. -1.
         -2    1    3    3    0  502 -0.48361613435E+03  0.47785769141E+03  0.62783793815E+03  0.92542585614E+03  0.00000000000E+00 0.  1.
         13    1    5    5    0    0  0.65218633225E+02 -0.13521538027E+03 -0.15051261188E+03  0.21258107987E+03  0.00000000000E+00 0. -1.
        -13    1    5    5    0    0  0.18367228706E+03 -0.64078823429E+03 -0.47945457026E+03  0.82111007495E+03  0.00000000000E+00 0.  1.
          3    1    6    6  503    0  0.35711844832E+02 -0.10375046024E+01 -0.12221393439E+02  0.37759432393E+02  0.00000000000E+00 0. -1.
         -3    1    6    6    0  503  0.32557462643E+03  0.18183508215E+03 -0.39286116579E+03  0.54166662262E+03  0.00000000000E+00 0.  1.
<mgrwt>
<rscale>  0 0.28187933E+04</rscale>
<asrwt>0</asrwt>
<pdfrwt beam="1">  1        2 0.23105520E+00 0.28187933E+04</pdfrwt>
<pdfrwt beam="2">  1       -2 0.20348107E+00 0.28187933E+04</pdfrwt>
<totfact> 0.13886006E+00</totfact>
</mgrwt>
</event>
<event>
12    3  0.4806716E-008  0.2787712E+04  0.7818608E-02  0.8307093E-01
          1   -1    0    0  501    0  0.00000000000E+00  0.00000000000E+00  0.24937324216E+04  0.24937324216E+04  0.00000000000E+00 0. -1.
         -1   -1    0    0    0  501 -0.00000000000E+00 -0.00000000000E+00 -0.77908703910E+03  0.77908703910E+03  0.00000000000E+00 0.  1.
         23    2    1    2    0    0 -0.30418434917E+03 -0.11753623612E+04  0.10332022533E+04  0.15968440094E+04  0.91646580356E+02 0.  0.
        254    2    1    2    0    0  0.30418434917E+03  0.11753623612E+04  0.68144312917E+03  0.16759754513E+04  0.93301885116E+03 0.  0.
         23    2    4    4    0    0  0.29378224336E+03  0.13084356197E+04  0.50272757861E+03  0.14355942715E+04  0.99418894181E+02 0.  0.
         23    2    4    4    0    0  0.10402105810E+02 -0.13307325852E+03  0.17871555056E+03  0.24038117982E+03  0.89594462224E+02 0.  0.
          3    1    3    3  502    0 -0.27332306203E+03 -0.90378267804E+03  0.80309055910E+03  0.12395495438E+04  0.00000000000E+00 0. -1.
         -3    1    3    3    0  502 -0.30861287141E+02 -0.27157968315E+03  0.23011169420E+03  0.35729446561E+03  0.00000000000E+00 0.  1.
         13    1    5    5    0    0  0.12907927340E+03  0.39360010694E+03  0.13053941639E+03  0.43430754338E+03  0.00000000000E+00 0. -1.
        -13    1    5    5    0    0  0.16470296997E+03  0.91483551278E+03  0.37218816222E+03  0.10012867281E+04  0.00000000000E+00 0.  1.
          3    1    6    6  503    0 -0.34542792502E+02 -0.83335465857E+02  0.12668528347E+03  0.15552223453E+03  0.00000000000E+00 0. -1.
         -3    1    6    6    0  503  0.44944898312E+02 -0.49737792659E+02  0.52030267090E+02  0.84858945293E+02  0.00000000000E+00 0.  1.
<mgrwt>
<rscale>  0 0.27877120E+04</rscale>
<asrwt>0</asrwt>
<pdfrwt beam="1">  1        1 0.38365114E+00 0.27877120E+04</pdfrwt>
<pdfrwt beam="2">  1       -1 0.11985955E+00 0.27877120E+04</pdfrwt>
<totfact> 0.73595974E-01</totfact>
</mgrwt>
</event>
<event>
12    3  0.4806716E-008  0.1623876E+04  0.7818608E-02  0.8806013E-01
          1   -1    0    0  501    0  0.00000000000E+00  0.00000000000E+00  0.12064478836E+04  0.12064478836E+04  0.00000000000E+00 0. -1.
         -1   -1    0    0    0  501 -0.00000000000E+00 -0.00000000000E+00 -0.54643329614E+03  0.54643329614E+03  0.00000000000E+00 0.  1.
         23    2    1    2    0    0 -0.88623027550E+02 -0.48680363204E+03  0.46317486082E+03  0.68392765065E+03  0.91620207634E+02 0.  0.
        254    2    1    2    0    0  0.88623027550E+02  0.48680363204E+03  0.19683972667E+03  0.10689535291E+04  0.92686781810E+03 0.  0.
         23    2    4    4    0    0  0.32539872195E+03 -0.14045483837E+03  0.12603222710E+03  0.38833759072E+03  0.96488715581E+02 0.  0.
         23    2    4    4    0    0 -0.23677569440E+03  0.62725847042E+03  0.70807499575E+02  0.68061593839E+03  0.93318998230E+02 0.  0.
          4    1    3    3  502    0 -0.10452803325E+03 -0.46102236427E+03  0.43053429867E+03  0.63939620926E+03  0.00000000000E+00 0. -1.
         -4    1    3    3    0  502  0.15905005703E+02 -0.25781267777E+02  0.32640562148E+02  0.44531441386E+02  0.00000000000E+00 0.  1.
         13    1    5    5    0    0  0.29196814664E+03 -0.10488552027E+03  0.78079308408E+02  0.31991053345E+03  0.00000000000E+00 0. -1.
        -13    1    5    5    0    0  0.33430575311E+02 -0.35569318103E+02  0.47952918689E+02  0.68427057270E+02  0.00000000000E+00 0.  1.
          4    1    6    6  503    0 -0.23741812899E+03  0.59399483995E+03  0.50584924748E+02  0.64168222078E+03  0.00000000000E+00 0. -1.
         -4    1    6    6    0  503  0.64243459361E+00  0.33263630469E+02  0.20222574827E+02  0.38933717609E+02  0.00000000000E+00 0.  1.
<mgrwt>
<rscale>  0 0.16238760E+04</rscale>
<asrwt>0</asrwt>
<pdfrwt beam="1">  1        1 0.18560737E+00 0.16238760E+04</pdfrwt>
<pdfrwt beam="2">  1       -1 0.84066661E-01 0.16238760E+04</pdfrwt>
<totfact> 0.14195847E+01</totfact>
</mgrwt>
</event>
<event>
12    3  0.4806716E-008  0.2739090E+04  0.7818608E-02  0.8322432E-01
          2   -1    0    0  501    0  0.00000000000E+00  0.00000000000E+00  0.86025850694E+03  0.86025850694E+03  0.00000000000E+00 0. -1.
         -2   -1    0    0    0  501 -0.00000000000E+00 -0.00000000000E+00 -0.21803377341E+04  0.21803377341E+04  0.00000000000E+00 0.  1.
         23    2    1    2    0    0  0.52770843221E+03 -0.95304821237E+03  0.57289010296E+01  0.10933087981E+04  0.92272547846E+02 0.  0.
        254    2    1    2    0    0 -0.52770843221E+03  0.95304821237E+03 -0.13258081282E+04  0.19472874429E+04  0.92053468604E+03 0.  0.
         23    2    4    4    0    0 -0.70387961721E+03  0.44360019172E+03 -0.56392232487E+03  0.10096992695E+04  0.96211125425E+02 0.  0.
         23    2    4    4    0    0  0.17617118500E+03  0.50944802065E+03 -0.76188580328E+03  0.93758817347E+03  0.89599294717E+02 0.  0.
          3    1    3    3  502    0  0.11690732582E+03 -0.14989629346E+03  0.19469015561E+02  0.19108967578E+03  0.00000000000E+00 0. -1.
         -3    1    3    3    0  502  0.41080110639E+03 -0.80315191891E+03 -0.13740114531E+02  0.90221912228E+03  0.00000000000E+00 0.  1.
         13    1    5    5    0    0 -0.60599264535E+03  0.34163393742E+03 -0.45484979494E+03  0.83116133775E+03  0.00000000000E+00 0.  1.
        -13    1    5    5    0    0 -0.97886971865E+02  0.10196625430E+03 -0.10907252993E+03  0.17853793172E+03  0.00000000000E+00 0. -1.
          2    1    6    6  503    0  0.15790685760E+03  0.49334596152E+03 -0.69793896313E+03  0.86916259105E+03  0.00000000000E+00 0.  1.
         -2    1    6    6    0  503  0.18264327396E+02  0.16102059126E+02 -0.63946840152E+02  0.68425582414E+02  0.00000000000E+00 0. -1.
<mgrwt>
<rscale>  0 0.27390904E+04</rscale>
<asrwt>0</asrwt>
<pdfrwt beam="1">  1        2 0.13234746E+00 0.27390904E+04</pdfrwt>
<pdfrwt beam="2">  1       -2 0.33543657E+00 0.27390904E+04</pdfrwt>
<totfact> 0.52427510E-01</totfact>
</mgrwt>
</event>
<event>
12    3  0.4806716E-008  0.1376970E+04  0.7818608E-02  0.8970660E-01
          2   -1    0    0  501    0  0.00000000000E+00  0.00000000000E+00  0.15770651807E+04  0.15770651807E+04  0.00000000000E+00 0. -1.
         -2   -1    0    0    0  501 -0.00000000000E+00 -0.00000000000E+00 -0.30056551798E+03  0.30056551798E+03  0.00000000000E+00 0.  1.
         23    2    1    2    0    0  0.60670987694E+02 -0.21965974893E+03 -0.58342302043E+02  0.25191909106E+03  0.90155588760E+02 0.  0.
        254    2    1    2    0    0 -0.60670987694E+02  0.21965974893E+03  0.13348419647E+04  0.16257116076E+04  0.89955755025E+03 0.  0.
         23    2    4    4    0    0 -0.42122907764E+03  0.65310410088E+02  0.10367396666E+04  0.11247128681E+04  0.91926676243E+02 0.  0.
         23    2    4    4    0    0  0.36055808994E+03  0.15434933884E+03  0.29810229808E+03  0.50099873947E+03  0.91153179904E+02 0.  0.
          3    1    3    3  502    0  0.36072337062E+02 -0.15257544191E+02 -0.10694130280E+02  0.40600130274E+02  0.00000000000E+00 0. -1.
         -3    1    3    3    0  502  0.24598650633E+02 -0.20440220474E+03 -0.47648171764E+02  0.21131896078E+03  0.00000000000E+00 0.  1.
         13    1    5    5    0    0 -0.33083210355E+03  0.64107560466E+02  0.89769789557E+03  0.95886452211E+03  0.00000000000E+00 0. -1.
        -13    1    5    5    0    0 -0.90396974081E+02  0.12028496227E+01  0.13904177108E+03  0.16584834602E+03  0.00000000000E+00 0.  1.
          4    1    6    6  503    0  0.35792251371E+03  0.15433117640E+03  0.30414944123E+03  0.49440218490E+03  0.00000000000E+00 0. -1.
         -4    1    6    6    0  503  0.26355762285E+01  0.18162442095E-01 -0.60471431504E+01  0.65965545713E+01  0.00000000000E+00 0.  1.
<mgrwt>
<rscale>  0 0.13769697E+04</rscale>
<asrwt>0</asrwt>
<pdfrwt beam="1">  1        2 0.24262541E+00 0.13769697E+04</pdfrwt>
<pdfrwt beam="2">  1       -2 0.46240850E-01 0.13769697E+04</pdfrwt>
<totfact> 0.49646053E+01</totfact>
</mgrwt>
</event>
<event>
12    3  0.4806716E-008  0.1786018E+04  0.7818608E-02  0.8713771E-01
         -2   -1    0    0    0  501 -0.00000000000E+00  0.00000000000E+00  0.40213707325E+03  0.40213707325E+03  0.00000000000E+00 0.  1.
          2   -1    0    0  501    0  0.00000000000E+00 -0.00000000000E+00 -0.19830672357E+04  0.19830672357E+04  0.00000000000E+00 0. -1.
         23    2    1    2    0    0  0.31437898421E+03 -0.38202144099E+02 -0.13722416642E+04  0.14117048379E+04  0.97825431268E+02 0.  0.
        254    2    1    2    0    0 -0.31437898421E+03  0.38202144099E+02 -0.20868849825E+03  0.97349947100E+03  0.89658060497E+03 0.  0.
         23    2    4    4    0    0 -0.40075741469E+02  0.42810155795E+03  0.17577359014E+02  0.43842765671E+03  0.83862015507E+02 0.  0.
         23    2    4    4    0    0 -0.27430324274E+03 -0.38989941385E+03 -0.22626585726E+03  0.53507181429E+03  0.88553861470E+02 0.  0.
          4    1    3    3  502    0  0.28184832836E+03 -0.55466006777E+01 -0.10976706835E+04  0.11332917428E+04  0.00000000000E+00 0.  1.
         -4    1    3    3    0  502  0.32530655854E+02 -0.32655543421E+02 -0.27457098070E+03  0.27841309511E+03  0.00000000000E+00 0. -1.
         13    1    5    5    0    0 -0.36512816553E+02  0.13854406015E+03 -0.25917481454E+02  0.14559999389E+03  0.00000000000E+00 0. -1.
        -13    1    5    5    0    0 -0.35629249162E+01  0.28955749780E+03  0.43494840468E+02  0.29282766282E+03  0.00000000000E+00 0.  1.
          3    1    6    6  503    0 -0.74166374743E+02 -0.47820656985E+02 -0.33953939163E+02  0.94553351933E+02  0.00000000000E+00 0. -1.
         -3    1    6    6    0  503 -0.20013686800E+03 -0.34207875687E+03 -0.19231191810E+03  0.44051846236E+03  0.00000000000E+00 0.  1.
<mgrwt>
<rscale>  0 0.17860178E+04</rscale>
<asrwt>0</asrwt>
<pdfrwt beam="1">  1        2 0.30508728E+00 0.17860178E+04</pdfrwt>
<pdfrwt beam="2">  1       -2 0.61867240E-01 0.17860178E+04</pdfrwt>
<totfact> 0.15659763E+01</totfact>
</mgrwt>
</event>
<event>
12    3  0.4806716E-008  0.1477061E+04  0.7818608E-02  0.8899852E-01
         -1   -1    0    0    0  501 -0.00000000000E+00  0.00000000000E+00  0.51557103304E+03  0.51557103304E+03  0.00000000000E+00 0.  1.
          1   -1    0    0  501    0  0.00000000000E+00 -0.00000000000E+00 -0.10579094386E+04  0.10579094386E+04  0.00000000000E+00 0. -1.
         23    2    1    2    0    0 -0.31880054769E+03  0.11456874914E+02  0.18192784218E+03  0.37838078591E+03  0.91154979005E+02 0.  0.
        254    2    1    2    0    0  0.31880054769E+03 -0.11456874914E+02 -0.72426624778E+03  0.11950996858E+04  0.89550913566E+03 0.  0.
         23    2    4    4    0    0 -0.25315324852E+03 -0.18296073427E+03 -0.13944932268E+03  0.35418612309E+03  0.91872186621E+02 0.  0.
         23    2    4    4    0    0  0.57195379621E+03  0.17150385936E+03 -0.58481692509E+03  0.84091356266E+03  0.92628641483E+02 0.  0.
          4    1    3    3  502    0 -0.60059320096E+02 -0.29288122424E+02  0.58572647268E+02  0.88857588609E+02  0.00000000000E+00 0. -1.
         -4    1    3    3    0  502 -0.25874122759E+03  0.40744997339E+02  0.12335519491E+03  0.28952319730E+03  0.00000000000E+00 0.  1.
         13    1    5    5    0    0 -0.17283161667E+03 -0.17004573371E+03 -0.12004973168E+03  0.27055176464E+03  0.00000000000E+00 0. -1.
        -13    1    5    5    0    0 -0.80321631853E+02 -0.12915000561E+02 -0.19399591001E+02  0.83634358455E+02  0.00000000000E+00 0.  1.
          3    1    6    6  503    0  0.24926215850E+03  0.11244821078E+03 -0.22618812287E+03  0.35487644427E+03  0.00000000000E+00 0. -1.
         -3    1    6    6    0  503  0.32269163771E+03  0.59055648582E+02 -0.35862880222E+03  0.48603711840E+03  0.00000000000E+00 0.  1.
<mgrwt>
<rscale>  0 0.14770612E+04</rscale>
<asrwt>0</asrwt>
<pdfrwt beam="1">  1        1 0.16275530E+00 0.14770612E+04</pdfrwt>
<pdfrwt beam="2">  1       -1 0.79318622E-01 0.14770612E+04</pdfrwt>
<totfact> 0.21014839E+01</totfact>
</mgrwt>
</event>
<event>
12    3  0.4806716E-008  0.1573076E+04  0.7818608E-02  0.8837261E-01
         -1   -1    0    0    0  501 -0.00000000000E+00  0.00000000000E+00  0.37457094532E+03  0.37457094532E+03  0.00000000000E+00 0.  1.
          1   -1    0    0  501    0  0.00000000000E+00 -0.00000000000E+00 -0.16516012910E+04  0.16516012910E+04  0.00000000000E+00 0. -1.
         23    2    1    2    0    0  0.10985344481E+03  0.50389160746E+03 -0.29878508092E+03  0.60164552077E+03  0.82038263534E+02 0.  0.
        254    2    1    2    0    0 -0.10985344481E+03 -0.50389160746E+03 -0.97824526473E+03  0.14245267155E+04  0.89796326977E+03 0.  0.
         23    2    4    4    0    0  0.12317022367E+03 -0.25851836709E+03  0.78865885048E+02  0.31082107088E+03  0.91581985986E+02 0.  0.
         23    2    4    4    0    0 -0.23302366847E+03 -0.24537324037E+03 -0.10571111498E+04  0.11137056446E+04  0.91368609211E+02 0.  0.
          1    1    3    3  502    0  0.10246767202E+03  0.36786237223E+03 -0.18584978793E+03  0.42469105522E+03  0.00000000000E+00 0. -1.
         -1    1    3    3    0  502  0.73857727884E+01  0.13602923523E+03 -0.11293529298E+03  0.17695446555E+03  0.00000000000E+00 0.  1.
         13    1    5    5    0    0  0.22993936823E+01 -0.98784040089E+02  0.40910620256E+02  0.10694509169E+03  0.00000000000E+00 0. -1.
        -13    1    5    5    0    0  0.12087082998E+03 -0.15973432700E+03  0.37955264792E+02  0.20387597919E+03  0.00000000000E+00 0.  1.
          3    1    6    6  503    0 -0.21653018842E+02 -0.18593967710E+02 -0.20452700790E+03  0.20650880325E+03  0.00000000000E+00 0. -1.
         -3    1    6    6    0  503 -0.21137064963E+03 -0.22677927266E+03 -0.85258414188E+03  0.90719684138E+03  0.00000000000E+00 0.  1.
<mgrwt>
<rscale>  0 0.15730758E+04</rscale>
<asrwt>0</asrwt>
<pdfrwt beam="1">  1        1 0.25409250E+00 0.15730758E+04</pdfrwt>
<pdfrwt beam="2">  1       -1 0.57626301E-01 0.15730758E+04</pdfrwt>
<totfact> 0.15085913E+01</totfact>
</mgrwt>
</event>
<event>
12    3  0.4806716E-008  0.1398885E+04  0.7818608E-02  0.8954626E-01
          2   -1    0    0  501    0  0.00000000000E+00  0.00000000000E+00  0.79705189261E+03  0.79705189261E+03  0.00000000000E+00 0.  1.
         -2   -1    0    0    0  501 -0.00000000000E+00 -0.00000000000E+00 -0.61378631431E+03  0.61378631431E+03  0.00000000000E+00 0. -1.
         23    2    1    2    0    0 -0.38864864275E+03 -0.67200245902E+02  0.15174935582E+03  0.43262101758E+03  0.92571255236E+02 0.  0.
        254    2    1    2    0    0  0.38864864275E+03  0.67200245902E+02  0.31516222481E+02  0.97821718934E+03  0.89462391913E+03 0.  0.
         23    2    4    4    0    0 -0.23831506691E+03  0.20567956566E+03 -0.18317895672E+02  0.32782822778E+03  0.89652923984E+02 0.  0.
         23    2    4    4    0    0  0.62696370966E+03 -0.13847931976E+03  0.49834118153E+02  0.65038896156E+03  0.90897451804E+02 0.  0.
          2    1    3    3  502    0 -0.92614953609E+02 -0.21392405987E+02 -0.37131680637E+01  0.95125981114E+02  0.00000000000E+00 0. -1.
         -2    1    3    3    0  502 -0.29603368914E+03 -0.45807839915E+02  0.15546252388E+03  0.33749503646E+03  0.00000000000E+00 0.  1.
         13    1    5    5    0    0 -0.15717972960E+03  0.12395463146E+03 -0.53883683536E+02  0.20730091512E+03  0.00000000000E+00 0.  1.
        -13    1    5    5    0    0 -0.81135337318E+02  0.81724934198E+02  0.35565787864E+02  0.12052731266E+03  0.00000000000E+00 0. -1.
          2    1    6    6  503    0  0.22828177521E+03 -0.41402570388E+02 -0.24794639555E+02  0.23332705775E+03  0.00000000000E+00 0. -1.
         -2    1    6    6    0  503  0.39868193446E+03 -0.97076749371E+02  0.74628757708E+02  0.41706190381E+03  0.00000000000E+00 0.  1.
<mgrwt>
<rscale>  0 0.13988846E+04</rscale>
<asrwt>0</asrwt>
<pdfrwt beam="1">  1        2 0.12262337E+00 0.13988846E+04</pdfrwt>
<pdfrwt beam="2">  1       -2 0.94428664E-01 0.13988846E+04</pdfrwt>
<totfact> 0.31858927E+01</totfact>
</mgrwt>
</event>
<event>
12    3  0.4806716E-008  0.1949567E+04  0.7818608E-02  0.8630570E-01
         -2   -1    0    0    0  501 -0.00000000000E+00  0.00000000000E+00  0.94222785292E+03  0.94222785292E+03  0.00000000000E+00 0.  1.
          2   -1    0    0  501    0  0.00000000000E+00 -0.00000000000E+00 -0.10084635124E+04  0.10084635124E+04  0.00000000000E+00 0. -1.
         23    2    1    2    0    0 -0.59684189617E+03  0.53782399620E+02  0.45175667106E+03  0.75612454250E+03  0.92344130223E+02 0.  0.
        254    2    1    2    0    0  0.59684189617E+03 -0.53782399620E+02 -0.51799233057E+03  0.11945668228E+04  0.89418177356E+03 0.  0.
         23    2    4    4    0    0 -0.80420324266E+02  0.25883235290E+03 -0.76062130154E+01  0.28599025445E+03  0.90944794815E+02 0.  0.
         23    2    4    4    0    0  0.67726222043E+03 -0.31261475252E+03 -0.51038611755E+03  0.90857656838E+03  0.92764718032E+02 0.  0.
          4    1    3    3  502    0 -0.10791304395E+03 -0.10322083413E+02  0.46948821698E+02  0.11813535593E+03  0.00000000000E+00 0. -1.
         -4    1    3    3    0  502 -0.48892885221E+03  0.64104483032E+02  0.40480784936E+03  0.63798918657E+03  0.00000000000E+00 0.  1.
         13    1    5    5    0    0 -0.96704644061E+02  0.24808583865E+03 -0.50729449054E+01  0.26631580181E+03  0.00000000000E+00 0. -1.
        -13    1    5    5    0    0  0.16284319795E+02  0.10746514249E+02 -0.25332681100E+01  0.19674452648E+02  0.00000000000E+00 0.  1.
          1    1    6    6  503    0  0.65347532252E+03 -0.29773512426E+03 -0.50952370040E+03  0.88050587882E+03  0.00000000000E+00 0. -1.
         -1    1    6    6    0  503  0.23786897913E+02 -0.14879628255E+02 -0.86241714682E+00  0.28070689566E+02  0.00000000000E+00 0.  1.
<mgrwt>
<rscale>  0 0.19495665E+04</rscale>
<asrwt>0</asrwt>
<pdfrwt beam="1">  1        2 0.15514823E+00 0.19495665E+04</pdfrwt>
<pdfrwt beam="2">  1       -2 0.14495813E+00 0.19495665E+04</pdfrwt>
<totfact> 0.76088603E+00</totfact>
</mgrwt>
</event>
<event>
12    3  0.4806716E-008  0.2001463E+04  0.7818608E-02  0.8605937E-01
         -2   -1    0    0    0  501 -0.00000000000E+00  0.00000000000E+00  0.73277050366E+03  0.73277050366E+03  0.00000000000E+00 0.  1.
          2   -1    0    0  501    0  0.00000000000E+00 -0.00000000000E+00 -0.13666815650E+04  0.13666815650E+04  0.00000000000E+00 0. -1.
         23    2    1    2    0    0 -0.63614362150E+03 -0.14848177584E+03  0.22287464697E+03  0.69621986646E+03  0.91232939510E+02 0.  0.
        254    2    1    2    0    0  0.63614362150E+03  0.14848177584E+03 -0.85678570828E+03  0.14032322022E+04  0.89902909761E+03 0.  0.
         23    2    4    4    0    0  0.55885471938E+03  0.29328050380E+03 -0.98621796219E+03  0.11742970014E+04  0.89529476777E+02 0.  0.
         23    2    4    4    0    0  0.77288902125E+02 -0.14479872796E+03  0.12943225390E+03  0.22893520080E+03  0.93372221815E+02 0.  0.
          3    1    3    3  502    0 -0.24034299278E+03 -0.51642901494E+02  0.13084338906E+03  0.27848112309E+03  0.00000000000E+00 0. -1.
         -3    1    3    3    0  502 -0.39580062872E+03 -0.96838874347E+02  0.92031257909E+02  0.41773874337E+03  0.00000000000E+00 0.  1.
         13    1    5    5    0    0  0.39506921280E+01  0.27967775439E+01 -0.35349542079E+02  0.35679406639E+02  0.00000000000E+00 0. -1.
        -13    1    5    5    0    0  0.55490402725E+03  0.29048372625E+03 -0.95086842011E+03  0.11386175947E+04  0.00000000000E+00 0.  1.
          4    1    6    6  503    0  0.19050682961E+02 -0.22980383781E+02 -0.13103188124E+02  0.32599388016E+02  0.00000000000E+00 0. -1.
         -4    1    6    6    0  503  0.58238219164E+02 -0.12181834417E+03  0.14253544203E+03  0.19633581279E+03  0.00000000000E+00 0.  1.
<mgrwt>
<rscale>  0 0.20014634E+04</rscale>
<asrwt>0</asrwt>
<pdfrwt beam="1">  1        2 0.21025870E+00 0.20014634E+04</pdfrwt>
<pdfrwt beam="2">  1       -2 0.11273393E+00 0.20014634E+04</pdfrwt>
<totfact> 0.86971937E+00</totfact>
</mgrwt>
</event>
<event>
12    3  0.4806716E-008  0.2155857E+04  0.7818608E-02  0.8537030E-01
         -2   -1    0    0    0  501 -0.00000000000E+00  0.00000000000E+00  0.28987158735E+03  0.28987158735E+03  0.00000000000E+00 0.  1.
          2   -1    0    0  501    0  0.00000000000E+00 -0.00000000000E+00 -0.40084280515E+04  0.40084280515E+04  0.00000000000E+00 0. -1.
         23    2    1    2    0    0  0.35269512567E+03 -0.81355520112E+03 -0.14131921484E+04  0.16707103876E+04  0.88855128585E+02 0.  0.
        254    2    1    2    0    0 -0.35269512567E+03  0.81355520112E+03 -0.23053643157E+04  0.26275892512E+04  0.89624479254E+03 0.  0.
         23    2    4    4    0    0 -0.23582778988E+03 -0.89740077299E+02 -0.98626600897E+03  0.10220173454E+04  0.90170870622E+02 0.  0.
         23    2    4    4    0    0 -0.11686733580E+03  0.90329527841E+03 -0.13190983067E+04  0.16055719058E+04  0.90777022285E+02 0.  0.
          1    1    3    3  502    0  0.23747365373E+03 -0.46945460637E+03 -0.77831702332E+03  0.93944598166E+03  0.00000000000E+00 0. -1.
         -1    1    3    3    0  502  0.11522147194E+03 -0.34410059474E+03 -0.63487512512E+03  0.73126440594E+03  0.00000000000E+00 0.  1.
         13    1    5    5    0    0 -0.22315398248E+03 -0.57952790990E+02 -0.90356398938E+03  0.93251493756E+03  0.00000000000E+00 0. -1.
        -13    1    5    5    0    0 -0.12673807398E+02 -0.31787286309E+02 -0.82702019596E+02  0.89502407845E+02  0.00000000000E+00 0.  1.
          1    1    6    6  503    0 -0.11672401257E+03  0.67895708687E+03 -0.10401554901E+04  0.12476099809E+04  0.00000000000E+00 0. -1.
         -1    1    6    6    0  503 -0.14332322722E+00  0.22433819155E+03 -0.27894281660E+03  0.35796192488E+03  0.00000000000E+00 0.  1.
<mgrwt>
<rscale>  0 0.21558566E+04</rscale>
<asrwt>0</asrwt>
<pdfrwt beam="1">  1        2 0.61668128E+00 0.21558566E+04</pdfrwt>
<pdfrwt beam="2">  1       -2 0.44595626E-01 0.21558566E+04</pdfrwt>
<totfact> 0.14849776E+00</totfact>
</mgrwt>
</event>
<event>
12    3  0.4806716E-008  0.1370797E+04  0.7818608E-02  0.8975233E-01
         -1   -1    0    0    0  501 -0.00000000000E+00  0.00000000000E+00  0.30742903629E+03  0.30742903629E+03  0.00000000000E+00 0.  1.
          1   -1    0    0  501    0  0.00000000000E+00 -0.00000000000E+00 -0.15280638668E+04  0.15280638668E+04  0.00000000000E+00 0. -1.
         23    2    1    2    0    0 -0.28247240060E+03  0.73559546875E+02 -0.74870479703E+02  0.31458689471E+03  0.90319773887E+02 0.  0.
        254    2    1    2    0    0  0.28247240060E+03 -0.73559546875E+02 -0.11457643508E+04  0.15209060084E+04  0.95664908651E+03 0.  0.
         23    2    4    4    0    0  0.15646030950E+03 -0.22702779814E+03 -0.12491730570E+04  0.12826764979E+04  0.93830816973E+02 0.  0.
         23    2    4    4    0    0  0.12601209110E+03  0.15346825127E+03  0.10340870624E+03  0.23822951050E+03  0.81414912001E+02 0.  0.
          1    1    3    3  502    0 -0.56570169211E+02 -0.21071016248E+02 -0.96859353497E+01  0.61139096443E+02  0.00000000000E+00 0. -1.
         -1    1    3    3    0  502 -0.22590223139E+03  0.94630563124E+02 -0.65184544353E+02  0.25344779826E+03  0.00000000000E+00 0.  1.
         13    1    5    5    0    0  0.15056734798E+03 -0.16095977012E+03 -0.85444838787E+03  0.88241748702E+03  0.00000000000E+00 0.  1.
        -13    1    5    5    0    0  0.58929615123E+01 -0.66068028017E+02 -0.39472466914E+03  0.40025901083E+03  0.00000000000E+00 0. -1.
          3    1    6    6  503    0  0.53814226427E+02  0.11059154970E+02  0.27577351530E+02  0.61471832509E+02  0.00000000000E+00 0. -1.
         -3    1    6    6    0  503  0.72197864674E+02  0.14240909630E+03  0.75831354709E+02  0.17675767799E+03  0.00000000000E+00 0.  1.
<mgrwt>
<rscale>  0 0.13707971E+04</rscale>
<asrwt>0</asrwt>
<pdfrwt beam="1">  1        1 0.23508675E+00 0.13707971E+04</pdfrwt>
<pdfrwt beam="2">  1       -1 0.47296775E-01 0.13707971E+04</pdfrwt>
<totfact> 0.27263276E+01</totfact>
</mgrwt>
</event>
<event>
12    3  0.4806716E-008  0.3068829E+04  0.7818608E-02  0.8224345E-01
         -1   -1    0    0    0  501 -0.00000000000E+00  0.00000000000E+00  0.73607005658E+03  0.73607005658E+03  0.00000000000E+00 0.  1.
          1   -1    0    0  501    0  0.00000000000E+00 -0.00000000000E+00 -0.31986459315E+04  0.31986459315E+04  0.00000000000E+00 0. -1.
         23    2    1    2    0    0  0.19774136528E+03 -0.12013730620E+04 -0.24056651754E+03  0.12448499755E+04  0.96852105233E+02 0.  0.
        254    2    1    2    0    0 -0.19774136528E+03  0.12013730620E+04 -0.22220093574E+04  0.26898660126E+04  0.90313603620E+03 0.  0.
         23    2    4    4    0    0  0.22488591731E+03  0.23461281117E+03 -0.10838572432E+04  0.11351584414E+04  0.90671475657E+02 0.  0.
         23    2    4    4    0    0 -0.42262728259E+03  0.96676025087E+03 -0.11381521142E+04  0.15547075713E+04  0.92120542611E+02 0.  0.
          4    1    3    3  502    0 -0.27770722990E+01 -0.78773694797E+01  0.53169649734E+01  0.99012724941E+01  0.00000000000E+00 0. -1.
         -4    1    3    3    0  502  0.20051843758E+03 -0.11934956926E+04 -0.24588348252E+03  0.12349487030E+04  0.00000000000E+00 0.  1.
         13    1    5    5    0    0  0.13755946278E+03  0.78136153862E+02 -0.51022100897E+03  0.53418474551E+03  0.00000000000E+00 0. -1.
        -13    1    5    5    0    0  0.87326454532E+02  0.15647665730E+03 -0.57363623418E+03  0.60097369586E+03  0.00000000000E+00 0.  1.
          1    1    6    6  503    0 -0.15468638311E+03  0.43251114097E+03 -0.54341095775E+03  0.71154004327E+03  0.00000000000E+00 0. -1.
         -1    1    6    6    0  503 -0.26794089948E+03  0.53424910991E+03 -0.59474115647E+03  0.84316752799E+03  0.00000000000E+00 0.  1.
<mgrwt>
<rscale>  0 0.30688288E+04</rscale>
<asrwt>0</asrwt>
<pdfrwt beam="1">  1        1 0.49209936E+00 0.30688288E+04</pdfrwt>
<pdfrwt beam="2">  1       -1 0.11324155E+00 0.30688288E+04</pdfrwt>
<totfact> 0.25651357E-01</totfact>
</mgrwt>
</event>
<event>
12    3  0.4806716E-008  0.2450310E+04  0.7818608E-02  0.8420905E-01
          1   -1    0    0  501    0  0.00000000000E+00  0.00000000000E+00  0.13720550033E+04  0.13720550033E+04  0.00000000000E+00 0. -1.
         -1   -1    0    0    0  501 -0.00000000000E+00 -0.00000000000E+00 -0.10939831800E+04  0.10939831800E+04  0.00000000000E+00 0.  1.
         23    2    1    2    0    0 -0.81183933810E+03  0.37186665676E+03  0.69107009456E+03  0.11324619551E+04  0.86742624243E+02 0.  0.
        254    2    1    2    0    0  0.81183933810E+03 -0.37186665676E+03 -0.41299827124E+03  0.13335762281E+04  0.90027221601E+03 0.  0.
         23    2    4    4    0    0 -0.15293875230E+03 -0.10936495725E+03 -0.23590132943E+03  0.31301353591E+03  0.83528920777E+02 0.  0.
         23    2    4    4    0    0  0.96477809040E+03 -0.26250169951E+03 -0.17709694182E+03  0.10205626922E+04  0.10237663806E+03 0.  0.
          3    1    3    3  502    0 -0.78167049665E+03  0.36255202742E+03  0.68391461076E+03  0.11000872387E+04  0.00000000000E+00 0. -1.
         -3    1    3    3    0  502 -0.30168841453E+02  0.93146293401E+01  0.71554837983E+01  0.32374716411E+02  0.00000000000E+00 0.  1.
         13    1    5    5    0    0 -0.52390596646E+02 -0.68920198072E+02 -0.15583707243E+03  0.17826935088E+03  0.00000000000E+00 0.  1.
        -13    1    5    5    0    0 -0.10054815566E+03 -0.40444759177E+02 -0.80064256999E+02  0.13474418503E+03  0.00000000000E+00 0. -1.
          2    1    6    6  503    0  0.88133590551E+02 -0.52934192777E+02 -0.31556032587E+02  0.10754227885E+03  0.00000000000E+00 0. -1.
         -2    1    6    6    0  503  0.87664449985E+03 -0.20956750674E+03 -0.14554090923E+03  0.91302041338E+03  0.00000000000E+00 0.  1.
<mgrwt>
<rscale>  0 0.24503103E+04</rscale>
<asrwt>0</asrwt>
<pdfrwt beam="1">  1        1 0.21108539E+00 0.24503103E+04</pdfrwt>
<pdfrwt beam="2">  1       -1 0.16830510E+00 0.24503103E+04</pdfrwt>
<totfact> 0.18166594E+00</totfact>
</mgrwt>
</event>
<event>
12    3  0.4806716E-008  0.1800502E+04  0.7818608E-02  0.8706032E-01
         -1   -1    0    0    0  501 -0.00000000000E+00  0.00000000000E+00  0.88850095452E+03  0.88850095452E+03  0.00000000000E+00 0.  1.
          1   -1    0    0  501    0  0.00000000000E+00 -0.00000000000E+00 -0.91215692983E+03  0.91215692983E+03  0.00000000000E+00 0. -1.
         23    2    1    2    0    0 -0.36321359125E+03 -0.42823402707E+03 -0.34037067554E+03  0.66287049351E+03  0.90755713813E+02 0.  0.
        254    2    1    2    0    0  0.36321359125E+03  0.42823402707E+03  0.31671470023E+03  0.11377873908E+04  0.93751984011E+03 0.  0.
         23    2    4    4    0    0  0.18011032129E+03 -0.22743699561E+03 -0.11665652542E+03  0.32543080944E+03  0.90161810108E+02 0.  0.
         23    2    4    4    0    0  0.18310326995E+03  0.65567102267E+03  0.43337122565E+03  0.81235658140E+03  0.93173487009E+02 0.  0.
          2    1    3    3  502    0 -0.12235390846E+03 -0.13558749185E+03 -0.62970665875E+02  0.19318320740E+03  0.00000000000E+00 0.  1.
         -2    1    3    3    0  502 -0.24085968279E+03 -0.29264653522E+03 -0.27740000966E+03  0.46968728611E+03  0.00000000000E+00 0. -1.
         13    1    5    5    0    0  0.16353228659E+03 -0.14309825248E+03 -0.92319486711E+02  0.23609914496E+03  0.00000000000E+00 0. -1.
        -13    1    5    5    0    0  0.16578034699E+02 -0.84338743123E+02 -0.24337038708E+02  0.89331664482E+02  0.00000000000E+00 0.  1.
          1    1    6    6  503    0  0.17649092140E+03  0.60607194992E+03  0.42656117262E+03  0.76185739335E+03  0.00000000000E+00 0. -1.
         -1    1    6    6    0  503  0.66123485550E+01  0.49599072753E+02  0.68100530302E+01  0.50499188050E+02  0.00000000000E+00 0.  1.
<mgrwt>
<rscale>  0 0.18005025E+04</rscale>
<asrwt>0</asrwt>
<pdfrwt beam="1">  1        1 0.14033184E+00 0.18005025E+04</pdfrwt>
<pdfrwt beam="2">  1       -1 0.13669245E+00 0.18005025E+04</pdfrwt>
<totfact> 0.74869623E+00</totfact>
</mgrwt>
</event>
<event>
12    3  0.4806716E-008  0.2877333E+04  0.7818608E-02  0.8279654E-01
          1   -1    0    0  501    0  0.00000000000E+00  0.00000000000E+00  0.13059172945E+04  0.13059172945E+04  0.00000000000E+00 0. -1.
         -1   -1    0    0    0  501 -0.00000000000E+00 -0.00000000000E+00 -0.15849095689E+04  0.15849095689E+04  0.00000000000E+00 0.  1.
         23    2    1    2    0    0 -0.63295539052E+03 -0.15574774163E+03 -0.12509366353E+04  0.14142286234E+04  0.10153939262E+03 0.  0.
        254    2    1    2    0    0  0.63295539052E+03  0.15574774163E+03  0.97194436100E+03  0.14765982400E+04  0.90043136113E+03 0.  0.
         23    2    4    4    0    0 -0.22145124521E+03  0.34808145090E+01  0.18972757154E+03  0.30519538333E+03  0.89971665157E+02 0.  0.
         23    2    4    4    0    0  0.85440663573E+03  0.15226692712E+03  0.78221678946E+03  0.11714028567E+04  0.84413450580E+02 0.  0.
          1    1    3    3  502    0 -0.31947891491E+03 -0.43810168600E+02 -0.53447421454E+03  0.62421854663E+03  0.00000000000E+00 0. -1.
         -1    1    3    3    0  502 -0.31347647561E+03 -0.11193757303E+03 -0.71646242077E+03  0.79001007677E+03  0.00000000000E+00 0.  1.
         13    1    5    5    0    0 -0.10795668646E+03  0.27319187218E+01  0.15024112961E+03  0.18502569162E+03  0.00000000000E+00 0.  1.
        -13    1    5    5    0    0 -0.11349455875E+03  0.74889578722E+00  0.39486441925E+02  0.12016969172E+03  0.00000000000E+00 0. -1.
          2    1    6    6  503    0  0.43650475203E+02  0.13280053776E+02  0.19467672506E+02  0.49605585235E+02  0.00000000000E+00 0. -1.
         -2    1    6    6    0  503  0.81075616053E+03  0.13898687335E+03  0.76274911696E+03  0.11217972714E+04  0.00000000000E+00 0.  1.
<mgrwt>
<rscale>  0 0.28773327E+04</rscale>
<asrwt>0</asrwt>
<pdfrwt beam="1">  1        1 0.20091035E+00 0.28773327E+04</pdfrwt>
<pdfrwt beam="2">  1       -1 0.24383224E+00 0.28773327E+04</pdfrwt>
<totfact> 0.58943010E-01</totfact>
</mgrwt>
</event>
<event>
12    3  0.4806716E-008  0.1472374E+04  0.7818608E-02  0.8903034E-01
         -1   -1    0    0    0  501 -0.00000000000E+00  0.00000000000E+00  0.17039862643E+04  0.17039862643E+04  0.00000000000E+00 0.  1.
          1   -1    0    0  501    0  0.00000000000E+00 -0.00000000000E+00 -0.31806093147E+03  0.31806093147E+03  0.00000000000E+00 0. -1.
         23    2    1    2    0    0  0.17970888141E+03  0.34405945519E+03  0.75898030279E+03  0.85937790047E+03  0.10866041150E+03 0.  0.
        254    2    1    2    0    0 -0.17970888141E+03 -0.34405945519E+03  0.62694503001E+03  0.11626692953E+04  0.89892581938E+03 0.  0.
         23    2    4    4    0    0  0.89872224197E+01  0.19861725711E+03 -0.92700229432E+02  0.23732029469E+03  0.90542833746E+02 0.  0.
         23    2    4    4    0    0 -0.18869610383E+03 -0.54267671230E+03  0.71964525944E+03  0.92534900058E+03  0.90979337014E+02 0.  0.
          1    1    3    3  502    0  0.20531872193E+02  0.11013860920E+02  0.12088230235E+02  0.26248585073E+02  0.00000000000E+00 0. -1.
         -1    1    3    3    0  502  0.15917700922E+03  0.33304559427E+03  0.74689207256E+03  0.83312931540E+03  0.00000000000E+00 0.  1.
         13    1    5    5    0    0  0.23129209511E+02  0.18611775027E+03 -0.10485542480E+03  0.21487074581E+03  0.00000000000E+00 0. -1.
        -13    1    5    5    0    0 -0.14141987091E+02  0.12499506849E+02  0.12155195363E+02  0.22449548874E+02  0.00000000000E+00 0.  1.
          2    1    6    6  503    0 -0.13609850640E+03 -0.48243606608E+03  0.60741031150E+03  0.78753707710E+03  0.00000000000E+00 0. -1.
         -2    1    6    6    0  503 -0.52597597430E+02 -0.60240646224E+02  0.11223494794E+03  0.13781192348E+03  0.00000000000E+00 0.  1.
<mgrwt>
<rscale>  0 0.14723742E+04</rscale>
<asrwt>0</asrwt>
<pdfrwt beam="1">  1        1 0.48932452E-01 0.14723742E+04</pdfrwt>
<pdfrwt beam="2">  1       -1 0.26215173E+00 0.14723742E+04</pdfrwt>
<totfact> 0.45800224E+00</totfact>
</mgrwt>
</event>
<event>
12    3  0.4806716E-008  0.2445038E+04  0.7818608E-02  0.8422832E-01
         -1   -1    0    0    0  501 -0.00000000000E+00  0.00000000000E+00  0.18643907960E+04  0.18643907960E+04  0.00000000000E+00 0.  1.
          1   -1    0    0  501    0  0.00000000000E+00 -0.00000000000E+00 -0.80163058767E+03  0.80163058767E+03  0.00000000000E+00 0. -1.
         23    2    1    2    0    0 -0.61844955279E+03 -0.79874827806E+03  0.78818667808E+03  0.12847049301E+04  0.93540669709E+02 0.  0.
        254    2    1    2    0    0  0.61844955279E+03  0.79874827806E+03  0.27457353024E+03  0.13813164536E+04  0.90120245245E+03 0.  0.
         23    2    4    4    0    0  0.56996657250E+03  0.43080541793E+03 -0.22211506673E+03  0.75493369482E+03  0.10067064525E+03 0.  0.
         23    2    4    4    0    0  0.48482980294E+02  0.36794286013E+03  0.49668859697E+03  0.62638275874E+03  0.89012641735E+02 0.  0.
          2    1    3    3  502    0 -0.29993948871E+03 -0.45841437270E+03  0.44707714503E+03  0.70709646272E+03  0.00000000000E+00 0. -1.
         -2    1    3    3    0  502 -0.31851006408E+03 -0.34033390536E+03  0.34110953305E+03  0.57760846739E+03  0.00000000000E+00 0.  1.
         13    1    5    5    0    0  0.38717792618E+03  0.34835547344E+03 -0.15298503874E+03  0.54282843005E+03  0.00000000000E+00 0.  1.
        -13    1    5    5    0    0  0.18278864632E+03  0.82449944488E+02 -0.69130027995E+02  0.21210526476E+03  0.00000000000E+00 0. -1.
          3    1    6    6  503    0  0.52394944921E+02  0.36014804637E+03  0.49875418335E+03  0.61742010088E+03  0.00000000000E+00 0.  1.
         -3    1    6    6    0  503 -0.39119646271E+01  0.77948137588E+01 -0.20655863855E+01  0.89626578588E+01  0.00000000000E+00 0. -1.
<mgrwt>
<rscale>  0 0.24450380E+04</rscale>
<asrwt>0</asrwt>
<pdfrwt beam="1">  1        1 0.12332778E+00 0.24450380E+04</pdfrwt>
<pdfrwt beam="2">  1       -1 0.28682935E+00 0.24450380E+04</pdfrwt>
<totfact> 0.79078969E-01</totfact>
</mgrwt>
</event>
<event>
12    3  0.4806716E-008  0.1782680E+04  0.7818608E-02  0.8715565E-01
         -1   -1    0    0    0  501 -0.00000000000E+00  0.00000000000E+00  0.37701109963E+03  0.37701109963E+03  0.00000000000E+00 0.  1.
          1   -1    0    0  501    0  0.00000000000E+00 -0.00000000000E+00 -0.21073304234E+04  0.21073304234E+04  0.00000000000E+00 0. -1.
         23    2    1    2    0    0  0.91422260829E+00 -0.14994187487E+03  0.24973274803E+03  0.30529018318E+03  0.91390638837E+02 0.  0.
        254    2    1    2    0    0 -0.91422260829E+00  0.14994187487E+03 -0.19800520718E+04  0.21790513399E+04  0.89731551476E+03 0.  0.
         23    2    4    4    0    0  0.35616812236E+02 -0.99450336065E+02  0.37034108818E+02  0.14444539332E+03  0.91290852650E+02 0.  0.
         23    2    4    4    0    0 -0.36531034844E+02  0.24939221093E+03 -0.20170861806E+04  0.20346059466E+04  0.86334849525E+02 0.  0.
          1    1    3    3  502    0  0.54683962444E+00  0.12729010844E+02  0.14684629036E+02  0.19441324043E+02  0.00000000000E+00 0. -1.
         -1    1    3    3    0  502  0.36738298385E+00 -0.16267088571E+03  0.23504811899E+03  0.28584885914E+03  0.00000000000E+00 0.  1.
         13    1    5    5    0    0  0.46246437539E+02 -0.11307400598E+03  0.30048228733E+02  0.12580683552E+03  0.00000000000E+00 0. -1.
        -13    1    5    5    0    0 -0.10629625303E+02  0.13623669919E+02  0.69858800848E+01  0.18638557795E+02  0.00000000000E+00 0.  1.
          3    1    6    6  503    0 -0.34363164982E+02  0.21323586221E+03 -0.14106761314E+04  0.14271150997E+04  0.00000000000E+00 0. -1.
         -3    1    6    6    0  503 -0.21678698623E+01  0.36156348721E+02 -0.60641004927E+03  0.60749084690E+03  0.00000000000E+00 0.  1.
<mgrwt>
<rscale>  0 0.17826800E+04</rscale>
<asrwt>0</asrwt>
<pdfrwt beam="1">  1        1 0.32420468E+00 0.17826800E+04</pdfrwt>
<pdfrwt beam="2">  1       -1 0.58001708E-01 0.17826800E+04</pdfrwt>
<totfact> 0.71715640E+00</totfact>
</mgrwt>
</event>
<event>
12    3  0.4806716E-008  0.1545146E+04  0.7818608E-02  0.8854974E-01
          3   -1    0    0  501    0  0.00000000000E+00  0.00000000000E+00  0.60298315403E+03  0.60298315403E+03  0.00000000000E+00 0. -1.
         -3   -1    0    0    0  501 -0.00000000000E+00 -0.00000000000E+00 -0.98986036844E+03  0.98986036844E+03  0.00000000000E+00 0.  1.
         23    2    1    2    0    0 -0.25448933674E+03 -0.44101479863E+03 -0.24594634460E+03  0.57297563429E+03  0.92480257040E+02 0.  0.
        254    2    1    2    0    0  0.25448933674E+03  0.44101479863E+03 -0.14093086980E+03  0.10198678882E+04  0.87235894227E+03 0.  0.
         23    2    4    4    0    0  0.62558082125E+02  0.23779147598E+03  0.35604904721E+03  0.44249332948E+03  0.92580359299E+02 0.  0.
         23    2    4    4    0    0  0.19193125461E+03  0.20322332265E+03 -0.49697991701E+03  0.57737455870E+03  0.90746998578E+02 0.  0.
          3    1    3    3  502    0 -0.17393169505E+03 -0.22909387440E+03 -0.10601877279E+03  0.30655540774E+03  0.00000000000E+00 0. -1.
         -3    1    3    3    0  502 -0.80557641684E+02 -0.21192092423E+03 -0.13992757182E+03  0.26642022655E+03  0.00000000000E+00 0.  1.
         13    1    5    5    0    0  0.29347538870E+02  0.88940587636E+02  0.21601591489E+03  0.23544549614E+03  0.00000000000E+00 0.  1.
        -13    1    5    5    0    0  0.33210543255E+02  0.14885088834E+03  0.14003313232E+03  0.20704783334E+03  0.00000000000E+00 0. -1.
          4    1    6    6  503    0  0.17047319556E+03  0.12591096571E+03 -0.38711541702E+03  0.44133097306E+03  0.00000000000E+00 0. -1.
         -4    1    6    6    0  503  0.21458059052E+02  0.77312356935E+02 -0.10986450000E+03  0.13604358564E+03  0.00000000000E+00 0.  1.
<mgrwt>
<rscale>  0 0.15451461E+04</rscale>
<asrwt>0</asrwt>
<pdfrwt beam="1">  1        3 0.92766640E-01 0.15451461E+04</pdfrwt>
<pdfrwt beam="2">  1       -3 0.15228621E+00 0.15451461E+04</pdfrwt>
<totfact> 0.81393762E-01</totfact>
</mgrwt>
</event>
<event>
12    3  0.4806716E-008  0.2334806E+04  0.7818608E-02  0.8464323E-01
         -1   -1    0    0    0  501 -0.00000000000E+00  0.00000000000E+00  0.46984742305E+03  0.46984742305E+03  0.00000000000E+00 0.  1.
          1   -1    0    0  501    0  0.00000000000E+00 -0.00000000000E+00 -0.29005787450E+04  0.29005787450E+04  0.00000000000E+00 0. -1.
         23    2    1    2    0    0  0.68762969051E+02  0.91018947058E+02  0.38415818007E+03  0.41099254888E+03  0.91239099572E+02 0.  0.
        254    2    1    2    0    0 -0.68762969051E+02 -0.91018947058E+02 -0.28148895020E+04  0.29594336192E+04  0.90643899026E+03 0.  0.
         23    2    4    4    0    0  0.13978814691E+03 -0.45008432725E+03 -0.12914600608E+04  0.13778677353E+04  0.92378458748E+02 0.  0.
         23    2    4    4    0    0 -0.20855111596E+03  0.35906538019E+03 -0.15234294412E+04  0.15815658839E+04  0.89954808072E+02 0.  0.
          1    1    3    3  502    0  0.52555376664E+02  0.16215145299E+02  0.78191052696E+02  0.95597276504E+02  0.00000000000E+00 0. -1.
         -1    1    3    3    0  502  0.16207592387E+02  0.74803801759E+02  0.30596712737E+03  0.31539527238E+03  0.00000000000E+00 0.  1.
         13    1    5    5    0    0  0.58765276678E+02 -0.70992937497E+02 -0.27225496219E+03  0.28743019910E+03  0.00000000000E+00 0. -1.
        -13    1    5    5    0    0  0.81022870230E+02 -0.37909138975E+03 -0.10192050986E+04  0.10904375362E+04  0.00000000000E+00 0.  1.
          3    1    6    6  503    0 -0.12888043369E+03  0.16388845368E+03 -0.63006059621E+03  0.66366101764E+03  0.00000000000E+00 0. -1.
         -3    1    6    6    0  503 -0.79670682267E+02  0.19517692651E+03 -0.89336884500E+03  0.91790486624E+03  0.00000000000E+00 0.  1.
<mgrwt>
<rscale>  0 0.23348057E+04</rscale>
<asrwt>0</asrwt>
<pdfrwt beam="1">  1        1 0.44624289E+00 0.23348057E+04</pdfrwt>
<pdfrwt beam="2">  1       -1 0.72284219E-01 0.23348057E+04</pdfrwt>
<totfact> 0.12284324E+00</totfact>
</mgrwt>
</event>
<event>
12    3  0.4806716E-008  0.1182179E+04  0.7818608E-02  0.9128600E-01
         -2   -1    0    0    0  501 -0.00000000000E+00  0.00000000000E+00  0.57395749485E+03  0.57395749485E+03  0.00000000000E+00 0.  1.
          2   -1    0    0  501    0  0.00000000000E+00 -0.00000000000E+00 -0.60873310016E+03  0.60873310016E+03  0.00000000000E+00 0. -1.
         23    2    1    2    0    0  0.56128084414E+02 -0.96488034982E+01  0.21819359298E+03  0.24663637105E+03  0.99887908369E+02 0.  0.
        254    2    1    2    0    0 -0.56128084414E+02  0.96488034982E+01 -0.25296919828E+03  0.93605422396E+03  0.89942238890E+03 0.  0.
         23    2    4    4    0    0  0.16801883569E+03 -0.22683372010E+03  0.20936198038E+03  0.36313152022E+03  0.91368465171E+02 0.  0.
         23    2    4    4    0    0 -0.22414692010E+03  0.23648252360E+03 -0.46233117866E+03  0.57292270374E+03  0.91238587990E+02 0.  0.
          3    1    3    3  502    0  0.73114820809E+02  0.16345341276E+02  0.10322088860E+03  0.12754410628E+03  0.00000000000E+00 0.  1.
         -3    1    3    3    0  502 -0.16986736395E+02 -0.25994144774E+02  0.11497270437E+03  0.11909226476E+03  0.00000000000E+00 0. -1.
         13    1    5    5    0    0  0.89775333274E+02 -0.17542010239E+03  0.10632638643E+03  0.22391320470E+03  0.00000000000E+00 0.  1.
        -13    1    5    5    0    0  0.78243502416E+02 -0.51413617709E+02  0.10303559394E+03  0.13921831552E+03  0.00000000000E+00 0. -1.
          4    1    6    6  503    0 -0.16008366219E+03  0.20062223813E+03 -0.40625204720E+03  0.48053801846E+03  0.00000000000E+00 0.  1.
         -4    1    6    6    0  503 -0.64063257915E+02  0.35860285465E+02 -0.56079131462E+02  0.92384685278E+02  0.00000000000E+00 0. -1.
<mgrwt>
<rscale>  0 0.11821792E+04</rscale>
<asrwt>0</asrwt>
<pdfrwt beam="1">  1        2 0.93651246E-01 0.11821792E+04</pdfrwt>
<pdfrwt beam="2">  1       -2 0.88301153E-01 0.11821792E+04</pdfrwt>
<totfact> 0.53186326E+01</totfact>
</mgrwt>
</event>
<event>
12    3  0.4806716E-008  0.2035036E+04  0.7818608E-02  0.8590413E-01
         -1   -1    0    0    0  501 -0.00000000000E+00  0.00000000000E+00  0.56044204585E+03  0.56044204585E+03  0.00000000000E+00 0.  1.
          1   -1    0    0  501    0  0.00000000000E+00 -0.00000000000E+00 -0.18473690431E+04  0.18473690431E+04  0.00000000000E+00 0. -1.
         23    2    1    2    0    0 -0.72329558235E+02  0.81298322542E+03 -0.50104435907E+03  0.96203462842E+03  0.91059797431E+02 0.  0.
        254    2    1    2    0    0  0.72329558235E+02 -0.81298322542E+03 -0.78588263821E+03  0.14457764606E+04  0.89804496719E+03 0.  0.
         23    2    4    4    0    0 -0.28357419874E+03 -0.65340051914E+03 -0.21716865787E+03  0.75017772529E+03  0.90872597400E+02 0.  0.
         23    2    4    4    0    0  0.35590375698E+03 -0.15958270628E+03 -0.56871398034E+03  0.69559873528E+03  0.91037820238E+02 0.  0.
          1    1    3    3  502    0 -0.39888440353E+02  0.64347930732E+03 -0.43247091243E+03  0.77632969589E+03  0.00000000000E+00 0. -1.
         -1    1    3    3    0  502 -0.32441117881E+02  0.16950391810E+03 -0.68573446642E+02  0.18570493253E+03  0.00000000000E+00 0.  1.
         13    1    5    5    0    0 -0.22769921077E+03 -0.41883024640E+03 -0.15253837129E+03  0.50053337611E+03  0.00000000000E+00 0. -1.
        -13    1    5    5    0    0 -0.55874987968E+02 -0.23457027274E+03 -0.64630286583E+02  0.24964434918E+03  0.00000000000E+00 0.  1.
          3    1    6    6  503    0  0.26839396745E+03 -0.10121191273E+03 -0.47408215908E+03  0.55410564570E+03  0.00000000000E+00 0. -1.
         -3    1    6    6    0  503  0.87509789529E+02 -0.58370793546E+02 -0.94631821255E+02  0.14149308957E+03  0.00000000000E+00 0.  1.
<mgrwt>
<rscale>  0 0.20350364E+04</rscale>
<asrwt>0</asrwt>
<pdfrwt beam="1">  1        1 0.28421062E+00 0.20350364E+04</pdfrwt>
<pdfrwt beam="2">  1       -1 0.86221852E-01 0.20350364E+04</pdfrwt>
<totfact> 0.46429341E+00</totfact>
</mgrwt>
</event>
<event>
12    3  0.4806716E-008  0.1170945E+04  0.7818608E-02  0.9138676E-01
         -2   -1    0    0    0  501 -0.00000000000E+00  0.00000000000E+00  0.14098255494E+03  0.14098255494E+03  0.00000000000E+00 0.  1.
          2   -1    0    0  501    0  0.00000000000E+00 -0.00000000000E+00 -0.24313493598E+04  0.24313493598E+04  0.00000000000E+00 0. -1.
         23    2    1    2    0    0  0.43597012632E+02 -0.96349418911E+02 -0.45885242164E+02  0.14897906319E+03  0.94368404593E+02 0.  0.
        254    2    1    2    0    0 -0.43597012632E+02  0.96349418911E+02 -0.22444815627E+04  0.24233528516E+04  0.90761095619E+03 0.  0.
         23    2    4    4    0    0 -0.10785870462E+03 -0.45142137129E+02 -0.22393261456E+04  0.22440461827E+04  0.86546929089E+02 0.  0.
         23    2    4    4    0    0  0.64261691989E+02  0.14149155604E+03 -0.51554171398E+01  0.17930666891E+03  0.89302170756E+02 0.  0.
          3    1    3    3  502    0  0.40122665057E+01 -0.91498949370E+02 -0.56624355717E+02  0.10767763778E+03  0.00000000000E+00 0. -1.
         -3    1    3    3    0  502  0.39584746127E+02 -0.48504695411E+01  0.10739113553E+02  0.41301425406E+02  0.00000000000E+00 0.  1.
         13    1    5    5    0    0 -0.16010844845E+02  0.23962996031E+02 -0.60280465890E+03  0.60349318896E+03  0.00000000000E+00 0. -1.
        -13    1    5    5    0    0 -0.91847859776E+02 -0.69105133159E+02 -0.16365214867E+04  0.16405529937E+04  0.00000000000E+00 0.  1.
          1    1    6    6  503    0  0.21387985513E+02  0.62165976845E+02  0.41536258493E+02  0.77764486567E+02  0.00000000000E+00 0. -1.
         -1    1    6    6    0  503  0.42873706476E+02  0.79325579195E+02 -0.46691675633E+02  0.10154218234E+03  0.00000000000E+00 0.  1.
<mgrwt>
<rscale>  0 0.11709447E+04</rscale>
<asrwt>0</asrwt>
<pdfrwt beam="1">  1        2 0.37405373E+00 0.11709447E+04</pdfrwt>
<pdfrwt beam="2">  1       -2 0.21689625E-01 0.11709447E+04</pdfrwt>
<totfact> 0.70246781E+01</totfact>
</mgrwt>
</event>
<event>
12    3  0.4806716E-008  0.1615125E+04  0.7818608E-02  0.8811309E-01
          1   -1    0    0  501    0  0.00000000000E+00  0.00000000000E+00  0.94431953553E+03  0.94431953553E+03  0.00000000000E+00 0. -1.
         -1   -1    0    0    0  501 -0.00000000000E+00 -0.00000000000E+00 -0.69061098077E+03  0.69061098077E+03  0.00000000000E+00 0.  1.
         23    2    1    2    0    0  0.34585423054E+03  0.43112946417E+03  0.18136723515E+03  0.58868846439E+03  0.90400610965E+02 0.  0.
        254    2    1    2    0    0 -0.34585423054E+03 -0.43112946417E+03  0.72341319617E+02  0.10462420519E+04  0.88538206499E+03 0.  0.
         23    2    4    4    0    0  0.99541155302E+02  0.20955293156E+03  0.77038694935E+02  0.26083133595E+03  0.90978857847E+02 0.  0.
         23    2    4    4    0    0 -0.44539538584E+03 -0.64068239572E+03 -0.46973753175E+01  0.78541071596E+03  0.89425642252E+02 0.  0.
          2    1    3    3  502    0  0.28875415934E+03  0.40447930396E+03  0.15805949549E+03  0.52150290122E+03  0.00000000000E+00 0. -1.
         -2    1    3    3    0  502  0.57100071198E+02  0.26650160208E+02  0.23307739657E+02  0.67185563166E+02  0.00000000000E+00 0.  1.
         13    1    5    5    0    0  0.55594362653E+02  0.37559834877E+02 -0.55446524006E+00  0.67095318663E+02  0.00000000000E+00 0.  1.
        -13    1    5    5    0    0  0.43946792649E+02  0.17199309668E+03  0.77593160175E+02  0.19373601729E+03  0.00000000000E+00 0. -1.
          1    1    6    6  503    0 -0.38036835086E+03 -0.52329318992E+03 -0.34858311895E+02  0.64786645758E+03  0.00000000000E+00 0. -1.
         -1    1    6    6    0  503 -0.65027034986E+02 -0.11738920580E+03  0.30160936578E+02  0.13754425838E+03  0.00000000000E+00 0.  1.
<mgrwt>
<rscale>  0 0.16151253E+04</rscale>
<asrwt>0</asrwt>
<pdfrwt beam="1">  1        1 0.14527993E+00 0.16151253E+04</pdfrwt>
<pdfrwt beam="2">  1       -1 0.10624784E+00 0.16151253E+04</pdfrwt>
<totfact> 0.13297038E+01</totfact>
</mgrwt>
</event>
<event>
12    3  0.4806716E-008  0.1681055E+04  0.7818608E-02  0.8772244E-01
         -1   -1    0    0    0  501 -0.00000000000E+00  0.00000000000E+00  0.40735871252E+03  0.40735871252E+03  0.00000000000E+00 0.  1.
          1   -1    0    0  501    0  0.00000000000E+00 -0.00000000000E+00 -0.17343106882E+04  0.17343106882E+04  0.00000000000E+00 0. -1.
         23    2    1    2    0    0  0.33728310812E+03 -0.89650899597E+02 -0.87665062003E+03  0.94803911353E+03  0.92003654078E+02 0.  0.
        254    2    1    2    0    0 -0.33728310812E+03  0.89650899597E+02 -0.45030135568E+03  0.11936302872E+04  0.10488969314E+04 0.  0.
         23    2    4    4    0    0  0.30408998425E+03  0.27782776684E+03 -0.24786014300E+03  0.48925242571E+03  0.90963174006E+02 0.  0.
         23    2    4    4    0    0 -0.64137309237E+03 -0.18817686725E+03 -0.20244121267E+03  0.70437786149E+03  0.91628326346E+02 0.  0.
          3    1    3    3  502    0  0.31946511751E+03 -0.85120062661E+02 -0.86559954469E+03  0.92658834340E+03  0.00000000000E+00 0. -1.
         -3    1    3    3    0  502  0.17817990615E+02 -0.45308369359E+01 -0.11051075348E+02  0.21450770131E+02  0.00000000000E+00 0.  1.
         13    1    5    5    0    0  0.29813362017E+03  0.26662225071E+03 -0.25534139223E+03  0.47452113403E+03  0.00000000000E+00 0. -1.
        -13    1    5    5    0    0  0.59563640788E+01  0.11205516130E+02  0.74812492251E+01  0.14731291687E+02  0.00000000000E+00 0.  1.
          4    1    6    6  503    0 -0.41263806076E+03 -0.12828493863E+03 -0.85112232222E+02  0.44042171465E+03  0.00000000000E+00 0. -1.
         -4    1    6    6    0  503 -0.22873503161E+03 -0.59891928621E+02 -0.11732898045E+03  0.26395614684E+03  0.00000000000E+00 0.  1.
<mgrwt>
<rscale>  0 0.16810551E+04</rscale>
<asrwt>0</asrwt>
<pdfrwt beam="1">  1        1 0.26681703E+00 0.16810551E+04</pdfrwt>
<pdfrwt beam="2">  1       -1 0.62670571E-01 0.16810551E+04</pdfrwt>
<totfact> 0.11115419E+01</totfact>
</mgrwt>
</event>
<event>
12    3  0.4806716E-008  0.2423498E+04  0.7818608E-02  0.8430758E-01
         -2   -1    0    0    0  501 -0.00000000000E+00  0.00000000000E+00  0.68364147377E+03  0.68364147377E+03  0.00000000000E+00 0.  1.
          2   -1    0    0  501    0  0.00000000000E+00 -0.00000000000E+00 -0.21478160772E+04  0.21478160772E+04  0.00000000000E+00 0. -1.
         23    2    1    2    0    0  0.72749214500E+03  0.45878559049E+03 -0.13073537040E+04  0.15675725782E+04  0.91548028966E+02 0.  0.
        254    2    1    2    0    0 -0.72749214500E+03 -0.45878559049E+03 -0.15682089942E+03  0.12638849727E+04  0.91273401968E+03 0.  0.
         23    2    4    4    0    0 -0.44188278373E+03 -0.39119906406E+03 -0.51720006722E+03  0.78935676122E+03  0.85387848553E+02 0.  0.
         23    2    4    4    0    0 -0.28560936127E+03 -0.67586526432E+02  0.36037916779E+03  0.47452821149E+03  0.95724777989E+02 0.  0.
          4    1    3    3  502    0  0.71992219381E+03  0.45121064683E+03 -0.13039595782E+04  0.15563385219E+04  0.00000000000E+00 0. -1.
         -4    1    3    3    0  502  0.75699511912E+01  0.75749436631E+01 -0.33941257203E+01  0.11234056344E+02  0.00000000000E+00 0.  1.
         13    1    5    5    0    0 -0.10955929457E+03 -0.52039018019E+02 -0.11328347334E+03  0.16596518839E+03  0.00000000000E+00 0.  1.
        -13    1    5    5    0    0 -0.33232348916E+03 -0.33916004604E+03 -0.40391659387E+03  0.62339157284E+03  0.00000000000E+00 0. -1.
          4    1    6    6  503    0 -0.25169143906E+03 -0.80384333221E+02  0.34642348619E+03  0.43568274387E+03  0.00000000000E+00 0. -1.
         -4    1    6    6    0  503 -0.33917922211E+02  0.12797806789E+02  0.13955681608E+02  0.38845467623E+02  0.00000000000E+00 0.  1.
<mgrwt>
<rscale>  0 0.24234984E+04</rscale>
<asrwt>0</asrwt>
<pdfrwt beam="1">  1        2 0.33043324E+00 0.24234984E+04</pdfrwt>
<pdfrwt beam="2">  1       -2 0.10517561E+00 0.24234984E+04</pdfrwt>
<totfact> 0.36297334E+00</totfact>
</mgrwt>
</event>
<event>
12    3  0.4806716E-008  0.1505156E+04  0.7818608E-02  0.8881031E-01
         -4   -1    0    0    0  501 -0.00000000000E+00  0.00000000000E+00  0.50761569523E+03  0.50761569523E+03  0.00000000000E+00 0.  1.
          4   -1    0    0  501    0  0.00000000000E+00 -0.00000000000E+00 -0.11157531735E+04  0.11157531735E+04  0.00000000000E+00 0. -1.
         23    2    1    2    0    0 -0.17895120848E+01  0.38005145863E+03 -0.51139776933E+03  0.64343811454E+03  0.89680628864E+02 0.  0.
        254    2    1    2    0    0  0.17895120848E+01 -0.38005145863E+03 -0.96739708953E+02  0.97993075421E+03  0.89803307189E+03 0.  0.
         23    2    4    4    0    0  0.10192725685E+03 -0.76783920825E+02  0.37296867452E+03  0.40456893576E+03  0.91024477029E+02 0.  0.
         23    2    4    4    0    0 -0.10013774476E+03 -0.30326753781E+03 -0.46970838348E+03  0.57536181846E+03  0.91741425830E+02 0.  0.
          1    1    3    3  502    0 -0.15540454183E+01  0.30410381602E+03 -0.46106854276E+03  0.55232757228E+03  0.00000000000E+00 0. -1.
         -1    1    3    3    0  502 -0.23546666649E+00  0.75947642613E+02 -0.50329226577E+02  0.91110542260E+02  0.00000000000E+00 0.  1.
         13    1    5    5    0    0  0.37239549666E+02 -0.76056874792E+02  0.26996086527E+03  0.28293161902E+03  0.00000000000E+00 0.  1.
        -13    1    5    5    0    0  0.64687707184E+02 -0.72704603217E+00  0.10300780925E+03  0.12163731674E+03  0.00000000000E+00 0. -1.
          3    1    6    6  503    0  0.13986713458E+02 -0.40141527415E+02 -0.37717152615E+02  0.56829164854E+02  0.00000000000E+00 0. -1.
         -3    1    6    6    0  503 -0.11412445822E+03 -0.26312601039E+03 -0.43199123086E+03  0.51853265360E+03  0.00000000000E+00 0.  1.
<mgrwt>
<rscale>  0 0.15051562E+04</rscale>
<asrwt>0</asrwt>
<pdfrwt beam="1">  1        4 0.17165433E+00 0.15051562E+04</pdfrwt>
<pdfrwt beam="2">  1       -4 0.78094722E-01 0.15051562E+04</pdfrwt>
<totfact> 0.58252596E-01</totfact>
</mgrwt>
</event>
<event>
12    3  0.4806716E-008  0.1948519E+04  0.7818608E-02  0.8631075E-01
          2   -1    0    0  501    0  0.00000000000E+00  0.00000000000E+00  0.10393885242E+04  0.10393885242E+04  0.00000000000E+00 0. -1.
         -2   -1    0    0    0  501 -0.00000000000E+00 -0.00000000000E+00 -0.91321157570E+03  0.91321157570E+03  0.00000000000E+00 0.  1.
         23    2    1    2    0    0 -0.52764158098E+03 -0.18862703274E+03 -0.46985000560E+03  0.73677667438E+03  0.89972466254E+02 0.  0.
        254    2    1    2    0    0  0.52764158098E+03  0.18862703274E+03  0.59602695415E+03  0.12158234256E+04  0.89944020181E+03 0.  0.
         23    2    4    4    0    0  0.45544535500E+03  0.21781571617E+03 -0.88873344852E+02  0.52040458455E+03  0.89712332449E+02 0.  0.
         23    2    4    4    0    0  0.72196225985E+02 -0.29188683425E+02  0.68490029900E+03  0.69541884103E+03  0.91949282755E+02 0.  0.
          1    1    3    3  502    0 -0.29564631508E+03 -0.12994734500E+03 -0.31879516898E+03  0.45378785336E+03  0.00000000000E+00 0. -1.
         -1    1    3    3    0  502 -0.23199526590E+03 -0.58679687743E+02 -0.15105483662E+03  0.28298882102E+03  0.00000000000E+00 0.  1.
         13    1    5    5    0    0  0.42273774330E+03  0.22472580600E+03 -0.89079421406E+02  0.48697436361E+03  0.00000000000E+00 0. -1.
        -13    1    5    5    0    0  0.32707611696E+02 -0.69100898334E+01  0.20607655473E+00  0.33430220937E+02  0.00000000000E+00 0.  1.
          3    1    6    6  503    0  0.61078887979E+02  0.17014534828E+02  0.51860910510E+03  0.52247060094E+03  0.00000000000E+00 0. -1.
         -3    1    6    6    0  503  0.11117338005E+02 -0.46203218253E+02  0.16629119390E+03  0.17294824009E+03  0.00000000000E+00 0.  1.
<mgrwt>
<rscale>  0 0.19485191E+04</rscale>
<asrwt>0</asrwt>
<pdfrwt beam="1">  1        2 0.15990593E+00 0.19485191E+04</pdfrwt>
<pdfrwt beam="2">  1       -2 0.14049409E+00 0.19485191E+04</pdfrwt>
<totfact> 0.78925346E+00</totfact>
</mgrwt>
</event>
<event>
12    3  0.4806716E-008  0.1964097E+04  0.7818608E-02  0.8623593E-01
         -1   -1    0    0    0  501 -0.00000000000E+00  0.00000000000E+00  0.11102274510E+04  0.11102274510E+04  0.00000000000E+00 0.  1.
          1   -1    0    0  501    0  0.00000000000E+00 -0.00000000000E+00 -0.86866849764E+03  0.86866849764E+03  0.00000000000E+00 0. -1.
         23    2    1    2    0    0 -0.26691866115E+03  0.54017754135E+03 -0.39007601454E+03  0.72496340658E+03  0.10185919647E+03 0.  0.
        254    2    1    2    0    0  0.26691866115E+03 -0.54017754135E+03  0.63163496789E+03  0.12539325421E+04  0.90019261245E+03 0.  0.
         23    2    4    4    0    0 -0.20941323573E+03 -0.53764372627E+03  0.44430308972E+03  0.73403560134E+03  0.92132235383E+02 0.  0.
         23    2    4    4    0    0  0.47633189688E+03 -0.25338150751E+01  0.18733187818E+03  0.51989694072E+03  0.91110373657E+02 0.  0.
          2    1    3    3  502    0 -0.22222581897E+03  0.42311510385E+03 -0.25884591827E+03  0.54351809090E+03  0.00000000000E+00 0. -1.
         -2    1    3    3    0  502 -0.44692842185E+02  0.11706243749E+03 -0.13123009627E+03  0.18144531568E+03  0.00000000000E+00 0.  1.
         13    1    5    5    0    0 -0.15260949387E+02 -0.33307252772E+02  0.62170941114E+02  0.72162979307E+02  0.00000000000E+00 0. -1.
        -13    1    5    5    0    0 -0.19415228634E+03 -0.50433647350E+03  0.38213214860E+03  0.66187262203E+03  0.00000000000E+00 0.  1.
          3    1    6    6  503    0  0.16650695211E+03 -0.43986200858E+02  0.73138497026E+02  0.18710582758E+03  0.00000000000E+00 0. -1.
         -3    1    6    6    0  503  0.30982494477E+03  0.41452385783E+02  0.11419338115E+03  0.33279111315E+03  0.00000000000E+00 0.  1.
<mgrwt>
<rscale>  0 0.19640974E+04</rscale>
<asrwt>0</asrwt>
<pdfrwt beam="1">  1        1 0.13364131E+00 0.19640974E+04</pdfrwt>
<pdfrwt beam="2">  1       -1 0.17080422E+00 0.19640974E+04</pdfrwt>
<totfact> 0.43631378E+00</totfact>
</mgrwt>
</event>
<event>
12    3  0.4806716E-008  0.1384086E+04  0.7818608E-02  0.8965419E-01
         -1   -1    0    0    0  501 -0.00000000000E+00  0.00000000000E+00  0.30268954030E+03  0.30268954030E+03  0.00000000000E+00 0.  1.
          1   -1    0    0  501    0  0.00000000000E+00 -0.00000000000E+00 -0.15822266940E+04  0.15822266940E+04  0.00000000000E+00 0. -1.
         23    2    1    2    0    0  0.15123833049E+03 -0.31882707818E+03 -0.44965208495E+03  0.57476433888E+03  0.60359832324E+02 0.  0.
        254    2    1    2    0    0 -0.15123833049E+03  0.31882707818E+03 -0.82988506871E+03  0.13101518954E+04  0.95040255856E+03 0.  0.
         23    2    4    4    0    0  0.26503089104E+03  0.45000564234E+01 -0.71550254339E+03  0.76876952674E+03  0.93814028411E+02 0.  0.
         23    2    4    4    0    0 -0.41626922153E+03  0.31432702176E+03 -0.11438252532E+03  0.54138236864E+03  0.89050354193E+02 0.  0.
          1    1    3    3  502    0 -0.30815516212E+01 -0.30169800104E+02 -0.45683118341E+02  0.54833020162E+02  0.00000000000E+00 0.  1.
         -1    1    3    3    0  502  0.15431988211E+03 -0.28865727807E+03 -0.40396896661E+03  0.51993131871E+03  0.00000000000E+00 0. -1.
         13    1    5    5    0    0  0.24961727633E+03  0.18941457263E+01 -0.56789197922E+03  0.62033351715E+03  0.00000000000E+00 0.  1.
        -13    1    5    5    0    0  0.15413614712E+02  0.26059106971E+01 -0.14761056417E+03  0.14843600959E+03  0.00000000000E+00 0. -1.
          2    1    6    6  503    0 -0.10417242788E+03  0.45045947952E+02  0.38097132349E+00  0.11349527433E+03  0.00000000000E+00 0. -1.
         -2    1    6    6    0  503 -0.31209679365E+03  0.26928107380E+03 -0.11476349664E+03  0.42788709431E+03  0.00000000000E+00 0.  1.
<mgrwt>
<rscale>  0 0.13840859E+04</rscale>
<asrwt>0</asrwt>
<pdfrwt beam="1">  1        1 0.24341949E+00 0.13840859E+04</pdfrwt>
<pdfrwt beam="2">  1       -1 0.46567622E-01 0.13840859E+04</pdfrwt>
<totfact> 0.25733351E+01</totfact>
</mgrwt>
</event>
<event>
12    3  0.4806716E-008  0.2066638E+04  0.7818608E-02  0.8576084E-01
         -2   -1    0    0    0  501 -0.00000000000E+00  0.00000000000E+00  0.71446364757E+03  0.71446364757E+03  0.00000000000E+00 0.  1.
          2   -1    0    0  501    0  0.00000000000E+00 -0.00000000000E+00 -0.14944750429E+04  0.14944750429E+04  0.00000000000E+00 0. -1.
         23    2    1    2    0    0  0.83511607354E+03 -0.89392962642E+02 -0.32456193793E+03  0.90496113945E+03  0.90577338822E+02 0.  0.
        254    2    1    2    0    0 -0.83511607354E+03  0.89392962642E+02 -0.45544945743E+03  0.13039775511E+04  0.88741945400E+03 0.  0.
         23    2    4    4    0    0 -0.74412830580E+03  0.35453390342E+03 -0.54811963339E+03  0.99420230651E+03  0.92638380770E+02 0.  0.
         23    2    4    4    0    0 -0.90987767742E+02 -0.26514094078E+03  0.92670175952E+02  0.30977524455E+03  0.93778719699E+02 0.  0.
          1    1    3    3  502    0  0.18310869931E+03 -0.44085381507E+02 -0.10412959334E+03  0.21520987160E+03  0.00000000000E+00 0. -1.
         -1    1    3    3    0  502  0.65200737423E+03 -0.45307581135E+02 -0.22043234459E+03  0.68975126785E+03  0.00000000000E+00 0.  1.
         13    1    5    5    0    0 -0.52715815856E+03  0.21107584178E+03 -0.40335568286E+03  0.69652318125E+03  0.00000000000E+00 0. -1.
        -13    1    5    5    0    0 -0.21697014724E+03  0.14345806164E+03 -0.14476395052E+03  0.29767912526E+03  0.00000000000E+00 0.  1.
          4    1    6    6  503    0 -0.80262206596E+02 -0.21000888236E+03  0.11094925789E+03  0.25070997248E+03  0.00000000000E+00 0. -1.
         -4    1    6    6    0  503 -0.10725561146E+02 -0.55132058424E+02 -0.18279081936E+02  0.59065272067E+02  0.00000000000E+00 0.  1.
<mgrwt>
<rscale>  0 0.20666379E+04</rscale>
<asrwt>0</asrwt>
<pdfrwt beam="1">  1        2 0.22991923E+00 0.20666379E+04</pdfrwt>
<pdfrwt beam="2">  1       -2 0.10991749E+00 0.20666379E+04</pdfrwt>
<totfact> 0.77775782E+00</totfact>
</mgrwt>
</event>
<event>
12    3  0.4806716E-008  0.1259855E+04  0.7818608E-02  0.9062020E-01
         -1   -1    0    0    0  501 -0.00000000000E+00  0.00000000000E+00  0.72611861163E+03  0.72611861163E+03  0.00000000000E+00 0.  1.
          1   -1    0    0  501    0  0.00000000000E+00 -0.00000000000E+00 -0.54647927098E+03  0.54647927098E+03  0.00000000000E+00 0. -1.
         23    2    1    2    0    0 -0.29548527704E+03 -0.43182497476E+02  0.48501061611E+02  0.31582713989E+03  0.90654025167E+02 0.  0.
        254    2    1    2    0    0  0.29548527704E+03  0.43182497476E+02  0.13113827904E+03  0.95677074272E+03  0.89946469017E+03 0.  0.
         23    2    4    4    0    0  0.39740785998E+03 -0.34564050626E+03  0.91525924841E+02  0.54253730280E+03  0.92570855428E+02 0.  0.
         23    2    4    4    0    0 -0.10192258294E+03  0.38882300373E+03  0.39612354195E+02  0.41423343992E+03  0.91916608930E+02 0.  0.
          2    1    3    3  502    0 -0.18909863270E+03  0.58863100652E+01  0.42904449056E+00  0.18919071228E+03  0.00000000000E+00 0. -1.
         -2    1    3    3    0  502 -0.10638664434E+03 -0.49068807541E+02  0.48072017120E+02  0.12663642761E+03  0.00000000000E+00 0.  1.
         13    1    5    5    0    0  0.16632201748E+02  0.22569714157E+01 -0.56077845152E+01  0.17696646635E+02  0.00000000000E+00 0. -1.
        -13    1    5    5    0    0  0.38077565823E+03 -0.34789747767E+03  0.97133709356E+02  0.52484065617E+03  0.00000000000E+00 0.  1.
          2    1    6    6  503    0 -0.59923319338E+01  0.12451465707E+01 -0.10168949263E+02  0.11868696689E+02  0.00000000000E+00 0. -1.
         -2    1    6    6    0  503 -0.95930251007E+02  0.38757785716E+03  0.49781303458E+02  0.40236474323E+03  0.00000000000E+00 0.  1.
<mgrwt>
<rscale>  0 0.12598552E+04</rscale>
<asrwt>0</asrwt>
<pdfrwt beam="1">  1        1 0.84073734E-01 0.12598552E+04</pdfrwt>
<pdfrwt beam="2">  1       -1 0.11171056E+00 0.12598552E+04</pdfrwt>
<totfact> 0.28394235E+01</totfact>
</mgrwt>
</event>
<event>
12    3  0.4806716E-008  0.1573589E+04  0.7818608E-02  0.8836940E-01
         -1   -1    0    0    0  501 -0.00000000000E+00  0.00000000000E+00  0.46832979206E+03  0.46832979206E+03  0.00000000000E+00 0.  1.
          1   -1    0    0  501    0  0.00000000000E+00 -0.00000000000E+00 -0.13218147690E+04  0.13218147690E+04  0.00000000000E+00 0. -1.
         23    2    1    2    0    0 -0.46141819333E+03  0.27174455318E+03 -0.21873034434E+03  0.58443869114E+03  0.83509094364E+02 0.  0.
        254    2    1    2    0    0  0.46141819333E+03 -0.27174455318E+03 -0.63475463264E+03  0.12057058700E+04  0.87410602896E+03 0.  0.
         23    2    4    4    0    0  0.41733025681E+03  0.57611077497E+02  0.56106692365E+02  0.43382570680E+03  0.87024154402E+02 0.  0.
         23    2    4    4    0    0  0.44087936525E+02 -0.32935563068E+03 -0.69086132501E+03  0.77188016316E+03  0.89948531316E+02 0.  0.
          1    1    3    3  502    0 -0.28199878151E+03  0.17152342950E+03 -0.17773131131E+03  0.37487600438E+03  0.00000000000E+00 0. -1.
         -1    1    3    3    0  502 -0.17941941182E+03  0.10022112368E+03 -0.40999033025E+02  0.20956268676E+03  0.00000000000E+00 0.  1.
         13    1    5    5    0    0  0.15808177028E+03  0.40182594952E+02  0.60465099118E+02  0.17395549788E+03  0.00000000000E+00 0.  1.
        -13    1    5    5    0    0  0.25924848653E+03  0.17428482545E+02 -0.43584067526E+01  0.25987020891E+03  0.00000000000E+00 0. -1.
          3    1    6    6  503    0  0.57172246974E+01 -0.19445320965E+03 -0.30966527671E+03  0.36570113617E+03  0.00000000000E+00 0. -1.
         -3    1    6    6    0  503  0.38370711828E+02 -0.13490242103E+03 -0.38119604830E+03  0.40617902699E+03  0.00000000000E+00 0.  1.
<mgrwt>
<rscale>  0 0.15735886E+04</rscale>
<asrwt>0</asrwt>
<pdfrwt beam="1">  1        1 0.20335612E+00 0.15735886E+04</pdfrwt>
<pdfrwt beam="2">  1       -1 0.72050736E-01 0.15735886E+04</pdfrwt>
<totfact> 0.16312060E+01</totfact>
</mgrwt>
</event>
<event>
12    3  0.4806716E-008  0.1550128E+04  0.7818608E-02  0.8851786E-01
          1   -1    0    0  501    0  0.00000000000E+00  0.00000000000E+00  0.63030131771E+03  0.63030131771E+03  0.00000000000E+00 0. -1.
         -1   -1    0    0    0  501 -0.00000000000E+00 -0.00000000000E+00 -0.95307449958E+03  0.95307449958E+03  0.00000000000E+00 0.  1.
         23    2    1    2    0    0 -0.86929820560E+02  0.22341040463E+03  0.35624051937E+03  0.43888558590E+03  0.90797837367E+02 0.  0.
        254    2    1    2    0    0  0.86929820560E+02 -0.22341040463E+03 -0.67901370124E+03  0.11444902314E+04  0.88956690624E+03 0.  0.
         23    2    4    4    0    0 -0.12400730463E+03  0.18876488875E+03  0.75344514276E+02  0.25467753480E+03  0.90409380441E+02 0.  0.
         23    2    4    4    0    0  0.21093712519E+03 -0.41217529338E+03 -0.75435821552E+03  0.88981269660E+03  0.91254448910E+02 0.  0.
          2    1    3    3  502    0 -0.82156407628E+02  0.21549278423E+03  0.28302649812E+03  0.36509014504E+03  0.00000000000E+00 0.  1.
         -2    1    3    3    0  502 -0.47734129324E+01  0.79176204019E+01  0.73214021252E+02  0.73795440860E+02  0.00000000000E+00 0. -1.
         13    1    5    5    0    0 -0.13717993803E+03  0.16501654069E+03  0.75605758737E+02  0.22751928457E+03  0.00000000000E+00 0. -1.
        -13    1    5    5    0    0  0.13172633401E+02  0.23748348068E+02 -0.26124446113E+00  0.27158250226E+02  0.00000000000E+00 0.  1.
          1    1    6    6  503    0  0.19806054511E+03 -0.32359358441E+03 -0.56777072106E+03  0.68286483223E+03  0.00000000000E+00 0. -1.
         -1    1    6    6    0  503  0.12876580086E+02 -0.88581708972E+02 -0.18658749446E+03  0.20694786437E+03  0.00000000000E+00 0.  1.
<mgrwt>
<rscale>  0 0.15501279E+04</rscale>
<asrwt>0</asrwt>
<pdfrwt beam="1">  1        1 0.96969434E-01 0.15501279E+04</pdfrwt>
<pdfrwt beam="2">  1       -1 0.14662685E+00 0.15501279E+04</pdfrwt>
<totfact> 0.11390076E+01</totfact>
</mgrwt>
</event>
<event>
12    3  0.4806716E-008  0.1559003E+04  0.7818608E-02  0.8846137E-01
          1   -1    0    0  501    0  0.00000000000E+00  0.00000000000E+00  0.82801027578E+03  0.82801027578E+03  0.00000000000E+00 0. -1.
         -1   -1    0    0    0  501 -0.00000000000E+00 -0.00000000000E+00 -0.73383486100E+03  0.73383486100E+03  0.00000000000E+00 0.  1.
         23    2    1    2    0    0  0.31375718900E+03 -0.10489018947E+03  0.42455920758E+03  0.54452670057E+03  0.82542603504E+02 0.  0.
        254    2    1    2    0    0 -0.31375718900E+03  0.10489018947E+03 -0.33038379279E+03  0.10173184362E+04  0.90351415298E+03 0.  0.
         23    2    4    4    0    0 -0.26965641091E+03  0.39820928327E+03 -0.46605851729E+03  0.67594878709E+03  0.91711547877E+02 0.  0.
         23    2    4    4    0    0 -0.44100778088E+02 -0.29331909379E+03  0.13567472449E+03  0.34136964912E+03  0.10072058908E+03 0.  0.
          3    1    3    3  502    0  0.21803133922E+03 -0.90814235429E+02  0.35062913531E+03  0.42275960163E+03  0.00000000000E+00 0. -1.
         -3    1    3    3    0  502  0.95725849783E+02 -0.14075954042E+02  0.73930072264E+02  0.12176709894E+03  0.00000000000E+00 0.  1.
         13    1    5    5    0    0 -0.17622550016E+03  0.21189452429E+03 -0.31494880036E+03  0.41850622836E+03  0.00000000000E+00 0. -1.
        -13    1    5    5    0    0 -0.93430910755E+02  0.18631475898E+03 -0.15110971693E+03  0.25744255873E+03  0.00000000000E+00 0.  1.
          1    1    6    6  503    0 -0.15964017164E+02 -0.10281493849E+03  0.10232565290E+03  0.14593252092E+03  0.00000000000E+00 0. -1.
         -1    1    6    6    0  503 -0.28136760924E+02 -0.19050415531E+03  0.33349071588E+02  0.19543712820E+03  0.00000000000E+00 0.  1.
<mgrwt>
<rscale>  0 0.15590033E+04</rscale>
<asrwt>0</asrwt>
<pdfrwt beam="1">  1        1 0.12738620E+00 0.15590033E+04</pdfrwt>
<pdfrwt beam="2">  1       -1 0.11289767E+00 0.15590033E+04</pdfrwt>
<totfact> 0.14446542E+01</totfact>
</mgrwt>
</event>
<event>
12    3  0.4806716E-008  0.2466140E+04  0.7818608E-02  0.8415149E-01
          2   -1    0    0  501    0  0.00000000000E+00  0.00000000000E+00  0.10804457181E+04  0.10804457181E+04  0.00000000000E+00 0. -1.
         -2   -1    0    0    0  501 -0.00000000000E+00 -0.00000000000E+00 -0.14072539711E+04  0.14072539711E+04  0.00000000000E+00 0.  1.
         23    2    1    2    0    0 -0.81158944373E+03 -0.18864533059E+03 -0.81010596313E+03  0.11656446919E+04  0.90506300470E+02 0.  0.
        254    2    1    2    0    0  0.81158944373E+03  0.18864533059E+03  0.48329771008E+03  0.13220549972E+04  0.90553202771E+03 0.  0.
         23    2    4    4    0    0 -0.39463057007E+01 -0.14887592810E+03 -0.15147972848E+03  0.23067032514E+03  0.89905925625E+02 0.  0.
         23    2    4    4    0    0  0.81553574943E+03  0.33752125869E+03  0.63477743856E+03  0.10913846721E+04  0.95702389270E+02 0.  0.
          3    1    3    3  502    0 -0.30536376291E+03 -0.36312048118E+02 -0.25998801002E+03  0.40269015122E+03  0.00000000000E+00 0. -1.
         -3    1    3    3    0  502 -0.50622568082E+03 -0.15233328248E+03 -0.55011795311E+03  0.76295454072E+03  0.00000000000E+00 0.  1.
         13    1    5    5    0    0  0.40208845466E+02 -0.98330681766E+02 -0.83292062606E+02  0.13499348845E+03  0.00000000000E+00 0. -1.
        -13    1    5    5    0    0 -0.44155151167E+02 -0.50545246332E+02 -0.68187665874E+02  0.95676836688E+02  0.00000000000E+00 0.  1.
          1    1    6    6  503    0  0.11400084014E+03  0.84965361496E+02  0.10071973410E+03  0.17424054937E+03  0.00000000000E+00 0. -1.
         -1    1    6    6    0  503  0.70153490929E+03  0.25255589719E+03  0.53405770446E+03  0.91714412273E+03  0.00000000000E+00 0.  1.
<mgrwt>
<rscale>  0 0.24661399E+04</rscale>
<asrwt>0</asrwt>
<pdfrwt beam="1">  1        2 0.16622242E+00 0.24661399E+04</pdfrwt>
<pdfrwt beam="2">  1       -2 0.21650061E+00 0.24661399E+04</pdfrwt>
<totfact> 0.20841384E+00</totfact>
</mgrwt>
</event>
<event>
12    3  0.4806716E-008  0.2195443E+04  0.7818608E-02  0.8520327E-01
         -2   -1    0    0    0  501 -0.00000000000E+00  0.00000000000E+00  0.85957416914E+03  0.85957416914E+03  0.00000000000E+00 0.  1.
          2   -1    0    0  501    0  0.00000000000E+00 -0.00000000000E+00 -0.14018486937E+04  0.14018486937E+04  0.00000000000E+00 0. -1.
         23    2    1    2    0    0 -0.80437115162E+03 -0.22488528086E+03  0.16444322348E+03  0.85614880390E+03  0.91448682685E+02 0.  0.
        254    2    1    2    0    0  0.80437115162E+03  0.22488528086E+03 -0.70671774799E+03  0.14052740589E+04  0.88190638175E+03 0.  0.
         23    2    4    4    0    0  0.21713446814E+03 -0.38272657372E+02 -0.71529460589E+03  0.75514602909E+03  0.99934871155E+02 0.  0.
         23    2    4    4    0    0  0.58723668348E+03  0.26315793823E+03  0.85768578967E+01  0.65012802980E+03  0.92162192734E+02 0.  0.
          1    1    3    3  502    0 -0.78629558759E+02 -0.30493796863E+02 -0.97438804650E+01  0.84896539177E+02  0.00000000000E+00 0. -1.
         -1    1    3    3    0  502 -0.72574159286E+03 -0.19439148399E+03  0.17418710395E+03  0.77125226472E+03  0.00000000000E+00 0.  1.
         13    1    5    5    0    0  0.48821539406E+02  0.61269522157E+00 -0.59436489462E+02  0.76919531882E+02  0.00000000000E+00 0. -1.
        -13    1    5    5    0    0  0.16831292873E+03 -0.38885352594E+02 -0.65585811643E+03  0.67822649721E+03  0.00000000000E+00 0.  1.
          3    1    6    6  503    0  0.87742172234E+02  0.76958535736E+02  0.89966731614E+01  0.11705658947E+03  0.00000000000E+00 0. -1.
         -3    1    6    6    0  503  0.49949451125E+03  0.18619940249E+03 -0.41981526470E+00  0.53307144033E+03  0.00000000000E+00 0.  1.
<mgrwt>
<rscale>  0 0.21954434E+04</rscale>
<asrwt>0</asrwt>
<pdfrwt beam="1">  1        2 0.21566903E+00 0.21954434E+04</pdfrwt>
<pdfrwt beam="2">  1       -2 0.13224218E+00 0.21954434E+04</pdfrwt>
<totfact> 0.54899158E+00</totfact>
</mgrwt>
</event>
<event>
12    3  0.4806716E-008  0.1812421E+04  0.7818608E-02  0.8699722E-01
         -2   -1    0    0    0  501 -0.00000000000E+00  0.00000000000E+00  0.11153760128E+04  0.11153760128E+04  0.00000000000E+00 0.  1.
          2   -1    0    0  501    0  0.00000000000E+00 -0.00000000000E+00 -0.73626995177E+03  0.73626995177E+03  0.00000000000E+00 0. -1.
         23    2    1    2    0    0 -0.72569218788E+02  0.67270192836E+03  0.18597522264E+03  0.70690993148E+03  0.85677837578E+02 0.  0.
        254    2    1    2    0    0  0.72569218788E+02 -0.67270192836E+03  0.19313083839E+03  0.11447360331E+04  0.90295453307E+03 0.  0.
         23    2    4    4    0    0  0.38869662398E+03 -0.38743861656E+03 -0.16580023060E+03  0.58058053659E+03  0.91598558405E+02 0.  0.
         23    2    4    4    0    0 -0.31612740520E+03 -0.28526331180E+03  0.35893106899E+03  0.56415549650E+03  0.90156633531E+02 0.  0.
          3    1    3    3  502    0 -0.78735005990E+02  0.56947027716E+03  0.18350528556E+03  0.60346481883E+03  0.00000000000E+00 0. -1.
         -3    1    3    3    0  502  0.61657872022E+01  0.10323165120E+03  0.24699370731E+01  0.10344511265E+03  0.00000000000E+00 0.  1.
         13    1    5    5    0    0  0.16215363438E+01 -0.28090525328E+02 -0.10833679725E+02  0.30150880745E+02  0.00000000000E+00 0.  1.
        -13    1    5    5    0    0  0.38707508764E+03 -0.35934809123E+03 -0.15496655087E+03  0.55042965585E+03  0.00000000000E+00 0. -1.
          2    1    6    6  503    0 -0.31955971110E+03 -0.28444188801E+03  0.34443734096E+03  0.54923827112E+03  0.00000000000E+00 0. -1.
         -2    1    6    6    0  503  0.34323059047E+01 -0.82142378821E+00  0.14493728028E+02  0.14917225380E+02  0.00000000000E+00 0.  1.
<mgrwt>
<rscale>  0 0.18124214E+04</rscale>
<asrwt>0</asrwt>
<pdfrwt beam="1">  1        2 0.11327230E+00 0.18124214E+04</pdfrwt>
<pdfrwt beam="2">  1       -2 0.17159631E+00 0.18124214E+04</pdfrwt>
<totfact> 0.75169490E+00</totfact>
</mgrwt>
</event>
<event>
12    3  0.4806716E-008  0.1322526E+04  0.7818608E-02  0.9011890E-01
         -2   -1    0    0    0  501 -0.00000000000E+00  0.00000000000E+00  0.36982875233E+03  0.36982875233E+03  0.00000000000E+00 0. -1.
          2   -1    0    0  501    0  0.00000000000E+00 -0.00000000000E+00 -0.11823544594E+04  0.11823544594E+04  0.00000000000E+00 0.  1.
         23    2    1    2    0    0  0.55702490885E+02 -0.32116987891E+03 -0.35906573172E+02  0.34071436249E+03  0.92434496818E+02 0.  0.
        254    2    1    2    0    0 -0.55702490885E+02  0.32116987891E+03 -0.77661913387E+03  0.12114688492E+04  0.87078506816E+03 0.  0.
         23    2    4    4    0    0 -0.36492211932E+03 -0.10942589316E+03 -0.31947367517E+03  0.50543845306E+03  0.90897862695E+02 0.  0.
         23    2    4    4    0    0  0.30921962844E+03  0.43059577206E+03 -0.45714545871E+03  0.70603039617E+03  0.92018760924E+02 0.  0.
          3    1    3    3  502    0  0.79185627274E+02 -0.23059826118E+03 -0.11841392377E+02  0.24410272469E+03  0.00000000000E+00 0. -1.
         -3    1    3    3    0  502 -0.23483136389E+02 -0.90571617727E+02 -0.24065180795E+02  0.96611637803E+02  0.00000000000E+00 0.  1.
         13    1    5    5    0    0  0.54975433880E+01 -0.95037645439E+00 -0.60920916085E+01  0.82607371871E+01  0.00000000000E+00 0. -1.
        -13    1    5    5    0    0 -0.37041966271E+03 -0.10847551670E+03 -0.31338158356E+03  0.49717771587E+03  0.00000000000E+00 0.  1.
          3    1    6    6  503    0  0.85145937933E+02  0.17619386532E+03 -0.20596509196E+03  0.28410513552E+03  0.00000000000E+00 0. -1.
         -3    1    6    6    0  503  0.22407369051E+03  0.25440190674E+03 -0.25118036675E+03  0.42192526065E+03  0.00000000000E+00 0.  1.
<mgrwt>
<rscale>  0 0.13225259E+04</rscale>
<asrwt>0</asrwt>
<pdfrwt beam="1">  1        2 0.18190069E+00 0.13225259E+04</pdfrwt>
<pdfrwt beam="2">  1       -2 0.56896731E-01 0.13225259E+04</pdfrwt>
<totfact> 0.55011268E+01</totfact>
</mgrwt>
</event>
<event>
12    3  0.4806716E-008  0.1611594E+04  0.7818608E-02  0.8813457E-01
         -2   -1    0    0    0  501 -0.00000000000E+00  0.00000000000E+00  0.53033169898E+03  0.53033169898E+03  0.00000000000E+00 0.  1.
          2   -1    0    0  501    0  0.00000000000E+00 -0.00000000000E+00 -0.12243450987E+04  0.12243450987E+04  0.00000000000E+00 0. -1.
         23    2    1    2    0    0  0.27298532529E+03  0.45275685011E+03 -0.42453281863E+03  0.68379608022E+03  0.88539325069E+02 0.  0.
        254    2    1    2    0    0 -0.27298532529E+03 -0.45275685011E+03 -0.26948058105E+03  0.10708807174E+04  0.89143478406E+03 0.  0.
         23    2    4    4    0    0 -0.10224580401E+03  0.21167744149E+03  0.11671786294E+03  0.27738525802E+03  0.89766241806E+02 0.  0.
         23    2    4    4    0    0 -0.17073952128E+03 -0.66443429160E+03 -0.38619844399E+03  0.79349545940E+03  0.99302034071E+02 0.  0.
          2    1    3    3  502    0  0.21077417070E+03  0.38706320225E+03 -0.31499697668E+03  0.54172573216E+03  0.00000000000E+00 0. -1.
         -2    1    3    3    0  502  0.62211154591E+02  0.65693647859E+02 -0.10953584196E+03  0.14207034806E+03  0.00000000000E+00 0.  1.
         13    1    5    5    0    0 -0.87435765364E+02  0.14003483647E+03  0.12009360638E+03  0.20415004968E+03  0.00000000000E+00 0.  1.
        -13    1    5    5    0    0 -0.14810038649E+02  0.71642605013E+02 -0.33757434376E+01  0.73235208347E+02  0.00000000000E+00 0. -1.
          3    1    6    6  503    0 -0.53754903426E+01 -0.65542862255E+02 -0.82788406726E+01  0.66281987688E+02  0.00000000000E+00 0. -1.
         -3    1    6    6    0  503 -0.16536403094E+03 -0.59889142934E+03 -0.37791960332E+03  0.72721347171E+03  0.00000000000E+00 0.  1.
<mgrwt>
<rscale>  0 0.16115943E+04</rscale>
<asrwt>0</asrwt>
<pdfrwt beam="1">  1        2 0.18836078E+00 0.16115943E+04</pdfrwt>
<pdfrwt beam="2">  1       -2 0.81589494E-01 0.16115943E+04</pdfrwt>
<totfact> 0.23209079E+01</totfact>
</mgrwt>
</event>
<event>
12    3  0.4806716E-008  0.1702294E+04  0.7818608E-02  0.8760057E-01
          1   -1    0    0  501    0  0.00000000000E+00  0.00000000000E+00  0.10768702124E+04  0.10768702124E+04  0.00000000000E+00 0. -1.
         -1   -1    0    0    0  501 -0.00000000000E+00 -0.00000000000E+00 -0.67273734658E+03  0.67273734658E+03  0.00000000000E+00 0.  1.
         23    2    1    2    0    0  0.16494649795E+03 -0.48384520209E+03 -0.19158943494E+03  0.55328928282E+03  0.90049942423E+02 0.  0.
        254    2    1    2    0    0 -0.16494649795E+03  0.48384520209E+03  0.59572230075E+03  0.11963182761E+04  0.90276178002E+03 0.  0.
         23    2    4    4    0    0  0.24035887849E+03  0.37426775459E+03  0.61697160046E+03  0.76609478494E+03  0.91643445665E+02 0.  0.
         23    2    4    4    0    0 -0.40530537644E+03  0.10957744750E+03 -0.21249299713E+02  0.43022349121E+03  0.91438801811E+02 0.  0.
          2    1    3    3  502    0  0.66154004782E+02 -0.97923424370E+02 -0.67245708040E+02  0.13596813832E+03  0.00000000000E+00 0. -1.
         -2    1    3    3    0  502  0.98792493172E+02 -0.38592177772E+03 -0.12434372690E+03  0.41732114450E+03  0.00000000000E+00 0.  1.
         13    1    5    5    0    0  0.16528066656E+03  0.18399280286E+03  0.29935635805E+03  0.38831080251E+03  0.00000000000E+00 0.  1.
        -13    1    5    5    0    0  0.75078211929E+02  0.19027495173E+03  0.31761524242E+03  0.37778398243E+03  0.00000000000E+00 0. -1.
          2    1    6    6  503    0 -0.26578487006E+03  0.65907536539E+02 -0.57037114080E+02  0.27971169605E+03  0.00000000000E+00 0. -1.
         -2    1    6    6    0  503 -0.13952050639E+03  0.43669910962E+02  0.35787814367E+02  0.15051179516E+03  0.00000000000E+00 0.  1.
<mgrwt>
<rscale>  0 0.17022935E+04</rscale>
<asrwt>0</asrwt>
<pdfrwt beam="1">  1        1 0.16567234E+00 0.17022935E+04</pdfrwt>
<pdfrwt beam="2">  1       -1 0.10349805E+00 0.17022935E+04</pdfrwt>
<totfact> 0.11059051E+01</totfact>
</mgrwt>
</event>
<event>
12    3  0.4806716E-008  0.3474148E+04  0.7818608E-02  0.8119944E-01
         -2   -1    0    0    0  501 -0.00000000000E+00  0.00000000000E+00  0.11951466576E+04  0.11951466576E+04  0.00000000000E+00 0.  1.
          2   -1    0    0  501    0  0.00000000000E+00 -0.00000000000E+00 -0.25247328930E+04  0.25247328930E+04  0.00000000000E+00 0. -1.
         23    2    1    2    0    0 -0.14634229213E+04 -0.45796452409E+03 -0.11809013800E+04  0.19376715459E+04  0.93299511089E+02 0.  0.
        254    2    1    2    0    0  0.14634229213E+04  0.45796452409E+03 -0.14868485543E+03  0.17822080047E+04  0.89600225105E+03 0.  0.
         23    2    4    4    0    0  0.73501128086E+02  0.36166075768E+03 -0.28210180595E+02  0.38068758516E+03  0.89029791222E+02 0.  0.
         23    2    4    4    0    0  0.13899217932E+04  0.96303766408E+02 -0.12047467483E+03  0.14015204195E+04  0.92673256512E+02 0.  0.
          2    1    3    3  502    0 -0.47701539915E+03 -0.13734215411E+03 -0.32978306910E+03  0.59595589685E+03  0.00000000000E+00 0. -1.
         -2    1    3    3    0  502 -0.98640752212E+03 -0.32062236998E+03 -0.85111831088E+03  0.13417156491E+04  0.00000000000E+00 0.  1.
         13    1    5    5    0    0  0.48489859565E+02  0.32549020305E+03 -0.12100578560E+01  0.32908449219E+03  0.00000000000E+00 0.  1.
        -13    1    5    5    0    0  0.25011268521E+02  0.36170554636E+02 -0.27000122739E+02  0.51603092966E+02  0.00000000000E+00 0. -1.
          2    1    6    6  503    0  0.32645578269E+03  0.55498584826E+02 -0.66988987392E+01  0.33120740664E+03  0.00000000000E+00 0. -1.
         -2    1    6    6    0  503  0.10634660105E+04  0.40805181582E+02 -0.11377577609E+03  0.10703130129E+04  0.00000000000E+00 0.  1.
<mgrwt>
<rscale>  0 0.34741480E+04</rscale>
<asrwt>0</asrwt>
<pdfrwt beam="1">  1        2 0.38842045E+00 0.34741480E+04</pdfrwt>
<pdfrwt beam="2">  1       -2 0.18386872E+00 0.34741480E+04</pdfrwt>
<totfact> 0.47292249E-01</totfact>
</mgrwt>
</event>
<event>
12    3  0.4806716E-008  0.2911919E+04  0.7818608E-02  0.8269340E-01
         -1   -1    0    0    0  501 -0.00000000000E+00  0.00000000000E+00  0.89326499594E+03  0.89326499594E+03  0.00000000000E+00 0.  1.
          1   -1    0    0  501    0  0.00000000000E+00 -0.00000000000E+00 -0.23731127918E+04  0.23731127918E+04  0.00000000000E+00 0. -1.
         23    2    1    2    0    0  0.29968461294E+03 -0.22912797025E+03 -0.20785549166E+04  0.21144983356E+04  0.91663381789E+02 0.  0.
        254    2    1    2    0    0 -0.29968461294E+03  0.22912797025E+03  0.59870712083E+03  0.11518794521E+04  0.90888148939E+03 0.  0.
         23    2    4    4    0    0 -0.57046920768E+03 -0.49685886550E+02  0.41235619724E+03  0.71128958347E+03  0.89394820408E+02 0.  0.
         23    2    4    4    0    0  0.27078459475E+03  0.27881385680E+03  0.18635092359E+03  0.44058986867E+03  0.91275967034E+02 0.  0.
          3    1    3    3  502    0  0.43963936846E+02 -0.23778666286E+02 -0.48341148068E+03  0.48598859284E+03  0.00000000000E+00 0. -1.
         -3    1    3    3    0  502  0.25572067609E+03 -0.20534930396E+03 -0.15951434360E+04  0.16285097427E+04  0.00000000000E+00 0.  1.
         13    1    5    5    0    0 -0.53114461486E+03 -0.53556264962E+02  0.40725758530E+03  0.67144740389E+03  0.00000000000E+00 0. -1.
        -13    1    5    5    0    0 -0.39324592826E+02  0.38703784112E+01  0.50986119409E+01  0.39842179580E+02  0.00000000000E+00 0.  1.
          3    1    6    6  503    0  0.38209043270E+01  0.41304668862E+02  0.13251633143E+02  0.43546305935E+02  0.00000000000E+00 0. -1.
         -3    1    6    6    0  503  0.26696369042E+03  0.23750918794E+03  0.17309929045E+03  0.39704356274E+03  0.00000000000E+00 0.  1.
<mgrwt>
<rscale>  0 0.29119194E+04</rscale>
<asrwt>0</asrwt>
<pdfrwt beam="1">  1        1 0.36509428E+00 0.29119194E+04</pdfrwt>
<pdfrwt beam="2">  1       -1 0.13742538E+00 0.29119194E+04</pdfrwt>
<totfact> 0.62526352E-01</totfact>
</mgrwt>
</event>
<event>
12    3  0.4806716E-008  0.1965387E+04  0.7818608E-02  0.8622977E-01
         -2   -1    0    0    0  501 -0.00000000000E+00  0.00000000000E+00  0.33891245545E+03  0.33891245545E+03  0.00000000000E+00 0.  1.
          2   -1    0    0  501    0  0.00000000000E+00 -0.00000000000E+00 -0.28493679109E+04  0.28493679109E+04  0.00000000000E+00 0. -1.
         23    2    1    2    0    0  0.43854573794E+03  0.56227150578E+02  0.32220419932E+02  0.45196840098E+03  0.88053525150E+02 0.  0.
        254    2    1    2    0    0 -0.43854573794E+03 -0.56227150578E+02 -0.25426758754E+04  0.27363119654E+04  0.90924073150E+03 0.  0.
         23    2    4    4    0    0  0.83200893583E+02 -0.36625463031E+03 -0.11742363979E+04  0.12364574529E+04  0.94504347763E+02 0.  0.
         23    2    4    4    0    0 -0.52174663153E+03  0.31002747974E+03 -0.13684394775E+04  0.14998545125E+04  0.92738176286E+02 0.  0.
          3    1    3    3  502    0  0.61173037683E+01  0.13388504680E+02 -0.56707200262E+01  0.15774363017E+02  0.00000000000E+00 0. -1.
         -3    1    3    3    0  502  0.43242843418E+03  0.42838645898E+02  0.37891139959E+02  0.43619403796E+03  0.00000000000E+00 0.  1.
         13    1    5    5    0    0  0.65890824741E+02 -0.30151164551E+03 -0.82476133797E+03  0.88061463637E+03  0.00000000000E+00 0.  1.
        -13    1    5    5    0    0  0.17310068841E+02 -0.64742984801E+02 -0.34947505996E+03  0.35584281656E+03  0.00000000000E+00 0. -1.
          3    1    6    6  503    0 -0.26664414960E+03  0.12902837800E+03 -0.76080437531E+03  0.81643782515E+03  0.00000000000E+00 0. -1.
         -3    1    6    6    0  503 -0.25510248192E+03  0.18099910173E+03 -0.60763510216E+03  0.68341668731E+03  0.00000000000E+00 0.  1.
<mgrwt>
<rscale>  0 0.19653868E+04</rscale>
<asrwt>0</asrwt>
<pdfrwt beam="1">  1        2 0.43836430E+00 0.19653868E+04</pdfrwt>
<pdfrwt beam="2">  1       -2 0.52140377E-01 0.19653868E+04</pdfrwt>
<totfact> 0.69944845E+00</totfact>
</mgrwt>
</event>
<event>
12    3  0.4806716E-008  0.2559335E+04  0.7818608E-02  0.8382147E-01
          1   -1    0    0  501    0  0.00000000000E+00  0.00000000000E+00  0.11904367897E+04  0.11904367897E+04  0.00000000000E+00 0. -1.
         -1   -1    0    0    0  501 -0.00000000000E+00 -0.00000000000E+00 -0.13755871017E+04  0.13755871017E+04  0.00000000000E+00 0.  1.
         23    2    1    2    0    0 -0.33682634861E+03 -0.38797545534E+03  0.91002880739E+03  0.10494529640E+04  0.96032027710E+02 0.  0.
        254    2    1    2    0    0  0.33682634861E+03  0.38797545534E+03 -0.10951791194E+04  0.15165709274E+04  0.91465465141E+03 0.  0.
         23    2    4    4    0    0  0.35308080449E+03  0.52708611478E+03 -0.11694077538E+04  0.13334975374E+04  0.90638626981E+02 0.  0.
         23    2    4    4    0    0 -0.16254455878E+02 -0.13911065944E+03  0.74228634436E+02  0.18307339002E+03  0.91596905270E+02 0.  0.
          3    1    3    3  502    0 -0.15987901459E+03 -0.23971372628E+03  0.56644331734E+03  0.63551711356E+03  0.00000000000E+00 0. -1.
         -3    1    3    3    0  502 -0.17694733402E+03 -0.14826172906E+03  0.34358549005E+03  0.41393585046E+03  0.00000000000E+00 0.  1.
         13    1    5    5    0    0  0.18587193868E+03  0.33219020277E+03 -0.62971589500E+03  0.73582662144E+03  0.00000000000E+00 0. -1.
        -13    1    5    5    0    0  0.16720886580E+03  0.19489591202E+03 -0.53969185884E+03  0.59767091600E+03  0.00000000000E+00 0.  1.
          2    1    6    6  503    0  0.31982837028E+02 -0.80180422725E+02  0.17420467957E+02  0.88064037817E+02  0.00000000000E+00 0. -1.
         -2    1    6    6    0  503 -0.48237292906E+02 -0.58930236718E+02  0.56808166479E+02  0.95009352199E+02  0.00000000000E+00 0.  1.
<mgrwt>
<rscale>  0 0.25593355E+04</rscale>
<asrwt>0</asrwt>
<pdfrwt beam="1">  1        1 0.18314412E+00 0.25593355E+04</pdfrwt>
<pdfrwt beam="2">  1       -1 0.21162878E+00 0.25593355E+04</pdfrwt>
<totfact> 0.12029325E+00</totfact>
</mgrwt>
</event>
<event>
12    3  0.4806716E-008  0.1278230E+04  0.7818608E-02  0.9047009E-01
         -1   -1    0    0    0  501 -0.00000000000E+00  0.00000000000E+00  0.23687552522E+03  0.23687552522E+03  0.00000000000E+00 0.  1.
          1   -1    0    0  501    0  0.00000000000E+00 -0.00000000000E+00 -0.17243992206E+04  0.17243992206E+04  0.00000000000E+00 0. -1.
         23    2    1    2    0    0 -0.64949312093E+02 -0.20136525184E+02  0.90871280475E+02  0.14265902476E+03  0.86429826696E+02 0.  0.
        254    2    1    2    0    0  0.64949312093E+02  0.20136525184E+02 -0.15783949758E+04  0.18186157210E+04  0.90078218693E+03 0.  0.
         23    2    4    4    0    0 -0.23372028125E+03 -0.21585562389E+03 -0.12895569966E+04  0.13313869681E+04  0.91734351063E+02 0.  0.
         23    2    4    4    0    0  0.29866959335E+03  0.23599214908E+03 -0.28883797923E+03  0.48722875292E+03  0.95229507032E+02 0.  0.
          3    1    3    3  502    0  0.36152381611E+01  0.26693782366E+02  0.22791373161E+02  0.35285615405E+02  0.00000000000E+00 0. -1.
         -3    1    3    3    0  502 -0.68564550254E+02 -0.46830307550E+02  0.68079907314E+02  0.10737340936E+03  0.00000000000E+00 0.  1.
         13    1    5    5    0    0 -0.11131032632E+03 -0.15634870887E+03 -0.66319226456E+03  0.69040487200E+03  0.00000000000E+00 0. -1.
        -13    1    5    5    0    0 -0.12240995493E+03 -0.59506915026E+02 -0.62636473204E+03  0.64098209612E+03  0.00000000000E+00 0.  1.
          3    1    6    6  503    0 -0.62445572913E+01 -0.83209125129E+00 -0.44180807581E+01  0.76945636134E+01  0.00000000000E+00 0. -1.
         -3    1    6    6    0  503  0.30491415064E+03  0.23682424033E+03 -0.28441989848E+03  0.47953418931E+03  0.00000000000E+00 0.  1.
<mgrwt>
<rscale>  0 0.12782300E+04</rscale>
<asrwt>0</asrwt>
<pdfrwt beam="1">  1        1 0.26529218E+00 0.12782300E+04</pdfrwt>
<pdfrwt beam="2">  1       -1 0.36442389E-01 0.12782300E+04</pdfrwt>
<totfact> 0.32579178E+01</totfact>
</mgrwt>
</event>
<event>
12    3  0.4806716E-008  0.1893281E+04  0.7818608E-02  0.8658208E-01
         -1   -1    0    0    0  501 -0.00000000000E+00  0.00000000000E+00  0.31717344881E+03  0.31717344881E+03  0.00000000000E+00 0.  1.
          1   -1    0    0  501    0  0.00000000000E+00 -0.00000000000E+00 -0.28253584628E+04  0.28253584628E+04  0.00000000000E+00 0. -1.
         23    2    1    2    0    0  0.61898624511E+03  0.30212236689E+03 -0.13600056043E+04  0.15274204929E+04  0.94742927167E+02 0.  0.
        254    2    1    2    0    0 -0.61898624511E+03 -0.30212236689E+03 -0.11481794097E+04  0.16151114187E+04  0.90324251547E+03 0.  0.
         23    2    4    4    0    0 -0.30596573545E+03 -0.49318929586E+02  0.69315791347E+02  0.33037495004E+03  0.91079858342E+02 0.  0.
         23    2    4    4    0    0 -0.31302050966E+03 -0.25280343731E+03 -0.12174952011E+04  0.12847364687E+04  0.79760967610E+02 0.  0.
          2    1    3    3  502    0  0.10138591487E+02  0.22991940103E+02 -0.40656570442E+02  0.47795157361E+02  0.00000000000E+00 0.  1.
         -2    1    3    3    0  502  0.60884765363E+03  0.27913042679E+03 -0.13193490338E+04  0.14796253355E+04  0.00000000000E+00 0. -1.
         13    1    5    5    0    0 -0.11243026054E+03 -0.43598746155E+02 -0.10296111436E+02  0.12102654280E+03  0.00000000000E+00 0.  1.
        -13    1    5    5    0    0 -0.19353547492E+03 -0.57201834305E+01  0.79611902783E+02  0.20934840724E+03  0.00000000000E+00 0. -1.
          3    1    6    6  503    0 -0.25136224171E+03 -0.23917115999E+03 -0.10211366722E+04  0.10784738864E+04  0.00000000000E+00 0. -1.
         -3    1    6    6    0  503 -0.61658267954E+02 -0.13632277320E+02 -0.19635852890E+03  0.20626258231E+03  0.00000000000E+00 0.  1.
<mgrwt>
<rscale>  0 0.18932815E+04</rscale>
<asrwt>0</asrwt>
<pdfrwt beam="1">  1        1 0.43467053E+00 0.18932815E+04</pdfrwt>
<pdfrwt beam="2">  1       -1 0.48795915E-01 0.18932815E+04</pdfrwt>
<totfact> 0.31517602E+00</totfact>
</mgrwt>
</event>
<event>
12    3  0.4806716E-008  0.1439070E+04  0.7818608E-02  0.8926013E-01
         -1   -1    0    0    0  501 -0.00000000000E+00  0.00000000000E+00  0.16732452104E+04  0.16732452104E+04  0.00000000000E+00 0.  1.
          1   -1    0    0  501    0  0.00000000000E+00 -0.00000000000E+00 -0.30941720282E+03  0.30941720282E+03  0.00000000000E+00 0. -1.
         23    2    1    2    0    0  0.19793428387E+03  0.32735236395E+03  0.13350554207E+03  0.41525823243E+03  0.90984168518E+02 0.  0.
        254    2    1    2    0    0 -0.19793428387E+03 -0.32735236395E+03  0.12303224655E+04  0.15674041808E+04  0.89259450249E+03 0.  0.
         23    2    4    4    0    0  0.13214991283E+02 -0.45223202323E+03  0.12215274892E+04  0.13058976149E+04  0.92470184059E+02 0.  0.
         23    2    4    4    0    0 -0.21114927515E+03  0.12487965928E+03  0.87949763445E+01  0.26150656590E+03  0.90163111650E+02 0.  0.
          2    1    3    3  502    0  0.27022444220E+02  0.10351086448E+03  0.90754379684E+01  0.10736421718E+03  0.00000000000E+00 0.  1.
         -2    1    3    3    0  502  0.17091183965E+03  0.22384149948E+03  0.12443010410E+03  0.30789401525E+03  0.00000000000E+00 0. -1.
         13    1    5    5    0    0  0.23423461286E+02 -0.33867931099E+03  0.10110591092E+04  0.10665331015E+04  0.00000000000E+00 0. -1.
        -13    1    5    5    0    0 -0.10208470003E+02 -0.11355271224E+03  0.21046837997E+03  0.23936451342E+03  0.00000000000E+00 0.  1.
          3    1    6    6  503    0 -0.20588913122E+03  0.12516576148E+03 -0.10823862519E+02  0.24119278223E+03  0.00000000000E+00 0. -1.
         -3    1    6    6    0  503 -0.52601439333E+01 -0.28610220203E+00  0.19618838863E+02  0.20313783670E+02  0.00000000000E+00 0.  1.
<mgrwt>
<rscale>  0 0.14390703E+04</rscale>
<asrwt>0</asrwt>
<pdfrwt beam="1">  1        1 0.47602648E-01 0.14390703E+04</pdfrwt>
<pdfrwt beam="2">  1       -1 0.25742233E+00 0.14390703E+04</pdfrwt>
<totfact> 0.51101601E+00</totfact>
</mgrwt>
</event>
<event>
12    3  0.4806716E-008  0.2412044E+04  0.7818608E-02  0.8435008E-01
         -1   -1    0    0    0  501 -0.00000000000E+00  0.00000000000E+00  0.15036094900E+04  0.15036094900E+04  0.00000000000E+00 0.  1.
          1   -1    0    0  501    0  0.00000000000E+00 -0.00000000000E+00 -0.96733143718E+03  0.96733143718E+03  0.00000000000E+00 0. -1.
         23    2    1    2    0    0  0.71282065738E+03  0.52599246550E+03  0.78139608430E+03  0.11847984568E+04  0.91576085140E+02 0.  0.
        254    2    1    2    0    0 -0.71282065738E+03 -0.52599246550E+03 -0.24511803147E+03  0.12861424704E+04  0.89961004962E+03 0.  0.
         23    2    4    4    0    0 -0.57528564524E+03 -0.62351781995E+03  0.13084815875E+03  0.86462481443E+03  0.10357018718E+03 0.  0.
         23    2    4    4    0    0 -0.13753501214E+03  0.97525354450E+02 -0.37596619022E+03  0.42151765593E+03  0.88879040002E+02 0.  0.
          3    1    3    3  502    0  0.21106611468E+03  0.10608043936E+03  0.19971733905E+03  0.30933635399E+03  0.00000000000E+00 0. -1.
         -3    1    3    3    0  502  0.50175454269E+03  0.41991202614E+03  0.58167874525E+03  0.87546210283E+03  0.00000000000E+00 0.  1.
         13    1    5    5    0    0 -0.54722250996E+03 -0.60772353424E+03  0.14301416113E+03  0.83020083098E+03  0.00000000000E+00 0. -1.
        -13    1    5    5    0    0 -0.28063135277E+02 -0.15794285707E+02 -0.12166002382E+02  0.34423983450E+02  0.00000000000E+00 0.  1.
          1    1    6    6  503    0 -0.14280087007E+03  0.75146204101E+02 -0.35677351206E+03  0.39156912467E+03  0.00000000000E+00 0. -1.
         -1    1    6    6    0  503  0.52658579367E+01  0.22379150349E+02 -0.19192678160E+02  0.29948531268E+02  0.00000000000E+00 0.  1.
<mgrwt>
<rscale>  0 0.24120437E+04</rscale>
<asrwt>0</asrwt>
<pdfrwt beam="1">  1        1 0.14882022E+00 0.24120437E+04</pdfrwt>
<pdfrwt beam="2">  1       -1 0.23132454E+00 0.24120437E+04</pdfrwt>
<totfact> 0.13294365E+00</totfact>
</mgrwt>
</event>
<event>
12    3  0.4806716E-008  0.2130663E+04  0.7818608E-02  0.8547855E-01
         -2   -1    0    0    0  501 -0.00000000000E+00  0.00000000000E+00  0.60563516588E+03  0.60563516588E+03  0.00000000000E+00 0.  1.
          2   -1    0    0  501    0  0.00000000000E+00 -0.00000000000E+00 -0.18739511835E+04  0.18739511835E+04  0.00000000000E+00 0. -1.
         23    2    1    2    0    0  0.23878426670E+03 -0.74095786691E+03 -0.65029402363E+02  0.78634628689E+03  0.89861967362E+02 0.  0.
        254    2    1    2    0    0 -0.23878426670E+03  0.74095786691E+03 -0.12032866153E+04  0.16932400625E+04  0.90173540697E+03 0.  0.
         23    2    4    4    0    0  0.31754343281E+03  0.11715326386E+03 -0.33539571090E+03  0.48493309188E+03  0.90061655285E+02 0.  0.
         23    2    4    4    0    0 -0.55632769951E+03  0.62380460305E+03 -0.86789090437E+03  0.12083069706E+04  0.90213199229E+02 0.  0.
          2    1    3    3  502    0  0.37206988050E+02 -0.12905827665E+03 -0.45469328469E+02  0.14180218109E+03  0.00000000000E+00 0. -1.
         -2    1    3    3    0  502  0.20157727865E+03 -0.61189959026E+03 -0.19560073894E+02  0.64454410580E+03  0.00000000000E+00 0.  1.
         13    1    5    5    0    0  0.21569681832E+03  0.94877469630E+02 -0.28297613401E+03  0.36824223562E+03  0.00000000000E+00 0.  1.
        -13    1    5    5    0    0  0.10184661449E+03  0.22275794230E+02 -0.52419576889E+02  0.11669085626E+03  0.00000000000E+00 0. -1.
          1    1    6    6  503    0 -0.22326075378E+03  0.30284592326E+03 -0.42994159598E+03  0.57132372029E+03  0.00000000000E+00 0. -1.
         -1    1    6    6    0  503 -0.33306694574E+03  0.32095867979E+03 -0.43794930840E+03  0.63698325033E+03  0.00000000000E+00 0.  1.
<mgrwt>
<rscale>  0 0.21306626E+04</rscale>
<asrwt>0</asrwt>
<pdfrwt beam="1">  1        2 0.28830017E+00 0.21306626E+04</pdfrwt>
<pdfrwt beam="2">  1       -2 0.93174643E-01 0.21306626E+04</pdfrwt>
<totfact> 0.70371474E+00</totfact>
</mgrwt>
</event>
<event>
12    3  0.4806716E-008  0.2076532E+04  0.7818608E-02  0.8571652E-01
          1   -1    0    0  501    0  0.00000000000E+00  0.00000000000E+00  0.10691934998E+04  0.10691934998E+04  0.00000000000E+00 0. -1.
         -1   -1    0    0    0  501 -0.00000000000E+00 -0.00000000000E+00 -0.10082330101E+04  0.10082330101E+04  0.00000000000E+00 0.  1.
         23    2    1    2    0    0  0.31654650784E+03  0.52783421346E+03  0.62815780700E+03  0.88393349649E+03  0.89137798909E+02 0.  0.
        254    2    1    2    0    0 -0.31654650784E+03 -0.52783421346E+03 -0.56719731729E+03  0.11934930134E+04  0.85082438127E+03 0.  0.
         23    2    4    4    0    0 -0.23811158069E+03 -0.32580282761E+01 -0.60132158040E+03  0.65331349062E+03  0.92320823021E+02 0.  0.
         23    2    4    4    0    0 -0.78434927143E+02 -0.52457618518E+03  0.34124263114E+02  0.54017952277E+03  0.96422194706E+02 0.  0.
          3    1    3    3  502    0  0.19887199617E+03  0.35178136561E+03  0.35187099148E+03  0.53582963215E+03  0.00000000000E+00 0. -1.
         -3    1    3    3    0  502  0.11767451167E+03  0.17605284785E+03  0.27628681552E+03  0.34810386433E+03  0.00000000000E+00 0.  1.
         13    1    5    5    0    0 -0.74193008464E+02 -0.37754930302E+01 -0.31258808891E+03  0.32129452249E+03  0.00000000000E+00 0. -1.
        -13    1    5    5    0    0 -0.16391857223E+03  0.51746475403E+00 -0.28873349149E+03  0.33201896813E+03  0.00000000000E+00 0.  1.
          4    1    6    6  503    0  0.66613110860E+01  0.87703105542E+00 -0.62163130002E+00  0.67474939296E+01  0.00000000000E+00 0.  1.
         -4    1    6    6    0  503 -0.85096238229E+02 -0.52545321624E+03  0.34745894414E+02  0.53343202884E+03  0.00000000000E+00 0. -1.
<mgrwt>
<rscale>  0 0.20765319E+04</rscale>
<asrwt>0</asrwt>
<pdfrwt beam="1">  1        1 0.16449131E+00 0.20765319E+04</pdfrwt>
<pdfrwt beam="2">  1       -1 0.15511277E+00 0.20765319E+04</pdfrwt>
<totfact> 0.39271438E+00</totfact>
</mgrwt>
</event>
<event>
12    3  0.4806716E-008  0.1688455E+04  0.7818608E-02  0.8767976E-01
         -2   -1    0    0    0  501 -0.00000000000E+00  0.00000000000E+00  0.13966374324E+04  0.13966374324E+04  0.00000000000E+00 0.  1.
          2   -1    0    0  501    0  0.00000000000E+00 -0.00000000000E+00 -0.51031150240E+03  0.51031150240E+03  0.00000000000E+00 0. -1.
         23    2    1    2    0    0 -0.21261153905E+03  0.43996942010E+03 -0.72235215822E+02  0.50226529216E+03  0.90971095090E+02 0.  0.
        254    2    1    2    0    0  0.21261153905E+03 -0.43996942010E+03  0.95856114578E+03  0.14046836426E+04  0.90306140901E+03 0.  0.
         23    2    4    4    0    0  0.26758023806E+03 -0.69484555299E+03  0.71465847229E+03  0.10360542258E+04  0.90896097378E+02 0.  0.
         23    2    4    4    0    0 -0.54968699003E+02  0.25487613289E+03  0.24390267349E+03  0.36862941678E+03  0.91737297731E+02 0.  0.
          3    1    3    3  502    0 -0.15350906063E+03  0.32032016154E+03 -0.10840635054E+02  0.35536960612E+03  0.00000000000E+00 0. -1.
         -3    1    3    3    0  502 -0.59102478428E+02  0.11964925855E+03 -0.61394580768E+02  0.14689568604E+03  0.00000000000E+00 0.  1.
         13    1    5    5    0    0  0.17895318497E+03 -0.54245478940E+03  0.50805622079E+03  0.76446227143E+03  0.00000000000E+00 0.  1.
        -13    1    5    5    0    0  0.88627053089E+02 -0.15239076359E+03  0.20660225149E+03  0.27159195439E+03  0.00000000000E+00 0. -1.
          2    1    6    6  503    0 -0.72772400022E+02  0.20969106600E+03  0.16738258042E+03  0.27799836976E+03  0.00000000000E+00 0. -1.
         -2    1    6    6    0  503  0.17803701019E+02  0.45185066896E+02  0.76520093073E+02  0.90631047022E+02  0.00000000000E+00 0.  1.
<mgrwt>
<rscale>  0 0.16884551E+04</rscale>
<asrwt>0</asrwt>
<pdfrwt beam="1">  1        2 0.78509463E-01 0.16884551E+04</pdfrwt>
<pdfrwt beam="2">  1       -2 0.21486730E+00 0.16884551E+04</pdfrwt>
<totfact> 0.60976493E+00</totfact>
</mgrwt>
</event>
<event>
12    3  0.4806716E-008  0.1769097E+04  0.7818608E-02  0.8722908E-01
         -1   -1    0    0    0  501 -0.00000000000E+00  0.00000000000E+00  0.88162973710E+03  0.88162973710E+03  0.00000000000E+00 0.  1.
          1   -1    0    0  501    0  0.00000000000E+00 -0.00000000000E+00 -0.88747723828E+03  0.88747723828E+03  0.00000000000E+00 0. -1.
         23    2    1    2    0    0 -0.10907242863E+02  0.34067984066E+03 -0.55402991568E+03  0.65677632381E+03  0.90687762500E+02 0.  0.
        254    2    1    2    0    0  0.10907242863E+02 -0.34067984066E+03  0.54818241449E+03  0.11123306516E+04  0.90586632408E+03 0.  0.
         23    2    4    4    0    0 -0.33983759658E+03 -0.58348269054E+02 -0.47443955048E+02  0.35978163523E+03  0.91092171060E+02 0.  0.
         23    2    4    4    0    0  0.35074483944E+03 -0.28233157160E+03  0.59562636954E+03  0.75254901634E+03  0.93947810979E+02 0.  0.
          2    1    3    3  502    0  0.10030647895E+01  0.11851241902E+03 -0.11788632165E+03  0.16716274834E+03  0.00000000000E+00 0.  1.
         -2    1    3    3    0  502 -0.11910307653E+02  0.22216742164E+03 -0.43614359403E+03  0.48961357546E+03  0.00000000000E+00 0. -1.
         13    1    5    5    0    0 -0.24852007762E+03 -0.76236330837E+02 -0.12065970613E+02  0.26023027257E+03  0.00000000000E+00 0.  1.
        -13    1    5    5    0    0 -0.91317518966E+02  0.17888061783E+02 -0.35377984435E+02  0.99551362658E+02  0.00000000000E+00 0. -1.
          1    1    6    6  503    0  0.31060731495E+03 -0.27847110690E+03  0.56283659417E+03  0.70057697165E+03  0.00000000000E+00 0.  1.
         -1    1    6    6    0  503  0.40137524497E+02 -0.38604647090E+01  0.32789775371E+02  0.51972044691E+02  0.00000000000E+00 0. -1.
<mgrwt>
<rscale>  0 0.17690973E+04</rscale>
<asrwt>0</asrwt>
<pdfrwt beam="1">  1        1 0.13653496E+00 0.17690973E+04</pdfrwt>
<pdfrwt beam="2">  1       -1 0.13563534E+00 0.17690973E+04</pdfrwt>
<totfact> 0.80247580E+00</totfact>
</mgrwt>
</event>
<event>
12    3  0.4806716E-008  0.1782505E+04  0.7818608E-02  0.8715659E-01
         -2   -1    0    0    0  501 -0.00000000000E+00  0.00000000000E+00  0.56611119026E+03  0.56611119026E+03  0.00000000000E+00 0.  1.
          2   -1    0    0  501    0  0.00000000000E+00 -0.00000000000E+00 -0.14031366674E+04  0.14031366674E+04  0.00000000000E+00 0. -1.
         23    2    1    2    0    0 -0.26113933969E+03  0.58462154243E+03 -0.11904199930E+03  0.65729988548E+03  0.88859660399E+02 0.  0.
        254    2    1    2    0    0  0.26113933969E+03 -0.58462154243E+03 -0.71798347780E+03  0.13119479721E+04  0.89203761391E+03 0.  0.
         23    2    4    4    0    0  0.57630536151E+02  0.11245844813E+03  0.12211030226E+03  0.19826229471E+03  0.91808661531E+02 0.  0.
         23    2    4    4    0    0  0.20350880354E+03 -0.69707999056E+03 -0.84009378006E+03  0.11136856774E+04  0.84863905629E+02 0.  0.
          2    1    3    3  502    0 -0.26245571033E+02  0.17868554150E+02 -0.14699986847E+02  0.34988638721E+02  0.00000000000E+00 0. -1.
         -2    1    3    3    0  502 -0.23489376866E+03  0.56675298828E+03 -0.10434201246E+03  0.62231124675E+03  0.00000000000E+00 0.  1.
         13    1    5    5    0    0  0.15523779608E+01  0.33301496911E+02 -0.95913487904E+01  0.34689963180E+02  0.00000000000E+00 0.  1.
        -13    1    5    5    0    0  0.56078158190E+02  0.79156951224E+02  0.13170165105E+03  0.16357233153E+03  0.00000000000E+00 0. -1.
          3    1    6    6  503    0  0.12535179583E+03 -0.45211012407E+03 -0.60214989566E+03  0.76334863192E+03  0.00000000000E+00 0. -1.
         -3    1    6    6    0  503  0.78157007711E+02 -0.24496986649E+03 -0.23794388440E+03  0.35033704552E+03  0.00000000000E+00 0.  1.
<mgrwt>
<rscale>  0 0.17825054E+04</rscale>
<asrwt>0</asrwt>
<pdfrwt beam="1">  1        2 0.21586718E+00 0.17825054E+04</pdfrwt>
<pdfrwt beam="2">  1       -2 0.87094030E-01 0.17825054E+04</pdfrwt>
<totfact> 0.15528241E+01</totfact>
</mgrwt>
</event>
<event>
12    3  0.4806716E-008  0.2509749E+04  0.7818608E-02  0.8399521E-01
          1   -1    0    0  501    0  0.00000000000E+00  0.00000000000E+00  0.12052944478E+04  0.12052944478E+04  0.00000000000E+00 0. -1.
         -1   -1    0    0    0  501 -0.00000000000E+00 -0.00000000000E+00 -0.13064941954E+04  0.13064941954E+04  0.00000000000E+00 0.  1.
         23    2    1    2    0    0 -0.66900321573E+02  0.11984880771E+03  0.10367699917E+04  0.10496965881E+04  0.90174950218E+02 0.  0.
        254    2    1    2    0    0  0.66900321573E+02 -0.11984880771E+03 -0.11379697393E+04  0.14620920551E+04  0.90768863617E+03 0.  0.
         23    2    4    4    0    0 -0.12243134691E+02 -0.34257667117E+03 -0.11562066334E+04  0.12093958938E+04  0.91191989434E+02 0.  0.
         23    2    4    4    0    0  0.79143456264E+02  0.22272786346E+03  0.18236894078E+02  0.25269616127E+03  0.87472154333E+02 0.  0.
          3    1    3    3  502    0 -0.81275501984E+02  0.12486255767E+03  0.94522136258E+03  0.95689068854E+03  0.00000000000E+00 0. -1.
         -3    1    3    3    0  502  0.14375180411E+02 -0.50137499548E+01  0.91548629083E+02  0.92805899530E+02  0.00000000000E+00 0.  1.
         13    1    5    5    0    0 -0.13472944601E+02 -0.34566687749E+03 -0.11004738261E+04  0.11535639351E+04  0.00000000000E+00 0.  1.
        -13    1    5    5    0    0  0.12298099107E+01  0.30902063151E+01 -0.55732807250E+02  0.55831958692E+02  0.00000000000E+00 0. -1.
          1    1    6    6  503    0 -0.39726729220E+01 -0.61283556275E+01  0.50073200921E+01  0.88550622441E+01  0.00000000000E+00 0. -1.
         -1    1    6    6    0  503  0.83116129186E+02  0.22885621909E+03  0.13229573986E+02  0.24384109903E+03  0.00000000000E+00 0.  1.
<mgrwt>
<rscale>  0 0.25097492E+04</rscale>
<asrwt>0</asrwt>
<pdfrwt beam="1">  1        1 0.18542991E+00 0.25097492E+04</pdfrwt>
<pdfrwt beam="2">  1       -1 0.20099911E+00 0.25097492E+04</pdfrwt>
<totfact> 0.13926343E+00</totfact>
</mgrwt>
</event>
<event>
12    3  0.4806716E-008  0.1295627E+04  0.7818608E-02  0.9033040E-01
         -1   -1    0    0    0  501 -0.00000000000E+00  0.00000000000E+00  0.19533216405E+03  0.19533216405E+03  0.00000000000E+00 0.  1.
          1   -1    0    0  501    0  0.00000000000E+00 -0.00000000000E+00 -0.21484539484E+04  0.21484539484E+04  0.00000000000E+00 0. -1.
         23    2    1    2    0    0 -0.26093349733E+03 -0.78665259240E+02 -0.68306217086E+03  0.74104249957E+03  0.91079876341E+02 0.  0.
        254    2    1    2    0    0  0.26093349733E+03  0.78665259240E+02 -0.12700596135E+04  0.16027436129E+04  0.93886162653E+03 0.  0.
         23    2    4    4    0    0 -0.21861150568E+03 -0.11016042769E+03 -0.95950371552E+03  0.99421410192E+03  0.88814357598E+02 0.  0.
         23    2    4    4    0    0  0.47954500301E+03  0.18882568693E+03 -0.31055589801E+03  0.60852951099E+03  0.90800055104E+02 0.  0.
          3    1    3    3  502    0 -0.13271108323E+03 -0.49383449347E+02 -0.46798107795E+03  0.48893480751E+03  0.00000000000E+00 0. -1.
         -3    1    3    3    0  502 -0.12822241409E+03 -0.29281809893E+02 -0.21508109291E+03  0.25210769205E+03  0.00000000000E+00 0.  1.
         13    1    5    5    0    0 -0.20639297765E+03 -0.12357298984E+03 -0.91639269156E+03  0.94744071592E+03  0.00000000000E+00 0.  1.
        -13    1    5    5    0    0 -0.12218528037E+02  0.13412562155E+02 -0.43111023952E+02  0.46773385992E+02  0.00000000000E+00 0. -1.
          4    1    6    6  503    0  0.86927942547E+02  0.17922252836E+02 -0.91782985251E+02  0.12767846617E+03  0.00000000000E+00 0. -1.
         -4    1    6    6    0  503  0.39261706046E+03  0.17090343409E+03 -0.21877291276E+03  0.48085104482E+03  0.00000000000E+00 0.  1.
<mgrwt>
<rscale>  0 0.12956267E+04</rscale>
<asrwt>0</asrwt>
<pdfrwt beam="1">  1        1 0.33053135E+00 0.12956267E+04</pdfrwt>
<pdfrwt beam="2">  1       -1 0.30051105E-01 0.12956267E+04</pdfrwt>
<totfact> 0.23668474E+01</totfact>
</mgrwt>
</event>
<event>
12    3  0.4806716E-008  0.2694186E+04  0.7818608E-02  0.8336894E-01
         -2   -1    0    0    0  501 -0.00000000000E+00  0.00000000000E+00  0.75605553186E+03  0.75605553186E+03  0.00000000000E+00 0.  1.
          2   -1    0    0  501    0  0.00000000000E+00 -0.00000000000E+00 -0.24001664430E+04  0.24001664430E+04  0.00000000000E+00 0. -1.
         23    2    1    2    0    0 -0.86822643792E+03 -0.99038770209E+01  0.23478581989E+03  0.90408873027E+03  0.91306170057E+02 0.  0.
        254    2    1    2    0    0  0.86822643792E+03  0.99038770209E+01 -0.18788967310E+04  0.22521332446E+04  0.88765758668E+03 0.  0.
         23    2    4    4    0    0  0.35577950902E+03  0.32650778856E+03 -0.13795441315E+04  0.14645961833E+04  0.93346528397E+02 0.  0.
         23    2    4    4    0    0  0.51244692890E+03 -0.31660391154E+03 -0.49935259950E+03  0.78753706125E+03  0.89564013311E+02 0.  0.
          1    1    3    3  502    0 -0.14428600833E+02 -0.12383113788E+02  0.83811118255E+01  0.20779053504E+02  0.00000000000E+00 0. -1.
         -1    1    3    3    0  502 -0.85379783709E+03  0.24792367669E+01  0.22640470806E+03  0.88330967676E+03  0.00000000000E+00 0.  1.
         13    1    5    5    0    0  0.29692044628E+03  0.25550961571E+03 -0.12066776415E+04  0.12686677443E+04  0.00000000000E+00 0.  1.
        -13    1    5    5    0    0  0.58859062741E+02  0.70998172850E+02 -0.17286649004E+03  0.19592843896E+03  0.00000000000E+00 0. -1.
          1    1    6    6  503    0  0.32649839470E+03 -0.24177094857E+03 -0.36574181012E+03  0.54664564846E+03  0.00000000000E+00 0. -1.
         -1    1    6    6    0  503  0.18594853420E+03 -0.74832962974E+02 -0.13361078938E+03  0.24089141279E+03  0.00000000000E+00 0.  1.
<mgrwt>
<rscale>  0 0.26941857E+04</rscale>
<asrwt>0</asrwt>
<pdfrwt beam="1">  1        2 0.36925637E+00 0.26941857E+04</pdfrwt>
<pdfrwt beam="2">  1       -2 0.11631624E+00 0.26941857E+04</pdfrwt>
<totfact> 0.20001718E+00</totfact>
</mgrwt>
</event>
<event>
12    3  0.4806716E-008  0.1607387E+04  0.7818608E-02  0.8816023E-01
         -2   -1    0    0    0  501 -0.00000000000E+00  0.00000000000E+00  0.32376855325E+03  0.32376855325E+03  0.00000000000E+00 0.  1.
          2   -1    0    0  501    0  0.00000000000E+00 -0.00000000000E+00 -0.19950161670E+04  0.19950161670E+04  0.00000000000E+00 0. -1.
         23    2    1    2    0    0  0.44500816734E+03 -0.21062898493E+03 -0.48748032048E+03  0.69915074889E+03  0.93690279743E+02 0.  0.
        254    2    1    2    0    0 -0.44500816734E+03  0.21062898493E+03 -0.11837672933E+04  0.16196339714E+04  0.98970316677E+03 0.  0.
         23    2    4    4    0    0 -0.35022125637E+03 -0.36034277508E+03 -0.65152920975E+03  0.82800809823E+03  0.92764517010E+02 0.  0.
         23    2    4    4    0    0 -0.94786910969E+02  0.57097176001E+03 -0.53223808354E+03  0.79162587315E+03  0.91656075928E+02 0.  0.
          4    1    3    3  502    0  0.14227838488E+03 -0.11334553577E+03 -0.20184697820E+03  0.27172146013E+03  0.00000000000E+00 0. -1.
         -4    1    3    3    0  502  0.30272978246E+03 -0.97283449164E+02 -0.28563334227E+03  0.42742928876E+03  0.00000000000E+00 0.  1.
         13    1    5    5    0    0 -0.14424923413E+02 -0.50253002697E+02 -0.88704596058E+02  0.10296576158E+03  0.00000000000E+00 0.  1.
        -13    1    5    5    0    0 -0.33579633296E+03 -0.31008977238E+03 -0.56282461369E+03  0.72504233665E+03  0.00000000000E+00 0. -1.
          2    1    6    6  503    0 -0.81058062595E+02  0.27849360311E+03 -0.22390465655E+03  0.36641832884E+03  0.00000000000E+00 0. -1.
         -2    1    6    6    0  503 -0.13728848374E+02  0.29247815690E+03 -0.30833342699E+03  0.42520754432E+03  0.00000000000E+00 0.  1.
<mgrwt>
<rscale>  0 0.16073873E+04</rscale>
<asrwt>0</asrwt>
<pdfrwt beam="1">  1        2 0.30692556E+00 0.16073873E+04</pdfrwt>
<pdfrwt beam="2">  1       -2 0.49810547E-01 0.16073873E+04</pdfrwt>
<totfact> 0.24581553E+01</totfact>
</mgrwt>
</event>
<event>
12    3  0.4806716E-008  0.1233410E+04  0.7818608E-02  0.9084105E-01
         -2   -1    0    0    0  501 -0.00000000000E+00  0.00000000000E+00  0.14842912238E+03  0.14842912238E+03  0.00000000000E+00 0.  1.
          2   -1    0    0  501    0  0.00000000000E+00 -0.00000000000E+00 -0.25623341634E+04  0.25623341634E+04  0.00000000000E+00 0. -1.
         23    2    1    2    0    0  0.26778114699E+03  0.18899562587E+02 -0.79416316301E+03  0.84335646969E+03  0.92146998536E+02 0.  0.
        254    2    1    2    0    0 -0.26778114699E+03 -0.18899562587E+02 -0.16197418780E+04  0.18674068161E+04  0.88970811462E+03 0.  0.
         23    2    4    4    0    0  0.76152417683E+02 -0.12542336576E+03  0.31827439471E+02  0.17473845961E+03  0.89388656800E+02 0.  0.
         23    2    4    4    0    0 -0.34393356467E+03  0.10652380318E+03 -0.16515693174E+04  0.16926683564E+04  0.88359136659E+02 0.  0.
          4    1    3    3  502    0  0.27129607787E+03  0.12135580930E+02 -0.73243284338E+03  0.78115728522E+03  0.00000000000E+00 0. -1.
         -4    1    3    3    0  502 -0.35149308839E+01  0.67639816567E+01 -0.61730319637E+02  0.62199184475E+02  0.00000000000E+00 0.  1.
         13    1    5    5    0    0  0.42198748373E+02 -0.10964482390E+03 -0.10826868717E+02  0.11798280747E+03  0.00000000000E+00 0. -1.
        -13    1    5    5    0    0  0.33953669309E+02 -0.15778541869E+02  0.42654308188E+02  0.56755652142E+02  0.00000000000E+00 0.  1.
          3    1    6    6  503    0 -0.58358743360E+02 -0.12914905444E+02 -0.21688810322E+03  0.22497330292E+03  0.00000000000E+00 0. -1.
         -3    1    6    6    0  503 -0.28557482131E+03  0.11943870862E+03 -0.14346812142E+04  0.14676950535E+04  0.00000000000E+00 0.  1.
<mgrwt>
<rscale>  0 0.12334099E+04</rscale>
<asrwt>0</asrwt>
<pdfrwt beam="1">  1        2 0.39420522E+00 0.12334099E+04</pdfrwt>
<pdfrwt beam="2">  1       -2 0.22835251E-01 0.12334099E+04</pdfrwt>
<totfact> 0.53605393E+01</totfact>
</mgrwt>
</event>
<event>
12    3  0.4806716E-008  0.2153299E+04  0.7818608E-02  0.8538121E-01
          2   -1    0    0  501    0  0.00000000000E+00  0.00000000000E+00  0.69816028142E+03  0.69816028142E+03  0.00000000000E+00 0.  1.
         -2   -1    0    0    0  501 -0.00000000000E+00 -0.00000000000E+00 -0.16603266930E+04  0.16603266930E+04  0.00000000000E+00 0. -1.
         23    2    1    2    0    0 -0.29527307758E+02  0.77104351635E+03  0.64085132788E+02  0.77936063583E+03  0.88972638669E+02 0.  0.
        254    2    1    2    0    0  0.29527307758E+02 -0.77104351635E+03 -0.10262515444E+04  0.15791263386E+04  0.91927569041E+03 0.  0.
         23    2    4    4    0    0  0.31623530119E+03 -0.57282398425E+03 -0.21920292862E+03  0.69631912590E+03  0.93157493086E+02 0.  0.
         23    2    4    4    0    0 -0.28670799343E+03 -0.19821953209E+03 -0.80704861577E+03  0.88280721274E+03  0.80800063332E+02 0.  0.
          2    1    3    3  502    0  0.13389539984E+02  0.35667719128E+03 -0.56951331264E+01  0.35697385493E+03  0.00000000000E+00 0. -1.
         -2    1    3    3    0  502 -0.42916847742E+02  0.41436632507E+03  0.69780265914E+02  0.42238678090E+03  0.00000000000E+00 0.  1.
         13    1    5    5    0    0  0.21552170800E+03 -0.34467891065E+03 -0.93871677684E+02  0.41721103765E+03  0.00000000000E+00 0. -1.
        -13    1    5    5    0    0  0.10071359319E+03 -0.22814507360E+03 -0.12533125094E+03  0.27910808825E+03  0.00000000000E+00 0.  1.
          1    1    6    6  503    0 -0.19279530746E+03 -0.17533448200E+03 -0.56659049447E+03  0.62364813764E+03  0.00000000000E+00 0. -1.
         -1    1    6    6    0  503 -0.93912685976E+02 -0.22885050097E+02 -0.24045812130E+03  0.25915907510E+03  0.00000000000E+00 0.  1.
<mgrwt>
<rscale>  0 0.21532990E+04</rscale>
<asrwt>0</asrwt>
<pdfrwt beam="1">  1        2 0.10740927E+00 0.21532990E+04</pdfrwt>
<pdfrwt beam="2">  1       -2 0.25543488E+00 0.21532990E+04</pdfrwt>
<totfact> 0.22442394E+00</totfact>
</mgrwt>
</event>
<event>
12    3  0.4806716E-008  0.1860681E+04  0.7818608E-02  0.8674679E-01
         -1   -1    0    0    0  501 -0.00000000000E+00  0.00000000000E+00  0.61757457366E+03  0.61757457366E+03  0.00000000000E+00 0.  1.
          1   -1    0    0  501    0  0.00000000000E+00 -0.00000000000E+00 -0.14015049323E+04  0.14015049323E+04  0.00000000000E+00 0. -1.
         23    2    1    2    0    0 -0.31164262070E+03 -0.35448263118E+03 -0.88833144881E+03  0.10105686985E+04  0.96629563344E+02 0.  0.
        254    2    1    2    0    0  0.31164262070E+03  0.35448263118E+03  0.10440109019E+03  0.10085108075E+04  0.88510756540E+03 0.  0.
         23    2    4    4    0    0 -0.12897418105E+03  0.41807700943E+03  0.27309159691E+03  0.52391148731E+03  0.92095065260E+02 0.  0.
         23    2    4    4    0    0  0.44061680176E+03 -0.63594378257E+02 -0.16869050672E+03  0.48459932016E+03  0.90512999662E+02 0.  0.
          2    1    3    3  502    0 -0.12224283367E+03 -0.15756651781E+03 -0.47422903670E+03  0.51445475716E+03  0.00000000000E+00 0.  1.
         -2    1    3    3    0  502 -0.18939978703E+03 -0.19691611336E+03 -0.41410241211E+03  0.49611394129E+03  0.00000000000E+00 0. -1.
         13    1    5    5    0    0 -0.12490349765E+03  0.27325596935E+03  0.20575465715E+03  0.36414926534E+03  0.00000000000E+00 0.  1.
        -13    1    5    5    0    0 -0.40706834080E+01  0.14482104009E+03  0.67336939754E+02  0.15976222197E+03  0.00000000000E+00 0. -1.
          1    1    6    6  503    0  0.32867817625E+03 -0.85042622553E+02 -0.11355855757E+03  0.35799041495E+03  0.00000000000E+00 0. -1.
         -1    1    6    6    0  503  0.11193862551E+03  0.21448244296E+02 -0.55131949146E+02  0.12660890522E+03  0.00000000000E+00 0.  1.
<mgrwt>
<rscale>  0 0.18606814E+04</rscale>
<asrwt>0</asrwt>
<pdfrwt beam="1">  1        1 0.21561614E+00 0.18606814E+04</pdfrwt>
<pdfrwt beam="2">  1       -1 0.95011474E-01 0.18606814E+04</pdfrwt>
<totfact> 0.77016958E+00</totfact>
</mgrwt>
</event>
<event>
12    3  0.4806716E-008  0.1832096E+04  0.7818608E-02  0.8689415E-01
         -1   -1    0    0    0  501 -0.00000000000E+00  0.00000000000E+00  0.30671247254E+04  0.30671247254E+04  0.00000000000E+00 0.  1.
          1   -1    0    0  501    0  0.00000000000E+00 -0.00000000000E+00 -0.27359297878E+03  0.27359297878E+03  0.00000000000E+00 0. -1.
         23    2    1    2    0    0  0.86516370292E+02  0.52326345357E+03  0.18323906711E+04  0.19097639978E+04  0.90847297441E+02 0.  0.
        254    2    1    2    0    0 -0.86516370292E+02 -0.52326345357E+03  0.96114107551E+03  0.14309537064E+04  0.91790338198E+03 0.  0.
         23    2    4    4    0    0 -0.12010349820E+03  0.69308685229E+02  0.78978953605E+03  0.80661312743E+03  0.87342326262E+02 0.  0.
         23    2    4    4    0    0  0.33587127904E+02 -0.59257213880E+03  0.17135153946E+03  0.62434057897E+03  0.90387906417E+02 0.  0.
          1    1    3    3  502    0 -0.13049801798E+02  0.14105224055E+02  0.59799357240E+02  0.62810968778E+02  0.00000000000E+00 0. -1.
         -1    1    3    3    0  502  0.99566172089E+02  0.50915822952E+03  0.17725913139E+04  0.18469530290E+04  0.00000000000E+00 0.  1.
         13    1    5    5    0    0 -0.55123782250E+02 -0.91972249319E+01  0.18360307346E+03  0.19192005862E+03  0.00000000000E+00 0. -1.
        -13    1    5    5    0    0 -0.64979715945E+02  0.78505910161E+02  0.60618646259E+03  0.61469306881E+03  0.00000000000E+00 0.  1.
          3    1    6    6  503    0 -0.27414453612E+02 -0.89978991295E+02  0.24900289360E+02  0.97302597867E+02  0.00000000000E+00 0. -1.
         -3    1    6    6    0  503  0.61001581517E+02 -0.50259314751E+03  0.14645125010E+03  0.52703798110E+03  0.00000000000E+00 0.  1.
<mgrwt>
<rscale>  0 0.18320958E+04</rscale>
<asrwt>0</asrwt>
<pdfrwt beam="1">  1        1 0.42091230E-01 0.18320958E+04</pdfrwt>
<pdfrwt beam="2">  1       -1 0.47186532E+00 0.18320958E+04</pdfrwt>
<totfact> 0.21327805E-01</totfact>
</mgrwt>
</event>
<event>
12    3  0.4806716E-008  0.1377449E+04  0.7818608E-02  0.8970306E-01
         -2   -1    0    0    0  501 -0.00000000000E+00  0.00000000000E+00  0.33428919689E+03  0.33428919689E+03  0.00000000000E+00 0.  1.
          2   -1    0    0  501    0  0.00000000000E+00 -0.00000000000E+00 -0.14189550000E+04  0.14189550000E+04  0.00000000000E+00 0. -1.
         23    2    1    2    0    0  0.24284914393E+03  0.17998290342E+03 -0.43192849646E+01  0.31546264853E+03  0.90158051026E+02 0.  0.
        254    2    1    2    0    0 -0.24284914393E+03 -0.17998290342E+03 -0.10803465182E+04  0.14377815484E+04  0.89927616967E+03 0.  0.
         23    2    4    4    0    0 -0.45806170897E+03 -0.35641944617E+02 -0.19160099463E+03  0.50672548135E+03  0.94704249417E+02 0.  0.
         23    2    4    4    0    0  0.21521256504E+03 -0.14434095881E+03 -0.88874552356E+03  0.93105606706E+03  0.99227182882E+02 0.  0.
          3    1    3    3  502    0  0.27834524833E+02 -0.24713872203E+01  0.16923655433E+02  0.32669230794E+02  0.00000000000E+00 0. -1.
         -3    1    3    3    0  502  0.21501461910E+03  0.18245429064E+03 -0.21242940398E+02  0.28279341774E+03  0.00000000000E+00 0.  1.
         13    1    5    5    0    0 -0.30531913403E+03  0.15701019556E+02 -0.14872151932E+03  0.33997703736E+03  0.00000000000E+00 0.  1.
        -13    1    5    5    0    0 -0.15274257494E+03 -0.51342964173E+02 -0.42879475313E+02  0.16674844399E+03  0.00000000000E+00 0. -1.
          1    1    6    6  503    0  0.13903914282E+03 -0.48102903767E+02 -0.59029805353E+03  0.60835644534E+03  0.00000000000E+00 0. -1.
         -1    1    6    6    0  503  0.76173422226E+02 -0.96238055039E+02 -0.29844747002E+03  0.32269962171E+03  0.00000000000E+00 0.  1.
<mgrwt>
<rscale>  0 0.13774488E+04</rscale>
<asrwt>0</asrwt>
<pdfrwt beam="1">  1        2 0.21830077E+00 0.13774488E+04</pdfrwt>
<pdfrwt beam="2">  1       -2 0.51429108E-01 0.13774488E+04</pdfrwt>
<totfact> 0.49135996E+01</totfact>
</mgrwt>
</event>
<event>
12    3  0.4806716E-008  0.1664420E+04  0.7818608E-02  0.8781921E-01
          2   -1    0    0  501    0  0.00000000000E+00  0.00000000000E+00  0.97631678069E+03  0.97631678069E+03  0.00000000000E+00 0. -1.
         -2   -1    0    0    0  501 -0.00000000000E+00 -0.00000000000E+00 -0.70937395275E+03  0.70937395275E+03  0.00000000000E+00 0.  1.
         23    2    1    2    0    0 -0.28219675052E+03  0.37666644094E+03 -0.25401494497E+03  0.54272594285E+03  0.92278074512E+02 0.  0.
        254    2    1    2    0    0  0.28219675052E+03 -0.37666644094E+03  0.52095777291E+03  0.11429647906E+04  0.90191956274E+03 0.  0.
         23    2    4    4    0    0 -0.13235482627E+02 -0.44768624803E+03 -0.79383360481E+02  0.46433822886E+03  0.93328013928E+02 0.  0.
         23    2    4    4    0    0  0.29543223315E+03  0.71019807086E+02  0.60034113339E+03  0.67862656174E+03  0.88320532573E+02 0.  0.
          2    1    3    3  502    0 -0.10323496007E+02  0.39841759317E+02 -0.48343510987E+02  0.63490435577E+02  0.00000000000E+00 0. -1.
         -2    1    3    3    0  502 -0.27187325452E+03  0.33682468162E+03 -0.20567143398E+03  0.47923550727E+03  0.00000000000E+00 0.  1.
         13    1    5    5    0    0 -0.41197190021E+02 -0.39386762432E+03 -0.78281534797E+02  0.40367921998E+03  0.00000000000E+00 0. -1.
        -13    1    5    5    0    0  0.27961707394E+02 -0.53818623706E+02 -0.11018256841E+01  0.60659008876E+02  0.00000000000E+00 0.  1.
          1    1    6    6  503    0  0.27630987734E+03  0.44818638249E+02  0.56571225344E+03  0.63117843146E+03  0.00000000000E+00 0. -1.
         -1    1    6    6    0  503  0.19122355816E+02  0.26201168837E+02  0.34628879948E+02  0.47448130278E+02  0.00000000000E+00 0.  1.
<mgrwt>
<rscale>  0 0.16644203E+04</rscale>
<asrwt>0</asrwt>
<pdfrwt beam="1">  1        2 0.15020258E+00 0.16644203E+04</pdfrwt>
<pdfrwt beam="2">  1       -2 0.10913445E+00 0.16644203E+04</pdfrwt>
<totfact> 0.16676681E+01</totfact>
</mgrwt>
</event>
<event>
12    3  0.4806716E-008  0.2091330E+04  0.7818608E-02  0.8565072E-01
          1   -1    0    0  501    0  0.00000000000E+00  0.00000000000E+00  0.44989008258E+03  0.44989008258E+03  0.00000000000E+00 0. -1.
         -1   -1    0    0    0  501 -0.00000000000E+00 -0.00000000000E+00 -0.24304062340E+04  0.24304062340E+04  0.00000000000E+00 0.  1.
         23    2    1    2    0    0 -0.16321165579E+03  0.24102630560E+03  0.29403441406E+03  0.42386916068E+03  0.92071190662E+02 0.  0.
        254    2    1    2    0    0  0.16321165579E+03 -0.24102630560E+03 -0.22745505655E+04  0.24564271559E+04  0.88075102769E+03 0.  0.
         23    2    4    4    0    0  0.20315017198E+03 -0.43067655406E+03 -0.21607216327E+04  0.22144419721E+04  0.91010917833E+02 0.  0.
         23    2    4    4    0    0 -0.39938516186E+02  0.18965024847E+03 -0.11382893283E+03  0.24198518386E+03  0.89652113409E+02 0.  0.
          1    1    3    3  502    0 -0.93706374926E+02  0.19274822397E+03  0.24711206844E+03  0.32710416829E+03  0.00000000000E+00 0. -1.
         -1    1    3    3    0  502 -0.69505280864E+02  0.48278081627E+02  0.46922345617E+02  0.96764992387E+02  0.00000000000E+00 0.  1.
         13    1    5    5    0    0  0.11372828160E+03 -0.33504870480E+03 -0.15620276233E+04  0.16015998416E+04  0.00000000000E+00 0. -1.
        -13    1    5    5    0    0  0.89421890372E+02 -0.95627849267E+02 -0.59869400933E+03  0.61284213043E+03  0.00000000000E+00 0.  1.
          2    1    6    6  503    0 -0.47388146593E+02  0.19693692947E+03 -0.10416074780E+03  0.22777017366E+03  0.00000000000E+00 0. -1.
         -2    1    6    6    0  503  0.74496304078E+01 -0.72866810002E+01 -0.96681850312E+01  0.14215010201E+02  0.00000000000E+00 0.  1.
<mgrwt>
<rscale>  0 0.20913304E+04</rscale>
<asrwt>0</asrwt>
<pdfrwt beam="1">  1        1 0.69213860E-01 0.20913304E+04</pdfrwt>
<pdfrwt beam="2">  1       -1 0.37390864E+00 0.20913304E+04</pdfrwt>
<totfact> 0.50774771E-01</totfact>
</mgrwt>
</event>
<event>
12    3  0.4806716E-008  0.1622066E+04  0.7818608E-02  0.8807106E-01
         -1   -1    0    0    0  501 -0.00000000000E+00  0.00000000000E+00  0.13040287181E+04  0.13040287181E+04  0.00000000000E+00 0.  1.
          1   -1    0    0  501    0  0.00000000000E+00 -0.00000000000E+00 -0.50441707382E+03  0.50441707382E+03  0.00000000000E+00 0. -1.
         23    2    1    2    0    0 -0.14201483908E+03  0.22687002946E+03 -0.25744916605E+03  0.38304363846E+03  0.93830331333E+02 0.  0.
        254    2    1    2    0    0  0.14201483908E+03 -0.22687002946E+03  0.10570608103E+04  0.14254021534E+04  0.91801716626E+03 0.  0.
         23    2    4    4    0    0  0.41958511223E+03 -0.42159710469E+03  0.72387935218E+03  0.94141579708E+03  0.92014136901E+02 0.  0.
         23    2    4    4    0    0 -0.27757027315E+03  0.19472707523E+03  0.33318145814E+03  0.48398635636E+03  0.90934145036E+02 0.  0.
          1    1    3    3  502    0  0.13486825420E+02  0.10366997234E+02 -0.13733316987E+02  0.21862595615E+02  0.00000000000E+00 0.  1.
         -1    1    3    3    0  502 -0.15550166450E+03  0.21650303223E+03 -0.24371584907E+03  0.36118104285E+03  0.00000000000E+00 0. -1.
         13    1    5    5    0    0  0.16014818463E+03 -0.14283548379E+03  0.19684517771E+03  0.29120000079E+03  0.00000000000E+00 0. -1.
        -13    1    5    5    0    0  0.25943692760E+03 -0.27876162090E+03  0.52703417447E+03  0.65021579630E+03  0.00000000000E+00 0.  1.
          1    1    6    6  503    0 -0.15875247635E+03  0.13676345864E+03  0.25630377871E+03  0.33105621780E+03  0.00000000000E+00 0. -1.
         -1    1    6    6    0  503 -0.11881779681E+03  0.57963616590E+02  0.76877679431E+02  0.15293013856E+03  0.00000000000E+00 0.  1.
<mgrwt>
<rscale>  0 0.16220658E+04</rscale>
<asrwt>0</asrwt>
<pdfrwt beam="1">  1        1 0.77602627E-01 0.16220658E+04</pdfrwt>
<pdfrwt beam="2">  1       -1 0.20061980E+00 0.16220658E+04</pdfrwt>
<totfact> 0.62487808E+00</totfact>
</mgrwt>
</event>
<event>
12    3  0.4806716E-008  0.1915315E+04  0.7818608E-02  0.8647271E-01
         -2   -1    0    0    0  501 -0.00000000000E+00  0.00000000000E+00  0.11625973877E+04  0.11625973877E+04  0.00000000000E+00 0.  1.
          2   -1    0    0  501    0  0.00000000000E+00 -0.00000000000E+00 -0.78884356734E+03  0.78884356734E+03  0.00000000000E+00 0. -1.
         23    2    1    2    0    0  0.39180640742E+03  0.45610423476E+03  0.58535751596E+03  0.84413277823E+03  0.91506239869E+02 0.  0.
        254    2    1    2    0    0 -0.39180640742E+03 -0.45610423476E+03 -0.21160369564E+03  0.11073081768E+04  0.90543466936E+03 0.  0.
         23    2    4    4    0    0 -0.33777543038E+03 -0.59360371352E+03 -0.44381806732E+03  0.81963146176E+03  0.91452972301E+02 0.  0.
         23    2    4    4    0    0 -0.54030977037E+02  0.13749947876E+03  0.23221437168E+03  0.28767671502E+03  0.83719321583E+02 0.  0.
          2    1    3    3  502    0  0.61653081117E+02  0.33809433322E+02  0.48052539498E+02  0.85165877820E+02  0.00000000000E+00 0. -1.
         -2    1    3    3    0  502  0.33015332630E+03  0.42229480143E+03  0.53730497646E+03  0.75896690041E+03  0.00000000000E+00 0.  1.
         13    1    5    5    0    0 -0.94584239173E+02 -0.18811117955E+03 -0.18675830060E+03  0.28144387898E+03  0.00000000000E+00 0.  1.
        -13    1    5    5    0    0 -0.24319119121E+03 -0.40549253397E+03 -0.25705976672E+03  0.53818758278E+03  0.00000000000E+00 0. -1.
          1    1    6    6  503    0  0.17106995611E+02  0.75949337772E+01  0.46570229297E+02  0.50190821618E+02  0.00000000000E+00 0.  1.
         -1    1    6    6    0  503 -0.71137972649E+02  0.12990454499E+03  0.18564414238E+03  0.23748589340E+03  0.00000000000E+00 0. -1.
<mgrwt>
<rscale>  0 0.19153146E+04</rscale>
<asrwt>0</asrwt>
<pdfrwt beam="1">  1        2 0.12136055E+00 0.19153146E+04</pdfrwt>
<pdfrwt beam="2">  1       -2 0.17886114E+00 0.19153146E+04</pdfrwt>
<totfact> 0.60586051E+00</totfact>
</mgrwt>
</event>
<event>
12    3  0.4806716E-008  0.1916755E+04  0.7818608E-02  0.8646561E-01
         -1   -1    0    0    0  501 -0.00000000000E+00  0.00000000000E+00  0.25363874803E+04  0.25363874803E+04  0.00000000000E+00 0.  1.
          1   -1    0    0  501    0  0.00000000000E+00 -0.00000000000E+00 -0.36212444096E+03  0.36212444096E+03  0.00000000000E+00 0. -1.
         23    2    1    2    0    0  0.53866369994E+03  0.49787224612E+03  0.91980912830E+03  0.11800123863E+04  0.91351213222E+02 0.  0.
        254    2    1    2    0    0 -0.53866369994E+03 -0.49787224612E+03  0.12544539110E+04  0.17184995350E+04  0.91736071517E+03 0.  0.
         23    2    4    4    0    0 -0.60574879335E+03  0.19973243550E+02  0.87156859992E+03  0.10646053970E+04  0.80139227279E+02 0.  0.
         23    2    4    4    0    0  0.67085093410E+02 -0.51784548967E+03  0.38288531111E+03  0.65389413802E+03  0.91170287666E+02 0.  0.
          2    1    3    3  502    0  0.37068639250E+02  0.71458261303E+02  0.89648813193E+02  0.12048766257E+03  0.00000000000E+00 0. -1.
         -2    1    3    3    0  502  0.50159506069E+03  0.42641398481E+03  0.83016031511E+03  0.10595247237E+04  0.00000000000E+00 0.  1.
         13    1    5    5    0    0 -0.31991920148E+03  0.20935380593E+02  0.39309383439E+03  0.50725668874E+03  0.00000000000E+00 0. -1.
        -13    1    5    5    0    0 -0.28582959187E+03 -0.96213704274E+00  0.47847476553E+03  0.55734870821E+03  0.00000000000E+00 0.  1.
          3    1    6    6  503    0  0.76456673738E+01 -0.25817923242E+03  0.23508237264E+03  0.34925448344E+03  0.00000000000E+00 0. -1.
         -3    1    6    6    0  503  0.59439426036E+02 -0.25966625725E+03  0.14780293847E+03  0.30463965458E+03  0.00000000000E+00 0.  1.
<mgrwt>
<rscale>  0 0.19167555E+04</rscale>
<asrwt>0</asrwt>
<pdfrwt beam="1">  1        1 0.55711454E-01 0.19167555E+04</pdfrwt>
<pdfrwt beam="2">  1       -1 0.39021345E+00 0.19167555E+04</pdfrwt>
<totfact> 0.53488701E-01</totfact>
</mgrwt>
</event>
<event>
12    3  0.4806716E-008  0.1302606E+04  0.7818608E-02  0.9027501E-01
          2   -1    0    0  501    0  0.00000000000E+00  0.00000000000E+00  0.11147010986E+04  0.11147010986E+04  0.00000000000E+00 0. -1.
         -2   -1    0    0    0  501 -0.00000000000E+00 -0.00000000000E+00 -0.38054638249E+03  0.38054638249E+03  0.00000000000E+00 0.  1.
         23    2    1    2    0    0  0.13989060560E+03  0.97217483905E+02  0.52043470132E+03  0.55543348954E+03  0.92916426198E+02 0.  0.
        254    2    1    2    0    0 -0.13989060560E+03 -0.97217483905E+02  0.21372001478E+03  0.93981399153E+03  0.89919601492E+03 0.  0.
         23    2    4    4    0    0 -0.43935281788E+03 -0.11123690977E+03 -0.12524638593E+03  0.47822762201E+03  0.87237908008E+02 0.  0.
         23    2    4    4    0    0  0.29946221227E+03  0.14019425861E+02  0.33896640071E+03  0.46158636952E+03  0.91047212106E+02 0.  0.
          1    1    3    3  502    0  0.13457393291E+03  0.73766975897E+02  0.50256642168E+03  0.52547570672E+03  0.00000000000E+00 0. -1.
         -1    1    3    3    0  502  0.53166726896E+01  0.23450508008E+02  0.17868279632E+02  0.29957782817E+02  0.00000000000E+00 0.  1.
         13    1    5    5    0    0 -0.70160168844E+02 -0.50174722860E+02 -0.10913708292E+02  0.86942861323E+02  0.00000000000E+00 0. -1.
        -13    1    5    5    0    0 -0.36919264903E+03 -0.61062186906E+02 -0.11433267764E+03  0.39128476069E+03  0.00000000000E+00 0.  1.
          3    1    6    6  503    0  0.30802303113E+02 -0.98245495725E+01  0.56632389421E+01  0.32823405166E+02  0.00000000000E+00 0. -1.
         -3    1    6    6    0  503  0.26865990916E+03  0.23843975433E+02  0.33330316177E+03  0.42876296435E+03  0.00000000000E+00 0.  1.
<mgrwt>
<rscale>  0 0.13026058E+04</rscale>
<asrwt>0</asrwt>
<pdfrwt beam="1">  1        2 0.17149248E+00 0.13026058E+04</pdfrwt>
<pdfrwt beam="2">  1       -2 0.58545598E-01 0.13026058E+04</pdfrwt>
<totfact> 0.57035592E+01</totfact>
</mgrwt>
</event>
<event>
12    3  0.4806716E-008  0.1353139E+04  0.7818608E-02  0.8988456E-01
          2   -1    0    0  501    0  0.00000000000E+00  0.00000000000E+00  0.24860018170E+04  0.24860018170E+04  0.00000000000E+00 0. -1.
         -2   -1    0    0    0  501 -0.00000000000E+00 -0.00000000000E+00 -0.18412939908E+03  0.18412939908E+03  0.00000000000E+00 0.  1.
         23    2    1    2    0    0 -0.21759454208E+03 -0.28216590416E+03  0.84218164923E+03  0.91923924172E+03  0.93626230321E+02 0.  0.
        254    2    1    2    0    0  0.21759454208E+03  0.28216590416E+03  0.14596907687E+04  0.17508919744E+04  0.89886627674E+03 0.  0.
         23    2    4    4    0    0 -0.33308503910E+03  0.20631651525E+03  0.56079099184E+03  0.69005358481E+03  0.90417175599E+02 0.  0.
         23    2    4    4    0    0  0.55067958118E+03  0.75849388915E+02  0.89889977690E+03  0.10608383896E+04  0.91411974051E+02 0.  0.
          1    1    3    3  502    0 -0.13220429920E+02  0.50086728859E+01  0.18290863889E+02  0.23117574984E+02  0.00000000000E+00 0. -1.
         -1    1    3    3    0  502 -0.20437411216E+03 -0.28717457705E+03  0.82389078534E+03  0.89612166674E+03  0.00000000000E+00 0.  1.
         13    1    5    5    0    0 -0.33469660989E+03  0.18897074997E+03  0.53039648029E+03  0.65502075640E+03  0.00000000000E+00 0.  1.
        -13    1    5    5    0    0  0.16115707960E+01  0.17345765276E+02  0.30394511558E+02  0.35032828409E+02  0.00000000000E+00 0. -1.
          1    1    6    6  503    0  0.94463711914E+02  0.13990754946E+02  0.96634575447E+02  0.13585792308E+03  0.00000000000E+00 0. -1.
         -1    1    6    6    0  503  0.45621586926E+03  0.61858633968E+02  0.80226520145E+03  0.92498046651E+03  0.00000000000E+00 0.  1.
<mgrwt>
<rscale>  0 0.13531386E+04</rscale>
<asrwt>0</asrwt>
<pdfrwt beam="1">  1        2 0.38246179E+00 0.13531386E+04</pdfrwt>
<pdfrwt beam="2">  1       -2 0.28327602E-01 0.13531386E+04</pdfrwt>
<totfact> 0.39675712E+01</totfact>
</mgrwt>
</event>
<event>
12    3  0.4806716E-008  0.2398717E+04  0.7818608E-02  0.8439984E-01
         -2   -1    0    0    0  501 -0.00000000000E+00  0.00000000000E+00  0.51645229453E+03  0.51645229453E+03  0.00000000000E+00 0.  1.
          2   -1    0    0  501    0  0.00000000000E+00 -0.00000000000E+00 -0.27852725254E+04  0.27852725254E+04  0.00000000000E+00 0. -1.
         23    2    1    2    0    0  0.49108389162E+03 -0.86933237312E+03 -0.13090209327E+04  0.16488012746E+04  0.90042641816E+02 0.  0.
        254    2    1    2    0    0 -0.49108389162E+03  0.86933237312E+03 -0.95979929810E+03  0.16529235453E+04  0.90224131489E+03 0.  0.
         23    2    4    4    0    0 -0.20075227430E+03 -0.15568034667E+03 -0.26182677425E+03  0.37588281353E+03  0.90536091268E+02 0.  0.
         23    2    4    4    0    0 -0.29033161733E+03  0.10250127198E+04 -0.69797252385E+03  0.12770407317E+04  0.93401620481E+02 0.  0.
          2    1    3    3  502    0  0.39924678198E+03 -0.72652304323E+03 -0.11367268749E+04  0.14069050122E+04  0.00000000000E+00 0.  1.
         -2    1    3    3    0  502  0.91837109644E+02 -0.14280932988E+03 -0.17229405784E+03  0.24189626242E+03  0.00000000000E+00 0. -1.
         13    1    5    5    0    0 -0.22375441633E+02 -0.66677906306E+02 -0.66655312450E+02  0.96899609160E+02  0.00000000000E+00 0. -1.
        -13    1    5    5    0    0 -0.17837683266E+03 -0.89002440362E+02 -0.19517146180E+03  0.27898320437E+03  0.00000000000E+00 0.  1.
          2    1    6    6  503    0 -0.22288686596E+03  0.86274607285E+03 -0.54860536786E+03  0.10464115781E+04  0.00000000000E+00 0.  1.
         -2    1    6    6    0  503 -0.67444751363E+02  0.16226664694E+03 -0.14936715599E+03  0.23062915358E+03  0.00000000000E+00 0. -1.
<mgrwt>
<rscale>  0 0.23987166E+04</rscale>
<asrwt>0</asrwt>
<pdfrwt beam="1">  1        2 0.42850346E+00 0.23987166E+04</pdfrwt>
<pdfrwt beam="2">  1       -2 0.79454200E-01 0.23987166E+04</pdfrwt>
<totfact> 0.29801184E+00</totfact>
</mgrwt>
</event>
<event>
12    3  0.4806716E-008  0.3257350E+04  0.7818608E-02  0.8173833E-01
          2   -1    0    0  501    0  0.00000000000E+00  0.00000000000E+00  0.29512921913E+04  0.29512921913E+04  0.00000000000E+00 0.  1.
         -2   -1    0    0    0  501 -0.00000000000E+00 -0.00000000000E+00 -0.89878661354E+03  0.89878661354E+03  0.00000000000E+00 0. -1.
         23    2    1    2    0    0  0.28157240326E+03 -0.41370846317E+02 -0.79735482392E+03  0.85182587350E+03  0.94010841573E+02 0.  0.
        254    2    1    2    0    0 -0.28157240326E+03  0.41370846317E+02  0.28498604016E+04  0.29982529313E+04  0.88702974358E+03 0.  0.
         23    2    4    4    0    0  0.57398427868E+02 -0.14476271437E+03  0.23621068099E+04  0.23690642956E+04  0.93092599394E+02 0.  0.
         23    2    4    4    0    0 -0.33897083113E+03  0.18613356069E+03  0.48775359170E+03  0.62918863571E+03  0.91803302323E+02 0.  0.
          1    1    3    3  502    0  0.25216724275E+03 -0.59286439920E+01 -0.70180409940E+03  0.74575630139E+03  0.00000000000E+00 0. -1.
         -1    1    3    3    0  502  0.29405160511E+02 -0.35442202325E+02 -0.95550724519E+02  0.10606957210E+03  0.00000000000E+00 0.  1.
         13    1    5    5    0    0  0.25773508623E+02 -0.95757198921E+02  0.83881365902E+03  0.84465500025E+03  0.00000000000E+00 0. -1.
        -13    1    5    5    0    0  0.31624919245E+02 -0.49005515454E+02  0.15232931509E+04  0.15244092953E+04  0.00000000000E+00 0.  1.
          4    1    6    6  503    0 -0.11596939348E+03  0.10263820728E+03  0.23939569429E+03  0.28512067667E+03  0.00000000000E+00 0. -1.
         -4    1    6    6    0  503 -0.22300143765E+03  0.83495353414E+02  0.24835789741E+03  0.34406795905E+03  0.00000000000E+00 0.  1.
<mgrwt>
<rscale>  0 0.32573498E+04</rscale>
<asrwt>0</asrwt>
<pdfrwt beam="1">  1        2 0.45404495E+00 0.32573498E+04</pdfrwt>
<pdfrwt beam="2">  1       -2 0.13827486E+00 0.32573498E+04</pdfrwt>
<totfact> 0.58014537E-01</totfact>
</mgrwt>
</event>
<event>
12    3  0.4806716E-008  0.1801967E+04  0.7818608E-02  0.8705254E-01
          1   -1    0    0  501    0  0.00000000000E+00  0.00000000000E+00  0.46346029971E+03  0.46346029971E+03  0.00000000000E+00 0. -1.
         -1   -1    0    0    0  501 -0.00000000000E+00 -0.00000000000E+00 -0.17515436441E+04  0.17515436441E+04  0.00000000000E+00 0.  1.
         23    2    1    2    0    0 -0.63826043082E+02 -0.29966212431E+03 -0.12662984622E+04  0.13060940213E+04  0.92188093517E+02 0.  0.
        254    2    1    2    0    0  0.63826043082E+02  0.29966212431E+03 -0.21784882155E+02  0.90890992248E+03  0.85543644625E+03 0.  0.
         23    2    4    4    0    0  0.10471469160E+03  0.49020601489E+03  0.24561662460E+03  0.56590917840E+03  0.93051428004E+02 0.  0.
         23    2    4    4    0    0 -0.40888648518E+02 -0.19054389057E+03 -0.26740150675E+03  0.34300074408E+03  0.90371947035E+02 0.  0.
          1    1    3    3  502    0  0.23684629598E+02 -0.55131950584E+02 -0.21882912533E+03  0.22690676443E+03  0.00000000000E+00 0. -1.
         -1    1    3    3    0  502 -0.87510672680E+02 -0.24453017373E+03 -0.10474693369E+04  0.10791872569E+04  0.00000000000E+00 0.  1.
         13    1    5    5    0    0  0.16065388935E+02  0.24205876035E+03  0.15194805571E+03  0.28624945733E+03  0.00000000000E+00 0. -1.
        -13    1    5    5    0    0  0.88649302665E+02  0.24814725453E+03  0.93668568891E+02  0.27965972108E+03  0.00000000000E+00 0.  1.
          1    1    6    6  503    0  0.11938970134E+02 -0.14281735157E+03 -0.16989685528E+03  0.22227072760E+03  0.00000000000E+00 0. -1.
         -1    1    6    6    0  503 -0.52827618652E+02 -0.47726539005E+02 -0.97504651478E+02  0.12073001647E+03  0.00000000000E+00 0.  1.
<mgrwt>
<rscale>  0 0.18019666E+04</rscale>
<asrwt>0</asrwt>
<pdfrwt beam="1">  1        1 0.71301584E-01 0.18019666E+04</pdfrwt>
<pdfrwt beam="2">  1       -1 0.26946825E+00 0.18019666E+04</pdfrwt>
<totfact> 0.24181153E+00</totfact>
</mgrwt>
</event>
<event>
12    3  0.4806716E-008  0.1647530E+04  0.7818608E-02  0.8791869E-01
         -2   -1    0    0    0  501 -0.00000000000E+00  0.00000000000E+00  0.83026853096E+03  0.83026853096E+03  0.00000000000E+00 0. -1.
          2   -1    0    0  501    0  0.00000000000E+00 -0.00000000000E+00 -0.81731202296E+03  0.81731202296E+03  0.00000000000E+00 0.  1.
         23    2    1    2    0    0  0.52779330753E+03 -0.25616502201E+01 -0.22155616128E+03  0.57998849526E+03  0.93419401115E+02 0.  0.
        254    2    1    2    0    0 -0.52779330753E+03  0.25616502201E+01  0.23451266928E+03  0.10675920587E+04  0.89787764986E+03 0.  0.
         23    2    4    4    0    0  0.10309547307E+03 -0.11695583281E+03 -0.21312885059E+03  0.27984746577E+03  0.92646390928E+02 0.  0.
         23    2    4    4    0    0 -0.63088878060E+03  0.11951748303E+03  0.44764151987E+03  0.78774459288E+03  0.88620150419E+02 0.  0.
          2    1    3    3  502    0  0.16911938697E+03  0.24440302471E+02 -0.33588144609E+02  0.17414608491E+03  0.00000000000E+00 0. -1.
         -2    1    3    3    0  502  0.35867392056E+03 -0.27001952691E+02 -0.18796801668E+03  0.40584241034E+03  0.00000000000E+00 0.  1.
         13    1    5    5    0    0  0.68835970528E+02 -0.20907428503E+02 -0.50518217899E+02  0.87906778719E+02  0.00000000000E+00 0.  1.
        -13    1    5    5    0    0  0.34259502546E+02 -0.96048404304E+02 -0.16261063269E+03  0.19194068705E+03  0.00000000000E+00 0. -1.
          2    1    6    6  503    0 -0.52650082112E+03  0.13065079933E+03  0.38866248349E+03  0.66733145593E+03  0.00000000000E+00 0. -1.
         -2    1    6    6    0  503 -0.10438795949E+03 -0.11133316302E+02  0.58979036378E+02  0.12041313695E+03  0.00000000000E+00 0.  1.
<mgrwt>
<rscale>  0 0.16475296E+04</rscale>
<asrwt>0</asrwt>
<pdfrwt beam="1">  1        2 0.12574031E+00 0.16475296E+04</pdfrwt>
<pdfrwt beam="2">  1       -2 0.12773362E+00 0.16475296E+04</pdfrwt>
<totfact> 0.14519199E+01</totfact>
</mgrwt>
</event>
<event>
12    3  0.4806716E-008  0.1318625E+04  0.7818608E-02  0.9014925E-01
         -3   -1    0    0    0  501 -0.00000000000E+00  0.00000000000E+00  0.15828151128E+04  0.15828151128E+04  0.00000000000E+00 0.  1.
          3   -1    0    0  501    0  0.00000000000E+00 -0.00000000000E+00 -0.27463261845E+03  0.27463261845E+03  0.00000000000E+00 0. -1.
         23    2    1    2    0    0  0.26464054677E+03  0.19879112887E+03  0.25053804392E+03  0.42491195105E+03  0.90710102977E+02 0.  0.
        254    2    1    2    0    0 -0.26464054677E+03 -0.19879112887E+03  0.10576444505E+04  0.14325357802E+04  0.90774139830E+03 0.  0.
         23    2    4    4    0    0 -0.19913329743E+03 -0.38909112044E+03  0.11059967782E+03  0.45994406425E+03  0.90941098274E+02 0.  0.
         23    2    4    4    0    0 -0.65507249337E+02  0.19029999157E+03  0.94704477265E+03  0.97259171600E+03  0.92388084340E+02 0.  0.
          4    1    3    3  502    0  0.60775284889E+02  0.22377303372E+02  0.14005786602E+02  0.66261157686E+02  0.00000000000E+00 0. -1.
         -4    1    3    3    0  502  0.20386526188E+03  0.17641382550E+03  0.23653225732E+03  0.35865079336E+03  0.00000000000E+00 0.  1.
         13    1    5    5    0    0 -0.95260557268E+02 -0.12940376703E+03  0.77190822050E+02  0.17826477976E+03  0.00000000000E+00 0.  1.
        -13    1    5    5    0    0 -0.10387274016E+03 -0.25968735341E+03  0.33408855765E+02  0.28167928449E+03  0.00000000000E+00 0. -1.
          2    1    6    6  503    0  0.11511716251E+02  0.88758361217E+02  0.29790736460E+03  0.31106167263E+03  0.00000000000E+00 0.  1.
         -2    1    6    6    0  503 -0.77018965589E+02  0.10154163035E+03  0.64913740805E+03  0.66153004337E+03  0.00000000000E+00 0. -1.
<mgrwt>
<rscale>  0 0.13186245E+04</rscale>
<asrwt>0</asrwt>
<pdfrwt beam="1">  1        3 0.42251173E-01 0.13186245E+04</pdfrwt>
<pdfrwt beam="2">  1       -3 0.24351001E+00 0.13186245E+04</pdfrwt>
<totfact> 0.11442058E+00</totfact>
</mgrwt>
</event>
<event>
12    3  0.4806716E-008  0.1698892E+04  0.7818608E-02  0.8761996E-01
         -2   -1    0    0    0  501 -0.00000000000E+00  0.00000000000E+00  0.59380984223E+03  0.59380984223E+03  0.00000000000E+00 0. -1.
          2   -1    0    0  501    0  0.00000000000E+00 -0.00000000000E+00 -0.12151341301E+04  0.12151341301E+04  0.00000000000E+00 0.  1.
         23    2    1    2    0    0  0.29266557975E+03  0.34351870229E+03 -0.65209436314E+03  0.79830969082E+03  0.91722754162E+02 0.  0.
        254    2    1    2    0    0 -0.29266557975E+03 -0.34351870229E+03  0.30770075258E+02  0.10106342815E+04  0.90375694356E+03 0.  0.
         23    2    4    4    0    0  0.31634494407E+03 -0.75145183894E+02  0.32228366292E+02  0.33890144700E+03  0.89969999919E+02 0.  0.
         23    2    4    4    0    0 -0.60901052382E+03 -0.26837351840E+03 -0.14582910343E+01  0.67173283451E+03  0.91130186209E+02 0.  0.
          4    1    3    3  502    0  0.82845921854E+02  0.65659259707E+02 -0.21417919552E+03  0.23884579324E+03  0.00000000000E+00 0. -1.
         -4    1    3    3    0  502  0.20981965790E+03  0.27785944259E+03 -0.43791516762E+03  0.55946389759E+03  0.00000000000E+00 0.  1.
         13    1    5    5    0    0  0.14156011902E+03  0.52667530364E+01  0.37132737600E+02  0.14644400359E+03  0.00000000000E+00 0. -1.
        -13    1    5    5    0    0  0.17478482505E+03 -0.80411936930E+02 -0.49043713078E+01  0.19245744342E+03  0.00000000000E+00 0.  1.
          3    1    6    6  503    0 -0.16547094245E+03 -0.10382341220E+03 -0.30733421687E+02  0.19774851940E+03  0.00000000000E+00 0. -1.
         -3    1    6    6    0  503 -0.44353958137E+03 -0.16455010620E+03  0.29275130653E+02  0.47398431511E+03  0.00000000000E+00 0.  1.
<mgrwt>
<rscale>  0 0.16988921E+04</rscale>
<asrwt>0</asrwt>
<pdfrwt beam="1">  1        2 0.18694371E+00 0.16988921E+04</pdfrwt>
<pdfrwt beam="2">  1       -2 0.91355361E-01 0.16988921E+04</pdfrwt>
<totfact> 0.18024971E+01</totfact>
</mgrwt>
</event>
<event>
12    3  0.4806716E-008  0.1531664E+04  0.7818608E-02  0.8863666E-01
         -1   -1    0    0    0  501 -0.00000000000E+00  0.00000000000E+00  0.27599207156E+03  0.27599207156E+03  0.00000000000E+00 0.  1.
          1   -1    0    0  501    0  0.00000000000E+00 -0.00000000000E+00 -0.21250558741E+04  0.21250558741E+04  0.00000000000E+00 0. -1.
         23    2    1    2    0    0 -0.43353163478E+03 -0.26044754976E+03 -0.53773148731E+03  0.74373701578E+03  0.90592448159E+02 0.  0.
        254    2    1    2    0    0  0.43353163478E+03  0.26044754976E+03 -0.13113323152E+04  0.16573109298E+04  0.87823941654E+03 0.  0.
         23    2    4    4    0    0 -0.25172382989E+03 -0.53038259076E+00 -0.27704380961E+03  0.38584074344E+03  0.93566227937E+02 0.  0.
         23    2    4    4    0    0  0.68525546468E+03  0.26097793235E+03 -0.10342885056E+04  0.12714701864E+04  0.95912403214E+02 0.  0.
          1    1    3    3  502    0 -0.12613018838E+03 -0.49778056987E+02 -0.19446418859E+03  0.23707171915E+03  0.00000000000E+00 0.  1.
         -1    1    3    3    0  502 -0.30740144640E+03 -0.21066949278E+03 -0.34326729872E+03  0.50666529662E+03  0.00000000000E+00 0. -1.
         13    1    5    5    0    0 -0.19847161846E+03 -0.23487734701E+02 -0.25456864631E+03  0.32364772932E+03  0.00000000000E+00 0.  1.
        -13    1    5    5    0    0 -0.53252211437E+02  0.22957352110E+02 -0.22475163303E+02  0.62193014112E+02  0.00000000000E+00 0. -1.
          4    1    6    6  503    0  0.35965155676E+03  0.86580098191E+02 -0.53311102786E+03  0.64888575551E+03  0.00000000000E+00 0. -1.
         -4    1    6    6    0  503  0.32560390792E+03  0.17439783416E+03 -0.50117747772E+03  0.62258443089E+03  0.00000000000E+00 0.  1.
<mgrwt>
<rscale>  0 0.15316639E+04</rscale>
<asrwt>0</asrwt>
<pdfrwt beam="1">  1        1 0.32693166E+00 0.15316639E+04</pdfrwt>
<pdfrwt beam="2">  1       -1 0.42460320E-01 0.15316639E+04</pdfrwt>
<totfact> 0.12912381E+01</totfact>
</mgrwt>
</event>
<event>
12    3  0.4806716E-008  0.1619086E+04  0.7818608E-02  0.8808908E-01
         -1   -1    0    0    0  501 -0.00000000000E+00  0.00000000000E+00  0.27915703368E+03  0.27915703368E+03  0.00000000000E+00 0.  1.
          1   -1    0    0  501    0  0.00000000000E+00 -0.00000000000E+00 -0.23476397496E+04  0.23476397496E+04  0.00000000000E+00 0. -1.
         23    2    1    2    0    0 -0.47051324696E+03 -0.59598196354E+02 -0.29245274757E+03  0.56461364684E+03  0.91243082277E+02 0.  0.
        254    2    1    2    0    0  0.47051324696E+03  0.59598196354E+02 -0.17760299684E+04  0.20621831365E+04  0.93454918499E+03 0.  0.
         23    2    4    4    0    0 -0.12318534496E+03  0.34829911686E+03 -0.68443097952E+03  0.78314088678E+03  0.91525836821E+02 0.  0.
         23    2    4    4    0    0  0.59369859192E+03 -0.28870092051E+03 -0.10915989888E+04  0.12790422497E+04  0.92382273417E+02 0.  0.
          3    1    3    3  502    0 -0.24021197495E+02  0.16046530047E+02 -0.27824510811E+02  0.40108757866E+02  0.00000000000E+00 0. -1.
         -3    1    3    3    0  502 -0.44649204947E+03 -0.75644726401E+02 -0.26462823676E+03  0.52450488898E+03  0.00000000000E+00 0.  1.
         13    1    5    5    0    0 -0.87351916258E+02  0.29859688956E+03 -0.50091576036E+03  0.58966690487E+03  0.00000000000E+00 0.  1.
        -13    1    5    5    0    0 -0.35833428704E+02  0.49702227296E+02 -0.18351521916E+03  0.19347398190E+03  0.00000000000E+00 0. -1.
          4    1    6    6  503    0  0.33666547109E+03 -0.14660005797E+03 -0.52247408516E+03  0.63860346545E+03  0.00000000000E+00 0. -1.
         -4    1    6    6    0  503  0.25703312083E+03 -0.14210086254E+03 -0.56912490369E+03  0.64043878422E+03  0.00000000000E+00 0.  1.
<mgrwt>
<rscale>  0 0.16190863E+04</rscale>
<asrwt>0</asrwt>
<pdfrwt beam="1">  1        1 0.36117535E+00 0.16190863E+04</pdfrwt>
<pdfrwt beam="2">  1       -1 0.42947235E-01 0.16190863E+04</pdfrwt>
<totfact> 0.88467001E+00</totfact>
</mgrwt>
</event>
<event>
12    3  0.4806716E-008  0.2733684E+04  0.7818608E-02  0.8324158E-01
          1   -1    0    0  501    0  0.00000000000E+00  0.00000000000E+00  0.14544489643E+04  0.14544489643E+04  0.00000000000E+00 0. -1.
         -1   -1    0    0    0  501 -0.00000000000E+00 -0.00000000000E+00 -0.12845123880E+04  0.12845123880E+04  0.00000000000E+00 0.  1.
         23    2    1    2    0    0  0.17181624340E+03 -0.81949023001E+03  0.96073061850E+03  0.12776387708E+04  0.90953003358E+02 0.  0.
        254    2    1    2    0    0 -0.17181624340E+03  0.81949023001E+03 -0.79079404226E+03  0.14613225815E+04  0.89945728709E+03 0.  0.
         23    2    4    4    0    0  0.23703927646E+03  0.19293464304E+02  0.79324835313E+01  0.25554922332E+03  0.93180603641E+02 0.  0.
         23    2    4    4    0    0 -0.40885551986E+03  0.80019676571E+03 -0.79872652579E+03  0.12057733582E+04  0.91910980305E+02 0.  0.
          2    1    3    3  502    0  0.13792911014E+03 -0.76509607156E+03  0.90089118276E+03  0.11899585545E+04  0.00000000000E+00 0. -1.
         -2    1    3    3    0  502  0.33887133254E+02 -0.54394158449E+02  0.59839435739E+02  0.87680216373E+02  0.00000000000E+00 0.  1.
         13    1    5    5    0    0  0.22320630813E+03 -0.94336653459E+01  0.41765201192E+01  0.22344460913E+03  0.00000000000E+00 0.  1.
        -13    1    5    5    0    0  0.13832968327E+02  0.28727129650E+02  0.37559634120E+01  0.32104614182E+02  0.00000000000E+00 0. -1.
          3    1    6    6  503    0 -0.23027186318E+02  0.14405449328E+02 -0.16360494463E+02  0.31708580213E+02  0.00000000000E+00 0. -1.
         -3    1    6    6    0  503 -0.38582833354E+03  0.78579131638E+03 -0.78236603133E+03  0.11740647780E+04  0.00000000000E+00 0.  1.
<mgrwt>
<rscale>  0 0.27336845E+04</rscale>
<asrwt>0</asrwt>
<pdfrwt beam="1">  1        1 0.22376138E+00 0.27336845E+04</pdfrwt>
<pdfrwt beam="2">  1       -1 0.19761729E+00 0.27336845E+04</pdfrwt>
<totfact> 0.95782137E-01</totfact>
</mgrwt>
</event>
<event>
12    3  0.4806716E-008  0.2959781E+04  0.7818608E-02  0.8255310E-01
          2   -1    0    0  501    0  0.00000000000E+00  0.00000000000E+00  0.22640017634E+04  0.22640017634E+04  0.00000000000E+00 0. -1.
         -2   -1    0    0    0  501 -0.00000000000E+00 -0.00000000000E+00 -0.96734727749E+03  0.96734727749E+03  0.00000000000E+00 0.  1.
         23    2    1    2    0    0 -0.12813440014E+04 -0.16038763524E+03  0.20147727217E+03  0.13101816306E+04  0.91739689088E+02 0.  0.
        254    2    1    2    0    0  0.12813440014E+04  0.16038763524E+03  0.10951772138E+04  0.19211674103E+04  0.90769182290E+03 0.  0.
         23    2    4    4    0    0  0.10125977856E+04  0.40091646608E+03  0.46186752790E+03  0.11869023390E+04  0.96577745061E+02 0.  0.
         23    2    4    4    0    0  0.26874621577E+03 -0.24052883084E+03  0.63330968588E+03  0.73426507126E+03  0.89361007648E+02 0.  0.
          3    1    3    3  502    0 -0.66072586135E+02 -0.20159382012E+02  0.28291952072E+02  0.74648656208E+02  0.00000000000E+00 0. -1.
         -3    1    3    3    0  502 -0.12152714153E+04 -0.14022825323E+03  0.17318532010E+03  0.12355329744E+04  0.00000000000E+00 0.  1.
         13    1    5    5    0    0  0.26760967581E+03  0.61084220420E+02  0.11918401322E+03  0.29925081383E+03  0.00000000000E+00 0. -1.
        -13    1    5    5    0    0  0.74498810984E+03  0.33983224566E+03  0.34268351469E+03  0.88765152522E+03  0.00000000000E+00 0.  1.
          1    1    6    6  503    0  0.59341471211E+02 -0.21077170784E+02  0.67755505615E+02  0.92501166884E+02  0.00000000000E+00 0. -1.
         -1    1    6    6    0  503  0.20940474456E+03 -0.21945166006E+03  0.56555418027E+03  0.64176390438E+03  0.00000000000E+00 0.  1.
<mgrwt>
<rscale>  0 0.29597810E+04</rscale>
<asrwt>0</asrwt>
<pdfrwt beam="1">  1        2 0.34830796E+00 0.29597810E+04</pdfrwt>
<pdfrwt beam="2">  1       -2 0.14882266E+00 0.29597810E+04</pdfrwt>
<totfact> 0.12484624E+00</totfact>
</mgrwt>
</event>
<event>
12    3  0.4806716E-008  0.2368670E+04  0.7818608E-02  0.8451327E-01
          1   -1    0    0  501    0  0.00000000000E+00  0.00000000000E+00  0.78968465135E+03  0.78968465135E+03  0.00000000000E+00 0. -1.
         -1   -1    0    0    0  501 -0.00000000000E+00 -0.00000000000E+00 -0.17762149771E+04  0.17762149771E+04  0.00000000000E+00 0.  1.
         23    2    1    2    0    0  0.77480985074E+03 -0.62840221781E+03 -0.15454739682E+03  0.10141153410E+04  0.96567980796E+02 0.  0.
        254    2    1    2    0    0 -0.77480985074E+03  0.62840221781E+03 -0.83198292890E+03  0.15517842874E+04  0.84889294287E+03 0.  0.
         23    2    4    4    0    0 -0.87852613937E+03  0.28144014475E+03 -0.67455203565E+03  0.11466326626E+04  0.93430624322E+02 0.  0.
         23    2    4    4    0    0  0.10371628863E+03  0.34696207306E+03 -0.15743089325E+03  0.40515162476E+03  0.90684090286E+02 0.  0.
          3    1    3    3  502    0  0.39950722718E+03 -0.27866279765E+03 -0.41890698795E+02  0.48889038650E+03  0.00000000000E+00 0. -1.
         -3    1    3    3    0  502  0.37530262356E+03 -0.34973942016E+03 -0.11265669802E+03  0.52522495454E+03  0.00000000000E+00 0.  1.
         13    1    5    5    0    0 -0.70923861934E+03  0.23441400118E+03 -0.58875489364E+03  0.95110549777E+03  0.00000000000E+00 0. -1.
        -13    1    5    5    0    0 -0.16928752003E+03  0.47026143577E+02 -0.85797142020E+02  0.19552716486E+03  0.00000000000E+00 0.  1.
          4    1    6    6  503    0  0.73346258077E+02  0.31007399401E+03 -0.10808639208E+03  0.33646429749E+03  0.00000000000E+00 0. -1.
         -4    1    6    6    0  503  0.30370030556E+02  0.36888079050E+02 -0.49344501172E+02  0.68687327273E+02  0.00000000000E+00 0.  1.
<mgrwt>
<rscale>  0 0.23686703E+04</rscale>
<asrwt>0</asrwt>
<pdfrwt beam="1">  1        1 0.12148995E+00 0.23686703E+04</pdfrwt>
<pdfrwt beam="2">  1       -1 0.27326384E+00 0.23686703E+04</pdfrwt>
<totfact> 0.99825166E-01</totfact>
</mgrwt>
</event>
<event>
12    3  0.4806716E-008  0.2125188E+04  0.7818608E-02  0.8550228E-01
         -2   -1    0    0    0  501 -0.00000000000E+00  0.00000000000E+00  0.46873082985E+03  0.46873082985E+03  0.00000000000E+00 0.  1.
          2   -1    0    0  501    0  0.00000000000E+00 -0.00000000000E+00 -0.24088575101E+04  0.24088575101E+04  0.00000000000E+00 0. -1.
         23    2    1    2    0    0  0.26211826407E+03  0.34005571101E+03  0.22543483587E+03  0.49335074531E+03  0.90720569483E+02 0.  0.
        254    2    1    2    0    0 -0.26211826407E+03 -0.34005571101E+03 -0.21655615161E+04  0.23842375947E+04  0.90032680550E+03 0.  0.
         23    2    4    4    0    0 -0.46961337725E+03 -0.24604255941E+03 -0.62681693112E+03  0.82604947650E+03  0.91567501589E+02 0.  0.
         23    2    4    4    0    0  0.20749511318E+03 -0.94013151601E+02 -0.15387445850E+04  0.15581881182E+04  0.91228389374E+02 0.  0.
          3    1    3    3  502    0  0.50480626231E+02  0.23004981637E+02  0.13085643717E+02  0.56997867296E+02  0.00000000000E+00 0. -1.
         -3    1    3    3    0  502  0.21163763784E+03  0.31705072937E+03  0.21234919215E+03  0.43635287802E+03  0.00000000000E+00 0.  1.
         13    1    5    5    0    0 -0.27987050901E+02 -0.27692869716E+02 -0.85386509617E+02  0.94026730646E+02  0.00000000000E+00 0.  1.
        -13    1    5    5    0    0 -0.44162632635E+03 -0.21834968969E+03 -0.54143042150E+03  0.73202274585E+03  0.00000000000E+00 0. -1.
          4    1    6    6  503    0  0.12077705547E+03 -0.10094271477E+03 -0.10561504286E+04  0.10678156473E+04  0.00000000000E+00 0. -1.
         -4    1    6    6    0  503  0.86718057709E+02  0.69295631697E+01 -0.48259415638E+03  0.49037247084E+03  0.00000000000E+00 0.  1.
<mgrwt>
<rscale>  0 0.21251878E+04</rscale>
<asrwt>0</asrwt>
<pdfrwt beam="1">  1        2 0.37059346E+00 0.21251878E+04</pdfrwt>
<pdfrwt beam="2">  1       -2 0.72112435E-01 0.21251878E+04</pdfrwt>
<totfact> 0.62939078E+00</totfact>
</mgrwt>
</event>
<event>
12    3  0.4806716E-008  0.1823229E+04  0.7818608E-02  0.8694043E-01
         -1   -1    0    0    0  501 -0.00000000000E+00  0.00000000000E+00  0.41473312787E+03  0.41473312787E+03  0.00000000000E+00 0.  1.
          1   -1    0    0  501    0  0.00000000000E+00 -0.00000000000E+00 -0.20037967330E+04  0.20037967330E+04  0.00000000000E+00 0. -1.
         23    2    1    2    0    0  0.34751914000E+03  0.16807008978E+03 -0.13587015158E+04  0.14153733289E+04  0.90524821078E+02 0.  0.
        254    2    1    2    0    0 -0.34751914000E+03 -0.16807008978E+03 -0.23036208934E+03  0.10031565320E+04  0.89679386026E+03 0.  0.
         23    2    4    4    0    0 -0.11776126402E+02  0.33177030759E+03  0.17862747146E+02  0.34449204579E+03  0.90252300376E+02 0.  0.
         23    2    4    4    0    0 -0.33574301360E+03 -0.49984039737E+03 -0.24822483648E+03  0.65866448624E+03  0.98282968820E+02 0.  0.
          4    1    3    3  502    0  0.32270920943E+03  0.15027684478E+03 -0.11327848790E+04  0.11874030259E+04  0.00000000000E+00 0. -1.
         -4    1    3    3    0  502  0.24809930570E+02  0.17793245000E+02 -0.22591663686E+03  0.22797030296E+03  0.00000000000E+00 0.  1.
         13    1    5    5    0    0  0.16028069667E+02  0.79502251084E+01  0.72577307888E+01  0.19307505088E+02  0.00000000000E+00 0. -1.
        -13    1    5    5    0    0 -0.27804196069E+02  0.32382008248E+03  0.10605016358E+02  0.32518454070E+03  0.00000000000E+00 0.  1.
          3    1    6    6  503    0 -0.90192387344E+02 -0.81230855359E+02 -0.22593405822E+02  0.12346489616E+03  0.00000000000E+00 0. -1.
         -3    1    6    6    0  503 -0.24555062625E+03 -0.41860954201E+03 -0.22563143066E+03  0.53519959008E+03  0.00000000000E+00 0.  1.
<mgrwt>
<rscale>  0 0.18232289E+04</rscale>
<asrwt>0</asrwt>
<pdfrwt beam="1">  1        1 0.30827642E+00 0.18232289E+04</pdfrwt>
<pdfrwt beam="2">  1       -1 0.63805096E-01 0.18232289E+04</pdfrwt>
<totfact> 0.69502678E+00</totfact>
</mgrwt>
</event>
<event>
12    3  0.4806716E-008  0.1470036E+04  0.7818608E-02  0.8904626E-01
         -1   -1    0    0    0  501 -0.00000000000E+00  0.00000000000E+00  0.43262328015E+03  0.43262328015E+03  0.00000000000E+00 0. -1.
          1   -1    0    0  501    0  0.00000000000E+00 -0.00000000000E+00 -0.12487811319E+04  0.12487811319E+04  0.00000000000E+00 0.  1.
         23    2    1    2    0    0 -0.34425589970E+02  0.12212638943E+03  0.24267904404E+03  0.28885089090E+03  0.91878955792E+02 0.  0.
        254    2    1    2    0    0  0.34425589970E+02 -0.12212638943E+03 -0.10588368958E+04  0.13925535211E+04  0.89552764396E+03 0.  0.
         23    2    4    4    0    0 -0.32253625125E+03 -0.28788283100E+03 -0.79697110275E+03  0.91076883865E+03  0.86201978427E+02 0.  0.
         23    2    4    4    0    0  0.35696184122E+03  0.16575644157E+03 -0.26186579300E+03  0.48178468245E+03  0.92982969905E+02 0.  0.
          1    1    3    3  502    0  0.28664403924E+01  0.96014439262E+02  0.98199252335E+02  0.13736841772E+03  0.00000000000E+00 0. -1.
         -1    1    3    3    0  502 -0.37292030362E+02  0.26111950168E+02  0.14447979170E+03  0.15148247318E+03  0.00000000000E+00 0.  1.
         13    1    5    5    0    0 -0.28938095069E+03 -0.28306888607E+03 -0.75843646578E+03  0.85970646241E+03  0.00000000000E+00 0.  1.
        -13    1    5    5    0    0 -0.33155300561E+02 -0.48139449307E+01 -0.38534636967E+02  0.51062376240E+02  0.00000000000E+00 0. -1.
          2    1    6    6  503    0  0.31227368622E+02  0.40162491558E+02 -0.11437343082E+02  0.52143907563E+02  0.00000000000E+00 0. -1.
         -2    1    6    6    0  503  0.32573447260E+03  0.12559395001E+03 -0.25042844992E+03  0.42964077489E+03  0.00000000000E+00 0.  1.
<mgrwt>
<rscale>  0 0.14700364E+04</rscale>
<asrwt>0</asrwt>
<pdfrwt beam="1">  1        1 0.19212018E+00 0.14700364E+04</pdfrwt>
<pdfrwt beam="2">  1       -1 0.66557427E-01 0.14700364E+04</pdfrwt>
<totfact> 0.21839937E+01</totfact>
</mgrwt>
</event>
<event>
12    3  0.4806716E-008  0.1502171E+04  0.7818608E-02  0.8883010E-01
         -2   -1    0    0    0  501 -0.00000000000E+00  0.00000000000E+00  0.32671644171E+03  0.32671644171E+03  0.00000000000E+00 0.  1.
          2   -1    0    0  501    0  0.00000000000E+00 -0.00000000000E+00 -0.17266638578E+04  0.17266638578E+04  0.00000000000E+00 0. -1.
         23    2    1    2    0    0  0.19184408901E+03 -0.60604181475E+02 -0.10705281866E+04  0.10931312084E+04  0.91805333574E+02 0.  0.
        254    2    1    2    0    0 -0.19184408901E+03  0.60604181475E+02 -0.32941922952E+03  0.96024909108E+03  0.87925210654E+03 0.  0.
         23    2    4    4    0    0  0.19606350283E+03  0.79573173975E+02  0.19471688339E+03  0.30162131984E+03  0.91038281752E+02 0.  0.
         23    2    4    4    0    0 -0.38790759184E+03 -0.18968992499E+02 -0.52413611291E+03  0.65862777125E+03  0.90773089180E+02 0.  0.
          1    1    3    3  502    0  0.10943833794E+03  0.26891851142E+01 -0.69178922003E+03  0.70039724905E+03  0.00000000000E+00 0. -1.
         -1    1    3    3    0  502  0.82405751079E+02 -0.63293366590E+02 -0.37873896658E+03  0.39273395940E+03  0.00000000000E+00 0.  1.
         13    1    5    5    0    0  0.15156196653E+02  0.10459461307E+02 -0.90402883839E+01  0.20514322848E+02  0.00000000000E+00 0.  1.
        -13    1    5    5    0    0  0.18090730618E+03  0.69113712667E+02  0.20375717177E+03  0.28110699699E+03  0.00000000000E+00 0. -1.
          1    1    6    6  503    0 -0.31801785456E+03 -0.16557247534E+01 -0.47433991411E+03  0.57108357651E+03  0.00000000000E+00 0. -1.
         -1    1    6    6    0  503 -0.69889737280E+02 -0.17313267746E+02 -0.49796198799E+02  0.87544194736E+02  0.00000000000E+00 0.  1.
<mgrwt>
<rscale>  0 0.15021711E+04</rscale>
<asrwt>0</asrwt>
<pdfrwt beam="1">  1        2 0.26564059E+00 0.15021711E+04</pdfrwt>
<pdfrwt beam="2">  1       -2 0.50264068E-01 0.15021711E+04</pdfrwt>
<totfact> 0.34272561E+01</totfact>
</mgrwt>
</event>
<event>
12    3  0.4806716E-008  0.2594514E+04  0.7818608E-02  0.8370067E-01
          2   -1    0    0  501    0  0.00000000000E+00  0.00000000000E+00  0.15693295353E+04  0.15693295353E+04  0.00000000000E+00 0.  1.
         -2   -1    0    0    0  501 -0.00000000000E+00 -0.00000000000E+00 -0.10723529565E+04  0.10723529565E+04  0.00000000000E+00 0. -1.
         23    2    1    2    0    0  0.69228717242E+03 -0.26253616576E+03  0.11042551498E+04  0.13324972836E+04  0.89346557762E+02 0.  0.
        254    2    1    2    0    0 -0.69228717242E+03  0.26253616576E+03 -0.60727857104E+03  0.13091852083E+04  0.89274401665E+03 0.  0.
         23    2    4    4    0    0 -0.55466082326E+03  0.10648377661E+03  0.87242240271E+02  0.57860905141E+03  0.90497526710E+02 0.  0.
         23    2    4    4    0    0 -0.13762634916E+03  0.15605238915E+03 -0.69452081132E+03  0.73057615686E+03  0.89938887463E+02 0.  0.
          3    1    3    3  502    0  0.16670803528E+03 -0.42892026832E+02  0.31774375102E+03  0.36137568582E+03  0.00000000000E+00 0. -1.
         -3    1    3    3    0  502  0.52557913714E+03 -0.21964413893E+03  0.78651139880E+03  0.97112159775E+03  0.00000000000E+00 0.  1.
         13    1    5    5    0    0 -0.16069129339E+03  0.62635682168E+02 -0.11515894702E+01  0.17247100223E+03  0.00000000000E+00 0.  1.
        -13    1    5    5    0    0 -0.39396952987E+03  0.43848094447E+02  0.88393829741E+02  0.40613804918E+03  0.00000000000E+00 0. -1.
          1    1    6    6  503    0 -0.94450652185E+02  0.61066856191E+02 -0.25265143484E+03  0.27655530034E+03  0.00000000000E+00 0. -1.
         -1    1    6    6    0  503 -0.43175696972E+02  0.94985532960E+02 -0.44186937648E+03  0.45402085652E+03  0.00000000000E+00 0.  1.
<mgrwt>
<rscale>  0 0.25945136E+04</rscale>
<asrwt>0</asrwt>
<pdfrwt beam="1">  1        2 0.24143531E+00 0.25945136E+04</pdfrwt>
<pdfrwt beam="2">  1       -2 0.16497738E+00 0.25945136E+04</pdfrwt>
<totfact> 0.23784241E+00</totfact>
</mgrwt>
</event>
<event>
12    3  0.4806716E-008  0.1885714E+04  0.7818608E-02  0.8662000E-01
         -2   -1    0    0    0  501 -0.00000000000E+00  0.00000000000E+00  0.19136162203E+03  0.19136162203E+03  0.00000000000E+00 0.  1.
          2   -1    0    0  501    0  0.00000000000E+00 -0.00000000000E+00 -0.46455489060E+04  0.46455489060E+04  0.00000000000E+00 0. -1.
         23    2    1    2    0    0 -0.10718118296E+03  0.60744177505E+03 -0.75700399058E+03  0.98083565287E+03  0.92250854338E+02 0.  0.
        254    2    1    2    0    0  0.10718118296E+03 -0.60744177505E+03 -0.36971832934E+04  0.38560748752E+04  0.90535949872E+03 0.  0.
         23    2    4    4    0    0  0.40966509629E+02 -0.83392014252E+03 -0.26976868404E+04  0.28253807588E+04  0.90338720661E+02 0.  0.
         23    2    4    4    0    0  0.66214673327E+02  0.22647836747E+03 -0.99949645300E+03  0.10306941164E+04  0.87523528465E+02 0.  0.
          3    1    3    3  502    0  0.11767820063E+02  0.22615214118E+02 -0.19428783570E+02  0.32053192191E+02  0.00000000000E+00 0. -1.
         -3    1    3    3    0  502 -0.11894900302E+03  0.58482656093E+03 -0.73757520701E+03  0.94878246068E+03  0.00000000000E+00 0.  1.
         13    1    5    5    0    0 -0.39897708747E+01 -0.42300441489E+03 -0.12371568818E+04  0.13074807087E+04  0.00000000000E+00 0. -1.
        -13    1    5    5    0    0  0.44956280504E+02 -0.41091572762E+03 -0.14605299586E+04  0.15179000502E+04  0.00000000000E+00 0.  1.
          4    1    6    6  503    0  0.69728780939E+02  0.11763895106E+03 -0.66510271375E+03  0.67901593909E+03  0.00000000000E+00 0. -1.
         -4    1    6    6    0  503 -0.35141076112E+01  0.10883941641E+03 -0.33439373925E+03  0.35167817726E+03  0.00000000000E+00 0.  1.
<mgrwt>
<rscale>  0 0.18857145E+04</rscale>
<asrwt>0</asrwt>
<pdfrwt beam="1">  1        2 0.71469973E+00 0.18857145E+04</pdfrwt>
<pdfrwt beam="2">  1       -2 0.29440254E-01 0.18857145E+04</pdfrwt>
<totfact> 0.89277854E-01</totfact>
</mgrwt>
</event>
<event>
12    3  0.4806716E-008  0.2393058E+04  0.7818608E-02  0.8442107E-01
         -2   -1    0    0    0  501 -0.00000000000E+00  0.00000000000E+00  0.40908218894E+03  0.40908218894E+03  0.00000000000E+00 0.  1.
          2   -1    0    0  501    0  0.00000000000E+00 -0.00000000000E+00 -0.34997412027E+04  0.34997412027E+04  0.00000000000E+00 0. -1.
         23    2    1    2    0    0  0.81636816962E+03  0.22733530649E+03 -0.22802478626E+04  0.24343282014E+04  0.91022785181E+02 0.  0.
        254    2    1    2    0    0 -0.81636816962E+03 -0.22733530649E+03 -0.81041115113E+03  0.14744951902E+04  0.89399748435E+03 0.  0.
         23    2    4    4    0    0 -0.56698710144E+03 -0.18754538906E+03 -0.98425844682E+03  0.11548481167E+04  0.90894644816E+02 0.  0.
         23    2    4    4    0    0 -0.24938106819E+03 -0.39789917432E+02  0.17384729569E+03  0.31964707344E+03  0.90427952755E+02 0.  0.
          2    1    3    3  502    0  0.23271843134E+03  0.24122425014E+02 -0.59659478230E+03  0.64083156441E+03  0.00000000000E+00 0.  1.
         -2    1    3    3    0  502  0.58364973828E+03  0.20321288147E+03 -0.16836530803E+04  0.17934966370E+04  0.00000000000E+00 0. -1.
         13    1    5    5    0    0 -0.55182220454E+03 -0.16670604783E+03 -0.95794857442E+03  0.11180179440E+04  0.00000000000E+00 0. -1.
        -13    1    5    5    0    0 -0.15164896896E+02 -0.20839341228E+02 -0.26309872394E+02  0.36830172767E+02  0.00000000000E+00 0.  1.
          4    1    6    6  503    0 -0.16313831799E+03 -0.27833747020E+02  0.16233433122E+03  0.23182161970E+03  0.00000000000E+00 0. -1.
         -4    1    6    6    0  503 -0.86242750201E+02 -0.11956170411E+02  0.11512964470E+02  0.87825453736E+02  0.00000000000E+00 0.  1.
<mgrwt>
<rscale>  0 0.23930581E+04</rscale>
<asrwt>0</asrwt>
<pdfrwt beam="1">  1        2 0.53842171E+00 0.23930581E+04</pdfrwt>
<pdfrwt beam="2">  1       -2 0.62935722E-01 0.23930581E+04</pdfrwt>
<totfact> 0.17155473E+00</totfact>
</mgrwt>
</event>
<event>
12    3  0.4806716E-008  0.2511530E+04  0.7818608E-02  0.8398889E-01
         -2   -1    0    0    0  501 -0.00000000000E+00  0.00000000000E+00  0.22846806983E+04  0.22846806983E+04  0.00000000000E+00 0.  1.
          2   -1    0    0  501    0  0.00000000000E+00 -0.00000000000E+00 -0.69022582856E+03  0.69022582856E+03  0.00000000000E+00 0. -1.
         23    2    1    2    0    0  0.45173341294E+03 -0.99482410307E+02  0.18632775323E+04  0.19221188932E+04  0.93691252696E+02 0.  0.
        254    2    1    2    0    0 -0.45173341294E+03  0.99482410307E+02 -0.26882266258E+03  0.10527876337E+04  0.90671734920E+03 0.  0.
         23    2    4    4    0    0 -0.45310935653E+03  0.45556467061E+03 -0.14092708729E+03  0.66371213384E+03  0.88352105731E+02 0.  0.
         23    2    4    4    0    0  0.13759435932E+01 -0.35608226030E+03 -0.12789557529E+03  0.38907549982E+03  0.90697282522E+02 0.  0.
          1    1    3    3  502    0  0.58444149496E+02  0.17402419012E+02  0.27777688742E+03  0.28439156454E+03  0.00000000000E+00 0. -1.
         -1    1    3    3    0  502  0.39328926344E+03 -0.11688482932E+03  0.15855006449E+04  0.16377273287E+04  0.00000000000E+00 0.  1.
         13    1    5    5    0    0 -0.14821809165E+03  0.20389774969E+03 -0.74269389982E+02  0.26279048177E+03  0.00000000000E+00 0. -1.
        -13    1    5    5    0    0 -0.30489126488E+03  0.25166692092E+03 -0.66657697311E+02  0.40092165207E+03  0.00000000000E+00 0.  1.
          1    1    6    6  503    0 -0.29548719973E+02 -0.85565801077E+02 -0.59534374046E+02  0.10834654982E+03  0.00000000000E+00 0. -1.
         -1    1    6    6    0  503  0.30924663566E+02 -0.27051645923E+03 -0.68361201246E+02  0.28072895000E+03  0.00000000000E+00 0.  1.
<mgrwt>
<rscale>  0 0.25115299E+04</rscale>
<asrwt>0</asrwt>
<pdfrwt beam="1">  1        2 0.10618859E+00 0.25115299E+04</pdfrwt>
<pdfrwt beam="2">  1       -2 0.35148934E+00 0.25115299E+04</pdfrwt>
<totfact> 0.56609245E-01</totfact>
</mgrwt>
</event>
<event>
12    3  0.4806716E-008  0.1868949E+04  0.7818608E-02  0.8670469E-01
          1   -1    0    0  501    0  0.00000000000E+00  0.00000000000E+00  0.65602337403E+03  0.65602337403E+03  0.00000000000E+00 0. -1.
         -1   -1    0    0    0  501 -0.00000000000E+00 -0.00000000000E+00 -0.13311155027E+04  0.13311155027E+04  0.00000000000E+00 0.  1.
         23    2    1    2    0    0 -0.11392451529E+03 -0.52418987279E+03  0.24136611112E+03  0.59550726783E+03  0.92830428801E+02 0.  0.
        254    2    1    2    0    0  0.11392451529E+03  0.52418987279E+03 -0.91645823979E+03  0.13916316089E+04  0.89943816445E+03 0.  0.
         23    2    4    4    0    0  0.39706357758E+03  0.13956206884E+03 -0.77188874773E+03  0.88403600654E+03  0.92576272793E+02 0.  0.
         23    2    4    4    0    0 -0.28313906229E+03  0.38462780395E+03 -0.14456949206E+03  0.50759560236E+03  0.92987533215E+02 0.  0.
          4    1    3    3  502    0 -0.34848960478E+02 -0.32271716116E+03  0.17693782945E+03  0.36968609879E+03  0.00000000000E+00 0. -1.
         -4    1    3    3    0  502 -0.79075554817E+02 -0.20147271164E+03  0.64428281674E+02  0.22582116903E+03  0.00000000000E+00 0.  1.
         13    1    5    5    0    0  0.23943349480E+03  0.11809332955E+03 -0.54569158068E+03  0.60749792933E+03  0.00000000000E+00 0. -1.
        -13    1    5    5    0    0  0.15763008278E+03  0.21468739296E+02 -0.22619716705E+03  0.27653807721E+03  0.00000000000E+00 0.  1.
          1    1    6    6  503    0 -0.55069136360E+02  0.71876027162E+02  0.93686529991E+01  0.91030460391E+02  0.00000000000E+00 0. -1.
         -1    1    6    6    0  503 -0.22806992593E+03  0.31275177679E+03 -0.15393814506E+03  0.41656514197E+03  0.00000000000E+00 0.  1.
<mgrwt>
<rscale>  0 0.18689493E+04</rscale>
<asrwt>0</asrwt>
<pdfrwt beam="1">  1        1 0.10092667E+00 0.18689493E+04</pdfrwt>
<pdfrwt beam="2">  1       -1 0.20478700E+00 0.18689493E+04</pdfrwt>
<totfact> 0.39312430E+00</totfact>
</mgrwt>
</event>
<event>
12    3  0.4806716E-008  0.1394487E+04  0.7818608E-02  0.8957819E-01
         -2   -1    0    0    0  501 -0.00000000000E+00  0.00000000000E+00  0.20437347956E+03  0.20437347956E+03  0.00000000000E+00 0.  1.
          2   -1    0    0  501    0  0.00000000000E+00 -0.00000000000E+00 -0.23787270704E+04  0.23787270704E+04  0.00000000000E+00 0. -1.
         23    2    1    2    0    0  0.33697424090E+03 -0.19255746319E+03 -0.69794935260E+03  0.80379444822E+03  0.91226095757E+02 0.  0.
        254    2    1    2    0    0 -0.33697424090E+03  0.19255746319E+03 -0.14764042383E+04  0.17793061018E+04  0.91407369141E+03 0.  0.
         23    2    4    4    0    0 -0.17813796540E+03  0.23864357616E+03 -0.20193264216E+02  0.31090819357E+03  0.87018651733E+02 0.  0.
         23    2    4    4    0    0 -0.15883627550E+03 -0.46086112969E+02 -0.14562109741E+04  0.14683979082E+04  0.91044624165E+02 0.  0.
          3    1    3    3  502    0  0.75892679594E+01  0.64169823774E+01 -0.49114047203E+01  0.11085871518E+02  0.00000000000E+00 0. -1.
         -3    1    3    3    0  502  0.32938497294E+03 -0.19897444557E+03 -0.69303794788E+03  0.79270857671E+03  0.00000000000E+00 0.  1.
         13    1    5    5    0    0 -0.66537323587E+02  0.16024967801E+03 -0.39267601416E+01  0.17355861885E+03  0.00000000000E+00 0. -1.
        -13    1    5    5    0    0 -0.11160064181E+03  0.78393898151E+02 -0.16266504074E+02  0.13734957472E+03  0.00000000000E+00 0.  1.
          2    1    6    6  503    0 -0.14852666378E+03 -0.11167314649E+02 -0.10422664789E+04  0.10528553043E+04  0.00000000000E+00 0. -1.
         -2    1    6    6    0  503 -0.10309611711E+02 -0.34918798320E+02 -0.41394449513E+03  0.41554260386E+03  0.00000000000E+00 0.  1.
<mgrwt>
<rscale>  0 0.13944873E+04</rscale>
<asrwt>0</asrwt>
<pdfrwt beam="1">  1        2 0.36595799E+00 0.13944873E+04</pdfrwt>
<pdfrwt beam="2">  1       -2 0.31442076E-01 0.13944873E+04</pdfrwt>
<totfact> 0.37486230E+01</totfact>
</mgrwt>
</event>
<event>
12    3  0.4806716E-008  0.1300116E+04  0.7818608E-02  0.9029473E-01
          2   -1    0    0  501    0  0.00000000000E+00  0.00000000000E+00  0.80195436304E+03  0.80195436304E+03  0.00000000000E+00 0. -1.
         -2   -1    0    0    0  501 -0.00000000000E+00 -0.00000000000E+00 -0.52693225468E+03  0.52693225468E+03  0.00000000000E+00 0.  1.
         23    2    1    2    0    0 -0.27015870102E+03  0.16424312454E+02  0.28450610150E+03  0.40101655686E+03  0.81333113223E+02 0.  0.
        254    2    1    2    0    0  0.27015870102E+03 -0.16424312454E+02 -0.94839931405E+01  0.92787006086E+03  0.88746685681E+03 0.  0.
         23    2    4    4    0    0  0.44244379020E+03 -0.24893594154E+03  0.20630490750E+03  0.55575538291E+03  0.92610584200E+02 0.  0.
         23    2    4    4    0    0 -0.17228508917E+03  0.23251162908E+03 -0.21578890064E+03  0.37211467795E+03  0.90336450513E+02 0.  0.
          4    1    3    3  502    0 -0.25326519514E+03 -0.66868228648E+01  0.26324932132E+03  0.36536033972E+03  0.00000000000E+00 0. -1.
         -4    1    3    3    0  502 -0.16893505889E+02  0.23111135318E+02  0.21256780181E+02  0.35656217138E+02  0.00000000000E+00 0.  1.
         13    1    5    5    0    0  0.21792942255E+03 -0.10546610476E+03  0.14549999051E+03  0.28246518317E+03  0.00000000000E+00 0. -1.
        -13    1    5    5    0    0  0.22451436765E+03 -0.14346983678E+03  0.60804916994E+02  0.27329019974E+03  0.00000000000E+00 0.  1.
          2    1    6    6  503    0 -0.12280141482E+03  0.94590552015E+02 -0.91695164022E+02  0.18009875935E+03  0.00000000000E+00 0. -1.
         -2    1    6    6    0  503 -0.49483674350E+02  0.13792107707E+03 -0.12409373662E+03  0.19201591860E+03  0.00000000000E+00 0.  1.
<mgrwt>
<rscale>  0 0.13001163E+04</rscale>
<asrwt>0</asrwt>
<pdfrwt beam="1">  1        2 0.12337759E+00 0.13001163E+04</pdfrwt>
<pdfrwt beam="2">  1       -2 0.81066501E-01 0.13001163E+04</pdfrwt>
<totfact> 0.45169170E+01</totfact>
</mgrwt>
</event>
<event>
12    3  0.4806716E-008  0.2899831E+04  0.7818608E-02  0.8272928E-01
         -2   -1    0    0    0  501 -0.00000000000E+00  0.00000000000E+00  0.91529974436E+03  0.91529974436E+03  0.00000000000E+00 0.  1.
          2   -1    0    0  501    0  0.00000000000E+00 -0.00000000000E+00 -0.22967947854E+04  0.22967947854E+04  0.00000000000E+00 0. -1.
         23    2    1    2    0    0 -0.42298781976E+02 -0.52643561314E+03  0.68165454105E+03  0.86776325001E+03  0.97141664580E+02 0.  0.
        254    2    1    2    0    0  0.42298781976E+02  0.52643561314E+03 -0.20631495821E+04  0.23443312798E+04  0.97998944354E+03 0.  0.
         23    2    4    4    0    0  0.22719972971E+03  0.14218847831E+02 -0.16141980124E+04  0.16329096005E+04  0.94533841514E+02 0.  0.
         23    2    4    4    0    0 -0.18490094773E+03  0.51221676531E+03 -0.44895156966E+03  0.71142167928E+03  0.89492562330E+02 0.  0.
          3    1    3    3  502    0 -0.30922522494E+01 -0.98844340433E+02  0.73111218451E+02  0.12298380350E+03  0.00000000000E+00 0. -1.
         -3    1    3    3    0  502 -0.39206529727E+02 -0.42759127271E+03  0.60854332259E+03  0.74477944651E+03  0.00000000000E+00 0.  1.
         13    1    5    5    0    0  0.30430897090E+02  0.84476185289E+01 -0.78012983548E+02  0.84163099744E+02  0.00000000000E+00 0.  1.
        -13    1    5    5    0    0  0.19676883262E+03  0.57712293020E+01 -0.15361850289E+04  0.15487465007E+04  0.00000000000E+00 0. -1.
          4    1    6    6  503    0 -0.98135685919E+02  0.32743811771E+03 -0.22961085294E+03  0.41178571802E+03  0.00000000000E+00 0. -1.
         -4    1    6    6    0  503 -0.86765261812E+02  0.18477864760E+03 -0.21934071672E+03  0.29963596126E+03  0.00000000000E+00 0.  1.
<mgrwt>
<rscale>  0 0.28998315E+04</rscale>
<asrwt>0</asrwt>
<pdfrwt beam="1">  1        2 0.35335304E+00 0.28998315E+04</pdfrwt>
<pdfrwt beam="2">  1       -2 0.14081535E+00 0.28998315E+04</pdfrwt>
<totfact> 0.13899396E+00</totfact>
</mgrwt>
</event>
<event>
12    3  0.4806716E-008  0.2267916E+04  0.7818608E-02  0.8490680E-01
          1   -1    0    0  501    0  0.00000000000E+00  0.00000000000E+00  0.16871594572E+04  0.16871594572E+04  0.00000000000E+00 0. -1.
         -1   -1    0    0    0  501 -0.00000000000E+00 -0.00000000000E+00 -0.76214518721E+03  0.76214518721E+03  0.00000000000E+00 0.  1.
         23    2    1    2    0    0 -0.77175232998E+03 -0.19360120762E+03  0.99375049062E+03  0.12764323624E+04  0.93040054909E+02 0.  0.
        254    2    1    2    0    0  0.77175232998E+03  0.19360120762E+03 -0.68736220587E+02  0.11728722820E+04  0.85896544488E+03 0.  0.
         23    2    4    4    0    0  0.71935935411E+02  0.26347060139E+03 -0.31044344158E+03  0.42354747115E+03  0.91792119999E+02 0.  0.
         23    2    4    4    0    0  0.69981639457E+03 -0.69869393769E+02  0.24170722099E+03  0.74932481088E+03  0.91872592325E+02 0.  0.
          4    1    3    3  502    0 -0.47454607533E+03 -0.83594703190E+02  0.64640215486E+03  0.80623681250E+03  0.00000000000E+00 0. -1.
         -4    1    3    3    0  502 -0.29720625465E+03 -0.11000650443E+03  0.34734833576E+03  0.47019554993E+03  0.00000000000E+00 0.  1.
         13    1    5    5    0    0  0.54364511688E+02  0.62967304462E+02 -0.12313660837E+03  0.14860351908E+03  0.00000000000E+00 0.  1.
        -13    1    5    5    0    0  0.17571423723E+02  0.20050329693E+03 -0.18730683322E+03  0.27494395207E+03  0.00000000000E+00 0. -1.
          4    1    6    6  503    0  0.48481101648E+03 -0.40768144957E+02  0.12224566097E+03  0.50164505875E+03  0.00000000000E+00 0. -1.
         -4    1    6    6    0  503  0.21500537809E+03 -0.29101248812E+02  0.11946156002E+03  0.24767975213E+03  0.00000000000E+00 0.  1.
<mgrwt>
<rscale>  0 0.22679157E+04</rscale>
<asrwt>0</asrwt>
<pdfrwt beam="1">  1        1 0.25956299E+00 0.22679157E+04</pdfrwt>
<pdfrwt beam="2">  1       -1 0.11725311E+00 0.22679157E+04</pdfrwt>
<totfact> 0.28871638E+00</totfact>
</mgrwt>
</event>
<event>
12    3  0.4806716E-008  0.1540617E+04  0.7818608E-02  0.8857883E-01
          1   -1    0    0  501    0  0.00000000000E+00  0.00000000000E+00  0.19958051989E+04  0.19958051989E+04  0.00000000000E+00 0. -1.
         -1   -1    0    0    0  501 -0.00000000000E+00 -0.00000000000E+00 -0.29731134381E+03  0.29731134381E+03  0.00000000000E+00 0.  1.
         23    2    1    2    0    0 -0.25989427881E+03  0.14272874306E+02 -0.76008244244E+02  0.28609674362E+03  0.91243314351E+02 0.  0.
        254    2    1    2    0    0  0.25989427881E+03 -0.14272874306E+02  0.17745020993E+04  0.20070197991E+04  0.90084517111E+03 0.  0.
         23    2    4    4    0    0 -0.23781444015E+03 -0.93268729939E+02  0.16348803271E+03  0.31655657753E+03  0.90691598366E+02 0.  0.
         23    2    4    4    0    0  0.49770871896E+03  0.78995855633E+02  0.16110140666E+04  0.16904632215E+04  0.91352429982E+02 0.  0.
          2    1    3    3  502    0 -0.11608606226E+01 -0.11617271336E+02 -0.15003492546E+02  0.19010875289E+02  0.00000000000E+00 0. -1.
         -2    1    3    3    0  502 -0.25873341819E+03  0.25890145643E+02 -0.61004751698E+02  0.26708586833E+03  0.00000000000E+00 0.  1.
         13    1    5    5    0    0 -0.19006867259E+03 -0.97749388072E+02  0.16267061055E+03  0.26859406304E+03  0.00000000000E+00 0. -1.
        -13    1    5    5    0    0 -0.47745767560E+02  0.44806581333E+01  0.81742216407E+00  0.47962514490E+02  0.00000000000E+00 0.  1.
          1    1    6    6  503    0  0.22794076956E+03  0.77939496282E+02  0.69602239928E+03  0.73653156063E+03  0.00000000000E+00 0. -1.
         -1    1    6    6    0  503  0.26976794940E+03  0.10563593512E+01  0.91499166730E+03  0.95393166089E+03  0.00000000000E+00 0.  1.
<mgrwt>
<rscale>  0 0.15406174E+04</rscale>
<asrwt>0</asrwt>
<pdfrwt beam="1">  1        1 0.30704695E+00 0.15406174E+04</pdfrwt>
<pdfrwt beam="2">  1       -1 0.45740208E-01 0.15406174E+04</pdfrwt>
<totfact> 0.13744988E+01</totfact>
</mgrwt>
</event>
<event>
12    3  0.4806716E-008  0.2564763E+04  0.7818608E-02  0.8380270E-01
         -1   -1    0    0    0  501 -0.00000000000E+00  0.00000000000E+00  0.10995601423E+04  0.10995601423E+04  0.00000000000E+00 0.  1.
          1   -1    0    0  501    0  0.00000000000E+00 -0.00000000000E+00 -0.14955998810E+04  0.14955998810E+04  0.00000000000E+00 0. -1.
         23    2    1    2    0    0 -0.35666896675E+03  0.90638378979E+03 -0.72880034733E+03  0.12199299619E+04  0.91295342434E+02 0.  0.
        254    2    1    2    0    0  0.35666896675E+03 -0.90638378979E+03  0.33276060865E+03  0.13752300614E+04  0.91202180497E+03 0.  0.
         23    2    4    4    0    0  0.14187760073E+03  0.11288965933E+03 -0.12072959780E+03  0.23553315864E+03  0.89592992265E+02 0.  0.
         23    2    4    4    0    0  0.21479136603E+03 -0.10192734491E+04  0.45349020645E+03  0.11396969027E+04  0.90564715554E+02 0.  0.
          4    1    3    3  502    0 -0.32273508106E+02  0.96435736648E+02 -0.11291817851E+03  0.15196034241E+03  0.00000000000E+00 0. -1.
         -4    1    3    3    0  502 -0.32439545865E+03  0.80994805314E+03 -0.61588216883E+03  0.10679696195E+04  0.00000000000E+00 0.  1.
         13    1    5    5    0    0  0.10301874540E+01 -0.35157142352E+00 -0.35852831691E+02  0.35869352223E+02  0.00000000000E+00 0.  1.
        -13    1    5    5    0    0  0.14084741327E+03  0.11324123076E+03 -0.84876766106E+02  0.19966380642E+03  0.00000000000E+00 0. -1.
          1    1    6    6  503    0  0.17465976120E+03 -0.92961337366E+03  0.39257217531E+03  0.10241093543E+04  0.00000000000E+00 0. -1.
         -1    1    6    6    0  503  0.40131604828E+02 -0.89660075460E+02  0.60918031136E+02  0.11558754844E+03  0.00000000000E+00 0.  1.
<mgrwt>
<rscale>  0 0.25647628E+04</rscale>
<asrwt>0</asrwt>
<pdfrwt beam="1">  1        1 0.23009229E+00 0.25647628E+04</pdfrwt>
<pdfrwt beam="2">  1       -1 0.16916310E+00 0.25647628E+04</pdfrwt>
<totfact> 0.14526272E+00</totfact>
</mgrwt>
</event>
<event>
12    3  0.4806716E-008  0.1747029E+04  0.7818608E-02  0.8734987E-01
          2   -1    0    0  501    0  0.00000000000E+00  0.00000000000E+00  0.24129862670E+04  0.24129862670E+04  0.00000000000E+00 0. -1.
         -2   -1    0    0    0  501 -0.00000000000E+00 -0.00000000000E+00 -0.31621726542E+03  0.31621726542E+03  0.00000000000E+00 0.  1.
         23    2    1    2    0    0 -0.13734838436E+03  0.49436020229E+02  0.17544926971E+04  0.17626748307E+04  0.86425897538E+02 0.  0.
        254    2    1    2    0    0  0.13734838436E+03 -0.49436020229E+02  0.34227630452E+03  0.96652870177E+03  0.89202923939E+03 0.  0.
         23    2    4    4    0    0  0.51004054812E+03 -0.24073873283E+02  0.18415927486E+03  0.55065678033E+03  0.92667896883E+02 0.  0.
         23    2    4    4    0    0 -0.37269216375E+03 -0.25362146946E+02  0.15811702966E+03  0.41587192144E+03  0.91683000327E+02 0.  0.
          3    1    3    3  502    0 -0.13939910928E+03  0.31969795337E+02  0.16824089684E+04  0.16884768629E+04  0.00000000000E+00 0. -1.
         -3    1    3    3    0  502  0.20507249209E+01  0.17466224893E+02  0.72083728648E+02  0.74197967766E+02  0.00000000000E+00 0.  1.
         13    1    5    5    0    0  0.47268358007E+03  0.28430950360E+01  0.16326176230E+03  0.50009224458E+03  0.00000000000E+00 0.  1.
        -13    1    5    5    0    0  0.37356968049E+02 -0.26916968319E+02  0.20897512557E+02  0.50564535757E+02  0.00000000000E+00 0. -1.
          2    1    6    6  503    0 -0.15432630847E+03  0.24487465761E+02  0.34425213439E+02  0.16000418990E+03  0.00000000000E+00 0. -1.
         -2    1    6    6    0  503 -0.21836585528E+03 -0.49849612707E+02  0.12369181622E+03  0.25586773153E+03  0.00000000000E+00 0.  1.
<mgrwt>
<rscale>  0 0.17470294E+04</rscale>
<asrwt>0</asrwt>
<pdfrwt beam="1">  1        2 0.37122864E+00 0.17470294E+04</pdfrwt>
<pdfrwt beam="2">  1       -2 0.48648812E-01 0.17470294E+04</pdfrwt>
<totfact> 0.14840676E+01</totfact>
</mgrwt>
</event>
<event>
12    3  0.4806716E-008  0.1816803E+04  0.7818608E-02  0.8697414E-01
          2   -1    0    0  501    0  0.00000000000E+00  0.00000000000E+00  0.14944264805E+04  0.14944264805E+04  0.00000000000E+00 0.  1.
         -2   -1    0    0    0  501 -0.00000000000E+00 -0.00000000000E+00 -0.55218077298E+03  0.55218077298E+03  0.00000000000E+00 0. -1.
         23    2    1    2    0    0  0.24327426358E+03  0.39571112000E+03  0.93723820184E+03  0.10500326625E+04  0.91561387084E+02 0.  0.
        254    2    1    2    0    0 -0.24327426358E+03 -0.39571112000E+03  0.50075056490E+01  0.99657459091E+03  0.88168372011E+03 0.  0.
         23    2    4    4    0    0  0.53439563429E+02  0.16691054395E+03 -0.23859553845E+03  0.30965912452E+03  0.90807630785E+02 0.  0.
         23    2    4    4    0    0 -0.29671382701E+03 -0.56262166396E+03  0.24360304410E+03  0.68691546638E+03  0.89040344648E+02 0.  0.
          2    1    3    3  502    0  0.23681768358E+03  0.37296734704E+03  0.92059937190E+03  0.10211221576E+04  0.00000000000E+00 0.  1.
         -2    1    3    3    0  502  0.64565799948E+01  0.22743772962E+02  0.16638829941E+02  0.28910504935E+02  0.00000000000E+00 0. -1.
         13    1    5    5    0    0 -0.15625949980E+02  0.91633948063E+01 -0.38420187462E+01  0.18517538313E+02  0.00000000000E+00 0.  1.
        -13    1    5    5    0    0  0.69065513409E+02  0.15774714915E+03 -0.23475351970E+03  0.29114158621E+03  0.00000000000E+00 0. -1.
          1    1    6    6  503    0 -0.11660099678E+03 -0.30607067403E+03  0.14611494856E+03  0.35864275839E+03  0.00000000000E+00 0. -1.
         -1    1    6    6    0  503 -0.18011283022E+03 -0.25655098992E+03  0.97488095538E+02  0.32827270799E+03  0.00000000000E+00 0.  1.
<mgrwt>
<rscale>  0 0.18168033E+04</rscale>
<asrwt>0</asrwt>
<pdfrwt beam="1">  1        2 0.22991176E+00 0.18168033E+04</pdfrwt>
<pdfrwt beam="2">  1       -2 0.84950889E-01 0.18168033E+04</pdfrwt>
<totfact> 0.14544555E+01</totfact>
</mgrwt>
</event>
<event>
12    3  0.4806716E-008  0.1928178E+04  0.7818608E-02  0.8640956E-01
         -1   -1    0    0    0  501 -0.00000000000E+00  0.00000000000E+00  0.45177522335E+03  0.45177522335E+03  0.00000000000E+00 0.  1.
          1   -1    0    0  501    0  0.00000000000E+00 -0.00000000000E+00 -0.20573666055E+04  0.20573666055E+04  0.00000000000E+00 0. -1.
         23    2    1    2    0    0 -0.61315022691E+03  0.33124689461E+03 -0.99498896707E+03  0.12181215318E+04  0.90218155480E+02 0.  0.
        254    2    1    2    0    0  0.61315022691E+03 -0.33124689461E+03 -0.61060241509E+03  0.12910202971E+04  0.89901078543E+03 0.  0.
         23    2    4    4    0    0  0.76472073564E+03 -0.40082265540E+03 -0.28416998054E+03  0.91339212361E+03  0.89866506728E+02 0.  0.
         23    2    4    4    0    0 -0.15157050874E+03  0.69575760784E+02 -0.32643243455E+03  0.37762817351E+03  0.90722089336E+02 0.  0.
          1    1    3    3  502    0 -0.33120770009E+03  0.15162269744E+03 -0.45248706160E+03  0.58088942485E+03  0.00000000000E+00 0. -1.
         -1    1    3    3    0  502 -0.28194252682E+03  0.17962419717E+03 -0.54250190547E+03  0.63723210691E+03  0.00000000000E+00 0.  1.
         13    1    5    5    0    0  0.15747949385E+02  0.43262853731E+01 -0.80797949482E+01  0.18220805179E+02  0.00000000000E+00 0.  1.
        -13    1    5    5    0    0  0.74897278626E+03 -0.40514894077E+03 -0.27609018559E+03  0.89517131843E+03  0.00000000000E+00 0. -1.
          3    1    6    6  503    0 -0.43847176010E+02  0.36203533422E+02 -0.20129588009E+03  0.20917289981E+03  0.00000000000E+00 0. -1.
         -3    1    6    6    0  503 -0.10772333273E+03  0.33372227362E+02 -0.12513655447E+03  0.16845527370E+03  0.00000000000E+00 0.  1.
<mgrwt>
<rscale>  0 0.19281776E+04</rscale>
<asrwt>0</asrwt>
<pdfrwt beam="1">  1        1 0.31651794E+00 0.19281776E+04</pdfrwt>
<pdfrwt beam="2">  1       -1 0.69503880E-01 0.19281776E+04</pdfrwt>
<totfact> 0.53237713E+00</totfact>
</mgrwt>
</event>
<event>
12    3  0.4806716E-008  0.1112015E+04  0.7818608E-02  0.9193559E-01
          1   -1    0    0  501    0  0.00000000000E+00  0.00000000000E+00  0.11844729405E+04  0.11844729405E+04  0.00000000000E+00 0. -1.
         -1   -1    0    0    0  501 -0.00000000000E+00 -0.00000000000E+00 -0.26099751526E+03  0.26099751526E+03  0.00000000000E+00 0.  1.
         23    2    1    2    0    0  0.36838996294E+02  0.17334059751E+03  0.14410935185E+03  0.24599480083E+03  0.91333796324E+02 0.  0.
        254    2    1    2    0    0 -0.36838996294E+02 -0.17334059751E+03  0.77936607344E+03  0.11994756550E+04  0.89438598829E+03 0.  0.
         23    2    4    4    0    0  0.27199173490E+03 -0.36972611671E+03  0.20072566981E+03  0.50904751007E+03  0.90341949009E+02 0.  0.
         23    2    4    4    0    0 -0.30883073120E+03  0.19638551920E+03  0.57864040363E+03  0.69042814491E+03  0.89009066284E+02 0.  0.
          4    1    3    3  502    0  0.96785584939E+01 -0.10047428185E+02  0.91142892444E+01  0.16664200433E+02  0.00000000000E+00 0. -1.
         -4    1    3    3    0  502  0.27160437801E+02  0.18338802570E+03  0.13499506260E+03  0.22933060039E+03  0.00000000000E+00 0.  1.
         13    1    5    5    0    0  0.11768494912E+03 -0.10434034464E+03  0.98085469681E+02  0.18535753055E+03  0.00000000000E+00 0. -1.
        -13    1    5    5    0    0  0.15430678579E+03 -0.26538577208E+03  0.10264020013E+03  0.32368997952E+03  0.00000000000E+00 0.  1.
          1    1    6    6  503    0 -0.27562004613E+01 -0.53112988901E+01  0.30079199003E+02  0.30668628101E+02  0.00000000000E+00 0. -1.
         -1    1    6    6    0  503 -0.30607453074E+03  0.20169681809E+03  0.54856120463E+03  0.65975951681E+03  0.00000000000E+00 0.  1.
<mgrwt>
<rscale>  0 0.11120153E+04</rscale>
<asrwt>0</asrwt>
<pdfrwt beam="1">  1        1 0.18222660E+00 0.11120153E+04</pdfrwt>
<pdfrwt beam="2">  1       -1 0.40153464E-01 0.11120153E+04</pdfrwt>
<totfact> 0.66018302E+01</totfact>
</mgrwt>
</event>
<event>
12    3  0.4806716E-008  0.1395166E+04  0.7818608E-02  0.8957325E-01
          2   -1    0    0  501    0  0.00000000000E+00  0.00000000000E+00  0.11727040776E+04  0.11727040776E+04  0.00000000000E+00 0. -1.
         -2   -1    0    0    0  501 -0.00000000000E+00 -0.00000000000E+00 -0.41495748561E+03  0.41495748561E+03  0.00000000000E+00 0.  1.
         23    2    1    2    0    0 -0.89401912848E+02  0.55352777178E+02  0.66486170880E+03  0.67957553056E+03  0.93408660982E+02 0.  0.
        254    2    1    2    0    0  0.89401912848E+02 -0.55352777178E+02  0.92884883195E+02  0.90808603265E+03  0.89718226087E+03 0.  0.
         23    2    4    4    0    0 -0.37849189698E+03 -0.11362708554E+03 -0.46508128977E+02  0.40798254065E+03  0.90108361272E+02 0.  0.
         23    2    4    4    0    0  0.46789380982E+03  0.58274308360E+02  0.13939301217E+03  0.50010349200E+03  0.91392442712E+02 0.  0.
          4    1    3    3  502    0 -0.24415118008E+02  0.38629290930E+02  0.49244354336E+03  0.49455936297E+03  0.00000000000E+00 0. -1.
         -4    1    3    3    0  502 -0.64986794841E+02  0.16723486248E+02  0.17241816543E+03  0.18501616758E+03  0.00000000000E+00 0.  1.
         13    1    5    5    0    0 -0.51523915816E+02  0.11992419150E+02  0.79839290302E+01  0.53500234961E+02  0.00000000000E+00 0.  1.
        -13    1    5    5    0    0 -0.32696798116E+03 -0.12561950469E+03 -0.54492058007E+02  0.35448230569E+03  0.00000000000E+00 0. -1.
          3    1    6    6  503    0  0.45195941408E+03  0.71992021146E+02  0.12434824783E+03  0.47424956492E+03  0.00000000000E+00 0. -1.
         -3    1    6    6    0  503  0.15934395743E+02 -0.13717712786E+02  0.15044764337E+02  0.25853927085E+02  0.00000000000E+00 0.  1.
<mgrwt>
<rscale>  0 0.13951664E+04</rscale>
<asrwt>0</asrwt>
<pdfrwt beam="1">  1        2 0.18041601E+00 0.13951664E+04</pdfrwt>
<pdfrwt beam="2">  1       -2 0.63839614E-01 0.13951664E+04</pdfrwt>
<totfact> 0.43462712E+01</totfact>
</mgrwt>
</event>
<event>
12    3  0.4806716E-008  0.1649784E+04  0.7818608E-02  0.8790534E-01
          2   -1    0    0  501    0  0.00000000000E+00  0.00000000000E+00  0.24048769393E+04  0.24048769393E+04  0.00000000000E+00 0. -1.
         -2   -1    0    0    0  501 -0.00000000000E+00 -0.00000000000E+00 -0.28294466828E+03  0.28294466828E+03  0.00000000000E+00 0.  1.
         23    2    1    2    0    0  0.50508964870E+02 -0.51834124098E+03  0.11743556729E+04  0.12878903999E+04  0.91223012816E+02 0.  0.
        254    2    1    2    0    0 -0.50508964870E+02  0.51834124098E+03  0.94757659814E+03  0.13999312077E+04  0.88920030325E+03 0.  0.
         23    2    4    4    0    0 -0.19367784917E+03  0.42846912432E+03  0.48847851640E+02  0.48109267881E+03  0.89258911248E+02 0.  0.
         23    2    4    4    0    0  0.14316888430E+03  0.89872116662E+02  0.89872874650E+03  0.91883852889E+03  0.89311564707E+02 0.  0.
          1    1    3    3  502    0  0.55996601325E+02 -0.46157319743E+03  0.10996115474E+04  0.11938722675E+04  0.00000000000E+00 0. -1.
         -1    1    3    3    0  502 -0.54876364544E+01 -0.56768043553E+02  0.74744125462E+02  0.94018132367E+02  0.00000000000E+00 0.  1.
         13    1    5    5    0    0 -0.14428036730E+03  0.35792505866E+03  0.85359779338E+01  0.38600522655E+03  0.00000000000E+00 0. -1.
        -13    1    5    5    0    0 -0.49397481877E+02  0.70544065667E+02  0.40311873707E+02  0.95087452265E+02  0.00000000000E+00 0.  1.
          1    1    6    6  503    0  0.11881703661E+03  0.27005703858E+02  0.51379838962E+03  0.52804884377E+03  0.00000000000E+00 0. -1.
         -1    1    6    6    0  503  0.24351847697E+02  0.62866412804E+02  0.38493035688E+03  0.39078968512E+03  0.00000000000E+00 0.  1.
<mgrwt>
<rscale>  0 0.16497844E+04</rscale>
<asrwt>0</asrwt>
<pdfrwt beam="1">  1        2 0.36998105E+00 0.16497844E+04</pdfrwt>
<pdfrwt beam="2">  1       -2 0.43529950E-01 0.16497844E+04</pdfrwt>
<totfact> 0.18909537E+01</totfact>
</mgrwt>
</event>
<event>
12    3  0.4806716E-008  0.1830577E+04  0.7818608E-02  0.8690206E-01
         -2   -1    0    0    0  501 -0.00000000000E+00  0.00000000000E+00  0.59078912774E+03  0.59078912774E+03  0.00000000000E+00 0. -1.
          2   -1    0    0  501    0  0.00000000000E+00 -0.00000000000E+00 -0.14180239219E+04  0.14180239219E+04  0.00000000000E+00 0.  1.
         23    2    1    2    0    0 -0.26387196743E+03 -0.48335335015E+03  0.14581441136E+03  0.57576956860E+03  0.83605485905E+02 0.  0.
        254    2    1    2    0    0  0.26387196743E+03  0.48335335015E+03 -0.97304920554E+03  0.14330434811E+04  0.89639834108E+03 0.  0.
         23    2    4    4    0    0 -0.41968874395E+02  0.54099143266E+03 -0.18396052996E+03  0.57995651170E+03  0.89860793714E+02 0.  0.
         23    2    4    4    0    0  0.30584084182E+03 -0.57638082507E+02 -0.78908867558E+03  0.85308696936E+03  0.90750593821E+02 0.  0.
          4    1    3    3  502    0 -0.21767674453E+03 -0.37063221093E+03  0.79661491360E+02  0.43714683356E+03  0.00000000000E+00 0. -1.
         -4    1    3    3    0  502 -0.46195222894E+02 -0.11272113922E+03  0.66152919996E+02  0.13862273504E+03  0.00000000000E+00 0.  1.
         13    1    5    5    0    0 -0.19108667481E+02  0.41552635295E+03 -0.17752469587E+03  0.45226353911E+03  0.00000000000E+00 0. -1.
        -13    1    5    5    0    0 -0.22860206914E+02  0.12546507971E+03 -0.64358340954E+01  0.12769297259E+03  0.00000000000E+00 0.  1.
          1    1    6    6  503    0  0.21358088471E+03 -0.79203377956E+02 -0.51650676793E+03  0.56450793680E+03  0.00000000000E+00 0. -1.
         -1    1    6    6    0  503  0.92259957115E+02  0.21565295449E+02 -0.27258190765E+03  0.28857903256E+03  0.00000000000E+00 0.  1.
<mgrwt>
<rscale>  0 0.18305771E+04</rscale>
<asrwt>0</asrwt>
<pdfrwt beam="1">  1        2 0.21815753E+00 0.18305771E+04</pdfrwt>
<pdfrwt beam="2">  1       -2 0.90890635E-01 0.18305771E+04</pdfrwt>
<totfact> 0.13748679E+01</totfact>
</mgrwt>
</event>
<event>
12    3  0.4806716E-008  0.2654883E+04  0.7818608E-02  0.8349794E-01
         -1   -1    0    0    0  501 -0.00000000000E+00  0.00000000000E+00  0.12442756813E+04  0.12442756813E+04  0.00000000000E+00 0.  1.
          1   -1    0    0  501    0  0.00000000000E+00 -0.00000000000E+00 -0.14161661086E+04  0.14161661086E+04  0.00000000000E+00 0. -1.
         23    2    1    2    0    0 -0.11743984678E+04  0.81279794159E+02 -0.65355998539E+02  0.11823791426E+04  0.89055398580E+02 0.  0.
        254    2    1    2    0    0  0.11743984678E+04 -0.81279794159E+02 -0.10653442875E+03  0.14780626474E+04  0.88741277818E+03 0.  0.
         23    2    4    4    0    0  0.12608831394E+04 -0.10927856260E+03 -0.24111923159E+03  0.12915882808E+04  0.91069795990E+02 0.  0.
         23    2    4    4    0    0 -0.86484671582E+02  0.27998768438E+02  0.13458480284E+03  0.18647436658E+03  0.91630184899E+02 0.  0.
          1    1    3    3  502    0 -0.87767480695E+03  0.49019634740E+02 -0.85724834395E+02  0.88321273688E+03  0.00000000000E+00 0. -1.
         -1    1    3    3    0  502 -0.29672366088E+03  0.32260159419E+02  0.20368835857E+02  0.29916640567E+03  0.00000000000E+00 0.  1.
         13    1    5    5    0    0  0.18511809512E+03 -0.12608034537E+02 -0.68468416387E+02  0.19777663087E+03  0.00000000000E+00 0.  1.
        -13    1    5    5    0    0  0.10757650443E+04 -0.96670528060E+02 -0.17265081520E+03  0.10938116499E+04  0.00000000000E+00 0. -1.
          1    1    6    6  503    0 -0.76490796595E+02  0.55982552593E+02  0.12125162678E+03  0.15390531230E+03  0.00000000000E+00 0. -1.
         -1    1    6    6    0  503 -0.99938749871E+01 -0.27983784155E+02  0.13333176063E+02  0.32569054282E+02  0.00000000000E+00 0.  1.
<mgrwt>
<rscale>  0 0.26548831E+04</rscale>
<asrwt>0</asrwt>
<pdfrwt beam="1">  1        1 0.21787171E+00 0.26548831E+04</pdfrwt>
<pdfrwt beam="2">  1       -1 0.19142703E+00 0.26548831E+04</pdfrwt>
<totfact> 0.11329118E+00</totfact>
</mgrwt>
</event>
<event>
12    3  0.4806716E-008  0.1964793E+04  0.7818608E-02  0.8623260E-01
         -2   -1    0    0    0  501 -0.00000000000E+00  0.00000000000E+00  0.85244410349E+03  0.85244410349E+03  0.00000000000E+00 0. -1.
          2   -1    0    0  501    0  0.00000000000E+00 -0.00000000000E+00 -0.11321597070E+04  0.11321597070E+04  0.00000000000E+00 0.  1.
         23    2    1    2    0    0 -0.44000810889E+03  0.61791889608E+03 -0.26973346716E+03  0.81029630582E+03  0.91613655672E+02 0.  0.
        254    2    1    2    0    0  0.44000810889E+03 -0.61791889608E+03 -0.99821363766E+01  0.11743075047E+04  0.89636352810E+03 0.  0.
         23    2    4    4    0    0  0.40925139099E+03 -0.83589429239E+03  0.10994928207E+02  0.93512652956E+03  0.90192952980E+02 0.  0.
         23    2    4    4    0    0  0.30756717903E+02  0.21797539631E+03 -0.20977064584E+02  0.23918097513E+03  0.91149616197E+02 0.  0.
          4    1    3    3  502    0 -0.20037335794E+03  0.33632018252E+03 -0.17356085110E+03  0.42823371747E+03  0.00000000000E+00 0. -1.
         -4    1    3    3    0  502 -0.23963475095E+03  0.28159871356E+03 -0.96172616056E+02  0.38206258835E+03  0.00000000000E+00 0.  1.
         13    1    5    5    0    0  0.20620174160E+03 -0.38580269028E+03 -0.37078545685E+02  0.43901901168E+03  0.00000000000E+00 0. -1.
        -13    1    5    5    0    0  0.20304964939E+03 -0.45009160211E+03  0.48073473893E+02  0.49610751788E+03  0.00000000000E+00 0.  1.
          2    1    6    6  503    0  0.30062075484E+02  0.31798810952E+02  0.20679533395E+02  0.48399750638E+02  0.00000000000E+00 0. -1.
         -2    1    6    6    0  503  0.69464241865E+00  0.18617658536E+03 -0.41656597979E+02  0.19078122449E+03  0.00000000000E+00 0.  1.
<mgrwt>
<rscale>  0 0.19647930E+04</rscale>
<asrwt>0</asrwt>
<pdfrwt beam="1">  1        2 0.17417842E+00 0.19647930E+04</pdfrwt>
<pdfrwt beam="2">  1       -2 0.13114525E+00 0.19647930E+04</pdfrwt>
<totfact> 0.82388363E+00</totfact>
</mgrwt>
</event>
<event>
12    3  0.4806716E-008  0.3471667E+04  0.7818608E-02  0.8120538E-01
          2   -1    0    0  501    0  0.00000000000E+00  0.00000000000E+00  0.30564310462E+04  0.30564310462E+04  0.00000000000E+00 0. -1.
         -2   -1    0    0    0  501 -0.00000000000E+00 -0.00000000000E+00 -0.98582871492E+03  0.98582871492E+03  0.00000000000E+00 0.  1.
         23    2    1    2    0    0  0.25599302064E+03  0.11434192377E+04  0.22659876423E+04  0.25526275430E+04  0.90925235442E+02 0.  0.
        254    2    1    2    0    0 -0.25599302064E+03 -0.11434192377E+04 -0.19538531102E+03  0.14896322181E+04  0.89882631567E+03 0.  0.
         23    2    4    4    0    0 -0.25769396844E+03  0.43843507130E+02 -0.91909858648E+02  0.29413171197E+03  0.98679315892E+02 0.  0.
         23    2    4    4    0    0  0.17009477946E+01 -0.11872627448E+04 -0.10347545237E+03  0.11955005062E+04  0.94438193885E+02 0.  0.
          4    1    3    3  502    0  0.18169024741E+03  0.89297757270E+03  0.18307980812E+04  0.20450530325E+04  0.00000000000E+00 0. -1.
         -4    1    3    3    0  502  0.74302773230E+02  0.25044166501E+03  0.43518956109E+03  0.50757451056E+03  0.00000000000E+00 0.  1.
         13    1    5    5    0    0 -0.99474132813E+02  0.22557347272E+02 -0.87559853980E+02  0.13442717376E+03  0.00000000000E+00 0.  1.
        -13    1    5    5    0    0 -0.15821983563E+03  0.21286159858E+02 -0.43500046673E+01  0.15970453822E+03  0.00000000000E+00 0. -1.
          4    1    6    6  503    0  0.33528907316E+02 -0.44283505848E+03 -0.70498540245E+02  0.44966334164E+03  0.00000000000E+00 0. -1.
         -4    1    6    6    0  503 -0.31827959522E+02 -0.74442768637E+03 -0.32976912124E+02  0.74583716452E+03  0.00000000000E+00 0.  1.
<mgrwt>
<rscale>  0 0.34716667E+04</rscale>
<asrwt>0</asrwt>
<pdfrwt beam="1">  1        2 0.47022016E+00 0.34716667E+04</pdfrwt>
<pdfrwt beam="2">  1       -2 0.15166596E+00 0.34716667E+04</pdfrwt>
<totfact> 0.38409075E-01</totfact>
</mgrwt>
</event>
<event>
12    3  0.4806716E-008  0.1927099E+04  0.7818608E-02  0.8641484E-01
         -1   -1    0    0    0  501 -0.00000000000E+00  0.00000000000E+00  0.16438756089E+04  0.16438756089E+04  0.00000000000E+00 0.  1.
          1   -1    0    0  501    0  0.00000000000E+00 -0.00000000000E+00 -0.56478002341E+03  0.56478002341E+03  0.00000000000E+00 0. -1.
         23    2    1    2    0    0  0.11264450747E+02  0.88553965720E+02  0.12800847651E+04  0.12866345442E+04  0.94035907214E+02 0.  0.
        254    2    1    2    0    0 -0.11264450747E+02 -0.88553965720E+02 -0.20098917955E+03  0.92202108815E+03  0.89540914894E+03 0.  0.
         23    2    4    4    0    0 -0.38775403518E+03  0.41770240168E+02  0.10421380103E+03  0.41217946312E+03  0.83267332896E+02 0.  0.
         23    2    4    4    0    0  0.37648958443E+03 -0.13032420589E+03 -0.30520298058E+03  0.50984162503E+03  0.89782055187E+02 0.  0.
          2    1    3    3  502    0 -0.86481951718E+01  0.68918975469E+02  0.39177773624E+03  0.39788743518E+03  0.00000000000E+00 0. -1.
         -2    1    3    3    0  502  0.19912645919E+02  0.19634990251E+02  0.88830702882E+03  0.88874710900E+03  0.00000000000E+00 0.  1.
         13    1    5    5    0    0 -0.96508282047E+01 -0.43768480726E+01 -0.99439081370E+01  0.14531916361E+02  0.00000000000E+00 0.  1.
        -13    1    5    5    0    0 -0.37810320698E+03  0.46147088241E+02  0.11415770917E+03  0.39764754676E+03  0.00000000000E+00 0. -1.
          4    1    6    6  503    0  0.24214828198E+03 -0.12830185094E+03 -0.20581778113E+03  0.34272162822E+03  0.00000000000E+00 0. -1.
         -4    1    6    6    0  503  0.13434130245E+03 -0.20223549433E+01 -0.99385199457E+02  0.16711999681E+03  0.00000000000E+00 0.  1.
<mgrwt>
<rscale>  0 0.19270995E+04</rscale>
<asrwt>0</asrwt>
<pdfrwt beam="1">  1        1 0.86889235E-01 0.19270995E+04</pdfrwt>
<pdfrwt beam="2">  1       -1 0.25290394E+00 0.19270995E+04</pdfrwt>
<totfact> 0.23274546E+00</totfact>
</mgrwt>
</event>
<event>
12    3  0.4806716E-008  0.1571188E+04  0.7818608E-02  0.8838446E-01
         -2   -1    0    0    0  501 -0.00000000000E+00  0.00000000000E+00  0.31624625778E+03  0.31624625778E+03  0.00000000000E+00 0.  1.
          2   -1    0    0  501    0  0.00000000000E+00 -0.00000000000E+00 -0.19515106225E+04  0.19515106225E+04  0.00000000000E+00 0. -1.
         23    2    1    2    0    0  0.14814241848E+03  0.39668818208E+03 -0.11790115480E+03  0.44854985607E+03  0.89378974706E+02 0.  0.
        254    2    1    2    0    0 -0.14814241848E+03 -0.39668818208E+03 -0.15173632099E+04  0.18192070242E+04  0.90984361081E+03 0.  0.
         23    2    4    4    0    0 -0.63553037073E+02 -0.90206502027E+02 -0.14787209683E+04  0.14859737297E+04  0.96571330109E+02 0.  0.
         23    2    4    4    0    0 -0.84589381408E+02 -0.30648168006E+03 -0.38642241552E+02  0.33323329442E+03  0.92004467400E+02 0.  0.
          1    1    3    3  502    0 -0.24270617771E+01  0.95019219507E+02 -0.35548871851E+02  0.10148036753E+03  0.00000000000E+00 0. -1.
         -1    1    3    3    0  502  0.15056948026E+03  0.30166896258E+03 -0.82352282944E+02  0.34706948854E+03  0.00000000000E+00 0.  1.
         13    1    5    5    0    0 -0.31117531918E+02  0.12440194660E+00 -0.12355699905E+03  0.12741525923E+03  0.00000000000E+00 0.  1.
        -13    1    5    5    0    0 -0.32435505155E+02 -0.90330903974E+02 -0.13551639693E+04  0.13585584705E+04  0.00000000000E+00 0. -1.
          3    1    6    6  503    0 -0.77826198070E+02 -0.11361862268E+03 -0.92688717824E+01  0.13802905676E+03  0.00000000000E+00 0. -1.
         -3    1    6    6    0  503 -0.67631833375E+01 -0.19286305738E+03 -0.29373369770E+02  0.19520423766E+03  0.00000000000E+00 0.  1.
<mgrwt>
<rscale>  0 0.15711880E+04</rscale>
<asrwt>0</asrwt>
<pdfrwt beam="1">  1        2 0.30023241E+00 0.15711880E+04</pdfrwt>
<pdfrwt beam="2">  1       -2 0.48653270E-01 0.15711880E+04</pdfrwt>
<totfact> 0.27338811E+01</totfact>
</mgrwt>
</event>
<event>
12    3  0.4806716E-008  0.2084885E+04  0.7818608E-02  0.8567931E-01
         -2   -1    0    0    0  501 -0.00000000000E+00  0.00000000000E+00  0.30251214659E+03  0.30251214659E+03  0.00000000000E+00 0.  1.
          2   -1    0    0  501    0  0.00000000000E+00 -0.00000000000E+00 -0.35922061567E+04  0.35922061567E+04  0.00000000000E+00 0. -1.
         23    2    1    2    0    0 -0.51622398727E+03 -0.48023362227E+03 -0.22903243846E+04  0.23988011040E+04  0.10746819468E+03 0.  0.
        254    2    1    2    0    0  0.51622398727E+03  0.48023362227E+03 -0.99936962546E+03  0.14959171992E+04  0.86134608705E+03 0.  0.
         23    2    4    4    0    0 -0.13761048791E+03  0.38593768316E+03 -0.23336007288E+03  0.48006187993E+03  0.90099629732E+02 0.  0.
         23    2    4    4    0    0  0.65383447519E+03  0.94295939105E+02 -0.76600955257E+03  0.10158553193E+04  0.93809114925E+02 0.  0.
          4    1    3    3  502    0 -0.45845391763E+03 -0.39850579351E+03 -0.18471683638E+04  0.19444839486E+04  0.00000000000E+00 0. -1.
         -4    1    3    3    0  502 -0.57770069641E+02 -0.81727828752E+02 -0.44315602081E+03  0.45431715543E+03  0.00000000000E+00 0.  1.
         13    1    5    5    0    0 -0.26017245447E+02  0.18647356726E+03 -0.13255318993E+03  0.23025993248E+03  0.00000000000E+00 0.  1.
        -13    1    5    5    0    0 -0.11159324246E+03  0.19946411590E+03 -0.10080688295E+03  0.24980194744E+03  0.00000000000E+00 0. -1.
          3    1    6    6  503    0  0.63384578371E+03  0.89023368085E+02 -0.76136621813E+03  0.99466786200E+03  0.00000000000E+00 0. -1.
         -3    1    6    6    0  503  0.19988691477E+02  0.52725710196E+01 -0.46433344494E+01  0.21187457302E+02  0.00000000000E+00 0.  1.
<mgrwt>
<rscale>  0 0.20848846E+04</rscale>
<asrwt>0</asrwt>
<pdfrwt beam="1">  1        2 0.55264710E+00 0.20848846E+04</pdfrwt>
<pdfrwt beam="2">  1       -2 0.46540330E-01 0.20848846E+04</pdfrwt>
<totfact> 0.28396254E+00</totfact>
</mgrwt>
</event>
<event>
12    3  0.4806716E-008  0.1093047E+04  0.7818608E-02  0.9211995E-01
         -1   -1    0    0    0  501 -0.00000000000E+00  0.00000000000E+00  0.82062799187E+03  0.82062799187E+03  0.00000000000E+00 0.  1.
          1   -1    0    0  501    0  0.00000000000E+00 -0.00000000000E+00 -0.36397488996E+03  0.36397488996E+03  0.00000000000E+00 0. -1.
         23    2    1    2    0    0 -0.12942214105E+03 -0.17920571946E+01  0.17772462138E+03  0.23796712220E+03  0.91043990136E+02 0.  0.
        254    2    1    2    0    0  0.12942214105E+03  0.17920571946E+01  0.27892848053E+03  0.94663575963E+03  0.89530154814E+03 0.  0.
         23    2    4    4    0    0 -0.17522991474E+03  0.44522386925E+02  0.51179341585E+03  0.55027002560E+03  0.90425851410E+02 0.  0.
         23    2    4    4    0    0  0.30465205579E+03 -0.42730329731E+02 -0.23286493533E+03  0.39636573403E+03  0.90779738022E+02 0.  0.
          2    1    3    3  502    0 -0.41761861932E+02 -0.11551156877E+01  0.13329417608E+03  0.13968795503E+03  0.00000000000E+00 0. -1.
         -2    1    3    3    0  502 -0.87660279115E+02 -0.63694150696E+00  0.44430445302E+02  0.98279167166E+02  0.00000000000E+00 0.  1.
         13    1    5    5    0    0 -0.13960683093E+03  0.62158756321E+02  0.46162601166E+03  0.48626366600E+03  0.00000000000E+00 0.  1.
        -13    1    5    5    0    0 -0.35623083811E+02 -0.17636369395E+02  0.50167404193E+02  0.64006359599E+02  0.00000000000E+00 0. -1.
          2    1    6    6  503    0  0.17305647083E+03  0.19092787520E+02 -0.10941978211E+03  0.20563502948E+03  0.00000000000E+00 0. -1.
         -2    1    6    6    0  503  0.13159558496E+03 -0.61823117251E+02 -0.12344515322E+03  0.19073070456E+03  0.00000000000E+00 0.  1.
<mgrwt>
<rscale>  0 0.10930471E+04</rscale>
<asrwt>0</asrwt>
<pdfrwt beam="1">  1        1 0.55996137E-01 0.10930471E+04</pdfrwt>
<pdfrwt beam="2">  1       -1 0.12625046E+00 0.10930471E+04</pdfrwt>
<totfact> 0.37023738E+01</totfact>
</mgrwt>
</event>
<event>
12    3  0.4806716E-008  0.1194512E+04  0.7818608E-02  0.9117674E-01
         -1   -1    0    0    0  501 -0.00000000000E+00  0.00000000000E+00  0.30613118851E+03  0.30613118851E+03  0.00000000000E+00 0.  1.
          1   -1    0    0  501    0  0.00000000000E+00 -0.00000000000E+00 -0.11652349481E+04  0.11652349481E+04  0.00000000000E+00 0. -1.
         23    2    1    2    0    0  0.17860836554E+03 -0.73071471100E+01 -0.39988575774E+03  0.44717938302E+03  0.90035763523E+02 0.  0.
        254    2    1    2    0    0 -0.17860836554E+03  0.73071471100E+01 -0.45921800189E+03  0.10241867536E+04  0.89784352224E+03 0.  0.
         23    2    4    4    0    0 -0.43079119862E+03  0.19652002663E+03 -0.49825381953E+03  0.69323729346E+03  0.90110480479E+02 0.  0.
         23    2    4    4    0    0  0.25218283307E+03 -0.18921287952E+03  0.39035817640E+02  0.33094946018E+03  0.92768825896E+02 0.  0.
          4    1    3    3  502    0  0.15881708460E+03  0.66747206259E+01 -0.38973966498E+03  0.42090904566E+03  0.00000000000E+00 0. -1.
         -4    1    3    3    0  502  0.19791280948E+02 -0.13981867736E+02 -0.10146092759E+02  0.26270337364E+02  0.00000000000E+00 0.  1.
         13    1    5    5    0    0 -0.18435964688E+03  0.62581348046E+02 -0.26261833018E+03  0.32691480827E+03  0.00000000000E+00 0. -1.
        -13    1    5    5    0    0 -0.24643155174E+03  0.13393867859E+03 -0.23563548936E+03  0.36632248519E+03  0.00000000000E+00 0.  1.
          2    1    6    6  503    0  0.17208652963E+02 -0.39938727965E+02  0.29225490699E+02  0.52396269284E+02  0.00000000000E+00 0. -1.
         -2    1    6    6    0  503  0.23497418011E+03 -0.14927415156E+03  0.98103269410E+01  0.27855319089E+03  0.00000000000E+00 0.  1.
<mgrwt>
<rscale>  0 0.11945121E+04</rscale>
<asrwt>0</asrwt>
<pdfrwt beam="1">  1        1 0.17926692E+00 0.11945121E+04</pdfrwt>
<pdfrwt beam="2">  1       -1 0.47097105E-01 0.11945121E+04</pdfrwt>
<totfact> 0.50433348E+01</totfact>
</mgrwt>
</event>
<event>
12    3  0.4806716E-008  0.1653859E+04  0.7818608E-02  0.8788127E-01
         -2   -1    0    0    0  501 -0.00000000000E+00  0.00000000000E+00  0.30664998804E+03  0.30664998804E+03  0.00000000000E+00 0.  1.
          2   -1    0    0  501    0  0.00000000000E+00 -0.00000000000E+00 -0.22299437864E+04  0.22299437864E+04  0.00000000000E+00 0. -1.
         23    2    1    2    0    0 -0.12831650247E+02 -0.48936180064E+03 -0.23099340656E+03  0.54889644157E+03  0.91047935259E+02 0.  0.
        254    2    1    2    0    0  0.12831650247E+02  0.48936180064E+03 -0.16923003918E+04  0.19876973328E+04  0.92055442415E+03 0.  0.
         23    2    4    4    0    0  0.23067081063E+03  0.62276637251E+03 -0.74359977160E+03  0.10009669834E+04  0.89147651863E+02 0.  0.
         23    2    4    4    0    0 -0.21783916038E+03 -0.13340457187E+03 -0.94870062016E+03  0.98673034948E+03  0.91396040952E+02 0.  0.
          2    1    3    3  502    0  0.83241460238E+01 -0.12456884329E+03 -0.10257813435E+03  0.16158267782E+03  0.00000000000E+00 0. -1.
         -2    1    3    3    0  502 -0.21155796271E+02 -0.36479295735E+03 -0.12841527222E+03  0.38731376375E+03  0.00000000000E+00 0.  1.
         13    1    5    5    0    0 -0.51718329748E+01  0.49558724819E+02 -0.64954725455E+02  0.81865324900E+02  0.00000000000E+00 0.  1.
        -13    1    5    5    0    0  0.23584264360E+03  0.57320764769E+03 -0.67864504615E+03  0.91910165845E+03  0.00000000000E+00 0. -1.
          1    1    6    6  503    0 -0.19821061042E+03 -0.13320600222E+03 -0.92786365950E+03  0.95810346818E+03  0.00000000000E+00 0. -1.
         -1    1    6    6    0  503 -0.19628549964E+02 -0.19856964799E+00 -0.20836960655E+02  0.28626881300E+02  0.00000000000E+00 0.  1.
<mgrwt>
<rscale>  0 0.16538588E+04</rscale>
<asrwt>0</asrwt>
<pdfrwt beam="1">  1        2 0.34306829E+00 0.16538588E+04</pdfrwt>
<pdfrwt beam="2">  1       -2 0.47176920E-01 0.16538588E+04</pdfrwt>
<totfact> 0.20214539E+01</totfact>
</mgrwt>
</event>
<event>
12    3  0.4806716E-008  0.1861936E+04  0.7818608E-02  0.8674038E-01
          2   -1    0    0  501    0  0.00000000000E+00  0.00000000000E+00  0.24470769464E+04  0.24470769464E+04  0.00000000000E+00 0. -1.
         -2   -1    0    0    0  501 -0.00000000000E+00 -0.00000000000E+00 -0.35417842729E+03  0.35417842729E+03  0.00000000000E+00 0.  1.
         23    2    1    2    0    0 -0.37674832433E+03  0.59499896590E+03  0.94934052336E+03  0.11856869113E+04  0.92967483623E+02 0.  0.
        254    2    1    2    0    0  0.37674832433E+03 -0.59499896590E+03  0.11435579958E+04  0.16155684624E+04  0.89798301642E+03 0.  0.
         23    2    4    4    0    0  0.49270463649E+02  0.22729991253E+03  0.28657248954E+03  0.38005259308E+03  0.90682704646E+02 0.  0.
         23    2    4    4    0    0  0.32747786068E+03 -0.82229887843E+03  0.85698550625E+03  0.12355158694E+04  0.93048970006E+02 0.  0.
          1    1    3    3  502    0 -0.26673079103E+03  0.45387092669E+03  0.76629287732E+03  0.92970366613E+03  0.00000000000E+00 0. -1.
         -1    1    3    3    0  502 -0.11001753330E+03  0.14112803921E+03  0.18304764604E+03  0.25598324517E+03  0.00000000000E+00 0.  1.
         13    1    5    5    0    0  0.66978172703E+02  0.12654058631E+03  0.13229304417E+03  0.19493600267E+03  0.00000000000E+00 0.  1.
        -13    1    5    5    0    0 -0.17707709054E+02  0.10075932621E+03  0.15427944537E+03  0.18511659040E+03  0.00000000000E+00 0. -1.
          1    1    6    6  503    0  0.27334831184E+03 -0.58134500034E+03  0.59802404064E+03  0.87767537404E+03  0.00000000000E+00 0. -1.
         -1    1    6    6    0  503  0.54129548844E+02 -0.24095387809E+03  0.25896146561E+03  0.35784049533E+03  0.00000000000E+00 0.  1.
<mgrwt>
<rscale>  0 0.18619365E+04</rscale>
<asrwt>0</asrwt>
<pdfrwt beam="1">  1        2 0.37647337E+00 0.18619365E+04</pdfrwt>
<pdfrwt beam="2">  1       -2 0.54488990E-01 0.18619365E+04</pdfrwt>
<totfact> 0.11131786E+01</totfact>
</mgrwt>
</event>
<event>
12    3  0.4806716E-008  0.2795081E+04  0.7818608E-02  0.8304797E-01
         -2   -1    0    0    0  501 -0.00000000000E+00  0.00000000000E+00  0.93167911758E+03  0.93167911758E+03  0.00000000000E+00 0.  1.
          2   -1    0    0  501    0  0.00000000000E+00 -0.00000000000E+00 -0.20963433201E+04  0.20963433201E+04  0.00000000000E+00 0. -1.
         23    2    1    2    0    0 -0.59532796495E+03  0.68240352047E+02  0.66493542405E+03  0.89969191932E+03  0.90743044014E+02 0.  0.
        254    2    1    2    0    0  0.59532796495E+03 -0.68240352047E+02 -0.18295996266E+04  0.21283305184E+04  0.90734991617E+03 0.  0.
         23    2    4    4    0    0  0.63197353256E+03  0.10052266236E+03 -0.18257067020E+04  0.19369224592E+04  0.94701107453E+02 0.  0.
         23    2    4    4    0    0 -0.36645567613E+02 -0.16876301440E+03 -0.38929246304E+01  0.19140805922E+03  0.82450212940E+02 0.  0.
          2    1    3    3  502    0 -0.52879337773E+03  0.37584504511E+02  0.55425715382E+03  0.76696546459E+03  0.00000000000E+00 0.  1.
         -2    1    3    3    0  502 -0.66534587216E+02  0.30655847536E+02  0.11067827023E+03  0.13272645473E+03  0.00000000000E+00 0. -1.
         13    1    5    5    0    0  0.87038209004E+02  0.48072525078E+02 -0.27868044251E+03  0.29588748965E+03  0.00000000000E+00 0. -1.
        -13    1    5    5    0    0  0.54493532356E+03  0.52450137280E+02 -0.15470262594E+04  0.16410349695E+04  0.00000000000E+00 0.  1.
          3    1    6    6  503    0 -0.11300807804E+02  0.47154157340E+01  0.96142311167E+01  0.15568456652E+02  0.00000000000E+00 0. -1.
         -3    1    6    6    0  503 -0.25344759809E+02 -0.17347843014E+03 -0.13507155747E+02  0.17583960256E+03  0.00000000000E+00 0.  1.
<mgrwt>
<rscale>  0 0.27950809E+04</rscale>
<asrwt>0</asrwt>
<pdfrwt beam="1">  1        2 0.32251436E+00 0.27950809E+04</pdfrwt>
<pdfrwt beam="2">  1       -2 0.14333525E+00 0.27950809E+04</pdfrwt>
<totfact> 0.17357891E+00</totfact>
</mgrwt>
</event>
<event>
12    3  0.4806716E-008  0.2303015E+04  0.7818608E-02  0.8476733E-01
         -2   -1    0    0    0  501 -0.00000000000E+00  0.00000000000E+00  0.10805857431E+04  0.10805857431E+04  0.00000000000E+00 0.  1.
          2   -1    0    0  501    0  0.00000000000E+00 -0.00000000000E+00 -0.12270837044E+04  0.12270837044E+04  0.00000000000E+00 0. -1.
         23    2    1    2    0    0  0.27465710929E+03  0.48152064827E+03  0.74323758680E+03  0.93179120377E+03  0.92380055188E+02 0.  0.
        254    2    1    2    0    0 -0.27465710929E+03 -0.48152064827E+03 -0.88973554806E+03  0.13758782437E+04  0.89113014405E+03 0.  0.
         23    2    4    4    0    0  0.31740531885E+03 -0.19469573180E+03 -0.29254486989E+03  0.48265391454E+03  0.93379526158E+02 0.  0.
         23    2    4    4    0    0 -0.59206242814E+03 -0.28682491647E+03 -0.59719067817E+03  0.89322432917E+03  0.91687210719E+02 0.  0.
          4    1    3    3  502    0 -0.60595498801E+01  0.47973242107E+01  0.47884474940E+01  0.90918476524E+01  0.00000000000E+00 0. -1.
         -4    1    3    3    0  502  0.28071665917E+03  0.47672332406E+03  0.73844913930E+03  0.92269935612E+03  0.00000000000E+00 0.  1.
         13    1    5    5    0    0  0.49835126530E+02 -0.36996884665E+02 -0.10171093906E+02  0.62894836532E+02  0.00000000000E+00 0.  1.
        -13    1    5    5    0    0  0.26757019232E+03 -0.15769884714E+03 -0.28237377598E+03  0.41975907801E+03  0.00000000000E+00 0. -1.
          1    1    6    6  503    0 -0.57237372405E+03 -0.28782126736E+03 -0.55904091224E+03  0.85028201409E+03  0.00000000000E+00 0. -1.
         -1    1    6    6    0  503 -0.19688704085E+02  0.99635089380E+00 -0.38149765932E+02  0.42942315079E+02  0.00000000000E+00 0.  1.
<mgrwt>
<rscale>  0 0.23030147E+04</rscale>
<asrwt>0</asrwt>
<pdfrwt beam="1">  1        2 0.18878211E+00 0.23030147E+04</pdfrwt>
<pdfrwt beam="2">  1       -2 0.16624396E+00 0.23030147E+04</pdfrwt>
<totfact> 0.37511851E+00</totfact>
</mgrwt>
</event>
<event>
12    3  0.4806716E-008  0.1192732E+04  0.7818608E-02  0.9119242E-01
         -2   -1    0    0    0  501 -0.00000000000E+00  0.00000000000E+00  0.67313771668E+03  0.67313771668E+03  0.00000000000E+00 0.  1.
          2   -1    0    0  501    0  0.00000000000E+00 -0.00000000000E+00 -0.52835047457E+03  0.52835047457E+03  0.00000000000E+00 0. -1.
         23    2    1    2    0    0  0.96923297267E+02  0.24133187770E+02  0.25630766103E+03  0.28984412179E+03  0.91320652276E+02 0.  0.
        254    2    1    2    0    0 -0.96923297267E+02 -0.24133187770E+02 -0.11152041892E+03  0.91164406946E+03  0.89926724017E+03 0.  0.
         23    2    4    4    0    0  0.28003350701E+03 -0.29802783523E+03 -0.12413310870E+03  0.43712845360E+03  0.91830826280E+02 0.  0.
         23    2    4    4    0    0 -0.37695680427E+03  0.27389464746E+03  0.12612689783E+02  0.47451561586E+03  0.88832874305E+02 0.  0.
          3    1    3    3  502    0  0.44757370271E+02  0.22973693545E+02  0.32175305373E+02  0.59718197097E+02  0.00000000000E+00 0. -1.
         -3    1    3    3    0  502  0.52165926996E+02  0.11594942244E+01  0.22413235565E+03  0.23012592470E+03  0.00000000000E+00 0.  1.
         13    1    5    5    0    0  0.40817813486E+02 -0.74896815896E+02  0.49839715599E+01  0.85442769744E+02  0.00000000000E+00 0. -1.
        -13    1    5    5    0    0  0.23921569352E+03 -0.22313101933E+03 -0.12911708026E+03  0.35168568386E+03  0.00000000000E+00 0.  1.
          1    1    6    6  503    0 -0.47076333027E+02  0.35369293409E+01  0.85795155297E+01  0.47982278887E+02  0.00000000000E+00 0. -1.
         -1    1    6    6    0  503 -0.32988047125E+03  0.27035771812E+03  0.40331742528E+01  0.42653333697E+03  0.00000000000E+00 0.  1.
<mgrwt>
<rscale>  0 0.11927324E+04</rscale>
<asrwt>0</asrwt>
<pdfrwt beam="1">  1        2 0.81284688E-01 0.11927324E+04</pdfrwt>
<pdfrwt beam="2">  1       -2 0.10355965E+00 0.11927324E+04</pdfrwt>
<totfact> 0.43310448E+01</totfact>
</mgrwt>
</event>
<event>
12    3  0.4806716E-008  0.1536366E+04  0.7818608E-02  0.8860624E-01
         -2   -1    0    0    0  501 -0.00000000000E+00  0.00000000000E+00  0.27711741896E+03  0.27711741896E+03  0.00000000000E+00 0.  1.
          2   -1    0    0  501    0  0.00000000000E+00 -0.00000000000E+00 -0.21294414349E+04  0.21294414349E+04  0.00000000000E+00 0. -1.
         23    2    1    2    0    0  0.19071082242E+03  0.32918929148E+03 -0.10082605554E+03  0.40305398289E+03  0.86893108130E+02 0.  0.
        254    2    1    2    0    0 -0.19071082242E+03 -0.32918929148E+03 -0.17514979604E+04  0.20035048709E+04  0.89529350230E+03 0.  0.
         23    2    4    4    0    0 -0.53846797268E+03 -0.21425371790E+03 -0.11946585375E+04  0.13308385436E+04  0.89832035797E+02 0.  0.
         23    2    4    4    0    0  0.34775715027E+03 -0.11493557357E+03 -0.55683942288E+03  0.67266632735E+03  0.90909974361E+02 0.  0.
          1    1    3    3  502    0  0.33193882097E+02  0.13633441722E+03 -0.23159605903E+02  0.14221559152E+03  0.00000000000E+00 0. -1.
         -1    1    3    3    0  502  0.15751694032E+03  0.19285487426E+03 -0.77666449636E+02  0.26083839137E+03  0.00000000000E+00 0.  1.
         13    1    5    5    0    0 -0.50822482778E+03 -0.21599629964E+03 -0.10902774902E+04  0.12221505156E+04  0.00000000000E+00 0.  1.
        -13    1    5    5    0    0 -0.30243144907E+02  0.17425817363E+01 -0.10438104727E+03  0.10868802802E+03  0.00000000000E+00 0. -1.
          2    1    6    6  503    0  0.28070433552E+03 -0.78919533008E+02 -0.37120784910E+03  0.47203652814E+03  0.00000000000E+00 0.  1.
         -2    1    6    6    0  503  0.67052814747E+02 -0.36016040566E+02 -0.18563157378E+03  0.20062979920E+03  0.00000000000E+00 0. -1.
<mgrwt>
<rscale>  0 0.15363663E+04</rscale>
<asrwt>0</asrwt>
<pdfrwt beam="1">  1        2 0.32760636E+00 0.15363663E+04</pdfrwt>
<pdfrwt beam="2">  1       -2 0.42633450E-01 0.15363663E+04</pdfrwt>
<totfact> 0.28449347E+01</totfact>
</mgrwt>
</event>
<event>
12    3  0.4806716E-008  0.1446480E+04  0.7818608E-02  0.8920845E-01
          2   -1    0    0  501    0  0.00000000000E+00  0.00000000000E+00  0.62826912852E+03  0.62826912852E+03  0.00000000000E+00 0. -1.
         -2   -1    0    0    0  501 -0.00000000000E+00 -0.00000000000E+00 -0.83256658604E+03  0.83256658604E+03  0.00000000000E+00 0.  1.
         23    2    1    2    0    0 -0.36928185875E+03 -0.12943645245E+03  0.11698328679E+03  0.41983491181E+03  0.97228480195E+02 0.  0.
        254    2    1    2    0    0  0.36928185875E+03  0.12943645245E+03 -0.32128074431E+03  0.10410008028E+04  0.90958147971E+03 0.  0.
         23    2    4    4    0    0 -0.12049499889E+03  0.38176501813E+03 -0.24081872897E+03  0.47658564463E+03  0.94215936154E+02 0.  0.
         23    2    4    4    0    0  0.48977685764E+03 -0.25232856568E+03 -0.80462015343E+02  0.56441515812E+03  0.92408113610E+02 0.  0.
          3    1    3    3  502    0 -0.41740439524E+02 -0.58284187555E+01  0.46433413380E+02  0.62708026878E+02  0.00000000000E+00 0. -1.
         -3    1    3    3    0  502 -0.32754141922E+03 -0.12360803369E+03  0.70549873409E+02  0.35712688493E+03  0.00000000000E+00 0.  1.
         13    1    5    5    0    0  0.10560982108E+02  0.97993758368E+02 -0.52606418269E+02  0.11172173587E+03  0.00000000000E+00 0.  1.
        -13    1    5    5    0    0 -0.13105598100E+03  0.28377125976E+03 -0.18821231070E+03  0.36486390877E+03  0.00000000000E+00 0. -1.
          1    1    6    6  503    0  0.33128127591E+03 -0.20889887469E+03 -0.81682672696E+02  0.40007259670E+03  0.00000000000E+00 0. -1.
         -1    1    6    6    0  503  0.15849558173E+03 -0.43429690992E+02  0.12206573529E+01  0.16434256141E+03  0.00000000000E+00 0.  1.
<mgrwt>
<rscale>  0 0.14464797E+04</rscale>
<asrwt>0</asrwt>
<pdfrwt beam="1">  1        2 0.96656789E-01 0.14464797E+04</pdfrwt>
<pdfrwt beam="2">  1       -2 0.12808717E+00 0.14464797E+04</pdfrwt>
<totfact> 0.20501253E+01</totfact>
</mgrwt>
</event>
<event>
12    3  0.4806716E-008  0.1426169E+04  0.7818608E-02  0.8935091E-01
          1   -1    0    0  501    0  0.00000000000E+00  0.00000000000E+00  0.12818352621E+04  0.12818352621E+04  0.00000000000E+00 0. -1.
         -1   -1    0    0    0  501 -0.00000000000E+00 -0.00000000000E+00 -0.39668840995E+03  0.39668840995E+03  0.00000000000E+00 0.  1.
         23    2    1    2    0    0  0.55099049580E+02 -0.37458404576E+03  0.41315966661E+03  0.56788290182E+03  0.91874737875E+02 0.  0.
        254    2    1    2    0    0 -0.55099049580E+02  0.37458404576E+03  0.47198718553E+03  0.11106407702E+04  0.93134413864E+03 0.  0.
         23    2    4    4    0    0 -0.20494549067E+03  0.33676926045E+03  0.70783983588E+03  0.81525865576E+03  0.90516592977E+02 0.  0.
         23    2    4    4    0    0  0.14984644109E+03  0.37814785308E+02 -0.23585265035E+03  0.29538211446E+03  0.87978446058E+02 0.  0.
          4    1    3    3  502    0  0.36973280861E+02 -0.36536105241E+03  0.37634557519E+03  0.52582479409E+03  0.00000000000E+00 0. -1.
         -4    1    3    3    0  502  0.18125768719E+02 -0.92229933425E+01  0.36814091427E+02  0.42058107725E+02  0.00000000000E+00 0.  1.
         13    1    5    5    0    0 -0.13772150828E+03  0.28854391733E+03  0.52721281040E+03  0.61658588495E+03  0.00000000000E+00 0. -1.
        -13    1    5    5    0    0 -0.67223982393E+02  0.48225343121E+02  0.18062702548E+03  0.19867277081E+03  0.00000000000E+00 0.  1.
          4    1    6    6  503    0  0.13972864270E+03  0.23089885081E+02 -0.14461727427E+03  0.20241391356E+03  0.00000000000E+00 0. -1.
         -4    1    6    6    0  503  0.10117798392E+02  0.14724900227E+02 -0.91235376080E+02  0.92968200905E+02  0.00000000000E+00 0.  1.
<mgrwt>
<rscale>  0 0.14261686E+04</rscale>
<asrwt>0</asrwt>
<pdfrwt beam="1">  1        1 0.19720542E+00 0.14261686E+04</pdfrwt>
<pdfrwt beam="2">  1       -1 0.61028987E-01 0.14261686E+04</pdfrwt>
<totfact> 0.24696213E+01</totfact>
</mgrwt>
</event>
<event>
12    3  0.4806716E-008  0.1665163E+04  0.7818608E-02  0.8781486E-01
         -2   -1    0    0    0  501 -0.00000000000E+00  0.00000000000E+00  0.35799103429E+03  0.35799103429E+03  0.00000000000E+00 0.  1.
          2   -1    0    0  501    0  0.00000000000E+00 -0.00000000000E+00 -0.19363385951E+04  0.19363385951E+04  0.00000000000E+00 0. -1.
         23    2    1    2    0    0  0.17518569779E+03 -0.34945644579E+03 -0.11755447097E+04  0.12419447578E+04  0.87815605962E+02 0.  0.
        254    2    1    2    0    0 -0.17518569779E+03  0.34945644579E+03 -0.40280285112E+03  0.10523848716E+04  0.89019882326E+03 0.  0.
         23    2    4    4    0    0 -0.97014836959E+02  0.49410291094E+03  0.93902015204E+02  0.52019255998E+03  0.90736683957E+02 0.  0.
         23    2    4    4    0    0 -0.78170860832E+02 -0.14464646515E+03 -0.49670486632E+03  0.53219231164E+03  0.97363488917E+02 0.  0.
          4    1    3    3  502    0  0.34478090579E+02 -0.15866332430E+03 -0.52605703864E+03  0.55054409188E+03  0.00000000000E+00 0.  1.
         -4    1    3    3    0  502  0.14070760721E+03 -0.19079312149E+03 -0.64948767108E+03  0.69140066591E+03  0.00000000000E+00 0. -1.
         13    1    5    5    0    0 -0.53880709322E+02  0.11012251990E+03  0.19842896902E+00  0.12259746979E+03  0.00000000000E+00 0. -1.
        -13    1    5    5    0    0 -0.43134127637E+02  0.38398039104E+03  0.93703586235E+02  0.39759509019E+03  0.00000000000E+00 0.  1.
          4    1    6    6  503    0 -0.79032648381E+02 -0.71674035422E+02 -0.20038922797E+03  0.22702239879E+03  0.00000000000E+00 0.  1.
         -4    1    6    6    0  503  0.86178754918E+00 -0.72972429729E+02 -0.29631563835E+03  0.30516991285E+03  0.00000000000E+00 0. -1.
<mgrwt>
<rscale>  0 0.16651629E+04</rscale>
<asrwt>0</asrwt>
<pdfrwt beam="1">  1        2 0.29789824E+00 0.16651629E+04</pdfrwt>
<pdfrwt beam="2">  1       -2 0.55075544E-01 0.16651629E+04</pdfrwt>
<totfact> 0.21441945E+01</totfact>
</mgrwt>
</event>
<event>
12    3  0.4806716E-008  0.1630196E+04  0.7818608E-02  0.8802209E-01
         -1   -1    0    0    0  501 -0.00000000000E+00  0.00000000000E+00  0.15891818998E+04  0.15891818998E+04  0.00000000000E+00 0.  1.
          1   -1    0    0  501    0  0.00000000000E+00 -0.00000000000E+00 -0.41806697009E+03  0.41806697009E+03  0.00000000000E+00 0. -1.
         23    2    1    2    0    0  0.23544071793E+03 -0.32425055228E+03  0.89627407438E+03  0.98664016917E+03  0.97881840456E+02 0.  0.
        254    2    1    2    0    0 -0.23544071793E+03  0.32425055228E+03  0.27484085530E+03  0.10206087007E+04  0.89751538810E+03 0.  0.
         23    2    4    4    0    0 -0.79192132345E+02  0.20497822195E+03 -0.31444902264E+03  0.39299137814E+03  0.85302814470E+02 0.  0.
         23    2    4    4    0    0 -0.15624858558E+03  0.11927233033E+03  0.58928987794E+03  0.62761732255E+03  0.89450735277E+02 0.  0.
          4    1    3    3  502    0  0.12342256250E+03 -0.24057469297E+03  0.63840534464E+03  0.69330418713E+03  0.00000000000E+00 0.  1.
         -4    1    3    3    0  502  0.11201815543E+03 -0.83675859310E+02  0.25786872975E+03  0.29333598204E+03  0.00000000000E+00 0. -1.
         13    1    5    5    0    0 -0.62381331399E+02  0.17890170018E+03 -0.30752150802E+03  0.36120178118E+03  0.00000000000E+00 0.  1.
        -13    1    5    5    0    0 -0.16810800945E+02  0.26076521771E+02 -0.69275146182E+01  0.31789596960E+02  0.00000000000E+00 0. -1.
          1    1    6    6  503    0  0.34376335366E+01 -0.40706291922E+01  0.66484507584E+00  0.53692984018E+01  0.00000000000E+00 0. -1.
         -1    1    6    6    0  503 -0.15968621912E+03  0.12334295952E+03  0.58862503286E+03  0.62224802415E+03  0.00000000000E+00 0.  1.
<mgrwt>
<rscale>  0 0.16301956E+04</rscale>
<asrwt>0</asrwt>
<pdfrwt beam="1">  1        1 0.64317996E-01 0.16301956E+04</pdfrwt>
<pdfrwt beam="2">  1       -1 0.24448952E+00 0.16301956E+04</pdfrwt>
<totfact> 0.41014791E+00</totfact>
</mgrwt>
</event>
<event>
12    3  0.4806716E-008  0.2439725E+04  0.7818608E-02  0.8424779E-01
         -2   -1    0    0    0  501 -0.00000000000E+00  0.00000000000E+00  0.53813916832E+03  0.53813916832E+03  0.00000000000E+00 0.  1.
          2   -1    0    0  501    0  0.00000000000E+00 -0.00000000000E+00 -0.27652046220E+04  0.27652046220E+04  0.00000000000E+00 0. -1.
         23    2    1    2    0    0 -0.66634540690E+02  0.95550251085E+03 -0.15439678164E+04  0.18192577826E+04  0.91853421908E+02 0.  0.
        254    2    1    2    0    0  0.66634540690E+02 -0.95550251085E+03 -0.68309763729E+03  0.14840860078E+04  0.90468982868E+03 0.  0.
         23    2    4    4    0    0  0.10407181035E+03 -0.52675047233E+03  0.12978016381E+03  0.56007088504E+03  0.92409434231E+02 0.  0.
         23    2    4    4    0    0 -0.37437269660E+02 -0.42875203851E+03 -0.81287780111E+03  0.92401512272E+03  0.88338937063E+02 0.  0.
          1    1    3    3  502    0 -0.51295638542E+02  0.88698374600E+03 -0.13850514151E+04  0.16455208387E+04  0.00000000000E+00 0. -1.
         -1    1    3    3    0  502 -0.15338902148E+02  0.68518764847E+02 -0.15891640130E+03  0.17373694385E+03  0.00000000000E+00 0.  1.
         13    1    5    5    0    0  0.22646321360E+02 -0.85300390201E+02 -0.12566049050E+02  0.89145487986E+02  0.00000000000E+00 0. -1.
        -13    1    5    5    0    0  0.81425488990E+02 -0.44145008213E+03  0.14234621286E+03  0.47092539705E+03  0.00000000000E+00 0.  1.
          3    1    6    6  503    0 -0.56962443880E+01 -0.30429299142E+02 -0.12236521774E+03  0.12622058453E+03  0.00000000000E+00 0. -1.
         -3    1    6    6    0  503 -0.31741025272E+02 -0.39832273937E+03 -0.69051258337E+03  0.79779453820E+03  0.00000000000E+00 0.  1.
<mgrwt>
<rscale>  0 0.24397253E+04</rscale>
<asrwt>0</asrwt>
<pdfrwt beam="1">  1        2 0.42541609E+00 0.24397253E+04</pdfrwt>
<pdfrwt beam="2">  1       -2 0.82790642E-01 0.24397253E+04</pdfrwt>
<totfact> 0.27829076E+00</totfact>
</mgrwt>
</event>
<event>
12    3  0.4806716E-008  0.1204970E+04  0.7818608E-02  0.9108517E-01
         -2   -1    0    0    0  501 -0.00000000000E+00  0.00000000000E+00  0.29824605953E+03  0.29824605953E+03  0.00000000000E+00 0.  1.
          2   -1    0    0  501    0  0.00000000000E+00 -0.00000000000E+00 -0.12170768358E+04  0.12170768358E+04  0.00000000000E+00 0. -1.
         23    2    1    2    0    0  0.10266177809E+03 -0.72284967394E+02 -0.45551306727E+03  0.48145896614E+03  0.92444710137E+02 0.  0.
        254    2    1    2    0    0 -0.10266177809E+03  0.72284967394E+02 -0.46331770904E+03  0.10338639292E+04  0.91566738911E+03 0.  0.
         23    2    4    4    0    0  0.37452958182E+03 -0.98302880813E+01 -0.45485326055E+02  0.38779734416E+03  0.89156172122E+02 0.  0.
         23    2    4    4    0    0 -0.47719135991E+03  0.82115255475E+02 -0.41783238299E+03  0.64606658508E+03  0.91452845403E+02 0.  0.
          1    1    3    3  502    0  0.30336239418E+02 -0.32281417974E+02 -0.31760847881E+03  0.32068290129E+03  0.00000000000E+00 0. -1.
         -1    1    3    3    0  502  0.72325538672E+02 -0.40003549419E+02 -0.13790458846E+03  0.16077606485E+03  0.00000000000E+00 0.  1.
         13    1    5    5    0    0  0.10293485217E+03 -0.42340756337E+02 -0.64154392705E+01  0.11148758361E+03  0.00000000000E+00 0. -1.
        -13    1    5    5    0    0  0.27159472965E+03  0.32510468256E+02 -0.39069886784E+02  0.27630976055E+03  0.00000000000E+00 0.  1.
          4    1    6    6  503    0 -0.13888754058E+03  0.61138745292E+02 -0.10256248209E+03  0.18315774031E+03  0.00000000000E+00 0. -1.
         -4    1    6    6    0  503 -0.33830381933E+03  0.20976510183E+02 -0.31526990090E+03  0.46290884477E+03  0.00000000000E+00 0.  1.
<mgrwt>
<rscale>  0 0.12049703E+04</rscale>
<asrwt>0</asrwt>
<pdfrwt beam="1">  1        2 0.18724259E+00 0.12049703E+04</pdfrwt>
<pdfrwt beam="2">  1       -2 0.45884009E-01 0.12049703E+04</pdfrwt>
<totfact> 0.82161239E+01</totfact>
</mgrwt>
</event>
<event>
12    3  0.4806716E-008  0.1477020E+04  0.7818608E-02  0.8899880E-01
          2   -1    0    0  501    0  0.00000000000E+00  0.00000000000E+00  0.10762359804E+04  0.10762359804E+04  0.00000000000E+00 0. -1.
         -2   -1    0    0    0  501 -0.00000000000E+00 -0.00000000000E+00 -0.50676315892E+03  0.50676315892E+03  0.00000000000E+00 0.  1.
         23    2    1    2    0    0 -0.40874583227E+03  0.15061419282E+03  0.40542171263E+03  0.60178875787E+03  0.89583221365E+02 0.  0.
        254    2    1    2    0    0  0.40874583227E+03 -0.15061419282E+03  0.16405110887E+03  0.98121038147E+03  0.86377268763E+03 0.  0.
         23    2    4    4    0    0  0.26517705749E+03 -0.84335437796E+02 -0.33762823590E+03  0.44690199783E+03  0.91089143717E+02 0.  0.
         23    2    4    4    0    0  0.14356877478E+03 -0.66278755021E+02  0.50167934477E+03  0.53430838363E+03  0.93799879490E+02 0.  0.
          3    1    3    3  502    0 -0.33115121245E+03  0.82062356722E+02  0.30851647576E+03  0.45997583819E+03  0.00000000000E+00 0. -1.
         -3    1    3    3    0  502 -0.77594619823E+02  0.68551836094E+02  0.96905236868E+02  0.14181291969E+03  0.00000000000E+00 0.  1.
         13    1    5    5    0    0  0.24830886038E+03 -0.88217674564E+02 -0.33919009754E+03  0.42952249128E+03  0.00000000000E+00 0. -1.
        -13    1    5    5    0    0  0.16868197109E+02  0.38822367686E+01  0.15618616430E+01  0.17379506547E+02  0.00000000000E+00 0.  1.
          4    1    6    6  503    0  0.74898408520E+02  0.14685513529E+02  0.24252918130E+03  0.25425546147E+03  0.00000000000E+00 0. -1.
         -4    1    6    6    0  503  0.68670366264E+02 -0.80964268550E+02  0.25915016347E+03  0.28005292216E+03  0.00000000000E+00 0.  1.
<mgrwt>
<rscale>  0 0.14770196E+04</rscale>
<asrwt>0</asrwt>
<pdfrwt beam="1">  1        2 0.16557477E+00 0.14770196E+04</pdfrwt>
<pdfrwt beam="2">  1       -2 0.77963563E-01 0.14770196E+04</pdfrwt>
<totfact> 0.31956899E+01</totfact>
</mgrwt>
</event>
<event>
12    3  0.4806716E-008  0.3400146E+04  0.7818608E-02  0.8137871E-01
         -2   -1    0    0    0  501 -0.00000000000E+00  0.00000000000E+00  0.14472911069E+04  0.14472911069E+04  0.00000000000E+00 0.  1.
          2   -1    0    0  501    0  0.00000000000E+00 -0.00000000000E+00 -0.19970053179E+04  0.19970053179E+04  0.00000000000E+00 0. -1.
         23    2    1    2    0    0  0.36829168044E+03  0.14983360570E+04  0.82835243391E+02  0.15478874654E+04  0.91892471219E+02 0.  0.
        254    2    1    2    0    0 -0.36829168044E+03 -0.14983360570E+04 -0.63254945433E+03  0.18964089594E+04  0.90310488178E+03 0.  0.
         23    2    4    4    0    0  0.61376235026E+01 -0.16027221213E+03 -0.45709644095E+03  0.49293107150E+03  0.91208730482E+02 0.  0.
         23    2    4    4    0    0 -0.37442930394E+03 -0.13380638449E+04 -0.17545301338E+03  0.14034778879E+04  0.91401670013E+02 0.  0.
          2    1    3    3  502    0  0.98961319626E+02  0.40038986713E+03  0.62952789060E+02  0.41721510295E+03  0.00000000000E+00 0. -1.
         -2    1    3    3    0  502  0.26933036082E+03  0.10979461899E+04  0.19882454331E+02  0.11306723624E+04  0.00000000000E+00 0.  1.
         13    1    5    5    0    0 -0.23427569672E+02 -0.11633448582E+03 -0.21971901750E+03  0.24971786132E+03  0.00000000000E+00 0. -1.
        -13    1    5    5    0    0  0.29565193174E+02 -0.43937726308E+02 -0.23737742345E+03  0.24321321018E+03  0.00000000000E+00 0.  1.
          2    1    6    6  503    0 -0.82613093803E+02 -0.29670591686E+03 -0.80160953265E+00  0.30799345277E+03  0.00000000000E+00 0.  1.
         -2    1    6    6    0  503 -0.29181621014E+03 -0.10413579280E+04 -0.17465140384E+03  0.10954844351E+04  0.00000000000E+00 0. -1.
<mgrwt>
<rscale>  0 0.34001459E+04</rscale>
<asrwt>0</asrwt>
<pdfrwt beam="1">  1        2 0.30723159E+00 0.34001459E+04</pdfrwt>
<pdfrwt beam="2">  1       -2 0.22266017E+00 0.34001459E+04</pdfrwt>
<totfact> 0.52830943E-01</totfact>
</mgrwt>
</event>
<event>
12    3  0.4806716E-008  0.1746216E+04  0.7818608E-02  0.8735436E-01
         -2   -1    0    0    0  501 -0.00000000000E+00  0.00000000000E+00  0.94664658858E+03  0.94664658858E+03  0.00000000000E+00 0.  1.
          2   -1    0    0  501    0  0.00000000000E+00 -0.00000000000E+00 -0.80528241087E+03  0.80528241087E+03  0.00000000000E+00 0. -1.
         23    2    1    2    0    0 -0.71075912371E+02 -0.58226860427E+03 -0.20998121741E+03  0.62941125358E+03  0.89319100027E+02 0.  0.
        254    2    1    2    0    0  0.71075912371E+02  0.58226860427E+03  0.35134539511E+03  0.11225177459E+04  0.89023254843E+03 0.  0.
         23    2    4    4    0    0 -0.70156360096E+02 -0.20616478460E+03 -0.15756983644E+02  0.23672456176E+03  0.91457106545E+02 0.  0.
         23    2    4    4    0    0  0.14123227247E+03  0.78843338887E+03  0.36710237876E+03  0.88579318411E+03  0.91058470500E+02 0.  0.
          1    1    3    3  502    0 -0.36125526665E+02 -0.28346734043E+03 -0.55021795087E+02  0.29100890829E+03  0.00000000000E+00 0. -1.
         -1    1    3    3    0  502 -0.34950385706E+02 -0.29880126384E+03 -0.15495942232E+03  0.33840234529E+03  0.00000000000E+00 0.  1.
         13    1    5    5    0    0 -0.49367500288E+02 -0.20306879270E+03 -0.30295780858E+02  0.21116798761E+03  0.00000000000E+00 0.  1.
        -13    1    5    5    0    0 -0.20788859808E+02 -0.30959918972E+01  0.14538797214E+02  0.25556574151E+02  0.00000000000E+00 0. -1.
          3    1    6    6  503    0  0.14348650665E+03  0.57369455439E+03  0.27241939269E+03  0.65109611030E+03  0.00000000000E+00 0. -1.
         -3    1    6    6    0  503 -0.22542341807E+01  0.21473883448E+03  0.94682986062E+02  0.23469707381E+03  0.00000000000E+00 0.  1.
<mgrwt>
<rscale>  0 0.17462163E+04</rscale>
<asrwt>0</asrwt>
<pdfrwt beam="1">  1        2 0.12388960E+00 0.17462163E+04</pdfrwt>
<pdfrwt beam="2">  1       -2 0.14563794E+00 0.17462163E+04</pdfrwt>
<totfact> 0.10482481E+01</totfact>
</mgrwt>
</event>
<event>
12    3  0.4806716E-008  0.2146131E+04  0.7818608E-02  0.8541190E-01
         -1   -1    0    0    0  501 -0.00000000000E+00  0.00000000000E+00  0.97020728080E+03  0.97020728080E+03  0.00000000000E+00 0.  1.
          1   -1    0    0  501    0  0.00000000000E+00 -0.00000000000E+00 -0.11868287097E+04  0.11868287097E+04  0.00000000000E+00 0. -1.
         23    2    1    2    0    0  0.24893036037E+03 -0.60268198636E+02  0.76406807841E+03  0.81089794180E+03  0.90315355750E+02 0.  0.
        254    2    1    2    0    0 -0.24893036037E+03  0.60268198636E+02 -0.98068950735E+03  0.13461380487E+04  0.88585391368E+03 0.  0.
         23    2    4    4    0    0 -0.42672070264E+03  0.56769143088E+02 -0.11170695486E+03  0.45433085555E+03  0.92869741388E+02 0.  0.
         23    2    4    4    0    0  0.17779034227E+03  0.34990555487E+01 -0.86898255249E+03  0.89180719320E+03  0.92562109506E+02 0.  0.
          2    1    3    3  502    0  0.76744162904E+02 -0.58013591208E+02  0.21703717648E+03  0.23740341042E+03  0.00000000000E+00 0. -1.
         -2    1    3    3    0  502  0.17218619747E+03 -0.22546074282E+01  0.54703090193E+03  0.57349453138E+03  0.00000000000E+00 0.  1.
         13    1    5    5    0    0 -0.11826614736E+03 -0.18230959335E+02 -0.55679332437E+02  0.13198271686E+03  0.00000000000E+00 0. -1.
        -13    1    5    5    0    0 -0.30845455528E+03  0.75000102422E+02 -0.56027622422E+02  0.32234813868E+03  0.00000000000E+00 0.  1.
          3    1    6    6  503    0  0.16168843454E+03  0.33189139497E+02 -0.67371276744E+03  0.69363791841E+03  0.00000000000E+00 0. -1.
         -3    1    6    6    0  503  0.16101907735E+02 -0.29690083948E+02 -0.19526978505E+03  0.19816927479E+03  0.00000000000E+00 0.  1.
<mgrwt>
<rscale>  0 0.21461313E+04</rscale>
<asrwt>0</asrwt>
<pdfrwt beam="1">  1        1 0.18258903E+00 0.21461313E+04</pdfrwt>
<pdfrwt beam="2">  1       -1 0.14926266E+00 0.21461313E+04</pdfrwt>
<totfact> 0.35389275E+00</totfact>
</mgrwt>
</event>
<event>
12    3  0.4806716E-008  0.1084224E+04  0.7818608E-02  0.9220706E-01
         -2   -1    0    0    0  501 -0.00000000000E+00  0.00000000000E+00  0.21207373620E+03  0.21207373620E+03  0.00000000000E+00 0.  1.
          2   -1    0    0  501    0  0.00000000000E+00 -0.00000000000E+00 -0.13857691358E+04  0.13857691358E+04  0.00000000000E+00 0. -1.
         23    2    1    2    0    0 -0.38494830722E+02 -0.84178523472E+02 -0.22658818602E+02  0.13321627384E+03  0.93087473639E+02 0.  0.
        254    2    1    2    0    0  0.38494830722E+02  0.84178523472E+02 -0.11510365810E+04  0.14646265981E+04  0.90093173183E+03 0.  0.
         23    2    4    4    0    0 -0.66170367514E+02  0.47562162769E+03 -0.58407475349E+03  0.76179249505E+03  0.92682455732E+02 0.  0.
         23    2    4    4    0    0  0.10466519824E+03 -0.39144310421E+03 -0.56696182750E+03  0.70283410309E+03  0.91364955356E+02 0.  0.
          3    1    3    3  502    0 -0.75185627846E+01  0.20335170905E+02  0.87125134087E+00  0.21698088418E+02  0.00000000000E+00 0. -1.
         -3    1    3    3    0  502 -0.30976267937E+02 -0.10451369438E+03 -0.23530069943E+02  0.11151818542E+03  0.00000000000E+00 0.  1.
         13    1    5    5    0    0 -0.17346397158E+02  0.34957064394E+02 -0.89185202015E+02  0.97349340541E+02  0.00000000000E+00 0. -1.
        -13    1    5    5    0    0 -0.48823970356E+02  0.44066456329E+03 -0.49488955147E+03  0.66444315451E+03  0.00000000000E+00 0.  1.
          2    1    6    6  503    0  0.47654302758E+02 -0.27509422630E+03 -0.44222522132E+03  0.52298270744E+03  0.00000000000E+00 0.  1.
         -2    1    6    6    0  503  0.57010895477E+02 -0.11634887791E+03 -0.12473660619E+03  0.17985139565E+03  0.00000000000E+00 0. -1.
<mgrwt>
<rscale>  0 0.10842237E+04</rscale>
<asrwt>0</asrwt>
<pdfrwt beam="1">  1        2 0.21319525E+00 0.10842237E+04</pdfrwt>
<pdfrwt beam="2">  1       -2 0.32626729E-01 0.10842237E+04</pdfrwt>
<totfact> 0.12819360E+02</totfact>
</mgrwt>
</event>
<event>
12    3  0.4806716E-008  0.1557272E+04  0.7818608E-02  0.8847236E-01
         -2   -1    0    0    0  501 -0.00000000000E+00  0.00000000000E+00  0.76014739452E+03  0.76014739452E+03  0.00000000000E+00 0.  1.
          2   -1    0    0  501    0  0.00000000000E+00 -0.00000000000E+00 -0.79757387085E+03  0.79757387085E+03  0.00000000000E+00 0. -1.
         23    2    1    2    0    0  0.25337839626E+03 -0.21731958907E+02  0.42933494564E+03  0.51091785044E+03  0.10970717670E+03 0.  0.
        254    2    1    2    0    0 -0.25337839626E+03  0.21731958907E+02 -0.46676142197E+03  0.10468034149E+04  0.90180833592E+03 0.  0.
         23    2    4    4    0    0 -0.18332247397E+03 -0.16080438868E+03 -0.68931319903E+03  0.73699784805E+03  0.92455182595E+02 0.  0.
         23    2    4    4    0    0 -0.70055922286E+02  0.18253634759E+03  0.22255177706E+03  0.30980556689E+03  0.90679906073E+02 0.  0.
          2    1    3    3  502    0  0.87354111267E+02  0.38190238620E+02  0.19965698668E+03  0.22125132183E+03  0.00000000000E+00 0.  1.
         -2    1    3    3    0  502  0.16602428499E+03 -0.59922197527E+02  0.22967795896E+03  0.28966652861E+03  0.00000000000E+00 0. -1.
         13    1    5    5    0    0 -0.13320170332E+03 -0.86628735715E+02 -0.32384807223E+03  0.36072816012E+03  0.00000000000E+00 0. -1.
        -13    1    5    5    0    0 -0.50120770650E+02 -0.74175652965E+02 -0.36546512680E+03  0.37626968792E+03  0.00000000000E+00 0.  1.
          2    1    6    6  503    0 -0.44560872655E+02  0.18023508618E+03  0.21281119694E+03  0.28241629415E+03  0.00000000000E+00 0.  1.
         -2    1    6    6    0  503 -0.25495049631E+02  0.23012614095E+01  0.97405801158E+01  0.27389272732E+02  0.00000000000E+00 0. -1.
<mgrwt>
<rscale>  0 0.15572716E+04</rscale>
<asrwt>0</asrwt>
<pdfrwt beam="1">  1        2 0.12270367E+00 0.15572716E+04</pdfrwt>
<pdfrwt beam="2">  1       -2 0.11694575E+00 0.15572716E+04</pdfrwt>
<totfact> 0.18829719E+01</totfact>
</mgrwt>
</event>
<event>
12    3  0.4806716E-008  0.1425381E+04  0.7818608E-02  0.8935649E-01
          1   -1    0    0  501    0  0.00000000000E+00  0.00000000000E+00  0.96341052829E+03  0.96341052829E+03  0.00000000000E+00 0. -1.
         -1   -1    0    0    0  501 -0.00000000000E+00 -0.00000000000E+00 -0.52721836664E+03  0.52721836664E+03  0.00000000000E+00 0.  1.
         23    2    1    2    0    0 -0.24403074822E+03  0.30576529545E+03  0.30182136739E+03  0.50189555134E+03  0.88088504699E+02 0.  0.
        254    2    1    2    0    0  0.24403074822E+03 -0.30576529545E+03  0.13437079427E+03  0.98873334359E+03  0.89805049546E+03 0.  0.
         23    2    4    4    0    0 -0.75640254780E+02 -0.14935300116E+03 -0.33930229977E+03  0.38926804414E+03  0.91519355643E+02 0.  0.
         23    2    4    4    0    0  0.31967100300E+03 -0.15641229429E+03  0.47367309404E+03  0.59946529945E+03  0.91313138513E+02 0.  0.
          1    1    3    3  502    0 -0.20203826288E+03  0.24210662927E+03  0.28215576805E+03  0.42313940616E+03  0.00000000000E+00 0. -1.
         -1    1    3    3    0  502 -0.41992485344E+02  0.63658666186E+02  0.19665599336E+02  0.78756145177E+02  0.00000000000E+00 0.  1.
         13    1    5    5    0    0 -0.71766006799E+02 -0.73572020838E+02 -0.12441051898E+03  0.16137279577E+03  0.00000000000E+00 0. -1.
        -13    1    5    5    0    0 -0.38742479806E+01 -0.75780980320E+02 -0.21489178079E+03  0.22789524837E+03  0.00000000000E+00 0.  1.
          3    1    6    6  503    0  0.76165807307E+02 -0.30997371694E+01  0.68328845368E+02  0.10237025780E+03  0.00000000000E+00 0. -1.
         -3    1    6    6    0  503  0.24350519569E+03 -0.15331255712E+03  0.40534424867E+03  0.49709504165E+03  0.00000000000E+00 0.  1.
<mgrwt>
<rscale>  0 0.14253810E+04</rscale>
<asrwt>0</asrwt>
<pdfrwt beam="1">  1        1 0.14821700E+00 0.14253810E+04</pdfrwt>
<pdfrwt beam="2">  1       -1 0.81110518E-01 0.14253810E+04</pdfrwt>
<totfact> 0.23841147E+01</totfact>
</mgrwt>
</event>
<event>
12    3  0.4806716E-008  0.1698208E+04  0.7818608E-02  0.8762387E-01
         -2   -1    0    0    0  501 -0.00000000000E+00  0.00000000000E+00  0.21959035242E+03  0.21959035242E+03  0.00000000000E+00 0. -1.
          2   -1    0    0  501    0  0.00000000000E+00 -0.00000000000E+00 -0.32832848377E+04  0.32832848377E+04  0.00000000000E+00 0.  1.
         23    2    1    2    0    0  0.10133570123E+03 -0.30414775830E+03 -0.21504300070E+04  0.21762248433E+04  0.93971113878E+02 0.  0.
        254    2    1    2    0    0 -0.10133570123E+03  0.30414775830E+03 -0.91326447828E+03  0.13266503469E+04  0.90728956365E+03 0.  0.
         23    2    4    4    0    0 -0.42254210521E+03  0.23912794565E+03 -0.19359528067E+03  0.53063792306E+03  0.91506653433E+02 0.  0.
         23    2    4    4    0    0  0.32120640398E+03  0.65019812655E+02 -0.71966919761E+03  0.79601242380E+03  0.91164109525E+02 0.  0.
          2    1    3    3  502    0  0.11705164313E+03 -0.28876078045E+03 -0.20354414324E+04  0.20591516943E+04  0.00000000000E+00 0.  1.
         -2    1    3    3    0  502 -0.15715941900E+02 -0.15386977852E+02 -0.11498857461E+03  0.11707314896E+03  0.00000000000E+00 0. -1.
         13    1    5    5    0    0 -0.25776034970E+02 -0.75555431496E+01 -0.10813343290E+02  0.28955458970E+02  0.00000000000E+00 0. -1.
        -13    1    5    5    0    0 -0.39676607024E+03  0.24668348880E+03 -0.18278193738E+03  0.50168246409E+03  0.00000000000E+00 0.  1.
          4    1    6    6  503    0  0.31684059034E+01 -0.95666070599E+01 -0.48899107293E+02  0.49926760967E+02  0.00000000000E+00 0. -1.
         -4    1    6    6    0  503  0.31803799807E+03  0.74586419715E+02 -0.67077009032E+03  0.74608566283E+03  0.00000000000E+00 0.  1.
<mgrwt>
<rscale>  0 0.16982081E+04</rscale>
<asrwt>0</asrwt>
<pdfrwt beam="1">  1        2 0.50512072E+00 0.16982081E+04</pdfrwt>
<pdfrwt beam="2">  1       -2 0.33783133E-01 0.16982081E+04</pdfrwt>
<totfact> 0.89816042E+00</totfact>
</mgrwt>
</event>
<event>
12    3  0.4806716E-008  0.2886878E+04  0.7818608E-02  0.8276793E-01
          2   -1    0    0  501    0  0.00000000000E+00  0.00000000000E+00  0.10250171312E+04  0.10250171312E+04  0.00000000000E+00 0. -1.
         -2   -1    0    0    0  501 -0.00000000000E+00 -0.00000000000E+00 -0.20326640919E+04  0.20326640919E+04  0.00000000000E+00 0.  1.
         23    2    1    2    0    0 -0.21047378432E+02 -0.12719360351E+04 -0.76059539183E+03  0.14849695797E+04  0.91460554216E+02 0.  0.
        254    2    1    2    0    0  0.21047378432E+02  0.12719360351E+04 -0.24705156879E+03  0.15727116435E+04  0.89113588549E+03 0.  0.
         23    2    4    4    0    0  0.11439994468E+02  0.13513138945E+04 -0.36370747488E+03  0.14024243026E+04  0.91272570762E+02 0.  0.
         23    2    4    4    0    0  0.96073839644E+01 -0.79377859479E+02  0.11665590609E+03  0.17028734087E+03  0.94847412363E+02 0.  0.
          4    1    3    3  502    0 -0.23653807564E+02 -0.56044494531E+03 -0.38566215574E+03  0.68073000353E+03  0.00000000000E+00 0. -1.
         -4    1    3    3    0  502  0.26064291322E+01 -0.71149108976E+03 -0.37493323609E+03  0.80423957612E+03  0.00000000000E+00 0.  1.
         13    1    5    5    0    0  0.91157147626E+01  0.12605018872E+04 -0.31477817412E+03  0.12992433963E+04  0.00000000000E+00 0.  1.
        -13    1    5    5    0    0  0.23242797051E+01  0.90812007315E+02 -0.48929300761E+02  0.10318090628E+03  0.00000000000E+00 0. -1.
          1    1    6    6  503    0  0.49528540848E+02 -0.32038266440E+02  0.37950455617E+02  0.70141029053E+02  0.00000000000E+00 0. -1.
         -1    1    6    6    0  503 -0.39921156884E+02 -0.47339593039E+02  0.78705450472E+02  0.10014631181E+03  0.00000000000E+00 0.  1.
<mgrwt>
<rscale>  0 0.28868776E+04</rscale>
<asrwt>0</asrwt>
<pdfrwt beam="1">  1        2 0.15769494E+00 0.28868776E+04</pdfrwt>
<pdfrwt beam="2">  1       -2 0.31271755E+00 0.28868776E+04</pdfrwt>
<totfact> 0.55691380E-01</totfact>
</mgrwt>
</event>
<event>
12    3  0.4806716E-008  0.2879181E+04  0.7818608E-02  0.8279099E-01
          2   -1    0    0  501    0  0.00000000000E+00  0.00000000000E+00  0.15815868031E+04  0.15815868031E+04  0.00000000000E+00 0. -1.
         -2   -1    0    0    0  501 -0.00000000000E+00 -0.00000000000E+00 -0.13103429105E+04  0.13103429105E+04  0.00000000000E+00 0.  1.
         23    2    1    2    0    0 -0.23356604087E+03  0.94944709669E+03 -0.73342282314E+03  0.12240330521E+04  0.65916541017E+02 0.  0.
        254    2    1    2    0    0  0.23356604087E+03 -0.94944709669E+03  0.10046667157E+04  0.16678966615E+04  0.90361561450E+03 0.  0.
         23    2    4    4    0    0  0.44804351213E+03 -0.16260714858E+03  0.22112090332E+03  0.53308342637E+03  0.89996733573E+02 0.  0.
         23    2    4    4    0    0 -0.21447747126E+03 -0.78683994811E+03  0.78354581241E+03  0.11348132351E+04  0.93484484215E+02 0.  0.
          4    1    3    3  502    0 -0.12260538228E+03  0.60694313669E+03 -0.44067114881E+03  0.76000204758E+03  0.00000000000E+00 0.  1.
         -4    1    3    3    0  502 -0.11096065858E+03  0.34250396000E+03 -0.29275167434E+03  0.46403100456E+03  0.00000000000E+00 0. -1.
         13    1    5    5    0    0  0.34824777260E+03 -0.13152382738E+03  0.12965370328E+03  0.39418918182E+03  0.00000000000E+00 0. -1.
        -13    1    5    5    0    0  0.99795739525E+02 -0.31083321202E+02  0.91467200048E+02  0.13889424455E+03  0.00000000000E+00 0.  1.
          4    1    6    6  503    0 -0.13340540618E+03 -0.49356586475E+03  0.55243507182E+03  0.75272091363E+03  0.00000000000E+00 0. -1.
         -4    1    6    6    0  503 -0.81072065076E+02 -0.29327408336E+03  0.23111074060E+03  0.38209232147E+03  0.00000000000E+00 0.  1.
<mgrwt>
<rscale>  0 0.28791812E+04</rscale>
<asrwt>0</asrwt>
<pdfrwt beam="1">  1        2 0.24332105E+00 0.28791812E+04</pdfrwt>
<pdfrwt beam="2">  1       -2 0.20159122E+00 0.28791812E+04</pdfrwt>
<totfact> 0.12820684E+00</totfact>
</mgrwt>
</event>
<event>
12    3  0.4806716E-008  0.1436624E+04  0.7818608E-02  0.8927726E-01
         -2   -1    0    0    0  501 -0.00000000000E+00  0.00000000000E+00  0.19981733278E+03  0.19981733278E+03  0.00000000000E+00 0.  1.
          2   -1    0    0  501    0  0.00000000000E+00 -0.00000000000E+00 -0.25822208673E+04  0.25822208673E+04  0.00000000000E+00 0. -1.
         23    2    1    2    0    0 -0.34745310250E+03 -0.17610450696E+01 -0.12021646325E+04  0.12544292735E+04  0.87557060466E+02 0.  0.
        254    2    1    2    0    0  0.34745310250E+03  0.17610450696E+01 -0.11802389020E+04  0.15276089265E+04  0.90548241672E+03 0.  0.
         23    2    4    4    0    0 -0.13841898119E+03  0.14813016715E+03 -0.92722292026E+03  0.95345806671E+03  0.90761116928E+02 0.  0.
         23    2    4    4    0    0  0.48587208368E+03 -0.14636912208E+03 -0.25301598170E+03  0.57415085982E+03  0.90202667545E+02 0.  0.
          3    1    3    3  502    0 -0.20805268745E+03 -0.18703917994E+02 -0.85017938267E+03  0.87546601306E+03  0.00000000000E+00 0. -1.
         -3    1    3    3    0  502 -0.13940041505E+03  0.16942872924E+02 -0.35198524984E+03  0.37896326044E+03  0.00000000000E+00 0.  1.
         13    1    5    5    0    0 -0.11057490382E+02  0.41415412903E+02 -0.87286643849E+02  0.97244345408E+02  0.00000000000E+00 0. -1.
        -13    1    5    5    0    0 -0.12736149080E+03  0.10671475425E+03 -0.83993627641E+03  0.85621372130E+03  0.00000000000E+00 0.  1.
          4    1    6    6  503    0  0.20275538315E+02 -0.19309634255E+02  0.24129638851E+01  0.28103057195E+02  0.00000000000E+00 0. -1.
         -4    1    6    6    0  503  0.46559654537E+03 -0.12705948782E+03 -0.25542894559E+03  0.54604780262E+03  0.00000000000E+00 0.  1.
<mgrwt>
<rscale>  0 0.14366245E+04</rscale>
<asrwt>0</asrwt>
<pdfrwt beam="1">  1        2 0.39726478E+00 0.14366245E+04</pdfrwt>
<pdfrwt beam="2">  1       -2 0.30741126E-01 0.14366245E+04</pdfrwt>
<totfact> 0.29763667E+01</totfact>
</mgrwt>
</event>
<event>
12    3  0.4806716E-008  0.2256186E+04  0.7818608E-02  0.8495399E-01
          2   -1    0    0  501    0  0.00000000000E+00  0.00000000000E+00  0.14333226622E+04  0.14333226622E+04  0.00000000000E+00 0. -1.
         -2   -1    0    0    0  501 -0.00000000000E+00 -0.00000000000E+00 -0.88786306105E+03  0.88786306105E+03  0.00000000000E+00 0.  1.
         23    2    1    2    0    0  0.65302800777E+03 -0.64761919772E+03  0.46787793882E+03  0.10359430919E+04  0.91717609720E+02 0.  0.
        254    2    1    2    0    0 -0.65302800777E+03  0.64761919772E+03  0.77581662302E+02  0.12852426313E+04  0.89441237846E+03 0.  0.
         23    2    4    4    0    0 -0.16140424542E+03  0.64271596629E+03 -0.21928099970E+03  0.70389415482E+03  0.90816741855E+02 0.  0.
         23    2    4    4    0    0 -0.49162376235E+03  0.49032314266E+01  0.29686266200E+03  0.58134847645E+03  0.90114624774E+02 0.  0.
          2    1    3    3  502    0  0.13192572281E+02 -0.34586866006E+02  0.91535174539E+01  0.38132429051E+02  0.00000000000E+00 0. -1.
         -2    1    3    3    0  502  0.63983543549E+03 -0.61303233171E+03  0.45872442137E+03  0.99781066289E+03  0.00000000000E+00 0.  1.
         13    1    5    5    0    0 -0.33051368593E+02  0.27920474208E+03 -0.12080649834E+03  0.30600962568E+03  0.00000000000E+00 0. -1.
        -13    1    5    5    0    0 -0.12835287683E+03  0.36351122420E+03 -0.98474501365E+02  0.39788452914E+03  0.00000000000E+00 0.  1.
          3    1    6    6  503    0 -0.71101380857E+01  0.82146268839E+00 -0.65138377062E+01  0.96777552257E+01  0.00000000000E+00 0. -1.
         -3    1    6    6    0  503 -0.48451362426E+03  0.40817687382E+01  0.30337649971E+03  0.57167072123E+03  0.00000000000E+00 0.  1.
<mgrwt>
<rscale>  0 0.22561864E+04</rscale>
<asrwt>0</asrwt>
<pdfrwt beam="1">  1        2 0.22051118E+00 0.22561864E+04</pdfrwt>
<pdfrwt beam="2">  1       -2 0.13659432E+00 0.22561864E+04</pdfrwt>
<totfact> 0.48249429E+00</totfact>
</mgrwt>
</event>
<event>
12    3  0.4806716E-008  0.1560784E+04  0.7818608E-02  0.8845009E-01
          1   -1    0    0  501    0  0.00000000000E+00  0.00000000000E+00  0.82041604769E+03  0.82041604769E+03  0.00000000000E+00 0. -1.
         -1   -1    0    0    0  501 -0.00000000000E+00 -0.00000000000E+00 -0.74232055768E+03  0.74232055768E+03  0.00000000000E+00 0.  1.
         23    2    1    2    0    0  0.17761700895E+03  0.94486645771E+02 -0.45019493539E+03  0.50179670221E+03  0.92999582753E+02 0.  0.
        254    2    1    2    0    0 -0.17761700895E+03 -0.94486645771E+02  0.52829042541E+03  0.10609399032E+04  0.89779016282E+03 0.  0.
         23    2    4    4    0    0 -0.15693929709E+03  0.27694111165E+03 -0.81117170546E+02  0.34062838987E+03  0.90118712466E+02 0.  0.
         23    2    4    4    0    0 -0.20677711859E+02 -0.37142775742E+03  0.60940759595E+03  0.72031151329E+03  0.95314801750E+02 0.  0.
          4    1    3    3  502    0  0.60661632110E+02  0.44194995907E+02 -0.27609845049E+03  0.28611778281E+03  0.00000000000E+00 0.  1.
         -4    1    3    3    0  502  0.11695537684E+03  0.50291649864E+02 -0.17409648490E+03  0.21567891940E+03  0.00000000000E+00 0. -1.
         13    1    5    5    0    0  0.87073909147E+01  0.87552707091E+00 -0.37066007875E+01  0.95038988626E+01  0.00000000000E+00 0. -1.
        -13    1    5    5    0    0 -0.16564668801E+03  0.27606558458E+03 -0.77410569759E+02  0.33112449101E+03  0.00000000000E+00 0.  1.
          1    1    6    6  503    0  0.27574958033E+01  0.21531753102E+01  0.31994493617E+02  0.32185207298E+02  0.00000000000E+00 0. -1.
         -1    1    6    6    0  503 -0.23435207662E+02 -0.37358093273E+03  0.57741310234E+03  0.68812630600E+03  0.00000000000E+00 0.  1.
<mgrwt>
<rscale>  0 0.15607840E+04</rscale>
<asrwt>0</asrwt>
<pdfrwt beam="1">  1        1 0.12621785E+00 0.15607840E+04</pdfrwt>
<pdfrwt beam="2">  1       -1 0.11420316E+00 0.15607840E+04</pdfrwt>
<totfact> 0.14265178E+01</totfact>
</mgrwt>
</event>
<event>
12    3  0.4806716E-008  0.1687009E+04  0.7818608E-02  0.8768809E-01
         -2   -1    0    0    0  501 -0.00000000000E+00  0.00000000000E+00  0.62827809182E+03  0.62827809182E+03  0.00000000000E+00 0. -1.
          2   -1    0    0  501    0  0.00000000000E+00 -0.00000000000E+00 -0.11324597761E+04  0.11324597761E+04  0.00000000000E+00 0.  1.
         23    2    1    2    0    0 -0.83554890519E+02  0.51104157367E+03  0.13898350156E+03  0.54449680105E+03  0.94949686192E+02 0.  0.
        254    2    1    2    0    0  0.83554890519E+02 -0.51104157367E+03 -0.64316518582E+03  0.12162410668E+04  0.89299270248E+03 0.  0.
         23    2    4    4    0    0 -0.21849416651E+03  0.54460606880E+02 -0.49503684064E+03  0.55229531305E+03  0.96244380243E+02 0.  0.
         23    2    4    4    0    0  0.30204905703E+03 -0.56550218055E+03 -0.14812834518E+03  0.66394575379E+03  0.88631869434E+02 0.  0.
          3    1    3    3  502    0 -0.96658900526E+01  0.19918464466E+03  0.12043773706E+02  0.19978239308E+03  0.00000000000E+00 0. -1.
         -3    1    3    3    0  502 -0.73889000466E+02  0.31185692901E+03  0.12693972785E+03  0.34471440798E+03  0.00000000000E+00 0.  1.
         13    1    5    5    0    0 -0.21754488951E+03  0.66775218569E+02 -0.48704270470E+03  0.53758283545E+03  0.00000000000E+00 0. -1.
        -13    1    5    5    0    0 -0.94927700424E+00 -0.12314611689E+02 -0.79941359405E+01  0.14712477607E+02  0.00000000000E+00 0.  1.
          1    1    6    6  503    0  0.18822333346E+03 -0.28536904521E+03 -0.46786991950E+02  0.34503990760E+03  0.00000000000E+00 0. -1.
         -1    1    6    6    0  503  0.11382572357E+03 -0.28013313534E+03 -0.10134135323E+03  0.31890584619E+03  0.00000000000E+00 0.  1.
<mgrwt>
<rscale>  0 0.16870088E+04</rscale>
<asrwt>0</asrwt>
<pdfrwt beam="1">  1        2 0.17422458E+00 0.16870088E+04</pdfrwt>
<pdfrwt beam="2">  1       -2 0.96658169E-01 0.16870088E+04</pdfrwt>
<totfact> 0.17741510E+01</totfact>
</mgrwt>
</event>
<event>
12    3  0.4806716E-008  0.2130470E+04  0.7818608E-02  0.8547939E-01
         -2   -1    0    0    0  501 -0.00000000000E+00  0.00000000000E+00  0.46097199281E+03  0.46097199281E+03  0.00000000000E+00 0.  1.
          2   -1    0    0  501    0  0.00000000000E+00 -0.00000000000E+00 -0.24615922872E+04  0.24615922872E+04  0.00000000000E+00 0. -1.
         23    2    1    2    0    0 -0.70962276693E+03 -0.47219416927E+02 -0.15316509879E+04  0.16910936148E+04  0.89714662810E+02 0.  0.
        254    2    1    2    0    0  0.70962276693E+03  0.47219416927E+02 -0.46896930650E+03  0.12314706652E+04  0.88926578934E+03 0.  0.
         23    2    4    4    0    0  0.34185197805E+03  0.32296002983E+03 -0.57827280303E+03  0.75140454890E+03  0.95096822345E+02 0.  0.
         23    2    4    4    0    0  0.36777078888E+03 -0.27574061291E+03  0.10930349653E+03  0.48006611629E+03  0.85017544607E+02 0.  0.
          2    1    3    3  502    0 -0.38458764399E+03  0.15476691284E+02 -0.86561033335E+03  0.94732699375E+03  0.00000000000E+00 0. -1.
         -2    1    3    3    0  502 -0.32503512295E+03 -0.62696108211E+02 -0.66604065454E+03  0.74376662108E+03  0.00000000000E+00 0.  1.
         13    1    5    5    0    0  0.75692922415E+01 -0.48301723453E+01 -0.25228225845E+01  0.93268099431E+01  0.00000000000E+00 0. -1.
        -13    1    5    5    0    0  0.33428268581E+03  0.32779020218E+03 -0.57574998045E+03  0.74207773896E+03  0.00000000000E+00 0.  1.
          2    1    6    6  503    0  0.21920026735E+03 -0.13909312024E+03  0.99341459008E+02  0.27796470780E+03  0.00000000000E+00 0. -1.
         -2    1    6    6    0  503  0.14857052153E+03 -0.13664749267E+03  0.99620375214E+01  0.20210140848E+03  0.00000000000E+00 0.  1.
<mgrwt>
<rscale>  0 0.21304695E+04</rscale>
<asrwt>0</asrwt>
<pdfrwt beam="1">  1        2 0.37870651E+00 0.21304695E+04</pdfrwt>
<pdfrwt beam="2">  1       -2 0.70918767E-01 0.21304695E+04</pdfrwt>
<totfact> 0.60858953E+00</totfact>
</mgrwt>
</event>
<event>
12    3  0.4806716E-008  0.1798858E+04  0.7818608E-02  0.8706907E-01
          2   -1    0    0  501    0  0.00000000000E+00  0.00000000000E+00  0.72265601615E+03  0.72265601615E+03  0.00000000000E+00 0. -1.
         -2   -1    0    0    0  501 -0.00000000000E+00 -0.00000000000E+00 -0.11194432450E+04  0.11194432450E+04  0.00000000000E+00 0.  1.
         23    2    1    2    0    0 -0.57082070269E+03  0.31831885725E+03 -0.31274860805E+03  0.73206289862E+03  0.10460031643E+03 0.  0.
        254    2    1    2    0    0  0.57082070269E+03 -0.31831885725E+03 -0.84038620774E+02  0.11100363625E+04  0.89328330712E+03 0.  0.
         23    2    4    4    0    0  0.16626269964E+03  0.84455991161E+02 -0.40149004863E+03  0.45079046501E+03  0.85098087266E+02 0.  0.
         23    2    4    4    0    0  0.40455800305E+03 -0.40277484841E+03  0.31745142786E+03  0.65924589749E+03  0.89078549409E+02 0.  0.
          2    1    3    3  502    0 -0.62624461546E+02  0.76509882904E+02 -0.53704694952E+02  0.11251568613E+03  0.00000000000E+00 0. -1.
         -2    1    3    3    0  502 -0.50819624115E+03  0.24180897434E+03 -0.25904391310E+03  0.61954721249E+03  0.00000000000E+00 0.  1.
         13    1    5    5    0    0  0.11670860082E+03  0.26843963423E+02 -0.17632563231E+03  0.21314836262E+03  0.00000000000E+00 0.  1.
        -13    1    5    5    0    0  0.49554098821E+02  0.57612027737E+02 -0.22516441632E+03  0.23764210239E+03  0.00000000000E+00 0. -1.
          4    1    6    6  503    0  0.34823663147E+03 -0.35282873928E+03  0.30737293761E+03  0.58329665997E+03  0.00000000000E+00 0. -1.
         -4    1    6    6    0  503  0.56321371583E+02 -0.49946109131E+02  0.10078490249E+02  0.75949237521E+02  0.00000000000E+00 0.  1.
<mgrwt>
<rscale>  0 0.17988579E+04</rscale>
<asrwt>0</asrwt>
<pdfrwt beam="1">  1        2 0.11117785E+00 0.17988579E+04</pdfrwt>
<pdfrwt beam="2">  1       -2 0.17222204E+00 0.17988579E+04</pdfrwt>
<totfact> 0.76295955E+00</totfact>
</mgrwt>
</event>
<event>
12    3  0.4806716E-008  0.2165712E+04  0.7818608E-02  0.8532837E-01
          1   -1    0    0  501    0  0.00000000000E+00  0.00000000000E+00  0.12873885033E+04  0.12873885033E+04  0.00000000000E+00 0. -1.
         -1   -1    0    0    0  501 -0.00000000000E+00 -0.00000000000E+00 -0.91081827566E+03  0.91081827566E+03  0.00000000000E+00 0.  1.
         23    2    1    2    0    0 -0.98409842563E+02  0.78960355258E+03 -0.12337364284E+03  0.81046591559E+03  0.92063441332E+02 0.  0.
        254    2    1    2    0    0  0.98409842563E+02 -0.78960355258E+03  0.49994387045E+03  0.13877408633E+04  0.10211378765E+04 0.  0.
         23    2    4    4    0    0 -0.17627869133E+03 -0.83927594102E+03  0.67590420134E+02  0.86505801348E+03  0.91096759593E+02 0.  0.
         23    2    4    4    0    0  0.27468853389E+03  0.49672388438E+02  0.43235345032E+03  0.52268284985E+03  0.91360378189E+02 0.  0.
          1    1    3    3  502    0 -0.95104101886E+02  0.46054805177E+03 -0.46690914333E+02  0.47257733723E+03  0.00000000000E+00 0. -1.
         -1    1    3    3    0  502 -0.33057406768E+01  0.32905550081E+03 -0.76682728511E+02  0.33788857836E+03  0.00000000000E+00 0.  1.
         13    1    5    5    0    0 -0.45326341651E+02 -0.20715136320E+03 -0.22553546829E+02  0.21324827549E+03  0.00000000000E+00 0. -1.
        -13    1    5    5    0    0 -0.13095234968E+03 -0.63212457781E+03  0.90143966963E+02  0.65180973799E+03  0.00000000000E+00 0.  1.
          3    1    6    6  503    0  0.44765899751E+02  0.43804841486E+02  0.75016790588E+02  0.97725988295E+02  0.00000000000E+00 0. -1.
         -3    1    6    6    0  503  0.22992263414E+03  0.58675469520E+01  0.35733665973E+03  0.42495686156E+03  0.00000000000E+00 0.  1.
<mgrwt>
<rscale>  0 0.21657119E+04</rscale>
<asrwt>0</asrwt>
<pdfrwt beam="1">  1        1 0.19805977E+00 0.21657119E+04</pdfrwt>
<pdfrwt beam="2">  1       -1 0.14012589E+00 0.21657119E+04</pdfrwt>
<totfact> 0.35320404E+00</totfact>
</mgrwt>
</event>
<event>
12    3  0.4806716E-008  0.1450883E+04  0.7818608E-02  0.8917789E-01
          2   -1    0    0  501    0  0.00000000000E+00  0.00000000000E+00  0.11402517841E+04  0.11402517841E+04  0.00000000000E+00 0. -1.
         -2   -1    0    0    0  501 -0.00000000000E+00 -0.00000000000E+00 -0.46153407555E+03  0.46153407555E+03  0.00000000000E+00 0.  1.
         23    2    1    2    0    0  0.37742961535E+02 -0.26364673565E+02 -0.27292097927E+03  0.29441526968E+03  0.10037361673E+03 0.  0.
        254    2    1    2    0    0 -0.37742961535E+02  0.26364673565E+02  0.95163868782E+03  0.13073705900E+04  0.89525529333E+03 0.  0.
         23    2    4    4    0    0  0.15395680172E+03  0.35014278194E+03  0.15970904616E+03  0.42456566675E+03  0.91904088130E+02 0.  0.
         23    2    4    4    0    0 -0.19169976326E+03 -0.32377810838E+03  0.79192964166E+03  0.88280492323E+03  0.10300928329E+03 0.  0.
          2    1    3    3  502    0 -0.16702273382E+02 -0.11345674587E+02 -0.52666198085E+01  0.20866900876E+02  0.00000000000E+00 0. -1.
         -2    1    3    3    0  502  0.54445234917E+02 -0.15018998978E+02 -0.26765435946E+03  0.27354836880E+03  0.00000000000E+00 0.  1.
         13    1    5    5    0    0  0.58805162736E+02  0.65317449981E+02  0.66245462525E+02  0.11005851962E+03  0.00000000000E+00 0.  1.
        -13    1    5    5    0    0  0.95151638989E+02  0.28482533196E+03  0.93463583635E+02  0.31450714713E+03  0.00000000000E+00 0. -1.
          3    1    6    6  503    0 -0.54091968953E+02 -0.14835391202E+03  0.42573954460E+03  0.45408037191E+03  0.00000000000E+00 0. -1.
         -3    1    6    6    0  503 -0.13760779431E+03 -0.17542419636E+03  0.36619009706E+03  0.42872455132E+03  0.00000000000E+00 0.  1.
<mgrwt>
<rscale>  0 0.14508826E+04</rscale>
<asrwt>0</asrwt>
<pdfrwt beam="1">  1        2 0.17542335E+00 0.14508826E+04</pdfrwt>
<pdfrwt beam="2">  1       -2 0.71005243E-01 0.14508826E+04</pdfrwt>
<totfact> 0.35965105E+01</totfact>
</mgrwt>
</event>
<event>
12    3  0.4806716E-008  0.1649250E+04  0.7818608E-02  0.8790850E-01
          1   -1    0    0  501    0  0.00000000000E+00  0.00000000000E+00  0.91078005747E+03  0.91078005747E+03  0.00000000000E+00 0. -1.
         -1   -1    0    0    0  501 -0.00000000000E+00 -0.00000000000E+00 -0.74662004375E+03  0.74662004375E+03  0.00000000000E+00 0.  1.
         23    2    1    2    0    0 -0.40504663457E+03 -0.38645836924E+03  0.77868278748E+02  0.57257789132E+03  0.91482924453E+02 0.  0.
        254    2    1    2    0    0  0.40504663457E+03  0.38645836924E+03  0.86291734978E+02  0.10848222099E+04  0.92519193481E+03 0.  0.
         23    2    4    4    0    0  0.37681911115E+03  0.14990140152E+03 -0.37323563343E+03  0.55887863548E+03  0.92614353234E+02 0.  0.
         23    2    4    4    0    0  0.28227523414E+02  0.23655696771E+03  0.45952736841E+03  0.52594357441E+03  0.93248319528E+02 0.  0.
          2    1    3    3  502    0 -0.33244266773E+03 -0.32717428016E+03  0.30177488450E+02  0.46740968939E+03  0.00000000000E+00 0. -1.
         -2    1    3    3    0  502 -0.72603966838E+02 -0.59284089073E+02  0.47690790298E+02  0.10516820193E+03  0.00000000000E+00 0.  1.
         13    1    5    5    0    0  0.11182399360E+03  0.53524832830E+02 -0.61019229469E+02  0.13817691428E+03  0.00000000000E+00 0.  1.
        -13    1    5    5    0    0  0.26499511755E+03  0.96376568694E+02 -0.31221640397E+03  0.42070172120E+03  0.00000000000E+00 0. -1.
          3    1    6    6  503    0  0.41600306643E+01  0.20306087469E+03  0.42893500683E+03  0.47459062861E+03  0.00000000000E+00 0. -1.
         -3    1    6    6    0  503  0.24067492749E+02  0.33496093021E+02  0.30592361584E+02  0.51352945798E+02  0.00000000000E+00 0.  1.
<mgrwt>
<rscale>  0 0.16492503E+04</rscale>
<asrwt>0</asrwt>
<pdfrwt beam="1">  1        1 0.14012001E+00 0.16492503E+04</pdfrwt>
<pdfrwt beam="2">  1       -1 0.11486462E+00 0.16492503E+04</pdfrwt>
<totfact> 0.11731952E+01</totfact>
</mgrwt>
</event>
<event>
12    3  0.4806716E-008  0.1798934E+04  0.7818608E-02  0.8706866E-01
         -1   -1    0    0    0  501 -0.00000000000E+00  0.00000000000E+00  0.74024679514E+03  0.74024679514E+03  0.00000000000E+00 0.  1.
          1   -1    0    0  501    0  0.00000000000E+00 -0.00000000000E+00 -0.10929344553E+04  0.10929344553E+04  0.00000000000E+00 0. -1.
         23    2    1    2    0    0 -0.37095386174E+03  0.43115435630E+02 -0.68042944640E+03  0.78167356640E+03  0.92539853872E+02 0.  0.
        254    2    1    2    0    0  0.37095386174E+03 -0.43115435630E+02  0.32774178621E+03  0.10515076841E+04  0.92670816491E+03 0.  0.
         23    2    4    4    0    0  0.54142921206E+03  0.28437079836E+03  0.22882557162E+03  0.65944548574E+03  0.92167585480E+02 0.  0.
         23    2    4    4    0    0 -0.17047535031E+03 -0.32748623399E+03  0.98916214590E+02  0.39206219833E+03  0.87288437559E+02 0.  0.
          3    1    3    3  502    0 -0.34886475674E+03  0.62653556392E+02 -0.61338818445E+03  0.70843288422E+03  0.00000000000E+00 0. -1.
         -3    1    3    3    0  502 -0.22089105006E+02 -0.19538120762E+02 -0.67041261951E+02  0.73240682184E+02  0.00000000000E+00 0.  1.
         13    1    5    5    0    0  0.23160874738E+03  0.72222317652E+02  0.10097667951E+03  0.26278311367E+03  0.00000000000E+00 0.  1.
        -13    1    5    5    0    0  0.30982046468E+03  0.21214848071E+03  0.12784889211E+03  0.39666237207E+03  0.00000000000E+00 0. -1.
          2    1    6    6  503    0  0.53327830857E+01 -0.47905883765E+02  0.21870479719E+02  0.52931372152E+02  0.00000000000E+00 0. -1.
         -2    1    6    6    0  503 -0.17580813340E+03 -0.27958035023E+03  0.77045734872E+02  0.33913082618E+03  0.00000000000E+00 0.  1.
<mgrwt>
<rscale>  0 0.17989344E+04</rscale>
<asrwt>0</asrwt>
<pdfrwt beam="1">  1        1 0.16814376E+00 0.17989344E+04</pdfrwt>
<pdfrwt beam="2">  1       -1 0.11388412E+00 0.17989344E+04</pdfrwt>
<totfact> 0.85122863E+00</totfact>
</mgrwt>
</event>
<event>
12    3  0.4806716E-008  0.1308634E+04  0.7818608E-02  0.9022746E-01
          1   -1    0    0  501    0  0.00000000000E+00  0.00000000000E+00  0.19790134347E+04  0.19790134347E+04  0.00000000000E+00 0. -1.
         -1   -1    0    0    0  501 -0.00000000000E+00 -0.00000000000E+00 -0.21633540874E+03  0.21633540874E+03  0.00000000000E+00 0.  1.
         23    2    1    2    0    0  0.64361728316E+02 -0.29508606873E+03  0.22801599956E+03  0.38924071264E+03  0.91097839104E+02 0.  0.
        254    2    1    2    0    0 -0.64361728316E+02  0.29508606873E+03  0.15346620264E+04  0.18061081308E+04  0.90311728187E+03 0.  0.
         23    2    4    4    0    0 -0.10717990465E+02  0.31872210116E+03  0.70938176281E+02  0.33858425726E+03  0.88929305205E+02 0.  0.
         23    2    4    4    0    0 -0.53643737852E+02 -0.23636032429E+02  0.14637238501E+04  0.14675238735E+04  0.87763872735E+02 0.  0.
          3    1    3    3  502    0  0.39837430243E+02 -0.23744419488E+03  0.21990613916E+03  0.32607587548E+03  0.00000000000E+00 0. -1.
         -3    1    3    3    0  502  0.24524298073E+02 -0.57641873848E+02  0.81098603924E+01  0.63164837151E+02  0.00000000000E+00 0.  1.
         13    1    5    5    0    0 -0.74016315740E+01  0.27079204655E+03  0.24887727200E+02  0.27203403389E+03  0.00000000000E+00 0. -1.
        -13    1    5    5    0    0 -0.33163588908E+01  0.47930054604E+02  0.46050449081E+02  0.66550223375E+02  0.00000000000E+00 0.  1.
          3    1    6    6  503    0 -0.37027421121E+01  0.69363364443E+01  0.10107969165E+04  0.10108274974E+04  0.00000000000E+00 0. -1.
         -3    1    6    6    0  503 -0.49940995739E+02 -0.30572368873E+02  0.45292693354E+03  0.45669637608E+03  0.00000000000E+00 0.  1.
<mgrwt>
<rscale>  0 0.13086339E+04</rscale>
<asrwt>0</asrwt>
<pdfrwt beam="1">  1        1 0.30446359E+00 0.13086339E+04</pdfrwt>
<pdfrwt beam="2">  1       -1 0.33282372E-01 0.13086339E+04</pdfrwt>
<totfact> 0.25702381E+01</totfact>
</mgrwt>
</event>
<event>
12    3  0.4806716E-008  0.1821239E+04  0.7818608E-02  0.8695086E-01
          2   -1    0    0  501    0  0.00000000000E+00  0.00000000000E+00  0.19649518192E+04  0.19649518192E+04  0.00000000000E+00 0. -1.
         -2   -1    0    0    0  501 -0.00000000000E+00 -0.00000000000E+00 -0.42200936134E+03  0.42200936134E+03  0.00000000000E+00 0.  1.
         23    2    1    2    0    0  0.55579232688E+03 -0.13192908673E+03  0.10823259760E+04  0.12273242960E+04  0.92655355060E+02 0.  0.
        254    2    1    2    0    0 -0.55579232688E+03  0.13192908673E+03  0.46061648193E+03  0.11596368845E+04  0.89793082475E+03 0.  0.
         23    2    4    4    0    0 -0.37697669929E+03  0.50581543205E+03  0.31730742626E+03  0.71208298515E+03  0.91746890221E+02 0.  0.
         23    2    4    4    0    0 -0.17881562759E+03 -0.37388634532E+03  0.14330905567E+03  0.44755389940E+03  0.89448194741E+02 0.  0.
          1    1    3    3  502    0  0.39792129013E+03 -0.11455496155E+03  0.69972878026E+03  0.81307106595E+03  0.00000000000E+00 0. -1.
         -1    1    3    3    0  502  0.15787103675E+03 -0.17374125184E+02  0.38259719570E+03  0.41425323008E+03  0.00000000000E+00 0.  1.
         13    1    5    5    0    0 -0.26254249548E+03  0.40852446675E+03  0.26376066290E+03  0.55262147005E+03  0.00000000000E+00 0.  1.
        -13    1    5    5    0    0 -0.11443420381E+03  0.97290965302E+02  0.53546763362E+02  0.15946151510E+03  0.00000000000E+00 0. -1.
          2    1    6    6  503    0  0.15573837901E+01 -0.10712902521E+02  0.21637214038E+02  0.24194229808E+02  0.00000000000E+00 0. -1.
         -2    1    6    6    0  503 -0.18037301138E+03 -0.36317344280E+03  0.12167184163E+03  0.42335966959E+03  0.00000000000E+00 0.  1.
<mgrwt>
<rscale>  0 0.18212392E+04</rscale>
<asrwt>0</asrwt>
<pdfrwt beam="1">  1        2 0.30230027E+00 0.18212392E+04</pdfrwt>
<pdfrwt beam="2">  1       -2 0.64924518E-01 0.18212392E+04</pdfrwt>
<totfact> 0.14413443E+01</totfact>
</mgrwt>
</event>
<event>
12    3  0.4806716E-008  0.1347313E+04  0.7818608E-02  0.8992865E-01
         -1   -1    0    0    0  501 -0.00000000000E+00  0.00000000000E+00  0.59846980571E+03  0.59846980571E+03  0.00000000000E+00 0.  1.
          1   -1    0    0  501    0  0.00000000000E+00 -0.00000000000E+00 -0.75828901561E+03  0.75828901561E+03  0.00000000000E+00 0. -1.
         23    2    1    2    0    0  0.21574873186E+03  0.31358887079E+03 -0.26394958190E+02  0.39213944981E+03  0.90505022495E+02 0.  0.
        254    2    1    2    0    0 -0.21574873186E+03 -0.31358887079E+03 -0.13342425172E+03  0.96461937151E+03  0.87624369086E+03 0.  0.
         23    2    4    4    0    0 -0.66318497340E+02 -0.36058460307E+03  0.30829796902E+03  0.48724277168E+03  0.89098158211E+02 0.  0.
         23    2    4    4    0    0 -0.14943023452E+03  0.46995732277E+02 -0.44172222074E+03  0.47737659983E+03  0.90729840369E+02 0.  0.
          3    1    3    3  502    0  0.16907990152E+03  0.17682417370E+03 -0.36120958315E+02  0.24730451903E+03  0.00000000000E+00 0. -1.
         -3    1    3    3    0  502  0.46668830337E+02  0.13676469709E+03  0.97260001251E+01  0.14483493078E+03  0.00000000000E+00 0.  1.
         13    1    5    5    0    0 -0.13191256292E+02 -0.23193505087E+03  0.23286570541E+03  0.32892904071E+03  0.00000000000E+00 0.  1.
        -13    1    5    5    0    0 -0.53127241047E+02 -0.12864955220E+03  0.75432263609E+02  0.15831373097E+03  0.00000000000E+00 0. -1.
          3    1    6    6  503    0 -0.35865959474E+02 -0.16676290518E+02 -0.18893830748E+03  0.19303406370E+03  0.00000000000E+00 0. -1.
         -3    1    6    6    0  503 -0.11356427505E+03  0.63672022794E+02 -0.25278391326E+03  0.28434253613E+03  0.00000000000E+00 0.  1.
<mgrwt>
<rscale>  0 0.13473130E+04</rscale>
<asrwt>0</asrwt>
<pdfrwt beam="1">  1        1 0.11665985E+00 0.13473130E+04</pdfrwt>
<pdfrwt beam="2">  1       -1 0.92072278E-01 0.13473130E+04</pdfrwt>
<totfact> 0.27080713E+01</totfact>
</mgrwt>
</event>
<event>
12    3  0.4806716E-008  0.2594521E+04  0.7818608E-02  0.8370065E-01
          1   -1    0    0  501    0  0.00000000000E+00  0.00000000000E+00  0.13718907790E+04  0.13718907790E+04  0.00000000000E+00 0. -1.
         -1   -1    0    0    0  501 -0.00000000000E+00 -0.00000000000E+00 -0.12266902452E+04  0.12266902452E+04  0.00000000000E+00 0.  1.
         23    2    1    2    0    0 -0.58547229722E+03  0.89702001096E+03 -0.32524227214E+03  0.11230881353E+04  0.90120548282E+02 0.  0.
        254    2    1    2    0    0  0.58547229722E+03 -0.89702001096E+03  0.47044280597E+03  0.14754928889E+04  0.89907737185E+03 0.  0.
         23    2    4    4    0    0  0.40033221047E+03 -0.95115646416E+02  0.49118816684E+03  0.64731196823E+03  0.91837378257E+02 0.  0.
         23    2    4    4    0    0  0.18514008676E+03 -0.80190436454E+03 -0.20745360871E+02  0.82818092065E+03  0.90143251170E+02 0.  0.
          1    1    3    3  502    0 -0.25636126766E+03  0.42976097546E+03 -0.10993363553E+03  0.51234851401E+03  0.00000000000E+00 0. -1.
         -1    1    3    3    0  502 -0.32911102956E+03  0.46725903550E+03 -0.21530863662E+03  0.61073962131E+03  0.00000000000E+00 0.  1.
         13    1    5    5    0    0  0.33541825351E+02  0.82341602344E+01  0.15632066538E+02  0.37910644243E+02  0.00000000000E+00 0. -1.
        -13    1    5    5    0    0  0.36679038512E+03 -0.10334980665E+03  0.47555610030E+03  0.60940132399E+03  0.00000000000E+00 0.  1.
          3    1    6    6  503    0  0.28769163233E+02 -0.19256794322E+03 -0.40146497341E+02  0.19880095261E+03  0.00000000000E+00 0. -1.
         -3    1    6    6    0  503  0.15637092352E+03 -0.60933642132E+03  0.19401136471E+02  0.62937996804E+03  0.00000000000E+00 0.  1.
<mgrwt>
<rscale>  0 0.25945212E+04</rscale>
<asrwt>0</asrwt>
<pdfrwt beam="1">  1        1 0.21106012E+00 0.25945212E+04</pdfrwt>
<pdfrwt beam="2">  1       -1 0.18872158E+00 0.25945212E+04</pdfrwt>
<totfact> 0.12783213E+00</totfact>
</mgrwt>
</event>
<event>
12    3  0.4806716E-008  0.3676612E+04  0.7818608E-02  0.8073165E-01
          2   -1    0    0  501    0  0.00000000000E+00  0.00000000000E+00  0.13578015179E+04  0.13578015179E+04  0.00000000000E+00 0. -1.
         -2   -1    0    0    0  501 -0.00000000000E+00 -0.00000000000E+00 -0.24888538126E+04  0.24888538126E+04  0.00000000000E+00 0.  1.
         23    2    1    2    0    0 -0.56960105135E+03 -0.16218451151E+04 -0.69318305734E+03  0.18555917790E+04  0.88832224000E+02 0.  0.
        254    2    1    2    0    0  0.56960105135E+03  0.16218451151E+04 -0.43786923731E+03  0.19910635516E+04  0.90431060052E+03 0.  0.
         23    2    4    4    0    0  0.34061665337E+03  0.91747531912E+03  0.20759287644E+03  0.10043753756E+04  0.88850588094E+02 0.  0.
         23    2    4    4    0    0  0.22898439798E+03  0.70436979601E+03 -0.64546211375E+03  0.98668817597E+03  0.91441523734E+02 0.  0.
          2    1    3    3  502    0 -0.14402445554E+03 -0.41642810156E+03 -0.21990302965E+03  0.49245583560E+03  0.00000000000E+00 0.  1.
         -2    1    3    3    0  502 -0.42557659581E+03 -0.12054170136E+04 -0.47328002769E+03  0.13631359434E+04  0.00000000000E+00 0. -1.
         13    1    5    5    0    0  0.14164872735E+03  0.41957047518E+03  0.50844536911E+02  0.44574534494E+03  0.00000000000E+00 0.  1.
        -13    1    5    5    0    0  0.19896792601E+03  0.49790484394E+03  0.15674833952E+03  0.55863003065E+03  0.00000000000E+00 0. -1.
          3    1    6    6  503    0  0.68893666198E+02  0.26988192835E+03 -0.18988091295E+03  0.33710139958E+03  0.00000000000E+00 0. -1.
         -3    1    6    6    0  503  0.16009073178E+03  0.43448786766E+03 -0.45558120079E+03  0.64958677639E+03  0.00000000000E+00 0.  1.
<mgrwt>
<rscale>  0 0.36766123E+04</rscale>
<asrwt>0</asrwt>
<pdfrwt beam="1">  1        2 0.20889254E+00 0.36766123E+04</pdfrwt>
<pdfrwt beam="2">  1       -2 0.38290058E+00 0.36766123E+04</pdfrwt>
<totfact> 0.11877266E-01</totfact>
</mgrwt>
</event>
<event>
12    3  0.4806716E-008  0.2620120E+04  0.7818608E-02  0.8361399E-01
         -2   -1    0    0    0  501 -0.00000000000E+00  0.00000000000E+00  0.69838248774E+03  0.69838248774E+03  0.00000000000E+00 0.  1.
          2   -1    0    0  501    0  0.00000000000E+00 -0.00000000000E+00 -0.24574738774E+04  0.24574738774E+04  0.00000000000E+00 0. -1.
         23    2    1    2    0    0  0.67035251036E+03  0.21222308984E+03 -0.18084121103E+04  0.19424109804E+04  0.90525842008E+02 0.  0.
        254    2    1    2    0    0 -0.67035251036E+03 -0.21222308984E+03  0.49320720589E+02  0.12134453848E+04  0.98772771571E+03 0.  0.
         23    2    4    4    0    0 -0.61609690041E+03  0.29585540561E+03  0.77877142851E+02  0.69358418516E+03  0.88816444434E+02 0.  0.
         23    2    4    4    0    0 -0.54255609952E+02 -0.50807849545E+03 -0.28556422263E+02  0.51986119963E+03  0.91393483769E+02 0.  0.
          3    1    3    3  502    0  0.42579114556E+03  0.15922735970E+03 -0.12634449755E+04  0.13427377472E+04  0.00000000000E+00 0. -1.
         -3    1    3    3    0  502  0.24456136480E+03  0.52995730140E+02 -0.54496713483E+03  0.59967323320E+03  0.00000000000E+00 0.  1.
         13    1    5    5    0    0 -0.43079981983E+03  0.20878948997E+03  0.95260397649E+02  0.48811482179E+03  0.00000000000E+00 0. -1.
        -13    1    5    5    0    0 -0.18529708058E+03  0.87065915642E+02 -0.17383254798E+02  0.20546936337E+03  0.00000000000E+00 0.  1.
          3    1    6    6  503    0 -0.28735500546E+02 -0.39061208125E+03 -0.58419964835E+02  0.39600052942E+03  0.00000000000E+00 0. -1.
         -3    1    6    6    0  503 -0.25520109406E+02 -0.11746641421E+03  0.29863542572E+02  0.12386067021E+03  0.00000000000E+00 0.  1.
<mgrwt>
<rscale>  0 0.26201196E+04</rscale>
<asrwt>0</asrwt>
<pdfrwt beam="1">  1        2 0.37807290E+00 0.26201196E+04</pdfrwt>
<pdfrwt beam="2">  1       -2 0.10744346E+00 0.26201196E+04</pdfrwt>
<totfact> 0.22621288E+00</totfact>
</mgrwt>
</event>
<event>
12    3  0.4806716E-008  0.3115838E+04  0.7818608E-02  0.8211405E-01
         -2   -1    0    0    0  501 -0.00000000000E+00  0.00000000000E+00  0.11592480690E+04  0.11592480690E+04  0.00000000000E+00 0.  1.
          2   -1    0    0  501    0  0.00000000000E+00 -0.00000000000E+00 -0.20936945050E+04  0.20936945050E+04  0.00000000000E+00 0. -1.
         23    2    1    2    0    0 -0.72319321248E+03 -0.12104043370E+04 -0.65370310905E+03  0.15568414457E+04  0.91326067823E+02 0.  0.
        254    2    1    2    0    0  0.72319321248E+03  0.12104043370E+04 -0.28074332693E+03  0.16961011283E+04  0.89991951862E+03 0.  0.
         23    2    4    4    0    0  0.59492419035E+03  0.80130895621E+03  0.22452727445E+03  0.10272628663E+04  0.93945004448E+02 0.  0.
         23    2    4    4    0    0  0.12826902214E+03  0.40909538082E+03 -0.50527060138E+03  0.66883826200E+03  0.90742864488E+02 0.  0.
          4    1    3    3  502    0 -0.69543779171E+03 -0.11471906272E+04 -0.64038255085E+03  0.14865294712E+04  0.00000000000E+00 0.  1.
         -4    1    3    3    0  502 -0.27755420776E+02 -0.63213709832E+02 -0.13320558201E+02  0.70311974542E+02  0.00000000000E+00 0. -1.
         13    1    5    5    0    0  0.31829689915E+03  0.44673612836E+03  0.16990391667E+03  0.57424160880E+03  0.00000000000E+00 0. -1.
        -13    1    5    5    0    0  0.27662729120E+03  0.35457282785E+03  0.54623357782E+02  0.45302125745E+03  0.00000000000E+00 0.  1.
          3    1    6    6  503    0  0.33649989011E+02  0.12170274605E+03 -0.21623187170E+03  0.25039988518E+03  0.00000000000E+00 0.  1.
         -3    1    6    6    0  503  0.94619033125E+02  0.28739263477E+03 -0.28903872968E+03  0.41843837683E+03  0.00000000000E+00 0. -1.
<mgrwt>
<rscale>  0 0.31158378E+04</rscale>
<asrwt>0</asrwt>
<pdfrwt beam="1">  1        2 0.32210684E+00 0.31158378E+04</pdfrwt>
<pdfrwt beam="2">  1       -2 0.17834586E+00 0.31158378E+04</pdfrwt>
<totfact> 0.93519436E-01</totfact>
</mgrwt>
</event>
<event>
12    3  0.4806716E-008  0.1763955E+04  0.7818608E-02  0.8725706E-01
          2   -1    0    0  501    0  0.00000000000E+00  0.00000000000E+00  0.15986502600E+04  0.15986502600E+04  0.00000000000E+00 0. -1.
         -2   -1    0    0    0  501 -0.00000000000E+00 -0.00000000000E+00 -0.48658812141E+03  0.48658812141E+03  0.00000000000E+00 0.  1.
         23    2    1    2    0    0 -0.15764532633E+03  0.52545674067E+03  0.82916812780E+03  0.99841879170E+03  0.91451977696E+02 0.  0.
        254    2    1    2    0    0  0.15764532633E+03 -0.52545674067E+03  0.28289401083E+03  0.10868195897E+04  0.89453393679E+03 0.  0.
         23    2    4    4    0    0  0.29905531636E+03  0.12538919307E+03 -0.43438975963E+02  0.33967584024E+03  0.91302792019E+02 0.  0.
         23    2    4    4    0    0 -0.14140999003E+03 -0.65084593374E+03  0.32633298679E+03  0.74714374950E+03  0.90185084159E+02 0.  0.
          1    1    3    3  502    0 -0.10561787652E+03  0.44681499070E+03  0.64782383310E+03  0.79402423797E+03  0.00000000000E+00 0. -1.
         -1    1    3    3    0  502 -0.52027449807E+02  0.78641749968E+02  0.18134429470E+03  0.20439455372E+03  0.00000000000E+00 0.  1.
         13    1    5    5    0    0  0.14158906932E+03  0.10722600250E+03 -0.34388964929E+02  0.18090738258E+03  0.00000000000E+00 0.  1.
        -13    1    5    5    0    0  0.15746624704E+03  0.18163190566E+02 -0.90500110335E+01  0.15876845766E+03  0.00000000000E+00 0. -1.
          2    1    6    6  503    0  0.29321288703E+01 -0.32271365373E+02  0.36926705958E+02  0.49128606898E+02  0.00000000000E+00 0. -1.
         -2    1    6    6    0  503 -0.14434211890E+03 -0.61857456837E+03  0.28940628084E+03  0.69801514261E+03  0.00000000000E+00 0.  1.
<mgrwt>
<rscale>  0 0.17639549E+04</rscale>
<asrwt>0</asrwt>
<pdfrwt beam="1">  1        2 0.24594619E+00 0.17639549E+04</pdfrwt>
<pdfrwt beam="2">  1       -2 0.74859712E-01 0.17639549E+04</pdfrwt>
<totfact> 0.16958149E+01</totfact>
</mgrwt>
</event>
<event>
12    3  0.4806716E-008  0.1796984E+04  0.7818608E-02  0.8707905E-01
          1   -1    0    0  501    0  0.00000000000E+00  0.00000000000E+00  0.98114180296E+03  0.98114180296E+03  0.00000000000E+00 0. -1.
         -1   -1    0    0    0  501 -0.00000000000E+00 -0.00000000000E+00 -0.82280411946E+03  0.82280411946E+03  0.00000000000E+00 0.  1.
         23    2    1    2    0    0  0.13397088332E+03 -0.47842949632E+03  0.50615204752E+03  0.71497735504E+03  0.90331292992E+02 0.  0.
        254    2    1    2    0    0 -0.13397088332E+03  0.47842949632E+03 -0.34781436402E+03  0.10889685674E+04  0.90445272314E+03 0.  0.
         23    2    4    4    0    0 -0.29883497972E+03 -0.34959037445E+02 -0.43317865449E+03  0.53541967604E+03  0.92227996689E+02 0.  0.
         23    2    4    4    0    0  0.16486409641E+03  0.51338853376E+03  0.85364290474E+02  0.55354889134E+03  0.91549746752E+02 0.  0.
          1    1    3    3  502    0  0.12730358638E+03 -0.29936917010E+03  0.31130465221E+03  0.45026513256E+03  0.00000000000E+00 0. -1.
         -1    1    3    3    0  502  0.66672969380E+01 -0.17906032621E+03  0.19484739531E+03  0.26471222248E+03  0.00000000000E+00 0.  1.
         13    1    5    5    0    0 -0.15906161374E+03 -0.64805040130E+02 -0.23858200814E+03  0.29397561940E+03  0.00000000000E+00 0. -1.
        -13    1    5    5    0    0 -0.13977336598E+03  0.29846002685E+02 -0.19459664635E+03  0.24144405664E+03  0.00000000000E+00 0.  1.
          3    1    6    6  503    0  0.54681298645E+01 -0.23237694431E+01  0.51007217541E+01  0.78305626268E+01  0.00000000000E+00 0. -1.
         -3    1    6    6    0  503  0.15939596654E+03  0.51571230320E+03  0.80263568720E+02  0.54571832871E+03  0.00000000000E+00 0.  1.
<mgrwt>
<rscale>  0 0.17969836E+04</rscale>
<asrwt>0</asrwt>
<pdfrwt beam="1">  1        1 0.15094489E+00 0.17969836E+04</pdfrwt>
<pdfrwt beam="2">  1       -1 0.12658525E+00 0.17969836E+04</pdfrwt>
<totfact> 0.80148114E+00</totfact>
</mgrwt>
</event>
<event>
12    3  0.4806716E-008  0.2075540E+04  0.7818608E-02  0.8572095E-01
          2   -1    0    0  501    0  0.00000000000E+00  0.00000000000E+00  0.33273313515E+04  0.33273313515E+04  0.00000000000E+00 0. -1.
         -2   -1    0    0    0  501 -0.00000000000E+00 -0.00000000000E+00 -0.32367275205E+03  0.32367275205E+03  0.00000000000E+00 0.  1.
         23    2    1    2    0    0 -0.66516965120E+03 -0.48678578608E+03  0.14286474639E+04  0.16519744584E+04  0.92601125847E+02 0.  0.
        254    2    1    2    0    0  0.66516965120E+03  0.48678578608E+03  0.15750111356E+04  0.19990296452E+04  0.91435681160E+03 0.  0.
         23    2    4    4    0    0  0.70666082272E+03 -0.15868074426E+02  0.81370896674E+03  0.10813250544E+04  0.86719528300E+02 0.  0.
         23    2    4    4    0    0 -0.41491171519E+02  0.50265386051E+03  0.76130216885E+03  0.91770459083E+03  0.90654856139E+02 0.  0.
          3    1    3    3  502    0 -0.35343607666E+03 -0.25493325846E+03  0.84666079475E+03  0.95223029143E+03  0.00000000000E+00 0. -1.
         -3    1    3    3    0  502 -0.31173357455E+03 -0.23185252763E+03  0.58198666916E+03  0.69974416692E+03  0.00000000000E+00 0.  1.
         13    1    5    5    0    0  0.68043208778E+02 -0.24128793932E+02  0.64215463086E+02  0.96621439944E+02  0.00000000000E+00 0. -1.
        -13    1    5    5    0    0  0.63861761394E+03  0.82607195068E+01  0.74949350365E+03  0.98470361446E+03  0.00000000000E+00 0.  1.
          3    1    6    6  503    0 -0.45077277646E+02  0.13998845867E+03  0.17869204722E+03  0.23142942177E+03  0.00000000000E+00 0. -1.
         -3    1    6    6    0  503  0.35861061268E+01  0.36266540184E+03  0.58261012163E+03  0.68627516907E+03  0.00000000000E+00 0.  1.
<mgrwt>
<rscale>  0 0.20755399E+04</rscale>
<asrwt>0</asrwt>
<pdfrwt beam="1">  1        2 0.51189711E+00 0.20755399E+04</pdfrwt>
<pdfrwt beam="2">  1       -2 0.49795810E-01 0.20755399E+04</pdfrwt>
<totfact> 0.37765862E+00</totfact>
</mgrwt>
</event>
<event>
12    3  0.4806716E-008  0.2962948E+04  0.7818608E-02  0.8254391E-01
          2   -1    0    0  501    0  0.00000000000E+00  0.00000000000E+00  0.76939819683E+03  0.76939819683E+03  0.00000000000E+00 0. -1.
         -2   -1    0    0    0  501 -0.00000000000E+00 -0.00000000000E+00 -0.28525736532E+04  0.28525736532E+04  0.00000000000E+00 0.  1.
         23    2    1    2    0    0 -0.13867047404E+03  0.92528359933E+03 -0.21056693439E+04  0.23060222881E+04  0.92283085218E+02 0.  0.
        254    2    1    2    0    0  0.13867047404E+03 -0.92528359933E+03  0.22493887499E+02  0.13159495620E+04  0.92511514692E+03 0.  0.
         23    2    4    4    0    0  0.23633932561E+03 -0.10724406078E+04  0.86440194189E+02  0.11052781006E+04  0.90457936813E+02 0.  0.
         23    2    4    4    0    0 -0.97668851576E+02  0.14715700846E+03 -0.63946306690E+02  0.21067146139E+03  0.95388389222E+02 0.  0.
          2    1    3    3  502    0 -0.35679116225E+02  0.16161099323E+03 -0.46017168692E+03  0.48902872504E+03  0.00000000000E+00 0. -1.
         -2    1    3    3    0  502 -0.10299135781E+03  0.76367260610E+03 -0.16454976569E+04  0.18169935630E+04  0.00000000000E+00 0.  1.
         13    1    5    5    0    0  0.24262893314E+03 -0.10030923745E+04  0.86588705894E+02  0.10356450719E+04  0.00000000000E+00 0. -1.
        -13    1    5    5    0    0 -0.62896075275E+01 -0.69348233295E+02 -0.14851170423E+00  0.69633028655E+02  0.00000000000E+00 0.  1.
          4    1    6    6  503    0 -0.76672803371E+02  0.54749072012E+02 -0.67408437169E+02  0.11584505628E+03  0.00000000000E+00 0.  1.
         -4    1    6    6    0  503 -0.20996048205E+02  0.92407936450E+02  0.34621304785E+01  0.94826405113E+02  0.00000000000E+00 0. -1.
<mgrwt>
<rscale>  0 0.29629479E+04</rscale>
<asrwt>0</asrwt>
<pdfrwt beam="1">  1        2 0.11836895E+00 0.29629479E+04</pdfrwt>
<pdfrwt beam="2">  1       -2 0.43885748E+00 0.29629479E+04</pdfrwt>
<totfact> 0.12793873E-01</totfact>
</mgrwt>
</event>
<event>
12    3  0.4806716E-008  0.3125336E+04  0.7818608E-02  0.8208819E-01
         -1   -1    0    0    0  501 -0.00000000000E+00  0.00000000000E+00  0.26611069197E+04  0.26611069197E+04  0.00000000000E+00 0.  1.
          1   -1    0    0  501    0  0.00000000000E+00 -0.00000000000E+00 -0.91763736946E+03  0.91763736946E+03  0.00000000000E+00 0. -1.
         23    2    1    2    0    0 -0.86491319818E+03  0.61390251980E+03  0.19189911364E+04  0.21943742529E+04  0.88318944259E+02 0.  0.
        254    2    1    2    0    0  0.86491319818E+03 -0.61390251980E+03 -0.17552158613E+03  0.13843700363E+04  0.87219345676E+03 0.  0.
         23    2    4    4    0    0  0.85648620864E+03 -0.36847414645E+03 -0.41943565494E+03  0.10264787765E+04  0.91600151321E+02 0.  0.
         23    2    4    4    0    0  0.84269895404E+01 -0.24542837334E+03  0.24391406880E+03  0.35789125983E+03  0.91027360219E+02 0.  0.
          4    1    3    3  502    0 -0.23192969882E+03  0.21313019128E+03  0.58386514226E+03  0.66341116057E+03  0.00000000000E+00 0. -1.
         -4    1    3    3    0  502 -0.63298349936E+03  0.40077232852E+03  0.13351259942E+04  0.15309630923E+04  0.00000000000E+00 0.  1.
         13    1    5    5    0    0  0.85174521203E+03 -0.36892610834E+03 -0.40767900795E+03  0.10137941375E+04  0.00000000000E+00 0.  1.
        -13    1    5    5    0    0  0.47409966102E+01  0.45196189098E+00 -0.11756646987E+02  0.12684639009E+02  0.00000000000E+00 0. -1.
          3    1    6    6  503    0 -0.40418533964E+02 -0.13111616356E+03  0.11825834663E+03  0.18113570267E+03  0.00000000000E+00 0. -1.
         -3    1    6    6    0  503  0.48845523504E+02 -0.11431220978E+03  0.12565572218E+03  0.17675555716E+03  0.00000000000E+00 0.  1.
<mgrwt>
<rscale>  0 0.31253359E+04</rscale>
<asrwt>0</asrwt>
<pdfrwt beam="1">  1        1 0.14117498E+00 0.31253359E+04</pdfrwt>
<pdfrwt beam="2">  1       -1 0.40940106E+00 0.31253359E+04</pdfrwt>
<totfact> 0.91330353E-02</totfact>
</mgrwt>
</event>
<event>
12    3  0.4806716E-008  0.1908367E+04  0.7818608E-02  0.8650703E-01
         -2   -1    0    0    0  501 -0.00000000000E+00  0.00000000000E+00  0.65897608491E+03  0.65897608491E+03  0.00000000000E+00 0.  1.
          2   -1    0    0  501    0  0.00000000000E+00 -0.00000000000E+00 -0.13816380982E+04  0.13816380982E+04  0.00000000000E+00 0. -1.
         23    2    1    2    0    0  0.30349830704E+03 -0.35117146564E+03  0.33356099103E+03  0.57854898057E+03  0.89573252300E+02 0.  0.
        254    2    1    2    0    0 -0.30349830704E+03  0.35117146564E+03 -0.10562230043E+04  0.14620652025E+04  0.89810634167E+03 0.  0.
         23    2    4    4    0    0 -0.26453291939E+03  0.63785081894E+03 -0.63206388899E+03  0.94043664999E+03  0.89916629215E+02 0.  0.
         23    2    4    4    0    0 -0.38965387643E+02 -0.28667935330E+03 -0.42415911531E+03  0.52162855253E+03  0.92097984081E+02 0.  0.
          3    1    3    3  502    0  0.37835363747E+02 -0.11517635179E+02  0.43872947000E+02  0.59067809748E+02  0.00000000000E+00 0. -1.
         -3    1    3    3    0  502  0.26566294329E+03 -0.33965383047E+03  0.28968804403E+03  0.51948117083E+03  0.00000000000E+00 0.  1.
         13    1    5    5    0    0 -0.25477152231E+03  0.63285749587E+03 -0.60733259076E+03  0.91338382646E+03  0.00000000000E+00 0. -1.
        -13    1    5    5    0    0 -0.97613970843E+01  0.49933230779E+01 -0.24731298230E+02  0.27052823523E+02  0.00000000000E+00 0.  1.
          1    1    6    6  503    0 -0.45976521263E+02 -0.62511739055E+02 -0.13465776200E+03  0.15541644344E+03  0.00000000000E+00 0. -1.
         -1    1    6    6    0  503  0.70111336199E+01 -0.22416761424E+03 -0.28950135332E+03  0.36621210909E+03  0.00000000000E+00 0.  1.
<mgrwt>
<rscale>  0 0.19083673E+04</rscale>
<asrwt>0</asrwt>
<pdfrwt beam="1">  1        2 0.21255971E+00 0.19083673E+04</pdfrwt>
<pdfrwt beam="2">  1       -2 0.10138094E+00 0.19083673E+04</pdfrwt>
<totfact> 0.11095338E+01</totfact>
</mgrwt>
</event>
<event>
12    3  0.4806716E-008  0.2529481E+04  0.7818608E-02  0.8392557E-01
          2   -1    0    0  501    0  0.00000000000E+00  0.00000000000E+00  0.22313412781E+04  0.22313412781E+04  0.00000000000E+00 0.  1.
         -2   -1    0    0    0  501 -0.00000000000E+00 -0.00000000000E+00 -0.71686422587E+03  0.71686422587E+03  0.00000000000E+00 0. -1.
         23    2    1    2    0    0 -0.11088407970E+03  0.93153663336E+03 -0.86317262890E+01  0.94251541710E+03  0.90581600488E+02 0.  0.
        254    2    1    2    0    0  0.11088407970E+03 -0.93153663336E+03  0.15231087785E+04  0.20056900869E+04  0.90712545713E+03 0.  0.
         23    2    4    4    0    0 -0.36522408427E+03 -0.46103079565E+03  0.94389919748E+03  0.11158303598E+04  0.90518896401E+02 0.  0.
         23    2    4    4    0    0  0.47610816397E+03 -0.47050583771E+03  0.57920958104E+03  0.88985972707E+03  0.91169446481E+02 0.  0.
          1    1    3    3  502    0 -0.97435052580E+00  0.38448488852E+03 -0.18532005788E+01  0.38449058923E+03  0.00000000000E+00 0. -1.
         -1    1    3    3    0  502 -0.10990972917E+03  0.54705174484E+03 -0.67785257102E+01  0.55802482786E+03  0.00000000000E+00 0.  1.
         13    1    5    5    0    0 -0.30641430728E+03 -0.38966657473E+03  0.85035567004E+03  0.98429392599E+03  0.00000000000E+00 0.  1.
        -13    1    5    5    0    0 -0.58809776991E+02 -0.71364220922E+02  0.93543527442E+02  0.13153643383E+03  0.00000000000E+00 0. -1.
          1    1    6    6  503    0  0.10468107611E+03 -0.11912291539E+03  0.18871005811E+03  0.24649519812E+03  0.00000000000E+00 0. -1.
         -1    1    6    6    0  503  0.37142708786E+03 -0.35138292232E+03  0.39049952293E+03  0.64336452895E+03  0.00000000000E+00 0.  1.
<mgrwt>
<rscale>  0 0.25294812E+04</rscale>
<asrwt>0</asrwt>
<pdfrwt beam="1">  1        2 0.34328327E+00 0.25294812E+04</pdfrwt>
<pdfrwt beam="2">  1       -2 0.11028680E+00 0.25294812E+04</pdfrwt>
<totfact> 0.28796328E+00</totfact>
</mgrwt>
</event>
<event>
12    3  0.4806716E-008  0.1856585E+04  0.7818608E-02  0.8676774E-01
         -2   -1    0    0    0  501 -0.00000000000E+00  0.00000000000E+00  0.41374552829E+03  0.41374552829E+03  0.00000000000E+00 0.  1.
          2   -1    0    0  501    0  0.00000000000E+00 -0.00000000000E+00 -0.20827472117E+04  0.20827472117E+04  0.00000000000E+00 0. -1.
         23    2    1    2    0    0  0.24952082687E+03 -0.19916402728E+03 -0.14898240029E+04  0.15263164874E+04  0.90219217978E+02 0.  0.
        254    2    1    2    0    0 -0.24952082687E+03  0.19916402728E+03 -0.17917768053E+03  0.97017625261E+03  0.89844886728E+03 0.  0.
         23    2    4    4    0    0 -0.48204047235E+03 -0.11471187947E+03  0.52764412965E+02  0.50687962287E+03  0.92849537053E+02 0.  0.
         23    2    4    4    0    0  0.23251964548E+03  0.31387590675E+03 -0.23194209350E+03  0.46329662974E+03  0.90901936288E+02 0.  0.
          2    1    3    3  502    0  0.25484753519E+03 -0.19862574002E+03 -0.14821456725E+04  0.15169559141E+04  0.00000000000E+00 0. -1.
         -2    1    3    3    0  502 -0.53267083270E+01 -0.53828726715E+00 -0.76783303495E+01  0.93605732591E+01  0.00000000000E+00 0.  1.
         13    1    5    5    0    0 -0.28471936827E+02  0.15053376067E+02  0.32777280529E+00  0.32208116255E+02  0.00000000000E+00 0. -1.
        -13    1    5    5    0    0 -0.45356853552E+03 -0.12976525554E+03  0.52436640160E+02  0.47467150661E+03  0.00000000000E+00 0.  1.
          1    1    6    6  503    0  0.73338870729E+02  0.38362023923E+02 -0.43758588248E+02  0.93621839785E+02  0.00000000000E+00 0. -1.
         -1    1    6    6    0  503  0.15918077475E+03  0.27551388283E+03 -0.18818350525E+03  0.36967478996E+03  0.00000000000E+00 0.  1.
<mgrwt>
<rscale>  0 0.18565854E+04</rscale>
<asrwt>0</asrwt>
<pdfrwt beam="1">  1        2 0.32042264E+00 0.18565854E+04</pdfrwt>
<pdfrwt beam="2">  1       -2 0.63653159E-01 0.18565854E+04</pdfrwt>
<totfact> 0.12893862E+01</totfact>
</mgrwt>
</event>
<event>
12    3  0.4806716E-008  0.4114398E+04  0.7818608E-02  0.7981858E-01
         -2   -1    0    0    0  501 -0.00000000000E+00  0.00000000000E+00  0.14689840947E+04  0.14689840947E+04  0.00000000000E+00 0. -1.
          2   -1    0    0  501    0  0.00000000000E+00 -0.00000000000E+00 -0.28809487494E+04  0.28809487494E+04  0.00000000000E+00 0.  1.
         23    2    1    2    0    0  0.63185839832E+03 -0.13790704734E+04 -0.19761261099E+04  0.24931352871E+04  0.97819995521E+02 0.  0.
        254    2    1    2    0    0 -0.63185839832E+03  0.13790704734E+04  0.56416145513E+03  0.18567975570E+04  0.91013109731E+03 0.  0.
         23    2    4    4    0    0 -0.49059523272E+03  0.47699698016E+03 -0.13326340001E+03  0.70442079462E+03  0.10119150486E+03 0.  0.
         23    2    4    4    0    0 -0.14126316560E+03  0.90207349322E+03  0.69742485514E+03  0.11523767624E+04  0.88763195545E+02 0.  0.
          3    1    3    3  502    0  0.20388248457E+03 -0.48053623466E+03 -0.75327618433E+03  0.91646502945E+03  0.00000000000E+00 0. -1.
         -3    1    3    3    0  502  0.42797591375E+03 -0.89853423872E+03 -0.12228499256E+04  0.15766702576E+04  0.00000000000E+00 0.  1.
         13    1    5    5    0    0 -0.11985399674E+03  0.16864362893E+03 -0.12271090213E+02  0.20725885691E+03  0.00000000000E+00 0. -1.
        -13    1    5    5    0    0 -0.37074123598E+03  0.30835335122E+03 -0.12099230979E+03  0.49716193770E+03  0.00000000000E+00 0.  1.
          4    1    6    6  503    0 -0.49603379809E+02  0.58608642257E+03  0.45807275342E+03  0.74551219804E+03  0.00000000000E+00 0.  1.
         -4    1    6    6    0  503 -0.91659785790E+02  0.31598707065E+03  0.23935210171E+03  0.40686456438E+03  0.00000000000E+00 0. -1.
<mgrwt>
<rscale>  0 0.41143981E+04</rscale>
<asrwt>0</asrwt>
<pdfrwt beam="1">  1        2 0.44322288E+00 0.41143981E+04</pdfrwt>
<pdfrwt beam="2">  1       -2 0.22599755E+00 0.41143981E+04</pdfrwt>
<totfact> 0.14608793E-01</totfact>
</mgrwt>
</event>
<event>
12    3  0.4806716E-008  0.1833944E+04  0.7818608E-02  0.8688454E-01
         -2   -1    0    0    0  501 -0.00000000000E+00  0.00000000000E+00  0.14062857816E+04  0.14062857816E+04  0.00000000000E+00 0.  1.
          2   -1    0    0  501    0  0.00000000000E+00 -0.00000000000E+00 -0.59791408444E+03  0.59791408444E+03  0.00000000000E+00 0. -1.
         23    2    1    2    0    0  0.42879455737E+03 -0.54182995677E+03  0.46707871785E+03  0.83919489062E+03  0.92957308979E+02 0.  0.
        254    2    1    2    0    0 -0.42879455737E+03  0.54182995677E+03  0.34129297934E+03  0.11650049754E+04  0.87367683990E+03 0.  0.
         23    2    4    4    0    0  0.25894971885E+02  0.42598016965E+03 -0.16727044089E+03  0.46686733540E+03  0.88634383637E+02 0.  0.
         23    2    4    4    0    0 -0.45468952925E+03  0.11584978712E+03  0.50856342023E+03  0.69813764004E+03  0.92712840841E+02 0.  0.
          1    1    3    3  502    0  0.24157172213E+03 -0.32158978578E+03  0.21728266171E+03  0.45715275601E+03  0.00000000000E+00 0. -1.
         -1    1    3    3    0  502  0.18722283523E+03 -0.22024017099E+03  0.24979605613E+03  0.38204213460E+03  0.00000000000E+00 0.  1.
         13    1    5    5    0    0 -0.31180453306E+02  0.19571577938E+03 -0.86793626859E+02  0.21635623548E+03  0.00000000000E+00 0.  1.
        -13    1    5    5    0    0  0.57075425191E+02  0.23026439027E+03 -0.80476814034E+02  0.25051109992E+03  0.00000000000E+00 0. -1.
          1    1    6    6  503    0 -0.71370010037E+00  0.10862927632E+02  0.47310301256E+01  0.11869928838E+02  0.00000000000E+00 0. -1.
         -1    1    6    6    0  503 -0.45397582915E+03  0.10498685949E+03  0.50383239011E+03  0.68626771120E+03  0.00000000000E+00 0.  1.
<mgrwt>
<rscale>  0 0.18339445E+04</rscale>
<asrwt>0</asrwt>
<pdfrwt beam="1">  1        2 0.91986782E-01 0.18339445E+04</pdfrwt>
<pdfrwt beam="2">  1       -2 0.21635166E+00 0.18339445E+04</pdfrwt>
<totfact> 0.48855574E+00</totfact>
</mgrwt>
</event>
<event>
12    3  0.4806716E-008  0.1650182E+04  0.7818608E-02  0.8790299E-01
          2   -1    0    0  501    0  0.00000000000E+00  0.00000000000E+00  0.22571678473E+04  0.22571678473E+04  0.00000000000E+00 0. -1.
         -2   -1    0    0    0  501 -0.00000000000E+00 -0.00000000000E+00 -0.30160584192E+03  0.30160584192E+03  0.00000000000E+00 0.  1.
         23    2    1    2    0    0 -0.12159799866E+03 -0.21465683909E+03 -0.11566915749E+03  0.28743937757E+03  0.91533654674E+02 0.  0.
        254    2    1    2    0    0  0.12159799866E+03  0.21465683909E+03  0.20712311628E+04  0.22713343116E+04  0.89894237490E+03 0.  0.
         23    2    4    4    0    0  0.14652937638E+03  0.41645104794E+03  0.45714911451E+03  0.64199870660E+03  0.90965339071E+02 0.  0.
         23    2    4    4    0    0 -0.24931377713E+02 -0.20179420885E+03  0.16140820483E+04  0.16293356050E+04  0.90173048751E+02 0.  0.
          2    1    3    3  502    0 -0.32412596948E+02 -0.90871037824E+02 -0.83150565749E+00  0.96482191921E+02  0.00000000000E+00 0. -1.
         -2    1    3    3    0  502 -0.89185401716E+02 -0.12378580127E+03 -0.11483765183E+03  0.19095718565E+03  0.00000000000E+00 0.  1.
         13    1    5    5    0    0  0.12895873955E+03  0.39712358420E+03  0.45206829748E+03  0.61538869279E+03  0.00000000000E+00 0. -1.
        -13    1    5    5    0    0  0.17570636828E+02  0.19327463747E+02  0.50808170290E+01  0.26610013812E+02  0.00000000000E+00 0.  1.
          2    1    6    6  503    0 -0.38452565070E+02 -0.14938153074E+03  0.14018010051E+04  0.14102622094E+04  0.00000000000E+00 0. -1.
         -2    1    6    6    0  503  0.13521187357E+02 -0.52412678107E+02  0.21228104325E+03  0.21907339559E+03  0.00000000000E+00 0.  1.
<mgrwt>
<rscale>  0 0.16501818E+04</rscale>
<asrwt>0</asrwt>
<pdfrwt beam="1">  1        2 0.34725658E+00 0.16501818E+04</pdfrwt>
<pdfrwt beam="2">  1       -2 0.46400900E-01 0.16501818E+04</pdfrwt>
<totfact> 0.20182969E+01</totfact>
</mgrwt>
</event>
<event>
12    3  0.4806716E-008  0.2917930E+04  0.7818608E-02  0.8267563E-01
         -1   -1    0    0    0  501 -0.00000000000E+00  0.00000000000E+00  0.18214158120E+04  0.18214158120E+04  0.00000000000E+00 0.  1.
          1   -1    0    0  501    0  0.00000000000E+00 -0.00000000000E+00 -0.11686397559E+04  0.11686397559E+04  0.00000000000E+00 0. -1.
         23    2    1    2    0    0 -0.61191741387E+02 -0.47433949384E+02 -0.10495428804E+04  0.10562457137E+04  0.90112935840E+02 0.  0.
        254    2    1    2    0    0  0.61191741387E+02  0.47433949384E+02  0.17023189365E+04  0.19338098542E+04  0.91418618551E+03 0.  0.
         23    2    4    4    0    0  0.30255561490E+03  0.90095342723E+02  0.16303362305E+04  0.16631417872E+04  0.91582251059E+02 0.  0.
         23    2    4    4    0    0 -0.24136387351E+03 -0.42661393339E+02  0.71982706009E+02  0.27066806706E+03  0.89460486480E+02 0.  0.
          1    1    3    3  502    0 -0.82551563138E+02 -0.22260209916E+02 -0.72290541379E+03  0.72794403275E+03  0.00000000000E+00 0. -1.
         -1    1    3    3    0  502  0.21359821751E+02 -0.25173739468E+02 -0.32663746657E+03  0.32830168094E+03  0.00000000000E+00 0.  1.
         13    1    5    5    0    0  0.30223714223E+03  0.73008821386E+02  0.15183885243E+04  0.15498971865E+04  0.00000000000E+00 0. -1.
        -13    1    5    5    0    0  0.31847267550E+00  0.17086521337E+02  0.11194770628E+03  0.11324460065E+03  0.00000000000E+00 0.  1.
          2    1    6    6  503    0  0.39838752418E+01  0.78382124168E+01  0.85633011476E+01  0.12273506523E+02  0.00000000000E+00 0.  1.
         -2    1    6    6    0  503 -0.24534774876E+03 -0.50499605755E+02  0.63419404861E+02  0.25839456054E+03  0.00000000000E+00 0. -1.
<mgrwt>
<rscale>  0 0.29179300E+04</rscale>
<asrwt>0</asrwt>
<pdfrwt beam="1">  1        1 0.17979073E+00 0.29179300E+04</pdfrwt>
<pdfrwt beam="2">  1       -1 0.28021782E+00 0.29179300E+04</pdfrwt>
<totfact> 0.42840198E-01</totfact>
</mgrwt>
</event>
<event>
12    3  0.4806716E-008  0.1248979E+04  0.7818608E-02  0.9071033E-01
         -1   -1    0    0    0  501 -0.00000000000E+00  0.00000000000E+00  0.18850456561E+03  0.18850456561E+03  0.00000000000E+00 0.  1.
          1   -1    0    0  501    0  0.00000000000E+00 -0.00000000000E+00 -0.20688474278E+04  0.20688474278E+04  0.00000000000E+00 0. -1.
         23    2    1    2    0    0  0.24880680811E+03 -0.97850609459E+02 -0.34055287221E+03  0.44168255490E+03  0.87336424231E+02 0.  0.
        254    2    1    2    0    0 -0.24880680811E+03  0.97850609459E+02 -0.15397899900E+04  0.18156694385E+04  0.92424170386E+03 0.  0.
         23    2    4    4    0    0 -0.77517726931E+02 -0.37633569345E+02 -0.15717102941E+04  0.15767420510E+04  0.91744009121E+02 0.  0.
         23    2    4    4    0    0 -0.17128908118E+03  0.13548417880E+03  0.31920304152E+02  0.23892738750E+03  0.91495784827E+02 0.  0.
          4    1    3    3  502    0  0.25316954730E+03 -0.97743701043E+02 -0.34243247208E+03  0.43693094272E+03  0.00000000000E+00 0.  1.
         -4    1    3    3    0  502 -0.43627391832E+01 -0.10690841570E+00  0.18795998738E+01  0.47516121764E+01  0.00000000000E+00 0. -1.
         13    1    5    5    0    0 -0.76040736790E+02 -0.15420474217E+02 -0.14910105031E+04  0.14930278983E+04  0.00000000000E+00 0. -1.
        -13    1    5    5    0    0 -0.14769901405E+01 -0.22213095128E+02 -0.80699791013E+02  0.83714152714E+02  0.00000000000E+00 0.  1.
          1    1    6    6  503    0 -0.45881635383E+02  0.85153620375E+02  0.37349144015E+02  0.10368810003E+03  0.00000000000E+00 0. -1.
         -1    1    6    6    0  503 -0.12540744580E+03  0.50330558429E+02 -0.54288398631E+01  0.13523928747E+03  0.00000000000E+00 0.  1.
<mgrwt>
<rscale>  0 0.12489791E+04</rscale>
<asrwt>0</asrwt>
<pdfrwt beam="1">  1        1 0.31828422E+00 0.12489791E+04</pdfrwt>
<pdfrwt beam="2">  1       -1 0.29000703E-01 0.12489791E+04</pdfrwt>
<totfact> 0.28632282E+01</totfact>
</mgrwt>
</event>
<event>
12    3  0.4806716E-008  0.2329999E+04  0.7818608E-02  0.8466186E-01
          1   -1    0    0  501    0  0.00000000000E+00  0.00000000000E+00  0.31509839900E+04  0.31509839900E+04  0.00000000000E+00 0. -1.
         -1   -1    0    0    0  501 -0.00000000000E+00 -0.00000000000E+00 -0.43072998907E+03  0.43072998907E+03  0.00000000000E+00 0.  1.
         23    2    1    2    0    0 -0.25439590258E+03 -0.52393280180E+03  0.23894320876E+04  0.24611144566E+04  0.92064167892E+02 0.  0.
        254    2    1    2    0    0  0.25439590258E+03  0.52393280180E+03  0.33082191331E+03  0.11205995225E+04  0.89837480788E+03 0.  0.
         23    2    4    4    0    0  0.54232884647E+03  0.11434734706E+03  0.17112629964E+03  0.58692686035E+03  0.89459686327E+02 0.  0.
         23    2    4    4    0    0 -0.28793294390E+03  0.40958545473E+03  0.15969561367E+03  0.53367266214E+03  0.92941897864E+02 0.  0.
          3    1    3    3  502    0 -0.21288597329E+03 -0.47497602284E+03  0.20104764325E+04  0.20767614561E+04  0.00000000000E+00 0. -1.
         -3    1    3    3    0  502 -0.41509929286E+02 -0.48956778956E+02  0.37895565508E+03  0.38435300045E+03  0.00000000000E+00 0.  1.
         13    1    5    5    0    0  0.52004223513E+03  0.10098055029E+03  0.14317797177E+03  0.54876309047E+03  0.00000000000E+00 0.  1.
        -13    1    5    5    0    0  0.22286611338E+02  0.13366796774E+02  0.27948327872E+02  0.38163769884E+02  0.00000000000E+00 0. -1.
          3    1    6    6  503    0 -0.35145228732E+02  0.13784423522E+02  0.24339319229E+02  0.44917701354E+02  0.00000000000E+00 0. -1.
         -3    1    6    6    0  503 -0.25278771516E+03  0.39580103121E+03  0.13535629444E+03  0.48875496078E+03  0.00000000000E+00 0.  1.
<mgrwt>
<rscale>  0 0.23299985E+04</rscale>
<asrwt>0</asrwt>
<pdfrwt beam="1">  1        1 0.48476675E+00 0.23299985E+04</pdfrwt>
<pdfrwt beam="2">  1       -1 0.66266154E-01 0.23299985E+04</pdfrwt>
<totfact> 0.96307802E-01</totfact>
</mgrwt>
</event>
<event>
12    3  0.4806716E-008  0.1588899E+04  0.7818608E-02  0.8827397E-01
          1   -1    0    0  501    0  0.00000000000E+00  0.00000000000E+00  0.14191447143E+04  0.14191447143E+04  0.00000000000E+00 0. -1.
         -1   -1    0    0    0  501 -0.00000000000E+00 -0.00000000000E+00 -0.44473965183E+03  0.44473965183E+03  0.00000000000E+00 0.  1.
         23    2    1    2    0    0 -0.23152957108E+02 -0.23988695859E+03  0.80852956620E+03  0.84848792284E+03  0.90165866330E+02 0.  0.
        254    2    1    2    0    0  0.23152957108E+02  0.23988695859E+03  0.16587549625E+03  0.10153964433E+04  0.97233401897E+03 0.  0.
         23    2    4    4    0    0  0.43494462727E+03  0.12355128243E+03 -0.13893955315E+03  0.48177664826E+03  0.91448297958E+02 0.  0.
         23    2    4    4    0    0 -0.41179167016E+03  0.11633567616E+03  0.30481504941E+03  0.53361979502E+03  0.93442507115E+02 0.  0.
          1    1    3    3  502    0 -0.43877510668E+02 -0.19343416839E+03  0.54212550051E+03  0.57727122892E+03  0.00000000000E+00 0. -1.
         -1    1    3    3    0  502  0.20724553561E+02 -0.46452790198E+02  0.26640406570E+03  0.27121669391E+03  0.00000000000E+00 0.  1.
         13    1    5    5    0    0  0.22834207396E+03  0.82870437871E+02 -0.30192155642E+02  0.24478394244E+03  0.00000000000E+00 0.  1.
        -13    1    5    5    0    0  0.20660255331E+03  0.40680844560E+02 -0.10874739751E+03  0.23699270582E+03  0.00000000000E+00 0. -1.
          1    1    6    6  503    0 -0.60112060122E+02  0.20962288563E+02  0.91252481044E+02  0.11126496578E+03  0.00000000000E+00 0. -1.
         -1    1    6    6    0  503 -0.35167961004E+03  0.95373387593E+02  0.21356256836E+03  0.42235482924E+03  0.00000000000E+00 0.  1.
<mgrwt>
<rscale>  0 0.15888989E+04</rscale>
<asrwt>0</asrwt>
<pdfrwt beam="1">  1        1 0.21832995E+00 0.15888989E+04</pdfrwt>
<pdfrwt beam="2">  1       -1 0.68421486E-01 0.15888989E+04</pdfrwt>
<totfact> 0.15466340E+01</totfact>
</mgrwt>
</event>
<event>
12    3  0.4806716E-008  0.2535913E+04  0.7818608E-02  0.8390302E-01
          2   -1    0    0  501    0  0.00000000000E+00  0.00000000000E+00  0.34116598072E+04  0.34116598072E+04  0.00000000000E+00 0. -1.
         -2   -1    0    0    0  501 -0.00000000000E+00 -0.00000000000E+00 -0.47124088833E+03  0.47124088833E+03  0.00000000000E+00 0.  1.
         23    2    1    2    0    0  0.47601151110E+03  0.41010498316E+03  0.26694294916E+04  0.27438624793E+04  0.90301931829E+02 0.  0.
        254    2    1    2    0    0 -0.47601151110E+03 -0.41010498316E+03  0.27098942735E+03  0.11390382163E+04  0.91060404815E+03 0.  0.
         23    2    4    4    0    0 -0.35867123785E+03  0.14026877658E+03  0.39081188267E+03  0.55650049951E+03  0.92943487015E+02 0.  0.
         23    2    4    4    0    0 -0.11734027325E+03 -0.55037375973E+03 -0.11982245532E+03  0.58253771677E+03  0.91174313975E+02 0.  0.
          3    1    3    3  502    0  0.31696966893E+03  0.29696351541E+03  0.19963908715E+04  0.20430941272E+04  0.00000000000E+00 0. -1.
         -3    1    3    3    0  502  0.15904184217E+03  0.11314146775E+03  0.67303862002E+03  0.70076835211E+03  0.00000000000E+00 0.  1.
         13    1    5    5    0    0 -0.19374669017E+03  0.63764340979E+02  0.26930494904E+03  0.33782958235E+03  0.00000000000E+00 0.  1.
        -13    1    5    5    0    0 -0.16492454768E+03  0.76504435599E+02  0.12150693363E+03  0.21867091716E+03  0.00000000000E+00 0. -1.
          1    1    6    6  503    0 -0.18536843534E+02 -0.26558641643E+03 -0.29529105845E+02  0.26786512885E+03  0.00000000000E+00 0. -1.
         -1    1    6    6    0  503 -0.98803429715E+02 -0.28478734330E+03 -0.90293349475E+02  0.31467258792E+03  0.00000000000E+00 0.  1.
<mgrwt>
<rscale>  0 0.25359129E+04</rscale>
<asrwt>0</asrwt>
<pdfrwt beam="1">  1        2 0.52487072E+00 0.25359129E+04</pdfrwt>
<pdfrwt beam="2">  1       -2 0.72498600E-01 0.25359129E+04</pdfrwt>
<totfact> 0.14338774E+00</totfact>
</mgrwt>
</event>
<event>
12    3  0.4806716E-008  0.2001597E+04  0.7818608E-02  0.8605874E-01
         -1   -1    0    0    0  501 -0.00000000000E+00  0.00000000000E+00  0.11421604303E+04  0.11421604303E+04  0.00000000000E+00 0.  1.
          1   -1    0    0  501    0  0.00000000000E+00 -0.00000000000E+00 -0.87693238886E+03  0.87693238886E+03  0.00000000000E+00 0. -1.
         23    2    1    2    0    0  0.47983765146E+03 -0.62113380621E+03  0.22570541162E+03  0.82169352087E+03  0.90476142903E+02 0.  0.
        254    2    1    2    0    0 -0.47983765146E+03  0.62113380621E+03  0.39522629798E+02  0.11973992983E+04  0.90341112692E+03 0.  0.
         23    2    4    4    0    0 -0.70580915546E+03  0.49808422304E+03 -0.12535194527E+03  0.87770997854E+03  0.91690997792E+02 0.  0.
         23    2    4    4    0    0  0.22597150399E+03  0.12304958316E+03  0.16487457506E+03  0.31968931973E+03  0.93879258149E+02 0.  0.
          4    1    3    3  502    0  0.26682359211E+03 -0.35311642530E+03  0.17348504490E+03  0.47537679785E+03  0.00000000000E+00 0. -1.
         -4    1    3    3    0  502  0.21301405935E+03 -0.26801738090E+03  0.52220366720E+02  0.34631672303E+03  0.00000000000E+00 0.  1.
         13    1    5    5    0    0 -0.33109134872E+03  0.18609256134E+03 -0.78808245391E+02  0.38789516899E+03  0.00000000000E+00 0. -1.
        -13    1    5    5    0    0 -0.37471780673E+03  0.31199166170E+03 -0.46543699875E+02  0.48981480955E+03  0.00000000000E+00 0.  1.
          3    1    6    6  503    0  0.74430395375E+02  0.79565180418E+02  0.10420533594E+03  0.15076224238E+03  0.00000000000E+00 0. -1.
         -3    1    6    6    0  503  0.15154110862E+03  0.43484402744E+02  0.60669239128E+02  0.16892707734E+03  0.00000000000E+00 0.  1.
<mgrwt>
<rscale>  0 0.20015968E+04</rscale>
<asrwt>0</asrwt>
<pdfrwt beam="1">  1        1 0.13491267E+00 0.20015968E+04</pdfrwt>
<pdfrwt beam="2">  1       -1 0.17571699E+00 0.20015968E+04</pdfrwt>
<totfact> 0.39411721E+00</totfact>
</mgrwt>
</event>
<event>
12    3  0.4806716E-008  0.2131578E+04  0.7818608E-02  0.8547459E-01
          2   -1    0    0  501    0  0.00000000000E+00  0.00000000000E+00  0.69710326801E+03  0.69710326801E+03  0.00000000000E+00 0. -1.
         -2   -1    0    0    0  501 -0.00000000000E+00 -0.00000000000E+00 -0.16294662894E+04  0.16294662894E+04  0.00000000000E+00 0.  1.
         23    2    1    2    0    0 -0.56894307366E+03  0.58481439537E+03 -0.60081665825E+03  0.10171117449E+04  0.88496026769E+02 0.  0.
        254    2    1    2    0    0  0.56894307366E+03 -0.58481439537E+03 -0.33154636312E+03  0.13094578124E+04  0.96904730204E+03 0.  0.
         23    2    4    4    0    0  0.22839597207E+03 -0.56887545382E+03 -0.60228281862E+03  0.86422371105E+03  0.91400367128E+02 0.  0.
         23    2    4    4    0    0  0.34054710160E+03 -0.15938941551E+02  0.27073645550E+03  0.44523410140E+03  0.93320943250E+02 0.  0.
          1    1    3    3  502    0 -0.12931278458E+03  0.13495511222E+03 -0.93356291328E+02  0.20892600532E+03  0.00000000000E+00 0. -1.
         -1    1    3    3    0  502 -0.43963028908E+03  0.44985928315E+03 -0.50746036692E+03  0.80818573961E+03  0.00000000000E+00 0.  1.
         13    1    5    5    0    0  0.78525142365E+02 -0.11222922502E+03 -0.10446478640E+03  0.17226284721E+03  0.00000000000E+00 0. -1.
        -13    1    5    5    0    0  0.14987082970E+03 -0.45664622880E+03 -0.49781803222E+03  0.69196086383E+03  0.00000000000E+00 0.  1.
          4    1    6    6  503    0  0.62701640773E+02  0.32905067802E+02  0.64471976063E+02  0.95764685246E+02  0.00000000000E+00 0. -1.
         -4    1    6    6    0  503  0.27784546082E+03 -0.48844009353E+02  0.20626447944E+03  0.34946941616E+03  0.00000000000E+00 0.  1.
<mgrwt>
<rscale>  0 0.21315781E+04</rscale>
<asrwt>0</asrwt>
<pdfrwt beam="1">  1        2 0.10724666E+00 0.21315781E+04</pdfrwt>
<pdfrwt beam="2">  1       -2 0.25068712E+00 0.21315781E+04</pdfrwt>
<totfact> 0.24089027E+00</totfact>
</mgrwt>
</event>
<event>
12    3  0.4806716E-008  0.1186711E+04  0.7818608E-02  0.9124569E-01
         -2   -1    0    0    0  501 -0.00000000000E+00  0.00000000000E+00  0.15931138078E+03  0.15931138078E+03  0.00000000000E+00 0.  1.
          2   -1    0    0  501    0  0.00000000000E+00 -0.00000000000E+00 -0.22099522815E+04  0.22099522815E+04  0.00000000000E+00 0. -1.
         23    2    1    2    0    0 -0.20957905955E+03  0.86947765099E+02 -0.31443241811E+03  0.39851953880E+03  0.92015113896E+02 0.  0.
        254    2    1    2    0    0  0.20957905955E+03 -0.86947765099E+02 -0.17362084826E+04  0.19707441234E+04  0.90439438801E+03 0.  0.
         23    2    4    4    0    0 -0.10467622376E+03 -0.43365077510E+03 -0.81352937266E+03  0.93229250735E+03  0.91264300347E+02 0.  0.
         23    2    4    4    0    0  0.31425528331E+03  0.34670301000E+03 -0.92267910990E+03  0.10384516161E+04  0.89920291677E+02 0.  0.
          3    1    3    3  502    0 -0.19141323212E+03  0.49499767746E+02 -0.28758463567E+03  0.34899022208E+03  0.00000000000E+00 0. -1.
         -3    1    3    3    0  502 -0.18165827432E+02  0.37447997353E+02 -0.26847782446E+02  0.49529316716E+02  0.00000000000E+00 0.  1.
         13    1    5    5    0    0 -0.10243825231E+03 -0.23842909800E+03 -0.48792630307E+03  0.55264283904E+03  0.00000000000E+00 0. -1.
        -13    1    5    5    0    0 -0.22379714463E+01 -0.19522167710E+03 -0.32560306959E+03  0.37964966831E+03  0.00000000000E+00 0.  1.
          1    1    6    6  503    0  0.24985732523E+03  0.31058641397E+03 -0.72372288332E+03  0.82623690026E+03  0.00000000000E+00 0. -1.
         -1    1    6    6    0  503  0.64397958085E+02  0.36116596035E+02 -0.19895622658E+03  0.21221471582E+03  0.00000000000E+00 0.  1.
<mgrwt>
<rscale>  0 0.11867107E+04</rscale>
<asrwt>0</asrwt>
<pdfrwt beam="1">  1        2 0.33999263E+00 0.11867107E+04</pdfrwt>
<pdfrwt beam="2">  1       -2 0.24509445E-01 0.11867107E+04</pdfrwt>
<totfact> 0.75108298E+01</totfact>
</mgrwt>
</event>
<event>
12    3  0.4806716E-008  0.2181032E+04  0.7818608E-02  0.8526365E-01
          2   -1    0    0  501    0  0.00000000000E+00  0.00000000000E+00  0.16657393538E+04  0.16657393538E+04  0.00000000000E+00 0.  1.
         -2   -1    0    0    0  501 -0.00000000000E+00 -0.00000000000E+00 -0.71393209139E+03  0.71393209139E+03  0.00000000000E+00 0. -1.
         23    2    1    2    0    0 -0.46274880008E+02 -0.23565068834E+03  0.13459119213E+04  0.13702204644E+04  0.91392613777E+02 0.  0.
        254    2    1    2    0    0  0.46274880008E+02  0.23565068834E+03 -0.39410465885E+03  0.10094509808E+04  0.89777513277E+03 0.  0.
         23    2    4    4    0    0  0.45713015999E+03  0.59702360438E+02 -0.17662943517E+03  0.50436634213E+03  0.10322351813E+03 0.  0.
         23    2    4    4    0    0 -0.41085527998E+03  0.17594832790E+03 -0.21747522368E+03  0.50508463864E+03  0.89750454558E+02 0.  0.
          2    1    3    3  502    0  0.46210862721E+01 -0.23844768553E+01  0.18193455833E+03  0.18200885605E+03  0.00000000000E+00 0. -1.
         -2    1    3    3    0  502 -0.50895966280E+02 -0.23326621149E+03  0.11639773629E+04  0.11882116084E+04  0.00000000000E+00 0.  1.
         13    1    5    5    0    0  0.10584531047E+03 -0.97577203647E+01 -0.81262230410E+02  0.13379832938E+03  0.00000000000E+00 0.  1.
        -13    1    5    5    0    0  0.35128484952E+03  0.69460080802E+02 -0.95367204759E+02  0.37056801275E+03  0.00000000000E+00 0. -1.
          1    1    6    6  503    0 -0.26627261304E+03  0.11313631922E+03 -0.18712331897E+03  0.34455198111E+03  0.00000000000E+00 0. -1.
         -1    1    6    6    0  503 -0.14458266694E+03  0.62812008685E+02 -0.30351904708E+02  0.16053265753E+03  0.00000000000E+00 0.  1.
<mgrwt>
<rscale>  0 0.21810317E+04</rscale>
<asrwt>0</asrwt>
<pdfrwt beam="1">  1        2 0.25626759E+00 0.21810317E+04</pdfrwt>
<pdfrwt beam="2">  1       -2 0.10983571E+00 0.21810317E+04</pdfrwt>
<totfact> 0.61866069E+00</totfact>
</mgrwt>
</event>
<event>
12    3  0.4806716E-008  0.2677725E+04  0.7818608E-02  0.8342269E-01
         -2   -1    0    0    0  501 -0.00000000000E+00  0.00000000000E+00  0.11802110723E+04  0.11802110723E+04  0.00000000000E+00 0.  1.
          2   -1    0    0  501    0  0.00000000000E+00 -0.00000000000E+00 -0.15188409377E+04  0.15188409377E+04  0.00000000000E+00 0. -1.
         23    2    1    2    0    0 -0.10505369653E+04  0.54955626599E+03 -0.21927675847E+03  0.12089862069E+04  0.89024416674E+02 0.  0.
        254    2    1    2    0    0  0.10505369653E+04 -0.54955626599E+03 -0.11935310687E+03  0.14900658031E+04  0.89465687749E+03 0.  0.
         23    2    4    4    0    0  0.58254651909E+03 -0.75939916352E+03 -0.11998162700E+03  0.96889537217E+03  0.91187252077E+02 0.  0.
         23    2    4    4    0    0  0.46799044619E+03  0.20984289752E+03  0.62852012416E+00  0.52117043090E+03  0.92569561066E+02 0.  0.
          3    1    3    3  502    0 -0.34276834743E+03  0.16597182986E+03 -0.30083029991E+02  0.38202326762E+03  0.00000000000E+00 0. -1.
         -3    1    3    3    0  502 -0.70776861786E+03  0.38358443613E+03 -0.18919372848E+03  0.82696293929E+03  0.00000000000E+00 0.  1.
         13    1    5    5    0    0  0.54121306392E+03 -0.73433983704E+03 -0.12288728578E+03  0.92047154320E+03  0.00000000000E+00 0.  1.
        -13    1    5    5    0    0  0.41333455173E+02 -0.25059326476E+02  0.29056587815E+01  0.48423828978E+02  0.00000000000E+00 0. -1.
          1    1    6    6  503    0  0.66033952249E+02  0.14505754769E+01 -0.16505899796E+02  0.68081067463E+02  0.00000000000E+00 0. -1.
         -1    1    6    6    0  503  0.40195649395E+03  0.20839232205E+03  0.17134419921E+02  0.45308936344E+03  0.00000000000E+00 0.  1.
<mgrwt>
<rscale>  0 0.26777251E+04</rscale>
<asrwt>0</asrwt>
<pdfrwt beam="1">  1        2 0.23366784E+00 0.26777251E+04</pdfrwt>
<pdfrwt beam="2">  1       -2 0.18157093E+00 0.26777251E+04</pdfrwt>
<totfact> 0.19256693E+00</totfact>
</mgrwt>
</event>
<event>
12    3  0.4806716E-008  0.1936263E+04  0.7818608E-02  0.8637014E-01
         -1   -1    0    0    0  501 -0.00000000000E+00  0.00000000000E+00  0.15244887130E+04  0.15244887130E+04  0.00000000000E+00 0.  1.
          1   -1    0    0  501    0  0.00000000000E+00 -0.00000000000E+00 -0.61481480587E+03  0.61481480587E+03  0.00000000000E+00 0. -1.
         23    2    1    2    0    0 -0.35713873396E+02  0.45816396549E+03  0.10227883360E+04  0.11251130401E+04  0.92702064649E+02 0.  0.
        254    2    1    2    0    0  0.35713873396E+02 -0.45816396549E+03 -0.11311442884E+03  0.10141904788E+04  0.89699373084E+03 0.  0.
         23    2    4    4    0    0  0.12679491551E+03  0.20731898416E+03 -0.20371985772E+03  0.33024639186E+03  0.92210558591E+02 0.  0.
         23    2    4    4    0    0 -0.91081042116E+02 -0.66548294966E+03  0.90605428883E+02  0.68394408690E+03  0.91688918314E+02 0.  0.
          2    1    3    3  502    0 -0.22879897293E+02  0.19867355096E+03  0.33849291019E+03  0.39315660977E+03  0.00000000000E+00 0. -1.
         -2    1    3    3    0  502 -0.12833976103E+02  0.25949041453E+03  0.68429542576E+03  0.73195643033E+03  0.00000000000E+00 0.  1.
         13    1    5    5    0    0  0.49409673232E+02  0.17348004263E+02 -0.60781230069E+02  0.80228592095E+02  0.00000000000E+00 0. -1.
        -13    1    5    5    0    0  0.77385242280E+02  0.18997097990E+03 -0.14293862765E+03  0.25001779977E+03  0.00000000000E+00 0.  1.
          4    1    6    6  503    0 -0.48893568442E+02 -0.43669609035E+03  0.16318947474E+02  0.43972760251E+03  0.00000000000E+00 0.  1.
         -4    1    6    6    0  503 -0.42187473674E+02 -0.22878685930E+03  0.74286481409E+02  0.24421648438E+03  0.00000000000E+00 0. -1.
<mgrwt>
<rscale>  0 0.19362626E+04</rscale>
<asrwt>0</asrwt>
<pdfrwt beam="1">  1        1 0.94586894E-01 0.19362626E+04</pdfrwt>
<pdfrwt beam="2">  1       -1 0.23453672E+00 0.19362626E+04</pdfrwt>
<totfact> 0.27154906E+00</totfact>
</mgrwt>
</event>
<event>
12    3  0.4806716E-008  0.1608497E+04  0.7818608E-02  0.8815345E-01
          2   -1    0    0  501    0  0.00000000000E+00  0.00000000000E+00  0.32226791670E+04  0.32226791670E+04  0.00000000000E+00 0. -1.
         -2   -1    0    0    0  501 -0.00000000000E+00 -0.00000000000E+00 -0.20070738455E+03  0.20070738455E+03  0.00000000000E+00 0.  1.
         23    2    1    2    0    0  0.29752536175E+03  0.42876770355E+03  0.70325853971E+03  0.88040743396E+03  0.90452150861E+02 0.  0.
        254    2    1    2    0    0 -0.29752536175E+03 -0.42876770355E+03  0.23187132428E+04  0.25429791176E+04  0.90440511167E+03 0.  0.
         23    2    4    4    0    0 -0.48773260463E+03 -0.19605701871E+03  0.20833541963E+04  0.21506739586E+04  0.93339814584E+02 0.  0.
         23    2    4    4    0    0  0.19020724288E+03 -0.23271068484E+03  0.23535904650E+03  0.39230515900E+03  0.90423442355E+02 0.  0.
          1    1    3    3  502    0  0.10192439977E+02  0.51255293046E+01  0.45636897411E+02  0.47041293442E+02  0.00000000000E+00 0. -1.
         -1    1    3    3    0  502  0.28733292177E+03  0.42364217424E+03  0.65762164230E+03  0.83336614051E+03  0.00000000000E+00 0.  1.
         13    1    5    5    0    0 -0.15569607093E+03 -0.32687893450E+02  0.50232826597E+03  0.52691882835E+03  0.00000000000E+00 0. -1.
        -13    1    5    5    0    0 -0.33203653370E+03 -0.16336912526E+03  0.15810259303E+04  0.16237551303E+04  0.00000000000E+00 0.  1.
          3    1    6    6  503    0 -0.58557148276E+00 -0.39093096340E+02  0.13271038868E+02  0.41288419055E+02  0.00000000000E+00 0. -1.
         -3    1    6    6    0  503  0.19079281437E+03 -0.19361758850E+03  0.22208800763E+03  0.35101673995E+03  0.00000000000E+00 0.  1.
<mgrwt>
<rscale>  0 0.16084968E+04</rscale>
<asrwt>0</asrwt>
<pdfrwt beam="1">  1        2 0.49579676E+00 0.16084968E+04</pdfrwt>
<pdfrwt beam="2">  1       -2 0.30878061E-01 0.16084968E+04</pdfrwt>
<totfact> 0.11763398E+01</totfact>
</mgrwt>
</event>
<event>
12    3  0.4806716E-008  0.3690119E+04  0.7818608E-02  0.8070155E-01
         -2   -1    0    0    0  501 -0.00000000000E+00  0.00000000000E+00  0.97341543102E+03  0.97341543102E+03  0.00000000000E+00 0.  1.
          2   -1    0    0  501    0  0.00000000000E+00 -0.00000000000E+00 -0.34972173742E+04  0.34972173742E+04  0.00000000000E+00 0. -1.
         23    2    1    2    0    0 -0.15664260536E+03 -0.65473254026E+03 -0.31182416059E+04  0.31914513769E+04  0.93378655413E+02 0.  0.
        254    2    1    2    0    0  0.15664260536E+03  0.65473254026E+03  0.59443966278E+03  0.12791814283E+04  0.91089791339E+03 0.  0.
         23    2    4    4    0    0  0.23939972545E+02 -0.18037926387E+03  0.33043256609E+03  0.38855189866E+03  0.93150931829E+02 0.  0.
         23    2    4    4    0    0  0.13270263281E+03  0.83511180413E+03  0.26400709669E+03  0.89062952960E+03  0.92192720658E+02 0.  0.
          2    1    3    3  502    0 -0.76452909719E+01 -0.20727703796E+01 -0.76652313170E+02  0.77060521445E+02  0.00000000000E+00 0.  1.
         -2    1    3    3    0  502 -0.14899731438E+03 -0.65265976988E+03 -0.30415892927E+04  0.31143908555E+04  0.00000000000E+00 0. -1.
         13    1    5    5    0    0  0.18210732781E+02 -0.19095474965E+03  0.31702142663E+03  0.37053735594E+03  0.00000000000E+00 0. -1.
        -13    1    5    5    0    0  0.57292397643E+01  0.10575485785E+02  0.13411139461E+02  0.18014542722E+02  0.00000000000E+00 0.  1.
          1    1    6    6  503    0  0.87769477907E+02  0.49466325096E+03  0.11007956976E+03  0.51430800575E+03  0.00000000000E+00 0. -1.
         -1    1    6    6    0  503  0.44933154904E+02  0.34044855317E+03  0.15392752693E+03  0.37632152385E+03  0.00000000000E+00 0.  1.
<mgrwt>
<rscale>  0 0.36901194E+04</rscale>
<asrwt>0</asrwt>
<pdfrwt beam="1">  1        2 0.53803343E+00 0.36901194E+04</pdfrwt>
<pdfrwt beam="2">  1       -2 0.14975622E+00 0.36901194E+04</pdfrwt>
<totfact> 0.19847190E-01</totfact>
</mgrwt>
</event>
<event>
12    3  0.4806716E-008  0.1602587E+04  0.7818608E-02  0.8818960E-01
         -2   -1    0    0    0  501 -0.00000000000E+00  0.00000000000E+00  0.29727385612E+03  0.29727385612E+03  0.00000000000E+00 0. -1.
          2   -1    0    0  501    0  0.00000000000E+00 -0.00000000000E+00 -0.21598655228E+04  0.21598655228E+04  0.00000000000E+00 0.  1.
         23    2    1    2    0    0 -0.32502500784E+03  0.33748375470E+03 -0.19442393488E+03  0.51498823439E+03  0.88744998096E+02 0.  0.
        254    2    1    2    0    0  0.32502500784E+03 -0.33748375470E+03 -0.16681677318E+04  0.19421511446E+04  0.87728612573E+03 0.  0.
         23    2    4    4    0    0 -0.27787224253E+03 -0.22841038591E+03 -0.54080455664E+03  0.65583816371E+03  0.90938665763E+02 0.  0.
         23    2    4    4    0    0  0.60289725037E+03 -0.10907336880E+03 -0.11273631752E+04  0.12863129809E+04  0.90946476914E+02 0.  0.
          1    1    3    3  502    0 -0.22976295713E+03  0.28044932417E+03 -0.12245159077E+03  0.38267117996E+03  0.00000000000E+00 0. -1.
         -1    1    3    3    0  502 -0.95262050716E+02  0.57034430540E+02 -0.71972344117E+02  0.13231705442E+03  0.00000000000E+00 0.  1.
         13    1    5    5    0    0 -0.21010429433E+03 -0.15727459360E+03 -0.45561933851E+03  0.52580233350E+03  0.00000000000E+00 0.  1.
        -13    1    5    5    0    0 -0.67767948196E+02 -0.71135792301E+02 -0.85185218133E+02  0.13003583021E+03  0.00000000000E+00 0. -1.
          4    1    6    6  503    0  0.40297548421E+03 -0.10674018118E+03 -0.70524982053E+03  0.81924356360E+03  0.00000000000E+00 0.  1.
         -4    1    6    6    0  503  0.19992176617E+03 -0.23331876195E+01 -0.42211335468E+03  0.46706941727E+03  0.00000000000E+00 0. -1.
<mgrwt>
<rscale>  0 0.16025873E+04</rscale>
<asrwt>0</asrwt>
<pdfrwt beam="1">  1        2 0.33228699E+00 0.16025873E+04</pdfrwt>
<pdfrwt beam="2">  1       -2 0.45734441E-01 0.16025873E+04</pdfrwt>
<totfact> 0.23656277E+01</totfact>
</mgrwt>
</event>
<event>
12    3  0.4806716E-008  0.2518335E+04  0.7818608E-02  0.8396482E-01
         -1   -1    0    0    0  501 -0.00000000000E+00  0.00000000000E+00  0.19192011407E+04  0.19192011407E+04  0.00000000000E+00 0.  1.
          1   -1    0    0  501    0  0.00000000000E+00 -0.00000000000E+00 -0.82612662164E+03  0.82612662164E+03  0.00000000000E+00 0. -1.
         23    2    1    2    0    0 -0.15630842474E+03  0.27827737000E+03 -0.67058764248E+03  0.74854491737E+03  0.93600687931E+02 0.  0.
        254    2    1    2    0    0  0.15630842474E+03 -0.27827737000E+03  0.17636621615E+04  0.19967828450E+04  0.88020843648E+03 0.  0.
         23    2    4    4    0    0  0.47700241411E+03 -0.63561925793E+02  0.64645563214E+03  0.81108072755E+03  0.91518527031E+02 0.  0.
         23    2    4    4    0    0 -0.32069398938E+03 -0.21471544421E+03  0.11172065294E+04  0.11857021174E+04  0.93764199682E+02 0.  0.
          2    1    3    3  502    0 -0.12320035819E+03  0.21814457501E+03 -0.59940828965E+03  0.64965812669E+03  0.00000000000E+00 0. -1.
         -2    1    3    3    0  502 -0.33108066545E+02  0.60132794987E+02 -0.71179352825E+02  0.98886790685E+02  0.00000000000E+00 0.  1.
         13    1    5    5    0    0  0.14301202544E+03  0.15076834672E+02  0.15212746023E+03  0.20933827773E+03  0.00000000000E+00 0. -1.
        -13    1    5    5    0    0  0.33399038867E+03 -0.78638760465E+02  0.49432817191E+03  0.60174244982E+03  0.00000000000E+00 0.  1.
          1    1    6    6  503    0 -0.11555078945E+03 -0.12978693578E+03  0.44224208589E+03  0.47515754879E+03  0.00000000000E+00 0. -1.
         -1    1    6    6    0  503 -0.20514319993E+03 -0.84928508433E+02  0.67496444350E+03  0.71054456863E+03  0.00000000000E+00 0.  1.
<mgrwt>
<rscale>  0 0.25183353E+04</rscale>
<asrwt>0</asrwt>
<pdfrwt beam="1">  1        1 0.12709640E+00 0.25183353E+04</pdfrwt>
<pdfrwt beam="2">  1       -1 0.29526171E+00 0.25183353E+04</pdfrwt>
<totfact> 0.65988917E-01</totfact>
</mgrwt>
</event>
<event>
12    3  0.4806716E-008  0.1701834E+04  0.7818608E-02  0.8760319E-01
         -2   -1    0    0    0  501 -0.00000000000E+00  0.00000000000E+00  0.22425926758E+04  0.22425926758E+04  0.00000000000E+00 0. -1.
          2   -1    0    0  501    0  0.00000000000E+00 -0.00000000000E+00 -0.32286743611E+03  0.32286743611E+03  0.00000000000E+00 0.  1.
         23    2    1    2    0    0  0.63874765329E+02  0.51468575138E+03  0.21890138061E+03  0.57076024252E+03  0.94170227210E+02 0.  0.
        254    2    1    2    0    0 -0.63874765329E+02 -0.51468575138E+03  0.17008238591E+04  0.19946998694E+04  0.90390506194E+03 0.  0.
         23    2    4    4    0    0  0.21827591749E+03  0.26871154381E+02  0.11266527260E+04  0.11514833014E+04  0.90559335883E+02 0.  0.
         23    2    4    4    0    0 -0.28215068282E+03 -0.54155690576E+03  0.57417113304E+03  0.84321656794E+03  0.91917356609E+02 0.  0.
          2    1    3    3  502    0  0.22107363756E+02  0.22088211558E+03  0.14431659013E+03  0.26477334213E+03  0.00000000000E+00 0. -1.
         -2    1    3    3    0  502  0.41767401572E+02  0.29380363579E+03  0.74584790487E+02  0.30598690039E+03  0.00000000000E+00 0.  1.
         13    1    5    5    0    0  0.15495731286E+03  0.55474359533E+02  0.87862725637E+03  0.89390996695E+03  0.00000000000E+00 0. -1.
        -13    1    5    5    0    0  0.63318604634E+02 -0.28603205152E+02  0.24802546965E+03  0.25757333447E+03  0.00000000000E+00 0.  1.
          2    1    6    6  503    0 -0.27919872219E+03 -0.51958450115E+03  0.52651770590E+03  0.79065850716E+03  0.00000000000E+00 0. -1.
         -2    1    6    6    0  503 -0.29519606354E+01 -0.21972404603E+02  0.47653427137E+02  0.52558060785E+02  0.00000000000E+00 0.  1.
<mgrwt>
<rscale>  0 0.17018345E+04</rscale>
<asrwt>0</asrwt>
<pdfrwt beam="1">  1        2 0.49671915E-01 0.17018345E+04</pdfrwt>
<pdfrwt beam="2">  1       -2 0.34501425E+00 0.17018345E+04</pdfrwt>
<totfact> 0.16164996E+00</totfact>
</mgrwt>
</event>
<event>
12    3  0.4806716E-008  0.3138378E+04  0.7818608E-02  0.8205284E-01
          1   -1    0    0  501    0  0.00000000000E+00  0.00000000000E+00  0.30884600093E+04  0.30884600093E+04  0.00000000000E+00 0. -1.
         -1   -1    0    0    0  501 -0.00000000000E+00 -0.00000000000E+00 -0.79727563263E+03  0.79727563263E+03  0.00000000000E+00 0.  1.
         23    2    1    2    0    0  0.97472550940E+03 -0.81545867979E+03  0.18478337959E+04  0.22444761300E+04  0.90114834602E+02 0.  0.
        254    2    1    2    0    0 -0.97472550940E+03  0.81545867979E+03  0.44335058074E+03  0.16412595120E+04  0.93920730998E+03 0.  0.
         23    2    4    4    0    0 -0.11180324466E+04  0.83453098114E+03  0.33686408377E+03  0.14381252998E+04  0.91040962718E+02 0.  0.
         23    2    4    4    0    0  0.14330693717E+03 -0.19072301352E+02  0.10648649697E+03  0.20313421220E+03  0.94992121821E+02 0.  0.
          3    1    3    3  502    0  0.93513786811E+03 -0.78208877716E+03  0.18001091929E+04  0.21740604394E+04  0.00000000000E+00 0. -1.
         -3    1    3    3    0  502  0.39587641290E+02 -0.33369902625E+02  0.47724603071E+02  0.70415690598E+02  0.00000000000E+00 0.  1.
         13    1    5    5    0    0 -0.10877905641E+04  0.79160252874E+03  0.32953505731E+03  0.13851051328E+04  0.00000000000E+00 0. -1.
        -13    1    5    5    0    0 -0.30241882459E+02  0.42928452398E+02  0.73290264614E+01  0.53020167001E+02  0.00000000000E+00 0.  1.
          3    1    6    6  503    0  0.13934291191E+03 -0.35803746245E+02  0.64312090370E+02  0.15758934073E+03  0.00000000000E+00 0. -1.
         -3    1    6    6    0  503  0.39640252573E+01  0.16731444893E+02  0.42174406601E+02  0.45544871463E+02  0.00000000000E+00 0.  1.
<mgrwt>
<rscale>  0 0.31383779E+04</rscale>
<asrwt>0</asrwt>
<pdfrwt beam="1">  1        1 0.47514769E+00 0.31383779E+04</pdfrwt>
<pdfrwt beam="2">  1       -1 0.12265779E+00 0.31383779E+04</pdfrwt>
<totfact> 0.25367449E-01</totfact>
</mgrwt>
</event>
<event>
12    3  0.4806716E-008  0.2147016E+04  0.7818608E-02  0.8540811E-01
          2   -1    0    0  501    0  0.00000000000E+00  0.00000000000E+00  0.28048232120E+04  0.28048232120E+04  0.00000000000E+00 0. -1.
         -2   -1    0    0    0  501 -0.00000000000E+00 -0.00000000000E+00 -0.41087051870E+03  0.41087051870E+03  0.00000000000E+00 0.  1.
         23    2    1    2    0    0 -0.22696185959E+03  0.49844792405E+02  0.22467592475E+04  0.22606326984E+04  0.92395302108E+02 0.  0.
        254    2    1    2    0    0  0.22696185959E+03 -0.49844792405E+02  0.14719344581E+03  0.95506103231E+03  0.91459251905E+03 0.  0.
         23    2    4    4    0    0  0.28199449780E+03  0.10360092208E+03 -0.32230088645E+03  0.44974156220E+03  0.90197358721E+02 0.  0.
         23    2    4    4    0    0 -0.55032638214E+02 -0.15344571449E+03  0.46949433226E+03  0.50531947010E+03  0.91371003500E+02 0.  0.
          3    1    3    3  502    0 -0.18388554610E+03  0.21939158698E+00  0.17141133770E+04  0.17239485524E+04  0.00000000000E+00 0. -1.
         -3    1    3    3    0  502 -0.43076313483E+02  0.49625400818E+02  0.53264587058E+03  0.53668414606E+03  0.00000000000E+00 0.  1.
         13    1    5    5    0    0  0.15754987621E+03  0.15858033315E+02 -0.19556103024E+03  0.25162980202E+03  0.00000000000E+00 0. -1.
        -13    1    5    5    0    0  0.12444462159E+03  0.87742888764E+02 -0.12673985621E+03  0.19811176018E+03  0.00000000000E+00 0.  1.
          4    1    6    6  503    0 -0.17899212250E+02  0.56361092879E+01  0.93603639241E+02  0.95466165767E+02  0.00000000000E+00 0. -1.
         -4    1    6    6    0  503 -0.37133425964E+02 -0.15908182377E+03  0.37589069302E+03  0.40985330434E+03  0.00000000000E+00 0.  1.
<mgrwt>
<rscale>  0 0.21470158E+04</rscale>
<asrwt>0</asrwt>
<pdfrwt beam="1">  1        2 0.43151125E+00 0.21470158E+04</pdfrwt>
<pdfrwt beam="2">  1       -2 0.63210851E-01 0.21470158E+04</pdfrwt>
<totfact> 0.48918542E+00</totfact>
</mgrwt>
</event>
<event>
12    3  0.4806716E-008  0.2247755E+04  0.7818608E-02  0.8498810E-01
          2   -1    0    0  501    0  0.00000000000E+00  0.00000000000E+00  0.23993049176E+04  0.23993049176E+04  0.00000000000E+00 0.  1.
         -2   -1    0    0    0  501 -0.00000000000E+00 -0.00000000000E+00 -0.52644434453E+03  0.52644434453E+03  0.00000000000E+00 0. -1.
         23    2    1    2    0    0 -0.51281453238E+03 -0.58766498514E+03  0.99573153709E+02  0.79184529665E+03  0.93676472511E+02 0.  0.
        254    2    1    2    0    0  0.51281453238E+03  0.58766498514E+03  0.17732874194E+04  0.21339039655E+04  0.89480108564E+03 0.  0.
         23    2    4    4    0    0 -0.66833967108E+02  0.22486009055E+03  0.22422572198E+02  0.25194506678E+03  0.89133077176E+02 0.  0.
         23    2    4    4    0    0  0.57964849949E+03  0.36280489459E+03  0.17508648472E+04  0.18819588987E+04  0.92853696054E+02 0.  0.
          2    1    3    3  502    0 -0.28066031200E+03 -0.38350408034E+03  0.39166656298E+02  0.47684338869E+03  0.00000000000E+00 0. -1.
         -2    1    3    3    0  502 -0.23215422038E+03 -0.20416090480E+03  0.60406497412E+02  0.31500190796E+03  0.00000000000E+00 0.  1.
         13    1    5    5    0    0 -0.86196219197E+02  0.14873922270E+03  0.22679661820E+02  0.17339986053E+03  0.00000000000E+00 0.  1.
        -13    1    5    5    0    0  0.19362252089E+02  0.76120867857E+02 -0.25708962149E+00  0.78545206246E+02  0.00000000000E+00 0. -1.
          2    1    6    6  503    0  0.12699700022E+03  0.42521455420E+02  0.39509892998E+03  0.41718038869E+03  0.00000000000E+00 0. -1.
         -2    1    6    6    0  503  0.45265149927E+03  0.32028343917E+03  0.13557659172E+04  0.14647785100E+04  0.00000000000E+00 0.  1.
<mgrwt>
<rscale>  0 0.22477549E+04</rscale>
<asrwt>0</asrwt>
<pdfrwt beam="1">  1        2 0.36912383E+00 0.22477549E+04</pdfrwt>
<pdfrwt beam="2">  1       -2 0.80991439E-01 0.22477549E+04</pdfrwt>
<totfact> 0.48705670E+00</totfact>
</mgrwt>
</event>
<event>
12    3  0.4806716E-008  0.2796070E+04  0.7818608E-02  0.8304489E-01
         -1   -1    0    0    0  501 -0.00000000000E+00  0.00000000000E+00  0.20714896633E+04  0.20714896633E+04  0.00000000000E+00 0.  1.
          1   -1    0    0  501    0  0.00000000000E+00 -0.00000000000E+00 -0.94352511624E+03  0.94352511624E+03  0.00000000000E+00 0. -1.
         23    2    1    2    0    0 -0.84110198176E+03 -0.18420406796E+03 -0.47333444043E+03  0.98660083942E+03  0.89174219742E+02 0.  0.
        254    2    1    2    0    0  0.84110198176E+03  0.18420406796E+03  0.16012989875E+04  0.20284139401E+04  0.89940034621E+03 0.  0.
         23    2    4    4    0    0  0.46612955499E+03 -0.26853371478E+03  0.36761632134E+03  0.65900818636E+03  0.98807448968E+02 0.  0.
         23    2    4    4    0    0  0.37497242677E+03  0.45273778274E+03  0.12336826662E+04  0.13694057538E+04  0.87882745198E+02 0.  0.
          3    1    3    3  502    0 -0.80637177680E+03 -0.19420040796E+03 -0.45612484820E+03  0.94657229942E+03  0.00000000000E+00 0. -1.
         -3    1    3    3    0  502 -0.34730204956E+02  0.99963400031E+01 -0.17209592233E+02  0.40028540000E+02  0.00000000000E+00 0.  1.
         13    1    5    5    0    0  0.19693241652E+03 -0.16372568054E+03  0.20067613250E+03  0.32536039295E+03  0.00000000000E+00 0. -1.
        -13    1    5    5    0    0  0.26919713847E+03 -0.10480803424E+03  0.16694018884E+03  0.33364779342E+03  0.00000000000E+00 0.  1.
          3    1    6    6  503    0  0.56182527415E+02  0.12362504095E+03  0.26131779437E+03  0.29449383150E+03  0.00000000000E+00 0.  1.
         -3    1    6    6    0  503  0.31878989935E+03  0.32911274179E+03  0.97236487180E+03  0.10749119223E+04  0.00000000000E+00 0. -1.
<mgrwt>
<rscale>  0 0.27960705E+04</rscale>
<asrwt>0</asrwt>
<pdfrwt beam="1">  1        1 0.14515771E+00 0.27960705E+04</pdfrwt>
<pdfrwt beam="2">  1       -1 0.31869072E+00 0.27960705E+04</pdfrwt>
<totfact> 0.36258262E-01</totfact>
</mgrwt>
</event>
<event>
12    3  0.4806716E-008  0.1336166E+04  0.7818608E-02  0.9001367E-01
         -2   -1    0    0    0  501 -0.00000000000E+00  0.00000000000E+00  0.43088522364E+03  0.43088522364E+03  0.00000000000E+00 0.  1.
          2   -1    0    0  501    0  0.00000000000E+00 -0.00000000000E+00 -0.10358555550E+04  0.10358555550E+04  0.00000000000E+00 0. -1.
         23    2    1    2    0    0 -0.10245328115E+03 -0.15873663517E+03  0.16318210560E+03  0.26526960282E+03  0.89697092640E+02 0.  0.
        254    2    1    2    0    0  0.10245328115E+03  0.15873663517E+03 -0.76815243692E+03  0.12014711758E+04  0.90431234965E+03 0.  0.
         23    2    4    4    0    0 -0.85662426837E+02  0.31675267781E+03 -0.85972674136E+03  0.92481175369E+03  0.92067364865E+02 0.  0.
         23    2    4    4    0    0  0.18811570799E+03 -0.15801604265E+03  0.91574304437E+02  0.27665942210E+03  0.88306247101E+02 0.  0.
          1    1    3    3  502    0 -0.37303282100E+02 -0.11659527018E+03  0.13617855405E+03  0.18311359990E+03  0.00000000000E+00 0. -1.
         -1    1    3    3    0  502 -0.65149999054E+02 -0.42141364988E+02  0.27003551548E+02  0.82156002921E+02  0.00000000000E+00 0.  1.
         13    1    5    5    0    0  0.12938933378E+02  0.85722480600E+02 -0.27703597864E+03  0.29028381480E+03  0.00000000000E+00 0. -1.
        -13    1    5    5    0    0 -0.98601360215E+02  0.23103019721E+03 -0.58269076272E+03  0.63452793888E+03  0.00000000000E+00 0.  1.
          2    1    6    6  503    0 -0.37922549345E+01 -0.29783065305E+02  0.68713332826E+01  0.30799795413E+02  0.00000000000E+00 0. -1.
         -2    1    6    6    0  503  0.19190796293E+03 -0.12823297734E+03  0.84702971154E+02  0.24585962669E+03  0.00000000000E+00 0.  1.
<mgrwt>
<rscale>  0 0.13361659E+04</rscale>
<asrwt>0</asrwt>
<pdfrwt beam="1">  1        2 0.15936239E+00 0.13361659E+04</pdfrwt>
<pdfrwt beam="2">  1       -2 0.66290036E-01 0.13361659E+04</pdfrwt>
<totfact> 0.48896203E+01</totfact>
</mgrwt>
</event>
<event>
12    3  0.4806716E-008  0.4307756E+04  0.7818608E-02  0.7945185E-01
          2   -1    0    0  501    0  0.00000000000E+00  0.00000000000E+00  0.17731296563E+04  0.17731296563E+04  0.00000000000E+00 0. -1.
         -2   -1    0    0    0  501 -0.00000000000E+00 -0.00000000000E+00 -0.26163857081E+04  0.26163857081E+04  0.00000000000E+00 0.  1.
         23    2    1    2    0    0  0.33073821707E+02 -0.44102869891E+03 -0.24517333381E+04  0.24929355915E+04  0.90173785163E+02 0.  0.
        254    2    1    2    0    0 -0.33073821707E+02  0.44102869891E+03  0.16084772863E+04  0.18965797729E+04  0.90233888512E+03 0.  0.
         23    2    4    4    0    0  0.64337428916E+02  0.28940940452E+03  0.16596115680E+04  0.16883684795E+04  0.91544840312E+02 0.  0.
         23    2    4    4    0    0 -0.97411250623E+02  0.15161929440E+03 -0.51134281729E+02  0.20821129339E+03  0.90883803538E+02 0.  0.
          4    1    3    3  502    0  0.17170287572E+02 -0.34221925358E+02 -0.35377646437E+03  0.35584230453E+03  0.00000000000E+00 0. -1.
         -4    1    3    3    0  502  0.15903534135E+02 -0.40680677356E+03 -0.20979568737E+04  0.21370932870E+04  0.00000000000E+00 0.  1.
         13    1    5    5    0    0 -0.13262216988E+02  0.15056115692E+03  0.78939244805E+03  0.80373191141E+03  0.00000000000E+00 0.  1.
        -13    1    5    5    0    0  0.77599645904E+02  0.13884824760E+03  0.87021911998E+03  0.88463656814E+03  0.00000000000E+00 0. -1.
          3    1    6    6  503    0 -0.10100589152E+03  0.12717687827E+03 -0.13201975604E+02  0.16294305952E+03  0.00000000000E+00 0. -1.
         -3    1    6    6    0  503  0.35946408922E+01  0.24442416127E+02 -0.37932306126E+02  0.45268233865E+02  0.00000000000E+00 0.  1.
<mgrwt>
<rscale>  0 0.43077563E+04</rscale>
<asrwt>0</asrwt>
<pdfrwt beam="1">  1        2 0.27278918E+00 0.43077563E+04</pdfrwt>
<pdfrwt beam="2">  1       -2 0.40252088E+00 0.43077563E+04</pdfrwt>
<totfact> 0.49102389E-02</totfact>
</mgrwt>
</event>
<event>
12    3  0.4806716E-008  0.1138588E+04  0.7818608E-02  0.9168377E-01
          2   -1    0    0  501    0  0.00000000000E+00  0.00000000000E+00  0.34934028839E+04  0.34934028839E+04  0.00000000000E+00 0. -1.
         -2   -1    0    0    0  501 -0.00000000000E+00 -0.00000000000E+00 -0.92773604666E+02  0.92773604666E+02  0.00000000000E+00 0.  1.
         23    2    1    2    0    0  0.76115980914E+02 -0.75682078922E+02  0.10933652483E+03  0.17889367602E+03  0.92342038310E+02 0.  0.
        254    2    1    2    0    0 -0.76115980914E+02  0.75682078922E+02  0.32912927544E+04  0.34072828125E+04  0.87489813682E+03 0.  0.
         23    2    4    4    0    0  0.13524638069E+01 -0.17735829746E+01 -0.20144541190E+02  0.92785007266E+02  0.90544355311E+02 0.  0.
         23    2    4    4    0    0 -0.77468444721E+02  0.77455661896E+02  0.33114372956E+04  0.33144978052E+04  0.90983509681E+02 0.  0.
          1    1    3    3  502    0 -0.53135334969E-01 -0.30562023271E+01  0.64375936762E+02  0.64448463364E+02  0.00000000000E+00 0. -1.
         -1    1    3    3    0  502  0.76169116249E+02 -0.72625876595E+02  0.44960588065E+02  0.11444521266E+03  0.00000000000E+00 0.  1.
         13    1    5    5    0    0 -0.38661948170E+02  0.18716408610E+02  0.13066110892E+01  0.42973915579E+02  0.00000000000E+00 0. -1.
        -13    1    5    5    0    0  0.40014411977E+02 -0.20489991585E+02 -0.21451152279E+02  0.49811091688E+02  0.00000000000E+00 0.  1.
          3    1    6    6  503    0 -0.16799472838E+02  0.11282628094E+02  0.19494129802E+04  0.19495180141E+04  0.00000000000E+00 0. -1.
         -3    1    6    6    0  503 -0.60668971883E+02  0.66173033802E+02  0.13620243154E+04  0.13649797911E+04  0.00000000000E+00 0.  1.
<mgrwt>
<rscale>  0 0.11385879E+04</rscale>
<asrwt>0</asrwt>
<pdfrwt beam="1">  1        2 0.53744650E+00 0.11385879E+04</pdfrwt>
<pdfrwt beam="2">  1       -2 0.14272865E-01 0.11385879E+04</pdfrwt>
<totfact> 0.32004236E+01</totfact>
</mgrwt>
</event>
<event>
12    3  0.4806716E-008  0.2005886E+04  0.7818608E-02  0.8603873E-01
         -1   -1    0    0    0  501 -0.00000000000E+00  0.00000000000E+00  0.15803171142E+04  0.15803171142E+04  0.00000000000E+00 0.  1.
          1   -1    0    0  501    0  0.00000000000E+00 -0.00000000000E+00 -0.63651474062E+03  0.63651474062E+03  0.00000000000E+00 0. -1.
         23    2    1    2    0    0  0.51009103359E+03  0.48261219293E+03 -0.43932167619E+02  0.70905458556E+03  0.87869099423E+02 0.  0.
        254    2    1    2    0    0 -0.51009103359E+03 -0.48261219293E+03  0.98773454121E+03  0.15077772693E+04  0.89703142560E+03 0.  0.
         23    2    4    4    0    0 -0.61502581943E+03 -0.22949011914E+03  0.10210726036E+04  0.12171459129E+04  0.89064236069E+02 0.  0.
         23    2    4    4    0    0  0.10493478584E+03 -0.25312207379E+03 -0.33338062346E+02  0.29063135640E+03  0.90956392851E+02 0.  0.
          2    1    3    3  502    0  0.38646894908E+03  0.31270724784E+03 -0.42257710391E+02  0.49892863773E+03  0.00000000000E+00 0. -1.
         -2    1    3    3    0  502  0.12362208451E+03  0.16990494509E+03 -0.16744572276E+01  0.21012594783E+03  0.00000000000E+00 0.  1.
         13    1    5    5    0    0 -0.47234591418E+03 -0.15773916834E+03  0.83202687288E+03  0.96967057554E+03  0.00000000000E+00 0. -1.
        -13    1    5    5    0    0 -0.14267990524E+03 -0.71750950802E+02  0.18904573067E+03  0.24747533733E+03  0.00000000000E+00 0.  1.
          4    1    6    6  503    0  0.10598757861E+03 -0.25576285939E+03 -0.43346878640E+02  0.28022662070E+03  0.00000000000E+00 0. -1.
         -4    1    6    6    0  503 -0.10527927674E+01  0.26407856022E+01  0.10008816294E+02  0.10404735691E+02  0.00000000000E+00 0.  1.
<mgrwt>
<rscale>  0 0.20058865E+04</rscale>
<asrwt>0</asrwt>
<pdfrwt beam="1">  1        1 0.97925346E-01 0.20058865E+04</pdfrwt>
<pdfrwt beam="2">  1       -1 0.24312571E+00 0.20058865E+04</pdfrwt>
<totfact> 0.22524042E+00</totfact>
</mgrwt>
</event>
<event>
12    3  0.4806716E-008  0.1842794E+04  0.7818608E-02  0.8683868E-01
          1   -1    0    0  501    0  0.00000000000E+00  0.00000000000E+00  0.16267906637E+04  0.16267906637E+04  0.00000000000E+00 0. -1.
         -1   -1    0    0    0  501 -0.00000000000E+00 -0.00000000000E+00 -0.52186924958E+03  0.52186924958E+03  0.00000000000E+00 0.  1.
         23    2    1    2    0    0 -0.49841761845E+03 -0.25562225133E+03  0.91435528121E+03  0.10761523813E+04  0.91079689157E+02 0.  0.
        254    2    1    2    0    0  0.49841761845E+03  0.25562225133E+03  0.19056613296E+03  0.10725075320E+04  0.89453568818E+03 0.  0.
         23    2    4    4    0    0  0.58888656378E+03  0.39490942664E+03  0.37579146484E+03  0.80778926876E+03  0.92538842805E+02 0.  0.
         23    2    4    4    0    0 -0.90468945335E+02 -0.13928717530E+03 -0.18522533189E+03  0.26471826325E+03  0.90453236822E+02 0.  0.
          2    1    3    3  502    0 -0.26564489226E+03 -0.11142813008E+03  0.39304765713E+03  0.48730883199E+03  0.00000000000E+00 0. -1.
         -2    1    3    3    0  502 -0.23277272619E+03 -0.14419412125E+03  0.52130762408E+03  0.58884354933E+03  0.00000000000E+00 0.  1.
         13    1    5    5    0    0  0.54852465709E+03  0.37229957019E+03  0.32250379619E+03  0.73722111198E+03  0.00000000000E+00 0. -1.
        -13    1    5    5    0    0  0.40361906698E+02  0.22609856446E+02  0.53287668655E+02  0.70568156781E+02  0.00000000000E+00 0.  1.
          1    1    6    6  503    0 -0.19451724968E+02 -0.10857894140E+03 -0.12468728935E+03  0.16647725444E+03  0.00000000000E+00 0. -1.
         -1    1    6    6    0  503 -0.71017220366E+02 -0.30708233902E+02 -0.60538042531E+02  0.98241008807E+02  0.00000000000E+00 0.  1.
<mgrwt>
<rscale>  0 0.18427936E+04</rscale>
<asrwt>0</asrwt>
<pdfrwt beam="1">  1        1 0.25027548E+00 0.18427936E+04</pdfrwt>
<pdfrwt beam="2">  1       -1 0.80287578E-01 0.18427936E+04</pdfrwt>
<totfact> 0.77837560E+00</totfact>
</mgrwt>
</event>
<event>
12    3  0.4806716E-008  0.1736010E+04  0.7818608E-02  0.8741089E-01
          1   -1    0    0  501    0  0.00000000000E+00  0.00000000000E+00  0.43188875025E+03  0.43188875025E+03  0.00000000000E+00 0. -1.
         -1   -1    0    0    0  501 -0.00000000000E+00 -0.00000000000E+00 -0.17445056901E+04  0.17445056901E+04  0.00000000000E+00 0.  1.
         23    2    1    2    0    0  0.25594262226E+03 -0.73498718182E+02 -0.11530780276E+04  0.11869978207E+04  0.92011962054E+02 0.  0.
        254    2    1    2    0    0 -0.25594262226E+03  0.73498718182E+02 -0.15953891225E+03  0.98939661964E+03  0.93943829971E+03 0.  0.
         23    2    4    4    0    0  0.20425581858E+03  0.85354745315E+02  0.26475218152E+03  0.35671601083E+03  0.90259197794E+02 0.  0.
         23    2    4    4    0    0 -0.46019844084E+03 -0.11856027132E+02 -0.42429109377E+03  0.63268060881E+03  0.91316209798E+02 0.  0.
          4    1    3    3  502    0  0.21824983974E+03 -0.57852453970E+02 -0.78997277738E+03  0.82160628526E+03  0.00000000000E+00 0.  1.
         -4    1    3    3    0  502  0.37692782524E+02 -0.15646264213E+02 -0.36310525024E+03  0.36539153547E+03  0.00000000000E+00 0. -1.
         13    1    5    5    0    0  0.75973643902E+02  0.76205160392E+02  0.14824396770E+03  0.18318159023E+03  0.00000000000E+00 0. -1.
        -13    1    5    5    0    0  0.12828217468E+03  0.91495849228E+01  0.11650821382E+03  0.17353442060E+03  0.00000000000E+00 0.  1.
          1    1    6    6  503    0 -0.29919421485E+03 -0.26810749235E+02 -0.32671705077E+03  0.44382431855E+03  0.00000000000E+00 0. -1.
         -1    1    6    6    0  503 -0.16100422599E+03  0.14954722103E+02 -0.97574043000E+02  0.18885629025E+03  0.00000000000E+00 0.  1.
<mgrwt>
<rscale>  0 0.17360097E+04</rscale>
<asrwt>0</asrwt>
<pdfrwt beam="1">  1        1 0.66444425E-01 0.17360097E+04</pdfrwt>
<pdfrwt beam="2">  1       -1 0.26838548E+00 0.17360097E+04</pdfrwt>
<totfact> 0.27197221E+00</totfact>
</mgrwt>
</event>
<event>
12    3  0.4806716E-008  0.1969810E+04  0.7818608E-02  0.8620867E-01
          1   -1    0    0  501    0  0.00000000000E+00  0.00000000000E+00  0.34380490323E+04  0.34380490323E+04  0.00000000000E+00 0. -1.
         -1   -1    0    0    0  501 -0.00000000000E+00 -0.00000000000E+00 -0.28214765956E+03  0.28214765956E+03  0.00000000000E+00 0.  1.
         23    2    1    2    0    0  0.20290397734E+03  0.34401697105E+02 -0.15966945342E+03  0.27624075280E+03  0.91984337623E+02 0.  0.
        254    2    1    2    0    0 -0.20290397734E+03 -0.34401697105E+02  0.33155708262E+04  0.34439559391E+04  0.90855330394E+03 0.  0.
         23    2    4    4    0    0 -0.39870759614E+03 -0.31323356717E+02  0.31371828590E+04  0.31639986962E+04  0.94987152754E+02 0.  0.
         23    2    4    4    0    0  0.19580361880E+03 -0.30783403873E+01  0.17838796721E+03  0.27995724285E+03  0.90582877338E+02 0.  0.
          2    1    3    3  502    0  0.52554581953E+02 -0.13948264364E+02 -0.40573906122E+01  0.54525228854E+02  0.00000000000E+00 0. -1.
         -2    1    3    3    0  502  0.15034939539E+03  0.48349961469E+02 -0.15561206281E+03  0.22171552395E+03  0.00000000000E+00 0.  1.
         13    1    5    5    0    0 -0.33997267609E+03 -0.15344996073E+02  0.28620978084E+04  0.28822596611E+04  0.00000000000E+00 0.  1.
        -13    1    5    5    0    0 -0.58734920052E+02 -0.15978360644E+02  0.27508505063E+03  0.28173903514E+03  0.00000000000E+00 0. -1.
          1    1    6    6  503    0  0.34749161072E+02  0.34239222389E+01  0.89090543196E+02  0.95688830726E+02  0.00000000000E+00 0. -1.
         -1    1    6    6    0  503  0.16105445772E+03 -0.65022626262E+01  0.89297424014E+02  0.18426841213E+03  0.00000000000E+00 0.  1.
<mgrwt>
<rscale>  0 0.19698096E+04</rscale>
<asrwt>0</asrwt>
<pdfrwt beam="1">  1        1 0.52893059E+00 0.19698096E+04</pdfrwt>
<pdfrwt beam="2">  1       -1 0.43407335E-01 0.19698096E+04</pdfrwt>
<totfact> 0.13673933E+00</totfact>
</mgrwt>
</event>
<event>
12    3  0.4806716E-008  0.2228389E+04  0.7818608E-02  0.8506704E-01
          2   -1    0    0  501    0  0.00000000000E+00  0.00000000000E+00  0.35846883297E+04  0.35846883297E+04  0.00000000000E+00 0. -1.
         -2   -1    0    0    0  501 -0.00000000000E+00 -0.00000000000E+00 -0.34631447168E+03  0.34631447168E+03  0.00000000000E+00 0.  1.
         23    2    1    2    0    0  0.59621512583E+03 -0.48730702119E+03  0.44187752130E+03  0.89237670890E+03  0.90221048456E+02 0.  0.
        254    2    1    2    0    0 -0.59621512583E+03  0.48730702119E+03  0.27964963368E+04  0.30386260925E+04  0.90549221941E+03 0.  0.
         23    2    4    4    0    0 -0.44056248516E+03 -0.11631023375E+03  0.63557986330E+03  0.78730106441E+03  0.90872600781E+02 0.  0.
         23    2    4    4    0    0 -0.15565264067E+03  0.60361725494E+03  0.21609164735E+04  0.22513250281E+04  0.10160138732E+03 0.  0.
          2    1    3    3  502    0  0.36875981123E+03 -0.31844582835E+03  0.32643205753E+03  0.58647202163E+03  0.00000000000E+00 0. -1.
         -2    1    3    3    0  502  0.22745531460E+03 -0.16886119284E+03  0.11544546377E+03  0.30590468727E+03  0.00000000000E+00 0.  1.
         13    1    5    5    0    0 -0.95249818838E+01 -0.21162329706E+02  0.30693914403E+02  0.38479681130E+02  0.00000000000E+00 0. -1.
        -13    1    5    5    0    0 -0.43103750328E+03 -0.95147904044E+02  0.60488594890E+03  0.74882138328E+03  0.00000000000E+00 0.  1.
          4    1    6    6  503    0 -0.86728328681E+02  0.16017320721E+03  0.57770432663E+03  0.60573884497E+03  0.00000000000E+00 0. -1.
         -4    1    6    6    0  503 -0.68924311989E+02  0.44344404773E+03  0.15832121468E+04  0.16455861831E+04  0.00000000000E+00 0.  1.
<mgrwt>
<rscale>  0 0.22283891E+04</rscale>
<asrwt>0</asrwt>
<pdfrwt beam="1">  1        2 0.55149049E+00 0.22283891E+04</pdfrwt>
<pdfrwt beam="2">  1       -2 0.53279152E-01 0.22283891E+04</pdfrwt>
<totfact> 0.21524587E+00</totfact>
</mgrwt>
</event>
<event>
12    3  0.4806716E-008  0.1539448E+04  0.7818608E-02  0.8858636E-01
         -2   -1    0    0    0  501 -0.00000000000E+00  0.00000000000E+00  0.19906531198E+03  0.19906531198E+03  0.00000000000E+00 0.  1.
          2   -1    0    0  501    0  0.00000000000E+00 -0.00000000000E+00 -0.29762831298E+04  0.29762831298E+04  0.00000000000E+00 0. -1.
         23    2    1    2    0    0 -0.21472791248E+03  0.32912800176E+03 -0.15415926973E+04  0.15935435482E+04  0.91867718616E+02 0.  0.
        254    2    1    2    0    0  0.21472791248E+03 -0.32912800176E+03 -0.12356251205E+04  0.15818048936E+04  0.90603750748E+03 0.  0.
         23    2    4    4    0    0 -0.19757471110E+03 -0.35311885460E+03 -0.10316215511E+04  0.11119690496E+04  0.92214155732E+02 0.  0.
         23    2    4    4    0    0  0.41230262358E+03  0.23990852844E+02 -0.20400356942E+03  0.46983584404E+03  0.92516212512E+02 0.  0.
          1    1    3    3  502    0 -0.19174451655E+03  0.27943373432E+03 -0.11753935743E+04  0.12232739783E+04  0.00000000000E+00 0. -1.
         -1    1    3    3    0  502 -0.22983395925E+02  0.49694267435E+02 -0.36619912305E+03  0.37026956994E+03  0.00000000000E+00 0.  1.
         13    1    5    5    0    0 -0.10852237051E+03 -0.20369614246E+03 -0.46301933842E+03  0.51735493726E+03  0.00000000000E+00 0.  1.
        -13    1    5    5    0    0 -0.89052340588E+02 -0.14942271214E+03 -0.56860221270E+03  0.59461411231E+03  0.00000000000E+00 0. -1.
          2    1    6    6  503    0  0.21338084295E+03 -0.15596349420E+02 -0.63760321321E+02  0.22324875997E+03  0.00000000000E+00 0. -1.
         -2    1    6    6    0  503  0.19892178062E+03  0.39587202264E+02 -0.14024324810E+03  0.24658708407E+03  0.00000000000E+00 0.  1.
<mgrwt>
<rscale>  0 0.15394476E+04</rscale>
<asrwt>0</asrwt>
<pdfrwt beam="1">  1        2 0.45788968E+00 0.15394476E+04</pdfrwt>
<pdfrwt beam="2">  1       -2 0.30625435E-01 0.15394476E+04</pdfrwt>
<totfact> 0.17235613E+01</totfact>
</mgrwt>
</event>
<event>
12    3  0.4806716E-008  0.3430344E+04  0.7818608E-02  0.8130499E-01
          2   -1    0    0  501    0  0.00000000000E+00  0.00000000000E+00  0.18266788330E+04  0.18266788330E+04  0.00000000000E+00 0. -1.
         -2   -1    0    0    0  501 -0.00000000000E+00 -0.00000000000E+00 -0.16104715526E+04  0.16104715526E+04  0.00000000000E+00 0.  1.
         23    2    1    2    0    0 -0.82716155039E+03  0.10331615671E+04 -0.80121434427E+03  0.15511992051E+04  0.11249664160E+03 0.  0.
        254    2    1    2    0    0  0.82716155039E+03 -0.10331615671E+04  0.10174216246E+04  0.18859511804E+04  0.87752267123E+03 0.  0.
         23    2    4    4    0    0  0.39067310267E+03  0.60111804820E+02  0.21993097801E+03  0.46121365754E+03  0.90052765542E+02 0.  0.
         23    2    4    4    0    0  0.43648844771E+03 -0.10932733719E+04  0.79749064660E+03  0.14247375229E+04  0.90093545485E+02 0.  0.
          4    1    3    3  502    0 -0.57038410511E+03  0.77710468247E+03 -0.61636441852E+03  0.11441742924E+04  0.00000000000E+00 0.  1.
         -4    1    3    3    0  502 -0.25677744527E+03  0.25605688464E+03 -0.18484992575E+03  0.40702491278E+03  0.00000000000E+00 0. -1.
         13    1    5    5    0    0  0.29604413292E+02 -0.80521196283E+01 -0.39530389222E+01  0.30933548674E+02  0.00000000000E+00 0. -1.
        -13    1    5    5    0    0  0.36106868938E+03  0.68163924448E+02  0.22388401693E+03  0.43028010886E+03  0.00000000000E+00 0.  1.
          1    1    6    6  503    0  0.19967506260E+03 -0.59367027944E+03  0.45804754972E+03  0.77596526283E+03  0.00000000000E+00 0. -1.
         -1    1    6    6    0  503  0.23681338512E+03 -0.49960309249E+03  0.33944309688E+03  0.64877226005E+03  0.00000000000E+00 0.  1.
<mgrwt>
<rscale>  0 0.34303436E+04</rscale>
<asrwt>0</asrwt>
<pdfrwt beam="1">  1        2 0.28102751E+00 0.34303436E+04</pdfrwt>
<pdfrwt beam="2">  1       -2 0.24776485E+00 0.34303436E+04</pdfrwt>
<totfact> 0.45716295E-01</totfact>
</mgrwt>
</event>
<event>
12    3  0.4806716E-008  0.2207305E+04  0.7818608E-02  0.8515394E-01
         -3   -1    0    0    0  501 -0.00000000000E+00  0.00000000000E+00  0.34222472861E+03  0.34222472861E+03  0.00000000000E+00 0.  1.
          3   -1    0    0  501    0  0.00000000000E+00 -0.00000000000E+00 -0.35592073832E+04  0.35592073832E+04  0.00000000000E+00 0. -1.
         23    2    1    2    0    0 -0.19701319908E+03 -0.16397360474E+03  0.21713098444E+03  0.34449806477E+03  0.76364314723E+02 0.  0.
        254    2    1    2    0    0  0.19701319908E+03  0.16397360474E+03 -0.34341136390E+04  0.35569340470E+04  0.89047278763E+03 0.  0.
         23    2    4    4    0    0  0.11916893154E+03 -0.75375912902E+02 -0.69566991210E+02  0.18178244548E+03  0.91227894450E+02 0.  0.
         23    2    4    4    0    0  0.77844267535E+02  0.23934951764E+03 -0.33645466478E+04  0.33751516016E+04  0.90145807188E+02 0.  0.
          3    1    3    3  502    0 -0.16940476258E+02 -0.37138887761E+02  0.97348800097E+01  0.41964802023E+02  0.00000000000E+00 0. -1.
         -3    1    3    3    0  502 -0.18007272282E+03 -0.12683471698E+03  0.20739610443E+03  0.30253326275E+03  0.00000000000E+00 0.  1.
         13    1    5    5    0    0 -0.76425042163E+01  0.62337124564E+01 -0.21253194598E+02  0.23430009012E+02  0.00000000000E+00 0.  1.
        -13    1    5    5    0    0  0.12681143576E+03 -0.81609625358E+02 -0.48313796612E+02  0.15835243646E+03  0.00000000000E+00 0. -1.
          3    1    6    6  503    0  0.77797288426E+02  0.21164909404E+03 -0.32255031982E+04  0.32333757343E+04  0.00000000000E+00 0. -1.
         -3    1    6    6    0  503  0.46979109034E-01  0.27700423600E+02 -0.13904344960E+03  0.14177586731E+03  0.00000000000E+00 0.  1.
<mgrwt>
<rscale>  0 0.22073049E+04</rscale>
<asrwt>0</asrwt>
<pdfrwt beam="1">  1        3 0.54757038E+00 0.22073049E+04</pdfrwt>
<pdfrwt beam="2">  1       -3 0.52649957E-01 0.22073049E+04</pdfrwt>
<totfact> 0.17215678E-02</totfact>
</mgrwt>
</event>
<event>
12    3  0.4806716E-008  0.2440747E+04  0.7818608E-02  0.8424404E-01
          1   -1    0    0  501    0  0.00000000000E+00  0.00000000000E+00  0.10418177013E+04  0.10418177013E+04  0.00000000000E+00 0. -1.
         -1   -1    0    0    0  501 -0.00000000000E+00 -0.00000000000E+00 -0.14295313963E+04  0.14295313963E+04  0.00000000000E+00 0.  1.
         23    2    1    2    0    0 -0.71994363639E+02 -0.84021196641E+03 -0.81529025738E+03  0.11762640299E+04  0.88088179215E+02 0.  0.
        254    2    1    2    0    0  0.71994363639E+02  0.84021196641E+03  0.42757656233E+03  0.12950850677E+04  0.88503349031E+03 0.  0.
         23    2    4    4    0    0 -0.10434795788E+03  0.56636589401E+03 -0.17025045589E+03  0.60814954556E+03  0.95926168600E+02 0.  0.
         23    2    4    4    0    0  0.17634232152E+03  0.27384607239E+03  0.59782701822E+03  0.68693552211E+03  0.91624134933E+02 0.  0.
          3    1    3    3  502    0 -0.46742200135E+01 -0.29731421403E+03 -0.33889779525E+03  0.45085397394E+03  0.00000000000E+00 0. -1.
         -3    1    3    3    0  502 -0.67320143625E+02 -0.54289775238E+03 -0.47639246213E+03  0.72541005593E+03  0.00000000000E+00 0.  1.
         13    1    5    5    0    0 -0.10616260854E+03  0.54700451790E+03 -0.18107363355E+03  0.58589427615E+03  0.00000000000E+00 0. -1.
        -13    1    5    5    0    0  0.18146506624E+01  0.19361376109E+02  0.10823177661E+02  0.22255269411E+02  0.00000000000E+00 0.  1.
          4    1    6    6  503    0  0.18008016219E+03  0.22614658298E+03  0.53319017888E+03  0.60651703081E+03  0.00000000000E+00 0. -1.
         -4    1    6    6    0  503 -0.37378406767E+01  0.47699489418E+02  0.64636839344E+02  0.80418491306E+02  0.00000000000E+00 0.  1.
<mgrwt>
<rscale>  0 0.24407467E+04</rscale>
<asrwt>0</asrwt>
<pdfrwt beam="1">  1        1 0.16027965E+00 0.24407467E+04</pdfrwt>
<pdfrwt beam="2">  1       -1 0.21992791E+00 0.24407467E+04</pdfrwt>
<totfact> 0.13813378E+00</totfact>
</mgrwt>
</event>
<event>
12    3  0.4806716E-008  0.1939270E+04  0.7818608E-02  0.8635552E-01
          1   -1    0    0  501    0  0.00000000000E+00  0.00000000000E+00  0.10709875134E+04  0.10709875134E+04  0.00000000000E+00 0. -1.
         -1   -1    0    0    0  501 -0.00000000000E+00 -0.00000000000E+00 -0.87787435714E+03  0.87787435714E+03  0.00000000000E+00 0.  1.
         23    2    1    2    0    0  0.28760800254E+03 -0.60451509156E+03  0.22131355869E+03  0.71088991315E+03  0.90707873449E+02 0.  0.
        254    2    1    2    0    0 -0.28760800254E+03  0.60451509156E+03 -0.28200402391E+02  0.12379719574E+04  0.10409718755E+04 0.  0.
         23    2    4    4    0    0 -0.95871024755E+02  0.86478082528E+03  0.93782035814E+02  0.87986620991E+03  0.91281695530E+02 0.  0.
         23    2    4    4    0    0 -0.19173697779E+03 -0.26026573372E+03 -0.12198243820E+03  0.35810574752E+03  0.94120616127E+02 0.  0.
          4    1    3    3  502    0  0.15086428788E+02 -0.96876332497E+02  0.16604709380E+02  0.99440135284E+02  0.00000000000E+00 0.  1.
         -4    1    3    3    0  502  0.27252157375E+03 -0.50763875906E+03  0.20470884931E+03  0.61144977786E+03  0.00000000000E+00 0. -1.
         13    1    5    5    0    0 -0.66893633344E+02  0.23549416666E+03  0.20589489558E+02  0.24567496371E+03  0.00000000000E+00 0.  1.
        -13    1    5    5    0    0 -0.28977391411E+02  0.62928665862E+03  0.73192546256E+02  0.63419124620E+03  0.00000000000E+00 0. -1.
          4    1    6    6  503    0 -0.12889481811E+03 -0.22408954288E+03 -0.12137913607E+03  0.28559217783E+03  0.00000000000E+00 0. -1.
         -4    1    6    6    0  503 -0.62842159680E+02 -0.36176190837E+02 -0.60330213890E+00  0.72513569697E+02  0.00000000000E+00 0.  1.
<mgrwt>
<rscale>  0 0.19392705E+04</rscale>
<asrwt>0</asrwt>
<pdfrwt beam="1">  1        1 0.16476731E+00 0.19392705E+04</pdfrwt>
<pdfrwt beam="2">  1       -1 0.13505759E+00 0.19392705E+04</pdfrwt>
<totfact> 0.57232755E+00</totfact>
</mgrwt>
</event>
<event>
12    3  0.4806716E-008  0.1592614E+04  0.7818608E-02  0.8825099E-01
          1   -1    0    0  501    0  0.00000000000E+00  0.00000000000E+00  0.15763057831E+04  0.15763057831E+04  0.00000000000E+00 0. -1.
         -1   -1    0    0    0  501 -0.00000000000E+00 -0.00000000000E+00 -0.40227253110E+03  0.40227253110E+03  0.00000000000E+00 0.  1.
         23    2    1    2    0    0  0.13810380409E+02 -0.40695605270E+03 -0.26547050774E+02  0.41824502337E+03  0.91761638158E+02 0.  0.
        254    2    1    2    0    0 -0.13810380409E+02  0.40695605270E+03  0.12005803028E+04  0.15603332909E+04  0.90963891717E+03 0.  0.
         23    2    4    4    0    0 -0.25656809274E+03  0.11740780765E+03  0.11267651268E+04  0.11651746320E+04  0.91763242242E+02 0.  0.
         23    2    4    4    0    0  0.24275771233E+03  0.28954824505E+03  0.73815176069E+02  0.39515865889E+03  0.89062856280E+02 0.  0.
          2    1    3    3  502    0  0.29552140671E+02 -0.39084051348E+02 -0.72361371356E+01  0.49530331804E+02  0.00000000000E+00 0. -1.
         -2    1    3    3    0  502 -0.15741760262E+02 -0.36787200135E+03 -0.19310913638E+02  0.36871469157E+03  0.00000000000E+00 0.  1.
         13    1    5    5    0    0 -0.19898183947E+03  0.11502542817E+03  0.99760561890E+03  0.10237390255E+04  0.00000000000E+00 0. -1.
        -13    1    5    5    0    0 -0.57586253270E+02  0.23823794788E+01  0.12915950785E+03  0.14143560643E+03  0.00000000000E+00 0.  1.
          2    1    6    6  503    0  0.20659285104E+03  0.20891046633E+03  0.26733288427E+02  0.29502348678E+03  0.00000000000E+00 0. -1.
         -2    1    6    6    0  503  0.36164861295E+02  0.80637778721E+02  0.47081887642E+02  0.10013517211E+03  0.00000000000E+00 0.  1.
<mgrwt>
<rscale>  0 0.15926136E+04</rscale>
<asrwt>0</asrwt>
<pdfrwt beam="1">  1        1 0.24250858E+00 0.15926136E+04</pdfrwt>
<pdfrwt beam="2">  1       -1 0.61888082E-01 0.15926136E+04</pdfrwt>
<totfact> 0.14729645E+01</totfact>
</mgrwt>
</event>
<event>
12    3  0.4806716E-008  0.2122806E+04  0.7818608E-02  0.8551263E-01
          2   -1    0    0  501    0  0.00000000000E+00  0.00000000000E+00  0.22466293697E+04  0.22466293697E+04  0.00000000000E+00 0.  1.
         -2   -1    0    0    0  501 -0.00000000000E+00 -0.00000000000E+00 -0.50145200594E+03  0.50145200594E+03  0.00000000000E+00 0. -1.
         23    2    1    2    0    0  0.12889833399E+02 -0.53523939457E+03 -0.16794104002E+03  0.56828457994E+03  0.89976739048E+02 0.  0.
        254    2    1    2    0    0 -0.12889833399E+02  0.53523939457E+03  0.19131184038E+04  0.21797967957E+04  0.89713136516E+03 0.  0.
         23    2    4    4    0    0 -0.16216039603E+03 -0.73279679606E+02  0.41513990316E+02  0.20410916114E+03  0.90946318145E+02 0.  0.
         23    2    4    4    0    0  0.14927056263E+03  0.60851907417E+03  0.18716044135E+04  0.19756876346E+04  0.88664448077E+02 0.  0.
          4    1    3    3  502    0  0.38913880269E+02 -0.36910292167E+03 -0.84895274665E+02  0.38073411263E+03  0.00000000000E+00 0. -1.
         -4    1    3    3    0  502 -0.26024046870E+02 -0.16613647290E+03 -0.83045765356E+02  0.18755046731E+03  0.00000000000E+00 0.  1.
         13    1    5    5    0    0 -0.88832854335E+02  0.62894689947E+01  0.25130442576E+01  0.89090677520E+02  0.00000000000E+00 0.  1.
        -13    1    5    5    0    0 -0.73327541698E+02 -0.79569148601E+02  0.39000946059E+02  0.11501848362E+03  0.00000000000E+00 0. -1.
          1    1    6    6  503    0  0.11142400704E+03  0.36814087340E+03  0.10244240061E+04  0.10942520533E+04  0.00000000000E+00 0. -1.
         -1    1    6    6    0  503  0.37846555590E+02  0.24037820077E+03  0.84718040742E+03  0.88143558125E+03  0.00000000000E+00 0.  1.
<mgrwt>
<rscale>  0 0.21228064E+04</rscale>
<asrwt>0</asrwt>
<pdfrwt beam="1">  1        2 0.34563528E+00 0.21228064E+04</pdfrwt>
<pdfrwt beam="2">  1       -2 0.77146464E-01 0.21228064E+04</pdfrwt>
<totfact> 0.67039690E+00</totfact>
</mgrwt>
</event>
<event>
12    3  0.6272308E-008  0.1924120E+04  0.7818608E-02  0.8642942E-01
          1   -1    0    0  501    0  0.00000000000E+00  0.00000000000E+00  0.17025031673E+04  0.17025031673E+04  0.00000000000E+00 0. -1.
         -1   -1    0    0    0  501 -0.00000000000E+00 -0.00000000000E+00 -0.54364639437E+03  0.54364639437E+03  0.00000000000E+00 0.  1.
         23    2    1    2    0    0 -0.25568077008E+02  0.36256225021E+02 -0.41552493499E+03  0.42789415390E+03  0.92001059383E+02 0.  0.
        254    2    1    2    0    0  0.25568077008E+02 -0.36256225021E+02  0.15743817079E+04  0.18182554078E+04  0.90851897352E+03 0.  0.
         23    2    4    4    0    0 -0.79478819389E+02 -0.26582206754E+03  0.81093018380E+02  0.30115815762E+03  0.84509786092E+02 0.  0.
         23    2    4    4    0    0  0.10504689640E+03  0.22956584252E+03  0.14932886896E+04  0.15170972502E+04  0.89093375858E+02 0.  0.
          3    1    3    3  502    0 -0.13139248663E+02  0.12190303663E+02 -0.82695027337E+01  0.19738997804E+02  0.00000000000E+00 0. -1.
         -3    1    3    3    0  502 -0.12428828345E+02  0.24065921358E+02 -0.40725543226E+03  0.40815515610E+03  0.00000000000E+00 0.  1.
         13    1    5    5    0    0  0.28864382246E+01 -0.81455106090E+02  0.53151450312E+02  0.97305408401E+02  0.00000000000E+00 0. -1.
        -13    1    5    5    0    0 -0.82365257613E+02 -0.18436696145E+03  0.27941568067E+02  0.20385274921E+03  0.00000000000E+00 0.  1.
          1    1    6    6  503    0  0.44321913653E+01  0.46527622160E+02  0.13542999530E+03  0.14326809683E+03  0.00000000000E+00 0. -1.
         -1    1    6    6    0  503  0.10061470503E+03  0.18303822036E+03  0.13578586943E+04  0.13738291533E+04  0.00000000000E+00 0.  1.
<mgrwt>
<rscale>  0 0.19241203E+04</rscale>
<asrwt>0</asrwt>
<pdfrwt beam="1">  1        1 0.26192356E+00 0.19241203E+04</pdfrwt>
<pdfrwt beam="2">  1       -1 0.83637908E-01 0.19241203E+04</pdfrwt>
<totfact> 0.62840712E+00</totfact>
</mgrwt>
</event>
<event>
12    3  0.6065960E-008  0.1993505E+04  0.7818608E-02  0.8609663E-01
          1   -1    0    0  501    0  0.00000000000E+00  0.00000000000E+00  0.14061688572E+04  0.14061688572E+04  0.00000000000E+00 0. -1.
         -1   -1    0    0    0  501 -0.00000000000E+00 -0.00000000000E+00 -0.70654061808E+03  0.70654061808E+03  0.00000000000E+00 0.  1.
         23    2    1    2    0    0 -0.28074916438E+03  0.47720595054E+03 -0.31272355992E+03  0.64693196169E+03  0.11907697344E+03 0.  0.
        254    2    1    2    0    0  0.28074916438E+03 -0.47720595054E+03  0.10123517990E+04  0.14657775135E+04  0.90393691248E+03 0.  0.
         23    2    4    4    0    0 -0.25280910111E+03 -0.41303362418E+03  0.33227091310E+03  0.59431076004E+03  0.91060987815E+02 0.  0.
         23    2    4    4    0    0  0.53355826549E+03 -0.64172326360E+02  0.68008088590E+03  0.87146675350E+03  0.90231817826E+02 0.  0.
          3    1    3    3  502    0 -0.63117739458E+02  0.67948844855E+02 -0.10168847032E+03  0.13762790250E+03  0.00000000000E+00 0. -1.
         -3    1    3    3    0  502 -0.21763142492E+03  0.40925710568E+03 -0.21103508960E+03  0.50930405919E+03  0.00000000000E+00 0.  1.
         13    1    5    5    0    0 -0.10278527024E+03 -0.12773727681E+03  0.68036306164E+02  0.17751214781E+03  0.00000000000E+00 0. -1.
        -13    1    5    5    0    0 -0.15002383087E+03 -0.28529634737E+03  0.26423460694E+03  0.41679861223E+03  0.00000000000E+00 0.  1.
          3    1    6    6  503    0  0.48174591354E+03 -0.46504372573E+02  0.56447340335E+03  0.74355363288E+03  0.00000000000E+00 0. -1.
         -3    1    6    6    0  503  0.51812351952E+02 -0.17667953787E+02  0.11560748254E+03  0.12791312062E+03  0.00000000000E+00 0.  1.
<mgrwt>
<rscale>  0 0.19935049E+04</rscale>
<asrwt>0</asrwt>
<pdfrwt beam="1">  1        1 0.21633367E+00 0.19935049E+04</pdfrwt>
<pdfrwt beam="2">  1       -1 0.10869856E+00 0.19935049E+04</pdfrwt>
<totfact> 0.55419299E+00</totfact>
</mgrwt>
</event>
<event>
12    3  0.4806716E-008  0.2354872E+04  0.7818608E-02  0.8456595E-01
         -1   -1    0    0    0  501 -0.00000000000E+00  0.00000000000E+00  0.57708097426E+03  0.57708097426E+03  0.00000000000E+00 0.  1.
          1   -1    0    0  501    0  0.00000000000E+00 -0.00000000000E+00 -0.24023578427E+04  0.24023578427E+04  0.00000000000E+00 0. -1.
         23    2    1    2    0    0  0.18274587406E+03 -0.64187891252E+03  0.16959073178E+03  0.69380180826E+03  0.84825350075E+02 0.  0.
        254    2    1    2    0    0 -0.18274587406E+03  0.64187891252E+03 -0.19948676002E+04  0.22856370087E+04  0.89399955273E+03 0.  0.
         23    2    4    4    0    0  0.17603910812E+03  0.33534347183E+02 -0.47759027490E+02  0.21239045891E+03  0.10351068690E+03 0.  0.
         23    2    4    4    0    0 -0.35878498217E+03  0.60834456534E+03 -0.19471085728E+04  0.20732465498E+04  0.91157493175E+02 0.  0.
          1    1    3    3  502    0 -0.28098099331E+01  0.12600196078E+01 -0.58999591989E+00  0.31354069046E+01  0.00000000000E+00 0. -1.
         -1    1    3    3    0  502  0.18555568399E+03 -0.64313893213E+03  0.17018072770E+03  0.69066640136E+03  0.00000000000E+00 0.  1.
         13    1    5    5    0    0  0.17281494085E+03 -0.19552569370E+00 -0.43777637888E+02  0.17827373219E+03  0.00000000000E+00 0. -1.
        -13    1    5    5    0    0  0.32241672689E+01  0.33729872877E+02 -0.39813896020E+01  0.34116726719E+02  0.00000000000E+00 0.  1.
          2    1    6    6  503    0 -0.24135997102E+03  0.33786240309E+03 -0.10604428181E+04  0.11388347595E+04  0.00000000000E+00 0. -1.
         -2    1    6    6    0  503 -0.11742501115E+03  0.27048216225E+03 -0.88666575468E+03  0.93441179031E+03  0.00000000000E+00 0.  1.
<mgrwt>
<rscale>  0 0.23548716E+04</rscale>
<asrwt>0</asrwt>
<pdfrwt beam="1">  1        1 0.36959351E+00 0.23548716E+04</pdfrwt>
<pdfrwt beam="2">  1       -1 0.88781689E-01 0.23548716E+04</pdfrwt>
<totfact> 0.17720800E+00</totfact>
</mgrwt>
</event>
<event>
12    3  0.4806716E-008  0.1431644E+04  0.7818608E-02  0.8931226E-01
          2   -1    0    0  501    0  0.00000000000E+00  0.00000000000E+00  0.37623305212E+04  0.37623305212E+04  0.00000000000E+00 0. -1.
         -2   -1    0    0    0  501 -0.00000000000E+00 -0.00000000000E+00 -0.13619244301E+03  0.13619244301E+03  0.00000000000E+00 0.  1.
         23    2    1    2    0    0  0.28845493617E+03  0.30061536634E+03  0.13394114787E+04  0.14041121286E+04  0.62704957184E+02 0.  0.
        254    2    1    2    0    0 -0.28845493617E+03 -0.30061536634E+03  0.22867265994E+04  0.24944108356E+04  0.90520220250E+03 0.  0.
         23    2    4    4    0    0 -0.13977290468E+03  0.24776546073E+03  0.14404236336E+04  0.14711161865E+04  0.91860772864E+02 0.  0.
         23    2    4    4    0    0 -0.14868203149E+03 -0.54838082707E+03  0.84630296585E+03  0.10232946491E+04  0.89862955806E+02 0.  0.
          3    1    3    3  502    0  0.25245306016E+03  0.22760270064E+03  0.10778395601E+04  0.11301653216E+04  0.00000000000E+00 0. -1.
         -3    1    3    3    0  502  0.36001876010E+02  0.73012665702E+02  0.26157191868E+03  0.27394680701E+03  0.00000000000E+00 0.  1.
         13    1    5    5    0    0 -0.79373665509E+02  0.69811525571E+02  0.39300629486E+03  0.40697392506E+03  0.00000000000E+00 0. -1.
        -13    1    5    5    0    0 -0.60399239175E+02  0.17795393516E+03  0.10474173387E+04  0.10641422614E+04  0.00000000000E+00 0.  1.
          1    1    6    6  503    0  0.58839316898E+01 -0.96997778431E+01  0.38448121032E+02  0.40086959890E+02  0.00000000000E+00 0. -1.
         -1    1    6    6    0  503 -0.15456596318E+03 -0.53868104923E+03  0.80785484482E+03  0.98320768919E+03  0.00000000000E+00 0.  1.
<mgrwt>
<rscale>  0 0.14316438E+04</rscale>
<asrwt>0</asrwt>
<pdfrwt beam="1">  1        2 0.57882000E+00 0.14316438E+04</pdfrwt>
<pdfrwt beam="2">  1       -2 0.20952686E-01 0.14316438E+04</pdfrwt>
<totfact> 0.10243996E+01</totfact>
</mgrwt>
</event>
<event>
12    3  0.4806716E-008  0.1238894E+04  0.7818608E-02  0.9079478E-01
         -2   -1    0    0    0  501 -0.00000000000E+00  0.00000000000E+00  0.27840754604E+03  0.27840754604E+03  0.00000000000E+00 0.  1.
          2   -1    0    0  501    0  0.00000000000E+00 -0.00000000000E+00 -0.13782477188E+04  0.13782477188E+04  0.00000000000E+00 0. -1.
         23    2    1    2    0    0 -0.13201388047E+03  0.55238663529E+02 -0.60650514948E+03  0.62945452404E+03  0.88800489339E+02 0.  0.
        254    2    1    2    0    0  0.13201388047E+03 -0.55238663529E+02 -0.49333502326E+03  0.10272007408E+04  0.88954086028E+03 0.  0.
         23    2    4    4    0    0  0.17022020373E+02 -0.41232176415E+03 -0.48229856452E+03  0.64112709154E+03  0.90183456314E+02 0.  0.
         23    2    4    4    0    0  0.11499186009E+03  0.35708310062E+03 -0.11036458743E+02  0.38607364925E+03  0.90551590740E+02 0.  0.
          2    1    3    3  502    0 -0.11221710822E+03  0.41244122535E+02 -0.58485819933E+03  0.59695298839E+03  0.00000000000E+00 0. -1.
         -2    1    3    3    0  502 -0.19796772246E+02  0.13994540994E+02 -0.21646950144E+02  0.32501535649E+02  0.00000000000E+00 0.  1.
         13    1    5    5    0    0  0.29340243081E+02 -0.15779651116E+03 -0.13120421922E+03  0.20730445229E+03  0.00000000000E+00 0. -1.
        -13    1    5    5    0    0 -0.12318222708E+02 -0.25452525299E+03 -0.35109434530E+03  0.43382263924E+03  0.00000000000E+00 0.  1.
          1    1    6    6  503    0  0.35286251831E+02  0.65858231879E+02 -0.36331419883E+02  0.83080673717E+02  0.00000000000E+00 0. -1.
         -1    1    6    6    0  503  0.79705608263E+02  0.29122486875E+03  0.25294961140E+02  0.30299297553E+03  0.00000000000E+00 0.  1.
<mgrwt>
<rscale>  0 0.12388940E+04</rscale>
<asrwt>0</asrwt>
<pdfrwt beam="1">  1        2 0.21203811E+00 0.12388940E+04</pdfrwt>
<pdfrwt beam="2">  1       -2 0.42831930E-01 0.12388940E+04</pdfrwt>
<totfact> 0.75710288E+01</totfact>
</mgrwt>
</event>
<event>
12    3  0.4806716E-008  0.1826906E+04  0.7818608E-02  0.8692121E-01
          2   -1    0    0  501    0  0.00000000000E+00  0.00000000000E+00  0.12029534516E+04  0.12029534516E+04  0.00000000000E+00 0. -1.
         -2   -1    0    0    0  501 -0.00000000000E+00 -0.00000000000E+00 -0.69362328853E+03  0.69362328853E+03  0.00000000000E+00 0.  1.
         23    2    1    2    0    0  0.45283165341E+03 -0.76865168410E+01 -0.34361796413E+03  0.57583761445E+03  0.91651863407E+02 0.  0.
        254    2    1    2    0    0 -0.45283165341E+03  0.76865168410E+01  0.85294812722E+03  0.13207391257E+04  0.90095268552E+03 0.  0.
         23    2    4    4    0    0  0.44755587431E+02  0.30173124090E+03  0.41644576933E+02  0.32030771919E+03  0.88419227771E+02 0.  0.
         23    2    4    4    0    0 -0.49758724084E+03 -0.29404472406E+03  0.81130355028E+03  0.10004314065E+04  0.92704834926E+02 0.  0.
          3    1    3    3  502    0  0.56789357505E+02  0.34046042368E+01 -0.86465242774E+02  0.10350295002E+03  0.00000000000E+00 0. -1.
         -3    1    3    3    0  502  0.39604229591E+03 -0.11091121078E+02 -0.25715272136E+03  0.47233466443E+03  0.00000000000E+00 0.  1.
         13    1    5    5    0    0  0.91658712511E+01  0.87692560013E+01 -0.15167909483E+02  0.19773176899E+02  0.00000000000E+00 0. -1.
        -13    1    5    5    0    0  0.35589716180E+02  0.29296198490E+03  0.56812486416E+02  0.30053454229E+03  0.00000000000E+00 0.  1.
          1    1    6    6  503    0 -0.10280258534E+03 -0.43191454120E+02  0.21857947404E+03  0.24537901241E+03  0.00000000000E+00 0. -1.
         -1    1    6    6    0  503 -0.39478465551E+03 -0.25085326994E+03  0.59272407624E+03  0.75505239409E+03  0.00000000000E+00 0.  1.
<mgrwt>
<rscale>  0 0.18269062E+04</rscale>
<asrwt>0</asrwt>
<pdfrwt beam="1">  1        2 0.18506976E+00 0.18269062E+04</pdfrwt>
<pdfrwt beam="2">  1       -2 0.10671127E+00 0.18269062E+04</pdfrwt>
<totfact> 0.12566684E+01</totfact>
</mgrwt>
</event>
<event>
12    3  0.4806716E-008  0.2860811E+04  0.7818608E-02  0.8284634E-01
         -2   -1    0    0    0  501 -0.00000000000E+00  0.00000000000E+00  0.10602412756E+04  0.10602412756E+04  0.00000000000E+00 0.  1.
          2   -1    0    0  501    0  0.00000000000E+00 -0.00000000000E+00 -0.19298061241E+04  0.19298061241E+04  0.00000000000E+00 0. -1.
         23    2    1    2    0    0 -0.34912171811E+03 -0.11908067956E+04 -0.21604217333E+02  0.12444043046E+04  0.90379935798E+02 0.  0.
        254    2    1    2    0    0  0.34912171811E+03  0.11908067956E+04 -0.84796063116E+03  0.17456430952E+04  0.88787712285E+03 0.  0.
         23    2    4    4    0    0 -0.36948387234E+02  0.10858773741E+04 -0.75271145447E+03  0.13245040373E+04  0.85097334474E+02 0.  0.
         23    2    4    4    0    0  0.38607010534E+03  0.10492942145E+03 -0.95249176692E+02  0.42113905782E+03  0.90693939339E+02 0.  0.
          4    1    3    3  502    0 -0.11727365960E+03 -0.29052407013E+03 -0.29763349460E+02  0.31471130188E+03  0.00000000000E+00 0. -1.
         -4    1    3    3    0  502 -0.23184805851E+03 -0.90028272543E+03  0.81591321274E+01  0.92969300276E+03  0.00000000000E+00 0.  1.
         13    1    5    5    0    0 -0.29942072761E+01  0.46142742656E+03 -0.27116396680E+03  0.53521409936E+03  0.00000000000E+00 0.  1.
        -13    1    5    5    0    0 -0.33954179958E+02  0.62444994754E+03 -0.48154748766E+03  0.78928993798E+03  0.00000000000E+00 0. -1.
          1    1    6    6  503    0  0.31050484826E+03  0.11998356335E+03 -0.83553803092E+02  0.34320628531E+03  0.00000000000E+00 0. -1.
         -1    1    6    6    0  503  0.75565257083E+02 -0.15054141901E+02 -0.11695373600E+02  0.77932772503E+02  0.00000000000E+00 0.  1.
<mgrwt>
<rscale>  0 0.28608111E+04</rscale>
<asrwt>0</asrwt>
<pdfrwt beam="1">  1        2 0.29689325E+00 0.28608111E+04</pdfrwt>
<pdfrwt beam="2">  1       -2 0.16311404E+00 0.28608111E+04</pdfrwt>
<totfact> 0.15124619E+00</totfact>
</mgrwt>
</event>
<event>
12    3  0.4806716E-008  0.1587682E+04  0.7818608E-02  0.8828152E-01
          2   -1    0    0  501    0  0.00000000000E+00  0.00000000000E+00  0.96646522833E+03  0.96646522833E+03  0.00000000000E+00 0. -1.
         -2   -1    0    0    0  501 -0.00000000000E+00 -0.00000000000E+00 -0.65204966177E+03  0.65204966177E+03  0.00000000000E+00 0.  1.
         23    2    1    2    0    0  0.13428543141E+03 -0.45399959588E+03  0.35085532399E+03  0.59633703885E+03  0.91488771943E+02 0.  0.
        254    2    1    2    0    0 -0.13428543141E+03  0.45399959588E+03 -0.36439757427E+02  0.10221778512E+04  0.90519141263E+03 0.  0.
         23    2    4    4    0    0 -0.33287503468E+03  0.26781070153E+03 -0.37641169552E+03  0.57730980169E+03  0.95249577604E+02 0.  0.
         23    2    4    4    0    0  0.19858960327E+03  0.18618889435E+03  0.33997193810E+03  0.44486804955E+03  0.90678155637E+02 0.  0.
          3    1    3    3  502    0  0.13686801729E+03 -0.42236407629E+03  0.34865237219E+03  0.56451992324E+03  0.00000000000E+00 0. -1.
         -3    1    3    3    0  502 -0.25825858827E+01 -0.31635519586E+02  0.22029517944E+01  0.31817115613E+02  0.00000000000E+00 0.  1.
         13    1    5    5    0    0 -0.26506602828E+03  0.24839780274E+03 -0.34161456852E+03  0.49866018608E+03  0.00000000000E+00 0. -1.
        -13    1    5    5    0    0 -0.67809006398E+02  0.19412898788E+02 -0.34797127005E+02  0.78649615611E+02  0.00000000000E+00 0.  1.
          2    1    6    6  503    0  0.17577186255E+03  0.19097160824E+03  0.32912972368E+03  0.41915662685E+03  0.00000000000E+00 0. -1.
         -2    1    6    6    0  503  0.22817740722E+02 -0.47827138953E+01  0.10842214413E+02  0.25711422700E+02  0.00000000000E+00 0.  1.
<mgrwt>
<rscale>  0 0.15876817E+04</rscale>
<asrwt>0</asrwt>
<pdfrwt beam="1">  1        2 0.14868696E+00 0.15876817E+04</pdfrwt>
<pdfrwt beam="2">  1       -2 0.10031533E+00 0.15876817E+04</pdfrwt>
<totfact> 0.20843609E+01</totfact>
</mgrwt>
</event>
<event>
12    3  0.4806716E-008  0.1796640E+04  0.7818608E-02  0.8708088E-01
          2   -1    0    0  501    0  0.00000000000E+00  0.00000000000E+00  0.91709362828E+03  0.91709362828E+03  0.00000000000E+00 0. -1.
         -2   -1    0    0    0  501 -0.00000000000E+00 -0.00000000000E+00 -0.87993110041E+03  0.87993110041E+03  0.00000000000E+00 0.  1.
         23    2    1    2    0    0 -0.20666315764E+03 -0.61823572015E+03  0.15389344942E+03  0.67570385440E+03  0.89260510187E+02 0.  0.
        254    2    1    2    0    0  0.20666315764E+03  0.61823572015E+03 -0.11673092155E+03  0.11213208743E+04  0.90488083673E+03 0.  0.
         23    2    4    4    0    0  0.54762391356E+03  0.28935187760E+03 -0.41902083123E+01  0.62608657351E+03  0.91380413143E+02 0.  0.
         23    2    4    4    0    0 -0.34096075593E+03  0.32888384255E+03 -0.11254071324E+03  0.49523430078E+03  0.90403437774E+02 0.  0.
          1    1    3    3  502    0 -0.14058449801E+03 -0.30923606056E+03  0.10771460995E+03  0.35636130462E+03  0.00000000000E+00 0. -1.
         -1    1    3    3    0  502 -0.66078659622E+02 -0.30899965960E+03  0.46178839471E+02  0.31934254978E+03  0.00000000000E+00 0.  1.
         13    1    5    5    0    0  0.36149338062E+02  0.42827681012E+02  0.14861614100E+02  0.57981483913E+02  0.00000000000E+00 0.  1.
        -13    1    5    5    0    0  0.51147457550E+03  0.24652419659E+03 -0.19051822412E+02  0.56810508960E+03  0.00000000000E+00 0. -1.
          1    1    6    6  503    0 -0.88937418894E+02  0.14563669354E+03 -0.37149531611E+02  0.17464248819E+03  0.00000000000E+00 0. -1.
         -1    1    6    6    0  503 -0.25202333703E+03  0.18324714901E+03 -0.75391181626E+02  0.32059181259E+03  0.00000000000E+00 0.  1.
<mgrwt>
<rscale>  0 0.17966404E+04</rscale>
<asrwt>0</asrwt>
<pdfrwt beam="1">  1        2 0.14109133E+00 0.17966404E+04</pdfrwt>
<pdfrwt beam="2">  1       -2 0.13537402E+00 0.17966404E+04</pdfrwt>
<totfact> 0.10561283E+01</totfact>
</mgrwt>
</event>
<event>
12    3  0.4806716E-008  0.1424278E+04  0.7818608E-02  0.8936430E-01
         -2   -1    0    0    0  501 -0.00000000000E+00  0.00000000000E+00  0.19462513906E+03  0.19462513906E+03  0.00000000000E+00 0.  1.
          2   -1    0    0  501    0  0.00000000000E+00 -0.00000000000E+00 -0.26057382470E+04  0.26057382470E+04  0.00000000000E+00 0. -1.
         23    2    1    2    0    0  0.17867569046E+03  0.16691015244E+03 -0.60908965737E+02  0.26785467519E+03  0.90841750118E+02 0.  0.
        254    2    1    2    0    0 -0.17867569046E+03 -0.16691015244E+03 -0.23502041422E+04  0.25325087108E+04  0.91123918884E+03 0.  0.
         23    2    4    4    0    0 -0.26489019318E+03  0.12367705641E+03 -0.21171674586E+04  0.21392142985E+04  0.91525617202E+02 0.  0.
         23    2    4    4    0    0  0.86214502725E+02 -0.29058720885E+03 -0.23303668360E+03  0.39329441233E+03  0.92198332069E+02 0.  0.
          2    1    3    3  502    0  0.10453567525E+03  0.15306457525E+03 -0.40664813954E+02  0.18976327013E+03  0.00000000000E+00 0.  1.
         -2    1    3    3    0  502  0.74140015209E+02  0.13845577194E+02 -0.20244151783E+02  0.78091405061E+02  0.00000000000E+00 0. -1.
         13    1    5    5    0    0 -0.15743110777E+03  0.55160630022E+02 -0.14841415698E+04  0.14934870096E+04  0.00000000000E+00 0.  1.
        -13    1    5    5    0    0 -0.10745908541E+03  0.68516426391E+02 -0.63302588879E+03  0.64572728887E+03  0.00000000000E+00 0. -1.
          1    1    6    6  503    0  0.87349525828E+02 -0.26593475361E+03 -0.23881838030E+03  0.36794762074E+03  0.00000000000E+00 0. -1.
         -1    1    6    6    0  503 -0.11350231033E+01 -0.24652455245E+02  0.57816967012E+01  0.25346791588E+02  0.00000000000E+00 0.  1.
<mgrwt>
<rscale>  0 0.14242783E+04</rscale>
<asrwt>0</asrwt>
<pdfrwt beam="1">  1        2 0.40088284E+00 0.14242783E+04</pdfrwt>
<pdfrwt beam="2">  1       -2 0.29942327E-01 0.14242783E+04</pdfrwt>
<totfact> 0.30326007E+01</totfact>
</mgrwt>
</event>
<event>
12    3  0.4806716E-008  0.1936945E+04  0.7818608E-02  0.8636682E-01
          2   -1    0    0  501    0  0.00000000000E+00  0.00000000000E+00  0.59266903743E+03  0.59266903743E+03  0.00000000000E+00 0. -1.
         -2   -1    0    0    0  501 -0.00000000000E+00 -0.00000000000E+00 -0.15825671729E+04  0.15825671729E+04  0.00000000000E+00 0.  1.
         23    2    1    2    0    0  0.47440332371E+03  0.88064030386E+02  0.26995950707E+03  0.56025464697E+03  0.90517108901E+02 0.  0.
        254    2    1    2    0    0 -0.47440332371E+03 -0.88064030386E+02 -0.12598576425E+04  0.16149815633E+04  0.88775581299E+03 0.  0.
         23    2    4    4    0    0  0.16182826121E+03 -0.20662656158E+02 -0.80070693317E+03  0.82215542291E+03  0.90513065984E+02 0.  0.
         23    2    4    4    0    0 -0.63623158492E+03 -0.67401374228E+02 -0.45915070932E+03  0.79282614040E+03  0.91762411290E+02 0.  0.
          1    1    3    3  502    0  0.16545870003E+03  0.15420016526E+02  0.14006735203E+03  0.21733205339E+03  0.00000000000E+00 0. -1.
         -1    1    3    3    0  502  0.30894462368E+03  0.72644013859E+02  0.12989215504E+03  0.34292259359E+03  0.00000000000E+00 0.  1.
         13    1    5    5    0    0  0.13205610955E+02 -0.27945992150E+02 -0.71077333013E+02  0.77507121648E+02  0.00000000000E+00 0.  1.
        -13    1    5    5    0    0  0.14862265026E+03  0.72833359920E+01 -0.72962960016E+03  0.74464830127E+03  0.00000000000E+00 0. -1.
          3    1    6    6  503    0 -0.44006004858E+03 -0.61269901042E+02 -0.26810093274E+03  0.51892673593E+03  0.00000000000E+00 0. -1.
         -3    1    6    6    0  503 -0.19617153635E+03 -0.61314731851E+01 -0.19104977658E+03  0.27389940447E+03  0.00000000000E+00 0.  1.
<mgrwt>
<rscale>  0 0.19369446E+04</rscale>
<asrwt>0</asrwt>
<pdfrwt beam="1">  1        2 0.91179852E-01 0.19369446E+04</pdfrwt>
<pdfrwt beam="2">  1       -2 0.24347187E+00 0.19369446E+04</pdfrwt>
<totfact> 0.33130938E+00</totfact>
</mgrwt>
</event>
<event>
12    3  0.4806716E-008  0.1934696E+04  0.7818608E-02  0.8637776E-01
          1   -1    0    0  501    0  0.00000000000E+00  0.00000000000E+00  0.62899978936E+03  0.62899978936E+03  0.00000000000E+00 0. -1.
         -1   -1    0    0    0  501 -0.00000000000E+00 -0.00000000000E+00 -0.14876986556E+04  0.14876986556E+04  0.00000000000E+00 0.  1.
         23    2    1    2    0    0  0.30267033997E+03 -0.67493568943E+02  0.41729776230E+03  0.52807428290E+03  0.92521939562E+02 0.  0.
        254    2    1    2    0    0 -0.30267033997E+03  0.67493568943E+02 -0.12759966285E+04  0.15886241620E+04  0.89408870682E+03 0.  0.
         23    2    4    4    0    0  0.29893328644E+03 -0.59919819472E+02 -0.35056924923E+03  0.47358462004E+03  0.91826463092E+02 0.  0.
         23    2    4    4    0    0 -0.60160362641E+03  0.12741338841E+03 -0.92542737926E+03  0.11150395420E+04  0.93467914444E+02 0.  0.
          1    1    3    3  502    0  0.11333467911E+03 -0.63501691420E+02  0.21309881947E+03  0.24957628325E+03  0.00000000000E+00 0. -1.
         -1    1    3    3    0  502  0.18933566085E+03 -0.39918775222E+01  0.20419894283E+03  0.27849799966E+03  0.00000000000E+00 0.  1.
         13    1    5    5    0    0  0.22435107975E+03 -0.51277269278E+02 -0.19819628580E+03  0.30371785103E+03  0.00000000000E+00 0.  1.
        -13    1    5    5    0    0  0.74582206690E+02 -0.86425501937E+01 -0.15237296343E+03  0.16986676901E+03  0.00000000000E+00 0. -1.
          4    1    6    6  503    0 -0.13490239262E+03  0.13521336256E+02 -0.14421043454E+03  0.19793466472E+03  0.00000000000E+00 0. -1.
         -4    1    6    6    0  503 -0.46670123379E+03  0.11389205216E+03 -0.78121694472E+03  0.91710487726E+03  0.00000000000E+00 0.  1.
<mgrwt>
<rscale>  0 0.19346960E+04</rscale>
<asrwt>0</asrwt>
<pdfrwt beam="1">  1        1 0.96769200E-01 0.19346960E+04</pdfrwt>
<pdfrwt beam="2">  1       -1 0.22887671E+00 0.19346960E+04</pdfrwt>
<totfact> 0.28635048E+00</totfact>
</mgrwt>
</event>
<event>
12    3  0.4806716E-008  0.2807898E+04  0.7818608E-02  0.8300821E-01
          2   -1    0    0  501    0  0.00000000000E+00  0.00000000000E+00  0.14741540814E+04  0.14741540814E+04  0.00000000000E+00 0. -1.
         -2   -1    0    0    0  501 -0.00000000000E+00 -0.00000000000E+00 -0.13370873206E+04  0.13370873206E+04  0.00000000000E+00 0.  1.
         23    2    1    2    0    0 -0.99929273256E+03  0.34396061198E+03  0.74868577739E+03  0.12982384101E+04  0.89429906465E+02 0.  0.
        254    2    1    2    0    0  0.99929273256E+03 -0.34396061198E+03 -0.61161901654E+03  0.15130029919E+04  0.89342339578E+03 0.  0.
         23    2    4    4    0    0  0.53996150724E+03  0.86964029312E+01 -0.73203122507E+03  0.91427285506E+03  0.91602850842E+02 0.  0.
         23    2    4    4    0    0  0.45933122532E+03 -0.35265701491E+03  0.12041220854E+03  0.59873013683E+03  0.92879126119E+02 0.  0.
          3    1    3    3  502    0 -0.44172570975E+03  0.12040170440E+03  0.36401226664E+03  0.58491290236E+03  0.00000000000E+00 0. -1.
         -3    1    3    3    0  502 -0.55756702281E+03  0.22355890758E+03  0.38467351075E+03  0.71332550771E+03  0.00000000000E+00 0.  1.
         13    1    5    5    0    0  0.35258463027E+03 -0.17824561144E+02 -0.53584512717E+03  0.64168811489E+03  0.00000000000E+00 0. -1.
        -13    1    5    5    0    0  0.18737687697E+03  0.26520964075E+02 -0.19618609791E+03  0.27258474017E+03  0.00000000000E+00 0.  1.
          3    1    6    6  503    0  0.31853429616E+03 -0.22065451046E+03  0.39662163970E+02  0.38951970177E+03  0.00000000000E+00 0. -1.
         -3    1    6    6    0  503  0.14079692916E+03 -0.13200250445E+03  0.80750044565E+02  0.20921043506E+03  0.00000000000E+00 0.  1.
<mgrwt>
<rscale>  0 0.28078980E+04</rscale>
<asrwt>0</asrwt>
<pdfrwt beam="1">  1        2 0.22679293E+00 0.28078980E+04</pdfrwt>
<pdfrwt beam="2">  1       -2 0.20570574E+00 0.28078980E+04</pdfrwt>
<totfact> 0.13937069E+00</totfact>
</mgrwt>
</event>
<event>
12    3  0.4806716E-008  0.1318243E+04  0.7818608E-02  0.9015222E-01
         -1   -1    0    0    0  501 -0.00000000000E+00  0.00000000000E+00  0.73019413306E+03  0.73019413306E+03  0.00000000000E+00 0.  1.
          1   -1    0    0  501    0  0.00000000000E+00 -0.00000000000E+00 -0.59496697798E+03  0.59496697798E+03  0.00000000000E+00 0. -1.
         23    2    1    2    0    0 -0.19064656121E+03  0.75930481819E+02  0.31503781487E+03  0.38633502272E+03  0.88850298878E+02 0.  0.
        254    2    1    2    0    0  0.19064656121E+03 -0.75930481819E+02 -0.17981065980E+03  0.93882608831E+03  0.89830451482E+03 0.  0.
         23    2    4    4    0    0 -0.57764816069E+02 -0.78967518737E+02  0.33453656389E+03  0.36041462954E+03  0.91713410237E+02 0.  0.
         23    2    4    4    0    0  0.24841137728E+03  0.30370369173E+01 -0.51434722369E+03  0.57841145877E+03  0.91045665265E+02 0.  0.
          4    1    3    3  502    0 -0.25174888390E+02  0.37028882961E+02  0.28210135147E+02  0.52921875475E+02  0.00000000000E+00 0. -1.
         -4    1    3    3    0  502 -0.16547167282E+03  0.38901598858E+02  0.28682767973E+03  0.33341314725E+03  0.00000000000E+00 0.  1.
         13    1    5    5    0    0  0.25343121369E+01  0.16394617477E+02  0.84320934701E+02  0.85937339085E+02  0.00000000000E+00 0. -1.
        -13    1    5    5    0    0 -0.60299128206E+02 -0.95362136214E+02  0.25021562919E+03  0.27447729046E+03  0.00000000000E+00 0.  1.
          3    1    6    6  503    0 -0.68279538941E+01  0.61937021269E+01 -0.15054882062E+02  0.17653112312E+02  0.00000000000E+00 0. -1.
         -3    1    6    6    0  503  0.25523933118E+03 -0.31566652097E+01 -0.49929234163E+03  0.56075834646E+03  0.00000000000E+00 0.  1.
<mgrwt>
<rscale>  0 0.13182434E+04</rscale>
<asrwt>0</asrwt>
<pdfrwt beam="1">  1        1 0.91533381E-01 0.13182434E+04</pdfrwt>
<pdfrwt beam="2">  1       -1 0.11233756E+00 0.13182434E+04</pdfrwt>
<totfact> 0.24706354E+01</totfact>
</mgrwt>
</event>
<event>
12    3  0.4806716E-008  0.1723919E+04  0.7818608E-02  0.8747839E-01
         -1   -1    0    0    0  501 -0.00000000000E+00  0.00000000000E+00  0.21974560298E+03  0.21974560298E+03  0.00000000000E+00 0.  1.
          1   -1    0    0  501    0  0.00000000000E+00 -0.00000000000E+00 -0.33810663883E+04  0.33810663883E+04  0.00000000000E+00 0. -1.
         23    2    1    2    0    0 -0.36244567723E+02  0.39622570924E+03 -0.21708844747E+04  0.22091043125E+04  0.95362359041E+02 0.  0.
        254    2    1    2    0    0  0.36244567723E+02 -0.39622570924E+03 -0.99043631063E+03  0.13917076788E+04  0.89307205561E+03 0.  0.
         23    2    4    4    0    0 -0.16633843171E+03  0.16124966502E+03 -0.66352184590E+03  0.70849704471E+03  0.89648725865E+02 0.  0.
         23    2    4    4    0    0  0.20258299943E+03 -0.55747537426E+03 -0.32691446472E+03  0.68321063410E+03  0.89916843445E+02 0.  0.
          1    1    3    3  502    0 -0.48067130907E+02  0.38152175169E+03 -0.19591922301E+04  0.19965729364E+04  0.00000000000E+00 0. -1.
         -1    1    3    3    0  502  0.11822563184E+02  0.14703957555E+02 -0.21169224466E+03  0.21253137607E+03  0.00000000000E+00 0.  1.
         13    1    5    5    0    0 -0.34588199929E+02  0.74866205942E+02 -0.32192648665E+03  0.33232206543E+03  0.00000000000E+00 0.  1.
        -13    1    5    5    0    0 -0.13175023178E+03  0.86383459080E+02 -0.34159535925E+03  0.37617497928E+03  0.00000000000E+00 0. -1.
          1    1    6    6  503    0  0.15674965349E+03 -0.30162387855E+03 -0.19052191500E+03  0.38967424611E+03  0.00000000000E+00 0. -1.
         -1    1    6    6    0  503  0.45833345939E+02 -0.25585149571E+03 -0.13639254973E+03  0.29353638799E+03  0.00000000000E+00 0.  1.
<mgrwt>
<rscale>  0 0.17239193E+04</rscale>
<asrwt>0</asrwt>
<pdfrwt beam="1">  1        1 0.52016403E+00 0.17239193E+04</pdfrwt>
<pdfrwt beam="2">  1       -1 0.33807018E-01 0.17239193E+04</pdfrwt>
<totfact> 0.24427476E+00</totfact>
</mgrwt>
</event>
<event>
12    3  0.4806716E-008  0.2176338E+04  0.7818608E-02  0.8528342E-01
          1   -1    0    0  501    0  0.00000000000E+00  0.00000000000E+00  0.29163498901E+04  0.29163498901E+04  0.00000000000E+00 0. -1.
         -1   -1    0    0    0  501 -0.00000000000E+00 -0.00000000000E+00 -0.40602544835E+03  0.40602544835E+03  0.00000000000E+00 0.  1.
         23    2    1    2    0    0  0.88473274970E+03  0.14007697257E+03  0.10131721319E+04  0.13553593208E+04  0.90041785696E+02 0.  0.
        254    2    1    2    0    0 -0.88473274970E+03 -0.14007697257E+03  0.14971523098E+04  0.19670160176E+04  0.90846759867E+03 0.  0.
         23    2    4    4    0    0 -0.13099090303E+03 -0.26500737703E+03  0.29893199204E+02  0.31018243833E+03  0.89061861252E+02 0.  0.
         23    2    4    4    0    0 -0.75374184667E+03  0.12493040446E+03  0.14672591106E+04  0.16568335792E+04  0.92270440237E+02 0.  0.
          2    1    3    3  502    0  0.75088212233E+03  0.96769015231E+02  0.88921318358E+03  0.11678562796E+04  0.00000000000E+00 0. -1.
         -2    1    3    3    0  502  0.13385062737E+03  0.43307957341E+02  0.12395894829E+03  0.18750304125E+03  0.00000000000E+00 0.  1.
         13    1    5    5    0    0 -0.10905618178E+03 -0.26057045487E+03  0.40599394927E+02  0.28537435695E+03  0.00000000000E+00 0. -1.
        -13    1    5    5    0    0 -0.21934721250E+02 -0.44369221565E+01 -0.10706195723E+02  0.24808081373E+02  0.00000000000E+00 0.  1.
          2    1    6    6  503    0 -0.26216397568E+03  0.42643081902E+02  0.60795214635E+03  0.66344117662E+03  0.00000000000E+00 0. -1.
         -2    1    6    6    0  503 -0.49157787099E+03  0.82287322557E+02  0.85930696428E+03  0.99339240261E+03  0.00000000000E+00 0.  1.
<mgrwt>
<rscale>  0 0.21763385E+04</rscale>
<asrwt>0</asrwt>
<pdfrwt beam="1">  1        1 0.44866920E+00 0.21763385E+04</pdfrwt>
<pdfrwt beam="2">  1       -1 0.62465455E-01 0.21763385E+04</pdfrwt>
<totfact> 0.16341192E+00</totfact>
</mgrwt>
</event>
<event>
12    3  0.4806716E-008  0.1375857E+04  0.7818608E-02  0.8971483E-01
         -2   -1    0    0    0  501 -0.00000000000E+00  0.00000000000E+00  0.54359584663E+03  0.54359584663E+03  0.00000000000E+00 0.  1.
          2   -1    0    0  501    0  0.00000000000E+00 -0.00000000000E+00 -0.87058301161E+03  0.87058301161E+03  0.00000000000E+00 0. -1.
         23    2    1    2    0    0 -0.38080836523E+03  0.67110286904E+02 -0.17661532707E+03  0.43493553170E+03  0.91962717126E+02 0.  0.
        254    2    1    2    0    0  0.38080836523E+03 -0.67110286904E+02 -0.15037183791E+03  0.97924332655E+03  0.88701014724E+03 0.  0.
         23    2    4    4    0    0 -0.12248170261E+03  0.20861315501E+03  0.17583601560E+03  0.31306328839E+03  0.92569445508E+02 0.  0.
         23    2    4    4    0    0  0.50329006785E+03 -0.27572344191E+03 -0.32620785351E+03  0.66618003816E+03  0.89777339774E+02 0.  0.
          4    1    3    3  502    0 -0.37134332370E+03  0.45938382595E+02 -0.16402050137E+03  0.40854488606E+03  0.00000000000E+00 0. -1.
         -4    1    3    3    0  502 -0.94650415330E+01  0.21171904309E+02 -0.12594825694E+02  0.26390645645E+02  0.00000000000E+00 0.  1.
         13    1    5    5    0    0  0.13816390861E+02  0.13129828876E+02  0.45816623678E+01  0.19602976631E+02  0.00000000000E+00 0. -1.
        -13    1    5    5    0    0 -0.13629809347E+03  0.19548332613E+03  0.17125435323E+03  0.29346031176E+03  0.00000000000E+00 0.  1.
          3    1    6    6  503    0  0.11473317533E+03 -0.95396137174E+02 -0.11612837746E+03  0.18907650452E+03  0.00000000000E+00 0. -1.
         -3    1    6    6    0  503  0.38855689252E+03 -0.18032730473E+03 -0.21007947605E+03  0.47710353364E+03  0.00000000000E+00 0.  1.
<mgrwt>
<rscale>  0 0.13758565E+04</rscale>
<asrwt>0</asrwt>
<pdfrwt beam="1">  1        2 0.13393585E+00 0.13758565E+04</pdfrwt>
<pdfrwt beam="2">  1       -2 0.83630131E-01 0.13758565E+04</pdfrwt>
<totfact> 0.37450369E+01</totfact>
</mgrwt>
</event>
<event>
12    3  0.4806716E-008  0.1641967E+04  0.7818608E-02  0.8795173E-01
         -2   -1    0    0    0  501 -0.00000000000E+00  0.00000000000E+00  0.37159308482E+03  0.37159308482E+03  0.00000000000E+00 0.  1.
          2   -1    0    0  501    0  0.00000000000E+00 -0.00000000000E+00 -0.18138497451E+04  0.18138497451E+04  0.00000000000E+00 0. -1.
         23    2    1    2    0    0  0.45260707058E+02  0.34401722024E+03  0.95367877410E+02  0.37065389993E+03  0.88842006210E+02 0.  0.
        254    2    1    2    0    0 -0.45260707058E+02 -0.34401722024E+03 -0.15376245377E+04  0.18147889300E+04  0.89931822069E+03 0.  0.
         23    2    4    4    0    0 -0.26760256370E+02 -0.13501725488E+03 -0.15750856528E+04  0.15841013975E+04  0.97655791238E+02 0.  0.
         23    2    4    4    0    0 -0.18500450688E+02 -0.20899996536E+03  0.37461115041E+02  0.23068753252E+03  0.88261828230E+02 0.  0.
          1    1    3    3  502    0  0.16562825491E+02  0.46406240831E+02  0.46394882498E+02  0.67678294144E+02  0.00000000000E+00 0. -1.
         -1    1    3    3    0  502  0.28697881567E+02  0.29761097941E+03  0.48972994913E+02  0.30297560579E+03  0.00000000000E+00 0.  1.
         13    1    5    5    0    0 -0.27927034395E+02 -0.15654405188E+02 -0.12233365105E+03  0.12645355602E+03  0.00000000000E+00 0. -1.
        -13    1    5    5    0    0  0.11667780248E+01 -0.11936284969E+03 -0.14527520017E+04  0.14576478415E+04  0.00000000000E+00 0.  1.
          2    1    6    6  503    0 -0.13344705554E+02 -0.20926112938E+03  0.17891095023E+02  0.21044807605E+03  0.00000000000E+00 0. -1.
         -2    1    6    6    0  503 -0.51557451336E+01  0.26116401246E+00  0.19570020017E+02  0.20239456465E+02  0.00000000000E+00 0.  1.
<mgrwt>
<rscale>  0 0.16419671E+04</rscale>
<asrwt>0</asrwt>
<pdfrwt beam="1">  1        2 0.27905380E+00 0.16419671E+04</pdfrwt>
<pdfrwt beam="2">  1       -2 0.57168167E-01 0.16419671E+04</pdfrwt>
<totfact> 0.23235477E+01</totfact>
</mgrwt>
</event>
<event>
12    3  0.4806716E-008  0.1402094E+04  0.7818608E-02  0.8952304E-01
          2   -1    0    0  501    0  0.00000000000E+00  0.00000000000E+00  0.40861026941E+03  0.40861026941E+03  0.00000000000E+00 0. -1.
         -2   -1    0    0    0  501 -0.00000000000E+00 -0.00000000000E+00 -0.12027766134E+04  0.12027766134E+04  0.00000000000E+00 0.  1.
         23    2    1    2    0    0 -0.12791564599E+03 -0.56571375510E+02  0.20657790203E+03  0.26565668762E+03  0.91303412049E+02 0.  0.
        254    2    1    2    0    0  0.12791564599E+03  0.56571375510E+02 -0.10007442460E+04  0.13457301951E+04  0.88878455165E+03 0.  0.
         23    2    4    4    0    0 -0.95154938594E+02 -0.32668437312E+03 -0.75096829105E+03  0.82899850269E+03  0.86648723659E+02 0.  0.
         23    2    4    4    0    0  0.22307058459E+03  0.38325574863E+03 -0.24977595492E+03  0.51673169246E+03  0.89320545027E+02 0.  0.
          2    1    3    3  502    0 -0.12490662999E+03 -0.41173344337E+02  0.21163614725E+03  0.24917216803E+03  0.00000000000E+00 0. -1.
         -2    1    3    3    0  502 -0.30090160039E+01 -0.15398031173E+02 -0.50582452181E+01  0.16484519587E+02  0.00000000000E+00 0.  1.
         13    1    5    5    0    0 -0.92223765448E+02 -0.18879620972E+03 -0.39837424969E+03  0.45039013592E+03  0.00000000000E+00 0. -1.
        -13    1    5    5    0    0 -0.29311731466E+01 -0.13788816340E+03 -0.35259404136E+03  0.37860836676E+03  0.00000000000E+00 0.  1.
          1    1    6    6  503    0  0.94938620310E+02  0.85122638267E+02 -0.61521287508E+02  0.14157709557E+03  0.00000000000E+00 0. -1.
         -1    1    6    6    0  503  0.12813196428E+03  0.29813311037E+03 -0.18825466742E+03  0.37515459689E+03  0.00000000000E+00 0.  1.
<mgrwt>
<rscale>  0 0.14020940E+04</rscale>
<asrwt>0</asrwt>
<pdfrwt beam="1">  1        2 0.62863120E-01 0.14020940E+04</pdfrwt>
<pdfrwt beam="2">  1       -2 0.18504255E+00 0.14020940E+04</pdfrwt>
<totfact> 0.12634287E+01</totfact>
</mgrwt>
</event>
<event>
12    3  0.4806716E-008  0.1371214E+04  0.7818608E-02  0.8974923E-01
         -1   -1    0    0    0  501 -0.00000000000E+00  0.00000000000E+00  0.61871408045E+03  0.61871408045E+03  0.00000000000E+00 0.  1.
          1   -1    0    0  501    0  0.00000000000E+00 -0.00000000000E+00 -0.75973222536E+03  0.75973222536E+03  0.00000000000E+00 0. -1.
         23    2    1    2    0    0 -0.24734164114E+03  0.27770777393E+03  0.44127300066E+02  0.38564621731E+03  0.92066775596E+02 0.  0.
        254    2    1    2    0    0  0.24734164114E+03 -0.27770777393E+03 -0.18514544497E+03  0.99280008850E+03  0.90170598578E+03 0.  0.
         23    2    4    4    0    0  0.21107774276E+03  0.19804864549E+03  0.20878930728E+03  0.36729430035E+03  0.86804658666E+02 0.  0.
         23    2    4    4    0    0  0.36263898386E+02 -0.47575641942E+03 -0.39393475225E+03  0.62550578815E+03  0.91726010706E+02 0.  0.
          4    1    3    3  502    0 -0.20192734527E+03  0.24407094808E+03  0.48267912237E+01  0.31681000360E+03  0.00000000000E+00 0. -1.
         -4    1    3    3    0  502 -0.45414295874E+02  0.33636825845E+02  0.39300508843E+02  0.68836213710E+02  0.00000000000E+00 0.  1.
         13    1    5    5    0    0  0.20412230008E+03  0.15981419884E+03  0.20006850846E+03  0.32746587550E+03  0.00000000000E+00 0. -1.
        -13    1    5    5    0    0  0.69554426734E+01  0.38234446653E+02  0.87207988213E+01  0.39828424847E+02  0.00000000000E+00 0.  1.
          2    1    6    6  503    0  0.14261916939E+02 -0.25595963626E+03 -0.26958705938E+03  0.37201602150E+03  0.00000000000E+00 0. -1.
         -2    1    6    6    0  503  0.22001981447E+02 -0.21979678316E+03 -0.12434769287E+03  0.25348976665E+03  0.00000000000E+00 0.  1.
<mgrwt>
<rscale>  0 0.13712141E+04</rscale>
<asrwt>0</asrwt>
<pdfrwt beam="1">  1        1 0.11688188E+00 0.13712141E+04</pdfrwt>
<pdfrwt beam="2">  1       -1 0.95186782E-01 0.13712141E+04</pdfrwt>
<totfact> 0.25016167E+01</totfact>
</mgrwt>
</event>
<event>
12    3  0.4806716E-008  0.1691567E+04  0.7818608E-02  0.8766188E-01
          1   -1    0    0  501    0  0.00000000000E+00  0.00000000000E+00  0.11535069295E+04  0.11535069295E+04  0.00000000000E+00 0. -1.
         -1   -1    0    0    0  501 -0.00000000000E+00 -0.00000000000E+00 -0.62015243747E+03  0.62015243747E+03  0.00000000000E+00 0.  1.
         23    2    1    2    0    0 -0.23930116100E+03 -0.52006521954E+03  0.39167931475E+03  0.69936554246E+03  0.89255801766E+02 0.  0.
        254    2    1    2    0    0  0.23930116100E+03  0.52006521954E+03  0.14167517723E+03  0.10742938245E+04  0.89794347662E+03 0.  0.
         23    2    4    4    0    0  0.16327609829E+03  0.73661727424E+03  0.25657827163E+03  0.80215388405E+03  0.91402140299E+02 0.  0.
         23    2    4    4    0    0  0.76025062714E+02 -0.21655205469E+03 -0.11490309440E+03  0.27213994042E+03  0.90458960390E+02 0.  0.
          1    1    3    3  502    0 -0.10523017397E+02 -0.76884138647E+02  0.78836998381E+02  0.11062177446E+03  0.00000000000E+00 0. -1.
         -1    1    3    3    0  502 -0.22877814360E+03 -0.44318108089E+03  0.31284231637E+03  0.58874376801E+03  0.00000000000E+00 0.  1.
         13    1    5    5    0    0  0.12764035402E+03  0.42489052306E+03  0.11743871250E+03  0.45892904436E+03  0.00000000000E+00 0.  1.
        -13    1    5    5    0    0  0.35635744262E+02  0.31172675117E+03  0.13913955912E+03  0.34322483969E+03  0.00000000000E+00 0. -1.
          4    1    6    6  503    0 -0.23101354904E+01 -0.90575402405E+02 -0.11544195004E+02  0.91337334563E+02  0.00000000000E+00 0.  1.
         -4    1    6    6    0  503  0.78335198204E+02 -0.12597665229E+03 -0.10335889939E+03  0.18080260585E+03  0.00000000000E+00 0. -1.
<mgrwt>
<rscale>  0 0.16915675E+04</rscale>
<asrwt>0</asrwt>
<pdfrwt beam="1">  1        1 0.17746260E+00 0.16915675E+04</pdfrwt>
<pdfrwt beam="2">  1       -1 0.95408067E-01 0.16915675E+04</pdfrwt>
<totfact> 0.11678616E+01</totfact>
</mgrwt>
</event>
<event>
12    3  0.4806716E-008  0.1954707E+04  0.7818608E-02  0.8628095E-01
          2   -1    0    0  501    0  0.00000000000E+00  0.00000000000E+00  0.75437683658E+03  0.75437683658E+03  0.00000000000E+00 0. -1.
         -2   -1    0    0    0  501 -0.00000000000E+00 -0.00000000000E+00 -0.12662364046E+04  0.12662364046E+04  0.00000000000E+00 0.  1.
         23    2    1    2    0    0  0.27966401768E+03 -0.43424757822E+03 -0.78887328571E+03  0.94735247657E+03  0.91502633819E+02 0.  0.
        254    2    1    2    0    0 -0.27966401768E+03  0.43424757822E+03  0.27701371771E+03  0.10732607646E+04  0.89909351407E+03 0.  0.
         23    2    4    4    0    0 -0.36845118916E+02 -0.12220207289E+01 -0.29357353303E+03  0.30960174704E+03  0.91152434704E+02 0.  0.
         23    2    4    4    0    0 -0.24281889876E+03  0.43546959895E+03  0.57058725074E+03  0.76365901755E+03  0.94923628132E+02 0.  0.
          3    1    3    3  502    0  0.81623344002E+02 -0.85565578515E+02 -0.24055757359E+03  0.26805183216E+03  0.00000000000E+00 0. -1.
         -3    1    3    3    0  502  0.19804067367E+03 -0.34868199970E+03 -0.54831571212E+03  0.67930064441E+03  0.00000000000E+00 0.  1.
         13    1    5    5    0    0 -0.53493543024E+02  0.30762782596E+02 -0.20076801856E+03  0.21003739004E+03  0.00000000000E+00 0. -1.
        -13    1    5    5    0    0  0.16648424108E+02 -0.31984803325E+02 -0.92805514476E+02  0.99564357006E+02  0.00000000000E+00 0.  1.
          4    1    6    6  503    0 -0.24349782279E+03  0.37876486302E+03  0.49498310243E+03  0.66915041870E+03  0.00000000000E+00 0. -1.
         -4    1    6    6    0  503  0.67892402663E+00  0.56704735927E+02  0.75604148306E+02  0.94508598844E+02  0.00000000000E+00 0.  1.
<mgrwt>
<rscale>  0 0.19547065E+04</rscale>
<asrwt>0</asrwt>
<pdfrwt beam="1">  1        2 0.11605797E+00 0.19547065E+04</pdfrwt>
<pdfrwt beam="2">  1       -2 0.19480560E+00 0.19547065E+04</pdfrwt>
<totfact> 0.49924483E+00</totfact>
</mgrwt>
</event>
<event>
12    3  0.4806716E-008  0.1434247E+04  0.7818608E-02  0.8929396E-01
          1   -1    0    0  501    0  0.00000000000E+00  0.00000000000E+00  0.93792316126E+03  0.93792316126E+03  0.00000000000E+00 0. -1.
         -1   -1    0    0    0  501 -0.00000000000E+00 -0.00000000000E+00 -0.54830266706E+03  0.54830266706E+03  0.00000000000E+00 0.  1.
         23    2    1    2    0    0  0.12370264328E+03 -0.17026817719E+03 -0.26090348210E+03  0.34734879616E+03  0.91032758420E+02 0.  0.
        254    2    1    2    0    0 -0.12370264328E+03  0.17026817719E+03  0.65052397629E+03  0.11388770322E+04  0.91080505846E+03 0.  0.
         23    2    4    4    0    0  0.25746617805E+03  0.28066228273E+03  0.61572681287E+03  0.72996866959E+03  0.93137536506E+02 0.  0.
         23    2    4    4    0    0 -0.38116882133E+03 -0.11039410554E+03  0.34797163423E+02  0.40890836257E+03  0.92296681959E+02 0.  0.
          1    1    3    3  502    0  0.94140199617E+01  0.76625065096E+01 -0.85605897693E+00  0.12168426966E+02  0.00000000000E+00 0. -1.
         -1    1    3    3    0  502  0.11428862332E+03 -0.17793068370E+03 -0.26004742312E+03  0.33518036920E+03  0.00000000000E+00 0.  1.
         13    1    5    5    0    0  0.20101454807E+03  0.20782474891E+03  0.53184149650E+03  0.60535390656E+03  0.00000000000E+00 0.  1.
        -13    1    5    5    0    0  0.56451629982E+02  0.72837533824E+02  0.83885316372E+02  0.12461476303E+03  0.00000000000E+00 0. -1.
          3    1    6    6  503    0 -0.94165038025E+02  0.12749100049E+02  0.11842936449E+02  0.95759328956E+02  0.00000000000E+00 0. -1.
         -3    1    6    6    0  503 -0.28700378331E+03 -0.12314320559E+03  0.22954226974E+02  0.31314903361E+03  0.00000000000E+00 0.  1.
<mgrwt>
<rscale>  0 0.14342465E+04</rscale>
<asrwt>0</asrwt>
<pdfrwt beam="1">  1        1 0.14429587E+00 0.14342465E+04</pdfrwt>
<pdfrwt beam="2">  1       -1 0.84354257E-01 0.14342465E+04</pdfrwt>
<totfact> 0.22948612E+01</totfact>
</mgrwt>
</event>
<event>
12    3  0.4806716E-008  0.1218645E+04  0.7818608E-02  0.9096691E-01
          1   -1    0    0  501    0  0.00000000000E+00  0.00000000000E+00  0.40082809892E+03  0.40082809892E+03  0.00000000000E+00 0. -1.
         -1   -1    0    0    0  501 -0.00000000000E+00 -0.00000000000E+00 -0.92626777923E+03  0.92626777923E+03  0.00000000000E+00 0.  1.
         23    2    1    2    0    0 -0.11589623027E+03  0.45659281040E+00 -0.37761823277E+03  0.40556832092E+03  0.91967323264E+02 0.  0.
        254    2    1    2    0    0  0.11589623027E+03 -0.45659281040E+00 -0.14782144754E+03  0.92152755723E+03  0.90218053277E+03 0.  0.
         23    2    4    4    0    0 -0.19691034767E+03 -0.12351179514E+03 -0.41347028881E+03  0.48323807172E+03  0.92371563148E+02 0.  0.
         23    2    4    4    0    0  0.31280657794E+03  0.12305520233E+03  0.26564884127E+03  0.43828948551E+03  0.92400369154E+02 0.  0.
          1    1    3    3  502    0 -0.36016380893E+02 -0.14348897382E+02 -0.31237574107E+02  0.49788116904E+02  0.00000000000E+00 0. -1.
         -1    1    3    3    0  502 -0.79879849374E+02  0.14805490192E+02 -0.34638065866E+03  0.35578020402E+03  0.00000000000E+00 0.  1.
         13    1    5    5    0    0 -0.16613163392E+03 -0.13313108754E+03 -0.31988196301E+03  0.38425001824E+03  0.00000000000E+00 0.  1.
        -13    1    5    5    0    0 -0.30778713746E+02  0.96192924043E+01 -0.93588325799E+02  0.98988053482E+02  0.00000000000E+00 0. -1.
          1    1    6    6  503    0  0.23726354922E+03  0.48275424142E+02  0.19118629349E+03  0.30850722387E+03  0.00000000000E+00 0. -1.
         -1    1    6    6    0  503  0.75543028715E+02  0.74779778184E+02  0.74462547785E+02  0.12978226164E+03  0.00000000000E+00 0.  1.
<mgrwt>
<rscale>  0 0.12186454E+04</rscale>
<asrwt>0</asrwt>
<pdfrwt beam="1">  1        1 0.61665861E-01 0.12186454E+04</pdfrwt>
<pdfrwt beam="2">  1       -1 0.14250274E+00 0.12186454E+04</pdfrwt>
<totfact> 0.23662956E+01</totfact>
</mgrwt>
</event>
<event>
12    3  0.4806716E-008  0.1383492E+04  0.7818608E-02  0.8965855E-01
          1   -1    0    0  501    0  0.00000000000E+00  0.00000000000E+00  0.80175884983E+03  0.80175884983E+03  0.00000000000E+00 0. -1.
         -1   -1    0    0    0  501 -0.00000000000E+00 -0.00000000000E+00 -0.59682847375E+03  0.59682847375E+03  0.00000000000E+00 0.  1.
         23    2    1    2    0    0 -0.50301365070E+02 -0.34643372268E+03  0.23795319476E+03  0.43291905866E+03  0.90833016668E+02 0.  0.
        254    2    1    2    0    0  0.50301365070E+02  0.34643372268E+03 -0.33022818684E+02  0.96566826492E+03  0.89937652836E+03 0.  0.
         23    2    4    4    0    0 -0.20079019286E+03 -0.15893217302E+03  0.21215537673E+03  0.34421100422E+03  0.88854793800E+02 0.  0.
         23    2    4    4    0    0  0.25109155793E+03  0.50536589570E+03 -0.24517819542E+03  0.62145726069E+03  0.87493544631E+02 0.  0.
          1    1    3    3  502    0 -0.52829269622E+02 -0.15704978980E+03  0.15227556271E+03  0.22504091896E+03  0.00000000000E+00 0. -1.
         -1    1    3    3    0  502  0.25279045520E+01 -0.18938393288E+03  0.85677632053E+02  0.20787813971E+03  0.00000000000E+00 0.  1.
         13    1    5    5    0    0 -0.20250430274E+03 -0.13289829007E+03  0.20455194145E+03  0.31703540005E+03  0.00000000000E+00 0.  1.
        -13    1    5    5    0    0  0.17141098789E+01 -0.26033882952E+02  0.76034352805E+01  0.27175604175E+02  0.00000000000E+00 0. -1.
          1    1    6    6  503    0  0.13710820956E+03  0.35290191975E+03 -0.18790821384E+03  0.42266762700E+03  0.00000000000E+00 0. -1.
         -1    1    6    6    0  503  0.11398334838E+03  0.15246397596E+03 -0.57269981577E+02  0.19878963369E+03  0.00000000000E+00 0.  1.
<mgrwt>
<rscale>  0 0.13834920E+04</rscale>
<asrwt>0</asrwt>
<pdfrwt beam="1">  1        1 0.12334752E+00 0.13834920E+04</pdfrwt>
<pdfrwt beam="2">  1       -1 0.91819765E-01 0.13834920E+04</pdfrwt>
<totfact> 0.24864582E+01</totfact>
</mgrwt>
</event>
<event>
12    3  0.4806716E-008  0.1498188E+04  0.7818608E-02  0.8885659E-01
          1   -1    0    0  501    0  0.00000000000E+00  0.00000000000E+00  0.11949874607E+04  0.11949874607E+04  0.00000000000E+00 0. -1.
         -1   -1    0    0    0  501 -0.00000000000E+00 -0.00000000000E+00 -0.46957940721E+03  0.46957940721E+03  0.00000000000E+00 0.  1.
         23    2    1    2    0    0  0.28414018771E+03  0.22391692616E+03 -0.10865636133E+03  0.38786179149E+03  0.88068884118E+02 0.  0.
        254    2    1    2    0    0 -0.28414018771E+03 -0.22391692616E+03  0.83406441483E+03  0.12767050764E+04  0.89634701317E+03 0.  0.
         23    2    4    4    0    0 -0.30886826636E+03  0.15475823963E+03  0.80962729331E+03  0.88558913663E+03  0.97067224859E+02 0.  0.
         23    2    4    4    0    0  0.24728078647E+02 -0.37867516578E+03  0.24437121520E+02  0.39111593981E+03  0.91477573269E+02 0.  0.
          3    1    3    3  502    0  0.11260483844E+03  0.59747112153E+02 -0.17956008244E+01  0.12748643548E+03  0.00000000000E+00 0. -1.
         -3    1    3    3    0  502  0.17153534928E+03  0.16416981400E+03 -0.10686076051E+03  0.26037535601E+03  0.00000000000E+00 0.  1.
         13    1    5    5    0    0 -0.30778556960E+03  0.14188145974E+03  0.72896318842E+03  0.80389653286E+03  0.00000000000E+00 0.  1.
        -13    1    5    5    0    0 -0.10826967604E+01  0.12876779884E+02  0.80664104893E+02  0.81692603770E+02  0.00000000000E+00 0. -1.
          1    1    6    6  503    0 -0.29881786063E+02 -0.61337048900E+02  0.79679787056E+01  0.68692382334E+02  0.00000000000E+00 0. -1.
         -1    1    6    6    0  503  0.54609864710E+02 -0.31733811688E+03  0.16469142814E+02  0.32242355748E+03  0.00000000000E+00 0.  1.
<mgrwt>
<rscale>  0 0.14981876E+04</rscale>
<asrwt>0</asrwt>
<pdfrwt beam="1">  1        1 0.18384422E+00 0.14981876E+04</pdfrwt>
<pdfrwt beam="2">  1       -1 0.72242986E-01 0.14981876E+04</pdfrwt>
<totfact> 0.20155901E+01</totfact>
</mgrwt>
</event>
<event>
12    3  0.4806716E-008  0.1908380E+04  0.7818608E-02  0.8650696E-01
          2   -1    0    0  501    0  0.00000000000E+00  0.00000000000E+00  0.23755984722E+04  0.23755984722E+04  0.00000000000E+00 0. -1.
         -2   -1    0    0    0  501 -0.00000000000E+00 -0.00000000000E+00 -0.38326296561E+03  0.38326296561E+03  0.00000000000E+00 0.  1.
         23    2    1    2    0    0  0.24551953728E+03 -0.60393702671E+03  0.12772069070E+04  0.14369597730E+04  0.92607398911E+02 0.  0.
        254    2    1    2    0    0 -0.24551953728E+03  0.60393702671E+03  0.71512859958E+03  0.13219016649E+04  0.90055278702E+03 0.  0.
         23    2    4    4    0    0 -0.23281903821E+03  0.55739661098E+03  0.91426617361E+03  0.10994986684E+04  0.90105489422E+02 0.  0.
         23    2    4    4    0    0 -0.12700499065E+02  0.46540415730E+02 -0.19913757402E+03  0.22240299642E+03  0.86487030558E+02 0.  0.
          1    1    3    3  502    0  0.23715800451E+03 -0.56545902719E+03  0.12372556085E+04  0.13808654066E+04  0.00000000000E+00 0. -1.
         -1    1    3    3    0  502  0.83615327699E+01 -0.38477999525E+02  0.39951298542E+02  0.56094366321E+02  0.00000000000E+00 0.  1.
         13    1    5    5    0    0 -0.13661729019E+03  0.41343892910E+03  0.69465375099E+03  0.81984136626E+03  0.00000000000E+00 0. -1.
        -13    1    5    5    0    0 -0.96201748025E+02  0.14395768188E+03  0.21961242262E+03  0.27965730218E+03  0.00000000000E+00 0.  1.
          2    1    6    6  503    0 -0.85953795493E+01 -0.15001377338E+02 -0.39947884143E+01  0.17744864218E+02  0.00000000000E+00 0. -1.
         -2    1    6    6    0  503 -0.41051195154E+01  0.61541793068E+02 -0.19514278561E+03  0.20465813220E+03  0.00000000000E+00 0.  1.
<mgrwt>
<rscale>  0 0.19083804E+04</rscale>
<asrwt>0</asrwt>
<pdfrwt beam="1">  1        2 0.36547668E+00 0.19083804E+04</pdfrwt>
<pdfrwt beam="2">  1       -2 0.58963534E-01 0.19083804E+04</pdfrwt>
<totfact> 0.10329971E+01</totfact>
</mgrwt>
</event>
<event>
12    3  0.4806716E-008  0.3046617E+04  0.7818608E-02  0.8230543E-01
          2   -1    0    0  501    0  0.00000000000E+00  0.00000000000E+00  0.23351758922E+04  0.23351758922E+04  0.00000000000E+00 0. -1.
         -2   -1    0    0    0  501 -0.00000000000E+00 -0.00000000000E+00 -0.99370196589E+03  0.99370196589E+03  0.00000000000E+00 0.  1.
         23    2    1    2    0    0 -0.43743498260E+02  0.12529955330E+04  0.12652332437E+04  0.17835506933E+04  0.91250290020E+02 0.  0.
        254    2    1    2    0    0  0.43743498260E+02 -0.12529955330E+04  0.76240682616E+02  0.15453271648E+04  0.90017337505E+03 0.  0.
         23    2    4    4    0    0 -0.98419644408E+02 -0.16796589654E+03  0.35401463240E+03  0.41267366088E+03  0.84108392121E+02 0.  0.
         23    2    4    4    0    0  0.14216314267E+03 -0.10850296364E+04 -0.27777394979E+03  0.11326535039E+04  0.90807056800E+02 0.  0.
          1    1    3    3  502    0 -0.60173598948E+02  0.56857906942E+03  0.60563997550E+03  0.83288822786E+03  0.00000000000E+00 0. -1.
         -1    1    3    3    0  502  0.16430100688E+02  0.68441646357E+03  0.65959326821E+03  0.95066246548E+03  0.00000000000E+00 0.  1.
         13    1    5    5    0    0 -0.79162473111E+02 -0.16226622918E+03  0.26000762775E+03  0.31654540396E+03  0.00000000000E+00 0. -1.
        -13    1    5    5    0    0 -0.19257171297E+02 -0.56996673549E+01  0.94007004654E+02  0.96128256919E+02  0.00000000000E+00 0.  1.
          4    1    6    6  503    0  0.15027604814E+03 -0.10551718115E+04 -0.26039854001E+03  0.10971681011E+04  0.00000000000E+00 0. -1.
         -4    1    6    6    0  503 -0.81129054748E+01 -0.29857824996E+02 -0.17375409781E+02  0.35485402827E+02  0.00000000000E+00 0.  1.
<mgrwt>
<rscale>  0 0.30466171E+04</rscale>
<asrwt>0</asrwt>
<pdfrwt beam="1">  1        2 0.35925783E+00 0.30466171E+04</pdfrwt>
<pdfrwt beam="2">  1       -2 0.15287723E+00 0.30466171E+04</pdfrwt>
<totfact> 0.10515374E+00</totfact>
</mgrwt>
</event>
<event>
12    3  0.4806716E-008  0.1493754E+04  0.7818608E-02  0.8888617E-01
         -2   -1    0    0    0  501 -0.00000000000E+00  0.00000000000E+00  0.85469527101E+03  0.85469527101E+03  0.00000000000E+00 0.  1.
          2   -1    0    0  501    0  0.00000000000E+00 -0.00000000000E+00 -0.65265938191E+03  0.65265938191E+03  0.00000000000E+00 0. -1.
         23    2    1    2    0    0  0.45230148759E+03 -0.86406785600E+02  0.15013415122E+03  0.49339087061E+03  0.94082514673E+02 0.  0.
        254    2    1    2    0    0 -0.45230148759E+03  0.86406785600E+02  0.51901737884E+02  0.10139637823E+04  0.90187914554E+03 0.  0.
         23    2    4    4    0    0  0.19685627918E+03  0.25558033844E+03  0.35260619634E+01  0.33519442961E+03  0.90934968423E+02 0.  0.
         23    2    4    4    0    0 -0.64915776677E+03 -0.16917355284E+03  0.48375675921E+02  0.67876935269E+03  0.91444688191E+02 0.  0.
          2    1    3    3  502    0  0.12261463890E+03 -0.53646759403E+01  0.14033449621E+01  0.12273996414E+03  0.00000000000E+00 0. -1.
         -2    1    3    3    0  502  0.32968684869E+03 -0.81042109659E+02  0.14873080625E+03  0.37065090647E+03  0.00000000000E+00 0.  1.
         13    1    5    5    0    0  0.55682170513E+02  0.83611616134E+02  0.42919338162E+02  0.10924045063E+03  0.00000000000E+00 0. -1.
        -13    1    5    5    0    0  0.14117410867E+03  0.17196872230E+03 -0.39393276198E+02  0.22595397898E+03  0.00000000000E+00 0.  1.
          4    1    6    6  503    0 -0.74042105498E+02 -0.17624420923E+01  0.28793148016E+02  0.79463104403E+02  0.00000000000E+00 0. -1.
         -4    1    6    6    0  503 -0.57511566127E+03 -0.16741111075E+03  0.19582527904E+02  0.59930624829E+03  0.00000000000E+00 0.  1.
<mgrwt>
<rscale>  0 0.14937535E+04</rscale>
<asrwt>0</asrwt>
<pdfrwt beam="1">  1        2 0.10040914E+00 0.14937535E+04</pdfrwt>
<pdfrwt beam="2">  1       -2 0.13149158E+00 0.14937535E+04</pdfrwt>
<totfact> 0.18237798E+01</totfact>
</mgrwt>
</event>
<event>
12    3  0.4806716E-008  0.1686847E+04  0.7818608E-02  0.8768901E-01
         -1   -1    0    0    0  501 -0.00000000000E+00  0.00000000000E+00  0.17308475111E+04  0.17308475111E+04  0.00000000000E+00 0.  1.
          1   -1    0    0  501    0  0.00000000000E+00 -0.00000000000E+00 -0.41099148966E+03  0.41099148966E+03  0.00000000000E+00 0. -1.
         23    2    1    2    0    0  0.52530723580E+03  0.29549427860E+02  0.85581978061E+03  0.10085615454E+04  0.89151742752E+02 0.  0.
        254    2    1    2    0    0 -0.52530723580E+03 -0.29549427860E+02  0.46403624080E+03  0.11332774554E+04  0.89003780671E+03 0.  0.
         23    2    4    4    0    0 -0.41718004369E+03  0.39387058565E+03  0.20943854307E+03  0.61770820818E+03  0.92334717366E+02 0.  0.
         23    2    4    4    0    0 -0.10812719211E+03 -0.42342001351E+03  0.25459769773E+03  0.51556924718E+03  0.10007828652E+03 0.  0.
          3    1    3    3  502    0  0.20854319824E+02  0.19924321627E+02  0.39636853046E+02  0.49020009864E+02  0.00000000000E+00 0. -1.
         -3    1    3    3    0  502  0.50445291598E+03  0.96251062332E+01  0.81618292756E+03  0.95954153550E+03  0.00000000000E+00 0.  1.
         13    1    5    5    0    0 -0.42696415041E+01  0.15845764239E+02 -0.65469399534E+01  0.17668630554E+02  0.00000000000E+00 0. -1.
        -13    1    5    5    0    0 -0.41291040219E+03  0.37802482141E+03  0.21598548302E+03  0.60003957762E+03  0.00000000000E+00 0.  1.
          4    1    6    6  503    0  0.66691794727E+01 -0.44582967577E+02  0.30583017587E+00  0.45080067490E+02  0.00000000000E+00 0. -1.
         -4    1    6    6    0  503 -0.11479637158E+03 -0.37883704594E+03  0.25429186756E+03  0.47048917969E+03  0.00000000000E+00 0.  1.
<mgrwt>
<rscale>  0 0.16868475E+04</rscale>
<asrwt>0</asrwt>
<pdfrwt beam="1">  1        1 0.63229461E-01 0.16868475E+04</pdfrwt>
<pdfrwt beam="2">  1       -1 0.26628423E+00 0.16868475E+04</pdfrwt>
<totfact> 0.30125123E+00</totfact>
</mgrwt>
</event>
<event>
12    3  0.4806716E-008  0.1287514E+04  0.7818608E-02  0.9039526E-01
         -1   -1    0    0    0  501 -0.00000000000E+00  0.00000000000E+00  0.40403158698E+03  0.40403158698E+03  0.00000000000E+00 0.  1.
          1   -1    0    0  501    0  0.00000000000E+00 -0.00000000000E+00 -0.10257191354E+04  0.10257191354E+04  0.00000000000E+00 0. -1.
         23    2    1    2    0    0  0.14553495929E+03 -0.47459720379E+02 -0.55500477798E+03  0.58319710069E+03  0.93036042703E+02 0.  0.
        254    2    1    2    0    0 -0.14553495929E+03  0.47459720379E+02 -0.66682770457E+02  0.84655362171E+03  0.82992384778E+03 0.  0.
         23    2    4    4    0    0  0.14483520527E+03  0.13425269840E+03  0.29463828420E+03  0.36648047022E+03  0.92169370295E+02 0.  0.
         23    2    4    4    0    0 -0.29037016456E+03 -0.86792978025E+02 -0.36132105466E+03  0.48007315148E+03  0.89830243992E+02 0.  0.
          1    1    3    3  502    0  0.10254839767E+03 -0.70293283364E+02 -0.32213008177E+03  0.34528989144E+03  0.00000000000E+00 0. -1.
         -1    1    3    3    0  502  0.42986561616E+02  0.22833562985E+02 -0.23287469621E+03  0.23790720925E+03  0.00000000000E+00 0.  1.
         13    1    5    5    0    0  0.97819901260E+02  0.71988266129E+02  0.10186397109E+03  0.15851596812E+03  0.00000000000E+00 0. -1.
        -13    1    5    5    0    0  0.47015304009E+02  0.62264432275E+02  0.19277431311E+03  0.20796450210E+03  0.00000000000E+00 0.  1.
          2    1    6    6  503    0 -0.22741991664E+03 -0.39303137361E+02 -0.22341606247E+03  0.32121533597E+03  0.00000000000E+00 0. -1.
         -2    1    6    6    0  503 -0.62950247912E+02 -0.47489840664E+02 -0.13790499219E+03  0.15885781552E+03  0.00000000000E+00 0.  1.
<mgrwt>
<rscale>  0 0.12875138E+04</rscale>
<asrwt>0</asrwt>
<pdfrwt beam="1">  1        1 0.15780294E+00 0.12875138E+04</pdfrwt>
<pdfrwt beam="2">  1       -1 0.62158706E-01 0.12875138E+04</pdfrwt>
<totfact> 0.37304271E+01</totfact>
</mgrwt>
</event>
<event>
12    3  0.4806716E-008  0.1164950E+04  0.7818608E-02  0.9144101E-01
         -1   -1    0    0    0  501 -0.00000000000E+00  0.00000000000E+00  0.36818500571E+03  0.36818500571E+03  0.00000000000E+00 0.  1.
          1   -1    0    0  501    0  0.00000000000E+00 -0.00000000000E+00 -0.92148516165E+03  0.92148516165E+03  0.00000000000E+00 0. -1.
         23    2    1    2    0    0 -0.12169607846E+03 -0.11178605485E+02  0.74111611492E+02  0.18436818953E+03  0.11646545247E+03 0.  0.
        254    2    1    2    0    0  0.12169607846E+03  0.11178605485E+02 -0.62741176743E+03  0.11053019778E+04  0.90172725341E+03 0.  0.
         23    2    4    4    0    0 -0.11622223540E+03 -0.40897620753E+02 -0.78562326956E+03  0.80027683614E+03  0.89771205827E+02 0.  0.
         23    2    4    4    0    0  0.23791831387E+03  0.52076226238E+02  0.15821150213E+03  0.30502514169E+03  0.93233042653E+02 0.  0.
          3    1    3    3  502    0 -0.86542956350E+02 -0.42506807276E+02 -0.17120469434E+00  0.96418573261E+02  0.00000000000E+00 0. -1.
         -3    1    3    3    0  502 -0.35153122114E+02  0.31328201791E+02  0.74282816186E+02  0.87949616272E+02  0.00000000000E+00 0.  1.
         13    1    5    5    0    0 -0.23186738758E+02 -0.20369174599E+02 -0.51820102510E+02  0.60314601484E+02  0.00000000000E+00 0. -1.
        -13    1    5    5    0    0 -0.93035496646E+02 -0.20528446154E+02 -0.73380316705E+03  0.73996223465E+03  0.00000000000E+00 0.  1.
          4    1    6    6  503    0  0.66896579846E+01 -0.14020845540E+02 -0.25607227977E+01  0.15744616060E+02  0.00000000000E+00 0. -1.
         -4    1    6    6    0  503  0.23122865588E+03  0.66097071778E+02  0.16077222493E+03  0.28928052563E+03  0.00000000000E+00 0.  1.
<mgrwt>
<rscale>  0 0.11649498E+04</rscale>
<asrwt>0</asrwt>
<pdfrwt beam="1">  1        1 0.14176695E+00 0.11649498E+04</pdfrwt>
<pdfrwt beam="2">  1       -1 0.56643847E-01 0.11649498E+04</pdfrwt>
<totfact> 0.54694080E+01</totfact>
</mgrwt>
</event>
<event>
12    3  0.4806716E-008  0.1631943E+04  0.7818608E-02  0.8801161E-01
         -2   -1    0    0    0  501 -0.00000000000E+00  0.00000000000E+00  0.68481955875E+03  0.68481955875E+03  0.00000000000E+00 0.  1.
          2   -1    0    0  501    0  0.00000000000E+00 -0.00000000000E+00 -0.97224024456E+03  0.97224024456E+03  0.00000000000E+00 0. -1.
         23    2    1    2    0    0 -0.38305571488E+03 -0.36981038149E+03 -0.23474027639E+03  0.58896205151E+03  0.91004954823E+02 0.  0.
        254    2    1    2    0    0  0.38305571488E+03  0.36981038149E+03 -0.52680409422E+02  0.10680977518E+04  0.92442748925E+03 0.  0.
         23    2    4    4    0    0  0.36795034846E+03 -0.20363615444E+03  0.14652861820E+03  0.45427016692E+03  0.89641543266E+02 0.  0.
         23    2    4    4    0    0  0.15105366420E+02  0.57344653593E+03 -0.19920902762E+03  0.61382758487E+03  0.89615654881E+02 0.  0.
          3    1    3    3  502    0 -0.38006847917E+03 -0.36783866071E+03 -0.21840548224E+03  0.57223970838E+03  0.00000000000E+00 0. -1.
         -3    1    3    3    0  502 -0.29872357080E+01 -0.19717207824E+01 -0.16334794150E+02  0.16722343135E+02  0.00000000000E+00 0.  1.
         13    1    5    5    0    0  0.19176613520E+03 -0.68495174079E+02  0.38099183904E+02  0.20716512085E+03  0.00000000000E+00 0.  1.
        -13    1    5    5    0    0  0.17618421326E+03 -0.13514098036E+03  0.10842943430E+03  0.24710504607E+03  0.00000000000E+00 0. -1.
          2    1    6    6  503    0  0.15052385957E+02  0.11298617822E+03 -0.76570510833E+02  0.13731530840E+03  0.00000000000E+00 0. -1.
         -2    1    6    6    0  503  0.52980463302E-01  0.46046035771E+03 -0.12263851679E+03  0.47651227647E+03  0.00000000000E+00 0.  1.
<mgrwt>
<rscale>  0 0.16319426E+04</rscale>
<asrwt>0</asrwt>
<pdfrwt beam="1">  1        2 0.14957542E+00 0.16319426E+04</pdfrwt>
<pdfrwt beam="2">  1       -2 0.10535686E+00 0.16319426E+04</pdfrwt>
<totfact> 0.18313617E+01</totfact>
</mgrwt>
</event>
<event>
12    3  0.4806716E-008  0.1587084E+04  0.7818608E-02  0.8828523E-01
         -2   -1    0    0    0  501 -0.00000000000E+00  0.00000000000E+00  0.17231818193E+04  0.17231818193E+04  0.00000000000E+00 0.  1.
          2   -1    0    0  501    0  0.00000000000E+00 -0.00000000000E+00 -0.36543361649E+03  0.36543361649E+03  0.00000000000E+00 0. -1.
         23    2    1    2    0    0  0.10654820502E+03 -0.51498811875E+03  0.41592869037E+03  0.67723690600E+03  0.95330314831E+02 0.  0.
        254    2    1    2    0    0 -0.10654820502E+03  0.51498811875E+03  0.94181951239E+03  0.14113785297E+04  0.91016486301E+03 0.  0.
         23    2    4    4    0    0 -0.33429181895E+03 -0.18395071882E+02  0.60311867715E+02  0.35233417256E+03  0.91719402966E+02 0.  0.
         23    2    4    4    0    0  0.22774361393E+03  0.53338319064E+03  0.88150764468E+03  0.10590443572E+04  0.90301944158E+02 0.  0.
          1    1    3    3  502    0  0.47918601378E+01 -0.64743699402E+02  0.16924923543E+02  0.67090696618E+02  0.00000000000E+00 0. -1.
         -1    1    3    3    0  502  0.10175634488E+03 -0.45024441935E+03  0.39900376683E+03  0.61014620938E+03  0.00000000000E+00 0.  1.
         13    1    5    5    0    0 -0.12030931041E+03  0.31664003053E+02  0.44044674913E+02  0.13197299969E+03  0.00000000000E+00 0. -1.
        -13    1    5    5    0    0 -0.21398250855E+03 -0.50059074935E+02  0.16267192802E+02  0.22036117287E+03  0.00000000000E+00 0.  1.
          1    1    6    6  503    0  0.73187755541E+02  0.21911109378E+03  0.42435650459E+03  0.48316101039E+03  0.00000000000E+00 0. -1.
         -1    1    6    6    0  503  0.15455585839E+03  0.31427209685E+03  0.45715114009E+03  0.57588334679E+03  0.00000000000E+00 0.  1.
<mgrwt>
<rscale>  0 0.15870836E+04</rscale>
<asrwt>0</asrwt>
<pdfrwt beam="1">  1        2 0.56220557E-01 0.15870836E+04</pdfrwt>
<pdfrwt beam="2">  1       -2 0.26510489E+00 0.15870836E+04</pdfrwt>
<totfact> 0.43924614E+00</totfact>
</mgrwt>
</event>
<event>
12    3  0.4806716E-008  0.2498773E+04  0.7818608E-02  0.8403423E-01
          1   -1    0    0  501    0  0.00000000000E+00  0.00000000000E+00  0.17186465923E+04  0.17186465923E+04  0.00000000000E+00 0. -1.
         -1   -1    0    0    0  501 -0.00000000000E+00 -0.00000000000E+00 -0.90825353192E+03  0.90825353192E+03  0.00000000000E+00 0.  1.
         23    2    1    2    0    0  0.29334848428E+03  0.31627851785E+03  0.13987606823E+04  0.14662354768E+04  0.85027012100E+02 0.  0.
        254    2    1    2    0    0 -0.29334848428E+03 -0.31627851785E+03 -0.58836762199E+03  0.11606646474E+04  0.90270733413E+03 0.  0.
         23    2    4    4    0    0  0.31717768171E+02 -0.34184166418E+03  0.12058877729E+03  0.37514638698E+03  0.91276603080E+02 0.  0.
         23    2    4    4    0    0 -0.32506625245E+03  0.25563146335E+02 -0.70895639928E+03  0.78551826044E+03  0.89990102118E+02 0.  0.
          1    1    3    3  502    0  0.21623602475E+03  0.25893824648E+03  0.11805006301E+04  0.12277576192E+04  0.00000000000E+00 0. -1.
         -1    1    3    3    0  502  0.77112459532E+02  0.57340271373E+02  0.21826005224E+03  0.23847785755E+03  0.00000000000E+00 0.  1.
         13    1    5    5    0    0 -0.27532458618E+02 -0.11468204390E+03  0.61738815094E+02  0.13312283335E+03  0.00000000000E+00 0.  1.
        -13    1    5    5    0    0  0.59250226790E+02 -0.22715962028E+03  0.58849962195E+02  0.24202355363E+03  0.00000000000E+00 0. -1.
          1    1    6    6  503    0 -0.30484864531E+03  0.47218812016E+02 -0.63996389795E+03  0.71043374317E+03  0.00000000000E+00 0. -1.
         -1    1    6    6    0  503 -0.20217607141E+02 -0.21655665681E+02 -0.68992501323E+02  0.75084517269E+02  0.00000000000E+00 0.  1.
<mgrwt>
<rscale>  0 0.24987732E+04</rscale>
<asrwt>0</asrwt>
<pdfrwt beam="1">  1        1 0.26440717E+00 0.24987732E+04</pdfrwt>
<pdfrwt beam="2">  1       -1 0.13973131E+00 0.24987732E+04</pdfrwt>
<totfact> 0.17323458E+00</totfact>
</mgrwt>
</event>
<event>
12    3  0.4806716E-008  0.1376062E+04  0.7818608E-02  0.8971330E-01
         -2   -1    0    0    0  501 -0.00000000000E+00  0.00000000000E+00  0.54226353126E+03  0.54226353126E+03  0.00000000000E+00 0.  1.
          2   -1    0    0  501    0  0.00000000000E+00 -0.00000000000E+00 -0.87298323536E+03  0.87298323536E+03  0.00000000000E+00 0. -1.
         23    2    1    2    0    0  0.33640649315E+03 -0.63022652858E+02 -0.30793811810E+03  0.46914806352E+03  0.90182246145E+02 0.  0.
        254    2    1    2    0    0 -0.33640649315E+03  0.63022652858E+02 -0.22781585998E+02  0.94609870310E+03  0.88172703937E+03 0.  0.
         23    2    4    4    0    0 -0.36317825820E+00 -0.20203513179E+02 -0.40896971682E+03  0.41951305246E+03  0.91250523664E+02 0.  0.
         23    2    4    4    0    0 -0.33604331489E+03  0.83226166036E+02  0.38618813082E+03  0.52658565064E+03  0.91101431851E+02 0.  0.
          3    1    3    3  502    0  0.26126214785E+03 -0.55465397257E+02 -0.18511971998E+03  0.32496712282E+03  0.00000000000E+00 0. -1.
         -3    1    3    3    0  502  0.75144345296E+02 -0.75572556008E+01 -0.12281839812E+03  0.14418094069E+03  0.00000000000E+00 0.  1.
         13    1    5    5    0    0 -0.25346847840E+02 -0.36025057245E+02 -0.10177483763E+03  0.11089808393E+03  0.00000000000E+00 0.  1.
        -13    1    5    5    0    0  0.24983669582E+02  0.15821544066E+02 -0.30719487918E+03  0.30861496853E+03  0.00000000000E+00 0. -1.
          1    1    6    6  503    0 -0.96758028166E+02 -0.11959661520E+02  0.13774219980E+03  0.16875444624E+03  0.00000000000E+00 0. -1.
         -1    1    6    6    0  503 -0.23928528672E+03  0.95185827556E+02  0.24844593101E+03  0.35783120441E+03  0.00000000000E+00 0.  1.
<mgrwt>
<rscale>  0 0.13760625E+04</rscale>
<asrwt>0</asrwt>
<pdfrwt beam="1">  1        2 0.13430511E+00 0.13760625E+04</pdfrwt>
<pdfrwt beam="2">  1       -2 0.83425159E-01 0.13760625E+04</pdfrwt>
<totfact> 0.37515852E+01</totfact>
</mgrwt>
</event>
<event>
12    3  0.4806716E-008  0.1863550E+04  0.7818608E-02  0.8673216E-01
         -1   -1    0    0    0  501 -0.00000000000E+00  0.00000000000E+00  0.76938370260E+03  0.76938370260E+03  0.00000000000E+00 0.  1.
          1   -1    0    0  501    0  0.00000000000E+00 -0.00000000000E+00 -0.11284417846E+04  0.11284417846E+04  0.00000000000E+00 0. -1.
         23    2    1    2    0    0 -0.55568232335E+03 -0.55374379114E+02 -0.59274945833E+03  0.82133902695E+03  0.10675537689E+03 0.  0.
        254    2    1    2    0    0  0.55568232335E+03  0.55374379114E+02  0.23369137629E+03  0.10764864603E+04  0.89014733247E+03 0.  0.
         23    2    4    4    0    0  0.28381217402E+03  0.26297801881E+03 -0.25569914639E+03  0.47282816907E+03  0.92074076165E+02 0.  0.
         23    2    4    4    0    0  0.27187014933E+03 -0.20760363970E+03  0.48939052268E+03  0.60365829123E+03  0.88812158908E+02 0.  0.
          1    1    3    3  502    0 -0.41907163488E+03 -0.67544166099E+02 -0.49943528263E+03  0.65545316466E+03  0.00000000000E+00 0. -1.
         -1    1    3    3    0  502 -0.13661068847E+03  0.12169786985E+02 -0.93314175703E+02  0.16588586229E+03  0.00000000000E+00 0.  1.
         13    1    5    5    0    0  0.18468995086E+03  0.16974108869E+03 -0.21612675613E+03  0.33110903016E+03  0.00000000000E+00 0.  1.
        -13    1    5    5    0    0  0.99122223160E+02  0.93236930127E+02 -0.39572390262E+02  0.14171913891E+03  0.00000000000E+00 0. -1.
          2    1    6    6  503    0  0.25437481166E+03 -0.21599058637E+03  0.46786844089E+03  0.57468196090E+03  0.00000000000E+00 0. -1.
         -2    1    6    6    0  503  0.17495337669E+02  0.83869466705E+01  0.21522081786E+02  0.28976330323E+02  0.00000000000E+00 0.  1.
<mgrwt>
<rscale>  0 0.18635501E+04</rscale>
<asrwt>0</asrwt>
<pdfrwt beam="1">  1        1 0.17360643E+00 0.18635501E+04</pdfrwt>
<pdfrwt beam="2">  1       -1 0.11836672E+00 0.18635501E+04</pdfrwt>
<totfact> 0.72533802E+00</totfact>
</mgrwt>
</event>
<event>
12    3  0.4806716E-008  0.1346221E+04  0.7818608E-02  0.8993693E-01
          2   -1    0    0  501    0  0.00000000000E+00  0.00000000000E+00  0.68303506945E+03  0.68303506945E+03  0.00000000000E+00 0. -1.
         -2   -1    0    0    0  501 -0.00000000000E+00 -0.00000000000E+00 -0.66333048484E+03  0.66333048484E+03  0.00000000000E+00 0.  1.
         23    2    1    2    0    0 -0.10988097546E+03 -0.34129464796E+03 -0.80146050705E+02  0.37807427900E+03  0.89223906573E+02 0.  0.
        254    2    1    2    0    0  0.10988097546E+03  0.34129464796E+03  0.99850635316E+02  0.96829127530E+03  0.89390266749E+03 0.  0.
         23    2    4    4    0    0  0.77204038692E+02  0.59913566331E+03  0.24316386340E+03  0.65839302515E+03  0.97101516264E+02 0.  0.
         23    2    4    4    0    0  0.32676936766E+02 -0.25784101535E+03 -0.14331322808E+03  0.30989825015E+03  0.89154207478E+02 0.  0.
          1    1    3    3  502    0 -0.48191375588E+01 -0.72392503165E+01  0.13064528164E+02  0.15694353383E+02  0.00000000000E+00 0. -1.
         -1    1    3    3    0  502 -0.10506183790E+03 -0.33405539764E+03 -0.93210578868E+02  0.36237992562E+03  0.00000000000E+00 0.  1.
         13    1    5    5    0    0  0.51229022143E+02  0.48992557771E+03  0.15742934617E+03  0.51714164737E+03  0.00000000000E+00 0.  1.
        -13    1    5    5    0    0  0.25975016549E+02  0.10921008560E+03  0.85734517223E+02  0.14125137778E+03  0.00000000000E+00 0. -1.
          3    1    6    6  503    0  0.40236907846E+01 -0.16304991553E+03 -0.13277718980E+03  0.21031226111E+03  0.00000000000E+00 0. -1.
         -3    1    6    6    0  503  0.28653245982E+02 -0.94791099819E+02 -0.10536038276E+02  0.99585989038E+02  0.00000000000E+00 0.  1.
<mgrwt>
<rscale>  0 0.13462214E+04</rscale>
<asrwt>0</asrwt>
<pdfrwt beam="1">  1        2 0.10508232E+00 0.13462214E+04</pdfrwt>
<pdfrwt beam="2">  1       -2 0.10205084E+00 0.13462214E+04</pdfrwt>
<totfact> 0.32504063E+01</totfact>
</mgrwt>
</event>
<event>
12    3  0.4806716E-008  0.1723220E+04  0.7818608E-02  0.8748231E-01
         -1   -1    0    0    0  501 -0.00000000000E+00  0.00000000000E+00  0.59196392099E+03  0.59196392099E+03  0.00000000000E+00 0.  1.
          1   -1    0    0  501    0  0.00000000000E+00 -0.00000000000E+00 -0.12540828888E+04  0.12540828888E+04  0.00000000000E+00 0. -1.
         23    2    1    2    0    0 -0.22726943761E+03  0.63122631177E+03 -0.40206705226E+03  0.78781249633E+03  0.94300376027E+02 0.  0.
        254    2    1    2    0    0  0.22726943761E+03 -0.63122631177E+03 -0.26005191558E+03  0.10582343135E+04  0.77597345929E+03 0.  0.
         23    2    4    4    0    0 -0.18781459651E+03 -0.53046521312E+03 -0.24641586046E+03  0.62137293641E+03  0.93358903293E+02 0.  0.
         23    2    4    4    0    0  0.41508403412E+03 -0.10076109865E+03 -0.13636055112E+02  0.43686137708E+03  0.90633141893E+02 0.  0.
          4    1    3    3  502    0 -0.66741031902E+02  0.18385624693E+03 -0.68909953917E+02  0.20737904094E+03  0.00000000000E+00 0. -1.
         -4    1    3    3    0  502 -0.16052840571E+03  0.44737006484E+03 -0.33315709834E+03  0.58043345538E+03  0.00000000000E+00 0.  1.
         13    1    5    5    0    0 -0.11446541516E+02 -0.14515124309E+03 -0.79784220975E+02  0.16602839697E+03  0.00000000000E+00 0. -1.
        -13    1    5    5    0    0 -0.17636805499E+03 -0.38531397002E+03 -0.16663163949E+03  0.45534453944E+03  0.00000000000E+00 0.  1.
          4    1    6    6  503    0  0.17896244152E+03 -0.84118594220E+02  0.15574810966E+02  0.19835843341E+03  0.00000000000E+00 0. -1.
         -4    1    6    6    0  503  0.23612159260E+03 -0.16642504428E+02 -0.29210866077E+02  0.23850294367E+03  0.00000000000E+00 0.  1.
<mgrwt>
<rscale>  0 0.17232200E+04</rscale>
<asrwt>0</asrwt>
<pdfrwt beam="1">  1        1 0.19293583E+00 0.17232200E+04</pdfrwt>
<pdfrwt beam="2">  1       -1 0.91071372E-01 0.17232200E+04</pdfrwt>
<totfact> 0.10908696E+01</totfact>
</mgrwt>
</event>
<event>
12    3  0.4806716E-008  0.2581216E+04  0.7818608E-02  0.8374610E-01
         -1   -1    0    0    0  501 -0.00000000000E+00  0.00000000000E+00  0.30173541953E+04  0.30173541953E+04  0.00000000000E+00 0.  1.
          1   -1    0    0  501    0  0.00000000000E+00 -0.00000000000E+00 -0.55202972183E+03  0.55202972183E+03  0.00000000000E+00 0. -1.
         23    2    1    2    0    0  0.10385354895E+04  0.12274348227E+03  0.16750472127E+04  0.19760883288E+04  0.74296656427E+02 0.  0.
        254    2    1    2    0    0 -0.10385354895E+04 -0.12274348227E+03  0.79027726073E+03  0.15932955883E+04  0.90577632861E+03 0.  0.
         23    2    4    4    0    0 -0.19471482422E+03 -0.42939399279E+03  0.25263665095E+03  0.54281693495E+03  0.92368196057E+02 0.  0.
         23    2    4    4    0    0 -0.84382066526E+03  0.30665051052E+03  0.53764060978E+03  0.10504786533E+04  0.91543023324E+02 0.  0.
          4    1    3    3  502    0  0.10242208207E+04  0.12970802716E+03  0.16524655080E+04  0.19484595754E+04  0.00000000000E+00 0.  1.
         -4    1    3    3    0  502  0.14314668754E+02 -0.69645448910E+01  0.22581704757E+02  0.27628753443E+02  0.00000000000E+00 0. -1.
         13    1    5    5    0    0 -0.15688085256E+03 -0.37966945012E+03  0.24867923655E+03  0.48021022058E+03  0.00000000000E+00 0. -1.
        -13    1    5    5    0    0 -0.37833971660E+02 -0.49724542671E+02  0.39574144030E+01  0.62606714370E+02  0.00000000000E+00 0.  1.
          4    1    6    6  503    0 -0.83675984780E+03  0.29373592553E+03  0.53445936584E+03  0.10354200358E+04  0.00000000000E+00 0. -1.
         -4    1    6    6    0  503 -0.70608174608E+01  0.12914584995E+02  0.31812439404E+01  0.15058617527E+02  0.00000000000E+00 0.  1.
<mgrwt>
<rscale>  0 0.25812161E+04</rscale>
<asrwt>0</asrwt>
<pdfrwt beam="1">  1        1 0.84927651E-01 0.25812161E+04</pdfrwt>
<pdfrwt beam="2">  1       -1 0.46420833E+00 0.25812161E+04</pdfrwt>
<totfact> 0.87850425E-02</totfact>
</mgrwt>
</event>
<event>
12    3  0.4806716E-008  0.1547295E+04  0.7818608E-02  0.8853597E-01
         -2   -1    0    0    0  501 -0.00000000000E+00  0.00000000000E+00  0.15908817552E+04  0.15908817552E+04  0.00000000000E+00 0. -1.
          2   -1    0    0  501    0  0.00000000000E+00 -0.00000000000E+00 -0.37622558577E+03  0.37622558577E+03  0.00000000000E+00 0.  1.
         23    2    1    2    0    0  0.32170201679E+03  0.35421489239E+03  0.60150162483E+03  0.77427964001E+03  0.93511382573E+02 0.  0.
        254    2    1    2    0    0 -0.32170201679E+03 -0.35421489239E+03  0.61315454455E+03  0.11928277009E+04  0.90438877202E+03 0.  0.
         23    2    4    4    0    0 -0.60369954233E+03 -0.17009959434E+03  0.54677470871E+03  0.83773870333E+03  0.97244761142E+02 0.  0.
         23    2    4    4    0    0  0.28199752554E+03 -0.18411529805E+03  0.66379835846E+02  0.35508899758E+03  0.90889307436E+02 0.  0.
          3    1    3    3  502    0  0.21664258852E+03  0.22831597851E+03  0.32230606192E+03  0.45049239145E+03  0.00000000000E+00 0. -1.
         -3    1    3    3    0  502  0.10505942826E+03  0.12589891388E+03  0.27919556291E+03  0.32378724856E+03  0.00000000000E+00 0.  1.
         13    1    5    5    0    0 -0.10913078399E+02  0.95654744115E+01  0.19406753544E+02  0.24232533173E+02  0.00000000000E+00 0. -1.
        -13    1    5    5    0    0 -0.59278646393E+03 -0.17966506875E+03  0.52736795516E+03  0.81350617016E+03  0.00000000000E+00 0.  1.
          1    1    6    6  503    0  0.10503692692E+03 -0.12221054268E+03  0.24589437738E+02  0.16301169654E+03  0.00000000000E+00 0. -1.
         -1    1    6    6    0  503  0.17696059862E+03 -0.61904755368E+02  0.41790398109E+02  0.19207730104E+03  0.00000000000E+00 0.  1.
<mgrwt>
<rscale>  0 0.15472950E+04</rscale>
<asrwt>0</asrwt>
<pdfrwt beam="1">  1        2 0.57880860E-01 0.15472950E+04</pdfrwt>
<pdfrwt beam="2">  1       -2 0.24475104E+00 0.15472950E+04</pdfrwt>
<totfact> 0.56805090E+00</totfact>
</mgrwt>
</event>
<event>
12    3  0.4806716E-008  0.1453504E+04  0.7818608E-02  0.8915975E-01
         -1   -1    0    0    0  501 -0.00000000000E+00  0.00000000000E+00  0.57308979901E+03  0.57308979901E+03  0.00000000000E+00 0.  1.
          1   -1    0    0  501    0  0.00000000000E+00 -0.00000000000E+00 -0.92161590473E+03  0.92161590473E+03  0.00000000000E+00 0. -1.
         23    2    1    2    0    0  0.33674629098E+03 -0.28525729395E+03 -0.58965459421E+02  0.45430654030E+03  0.90264715763E+02 0.  0.
        254    2    1    2    0    0 -0.33674629098E+03  0.28525729395E+03 -0.28956064630E+03  0.10403991634E+04  0.89655745111E+03 0.  0.
         23    2    4    4    0    0 -0.19117991204E+03 -0.24437413874E+03  0.12408822276E+03  0.34678388867E+03  0.92696817447E+02 0.  0.
         23    2    4    4    0    0 -0.14556637894E+03  0.52963143269E+03 -0.41364886906E+03  0.69361527476E+03  0.91091916978E+02 0.  0.
          1    1    3    3  502    0  0.33384103525E+03 -0.28166209694E+03 -0.44415485635E+02  0.43903998569E+03  0.00000000000E+00 0. -1.
         -1    1    3    3    0  502  0.29052557267E+01 -0.35951970096E+01 -0.14549973785E+02  0.15266554606E+02  0.00000000000E+00 0.  1.
         13    1    5    5    0    0 -0.15067886028E+03 -0.14181933069E+03  0.11351972612E+03  0.23601603697E+03  0.00000000000E+00 0. -1.
        -13    1    5    5    0    0 -0.40501051760E+02 -0.10255480805E+03  0.10568496634E+02  0.11076785170E+03  0.00000000000E+00 0.  1.
          3    1    6    6  503    0 -0.49993359838E+02  0.34483931340E+03 -0.26969041413E+03  0.44062048019E+03  0.00000000000E+00 0. -1.
         -3    1    6    6    0  503 -0.95573019107E+02  0.18479211929E+03 -0.14395845493E+03  0.25299479457E+03  0.00000000000E+00 0.  1.
<mgrwt>
<rscale>  0 0.14535043E+04</rscale>
<asrwt>0</asrwt>
<pdfrwt beam="1">  1        1 0.14178706E+00 0.14535043E+04</pdfrwt>
<pdfrwt beam="2">  1       -1 0.88167662E-01 0.14535043E+04</pdfrwt>
<totfact> 0.21448753E+01</totfact>
</mgrwt>
</event>
<event>
12    3  0.5093403E-008  0.2689979E+04  0.7818608E-02  0.8338264E-01
          1   -1    0    0  501    0  0.00000000000E+00  0.00000000000E+00  0.16187596091E+04  0.16187596091E+04  0.00000000000E+00 0. -1.
         -1   -1    0    0    0  501 -0.00000000000E+00 -0.00000000000E+00 -0.11175199960E+04  0.11175199960E+04  0.00000000000E+00 0.  1.
         23    2    1    2    0    0  0.92093671681E+03 -0.21762275125E+03  0.97425543042E+03  0.13612340334E+04  0.91106266325E+02 0.  0.
        254    2    1    2    0    0 -0.92093671681E+03  0.21762275125E+03 -0.47301581734E+03  0.13750455717E+04  0.87836340011E+03 0.  0.
         23    2    4    4    0    0 -0.78866072421E+02  0.17926968936E+03  0.19854119468E+03  0.29341120629E+03  0.91181418534E+02 0.  0.
         23    2    4    4    0    0 -0.84207064439E+03  0.38353061889E+02 -0.67155701203E+03  0.10816343654E+04  0.91597776161E+02 0.  0.
          1    1    3    3  502    0  0.87969510430E+03 -0.19853930646E+03  0.89934685682E+03  0.12736192923E+04  0.00000000000E+00 0. -1.
         -1    1    3    3    0  502  0.41241612516E+02 -0.19083444795E+02  0.74908573600E+02  0.87614741151E+02  0.00000000000E+00 0.  1.
         13    1    5    5    0    0 -0.37808447664E+02  0.79528184780E+02  0.29459364443E+02  0.92855075481E+02  0.00000000000E+00 0.  1.
        -13    1    5    5    0    0 -0.41057624757E+02  0.99741504584E+02  0.16908183024E+03  0.20055613081E+03  0.00000000000E+00 0. -1.
          1    1    6    6  503    0 -0.82744057794E+03  0.26380531981E+02 -0.64730197271E+03  0.10508823371E+04  0.00000000000E+00 0. -1.
         -1    1    6    6    0  503 -0.14630066455E+02  0.11972529907E+02 -0.24255039318E+02  0.30752028374E+02  0.00000000000E+00 0.  1.
<mgrwt>
<rscale>  0 0.26899786E+04</rscale>
<asrwt>0</asrwt>
<pdfrwt beam="1">  1        1 0.24903994E+00 0.26899786E+04</pdfrwt>
<pdfrwt beam="2">  1       -1 0.17192615E+00 0.26899786E+04</pdfrwt>
<totfact> 0.11275865E+00</totfact>
</mgrwt>
</event>
<event>
12    3  0.5239416E-008  0.1598508E+04  0.7818608E-02  0.8821465E-01
          1   -1    0    0  501    0  0.00000000000E+00  0.00000000000E+00  0.20612220609E+04  0.20612220609E+04  0.00000000000E+00 0. -1.
         -1   -1    0    0    0  501 -0.00000000000E+00 -0.00000000000E+00 -0.30991672095E+03  0.30991672095E+03  0.00000000000E+00 0.  1.
         23    2    1    2    0    0  0.74975654254E+02 -0.54424289717E+02  0.13790051030E+04  0.13852458524E+04  0.93100191247E+02 0.  0.
        254    2    1    2    0    0 -0.74975654254E+02  0.54424289717E+02  0.37230023696E+03  0.98589292939E+03  0.90818172727E+03 0.  0.
         23    2    4    4    0    0 -0.26794992984E+03 -0.35193849660E+03  0.21946660361E+03  0.50208895694E+03  0.90938772215E+02 0.  0.
         23    2    4    4    0    0  0.19297427558E+03  0.40636278632E+03  0.15283363335E+03  0.48380397245E+03  0.91314725732E+02 0.  0.
          3    1    3    3  502    0  0.74260338192E+02 -0.76769986284E+02  0.12216703073E+04  0.12263305298E+04  0.00000000000E+00 0. -1.
         -3    1    3    3    0  502  0.71531606161E+00  0.22345696567E+02  0.15733479565E+03  0.15891532259E+03  0.00000000000E+00 0.  1.
         13    1    5    5    0    0 -0.66343519124E+01 -0.17449384577E+02  0.34183950724E+02  0.38949173733E+02  0.00000000000E+00 0. -1.
        -13    1    5    5    0    0 -0.26131557793E+03 -0.33448911202E+03  0.18528265289E+03  0.46313978321E+03  0.00000000000E+00 0.  1.
          1    1    6    6  503    0 -0.58628128504E+01  0.53884099986E+01 -0.47890481318E+01  0.92920675224E+01  0.00000000000E+00 0. -1.
         -1    1    6    6    0  503  0.19883708844E+03  0.40097437632E+03  0.15762268148E+03  0.47451190493E+03  0.00000000000E+00 0.  1.
<mgrwt>
<rscale>  0 0.15985083E+04</rscale>
<asrwt>0</asrwt>
<pdfrwt beam="1">  1        1 0.31711108E+00 0.15985083E+04</pdfrwt>
<pdfrwt beam="2">  1       -1 0.47679497E-01 0.15985083E+04</pdfrwt>
<totfact> 0.11421876E+01</totfact>
</mgrwt>
</event>
<event>
12    3  0.4806716E-008  0.1754025E+04  0.7818608E-02  0.8731138E-01
         -1   -1    0    0    0  501 -0.00000000000E+00  0.00000000000E+00  0.82569252876E+03  0.82569252876E+03  0.00000000000E+00 0.  1.
          1   -1    0    0  501    0  0.00000000000E+00 -0.00000000000E+00 -0.93152272425E+03  0.93152272425E+03  0.00000000000E+00 0. -1.
         23    2    1    2    0    0 -0.38023101082E+03 -0.86961285798E+02  0.46795105475E+03  0.61464589758E+03  0.81691510934E+02 0.  0.
        254    2    1    2    0    0  0.38023101082E+03  0.86961285798E+02 -0.57378125024E+03  0.11425693554E+04  0.90780059596E+03 0.  0.
         23    2    4    4    0    0  0.17461624519E+02 -0.35061477078E+03 -0.53652438244E+02  0.36662462979E+03  0.91101093420E+02 0.  0.
         23    2    4    4    0    0  0.36276938630E+03  0.43757605658E+03 -0.52012881200E+03  0.77594472563E+03  0.92096705941E+02 0.  0.
          1    1    3    3  502    0 -0.17951109088E+03 -0.66157691432E+02  0.17749133550E+03  0.26096790236E+03  0.00000000000E+00 0. -1.
         -1    1    3    3    0  502 -0.20071991994E+03 -0.20803594366E+02  0.29045971925E+03  0.35367799522E+03  0.00000000000E+00 0.  1.
         13    1    5    5    0    0  0.10287626658E+01 -0.31475314740E+03 -0.72361246447E+02  0.32296555875E+03  0.00000000000E+00 0. -1.
        -13    1    5    5    0    0  0.16432861853E+02 -0.35861623377E+02  0.18708808203E+02  0.43659071042E+02  0.00000000000E+00 0.  1.
          3    1    6    6  503    0  0.25872944580E+03  0.30970159786E+03 -0.31005527861E+03  0.50891087790E+03  0.00000000000E+00 0. -1.
         -3    1    6    6    0  503  0.10403994049E+03  0.12787445871E+03 -0.21007353338E+03  0.26703384774E+03  0.00000000000E+00 0.  1.
<mgrwt>
<rscale>  0 0.17540255E+04</rscale>
<asrwt>0</asrwt>
<pdfrwt beam="1">  1        1 0.14331119E+00 0.17540255E+04</pdfrwt>
<pdfrwt beam="2">  1       -1 0.12702962E+00 0.17540255E+04</pdfrwt>
<totfact> 0.87354876E+00</totfact>
</mgrwt>
</event>
<event>
12    3  0.4806716E-008  0.1555618E+04  0.7818608E-02  0.8848287E-01
         -1   -1    0    0    0  501 -0.00000000000E+00  0.00000000000E+00  0.65247770929E+03  0.65247770929E+03  0.00000000000E+00 0.  1.
          1   -1    0    0  501    0  0.00000000000E+00 -0.00000000000E+00 -0.92721486677E+03  0.92721486677E+03  0.00000000000E+00 0. -1.
         23    2    1    2    0    0 -0.15191778546E+03  0.39005981806E+03 -0.38198322761E+03  0.57531554495E+03  0.99252782717E+02 0.  0.
        254    2    1    2    0    0  0.15191778546E+03 -0.39005981806E+03  0.10724607013E+03  0.10043770311E+04  0.90666742848E+03 0.  0.
         23    2    4    4    0    0 -0.31677019049E+02 -0.44234512994E+03 -0.30091261677E+03  0.54365915139E+03  0.91346715514E+02 0.  0.
         23    2    4    4    0    0  0.18359480451E+03  0.52285311882E+02  0.40815868691E+03  0.46071787973E+03  0.96055426307E+02 0.  0.
          2    1    3    3  502    0 -0.11347979422E+03  0.28078361153E+03 -0.21224904992E+03  0.36981990129E+03  0.00000000000E+00 0. -1.
         -2    1    3    3    0  502 -0.38437991233E+02  0.10927620654E+03 -0.16973417770E+03  0.20549564366E+03  0.00000000000E+00 0.  1.
         13    1    5    5    0    0 -0.51285565525E+01 -0.19103214492E+03 -0.18374449203E+03  0.26510681025E+03  0.00000000000E+00 0. -1.
        -13    1    5    5    0    0 -0.26548462497E+02 -0.25131298502E+03 -0.11716812474E+03  0.27855234114E+03  0.00000000000E+00 0.  1.
          3    1    6    6  503    0  0.16997915717E+03  0.15039013063E+02  0.35951452634E+03  0.39795700828E+03  0.00000000000E+00 0. -1.
         -3    1    6    6    0  503  0.13615647337E+02  0.37246298819E+02  0.48644160561E+02  0.62760871447E+02  0.00000000000E+00 0.  1.
<mgrwt>
<rscale>  0 0.15556182E+04</rscale>
<asrwt>0</asrwt>
<pdfrwt beam="1">  1        1 0.14264844E+00 0.15556182E+04</pdfrwt>
<pdfrwt beam="2">  1       -1 0.10038119E+00 0.15556182E+04</pdfrwt>
<totfact> 0.15736421E+01</totfact>
</mgrwt>
</event>
<event>
12    3  0.4806716E-008  0.2344078E+04  0.7818608E-02  0.8460742E-01
         -1   -1    0    0    0  501 -0.00000000000E+00  0.00000000000E+00  0.41380444944E+03  0.41380444944E+03  0.00000000000E+00 0.  1.
          1   -1    0    0  501    0  0.00000000000E+00 -0.00000000000E+00 -0.33196232994E+04  0.33196232994E+04  0.00000000000E+00 0. -1.
         23    2    1    2    0    0 -0.68621773903E+03 -0.17772403637E+03 -0.10698644388E+03  0.72234306873E+03  0.88615976546E+02 0.  0.
        254    2    1    2    0    0  0.68621773903E+03  0.17772403637E+03 -0.27988324061E+04  0.30110846801E+04  0.85480260586E+03 0.  0.
         23    2    4    4    0    0 -0.19112525117E+03  0.11576663856E+02 -0.53366488023E+03  0.57442692152E+03  0.92223657446E+02 0.  0.
         23    2    4    4    0    0  0.87734299021E+03  0.16614737251E+03 -0.22651675259E+04  0.24366577586E+04  0.94770461957E+02 0.  0.
          3    1    3    3  502    0 -0.43766030315E+02 -0.27056279149E+02  0.93143591807E+01  0.52290199252E+02  0.00000000000E+00 0. -1.
         -3    1    3    3    0  502 -0.64245170872E+03 -0.15066775722E+03 -0.11630080306E+03  0.67005286948E+03  0.00000000000E+00 0.  1.
         13    1    5    5    0    0 -0.20124022426E+03  0.13449307207E+02 -0.51550775004E+03  0.55355826439E+03  0.00000000000E+00 0.  1.
        -13    1    5    5    0    0  0.10114973084E+02 -0.18726433515E+01 -0.18157130191E+02  0.20868657130E+02  0.00000000000E+00 0. -1.
          1    1    6    6  503    0  0.47003009189E+03  0.10522711873E+03 -0.13408972654E+04  0.14247829694E+04  0.00000000000E+00 0. -1.
         -1    1    6    6    0  503  0.40731289832E+03  0.60920253780E+02 -0.92427026053E+03  0.10118747892E+04  0.00000000000E+00 0.  1.
<mgrwt>
<rscale>  0 0.23440776E+04</rscale>
<asrwt>0</asrwt>
<pdfrwt beam="1">  1        1 0.51071129E+00 0.23440776E+04</pdfrwt>
<pdfrwt beam="2">  1       -1 0.63662222E-01 0.23440776E+04</pdfrwt>
<totfact> 0.77834254E-01</totfact>
</mgrwt>
</event>
<event>
12    3  0.4806716E-008  0.1816379E+04  0.7818608E-02  0.8697638E-01
         -2   -1    0    0    0  501 -0.00000000000E+00  0.00000000000E+00  0.88813247589E+03  0.88813247589E+03  0.00000000000E+00 0.  1.
          2   -1    0    0  501    0  0.00000000000E+00 -0.00000000000E+00 -0.92869943933E+03  0.92869943933E+03  0.00000000000E+00 0. -1.
         23    2    1    2    0    0  0.21396077497E+03 -0.65097172822E+03 -0.29440535243E+02  0.69200763988E+03  0.92002306337E+02 0.  0.
        254    2    1    2    0    0 -0.21396077497E+03  0.65097172822E+03 -0.11126428201E+02  0.11248242753E+04  0.89194307488E+03 0.  0.
         23    2    4    4    0    0 -0.17095833572E+03  0.11869550753E+03 -0.39850298768E+03  0.45842582069E+03  0.89633843090E+02 0.  0.
         23    2    4    4    0    0 -0.43002439257E+02  0.53227622068E+03  0.38737655948E+03  0.66639845465E+03  0.94122880553E+02 0.  0.
          4    1    3    3  502    0  0.71269369842E+02 -0.23921455313E+03 -0.54577028601E+02  0.25550259795E+03  0.00000000000E+00 0. -1.
         -4    1    3    3    0  502  0.14269140513E+03 -0.41175717508E+03  0.25136493358E+02  0.43650504193E+03  0.00000000000E+00 0.  1.
         13    1    5    5    0    0 -0.69565559484E+02  0.28074093977E+02 -0.68838590070E+02  0.10181489725E+03  0.00000000000E+00 0.  1.
        -13    1    5    5    0    0 -0.10139277623E+03  0.90621413557E+02 -0.32966439761E+03  0.35661092344E+03  0.00000000000E+00 0. -1.
          3    1    6    6  503    0 -0.66890419597E+02  0.42758010897E+03  0.28618116506E+03  0.51884365377E+03  0.00000000000E+00 0. -1.
         -3    1    6    6    0  503  0.23887980340E+02  0.10469611171E+03  0.10119539442E+03  0.14755480088E+03  0.00000000000E+00 0.  1.
<mgrwt>
<rscale>  0 0.18163790E+04</rscale>
<asrwt>0</asrwt>
<pdfrwt beam="1">  1        2 0.14287684E+00 0.18163790E+04</pdfrwt>
<pdfrwt beam="2">  1       -2 0.13663577E+00 0.18163790E+04</pdfrwt>
<totfact> 0.10114499E+01</totfact>
</mgrwt>
</event>
<event>
12    3  0.4806716E-008  0.1635382E+04  0.7818608E-02  0.8799101E-01
          1   -1    0    0  501    0  0.00000000000E+00  0.00000000000E+00  0.49378281346E+03  0.49378281346E+03  0.00000000000E+00 0. -1.
         -1   -1    0    0    0  501 -0.00000000000E+00 -0.00000000000E+00 -0.13540745945E+04  0.13540745945E+04  0.00000000000E+00 0.  1.
         23    2    1    2    0    0  0.36619094443E+03 -0.12404217710E+02  0.18535740948E+03  0.42010753150E+03  0.88787929198E+02 0.  0.
        254    2    1    2    0    0 -0.36619094443E+03  0.12404217710E+02 -0.10456491905E+04  0.14277498764E+04  0.90046532839E+03 0.  0.
         23    2    4    4    0    0 -0.32072775511E+03 -0.24626553092E+02 -0.11952034455E+04  0.12411376591E+04  0.91862140048E+02 0.  0.
         23    2    4    4    0    0 -0.45463189322E+02  0.37030770802E+02  0.14955425501E+03  0.18661221728E+03  0.94970863308E+02 0.  0.
          4    1    3    3  502    0  0.96164473551E+02  0.29493161211E+02  0.74720932251E+02  0.12530231541E+03  0.00000000000E+00 0. -1.
         -4    1    3    3    0  502  0.27002647088E+03 -0.41897378921E+02  0.11063647723E+03  0.29480521609E+03  0.00000000000E+00 0.  1.
         13    1    5    5    0    0 -0.25937493895E+03  0.33418632766E+01 -0.10411012147E+04  0.10729297583E+04  0.00000000000E+00 0. -1.
        -13    1    5    5    0    0 -0.61352816159E+02 -0.27968416368E+02 -0.15410223082E+03  0.16820790085E+03  0.00000000000E+00 0.  1.
          1    1    6    6  503    0 -0.23462493481E+02  0.44679475363E+02  0.15473004449E+03  0.16275174588E+03  0.00000000000E+00 0. -1.
         -1    1    6    6    0  503 -0.22000695841E+02 -0.76487045613E+01 -0.51757894757E+01  0.23860471405E+02  0.00000000000E+00 0.  1.
<mgrwt>
<rscale>  0 0.16353822E+04</rscale>
<asrwt>0</asrwt>
<pdfrwt beam="1">  1        1 0.75966588E-01 0.16353822E+04</pdfrwt>
<pdfrwt beam="2">  1       -1 0.20831917E+00 0.16353822E+04</pdfrwt>
<totfact> 0.56935423E+00</totfact>
</mgrwt>
</event>
<event>
12    3  0.4806716E-008  0.2929660E+04  0.7818608E-02  0.8264107E-01
         -1   -1    0    0    0  501 -0.00000000000E+00  0.00000000000E+00  0.11055128775E+04  0.11055128775E+04  0.00000000000E+00 0.  1.
          1   -1    0    0  501    0  0.00000000000E+00 -0.00000000000E+00 -0.19409335831E+04  0.19409335831E+04  0.00000000000E+00 0. -1.
         23    2    1    2    0    0  0.11493806138E+04 -0.38155257775E+03  0.18227710999E+03  0.12280168176E+04  0.90234109431E+02 0.  0.
        254    2    1    2    0    0 -0.11493806138E+04  0.38155257775E+03 -0.10176978156E+04  0.18184296430E+04  0.89683853506E+03 0.  0.
         23    2    4    4    0    0 -0.11058573848E+04  0.45725650882E+03 -0.11313589050E+04  0.16493810441E+04  0.92091184059E+02 0.  0.
         23    2    4    4    0    0 -0.43523228933E+02 -0.75703931062E+02  0.11366108948E+03  0.16904859893E+03  0.89628281829E+02 0.  0.
          3    1    3    3  502    0  0.67895045958E+03 -0.18969756265E+03  0.13511107069E+03  0.71778401575E+03  0.00000000000E+00 0. -1.
         -3    1    3    3    0  502  0.47043015418E+03 -0.19185501510E+03  0.47166039299E+02  0.51023280182E+03  0.00000000000E+00 0.  1.
         13    1    5    5    0    0 -0.10016337943E+03  0.53665746605E+02 -0.75778500052E+02  0.13658365937E+03  0.00000000000E+00 0.  1.
        -13    1    5    5    0    0 -0.10056940054E+04  0.40359076221E+03 -0.10555804050E+04  0.15127973847E+04  0.00000000000E+00 0. -1.
          3    1    6    6  503    0 -0.67254406717E+02 -0.68045168380E+02  0.10637459811E+03  0.14306940723E+03  0.00000000000E+00 0. -1.
         -3    1    6    6    0  503  0.23731177784E+02 -0.76587626814E+01  0.72864913717E+01  0.25979191699E+02  0.00000000000E+00 0.  1.
<mgrwt>
<rscale>  0 0.29296601E+04</rscale>
<asrwt>0</asrwt>
<pdfrwt beam="1">  1        1 0.29860516E+00 0.29296601E+04</pdfrwt>
<pdfrwt beam="2">  1       -1 0.17007891E+00 0.29296601E+04</pdfrwt>
<totfact> 0.68760005E-01</totfact>
</mgrwt>
</event>
<event>
12    3  0.4806716E-008  0.1819233E+04  0.7818608E-02  0.8696138E-01
         -1   -1    0    0    0  501 -0.00000000000E+00  0.00000000000E+00  0.11669988538E+04  0.11669988538E+04  0.00000000000E+00 0.  1.
          1   -1    0    0  501    0  0.00000000000E+00 -0.00000000000E+00 -0.70899970406E+03  0.70899970406E+03  0.00000000000E+00 0. -1.
         23    2    1    2    0    0 -0.43863435754E+02 -0.38349820076E+03 -0.40957686697E+03  0.56992067242E+03  0.89785811309E+02 0.  0.
        254    2    1    2    0    0  0.43863435754E+02  0.38349820076E+03  0.86757601670E+03  0.13060778854E+04  0.89674769422E+03 0.  0.
         23    2    4    4    0    0  0.30943269275E+03 -0.67039472632E+02  0.65722362105E+03  0.73527291342E+03  0.91872122590E+02 0.  0.
         23    2    4    4    0    0 -0.26556925700E+03  0.45053767339E+03  0.21035239565E+03  0.57080497202E+03  0.89771712221E+02 0.  0.
          2    1    3    3  502    0 -0.70659397777E+02 -0.31114878532E+03 -0.33431314128E+03  0.46213806761E+03  0.00000000000E+00 0. -1.
         -2    1    3    3    0  502  0.26795962023E+02 -0.72349415437E+02 -0.75263725692E+02  0.10778260481E+03  0.00000000000E+00 0.  1.
         13    1    5    5    0    0  0.24086033031E+03 -0.59588262866E+02  0.58479175307E+03  0.63525259090E+03  0.00000000000E+00 0. -1.
        -13    1    5    5    0    0  0.68572362443E+02 -0.74512097662E+01  0.72431867986E+02  0.10002032253E+03  0.00000000000E+00 0.  1.
          1    1    6    6  503    0 -0.19738916395E+03  0.28388980120E+03  0.10131000025E+03  0.36030489508E+03  0.00000000000E+00 0.  1.
         -1    1    6    6    0  503 -0.68180093048E+02  0.16664787219E+03  0.10904239540E+03  0.21050007693E+03  0.00000000000E+00 0. -1.
<mgrwt>
<rscale>  0 0.18192326E+04</rscale>
<asrwt>0</asrwt>
<pdfrwt beam="1">  1        1 0.10907688E+00 0.18192326E+04</pdfrwt>
<pdfrwt beam="2">  1       -1 0.17953829E+00 0.18192326E+04</pdfrwt>
<totfact> 0.52778458E+00</totfact>
</mgrwt>
</event>
<event>
12    3  0.4806716E-008  0.2290939E+04  0.7818608E-02  0.8481502E-01
          2   -1    0    0  501    0  0.00000000000E+00  0.00000000000E+00  0.52871924734E+04  0.52871924734E+04  0.00000000000E+00 0. -1.
         -2   -1    0    0    0  501 -0.00000000000E+00 -0.00000000000E+00 -0.24816571143E+03  0.24816571143E+03  0.00000000000E+00 0.  1.
         23    2    1    2    0    0  0.29222021080E+03 -0.90062748131E+03  0.26368829588E+04  0.28030618819E+04  0.86496610337E+02 0.  0.
        254    2    1    2    0    0 -0.29222021080E+03  0.90062748131E+03  0.24021438032E+04  0.27322963029E+04  0.89365861729E+03 0.  0.
         23    2    4    4    0    0  0.21589678195E+03  0.70679215196E+03  0.12527929929E+04  0.14574966012E+04  0.92948872161E+02 0.  0.
         23    2    4    4    0    0 -0.50811699275E+03  0.19383532935E+03  0.11493508102E+04  0.12747997017E+04  0.91389175169E+02 0.  0.
          4    1    3    3  502    0  0.17661721970E+03 -0.58775845460E+03  0.18207686670E+04  0.19214193144E+04  0.00000000000E+00 0. -1.
         -4    1    3    3    0  502  0.11560299110E+03 -0.31286902671E+03  0.81611429183E+03  0.88164256746E+03  0.00000000000E+00 0.  1.
         13    1    5    5    0    0  0.10506466819E+03  0.20166520135E+03  0.36323792105E+03  0.42854314278E+03  0.00000000000E+00 0. -1.
        -13    1    5    5    0    0  0.11083211376E+03  0.50512695061E+03  0.88955507187E+03  0.10289534584E+04  0.00000000000E+00 0.  1.
          1    1    6    6  503    0 -0.13672411026E+02  0.56666110404E+01  0.84324200408E+02  0.85613177014E+02  0.00000000000E+00 0. -1.
         -1    1    6    6    0  503 -0.49444458172E+03  0.18816871831E+03  0.10650266098E+04  0.11891865247E+04  0.00000000000E+00 0.  1.
<mgrwt>
<rscale>  0 0.22909386E+04</rscale>
<asrwt>0</asrwt>
<pdfrwt beam="1">  1        2 0.81341415E+00 0.22909386E+04</pdfrwt>
<pdfrwt beam="2">  1       -2 0.38179344E-01 0.22909386E+04</pdfrwt>
<totfact> 0.81869640E-02</totfact>
</mgrwt>
</event>
<event>
12    3  0.4806716E-008  0.1855772E+04  0.7818608E-02  0.8677190E-01
          3   -1    0    0  501    0  0.00000000000E+00  0.00000000000E+00  0.20406735074E+04  0.20406735074E+04  0.00000000000E+00 0. -1.
         -3   -1    0    0    0  501 -0.00000000000E+00 -0.00000000000E+00 -0.42190579881E+03  0.42190579881E+03  0.00000000000E+00 0.  1.
         23    2    1    2    0    0  0.10104587631E+03  0.30881820673E+03  0.14584783087E+04  0.14969464332E+04  0.90059384924E+02 0.  0.
        254    2    1    2    0    0 -0.10104587631E+03 -0.30881820673E+03  0.16028939990E+03  0.96563287308E+03  0.89508390664E+03 0.  0.
         23    2    4    4    0    0  0.11252474117E+03  0.19588677475E+03 -0.18778702546E+03  0.30991713159E+03  0.98748243664E+02 0.  0.
         23    2    4    4    0    0 -0.21357061747E+03 -0.50470498148E+03  0.34807642536E+03  0.65571574148E+03  0.92013090151E+02 0.  0.
          4    1    3    3  502    0  0.61240029178E+00  0.14472711681E+03  0.64056506786E+03  0.65671144313E+03  0.00000000000E+00 0. -1.
         -4    1    3    3    0  502  0.10043347601E+03  0.16409108992E+03  0.81791324087E+03  0.84023499004E+03  0.00000000000E+00 0.  1.
         13    1    5    5    0    0 -0.12976803668E+02  0.84099180118E+00 -0.19183686164E+02  0.23175817472E+02  0.00000000000E+00 0. -1.
        -13    1    5    5    0    0  0.12550154483E+03  0.19504578295E+03 -0.16860333930E+03  0.28674131412E+03  0.00000000000E+00 0.  1.
          3    1    6    6  503    0 -0.48535304706E+02 -0.15566041567E+03  0.15100361368E+03  0.22223395815E+03  0.00000000000E+00 0. -1.
         -3    1    6    6    0  503 -0.16503531277E+03 -0.34904456580E+03  0.19707281168E+03  0.43348178333E+03  0.00000000000E+00 0.  1.
<mgrwt>
<rscale>  0 0.18557715E+04</rscale>
<asrwt>0</asrwt>
<pdfrwt beam="1">  1        3 0.31394976E+00 0.18557715E+04</pdfrwt>
<pdfrwt beam="2">  1       -3 0.64908586E-01 0.18557715E+04</pdfrwt>
<totfact> 0.18342590E-01</totfact>
</mgrwt>
</event>
<event>
12    3  0.4806716E-008  0.1884999E+04  0.7818608E-02  0.8662359E-01
          2   -1    0    0  501    0  0.00000000000E+00  0.00000000000E+00  0.12837402108E+04  0.12837402108E+04  0.00000000000E+00 0. -1.
         -2   -1    0    0    0  501 -0.00000000000E+00 -0.00000000000E+00 -0.69196673344E+03  0.69196673344E+03  0.00000000000E+00 0.  1.
         23    2    1    2    0    0 -0.29359409413E+03 -0.66135356073E+03  0.21510045732E+03  0.76019644168E+03  0.89690572522E+02 0.  0.
        254    2    1    2    0    0  0.29359409413E+03  0.66135356073E+03  0.37667302005E+03  0.12155105026E+04  0.90110886879E+03 0.  0.
         23    2    4    4    0    0  0.31458863979E+03  0.68289733451E+03  0.60490649516E+03  0.96940823801E+03  0.92334621181E+02 0.  0.
         23    2    4    4    0    0 -0.20994545660E+02 -0.21543773778E+02 -0.22823347511E+03  0.24610226455E+03  0.87010920700E+02 0.  0.
          2    1    3    3  502    0 -0.22670266877E+02 -0.12211480517E+03  0.18898110082E+02  0.12563082904E+03  0.00000000000E+00 0. -1.
         -2    1    3    3    0  502 -0.27092382726E+03 -0.53923875556E+03  0.19620234724E+03  0.63456561264E+03  0.00000000000E+00 0.  1.
         13    1    5    5    0    0  0.19540456470E+03  0.50651101940E+03  0.46354015428E+03  0.71386681623E+03  0.00000000000E+00 0.  1.
        -13    1    5    5    0    0  0.11918407509E+03  0.17638631510E+03  0.14136634088E+03  0.25554142178E+03  0.00000000000E+00 0. -1.
          4    1    6    6  503    0 -0.19491880719E+02 -0.50476221653E+02 -0.91231934473E+02  0.10607095849E+03  0.00000000000E+00 0. -1.
         -4    1    6    6    0  503 -0.15026649415E+01  0.28932447875E+02 -0.13700154064E+03  0.14003130607E+03  0.00000000000E+00 0.  1.
<mgrwt>
<rscale>  0 0.18849992E+04</rscale>
<asrwt>0</asrwt>
<pdfrwt beam="1">  1        2 0.19749849E+00 0.18849992E+04</pdfrwt>
<pdfrwt beam="2">  1       -2 0.10645642E+00 0.18849992E+04</pdfrwt>
<totfact> 0.11269335E+01</totfact>
</mgrwt>
</event>
<event>
12    3  0.4806716E-008  0.2182870E+04  0.7818608E-02  0.8525592E-01
          2   -1    0    0  501    0  0.00000000000E+00  0.00000000000E+00  0.11764816831E+04  0.11764816831E+04  0.00000000000E+00 0. -1.
         -2   -1    0    0    0  501 -0.00000000000E+00 -0.00000000000E+00 -0.10125358461E+04  0.10125358461E+04  0.00000000000E+00 0.  1.
         23    2    1    2    0    0  0.55779504566E+03  0.88183513048E+02  0.76873235368E+03  0.95835690453E+03  0.92665419318E+02 0.  0.
        254    2    1    2    0    0 -0.55779504566E+03 -0.88183513048E+02 -0.60478651676E+03  0.12306606247E+04  0.91095949270E+03 0.  0.
         23    2    4    4    0    0 -0.60190578974E+03 -0.12785790386E+03 -0.79721644549E+03  0.10114441994E+04  0.93952563877E+02 0.  0.
         23    2    4    4    0    0  0.44110744074E+02  0.39674390811E+02  0.19242992873E+03  0.21921642527E+03  0.86641494726E+02 0.  0.
          3    1    3    3  502    0  0.45272598532E+03  0.40048303745E+02  0.57721909060E+03  0.73467446054E+03  0.00000000000E+00 0. -1.
         -3    1    3    3    0  502  0.10506906034E+03  0.48135209304E+02  0.19151326308E+03  0.22368244399E+03  0.00000000000E+00 0.  1.
         13    1    5    5    0    0 -0.99103745612E+02  0.11783081549E+02 -0.10949472952E+03  0.14815360002E+03  0.00000000000E+00 0. -1.
        -13    1    5    5    0    0 -0.50280204412E+03 -0.13964098541E+03 -0.68772171597E+03  0.86329059939E+03  0.00000000000E+00 0.  1.
          4    1    6    6  503    0  0.30245470158E+02  0.67471853579E+02  0.13626988969E+03  0.15503780934E+03  0.00000000000E+00 0.  1.
         -4    1    6    6    0  503  0.13865273916E+02 -0.27797462768E+02  0.56160039045E+02  0.64178615929E+02  0.00000000000E+00 0. -1.
<mgrwt>
<rscale>  0 0.21828696E+04</rscale>
<asrwt>0</asrwt>
<pdfrwt beam="1">  1        2 0.18099718E+00 0.21828696E+04</pdfrwt>
<pdfrwt beam="2">  1       -2 0.15577475E+00 0.21828696E+04</pdfrwt>
<totfact> 0.48513772E+00</totfact>
</mgrwt>
</event>
<event>
12    3  0.4806716E-008  0.1361892E+04  0.7818608E-02  0.8981875E-01
          2   -1    0    0  501    0  0.00000000000E+00  0.00000000000E+00  0.59907626003E+03  0.59907626003E+03  0.00000000000E+00 0. -1.
         -2   -1    0    0    0  501 -0.00000000000E+00 -0.00000000000E+00 -0.77400364511E+03  0.77400364511E+03  0.00000000000E+00 0.  1.
         23    2    1    2    0    0  0.23882737943E+03 -0.28467333656E+03 -0.30495390984E+02  0.38344640578E+03  0.89575395734E+02 0.  0.
        254    2    1    2    0    0 -0.23882737943E+03  0.28467333656E+03 -0.14443199410E+03  0.98963349937E+03  0.90577946347E+03 0.  0.
         23    2    4    4    0    0 -0.22641378189E+03  0.46534255936E+03 -0.40212506050E+03  0.66154284115E+03  0.90152472021E+02 0.  0.
         23    2    4    4    0    0 -0.12413597540E+02 -0.18066922280E+03  0.25769306641E+03  0.32809065822E+03  0.91881978982E+02 0.  0.
          3    1    3    3  502    0  0.49343487849E+01 -0.63708899860E+01  0.15047198790E+02  0.17069101575E+02  0.00000000000E+00 0. -1.
         -3    1    3    3    0  502  0.23389303064E+03 -0.27830244657E+03 -0.45542589775E+02  0.36637730420E+03  0.00000000000E+00 0.  1.
         13    1    5    5    0    0 -0.23036678464E+03  0.45539661406E+03 -0.40371426772E+03  0.65072278393E+03  0.00000000000E+00 0. -1.
        -13    1    5    5    0    0  0.39530027553E+01  0.99459453037E+01  0.15892072146E+01  0.10820057224E+02  0.00000000000E+00 0.  1.
          2    1    6    6  503    0  0.13616872909E+02 -0.14166444562E+03  0.23784031210E+03  0.27716826738E+03  0.00000000000E+00 0. -1.
         -2    1    6    6    0  503 -0.26030470448E+02 -0.39004777190E+02  0.19852754304E+02  0.50922390840E+02  0.00000000000E+00 0.  1.
<mgrwt>
<rscale>  0 0.13618916E+04</rscale>
<asrwt>0</asrwt>
<pdfrwt beam="1">  1        2 0.92165579E-01 0.13618916E+04</pdfrwt>
<pdfrwt beam="2">  1       -2 0.11907748E+00 0.13618916E+04</pdfrwt>
<totfact> 0.26244237E+01</totfact>
</mgrwt>
</event>
<event>
12    3  0.4806716E-008  0.2639024E+04  0.7818608E-02  0.8355065E-01
         -1   -1    0    0    0  501 -0.00000000000E+00  0.00000000000E+00  0.11046534885E+04  0.11046534885E+04  0.00000000000E+00 0.  1.
          1   -1    0    0  501    0  0.00000000000E+00 -0.00000000000E+00 -0.15761610547E+04  0.15761610547E+04  0.00000000000E+00 0. -1.
         23    2    1    2    0    0 -0.23386292169E+03 -0.23815149790E+03  0.92379464666E+03  0.98628583269E+03  0.89191885639E+02 0.  0.
        254    2    1    2    0    0  0.23386292169E+03  0.23815149790E+03 -0.13953022128E+04  0.16945287105E+04  0.90174901368E+03 0.  0.
         23    2    4    4    0    0 -0.52814480164E+02 -0.23080008221E+03 -0.79654478435E+02  0.26583980937E+03  0.90928109228E+02 0.  0.
         23    2    4    4    0    0  0.28667740185E+03  0.46895158011E+03 -0.13156477344E+04  0.14286889012E+04  0.90130450567E+02 0.  0.
          4    1    3    3  502    0 -0.10572923665E+03 -0.76634531944E+02  0.47093794819E+03  0.48870653159E+03  0.00000000000E+00 0. -1.
         -4    1    3    3    0  502 -0.12813368503E+03 -0.16151696596E+03  0.45285669847E+03  0.49757930110E+03  0.00000000000E+00 0.  1.
         13    1    5    5    0    0 -0.56164121026E+02 -0.12860938414E+03 -0.71956550265E+01  0.14052245241E+03  0.00000000000E+00 0. -1.
        -13    1    5    5    0    0  0.33496408619E+01 -0.10219069807E+03 -0.72458823409E+02  0.12531735696E+03  0.00000000000E+00 0.  1.
          1    1    6    6  503    0  0.17280291899E+03  0.19673604376E+03 -0.62830190696E+03  0.68068289681E+03  0.00000000000E+00 0. -1.
         -1    1    6    6    0  503  0.11387448287E+03  0.27221553635E+03 -0.68734582743E+03  0.74800600436E+03  0.00000000000E+00 0.  1.
<mgrwt>
<rscale>  0 0.26390239E+04</rscale>
<asrwt>0</asrwt>
<pdfrwt beam="1">  1        1 0.24248632E+00 0.26390239E+04</pdfrwt>
<pdfrwt beam="2">  1       -1 0.16994669E+00 0.26390239E+04</pdfrwt>
<totfact> 0.12528028E+00</totfact>
</mgrwt>
</event>
<event>
12    3  0.4806716E-008  0.1343603E+04  0.7818608E-02  0.8995685E-01
         -2   -1    0    0    0  501 -0.00000000000E+00  0.00000000000E+00  0.53951973481E+03  0.53951973481E+03  0.00000000000E+00 0.  1.
          2   -1    0    0  501    0  0.00000000000E+00 -0.00000000000E+00 -0.83651652908E+03  0.83651652908E+03  0.00000000000E+00 0. -1.
         23    2    1    2    0    0 -0.26428430101E+03 -0.88238171433E+02  0.16849363034E+03  0.33560378527E+03  0.81287333345E+02 0.  0.
        254    2    1    2    0    0  0.26428430101E+03  0.88238171433E+02 -0.46549042460E+03  0.10404324786E+04  0.88779853599E+03 0.  0.
         23    2    4    4    0    0 -0.24113292148E+03  0.13979396518E+03 -0.43432588744E+03  0.52410528696E+03  0.91432690000E+02 0.  0.
         23    2    4    4    0    0  0.50541722249E+03 -0.51555793745E+02 -0.31164537163E+02  0.51632719166E+03  0.86706238591E+02 0.  0.
          4    1    3    3  502    0 -0.13479399926E+03 -0.79594755853E+02  0.64532451855E+02  0.16931977066E+03  0.00000000000E+00 0. -1.
         -4    1    3    3    0  502 -0.12949030175E+03 -0.86434155800E+01  0.10396117848E+03  0.16628401460E+03  0.00000000000E+00 0.  1.
         13    1    5    5    0    0 -0.56506499304E+02  0.61948832441E+01 -0.43075477491E+02  0.71322211148E+02  0.00000000000E+00 0. -1.
        -13    1    5    5    0    0 -0.18462642217E+03  0.13359908193E+03 -0.39125040995E+03  0.45278307581E+03  0.00000000000E+00 0.  1.
          3    1    6    6  503    0  0.32431330260E+03 -0.24010525278E+01 -0.48263555463E+02  0.32789366276E+03  0.00000000000E+00 0. -1.
         -3    1    6    6    0  503  0.18110391989E+03 -0.49154741217E+02  0.17099018300E+02  0.18843352889E+03  0.00000000000E+00 0.  1.
<mgrwt>
<rscale>  0 0.13436029E+04</rscale>
<asrwt>0</asrwt>
<pdfrwt beam="1">  1        2 0.12869485E+00 0.13436029E+04</pdfrwt>
<pdfrwt beam="2">  1       -2 0.83003036E-01 0.13436029E+04</pdfrwt>
<totfact> 0.40330576E+01</totfact>
</mgrwt>
</event>
<event>
12    3  0.4806716E-008  0.1372833E+04  0.7818608E-02  0.8973722E-01
         -2   -1    0    0    0  501 -0.00000000000E+00  0.00000000000E+00  0.19299204352E+03  0.19299204352E+03  0.00000000000E+00 0.  1.
          2   -1    0    0  501    0  0.00000000000E+00 -0.00000000000E+00 -0.24413828696E+04  0.24413828696E+04  0.00000000000E+00 0. -1.
         23    2    1    2    0    0 -0.35622180826E+03 -0.11649342544E+03 -0.65559019045E+03  0.75986305655E+03  0.84431463585E+02 0.  0.
        254    2    1    2    0    0  0.35622180826E+03  0.11649342544E+03 -0.15928006357E+04  0.18745118566E+04  0.91450322074E+03 0.  0.
         23    2    4    4    0    0  0.47724277962E+03  0.42167738081E+03 -0.11274761800E+04  0.12981207284E+04  0.91336765487E+02 0.  0.
         23    2    4    4    0    0 -0.12102097136E+03 -0.30518395537E+03 -0.46532445565E+03  0.57639112824E+03  0.88975061490E+02 0.  0.
          2    1    3    3  502    0 -0.76828813151E+02 -0.39779472611E+02 -0.22314999742E+03  0.23933448210E+03  0.00000000000E+00 0. -1.
         -2    1    3    3    0  502 -0.27939299511E+03 -0.76713952827E+02 -0.43244019303E+03  0.52052857445E+03  0.00000000000E+00 0.  1.
         13    1    5    5    0    0  0.47755463615E+03  0.40763875677E+03 -0.10873762566E+04  0.12556332705E+04  0.00000000000E+00 0. -1.
        -13    1    5    5    0    0 -0.31185653641E+00  0.14038624040E+02 -0.40099923392E+02  0.42487457861E+02  0.00000000000E+00 0.  1.
          3    1    6    6  503    0 -0.32269679634E+02 -0.13625439192E+03 -0.26503933865E+03  0.29975397007E+03  0.00000000000E+00 0. -1.
         -3    1    6    6    0  503 -0.88751291721E+02 -0.16892956345E+03 -0.20028511700E+03  0.27663715817E+03  0.00000000000E+00 0.  1.
<mgrwt>
<rscale>  0 0.13728328E+04</rscale>
<asrwt>0</asrwt>
<pdfrwt beam="1">  1        2 0.37559738E+00 0.13728328E+04</pdfrwt>
<pdfrwt beam="2">  1       -2 0.29691083E-01 0.13728328E+04</pdfrwt>
<totfact> 0.38503017E+01</totfact>
</mgrwt>
</event>
<event>
12    3  0.4806716E-008  0.2135577E+04  0.7818608E-02  0.8545732E-01
          1   -1    0    0  501    0  0.00000000000E+00  0.00000000000E+00  0.21252803006E+04  0.21252803006E+04  0.00000000000E+00 0. -1.
         -1   -1    0    0    0  501 -0.00000000000E+00 -0.00000000000E+00 -0.53648071597E+03  0.53648071597E+03  0.00000000000E+00 0.  1.
         23    2    1    2    0    0  0.45322646491E+03  0.67061235945E+03  0.10774216122E+04  0.13506396215E+04  0.90856433330E+02 0.  0.
        254    2    1    2    0    0 -0.45322646491E+03 -0.67061235945E+03  0.51137797235E+03  0.13111213950E+04  0.89576599445E+03 0.  0.
         23    2    4    4    0    0 -0.26049923347E+03  0.17719523251E+03  0.19425322843E+03  0.38104456786E+03  0.90568454090E+02 0.  0.
         23    2    4    4    0    0 -0.19272723144E+03 -0.84780759196E+03  0.31712474391E+03  0.93007682718E+03  0.92484066433E+02 0.  0.
          1    1    3    3  502    0  0.38350706444E+03  0.53703063882E+03  0.92540696133E+03  0.11365991464E+04  0.00000000000E+00 0. -1.
         -1    1    3    3    0  502  0.69719400464E+02  0.13358172062E+03  0.15201465090E+03  0.21404047509E+03  0.00000000000E+00 0.  1.
         13    1    5    5    0    0 -0.39306651879E+02  0.64901675669E+02  0.71552782842E+02  0.10429305403E+03  0.00000000000E+00 0.  1.
        -13    1    5    5    0    0 -0.22119258159E+03  0.11229355684E+03  0.12270044559E+03  0.27675151383E+03  0.00000000000E+00 0. -1.
          4    1    6    6  503    0 -0.25708869624E+02 -0.31171883332E+03  0.11875516611E+03  0.33456294849E+03  0.00000000000E+00 0. -1.
         -4    1    6    6    0  503 -0.16701836182E+03 -0.53608875864E+03  0.19836957781E+03  0.59551387870E+03  0.00000000000E+00 0.  1.
<mgrwt>
<rscale>  0 0.21355766E+04</rscale>
<asrwt>0</asrwt>
<pdfrwt beam="1">  1        1 0.32696620E+00 0.21355766E+04</pdfrwt>
<pdfrwt beam="2">  1       -1 0.82535496E-01 0.21355766E+04</pdfrwt>
<totfact> 0.32762953E+00</totfact>
</mgrwt>
</event>
<event>
12    3  0.4806716E-008  0.2153126E+04  0.7818608E-02  0.8538195E-01
         -2   -1    0    0    0  501 -0.00000000000E+00  0.00000000000E+00  0.72015709680E+03  0.72015709680E+03  0.00000000000E+00 0.  1.
          2   -1    0    0  501    0  0.00000000000E+00 -0.00000000000E+00 -0.16093549011E+04  0.16093549011E+04  0.00000000000E+00 0. -1.
         23    2    1    2    0    0  0.84304705453E+03 -0.24330809884E+03 -0.19947912232E+03  0.90446515548E+03  0.91313362226E+02 0.  0.
        254    2    1    2    0    0 -0.84304705453E+03  0.24330809884E+03 -0.68971868200E+03  0.14250468424E+04  0.88606967882E+03 0.  0.
         23    2    4    4    0    0 -0.14390159215E+03  0.40899682297E+03 -0.51763624402E+03  0.68141613822E+03  0.91622065528E+02 0.  0.
         23    2    4    4    0    0 -0.69914546237E+03 -0.16568872412E+03 -0.17208243798E+03  0.74363070421E+03  0.84363072064E+02 0.  0.
          3    1    3    3  502    0  0.58112862993E+02 -0.42243526222E+02 -0.19424607278E+02  0.74424026502E+02  0.00000000000E+00 0. -1.
         -3    1    3    3    0  502  0.78493419153E+03 -0.20106457262E+03 -0.18005451504E+03  0.83004112897E+03  0.00000000000E+00 0.  1.
         13    1    5    5    0    0  0.12913015523E+02  0.36634613973E+02 -0.38929008800E+02  0.54993714523E+02  0.00000000000E+00 0. -1.
        -13    1    5    5    0    0 -0.15681460768E+03  0.37236220899E+03 -0.47870723522E+03  0.62642242370E+03  0.00000000000E+00 0.  1.
          3    1    6    6  503    0 -0.66950004358E+03 -0.14488676993E+03 -0.17587785948E+03  0.70721673192E+03  0.00000000000E+00 0. -1.
         -3    1    6    6    0  503 -0.29645418791E+02 -0.20801954196E+02  0.37954214951E+01  0.36413972291E+02  0.00000000000E+00 0.  1.
<mgrwt>
<rscale>  0 0.21531264E+04</rscale>
<asrwt>0</asrwt>
<pdfrwt beam="1">  1        2 0.24759306E+00 0.21531264E+04</pdfrwt>
<pdfrwt beam="2">  1       -2 0.11079340E+00 0.21531264E+04</pdfrwt>
<totfact> 0.65283508E+00</totfact>
</mgrwt>
</event>
<event>
12    3  0.4806716E-008  0.2361071E+04  0.7818608E-02  0.8454223E-01
         -2   -1    0    0    0  501 -0.00000000000E+00  0.00000000000E+00  0.91677884035E+03  0.91677884035E+03  0.00000000000E+00 0.  1.
          2   -1    0    0  501    0  0.00000000000E+00 -0.00000000000E+00 -0.15201752881E+04  0.15201752881E+04  0.00000000000E+00 0. -1.
         23    2    1    2    0    0  0.95460513639E+03  0.31509412525E+03 -0.33356521813E+03  0.10640939961E+04  0.10234746505E+03 0.  0.
        254    2    1    2    0    0 -0.95460513639E+03 -0.31509412525E+03 -0.26983122962E+03  0.13728601323E+04  0.89519873565E+03 0.  0.
         23    2    4    4    0    0 -0.10532529036E+04 -0.38967767817E+03 -0.37308785186E+03  0.11867737946E+04  0.89705756223E+02 0.  0.
         23    2    4    4    0    0  0.98647767162E+02  0.74583552919E+02  0.10325662225E+03  0.18608633772E+03  0.93124146784E+02 0.  0.
          3    1    3    3  502    0  0.95342579923E+02  0.89041606048E+01 -0.54471805283E+02  0.11016655206E+03  0.00000000000E+00 0. -1.
         -3    1    3    3    0  502  0.85926255647E+03  0.30618996465E+03 -0.27909341285E+03  0.95392744404E+03  0.00000000000E+00 0.  1.
         13    1    5    5    0    0 -0.20231139417E+03 -0.46587431267E+02 -0.92883718806E+02  0.22743718733E+03  0.00000000000E+00 0. -1.
        -13    1    5    5    0    0 -0.85094150938E+03 -0.34309024691E+03 -0.28020413306E+03  0.95933660730E+03  0.00000000000E+00 0.  1.
          3    1    6    6  503    0  0.77521039216E+01 -0.17981453708E+02  0.33465789994E+02  0.38773533403E+02  0.00000000000E+00 0. -1.
         -3    1    6    6    0  503  0.90895663240E+02  0.92565006626E+02  0.69790832255E+02  0.14731280431E+03  0.00000000000E+00 0.  1.
<mgrwt>
<rscale>  0 0.23610714E+04</rscale>
<asrwt>0</asrwt>
<pdfrwt beam="1">  1        2 0.23387312E+00 0.23610714E+04</pdfrwt>
<pdfrwt beam="2">  1       -2 0.14104290E+00 0.23610714E+04</pdfrwt>
<totfact> 0.39303195E+00</totfact>
</mgrwt>
</event>
<event>
12    3  0.4806716E-008  0.1490051E+04  0.7818608E-02  0.8891096E-01
         -1   -1    0    0    0  501 -0.00000000000E+00  0.00000000000E+00  0.45129737450E+03  0.45129737450E+03  0.00000000000E+00 0.  1.
          1   -1    0    0  501    0  0.00000000000E+00 -0.00000000000E+00 -0.12299279926E+04  0.12299279926E+04  0.00000000000E+00 0. -1.
         23    2    1    2    0    0 -0.15312868297E+03  0.43342293377E+03 -0.12179154481E+03  0.48514264384E+03  0.96054002609E+02 0.  0.
        254    2    1    2    0    0  0.15312868297E+03 -0.43342293377E+03 -0.65683907331E+03  0.11960827233E+04  0.88762181117E+03 0.  0.
         23    2    4    4    0    0 -0.27985005552E+03 -0.85609599991E+02 -0.54063071408E+03  0.62224309719E+03  0.96228092613E+02 0.  0.
         23    2    4    4    0    0  0.43297873849E+03 -0.34781333378E+03 -0.11620835924E+03  0.57383962611E+03  0.85690317985E+02 0.  0.
          4    1    3    3  502    0 -0.30281402740E+02  0.92969947798E+02 -0.68306299590E+02  0.11927332103E+03  0.00000000000E+00 0. -1.
         -4    1    3    3    0  502 -0.12284728023E+03  0.34045298597E+03 -0.53485245220E+02  0.36586932281E+03  0.00000000000E+00 0.  1.
         13    1    5    5    0    0 -0.18776763166E+03 -0.26886590319E+02 -0.41155154286E+03  0.45316028584E+03  0.00000000000E+00 0. -1.
        -13    1    5    5    0    0 -0.92082423856E+02 -0.58723009673E+02 -0.12907917122E+03  0.16908281134E+03  0.00000000000E+00 0.  1.
          3    1    6    6  503    0  0.29453693513E+03 -0.23216241984E+03 -0.11888654760E+03  0.39342776534E+03  0.00000000000E+00 0. -1.
         -3    1    6    6    0  503  0.13844180336E+03 -0.11565091393E+03  0.26781883614E+01  0.18041186076E+03  0.00000000000E+00 0.  1.
<mgrwt>
<rscale>  0 0.14900514E+04</rscale>
<asrwt>0</asrwt>
<pdfrwt beam="1">  1        1 0.18921969E+00 0.14900514E+04</pdfrwt>
<pdfrwt beam="2">  1       -1 0.69430364E-01 0.14900514E+04</pdfrwt>
<totfact> 0.20642192E+01</totfact>
</mgrwt>
</event>
<event>
12    3  0.4806716E-008  0.2781779E+04  0.7818608E-02  0.8308948E-01
         -1   -1    0    0    0  501 -0.00000000000E+00  0.00000000000E+00  0.11188143505E+04  0.11188143505E+04  0.00000000000E+00 0.  1.
          1   -1    0    0  501    0  0.00000000000E+00 -0.00000000000E+00 -0.17291287316E+04  0.17291287316E+04  0.00000000000E+00 0. -1.
         23    2    1    2    0    0  0.10299468887E+04  0.27039343640E+03  0.38351733442E+03  0.11358832494E+04  0.96135355144E+02 0.  0.
        254    2    1    2    0    0 -0.10299468887E+04 -0.27039343640E+03 -0.99383171548E+03  0.17120598328E+04  0.89974673571E+03 0.  0.
         23    2    4    4    0    0 -0.99043237904E+03 -0.26116009680E+03 -0.11398901894E+04  0.15352928119E+04  0.92808840465E+02 0.  0.
         23    2    4    4    0    0 -0.39514509615E+02 -0.92333396050E+01  0.14605847394E+03  0.17676702083E+03  0.90922223971E+02 0.  0.
          2    1    3    3  502    0  0.40014773773E+03  0.75767792001E+02  0.18615094007E+03  0.44778470586E+03  0.00000000000E+00 0. -1.
         -2    1    3    3    0  502  0.62979915093E+03  0.19462564440E+03  0.19736639435E+03  0.68809854351E+03  0.00000000000E+00 0.  1.
         13    1    5    5    0    0 -0.90786966241E+03 -0.21916509098E+03 -0.10621595366E+04  0.14143703695E+04  0.00000000000E+00 0. -1.
        -13    1    5    5    0    0 -0.82562716623E+02 -0.41995005821E+02 -0.77730652825E+02  0.12092244241E+03  0.00000000000E+00 0.  1.
          4    1    6    6  503    0 -0.43696652282E+02 -0.10894835799E+02  0.17791931923E+02  0.48421562442E+02  0.00000000000E+00 0. -1.
         -4    1    6    6    0  503  0.41821426668E+01  0.16614961944E+01  0.12826654202E+03  0.12834545839E+03  0.00000000000E+00 0.  1.
<mgrwt>
<rscale>  0 0.27817793E+04</rscale>
<asrwt>0</asrwt>
<pdfrwt beam="1">  1        1 0.26601981E+00 0.27817793E+04</pdfrwt>
<pdfrwt beam="2">  1       -1 0.17212528E+00 0.27817793E+04</pdfrwt>
<totfact> 0.93712720E-01</totfact>
</mgrwt>
</event>
<event>
12    3  0.4806716E-008  0.1979093E+04  0.7818608E-02  0.8616458E-01
          1   -1    0    0  501    0  0.00000000000E+00  0.00000000000E+00  0.36774027930E+04  0.36774027930E+04  0.00000000000E+00 0. -1.
         -1   -1    0    0    0  501 -0.00000000000E+00 -0.00000000000E+00 -0.26627544066E+03  0.26627544066E+03  0.00000000000E+00 0.  1.
         23    2    1    2    0    0  0.46955729548E+03  0.33118760851E+03  0.24519986291E+04  0.25200602093E+04  0.90757345837E+02 0.  0.
        254    2    1    2    0    0 -0.46955729548E+03 -0.33118760851E+03  0.95912872330E+03  0.14236180244E+04  0.88124405569E+03 0.  0.
         23    2    4    4    0    0 -0.62933609130E+02  0.49063287912E+02 -0.14284330599E+03  0.18572606974E+03  0.87875579865E+02 0.  0.
         23    2    4    4    0    0 -0.40662368635E+03 -0.38025089643E+03  0.11019720293E+04  0.12378919546E+04  0.90003174826E+02 0.  0.
          1    1    3    3  502    0  0.42478108632E+03  0.26697524701E+03  0.21823612784E+04  0.22392890620E+04  0.00000000000E+00 0. -1.
         -1    1    3    3    0  502  0.44776209164E+02  0.64212361502E+02  0.26963735066E+03  0.28077114728E+03  0.00000000000E+00 0.  1.
         13    1    5    5    0    0 -0.17009783470E+02 -0.20270161091E+02 -0.71201459511E+02  0.75959594528E+02  0.00000000000E+00 0. -1.
        -13    1    5    5    0    0 -0.45923825660E+02  0.69333449003E+02 -0.71641846477E+02  0.10976647521E+03  0.00000000000E+00 0.  1.
          2    1    6    6  503    0 -0.38649063510E+03 -0.36031724534E+03  0.10789360742E+04  0.12013769519E+04  0.00000000000E+00 0. -1.
         -2    1    6    6    0  503 -0.20133051255E+02 -0.19933651086E+02  0.23035955059E+02  0.36515002724E+02  0.00000000000E+00 0.  1.
<mgrwt>
<rscale>  0 0.19790928E+04</rscale>
<asrwt>0</asrwt>
<pdfrwt beam="1">  1        1 0.56575424E+00 0.19790928E+04</pdfrwt>
<pdfrwt beam="2">  1       -1 0.40965455E-01 0.19790928E+04</pdfrwt>
<totfact> 0.98114579E-01</totfact>
</mgrwt>
</event>
<event>
12    3  0.4806716E-008  0.2549811E+04  0.7818608E-02  0.8385452E-01
          2   -1    0    0  501    0  0.00000000000E+00  0.00000000000E+00  0.16390976089E+04  0.16390976089E+04  0.00000000000E+00 0. -1.
         -2   -1    0    0    0  501 -0.00000000000E+00 -0.00000000000E+00 -0.99163373637E+03  0.99163373637E+03  0.00000000000E+00 0.  1.
         23    2    1    2    0    0 -0.24095586020E+03  0.72324004262E+03  0.11682433748E+04  0.13981821427E+04  0.94788371892E+02 0.  0.
        254    2    1    2    0    0  0.24095586020E+03 -0.72324004262E+03 -0.52077950225E+03  0.12325492026E+04  0.81659681677E+03 0.  0.
         23    2    4    4    0    0 -0.33776397305E+02 -0.46471123961E+03 -0.66496219001E+03  0.81711086577E+03  0.91640992845E+02 0.  0.
         23    2    4    4    0    0  0.27473225751E+03 -0.25852880301E+03  0.14418268777E+03  0.41543833688E+03  0.97393064403E+02 0.  0.
          4    1    3    3  502    0 -0.23362510223E+03  0.67324581379E+03  0.10437512090E+04  0.12638264123E+04  0.00000000000E+00 0. -1.
         -4    1    3    3    0  502 -0.73307579760E+01  0.49994228836E+02  0.12449216579E+03  0.13435573033E+03  0.00000000000E+00 0.  1.
         13    1    5    5    0    0 -0.13880102232E+02 -0.14063926052E+03 -0.27895121818E+03  0.31270727680E+03  0.00000000000E+00 0. -1.
        -13    1    5    5    0    0 -0.19896295073E+02 -0.32407197909E+03 -0.38601097184E+03  0.50440358897E+03  0.00000000000E+00 0.  1.
          1    1    6    6  503    0 -0.69520637916E+01 -0.15878970521E+02  0.22428761002E+01  0.17478655239E+02  0.00000000000E+00 0. -1.
         -1    1    6    6    0  503  0.28168432130E+03 -0.24264983249E+03  0.14193981167E+03  0.39795968164E+03  0.00000000000E+00 0.  1.
<mgrwt>
<rscale>  0 0.25498114E+04</rscale>
<asrwt>0</asrwt>
<pdfrwt beam="1">  1        2 0.25216886E+00 0.25498114E+04</pdfrwt>
<pdfrwt beam="2">  1       -2 0.15255904E+00 0.25498114E+04</pdfrwt>
<totfact> 0.26983882E+00</totfact>
</mgrwt>
</event>
<event>
12    3  0.4806716E-008  0.2953903E+04  0.7818608E-02  0.8257018E-01
          1   -1    0    0  501    0  0.00000000000E+00  0.00000000000E+00  0.75709625917E+03  0.75709625917E+03  0.00000000000E+00 0. -1.
         -1   -1    0    0    0  501 -0.00000000000E+00 -0.00000000000E+00 -0.28812523392E+04  0.28812523392E+04  0.00000000000E+00 0.  1.
         23    2    1    2    0    0  0.53287139170E+03 -0.32482799190E+03 -0.23489030379E+04  0.24323733385E+04  0.98129671054E+02 0.  0.
        254    2    1    2    0    0 -0.53287139170E+03  0.32482799190E+03  0.22474695784E+03  0.12059752598E+04  0.10071742589E+04 0.  0.
         23    2    4    4    0    0 -0.66766653771E+03  0.50475639623E+03  0.37435407461E+03  0.92118377936E+03  0.88774754664E+02 0.  0.
         23    2    4    4    0    0  0.13479514601E+03 -0.17992840433E+03 -0.14960711676E+03  0.28479148046E+03  0.90442997987E+02 0.  0.
          3    1    3    3  502    0  0.95272532532E+00 -0.14936273262E+02 -0.36982332778E+02  0.39896025894E+02  0.00000000000E+00 0. -1.
         -3    1    3    3    0  502  0.53191866637E+03 -0.30989171864E+03 -0.23119207051E+04  0.23924773126E+04  0.00000000000E+00 0.  1.
         13    1    5    5    0    0 -0.20554640959E+03  0.12957271811E+03  0.71250242025E+02  0.25320942471E+03  0.00000000000E+00 0.  1.
        -13    1    5    5    0    0 -0.46212012812E+03  0.37518367812E+03  0.30310383258E+03  0.66797435465E+03  0.00000000000E+00 0. -1.
          1    1    6    6  503    0  0.70920954460E+02 -0.14170330222E+03 -0.13662998633E+03  0.20923040125E+03  0.00000000000E+00 0. -1.
         -1    1    6    6    0  503  0.63874191552E+02 -0.38225102112E+02 -0.12977130430E+02  0.75561079215E+02  0.00000000000E+00 0.  1.
<mgrwt>
<rscale>  0 0.29539028E+04</rscale>
<asrwt>0</asrwt>
<pdfrwt beam="1">  1        1 0.11647635E+00 0.29539028E+04</pdfrwt>
<pdfrwt beam="2">  1       -1 0.44326959E+00 0.29539028E+04</pdfrwt>
<totfact> 0.74175053E-02</totfact>
</mgrwt>
</event>
<event>
12    3  0.4806716E-008  0.1199885E+04  0.7818608E-02  0.9112957E-01
         -2   -1    0    0    0  501 -0.00000000000E+00  0.00000000000E+00  0.37231895512E+03  0.37231895512E+03  0.00000000000E+00 0.  1.
          2   -1    0    0  501    0  0.00000000000E+00 -0.00000000000E+00 -0.96672723733E+03  0.96672723733E+03  0.00000000000E+00 0. -1.
         23    2    1    2    0    0  0.19237274923E+03  0.14609252005E+03 -0.80833773877E+02  0.27004766428E+03  0.89673535248E+02 0.  0.
        254    2    1    2    0    0 -0.19237274923E+03 -0.14609252005E+03 -0.51357450833E+03  0.10689985282E+04  0.90589667102E+03 0.  0.
         23    2    4    4    0    0  0.29859273048E+01  0.36301548363E+03 -0.12923114363E+03  0.39579284665E+03  0.90344517582E+02 0.  0.
         23    2    4    4    0    0 -0.19535867653E+03 -0.50910800369E+03 -0.38434336470E+03  0.67320568152E+03  0.90167043481E+02 0.  0.
          2    1    3    3  502    0 -0.72268731870E+01  0.19126686206E+02 -0.11863668099E+02  0.23639044864E+02  0.00000000000E+00 0. -1.
         -2    1    3    3    0  502  0.19959962241E+03  0.12696583385E+03 -0.68970105778E+02  0.24640861942E+03  0.00000000000E+00 0.  1.
         13    1    5    5    0    0 -0.77450158075E+01  0.33945750121E+03 -0.94453723996E+02  0.35243848595E+03  0.00000000000E+00 0. -1.
        -13    1    5    5    0    0  0.10730943112E+02  0.23557982420E+02 -0.34777419632E+02  0.43354360704E+02  0.00000000000E+00 0.  1.
          4    1    6    6  503    0 -0.14858527967E+03 -0.46591537096E+03 -0.33894634856E+03  0.59501205487E+03  0.00000000000E+00 0. -1.
         -4    1    6    6    0  503 -0.46773396856E+02 -0.43192632729E+02 -0.45397016134E+02  0.78193626655E+02  0.00000000000E+00 0.  1.
<mgrwt>
<rscale>  0 0.11998848E+04</rscale>
<asrwt>0</asrwt>
<pdfrwt beam="1">  1        2 0.14872727E+00 0.11998848E+04</pdfrwt>
<pdfrwt beam="2">  1       -2 0.57279839E-01 0.11998848E+04</pdfrwt>
<totfact> 0.74607060E+01</totfact>
</mgrwt>
</event>
<event>
12    3  0.4806716E-008  0.1660490E+04  0.7818608E-02  0.8784225E-01
         -2   -1    0    0    0  501 -0.00000000000E+00  0.00000000000E+00  0.34093504475E+03  0.34093504475E+03  0.00000000000E+00 0.  1.
          2   -1    0    0  501    0  0.00000000000E+00 -0.00000000000E+00 -0.20218137130E+04  0.20218137130E+04  0.00000000000E+00 0. -1.
         23    2    1    2    0    0 -0.31281779343E+03  0.88020396604E+02 -0.13474581773E+04  0.13890856882E+04  0.91175365750E+02 0.  0.
        254    2    1    2    0    0  0.31281779343E+03 -0.88020396604E+02 -0.33342049094E+03  0.97366306960E+03  0.85513039194E+03 0.  0.
         23    2    4    4    0    0 -0.26465234503E+03 -0.16347799004E+03 -0.89903741065E+02  0.33573534060E+03  0.88710874803E+02 0.  0.
         23    2    4    4    0    0  0.57747013846E+03  0.75457593436E+02 -0.24351674988E+03  0.63792772900E+03  0.92118243249E+02 0.  0.
          3    1    3    3  502    0 -0.73032744218E+02 -0.18182443950E+02 -0.30045037328E+03  0.30973344960E+03  0.00000000000E+00 0. -1.
         -3    1    3    3    0  502 -0.23978504921E+03  0.10620284055E+03 -0.10470078040E+04  0.10793522386E+04  0.00000000000E+00 0.  1.
         13    1    5    5    0    0 -0.25470280915E+02  0.10662500204E+02 -0.73116856456E+01  0.28563698420E+02  0.00000000000E+00 0. -1.
        -13    1    5    5    0    0 -0.23918206412E+03 -0.17414049024E+03 -0.82592055419E+02  0.30717164218E+03  0.00000000000E+00 0.  1.
          2    1    6    6  503    0  0.15489093159E+02  0.19073158464E+02 -0.65476300047E+01  0.25427717935E+02  0.00000000000E+00 0. -1.
         -2    1    6    6    0  503  0.56198104530E+03  0.56384434972E+02 -0.23696911987E+03  0.61250001107E+03  0.00000000000E+00 0.  1.
<mgrwt>
<rscale>  0 0.16604905E+04</rscale>
<asrwt>0</asrwt>
<pdfrwt beam="1">  1        2 0.31104826E+00 0.16604905E+04</pdfrwt>
<pdfrwt beam="2">  1       -2 0.52451547E-01 0.16604905E+04</pdfrwt>
<totfact> 0.21274817E+01</totfact>
</mgrwt>
</event>
<event>
12    3  0.4806716E-008  0.2246219E+04  0.7818608E-02  0.8499433E-01
          2   -1    0    0  501    0  0.00000000000E+00  0.00000000000E+00  0.32909816153E+04  0.32909816153E+04  0.00000000000E+00 0.  1.
         -2   -1    0    0    0  501 -0.00000000000E+00 -0.00000000000E+00 -0.38328230032E+03  0.38328230032E+03  0.00000000000E+00 0. -1.
         23    2    1    2    0    0 -0.71487911239E+03  0.60161424494E+02  0.30991255458E+03  0.78679705469E+03  0.91281276593E+02 0.  0.
        254    2    1    2    0    0  0.71487911239E+03 -0.60161424494E+02  0.25977867604E+04  0.28874668609E+04  0.10364831297E+04 0.  0.
         23    2    4    4    0    0  0.24221168148E+03 -0.52239890767E+03  0.10297963142E+04  0.11834053545E+04  0.91655153150E+02 0.  0.
         23    2    4    4    0    0  0.47266743091E+03  0.46223748318E+03  0.15679904463E+04  0.17040615064E+04  0.90297214657E+02 0.  0.
          3    1    3    3  502    0 -0.68528414410E+03  0.72382263360E+02  0.28290385382E+03  0.74490814247E+03  0.00000000000E+00 0. -1.
         -3    1    3    3    0  502 -0.29594968285E+02 -0.12220838866E+02  0.27008700763E+02  0.41888912223E+02  0.00000000000E+00 0.  1.
         13    1    5    5    0    0  0.38249543541E+02 -0.85356275868E+02  0.24513075874E+03  0.26236960626E+03  0.00000000000E+00 0. -1.
        -13    1    5    5    0    0  0.20396213794E+03 -0.43704263180E+03  0.78466555542E+03  0.92103574827E+03  0.00000000000E+00 0.  1.
          1    1    6    6  503    0  0.72057689287E+02  0.49336680590E+02  0.14633283779E+03  0.17041043998E+03  0.00000000000E+00 0. -1.
         -1    1    6    6    0  503  0.40060974162E+03  0.41290080259E+03  0.14216576085E+04  0.15336510664E+04  0.00000000000E+00 0.  1.
<mgrwt>
<rscale>  0 0.22462190E+04</rscale>
<asrwt>0</asrwt>
<pdfrwt beam="1">  1        2 0.50630485E+00 0.22462190E+04</pdfrwt>
<pdfrwt beam="2">  1       -2 0.58966510E-01 0.22462190E+04</pdfrwt>
<totfact> 0.27689444E+00</totfact>
</mgrwt>
</event>
<event>
12    3  0.4806716E-008  0.1281285E+04  0.7818608E-02  0.9044539E-01
         -2   -1    0    0    0  501 -0.00000000000E+00  0.00000000000E+00  0.21443319547E+03  0.21443319547E+03  0.00000000000E+00 0.  1.
          2   -1    0    0  501    0  0.00000000000E+00 -0.00000000000E+00 -0.19139904899E+04  0.19139904899E+04  0.00000000000E+00 0. -1.
         23    2    1    2    0    0 -0.21652847084E+03  0.71057037396E+02 -0.78852792729E+03  0.82579194204E+03  0.90677219679E+02 0.  0.
        254    2    1    2    0    0  0.21652847084E+03 -0.71057037396E+02 -0.91102936713E+03  0.13026317433E+04  0.90274097597E+03 0.  0.
         23    2    4    4    0    0  0.27111215264E+03  0.33199174631E+03 -0.72279633872E+03  0.84521654454E+03  0.90753187117E+02 0.  0.
         23    2    4    4    0    0 -0.54583681802E+02 -0.40304878370E+03 -0.18823302841E+03  0.45741519879E+03  0.91483827722E+02 0.  0.
          1    1    3    3  502    0 -0.12674453301E+03  0.80471796982E+02 -0.56787766129E+03  0.58738822337E+03  0.00000000000E+00 0. -1.
         -1    1    3    3    0  502 -0.89783937822E+02 -0.94147595866E+01 -0.22065026600E+03  0.23840371866E+03  0.00000000000E+00 0.  1.
         13    1    5    5    0    0  0.25474039952E+03  0.28893111933E+03 -0.58955880645E+03  0.70423962479E+03  0.00000000000E+00 0. -1.
        -13    1    5    5    0    0  0.16371753116E+02  0.43060626975E+02 -0.13323753227E+03  0.14097691974E+03  0.00000000000E+00 0.  1.
          1    1    6    6  503    0 -0.32495925655E+02 -0.16359859544E+03 -0.12596853649E+03  0.20901808008E+03  0.00000000000E+00 0. -1.
         -1    1    6    6    0  503 -0.22087756147E+02 -0.23945018826E+03 -0.62264491925E+02  0.24839711871E+03  0.00000000000E+00 0.  1.
<mgrwt>
<rscale>  0 0.12812854E+04</rscale>
<asrwt>0</asrwt>
<pdfrwt beam="1">  1        2 0.29446009E+00 0.12812854E+04</pdfrwt>
<pdfrwt beam="2">  1       -2 0.32989721E-01 0.12812854E+04</pdfrwt>
<totfact> 0.62807008E+01</totfact>
</mgrwt>
</event>
<event>
12    3  0.4806716E-008  0.1816524E+04  0.7818608E-02  0.8697561E-01
         -2   -1    0    0    0  501 -0.00000000000E+00  0.00000000000E+00  0.56266943637E+03  0.56266943637E+03  0.00000000000E+00 0.  1.
          2   -1    0    0  501    0  0.00000000000E+00 -0.00000000000E+00 -0.14661174102E+04  0.14661174102E+04  0.00000000000E+00 0. -1.
         23    2    1    2    0    0  0.36521142061E+02  0.52777829889E+03 -0.81125382729E+03  0.97258871080E+03  0.88951118517E+02 0.  0.
        254    2    1    2    0    0 -0.36521142061E+02 -0.52777829889E+03 -0.92194146499E+02  0.10561981357E+04  0.90948942528E+03 0.  0.
         23    2    4    4    0    0 -0.28434044882E+03 -0.64900268382E+03  0.78644479181E+02  0.71885681165E+03  0.92283189760E+02 0.  0.
         23    2    4    4    0    0  0.24781930676E+03  0.12122438493E+03 -0.17083862568E+03  0.33734132408E+03  0.92214817718E+02 0.  0.
          3    1    3    3  502    0  0.59502186667E+02  0.40059937426E+03 -0.57523717420E+03  0.70350421140E+03  0.00000000000E+00 0. -1.
         -3    1    3    3    0  502 -0.22981044606E+02  0.12717892462E+03 -0.23601665309E+03  0.26908449939E+03  0.00000000000E+00 0.  1.
         13    1    5    5    0    0 -0.22917797419E+03 -0.54553857907E+03  0.98718424945E+02  0.59990016881E+03  0.00000000000E+00 0. -1.
        -13    1    5    5    0    0 -0.55162474633E+02 -0.10346410475E+03 -0.20073945764E+02  0.11895664285E+03  0.00000000000E+00 0.  1.
          2    1    6    6  503    0  0.50508153385E+02 -0.12988794384E+02 -0.34087655654E+02  0.62303696567E+02  0.00000000000E+00 0. -1.
         -2    1    6    6    0  503  0.19731115337E+03  0.13421317932E+03 -0.13675097003E+03  0.27503762752E+03  0.00000000000E+00 0.  1.
<mgrwt>
<rscale>  0 0.18165236E+04</rscale>
<asrwt>0</asrwt>
<pdfrwt beam="1">  1        2 0.22555652E+00 0.18165236E+04</pdfrwt>
<pdfrwt beam="2">  1       -2 0.86564529E-01 0.18165236E+04</pdfrwt>
<totfact> 0.14457514E+01</totfact>
</mgrwt>
</event>
<event>
12    3  0.4806716E-008  0.1625839E+04  0.7818608E-02  0.8804829E-01
         -1   -1    0    0    0  501 -0.00000000000E+00  0.00000000000E+00  0.53092676146E+03  0.53092676146E+03  0.00000000000E+00 0.  1.
          1   -1    0    0  501    0  0.00000000000E+00 -0.00000000000E+00 -0.12446882341E+04  0.12446882341E+04  0.00000000000E+00 0. -1.
         23    2    1    2    0    0 -0.22055206937E+02 -0.15101150988E+03  0.33394900876E+03  0.37796856262E+03  0.89707221574E+02 0.  0.
        254    2    1    2    0    0  0.22055206937E+02  0.15101150988E+03 -0.10477104815E+04  0.13976464330E+04  0.91237458888E+03 0.  0.
         23    2    4    4    0    0 -0.22258777698E+03 -0.31134875621E+03 -0.41623381210E+03  0.57272034506E+03  0.90965052964E+02 0.  0.
         23    2    4    4    0    0  0.24464298392E+03  0.46236026609E+03 -0.63147666936E+03  0.82492608793E+03  0.90072533876E+02 0.  0.
          2    1    3    3  502    0 -0.49544881846E+02 -0.71871565187E+02  0.12158747947E+03  0.14967876390E+03  0.00000000000E+00 0. -1.
         -2    1    3    3    0  502  0.27489674909E+02 -0.79139944691E+02  0.21236152929E+03  0.22828979871E+03  0.00000000000E+00 0.  1.
         13    1    5    5    0    0 -0.22424940419E+03 -0.27375625173E+03 -0.39127327124E+03  0.52756521248E+03  0.00000000000E+00 0.  1.
        -13    1    5    5    0    0  0.16616272078E+01 -0.37592504480E+02 -0.24960540862E+02  0.45155132578E+02  0.00000000000E+00 0. -1.
          4    1    6    6  503    0 -0.51444908861E+01  0.37736915142E+02 -0.48619643397E+02  0.61760912194E+02  0.00000000000E+00 0. -1.
         -4    1    6    6    0  503  0.24978747481E+03  0.42462335095E+03 -0.58285702596E+03  0.76316517573E+03  0.00000000000E+00 0.  1.
<mgrwt>
<rscale>  0 0.16258392E+04</rscale>
<asrwt>0</asrwt>
<pdfrwt beam="1">  1        1 0.19149050E+00 0.16258392E+04</pdfrwt>
<pdfrwt beam="2">  1       -1 0.81681040E-01 0.16258392E+04</pdfrwt>
<totfact> 0.14164445E+01</totfact>
</mgrwt>
</event>
<event>
12    3  0.4806716E-008  0.1221989E+04  0.7818608E-02  0.9093824E-01
         -1   -1    0    0    0  501 -0.00000000000E+00  0.00000000000E+00  0.24654811475E+03  0.24654811475E+03  0.00000000000E+00 0.  1.
          1   -1    0    0  501    0  0.00000000000E+00 -0.00000000000E+00 -0.15141649851E+04  0.15141649851E+04  0.00000000000E+00 0. -1.
         23    2    1    2    0    0 -0.24634840054E+03 -0.91816376070E+02 -0.19625486333E+03  0.34022813323E+03  0.90118976315E+02 0.  0.
        254    2    1    2    0    0  0.24634840054E+03  0.91816376070E+02 -0.10713620070E+04  0.14204849666E+04  0.89489843499E+03 0.  0.
         23    2    4    4    0    0  0.31797655489E+03 -0.12353426664E+03 -0.34047156328E+02  0.35481436473E+03  0.91456110079E+02 0.  0.
         23    2    4    4    0    0 -0.71628154343E+02  0.21535064271E+03 -0.10373148506E+04  0.10656706019E+04  0.90140115835E+02 0.  0.
          4    1    3    3  502    0 -0.20426018716E+03 -0.10901676214E+03 -0.17388185196E+03  0.28955444554E+03  0.00000000000E+00 0. -1.
         -4    1    3    3    0  502 -0.42088213380E+02  0.17200386069E+02 -0.22373011367E+02  0.50673687689E+02  0.00000000000E+00 0.  1.
         13    1    5    5    0    0  0.94913261992E+02  0.55572600498E+01 -0.16464826695E+02  0.96490937187E+02  0.00000000000E+00 0.  1.
        -13    1    5    5    0    0  0.22306329289E+03 -0.12909152669E+03 -0.17582329633E+02  0.25832342754E+03  0.00000000000E+00 0. -1.
          2    1    6    6  503    0 -0.50297055826E+02  0.39383791532E+02 -0.20640833772E+03  0.21606776424E+03  0.00000000000E+00 0.  1.
         -2    1    6    6    0  503 -0.21331098516E+02  0.17596685118E+03 -0.83090651292E+03  0.84960283762E+03  0.00000000000E+00 0. -1.
<mgrwt>
<rscale>  0 0.12219894E+04</rscale>
<asrwt>0</asrwt>
<pdfrwt beam="1">  1        1 0.23294846E+00 0.12219894E+04</pdfrwt>
<pdfrwt beam="2">  1       -1 0.37930480E-01 0.12219894E+04</pdfrwt>
<totfact> 0.42403386E+01</totfact>
</mgrwt>
</event>
<event>
12    3  0.4806716E-008  0.2455091E+04  0.7818608E-02  0.8419162E-01
         -1   -1    0    0    0  501 -0.00000000000E+00  0.00000000000E+00  0.17672016504E+04  0.17672016504E+04  0.00000000000E+00 0.  1.
          1   -1    0    0  501    0  0.00000000000E+00 -0.00000000000E+00 -0.85268585527E+03  0.85268585527E+03  0.00000000000E+00 0. -1.
         23    2    1    2    0    0  0.14425493997E+03 -0.47214122649E+03  0.13984244372E+04  0.14864957217E+04  0.10174378889E+03 0.  0.
        254    2    1    2    0    0 -0.14425493997E+03  0.47214122649E+03 -0.48390864211E+03  0.11333917839E+04  0.89815507377E+03 0.  0.
         23    2    4    4    0    0 -0.46889352568E+03  0.46369325237E+03 -0.20668479700E+03  0.69706383000E+03  0.91141686787E+02 0.  0.
         23    2    4    4    0    0  0.32463858571E+03  0.84479741217E+01 -0.27722384512E+03  0.43632795394E+03  0.89818948400E+02 0.  0.
          4    1    3    3  502    0  0.10218257798E+03 -0.22243886605E+03  0.57282126897E+03  0.62293220703E+03  0.00000000000E+00 0. -1.
         -4    1    3    3    0  502  0.42072361982E+02 -0.24970236045E+03  0.82560316823E+03  0.86356351466E+03  0.00000000000E+00 0.  1.
         13    1    5    5    0    0 -0.12526857725E+03  0.13866493238E+03 -0.10096515002E+03  0.21240089792E+03  0.00000000000E+00 0.  1.
        -13    1    5    5    0    0 -0.34362494843E+03  0.32502831999E+03 -0.10571964698E+03  0.48466293209E+03  0.00000000000E+00 0. -1.
          1    1    6    6  503    0  0.66747329639E+02  0.16430650886E+02 -0.10714500848E+03  0.12729974527E+03  0.00000000000E+00 0. -1.
         -1    1    6    6    0  503  0.25789125607E+03 -0.79826767643E+01 -0.17007883664E+03  0.30902820868E+03  0.00000000000E+00 0.  1.
<mgrwt>
<rscale>  0 0.24550909E+04</rscale>
<asrwt>0</asrwt>
<pdfrwt beam="1">  1        1 0.13118244E+00 0.24550909E+04</pdfrwt>
<pdfrwt beam="2">  1       -1 0.27187718E+00 0.24550909E+04</pdfrwt>
<totfact> 0.89272337E-01</totfact>
</mgrwt>
</event>
<event>
12    3  0.4806716E-008  0.1733501E+04  0.7818608E-02  0.8742485E-01
          1   -1    0    0  501    0  0.00000000000E+00  0.00000000000E+00  0.54784490377E+03  0.54784490377E+03  0.00000000000E+00 0. -1.
         -1   -1    0    0    0  501 -0.00000000000E+00 -0.00000000000E+00 -0.13712935835E+04  0.13712935835E+04  0.00000000000E+00 0.  1.
         23    2    1    2    0    0 -0.21631714176E+03 -0.45468263460E+03 -0.71014163030E+03  0.87533648854E+03  0.91561067380E+02 0.  0.
        254    2    1    2    0    0  0.21631714176E+03  0.45468263460E+03 -0.11330704941E+03  0.10438019987E+04  0.90727874494E+03 0.  0.
         23    2    4    4    0    0  0.26363670309E+03  0.41517833935E+02 -0.42904246024E+03  0.51329977488E+03  0.90394604108E+02 0.  0.
         23    2    4    4    0    0 -0.47319561329E+02  0.41316480067E+03  0.31573541082E+03  0.53050222383E+03  0.93805471269E+02 0.  0.
          2    1    3    3  502    0 -0.48981248881E+02 -0.64535448734E+02 -0.17015064088E+03  0.18845484201E+03  0.00000000000E+00 0. -1.
         -2    1    3    3    0  502 -0.16733589288E+03 -0.39014718587E+03 -0.53999098941E+03  0.68688164653E+03  0.00000000000E+00 0.  1.
         13    1    5    5    0    0  0.79029024383E+02 -0.18794733738E+02 -0.18002082995E+03  0.19750019729E+03  0.00000000000E+00 0. -1.
        -13    1    5    5    0    0  0.18460767871E+03  0.60312567673E+02 -0.24902163028E+03  0.31579957759E+03  0.00000000000E+00 0.  1.
          2    1    6    6  503    0 -0.53579852777E+01  0.35254907875E+03  0.26057696517E+03  0.43842891752E+03  0.00000000000E+00 0. -1.
         -2    1    6    6    0  503 -0.41961576052E+02  0.60615721915E+02  0.55158445653E+02  0.92073306310E+02  0.00000000000E+00 0.  1.
<mgrwt>
<rscale>  0 0.17335007E+04</rscale>
<asrwt>0</asrwt>
<pdfrwt beam="1">  1        1 0.84283832E-01 0.17335007E+04</pdfrwt>
<pdfrwt beam="2">  1       -1 0.21096824E+00 0.17335007E+04</pdfrwt>
<totfact> 0.46863296E+00</totfact>
</mgrwt>
</event>
<event>
12    3  0.4806716E-008  0.1804205E+04  0.7818608E-02  0.8704066E-01
         -1   -1    0    0    0  501 -0.00000000000E+00  0.00000000000E+00  0.70276854810E+03  0.70276854810E+03  0.00000000000E+00 0.  1.
          1   -1    0    0  501    0  0.00000000000E+00 -0.00000000000E+00 -0.11579763439E+04  0.11579763439E+04  0.00000000000E+00 0. -1.
         23    2    1    2    0    0  0.61703971777E+03  0.27355348391E+03 -0.22722748256E+03  0.71825786545E+03  0.93233634407E+02 0.  0.
        254    2    1    2    0    0 -0.61703971777E+03 -0.27355348391E+03 -0.22798031322E+03  0.11424870265E+04  0.89315847459E+03 0.  0.
         23    2    4    4    0    0 -0.63889466611E+03 -0.51404058515E+03 -0.45064352528E+02  0.82629593737E+03  0.91159545183E+02 0.  0.
         23    2    4    4    0    0  0.21854948347E+02  0.24048710124E+03 -0.18291596069E+03  0.31619108916E+03  0.90591785288E+02 0.  0.
          3    1    3    3  502    0  0.59237041700E+03  0.24188962615E+03 -0.20258949522E+03  0.67116004481E+03  0.00000000000E+00 0. -1.
         -3    1    3    3    0  502  0.24669300771E+02  0.31663857767E+02 -0.24637987338E+02  0.47097820643E+02  0.00000000000E+00 0.  1.
         13    1    5    5    0    0 -0.55658117900E+03 -0.41683713472E+03 -0.15518535801E+02  0.69554053127E+03  0.00000000000E+00 0. -1.
        -13    1    5    5    0    0 -0.82313487118E+02 -0.97203450435E+02 -0.29545816727E+02  0.13075540610E+03  0.00000000000E+00 0.  1.
          3    1    6    6  503    0 -0.47724327541E+00  0.17783954837E+03 -0.83224717207E+02  0.19635041706E+03  0.00000000000E+00 0. -1.
         -3    1    6    6    0  503  0.22332191623E+02  0.62647552869E+02 -0.99691243480E+02  0.11984067210E+03  0.00000000000E+00 0.  1.
<mgrwt>
<rscale>  0 0.18042055E+04</rscale>
<asrwt>0</asrwt>
<pdfrwt beam="1">  1        1 0.17815020E+00 0.18042055E+04</pdfrwt>
<pdfrwt beam="2">  1       -1 0.10811824E+00 0.18042055E+04</pdfrwt>
<totfact> 0.86052995E+00</totfact>
</mgrwt>
</event>
<event>
12    3  0.4806716E-008  0.1362913E+04  0.7818608E-02  0.8981110E-01
          2   -1    0    0  501    0  0.00000000000E+00  0.00000000000E+00  0.14716819032E+04  0.14716819032E+04  0.00000000000E+00 0. -1.
         -2   -1    0    0    0  501 -0.00000000000E+00 -0.00000000000E+00 -0.31554572761E+03  0.31554572761E+03  0.00000000000E+00 0.  1.
         23    2    1    2    0    0  0.35527661961E+03 -0.15107083048E+02  0.19405527001E+03  0.41774466077E+03  0.10199732048E+03 0.  0.
        254    2    1    2    0    0 -0.35527661961E+03  0.15107083048E+02  0.96208090555E+03  0.13694829700E+04  0.90743277213E+03 0.  0.
         23    2    4    4    0    0  0.19182494301E+03  0.27623979702E+03  0.45963370538E+03  0.57682909922E+03  0.91451803489E+02 0.  0.
         23    2    4    4    0    0 -0.54710156262E+03 -0.26113271397E+03  0.50244720017E+03  0.79265387079E+03  0.91304741422E+02 0.  0.
          1    1    3    3  502    0  0.22192223128E+03  0.19591098444E+01  0.17358421367E+03  0.28175307289E+03  0.00000000000E+00 0. -1.
         -1    1    3    3    0  502  0.13335438833E+03 -0.17066192893E+02  0.20471056334E+02  0.13599158788E+03  0.00000000000E+00 0.  1.
         13    1    5    5    0    0  0.63073331274E+02  0.12337240010E+03  0.25841885246E+03  0.29322226643E+03  0.00000000000E+00 0.  1.
        -13    1    5    5    0    0  0.12875161174E+03  0.15286739692E+03  0.20121485292E+03  0.28360683278E+03  0.00000000000E+00 0. -1.
          2    1    6    6  503    0 -0.51703131931E+03 -0.23259121112E+03  0.43978096237E+03  0.71751470473E+03  0.00000000000E+00 0. -1.
         -2    1    6    6    0  503 -0.30070243308E+02 -0.28541502854E+02  0.62666237798E+02  0.75139166069E+02  0.00000000000E+00 0.  1.
<mgrwt>
<rscale>  0 0.13629130E+04</rscale>
<asrwt>0</asrwt>
<pdfrwt beam="1">  1        2 0.22641260E+00 0.13629130E+04</pdfrwt>
<pdfrwt beam="2">  1       -2 0.48545498E-01 0.13629130E+04</pdfrwt>
<totfact> 0.51642996E+01</totfact>
</mgrwt>
</event>
<event>
12    3  0.4806716E-008  0.2148993E+04  0.7818608E-02  0.8539964E-01
          2   -1    0    0  501    0  0.00000000000E+00  0.00000000000E+00  0.55741847166E+03  0.55741847166E+03  0.00000000000E+00 0. -1.
         -2   -1    0    0    0  501 -0.00000000000E+00 -0.00000000000E+00 -0.20712311012E+04  0.20712311012E+04  0.00000000000E+00 0.  1.
         23    2    1    2    0    0 -0.25681592402E+03 -0.41166013318E+03  0.27806395861E+03  0.56633500188E+03  0.89427541597E+02 0.  0.
        254    2    1    2    0    0  0.25681592402E+03  0.41166013318E+03 -0.17918765882E+04  0.20623145710E+04  0.89827679389E+03 0.  0.
         23    2    4    4    0    0 -0.26907735236E+03  0.34324891854E+03 -0.10935201453E+04  0.11807437550E+04  0.90261095563E+02 0.  0.
         23    2    4    4    0    0  0.52589327638E+03  0.68411214649E+02 -0.69835644291E+03  0.88157081595E+03  0.90672761875E+02 0.  0.
          3    1    3    3  502    0 -0.81884073823E+02 -0.12160799544E+03  0.13268554906E+03  0.19773457217E+03  0.00000000000E+00 0.  1.
         -3    1    3    3    0  502 -0.17493185019E+03 -0.29005213774E+03  0.14537840955E+03  0.36860042971E+03  0.00000000000E+00 0. -1.
         13    1    5    5    0    0 -0.66075639418E+02  0.11546928550E+03 -0.24119049976E+03  0.27544873061E+03  0.00000000000E+00 0.  1.
        -13    1    5    5    0    0 -0.20300171295E+03  0.22777963303E+03 -0.85232964550E+03  0.90529502444E+03  0.00000000000E+00 0. -1.
          2    1    6    6  503    0  0.50527914438E+03  0.49159062592E+02 -0.64125129240E+03  0.81787948206E+03  0.00000000000E+00 0. -1.
         -2    1    6    6    0  503  0.20614132001E+02  0.19252152056E+02 -0.57105150508E+02  0.63691333881E+02  0.00000000000E+00 0.  1.
<mgrwt>
<rscale>  0 0.21489928E+04</rscale>
<asrwt>0</asrwt>
<pdfrwt beam="1">  1        2 0.85756688E-01 0.21489928E+04</pdfrwt>
<pdfrwt beam="2">  1       -2 0.31865094E+00 0.21489928E+04</pdfrwt>
<totfact> 0.12151355E+00</totfact>
</mgrwt>
</event>
<event>
12    3  0.4806716E-008  0.3605735E+04  0.7818608E-02  0.8089179E-01
         -2   -1    0    0    0  501 -0.00000000000E+00  0.00000000000E+00  0.12197881586E+04  0.12197881586E+04  0.00000000000E+00 0.  1.
          2   -1    0    0  501    0  0.00000000000E+00 -0.00000000000E+00 -0.26646687412E+04  0.26646687412E+04  0.00000000000E+00 0. -1.
         23    2    1    2    0    0 -0.63619185105E+03 -0.93837516854E+03 -0.20225954552E+04  0.23204901851E+04  0.92164502574E+02 0.  0.
        254    2    1    2    0    0  0.63619185105E+03  0.93837516854E+03  0.57771487265E+03  0.15639667147E+04  0.90936757269E+03 0.  0.
         23    2    4    4    0    0  0.29873579579E+03  0.98100720291E+03  0.20284508881E+03  0.10493188310E+04  0.91135455381E+02 0.  0.
         23    2    4    4    0    0  0.33745605526E+03 -0.42632034369E+02  0.37486978384E+03  0.51464788366E+03  0.92957031616E+02 0.  0.
          4    1    3    3  502    0 -0.16414198304E+03 -0.21839573439E+03 -0.41451090222E+03  0.49644594414E+03  0.00000000000E+00 0. -1.
         -4    1    3    3    0  502 -0.47204986802E+03 -0.71997943415E+03 -0.16080845530E+04  0.18240442410E+04  0.00000000000E+00 0.  1.
         13    1    5    5    0    0  0.27421671808E+03  0.84636133911E+03  0.20262835992E+03  0.91245853443E+03  0.00000000000E+00 0. -1.
        -13    1    5    5    0    0  0.24519077708E+02  0.13464586380E+03  0.21672889125E+00  0.13686029659E+03  0.00000000000E+00 0.  1.
          2    1    6    6  503    0  0.25327609222E+03 -0.44245274502E+01  0.31620762496E+03  0.40516122397E+03  0.00000000000E+00 0. -1.
         -2    1    6    6    0  503  0.84179963049E+02 -0.38207506919E+02  0.58662158888E+02  0.10948665969E+03  0.00000000000E+00 0.  1.
<mgrwt>
<rscale>  0 0.36057351E+04</rscale>
<asrwt>0</asrwt>
<pdfrwt beam="1">  1        2 0.40994903E+00 0.36057351E+04</pdfrwt>
<pdfrwt beam="2">  1       -2 0.18765972E+00 0.36057351E+04</pdfrwt>
<totfact> 0.36486266E-01</totfact>
</mgrwt>
</event>
<event>
12    3  0.4806716E-008  0.2017954E+04  0.7818608E-02  0.8598272E-01
          2   -1    0    0  501    0  0.00000000000E+00  0.00000000000E+00  0.73426336654E+03  0.73426336654E+03  0.00000000000E+00 0. -1.
         -2   -1    0    0    0  501 -0.00000000000E+00 -0.00000000000E+00 -0.13864704461E+04  0.13864704461E+04  0.00000000000E+00 0.  1.
         23    2    1    2    0    0  0.10203374545E+03 -0.78250457399E+03 -0.44705915708E+03  0.91155460151E+03  0.91354299805E+02 0.  0.
        254    2    1    2    0    0 -0.10203374545E+03  0.78250457399E+03 -0.20514792252E+03  0.12091792112E+04  0.89291903390E+03 0.  0.
         23    2    4    4    0    0 -0.31891665993E+03  0.69377771632E+03 -0.42209901188E+03  0.87704080917E+03  0.89429578383E+02 0.  0.
         23    2    4    4    0    0  0.21688291448E+03  0.88726857670E+02  0.21695108935E+03  0.33213840200E+03  0.91309851878E+02 0.  0.
          3    1    3    3  502    0 -0.89742544167E+01 -0.67613265945E+02 -0.18426970002E+02  0.70651568967E+02  0.00000000000E+00 0. -1.
         -3    1    3    3    0  502  0.11100799987E+03 -0.71489130804E+03 -0.42863218708E+03  0.84090303255E+03  0.00000000000E+00 0.  1.
         13    1    5    5    0    0 -0.28381268846E+03  0.52923806267E+03 -0.33146059576E+03  0.68593636415E+03  0.00000000000E+00 0. -1.
        -13    1    5    5    0    0 -0.35103971470E+02  0.16453965364E+03 -0.90638416115E+02  0.19110444503E+03  0.00000000000E+00 0.  1.
          2    1    6    6  503    0  0.89796129253E+02  0.55870345348E+02  0.42877982707E+02  0.11411994444E+03  0.00000000000E+00 0. -1.
         -2    1    6    6    0  503  0.12708678522E+03  0.32856512322E+02  0.17407310665E+03  0.21801845756E+03  0.00000000000E+00 0.  1.
<mgrwt>
<rscale>  0 0.20179539E+04</rscale>
<asrwt>0</asrwt>
<pdfrwt beam="1">  1        2 0.11296360E+00 0.20179539E+04</pdfrwt>
<pdfrwt beam="2">  1       -2 0.21330314E+00 0.20179539E+04</pdfrwt>
<totfact> 0.38970390E+00</totfact>
</mgrwt>
</event>
<event>
12    3  0.4806716E-008  0.1411440E+04  0.7818608E-02  0.8945579E-01
          2   -1    0    0  501    0  0.00000000000E+00  0.00000000000E+00  0.13643468026E+04  0.13643468026E+04  0.00000000000E+00 0.  1.
         -2   -1    0    0    0  501 -0.00000000000E+00 -0.00000000000E+00 -0.36503961384E+03  0.36503961384E+03  0.00000000000E+00 0. -1.
         23    2    1    2    0    0  0.18729407396E+03  0.23829126042E+03 -0.46432675262E+02  0.31965774534E+03  0.90350904213E+02 0.  0.
        254    2    1    2    0    0 -0.18729407396E+03 -0.23829126042E+03  0.10457398640E+04  0.14097286711E+04  0.89548940139E+03 0.  0.
         23    2    4    4    0    0 -0.39544123199E+03  0.19674749985E+03  0.57195691550E+03  0.72838249950E+03  0.91230508828E+02 0.  0.
         23    2    4    4    0    0  0.20814715803E+03 -0.43503876027E+03  0.47378294855E+03  0.68134617162E+03  0.84725208256E+02 0.  0.
          3    1    3    3  502    0  0.69521558732E+02  0.72311775026E+02 -0.57891652692E+02  0.11581745718E+03  0.00000000000E+00 0. -1.
         -3    1    3    3    0  502  0.11777251522E+03  0.16597948539E+03  0.11458977430E+02  0.20384028816E+03  0.00000000000E+00 0.  1.
         13    1    5    5    0    0 -0.39931654618E+03  0.19244523832E+03  0.55397189552E+03  0.70948836131E+03  0.00000000000E+00 0. -1.
        -13    1    5    5    0    0  0.38753141956E+01  0.43022615344E+01  0.17985019983E+02  0.18894138197E+02  0.00000000000E+00 0.  1.
          4    1    6    6  503    0  0.54890285245E+02 -0.14575601422E+03  0.10301777331E+03  0.18673623300E+03  0.00000000000E+00 0.  1.
         -4    1    6    6    0  503  0.15325687279E+03 -0.28928274605E+03  0.37076517524E+03  0.49460993863E+03  0.00000000000E+00 0. -1.
<mgrwt>
<rscale>  0 0.14114399E+04</rscale>
<asrwt>0</asrwt>
<pdfrwt beam="1">  1        2 0.20989951E+00 0.14114399E+04</pdfrwt>
<pdfrwt beam="2">  1       -2 0.56159941E-01 0.14114399E+04</pdfrwt>
<totfact> 0.43905690E+01</totfact>
</mgrwt>
</event>
<event>
12    3  0.4806716E-008  0.1816732E+04  0.7818608E-02  0.8697452E-01
         -2   -1    0    0    0  501 -0.00000000000E+00  0.00000000000E+00  0.56205363097E+03  0.56205363097E+03  0.00000000000E+00 0. -1.
          2   -1    0    0  501    0  0.00000000000E+00 -0.00000000000E+00 -0.14680605633E+04  0.14680605633E+04  0.00000000000E+00 0.  1.
         23    2    1    2    0    0  0.21821812313E+03 -0.22490290790E+03  0.33413730192E+03  0.46707045989E+03  0.91140609598E+02 0.  0.
        254    2    1    2    0    0 -0.21821812313E+03  0.22490290790E+03 -0.12401442342E+04  0.15630437344E+04  0.89830258074E+03 0.  0.
         23    2    4    4    0    0 -0.35594842349E+03  0.22788261502E+03 -0.13130969633E+04  0.13825681762E+04  0.92958918024E+02 0.  0.
         23    2    4    4    0    0  0.13773030036E+03 -0.29797071163E+01  0.72952729058E+02  0.18047555815E+03  0.90944005418E+02 0.  0.
          2    1    3    3  502    0  0.16998806241E+03 -0.11199381933E+03  0.20657184444E+03  0.29001807503E+03  0.00000000000E+00 0. -1.
         -2    1    3    3    0  502  0.48230060713E+02 -0.11290908858E+03  0.12756545749E+03  0.17705238486E+03  0.00000000000E+00 0.  1.
         13    1    5    5    0    0 -0.20609816607E+03  0.96045719826E+02 -0.58577676483E+03  0.62835949310E+03  0.00000000000E+00 0.  1.
        -13    1    5    5    0    0 -0.14985025742E+03  0.13183689519E+03 -0.72732019847E+03  0.75420868312E+03  0.00000000000E+00 0. -1.
          1    1    6    6  503    0  0.13848601033E+03 -0.25686740661E+02  0.70835856072E+02  0.15765754726E+03  0.00000000000E+00 0. -1.
         -1    1    6    6    0  503 -0.75570996597E+00  0.22707033544E+02  0.21168729859E+01  0.22818010894E+02  0.00000000000E+00 0.  1.
<mgrwt>
<rscale>  0 0.18167320E+04</rscale>
<asrwt>0</asrwt>
<pdfrwt beam="1">  1        2 0.22585547E+00 0.18167320E+04</pdfrwt>
<pdfrwt beam="2">  1       -2 0.86469788E-01 0.18167320E+04</pdfrwt>
<totfact> 0.14456774E+01</totfact>
</mgrwt>
</event>
<event>
12    3  0.4806716E-008  0.1499584E+04  0.7818608E-02  0.8884730E-01
         -2   -1    0    0    0  501 -0.00000000000E+00  0.00000000000E+00  0.30444034454E+03  0.30444034454E+03  0.00000000000E+00 0. -1.
          2   -1    0    0  501    0  0.00000000000E+00 -0.00000000000E+00 -0.18466282143E+04  0.18466282143E+04  0.00000000000E+00 0.  1.
         23    2    1    2    0    0 -0.65684983411E+02 -0.30556299616E+03 -0.99220174761E+03  0.10443140186E+04  0.91892326992E+02 0.  0.
        254    2    1    2    0    0  0.65684983411E+02  0.30556299616E+03 -0.54998612214E+03  0.11067545403E+04  0.90815065719E+03 0.  0.
         23    2    4    4    0    0 -0.20757914661E+03  0.47325219119E+03 -0.56753042438E+03  0.77305012158E+03  0.91972655253E+02 0.  0.
         23    2    4    4    0    0  0.27326413002E+03 -0.16768919502E+03  0.17544302232E+02  0.33370441867E+03  0.90872909147E+02 0.  0.
          1    1    3    3  502    0 -0.38108256998E+02 -0.22148070875E+03 -0.56522360217E+03  0.60826282481E+03  0.00000000000E+00 0. -1.
         -1    1    3    3    0  502 -0.27576726413E+02 -0.84082287410E+02 -0.42697814544E+03  0.43605119376E+03  0.00000000000E+00 0.  1.
         13    1    5    5    0    0 -0.36164092453E+02  0.11393054974E+03 -0.80984382698E+02  0.14438310839E+03  0.00000000000E+00 0. -1.
        -13    1    5    5    0    0 -0.17141505416E+03  0.35932164145E+03 -0.48654604168E+03  0.62866701319E+03  0.00000000000E+00 0.  1.
          2    1    6    6  503    0  0.13454004135E+03 -0.39617288921E+02 -0.18576679230E+02  0.14147665998E+03  0.00000000000E+00 0. -1.
         -2    1    6    6    0  503  0.13872408867E+03 -0.12807190610E+03  0.36120981462E+02  0.19222775870E+03  0.00000000000E+00 0.  1.
<mgrwt>
<rscale>  0 0.14995841E+04</rscale>
<asrwt>0</asrwt>
<pdfrwt beam="1">  1        2 0.28409666E+00 0.14995841E+04</pdfrwt>
<pdfrwt beam="2">  1       -2 0.46836975E-01 0.14995841E+04</pdfrwt>
<totfact> 0.33944521E+01</totfact>
</mgrwt>
</event>
<event>
12    3  0.4806716E-008  0.1724842E+04  0.7818608E-02  0.8747322E-01
          2   -1    0    0  501    0  0.00000000000E+00  0.00000000000E+00  0.19806173577E+04  0.19806173577E+04  0.00000000000E+00 0. -1.
         -2   -1    0    0    0  501 -0.00000000000E+00 -0.00000000000E+00 -0.37552419492E+03  0.37552419492E+03  0.00000000000E+00 0.  1.
         23    2    1    2    0    0  0.19670443265E+03 -0.55074507848E+03  0.91224000832E+03  0.10872005874E+04  0.88377085230E+02 0.  0.
        254    2    1    2    0    0 -0.19670443265E+03  0.55074507848E+03  0.69285315447E+03  0.12689409652E+04  0.88777976110E+03 0.  0.
         23    2    4    4    0    0 -0.41438304882E+03  0.92059558259E+02  0.38794436799E+02  0.43610328656E+03  0.92156360642E+02 0.  0.
         23    2    4    4    0    0  0.21767861617E+03  0.45868552023E+03  0.65405871767E+03  0.83283767865E+03  0.89718484229E+02 0.  0.
          2    1    3    3  502    0  0.16021599210E+03 -0.36522340846E+03  0.56119110921E+03  0.68847132349E+03  0.00000000000E+00 0. -1.
         -2    1    3    3    0  502  0.36488440546E+02 -0.18552167003E+03  0.35104889911E+03  0.39872926392E+03  0.00000000000E+00 0.  1.
         13    1    5    5    0    0 -0.16635905221E+03  0.64593739706E+02  0.52988541365E+02  0.18615979958E+03  0.00000000000E+00 0.  1.
        -13    1    5    5    0    0 -0.24802399661E+03  0.27465818553E+02 -0.14194104565E+02  0.24994348698E+03  0.00000000000E+00 0. -1.
          2    1    6    6  503    0  0.20179095604E+03  0.33748591712E+03  0.50692782895E+03  0.64155448557E+03  0.00000000000E+00 0. -1.
         -2    1    6    6    0  503  0.15887660129E+02  0.12119960311E+03  0.14713088872E+03  0.19128319308E+03  0.00000000000E+00 0.  1.
<mgrwt>
<rscale>  0 0.17248417E+04</rscale>
<asrwt>0</asrwt>
<pdfrwt beam="1">  1        2 0.30471036E+00 0.17248417E+04</pdfrwt>
<pdfrwt beam="2">  1       -2 0.57772955E-01 0.17248417E+04</pdfrwt>
<totfact> 0.18246694E+01</totfact>
</mgrwt>
</event>
<event>
12    3  0.4806716E-008  0.1830474E+04  0.7818608E-02  0.8690260E-01
          1   -1    0    0  501    0  0.00000000000E+00  0.00000000000E+00  0.10104032797E+04  0.10104032797E+04  0.00000000000E+00 0. -1.
         -1   -1    0    0    0  501 -0.00000000000E+00 -0.00000000000E+00 -0.82903396037E+03  0.82903396037E+03  0.00000000000E+00 0.  1.
         23    2    1    2    0    0 -0.14166581226E+03  0.24139608965E+03 -0.56711621155E+03  0.63922300626E+03  0.92973006166E+02 0.  0.
        254    2    1    2    0    0  0.14166581226E+03 -0.24139608965E+03  0.74848553090E+03  0.12002142338E+04  0.89551233530E+03 0.  0.
         23    2    4    4    0    0 -0.21556002109E+03  0.14813530857E+03 -0.33295730921E+01  0.27704454028E+03  0.91281974691E+02 0.  0.
         23    2    4    4    0    0  0.35722583335E+03 -0.38953139822E+03  0.75181510400E+03  0.92316969355E+03  0.87586107847E+02 0.  0.
          3    1    3    3  502    0 -0.92236364041E+02  0.70002249886E+02 -0.20111553779E+03  0.23206749316E+03  0.00000000000E+00 0. -1.
         -3    1    3    3    0  502 -0.49429448215E+02  0.17139383977E+03 -0.36600067376E+03  0.40715551311E+03  0.00000000000E+00 0.  1.
         13    1    5    5    0    0 -0.21745593066E+03  0.15431181701E+03 -0.11178338392E+02  0.26687857519E+03  0.00000000000E+00 0. -1.
        -13    1    5    5    0    0  0.18959095635E+01 -0.61765084354E+01  0.78487652999E+01  0.10165965092E+02  0.00000000000E+00 0.  1.
          4    1    6    6  503    0  0.15018767800E+03 -0.13532457026E+03  0.35409523365E+03  0.40774074169E+03  0.00000000000E+00 0. -1.
         -4    1    6    6    0  503  0.20703815535E+03 -0.25420682797E+03  0.39771987035E+03  0.51542895187E+03  0.00000000000E+00 0.  1.
<mgrwt>
<rscale>  0 0.18304739E+04</rscale>
<asrwt>0</asrwt>
<pdfrwt beam="1">  1        1 0.15544666E+00 0.18304739E+04</pdfrwt>
<pdfrwt beam="2">  1       -1 0.12754369E+00 0.18304739E+04</pdfrwt>
<totfact> 0.74384317E+00</totfact>
</mgrwt>
</event>
<event>
12    3  0.4806716E-008  0.3761354E+04  0.7818608E-02  0.8054499E-01
         -1   -1    0    0    0  501 -0.00000000000E+00  0.00000000000E+00  0.94149967513E+03  0.94149967513E+03  0.00000000000E+00 0.  1.
          1   -1    0    0  501    0  0.00000000000E+00 -0.00000000000E+00 -0.37567153205E+04  0.37567153205E+04  0.00000000000E+00 0. -1.
         23    2    1    2    0    0  0.62082095724E+03  0.40683423057E+03 -0.33411011004E+04  0.34237732244E+04  0.91289524111E+02 0.  0.
        254    2    1    2    0    0 -0.62082095724E+03 -0.40683423057E+03  0.52588545506E+03  0.12744417712E+04  0.89258812682E+03 0.  0.
         23    2    4    4    0    0 -0.22684578183E+03 -0.64596852364E+03  0.28706966684E+03  0.74787843538E+03  0.90436818932E+02 0.  0.
         23    2    4    4    0    0 -0.39397517541E+03  0.23913429307E+03  0.23881578821E+03  0.52656333578E+03  0.88511676822E+02 0.  0.
          4    1    3    3  502    0  0.28554094314E+03  0.23651687265E+03 -0.15699487040E+04  0.16131375622E+04  0.00000000000E+00 0. -1.
         -4    1    3    3    0  502  0.33528001410E+03  0.17031735792E+03 -0.17711523964E+04  0.18106356623E+04  0.00000000000E+00 0.  1.
         13    1    5    5    0    0 -0.17208800962E+03 -0.35847568843E+03  0.17597979499E+03  0.43484248930E+03  0.00000000000E+00 0.  1.
        -13    1    5    5    0    0 -0.54757772207E+02 -0.28749283520E+03  0.11108987186E+03  0.31303594608E+03  0.00000000000E+00 0. -1.
          2    1    6    6  503    0 -0.62435485094E+02  0.74133923050E+02  0.70080323731E+02  0.11960468268E+03  0.00000000000E+00 0. -1.
         -2    1    6    6    0  503 -0.33153969031E+03  0.16500037002E+03  0.16873546448E+03  0.40695865310E+03  0.00000000000E+00 0.  1.
<mgrwt>
<rscale>  0 0.37613541E+04</rscale>
<asrwt>0</asrwt>
<pdfrwt beam="1">  1        1 0.57795621E+00 0.37613541E+04</pdfrwt>
<pdfrwt beam="2">  1       -1 0.14484610E+00 0.37613541E+04</pdfrwt>
<totfact> 0.47267660E-02</totfact>
</mgrwt>
</event>
<event>
12    3  0.4806716E-008  0.2201640E+04  0.7818608E-02  0.8517746E-01
         -2   -1    0    0    0  501 -0.00000000000E+00  0.00000000000E+00  0.59548762267E+03  0.59548762267E+03  0.00000000000E+00 0. -1.
          2   -1    0    0  501    0  0.00000000000E+00 -0.00000000000E+00 -0.20349788058E+04  0.20349788058E+04  0.00000000000E+00 0.  1.
         23    2    1    2    0    0  0.27372613051E+03 -0.85547356646E+03 -0.78762458499E+03  0.11980865080E+04  0.91092130735E+02 0.  0.
        254    2    1    2    0    0 -0.27372613051E+03  0.85547356646E+03 -0.65186659816E+03  0.14323799205E+04  0.90555019597E+03 0.  0.
         23    2    4    4    0    0 -0.37297055658E+03  0.76388874486E+01 -0.59074017313E+02  0.38852910037E+03  0.91102873923E+02 0.  0.
         23    2    4    4    0    0  0.99244426066E+02  0.84783467901E+03 -0.59279258084E+03  0.10438508201E+04  0.97715872546E+02 0.  0.
          4    1    3    3  502    0  0.10609730051E+03 -0.45642368770E+03 -0.37624513776E+03  0.60094893590E+03  0.00000000000E+00 0.  1.
         -4    1    3    3    0  502  0.16762883001E+03 -0.39904987876E+03 -0.41137944723E+03  0.59713757208E+03  0.00000000000E+00 0. -1.
         13    1    5    5    0    0 -0.18094523587E+03 -0.36142769275E+02 -0.62959704402E+01  0.18462696823E+03  0.00000000000E+00 0. -1.
        -13    1    5    5    0    0 -0.19202532071E+03  0.43781656723E+02 -0.52778046873E+02  0.20390213214E+03  0.00000000000E+00 0.  1.
          3    1    6    6  503    0  0.10973681594E+03  0.83377028257E+03 -0.58619399681E+03  0.10251041190E+04  0.00000000000E+00 0. -1.
         -3    1    6    6    0  503 -0.10492389875E+02  0.14064396437E+02 -0.65985840356E+01  0.18746701141E+02  0.00000000000E+00 0.  1.
<mgrwt>
<rscale>  0 0.22016400E+04</rscale>
<asrwt>0</asrwt>
<pdfrwt beam="1">  1        2 0.31307367E+00 0.22016400E+04</pdfrwt>
<pdfrwt beam="2">  1       -2 0.91613479E-01 0.22016400E+04</pdfrwt>
<totfact> 0.59207059E+00</totfact>
</mgrwt>
</event>
<event>
12    3  0.4806716E-008  0.2541880E+04  0.7818608E-02  0.8388216E-01
          1   -1    0    0  501    0  0.00000000000E+00  0.00000000000E+00  0.12654986033E+04  0.12654986033E+04  0.00000000000E+00 0. -1.
         -1   -1    0    0    0  501 -0.00000000000E+00 -0.00000000000E+00 -0.12764046467E+04  0.12764046467E+04  0.00000000000E+00 0.  1.
         23    2    1    2    0    0  0.93955433399E+01 -0.72058766030E+02  0.10931769399E+04  0.11000453317E+04  0.98909897332E+02 0.  0.
        254    2    1    2    0    0 -0.93955433399E+01  0.72058766030E+02 -0.11040829832E+04  0.14418579183E+04  0.92448595483E+03 0.  0.
         23    2    4    4    0    0  0.37445138782E+03  0.22848401647E+03 -0.80990479727E+03  0.92558542601E+03  0.91344472071E+02 0.  0.
         23    2    4    4    0    0 -0.38384693116E+03 -0.15642525044E+03 -0.29417818597E+03  0.51627249229E+03  0.90493953724E+02 0.  0.
          1    1    3    3  502    0  0.20812265286E+02 -0.72471670430E+02  0.10799033815E+04  0.10825324969E+04  0.00000000000E+00 0. -1.
         -1    1    3    3    0  502 -0.11416721946E+02  0.41290439909E+00  0.13273558407E+02  0.17512834803E+02  0.00000000000E+00 0.  1.
         13    1    5    5    0    0  0.27504313187E+03  0.16232951562E+03 -0.49806691056E+03  0.59166734186E+03  0.00000000000E+00 0. -1.
        -13    1    5    5    0    0  0.99408255952E+02  0.66154500849E+02 -0.31183788671E+03  0.33391808415E+03  0.00000000000E+00 0.  1.
          3    1    6    6  503    0 -0.12668576750E+03 -0.98276566634E+02 -0.12023429635E+03  0.20040921450E+03  0.00000000000E+00 0. -1.
         -3    1    6    6    0  503 -0.25716116366E+03 -0.58148683803E+02 -0.17394388962E+03  0.31586327779E+03  0.00000000000E+00 0.  1.
<mgrwt>
<rscale>  0 0.25418799E+04</rscale>
<asrwt>0</asrwt>
<pdfrwt beam="1">  1        1 0.19469209E+00 0.25418799E+04</pdfrwt>
<pdfrwt beam="2">  1       -1 0.19636995E+00 0.25418799E+04</pdfrwt>
<totfact> 0.13519820E+00</totfact>
</mgrwt>
</event>
<event>
12    3  0.4806716E-008  0.2457387E+04  0.7818608E-02  0.8418326E-01
          1   -1    0    0  501    0  0.00000000000E+00  0.00000000000E+00  0.21130470245E+04  0.21130470245E+04  0.00000000000E+00 0. -1.
         -1   -1    0    0    0  501 -0.00000000000E+00 -0.00000000000E+00 -0.71446035494E+03  0.71446035494E+03  0.00000000000E+00 0.  1.
         23    2    1    2    0    0 -0.20927813414E+03 -0.88936120412E+03 -0.19797187004E+02  0.91813862832E+03  0.88464249085E+02 0.  0.
        254    2    1    2    0    0  0.20927813414E+03  0.88936120412E+03  0.14183838566E+04  0.19093687511E+04  0.89393264532E+03 0.  0.
         23    2    4    4    0    0  0.29892845488E+03  0.51905104708E+03  0.13901376446E+04  0.15164326733E+04  0.91176592241E+02 0.  0.
         23    2    4    4    0    0 -0.89650320747E+02  0.37031015704E+03  0.28246211964E+02  0.39293607786E+03  0.91837467163E+02 0.  0.
          1    1    3    3  502    0 -0.70327805217E+02 -0.38668019843E+03  0.30394877660E+02  0.39419719004E+03  0.00000000000E+00 0. -1.
         -1    1    3    3    0  502 -0.13895032892E+03 -0.50268100569E+03 -0.50192064664E+02  0.52394143828E+03  0.00000000000E+00 0.  1.
         13    1    5    5    0    0  0.21437251448E+03  0.42420036564E+03  0.10254838919E+04  0.11302737446E+04  0.00000000000E+00 0.  1.
        -13    1    5    5    0    0  0.84555940407E+02  0.94850681435E+02  0.36465375269E+03  0.38615892865E+03  0.00000000000E+00 0. -1.
          4    1    6    6  503    0 -0.52140504639E+00  0.22702399948E+02  0.25401794723E+02  0.34072305496E+02  0.00000000000E+00 0. -1.
         -4    1    6    6    0  503 -0.89128915701E+02  0.34760775709E+03  0.28444172401E+01  0.35886377236E+03  0.00000000000E+00 0.  1.
<mgrwt>
<rscale>  0 0.24573875E+04</rscale>
<asrwt>0</asrwt>
<pdfrwt beam="1">  1        1 0.32508416E+00 0.24573875E+04</pdfrwt>
<pdfrwt beam="2">  1       -1 0.10991698E+00 0.24573875E+04</pdfrwt>
<totfact> 0.17018281E+00</totfact>
</mgrwt>
</event>
<event>
12    3  0.4806716E-008  0.1274704E+04  0.7818608E-02  0.9049869E-01
          2   -1    0    0  501    0  0.00000000000E+00  0.00000000000E+00  0.20636513578E+04  0.20636513578E+04  0.00000000000E+00 0. -1.
         -2   -1    0    0    0  501 -0.00000000000E+00 -0.00000000000E+00 -0.19684423937E+03  0.19684423937E+03  0.00000000000E+00 0.  1.
         23    2    1    2    0    0  0.25443955298E+03  0.10086776433E+03  0.21324382609E+03  0.35862434105E+03  0.90690113193E+02 0.  0.
        254    2    1    2    0    0 -0.25443955298E+03 -0.10086776433E+03  0.16535632923E+04  0.19018712561E+04  0.89884866416E+03 0.  0.
         23    2    4    4    0    0 -0.47906631614E+03 -0.14966054323E+03  0.47456408663E+03  0.69698868588E+03  0.93162988725E+02 0.  0.
         23    2    4    4    0    0  0.22462676317E+03  0.48792778894E+02  0.11789992057E+04  0.12048825702E+04  0.94153932429E+02 0.  0.
          3    1    3    3  502    0  0.11396950779E+03  0.76959509240E+02  0.62061436425E+02  0.15087556681E+03  0.00000000000E+00 0. -1.
         -3    1    3    3    0  502  0.14047004518E+03  0.23908255091E+02  0.15118238966E+03  0.20774877424E+03  0.00000000000E+00 0.  1.
         13    1    5    5    0    0 -0.33748383325E+03 -0.60386471545E+02  0.32905455936E+03  0.47520392116E+03  0.00000000000E+00 0. -1.
        -13    1    5    5    0    0 -0.14158248289E+03 -0.89274071680E+02  0.14550952728E+03  0.22178476473E+03  0.00000000000E+00 0.  1.
          1    1    6    6  503    0  0.74629242878E+02  0.62782310345E+02  0.43838509429E+03  0.44910202993E+03  0.00000000000E+00 0.  1.
         -1    1    6    6    0  503  0.14999752029E+03 -0.13989531451E+02  0.74061411142E+03  0.75578054031E+03  0.00000000000E+00 0. -1.
<mgrwt>
<rscale>  0 0.12747045E+04</rscale>
<asrwt>0</asrwt>
<pdfrwt beam="1">  1        2 0.31748481E+00 0.12747045E+04</pdfrwt>
<pdfrwt beam="2">  1       -2 0.30283731E-01 0.12747045E+04</pdfrwt>
<totfact> 0.60993758E+01</totfact>
</mgrwt>
</event>
<event>
12    3  0.4806716E-008  0.1503676E+04  0.7818608E-02  0.8882012E-01
         -2   -1    0    0    0  501 -0.00000000000E+00  0.00000000000E+00  0.95955397658E+03  0.95955397658E+03  0.00000000000E+00 0. -1.
          2   -1    0    0  501    0  0.00000000000E+00 -0.00000000000E+00 -0.58908653735E+03  0.58908653735E+03  0.00000000000E+00 0.  1.
         23    2    1    2    0    0 -0.93815147372E+02 -0.32154770780E+03 -0.22351413015E+03  0.41270610001E+03  0.90407678563E+02 0.  0.
        254    2    1    2    0    0  0.93815147372E+02  0.32154770780E+03  0.59398156938E+03  0.11359344139E+04  0.90848152303E+03 0.  0.
         23    2    4    4    0    0 -0.14622266877E+03  0.38852673035E+02  0.71436550212E+03  0.73581140833E+03  0.90607720131E+02 0.  0.
         23    2    4    4    0    0  0.24003781615E+03  0.28269503476E+03 -0.12038393274E+03  0.40012300559E+03  0.89841485281E+02 0.  0.
          3    1    3    3  502    0  0.12804707005E+02 -0.64301768020E+02 -0.22692477916E+02  0.69380303012E+02  0.00000000000E+00 0. -1.
         -3    1    3    3    0  502 -0.10661985438E+03 -0.25724593978E+03 -0.20082165223E+03  0.34332579700E+03  0.00000000000E+00 0.  1.
         13    1    5    5    0    0 -0.19630488179E+02 -0.26497673702E+02  0.16585127126E+03  0.16909798035E+03  0.00000000000E+00 0. -1.
        -13    1    5    5    0    0 -0.12659218060E+03  0.65350346737E+02  0.54851423085E+03  0.56671342798E+03  0.00000000000E+00 0.  1.
          3    1    6    6  503    0  0.16676113538E+03  0.24049977916E+03 -0.67344392872E+02  0.30030765442E+03  0.00000000000E+00 0. -1.
         -3    1    6    6    0  503  0.73276680771E+02  0.42195255598E+02 -0.53039539866E+02  0.99815351169E+02  0.00000000000E+00 0.  1.
<mgrwt>
<rscale>  0 0.15036759E+04</rscale>
<asrwt>0</asrwt>
<pdfrwt beam="1">  1        2 0.90628698E-01 0.15036759E+04</pdfrwt>
<pdfrwt beam="2">  1       -2 0.14762369E+00 0.15036759E+04</pdfrwt>
<totfact> 0.15298701E+01</totfact>
</mgrwt>
</event>
<event>
12    3  0.4806716E-008  0.2023043E+04  0.7818608E-02  0.8595923E-01
          3   -1    0    0  501    0  0.00000000000E+00  0.00000000000E+00  0.91420699427E+03  0.91420699427E+03  0.00000000000E+00 0. -1.
         -3   -1    0    0    0  501 -0.00000000000E+00 -0.00000000000E+00 -0.11191944943E+04  0.11191944943E+04  0.00000000000E+00 0.  1.
         23    2    1    2    0    0 -0.26266135080E+03  0.56837520154E+03  0.43396911479E+03  0.76722024855E+03  0.90864526987E+02 0.  0.
        254    2    1    2    0    0  0.26266135080E+03 -0.56837520154E+03 -0.63895661487E+03  0.12661812401E+04  0.89605135013E+03 0.  0.
         23    2    4    4    0    0  0.41167480515E+03 -0.40493962834E+03 -0.79097834930E+03  0.98360302633E+03  0.91520033539E+02 0.  0.
         23    2    4    4    0    0 -0.14901345435E+03 -0.16343557320E+03  0.15202173444E+03  0.28257821373E+03  0.88451359335E+02 0.  0.
          3    1    3    3  502    0 -0.21085325444E+03  0.52249318275E+03  0.38339216989E+03  0.68150405491E+03  0.00000000000E+00 0. -1.
         -3    1    3    3    0  502 -0.51808096358E+02  0.45882018793E+02  0.50576944908E+02  0.85716193645E+02  0.00000000000E+00 0.  1.
         13    1    5    5    0    0  0.32416617789E+03 -0.36149125401E+03 -0.63168405015E+03  0.79673356702E+03  0.00000000000E+00 0. -1.
        -13    1    5    5    0    0  0.87508627258E+02 -0.43448374332E+02 -0.15929429916E+03  0.18686945930E+03  0.00000000000E+00 0.  1.
          2    1    6    6  503    0 -0.69643675951E+02 -0.13231799398E+03  0.11920642848E+03  0.19122883079E+03  0.00000000000E+00 0. -1.
         -2    1    6    6    0  503 -0.79369778398E+02 -0.31117579217E+02  0.32815305956E+02  0.91349382944E+02  0.00000000000E+00 0.  1.
<mgrwt>
<rscale>  0 0.20230427E+04</rscale>
<asrwt>0</asrwt>
<pdfrwt beam="1">  1        3 0.14064723E+00 0.20230427E+04</pdfrwt>
<pdfrwt beam="2">  1       -3 0.17218377E+00 0.20230427E+04</pdfrwt>
<totfact> 0.20658496E-01</totfact>
</mgrwt>
</event>
<event>
12    3  0.4806716E-008  0.1683630E+04  0.7818608E-02  0.8770756E-01
          2   -1    0    0  501    0  0.00000000000E+00  0.00000000000E+00  0.14230463719E+04  0.14230463719E+04  0.00000000000E+00 0.  1.
         -2   -1    0    0    0  501 -0.00000000000E+00 -0.00000000000E+00 -0.49798285680E+03  0.49798285680E+03  0.00000000000E+00 0. -1.
         23    2    1    2    0    0  0.26348637129E+03 -0.26315118603E+03 -0.19755377090E+03  0.43042033870E+03  0.86951486497E+02 0.  0.
        254    2    1    2    0    0 -0.26348637129E+03  0.26315118603E+03  0.11226172860E+04  0.14906088900E+04  0.90717786437E+03 0.  0.
         23    2    4    4    0    0 -0.60065043526E+02  0.42471023131E+03  0.11332107385E+04  0.12150644104E+04  0.90710272015E+02 0.  0.
         23    2    4    4    0    0 -0.20342132776E+03 -0.16155904528E+03 -0.10593452491E+02  0.27554447965E+03  0.91274187650E+02 0.  0.
          4    1    3    3  502    0  0.22262120456E+03 -0.19597335015E+03 -0.11990240659E+03  0.31990989637E+03  0.00000000000E+00 0. -1.
         -4    1    3    3    0  502  0.40865166733E+02 -0.67177835875E+02 -0.77651364303E+02  0.11051044233E+03  0.00000000000E+00 0.  1.
         13    1    5    5    0    0  0.13065288015E+02  0.22968988019E+03  0.58308078608E+03  0.62682640812E+03  0.00000000000E+00 0. -1.
        -13    1    5    5    0    0 -0.73130331541E+02  0.19502035111E+03  0.55012995243E+03  0.58823800226E+03  0.00000000000E+00 0.  1.
          1    1    6    6  503    0 -0.11919012314E+03 -0.37113293665E+02 -0.10465468934E+02  0.12527253515E+03  0.00000000000E+00 0. -1.
         -1    1    6    6    0  503 -0.84231204620E+02 -0.12444575161E+03 -0.12798355709E+00  0.15027194451E+03  0.00000000000E+00 0.  1.
<mgrwt>
<rscale>  0 0.16836302E+04</rscale>
<asrwt>0</asrwt>
<pdfrwt beam="1">  1        2 0.21893021E+00 0.16836302E+04</pdfrwt>
<pdfrwt beam="2">  1       -2 0.76612748E-01 0.16836302E+04</pdfrwt>
<totfact> 0.20369883E+01</totfact>
</mgrwt>
</event>
<event>
12    3  0.4806716E-008  0.1721356E+04  0.7818608E-02  0.8749277E-01
         -1   -1    0    0    0  501 -0.00000000000E+00  0.00000000000E+00  0.22846341328E+04  0.22846341328E+04  0.00000000000E+00 0.  1.
          1   -1    0    0  501    0  0.00000000000E+00 -0.00000000000E+00 -0.32423851047E+03  0.32423851047E+03  0.00000000000E+00 0. -1.
         23    2    1    2    0    0 -0.89279569006E+02  0.48243266391E+03  0.12965694034E+04  0.13892033287E+04  0.89897464841E+02 0.  0.
        254    2    1    2    0    0  0.89279569006E+02 -0.48243266391E+03  0.66382621896E+03  0.12196693145E+04  0.89789524511E+03 0.  0.
         23    2    4    4    0    0 -0.33728370368E+03 -0.15555235230E+03  0.53812630775E+03  0.66025398179E+03  0.91643692072E+02 0.  0.
         23    2    4    4    0    0  0.42656327269E+03 -0.32688031161E+03  0.12569991121E+03  0.55941533275E+03  0.91313104803E+02 0.  0.
          1    1    3    3  502    0 -0.14878127445E+02  0.83725863967E+02  0.14258255132E+03  0.16601555022E+03  0.00000000000E+00 0. -1.
         -1    1    3    3    0  502 -0.74401441561E+02  0.39870679994E+03  0.11539868521E+04  0.12231877785E+04  0.00000000000E+00 0.  1.
         13    1    5    5    0    0 -0.87119675998E+02 -0.12719802868E+02  0.79287792788E+02  0.11848284862E+03  0.00000000000E+00 0.  1.
        -13    1    5    5    0    0 -0.25016402769E+03 -0.14283254943E+03  0.45883851496E+03  0.54177113317E+03  0.00000000000E+00 0. -1.
          3    1    6    6  503    0  0.23607065573E+02 -0.15823469171E+01  0.19740088174E+02  0.30813445894E+02  0.00000000000E+00 0. -1.
         -3    1    6    6    0  503  0.40295620712E+03 -0.32529796470E+03  0.10595982304E+03  0.52860188686E+03  0.00000000000E+00 0.  1.
<mgrwt>
<rscale>  0 0.17213557E+04</rscale>
<asrwt>0</asrwt>
<pdfrwt beam="1">  1        1 0.49882849E-01 0.17213557E+04</pdfrwt>
<pdfrwt beam="2">  1       -1 0.35148216E+00 0.17213557E+04</pdfrwt>
<totfact> 0.11461886E+00</totfact>
</mgrwt>
</event>
<event>
12    3  0.4806716E-008  0.2100383E+04  0.7818608E-02  0.8561075E-01
         -1   -1    0    0    0  501 -0.00000000000E+00  0.00000000000E+00  0.44671141480E+03  0.44671141480E+03  0.00000000000E+00 0.  1.
          1   -1    0    0  501    0  0.00000000000E+00 -0.00000000000E+00 -0.24689363342E+04  0.24689363342E+04  0.00000000000E+00 0. -1.
         23    2    1    2    0    0  0.97580651977E+02  0.10866555177E+03  0.34087582740E+03  0.38192923834E+03  0.91342364789E+02 0.  0.
        254    2    1    2    0    0 -0.97580651977E+02 -0.10866555177E+03 -0.23631007468E+04  0.25337185106E+04  0.90230491852E+03 0.  0.
         23    2    4    4    0    0  0.12100075427E+03 -0.27308601856E+03 -0.21556345994E+04  0.21783015423E+04  0.94973297382E+02 0.  0.
         23    2    4    4    0    0 -0.21858140625E+03  0.16442046679E+03 -0.20746614739E+03  0.35541696831E+03  0.92016835369E+02 0.  0.
          4    1    3    3  502    0 -0.86352791358E+01  0.97312179460E+01  0.18562869078E+01  0.13141934772E+02  0.00000000000E+00 0. -1.
         -4    1    3    3    0  502  0.10621593111E+03  0.98934333827E+02  0.33901954050E+03  0.36878730356E+03  0.00000000000E+00 0.  1.
         13    1    5    5    0    0  0.29050985926E+02 -0.54665673962E+02 -0.77560483566E+03  0.77807143425E+03  0.00000000000E+00 0.  1.
        -13    1    5    5    0    0  0.91949768348E+02 -0.21842034460E+03 -0.13800297637E+04  0.14002301081E+04  0.00000000000E+00 0. -1.
          1    1    6    6  503    0 -0.22632233286E+03  0.16188451300E+03 -0.20776230930E+03  0.34726585070E+03  0.00000000000E+00 0. -1.
         -1    1    6    6    0  503  0.77409266091E+01  0.25359537856E+01  0.29616190165E+00  0.81511176070E+01  0.00000000000E+00 0.  1.
<mgrwt>
<rscale>  0 0.21003829E+04</rscale>
<asrwt>0</asrwt>
<pdfrwt beam="1">  1        1 0.37983636E+00 0.21003829E+04</pdfrwt>
<pdfrwt beam="2">  1       -1 0.68724833E-01 0.21003829E+04</pdfrwt>
<totfact> 0.28057206E+00</totfact>
</mgrwt>
</event>
<event>
12    3  0.4806716E-008  0.1627850E+04  0.7818608E-02  0.8803619E-01
          2   -1    0    0  501    0  0.00000000000E+00  0.00000000000E+00  0.83262485429E+03  0.83262485429E+03  0.00000000000E+00 0. -1.
         -2   -1    0    0    0  501 -0.00000000000E+00 -0.00000000000E+00 -0.79564474113E+03  0.79564474113E+03  0.00000000000E+00 0.  1.
         23    2    1    2    0    0  0.12820228328E+03  0.50344344390E+03  0.23764805512E+03  0.57774843546E+03  0.86171514553E+02 0.  0.
        254    2    1    2    0    0 -0.12820228328E+03 -0.50344344390E+03 -0.20066794196E+03  0.10505211600E+04  0.89075022197E+03 0.  0.
         23    2    4    4    0    0 -0.24829917265E+03  0.24992970838E+02  0.23078568124E+03  0.35180605866E+03  0.90710222747E+02 0.  0.
         23    2    4    4    0    0  0.12009688937E+03 -0.52843641474E+03 -0.43145362320E+03  0.69871510130E+03  0.91554664295E+02 0.  0.
          3    1    3    3  502    0  0.72922502340E+02  0.12979331944E+03  0.69197317651E+02  0.16417145272E+03  0.00000000000E+00 0. -1.
         -3    1    3    3    0  502  0.55279780944E+02  0.37365012447E+03  0.16845073747E+03  0.41357698274E+03  0.00000000000E+00 0.  1.
         13    1    5    5    0    0 -0.82489578839E+02  0.52025418650E+02  0.83760325220E+02  0.12855725139E+03  0.00000000000E+00 0.  1.
        -13    1    5    5    0    0 -0.16580959381E+03 -0.27032447812E+02  0.14702535602E+03  0.22324880727E+03  0.00000000000E+00 0. -1.
          3    1    6    6  503    0  0.56719299282E+02 -0.88609900655E+02 -0.80665908185E+02  0.13257368573E+03  0.00000000000E+00 0. -1.
         -3    1    6    6    0  503  0.63377590087E+02 -0.43982651409E+03 -0.35078771501E+03  0.56614141557E+03  0.00000000000E+00 0.  1.
<mgrwt>
<rscale>  0 0.16278496E+04</rscale>
<asrwt>0</asrwt>
<pdfrwt beam="1">  1        2 0.12809613E+00 0.16278496E+04</pdfrwt>
<pdfrwt beam="2">  1       -2 0.12240688E+00 0.16278496E+04</pdfrwt>
<totfact> 0.15784214E+01</totfact>
</mgrwt>
</event>
<event>
12    3  0.4806716E-008  0.1602184E+04  0.7818608E-02  0.8819207E-01
         -2   -1    0    0    0  501 -0.00000000000E+00  0.00000000000E+00  0.66905912644E+03  0.66905912644E+03  0.00000000000E+00 0.  1.
          2   -1    0    0  501    0  0.00000000000E+00 -0.00000000000E+00 -0.95918089895E+03  0.95918089895E+03  0.00000000000E+00 0. -1.
         23    2    1    2    0    0  0.52153557991E+03  0.11071757198E+03  0.12002720988E+03  0.55277922559E+03  0.83069845733E+02 0.  0.
        254    2    1    2    0    0 -0.52153557991E+03 -0.11071757198E+03 -0.41014898239E+03  0.10754607998E+04  0.83912812031E+03 0.  0.
         23    2    4    4    0    0 -0.44257291103E+03 -0.82080554024E+02 -0.65591857628E+03  0.80040531302E+03  0.88382619792E+02 0.  0.
         23    2    4    4    0    0 -0.78962668880E+02 -0.28637017960E+02  0.24576959389E+03  0.27505548677E+03  0.90540850713E+02 0.  0.
          4    1    3    3  502    0  0.14383830151E+03  0.37513870668E+02  0.71672924826E+02  0.16502653007E+03  0.00000000000E+00 0. -1.
         -4    1    3    3    0  502  0.37769727840E+03  0.73203701316E+02  0.48354285053E+02  0.38775269552E+03  0.00000000000E+00 0.  1.
         13    1    5    5    0    0 -0.43213839563E+03 -0.94623999475E+02 -0.63401028533E+03  0.77308882811E+03  0.00000000000E+00 0.  1.
        -13    1    5    5    0    0 -0.10434515405E+02  0.12543445450E+02 -0.21908290955E+02  0.27316484914E+02  0.00000000000E+00 0. -1.
          1    1    6    6  503    0 -0.74494335434E+01  0.38946144615E+01 -0.66331633654E+01  0.10707984785E+02  0.00000000000E+00 0. -1.
         -1    1    6    6    0  503 -0.71513235337E+02 -0.32531632421E+02  0.25240275726E+03  0.26434750199E+03  0.00000000000E+00 0.  1.
<mgrwt>
<rscale>  0 0.16021844E+04</rscale>
<asrwt>0</asrwt>
<pdfrwt beam="1">  1        2 0.14756629E+00 0.16021844E+04</pdfrwt>
<pdfrwt beam="2">  1       -2 0.10293217E+00 0.16021844E+04</pdfrwt>
<totfact> 0.19795685E+01</totfact>
</mgrwt>
</event>
<event>
12    3  0.4806716E-008  0.1576242E+04  0.7818608E-02  0.8835278E-01
          1   -1    0    0  501    0  0.00000000000E+00  0.00000000000E+00  0.14061647422E+04  0.14061647422E+04  0.00000000000E+00 0. -1.
         -1   -1    0    0    0  501 -0.00000000000E+00 -0.00000000000E+00 -0.44172249191E+03  0.44172249191E+03  0.00000000000E+00 0.  1.
         23    2    1    2    0    0  0.20582918294E+03  0.36517768061E+03  0.69054137819E+03  0.81332842332E+03  0.94526917920E+02 0.  0.
        254    2    1    2    0    0 -0.20582918294E+03 -0.36517768061E+03  0.27390087212E+03  0.10345588108E+04  0.90530097444E+03 0.  0.
         23    2    4    4    0    0 -0.13387250955E+03  0.15277905937E+03  0.42741880511E+03  0.48157440497E+03  0.89240028943E+02 0.  0.
         23    2    4    4    0    0 -0.71956673398E+02 -0.51795673998E+03 -0.15351793299E+03  0.55298440585E+03  0.93632526496E+02 0.  0.
          1    1    3    3  502    0  0.17816220439E+03  0.25418189449E+03  0.44635031547E+03  0.54367160187E+03  0.00000000000E+00 0. -1.
         -1    1    3    3    0  502  0.27666978550E+02  0.11099578612E+03  0.24419106272E+03  0.26965682145E+03  0.00000000000E+00 0.  1.
         13    1    5    5    0    0 -0.63431786773E+02  0.13509404120E+03  0.28780339278E+03  0.32419868050E+03  0.00000000000E+00 0.  1.
        -13    1    5    5    0    0 -0.70440722774E+02  0.17685018167E+02  0.13961541233E+03  0.15737572447E+03  0.00000000000E+00 0. -1.
          1    1    6    6  503    0  0.19761536890E+02 -0.17594014343E+03 -0.46123054867E+02  0.18295570120E+03  0.00000000000E+00 0. -1.
         -1    1    6    6    0  503 -0.91718210287E+02 -0.34201659655E+03 -0.10739487813E+03  0.37002870464E+03  0.00000000000E+00 0.  1.
<mgrwt>
<rscale>  0 0.15762419E+04</rscale>
<asrwt>0</asrwt>
<pdfrwt beam="1">  1        1 0.21633304E+00 0.15762419E+04</pdfrwt>
<pdfrwt beam="2">  1       -1 0.67957307E-01 0.15762419E+04</pdfrwt>
<totfact> 0.16032049E+01</totfact>
</mgrwt>
</event>
<event>
12    3  0.4806716E-008  0.1271615E+04  0.7818608E-02  0.9052382E-01
          1   -1    0    0  501    0  0.00000000000E+00  0.00000000000E+00  0.99734331929E+03  0.99734331929E+03  0.00000000000E+00 0. -1.
         -1   -1    0    0    0  501 -0.00000000000E+00 -0.00000000000E+00 -0.40532809584E+03  0.40532809584E+03  0.00000000000E+00 0.  1.
         23    2    1    2    0    0  0.20331513972E+03  0.22937751586E+03  0.17636470452E+03  0.36514898718E+03  0.90984520776E+02 0.  0.
        254    2    1    2    0    0 -0.20331513972E+03 -0.22937751586E+03  0.41565051893E+03  0.10375224279E+04  0.89985351240E+03 0.  0.
         23    2    4    4    0    0 -0.45500145529E+03 -0.27014909265E+03 -0.43097046817E+01  0.53655671657E+03  0.88699943471E+02 0.  0.
         23    2    4    4    0    0  0.25168631557E+03  0.40771576794E+02  0.41996022361E+03  0.50096571137E+03  0.97937386269E+02 0.  0.
          4    1    3    3  502    0  0.17670292066E+03  0.17339605946E+03  0.17495306469E+03  0.30314796792E+03  0.00000000000E+00 0. -1.
         -4    1    3    3    0  502  0.26612219055E+02  0.55981456393E+02  0.14116398304E+01  0.62001019265E+02  0.00000000000E+00 0.  1.
         13    1    5    5    0    0 -0.14151785634E+03 -0.88061693492E+02  0.39765158746E+02  0.17135761837E+03  0.00000000000E+00 0. -1.
        -13    1    5    5    0    0 -0.31348359894E+03 -0.18208739916E+03 -0.44074863428E+02  0.36519909820E+03  0.00000000000E+00 0.  1.
          1    1    6    6  503    0  0.37020617875E+02 -0.18431157355E+02  0.12315907561E+03  0.12991686424E+03  0.00000000000E+00 0. -1.
         -1    1    6    6    0  503  0.21466569769E+03  0.59202734149E+02  0.29680114800E+03  0.37104884713E+03  0.00000000000E+00 0.  1.
<mgrwt>
<rscale>  0 0.12716151E+04</rscale>
<asrwt>0</asrwt>
<pdfrwt beam="1">  1        1 0.15343743E+00 0.12716151E+04</pdfrwt>
<pdfrwt beam="2">  1       -1 0.62358169E-01 0.12716151E+04</pdfrwt>
<totfact> 0.39048498E+01</totfact>
</mgrwt>
</event>
<event>
12    3  0.4806716E-008  0.1667023E+04  0.7818608E-02  0.8780399E-01
         -2   -1    0    0    0  501 -0.00000000000E+00  0.00000000000E+00  0.23494936447E+03  0.23494936447E+03  0.00000000000E+00 0.  1.
          2   -1    0    0  501    0  0.00000000000E+00 -0.00000000000E+00 -0.29569820705E+04  0.29569820705E+04  0.00000000000E+00 0. -1.
         23    2    1    2    0    0  0.30731506785E+03  0.26951798055E+03 -0.16733066281E+03  0.45039028223E+03  0.88143989231E+02 0.  0.
        254    2    1    2    0    0 -0.30731506785E+03 -0.26951798055E+03 -0.25547020433E+04  0.27415411528E+04  0.90689738660E+03 0.  0.
         23    2    4    4    0    0 -0.45343291954E+03  0.16145222697E+03 -0.92433730224E+03  0.10462987622E+04  0.93131183925E+02 0.  0.
         23    2    4    4    0    0  0.14611785168E+03 -0.43097020752E+03 -0.16303647410E+04  0.16952423906E+04  0.93122648340E+02 0.  0.
          2    1    3    3  502    0  0.29449431206E+03  0.26101296505E+03 -0.17776089588E+03  0.43180273721E+03  0.00000000000E+00 0.  1.
         -2    1    3    3    0  502  0.12820755792E+02  0.85050155035E+01  0.10430233070E+02  0.18587545015E+02  0.00000000000E+00 0. -1.
         13    1    5    5    0    0 -0.45656940939E+03  0.16407756863E+03 -0.90832713051E+03  0.10297743686E+04  0.00000000000E+00 0. -1.
        -13    1    5    5    0    0  0.31364898522E+01 -0.26253416604E+01 -0.16010171732E+02  0.16524393674E+02  0.00000000000E+00 0.  1.
          2    1    6    6  503    0  0.13445561136E+03 -0.27974223619E+03 -0.11738260231E+04  0.12141670242E+04  0.00000000000E+00 0. -1.
         -2    1    6    6    0  503  0.11662240323E+02 -0.15122797133E+03 -0.45653871793E+03  0.48107536637E+03  0.00000000000E+00 0.  1.
<mgrwt>
<rscale>  0 0.16670226E+04</rscale>
<asrwt>0</asrwt>
<pdfrwt beam="1">  1        2 0.45492032E+00 0.16670226E+04</pdfrwt>
<pdfrwt beam="2">  1       -2 0.36146056E-01 0.16670226E+04</pdfrwt>
<totfact> 0.12786675E+01</totfact>
</mgrwt>
</event>
<event>
12    3  0.4806716E-008  0.3846159E+04  0.7818608E-02  0.8036321E-01
          4   -1    0    0  501    0  0.00000000000E+00  0.00000000000E+00  0.13346064305E+04  0.13346064305E+04  0.00000000000E+00 0. -1.
         -4   -1    0    0    0  501 -0.00000000000E+00 -0.00000000000E+00 -0.27710307516E+04  0.27710307516E+04  0.00000000000E+00 0.  1.
         23    2    1    2    0    0  0.69595875114E+03  0.38296142501E+03  0.10676893907E+04  0.13340167491E+04  0.92854808540E+02 0.  0.
        254    2    1    2    0    0 -0.69595875114E+03 -0.38296142501E+03 -0.25041137118E+04  0.27716204329E+04  0.88333250043E+03 0.  0.
         23    2    4    4    0    0 -0.76699180794E+03 -0.11284562075E+03 -0.22567222332E+04  0.23878946740E+04  0.90747828625E+02 0.  0.
         23    2    4    4    0    0  0.71033056806E+02 -0.27011580426E+03 -0.24739147858E+03  0.38372575898E+03  0.89636329494E+02 0.  0.
          2    1    3    3  502    0  0.60460821883E+03  0.33794808733E+03  0.97721620432E+03  0.11977944390E+04  0.00000000000E+00 0. -1.
         -2    1    3    3    0  502  0.91350532304E+02  0.45013337673E+02  0.90473186409E+02  0.13622231014E+03  0.00000000000E+00 0.  1.
         13    1    5    5    0    0 -0.37798970161E+03 -0.41891288906E+02 -0.12390695046E+04  0.12961189497E+04  0.00000000000E+00 0.  1.
        -13    1    5    5    0    0 -0.38900210633E+03 -0.70954331843E+02 -0.10176527286E+04  0.10917757242E+04  0.00000000000E+00 0. -1.
          3    1    6    6  503    0  0.67088219688E+02 -0.24599074087E+03 -0.25239948315E+03  0.35877259219E+03  0.00000000000E+00 0. -1.
         -3    1    6    6    0  503  0.39448371179E+01 -0.24125063387E+02  0.50080045655E+01  0.24953166794E+02  0.00000000000E+00 0.  1.
<mgrwt>
<rscale>  0 0.38461594E+04</rscale>
<asrwt>0</asrwt>
<pdfrwt beam="1">  1        4 0.20532407E+00 0.38461594E+04</pdfrwt>
<pdfrwt beam="2">  1       -4 0.42631242E+00 0.38461594E+04</pdfrwt>
<totfact> 0.84146211E-04</totfact>
</mgrwt>
</event>
<event>
12    3  0.4806716E-008  0.1483694E+04  0.7818608E-02  0.8895369E-01
          2   -1    0    0  501    0  0.00000000000E+00  0.00000000000E+00  0.81301662346E+03  0.81301662346E+03  0.00000000000E+00 0. -1.
         -2   -1    0    0    0  501 -0.00000000000E+00 -0.00000000000E+00 -0.67690763231E+03  0.67690763231E+03  0.00000000000E+00 0.  1.
         23    2    1    2    0    0  0.32683831974E+03  0.24869855449E+03  0.25182765582E+03  0.48999168168E+03  0.89445076025E+02 0.  0.
        254    2    1    2    0    0 -0.32683831974E+03 -0.24869855449E+03 -0.11571866467E+03  0.99993257409E+03  0.90432299822E+03 0.  0.
         23    2    4    4    0    0 -0.55900973540E+03 -0.14194616080E+03  0.16737109262E+03  0.60694282911E+03  0.87897203205E+02 0.  0.
         23    2    4    4    0    0  0.23217141565E+03 -0.10675239369E+03 -0.28308975729E+03  0.39298974498E+03  0.94876178114E+02 0.  0.
          3    1    3    3  502    0 -0.34436876141E+01  0.17720297933E+01  0.12735884438E+02  0.13311717635E+02  0.00000000000E+00 0. -1.
         -3    1    3    3    0  502  0.33028200736E+03  0.24692652469E+03  0.23909177138E+03  0.47667996405E+03  0.00000000000E+00 0.  1.
         13    1    5    5    0    0 -0.45504982355E+03 -0.85355623037E+02  0.11238984228E+03  0.47643194786E+03  0.00000000000E+00 0. -1.
        -13    1    5    5    0    0 -0.10395991185E+03 -0.56590537763E+02  0.54981250336E+02  0.13051088125E+03  0.00000000000E+00 0.  1.
          2    1    6    6  503    0  0.20046778976E+02 -0.75579654578E+01 -0.80641713417E+02  0.83439092349E+02  0.00000000000E+00 0.  1.
         -2    1    6    6    0  503  0.21212463668E+03 -0.99194428228E+02 -0.20244804387E+03  0.30955065263E+03  0.00000000000E+00 0. -1.
<mgrwt>
<rscale>  0 0.14836943E+04</rscale>
<asrwt>0</asrwt>
<pdfrwt beam="1">  1        2 0.12507948E+00 0.14836943E+04</pdfrwt>
<pdfrwt beam="2">  1       -2 0.10413964E+00 0.14836943E+04</pdfrwt>
<totfact> 0.24453766E+01</totfact>
</mgrwt>
</event>
<event>
12    3  0.4806716E-008  0.1650527E+04  0.7818608E-02  0.8790095E-01
          1   -1    0    0  501    0  0.00000000000E+00  0.00000000000E+00  0.90917289995E+03  0.90917289995E+03  0.00000000000E+00 0. -1.
         -1   -1    0    0    0  501 -0.00000000000E+00 -0.00000000000E+00 -0.74909818314E+03  0.74909818314E+03  0.00000000000E+00 0.  1.
         23    2    1    2    0    0 -0.49706178687E+03 -0.28453196607E+03  0.35838345605E+02  0.58101091229E+03  0.90886927042E+02 0.  0.
        254    2    1    2    0    0  0.49706178687E+03  0.28453196607E+03  0.12423637121E+03  0.10772601708E+04  0.90389487219E+03 0.  0.
         23    2    4    4    0    0  0.62740480181E+03  0.23180298991E+03  0.37803441262E+03  0.77352452591E+03  0.89781755320E+02 0.  0.
         23    2    4    4    0    0 -0.13034301494E+03  0.52728976159E+02 -0.25379804141E+03  0.30373564489E+03  0.89845699322E+02 0.  0.
          4    1    3    3  502    0 -0.65771462188E+02 -0.24981382426E+02  0.32822162675E+02  0.77635359656E+02  0.00000000000E+00 0. -1.
         -4    1    3    3    0  502 -0.43129032468E+03 -0.25955058364E+03  0.30161829297E+01  0.50337555264E+03  0.00000000000E+00 0.  1.
         13    1    5    5    0    0  0.11236222222E+03  0.55568858947E+02  0.35191541167E+02  0.13019835497E+03  0.00000000000E+00 0.  1.
        -13    1    5    5    0    0  0.51504257959E+03  0.17623413096E+03  0.34284287145E+03  0.64332617094E+03  0.00000000000E+00 0. -1.
          3    1    6    6  503    0 -0.12965859926E+03  0.19794871992E+02 -0.22258699061E+03  0.25835664827E+03  0.00000000000E+00 0. -1.
         -3    1    6    6    0  503 -0.68441567583E+00  0.32934104167E+02 -0.31211050800E+02  0.45378996619E+02  0.00000000000E+00 0.  1.
<mgrwt>
<rscale>  0 0.16505269E+04</rscale>
<asrwt>0</asrwt>
<pdfrwt beam="1">  1        1 0.13987275E+00 0.16505269E+04</pdfrwt>
<pdfrwt beam="2">  1       -1 0.11524587E+00 0.16505269E+04</pdfrwt>
<totfact> 0.11672895E+01</totfact>
</mgrwt>
</event>
<event>
12    3  0.4806716E-008  0.1450519E+04  0.7818608E-02  0.8918041E-01
         -1   -1    0    0    0  501 -0.00000000000E+00  0.00000000000E+00  0.16775200605E+03  0.16775200605E+03  0.00000000000E+00 0.  1.
          1   -1    0    0  501    0  0.00000000000E+00 -0.00000000000E+00 -0.31355902699E+04  0.31355902699E+04  0.00000000000E+00 0. -1.
         23    2    1    2    0    0  0.25272383011E+02  0.34594335580E+03 -0.30750863297E+03  0.47302325076E+03  0.94201579816E+02 0.  0.
        254    2    1    2    0    0 -0.25272383011E+02 -0.34594335580E+03 -0.26603296309E+04  0.28303190252E+04  0.90168538901E+03 0.  0.
         23    2    4    4    0    0  0.24034227066E+03 -0.45460497261E+03 -0.23105258265E+04  0.23687785721E+04  0.90289758052E+02 0.  0.
         23    2    4    4    0    0 -0.26561465367E+03  0.10866161681E+03 -0.34980380441E+03  0.46154045317E+03  0.91095538393E+02 0.  0.
          1    1    3    3  502    0 -0.35818173030E+02  0.11069243822E+03 -0.96581850788E+02  0.15120784140E+03  0.00000000000E+00 0. -1.
         -1    1    3    3    0  502  0.61090556040E+02  0.23525091758E+03 -0.21092678219E+03  0.32181540936E+03  0.00000000000E+00 0.  1.
         13    1    5    5    0    0  0.15736200090E+03 -0.20223122864E+03 -0.11660212191E+04  0.11938449450E+04  0.00000000000E+00 0. -1.
        -13    1    5    5    0    0  0.82980269758E+02 -0.25237374397E+03 -0.11445046074E+04  0.11749336271E+04  0.00000000000E+00 0.  1.
          1    1    6    6  503    0 -0.26194105171E+03  0.11504312967E+03 -0.35223935293E+03  0.45378474854E+03  0.00000000000E+00 0. -1.
         -1    1    6    6    0  503 -0.36736019540E+01 -0.63815128551E+01  0.24355485166E+01  0.77557046239E+01  0.00000000000E+00 0.  1.
<mgrwt>
<rscale>  0 0.14505193E+04</rscale>
<asrwt>0</asrwt>
<pdfrwt beam="1">  1        1 0.48239849E+00 0.14505193E+04</pdfrwt>
<pdfrwt beam="2">  1       -1 0.25808002E-01 0.14505193E+04</pdfrwt>
<totfact> 0.61678975E+00</totfact>
</mgrwt>
</event>
<event>
12    3  0.4806716E-008  0.1132000E+04  0.7818608E-02  0.9174551E-01
         -2   -1    0    0    0  501 -0.00000000000E+00  0.00000000000E+00  0.33849269717E+03  0.33849269717E+03  0.00000000000E+00 0. -1.
          2   -1    0    0  501    0  0.00000000000E+00 -0.00000000000E+00 -0.94641980576E+03  0.94641980576E+03  0.00000000000E+00 0.  1.
         23    2    1    2    0    0  0.41615002601E+02  0.73182177862E+02 -0.26220514375E+03  0.28939108864E+03  0.88928202367E+02 0.  0.
        254    2    1    2    0    0 -0.41615002601E+02 -0.73182177862E+02 -0.34572196484E+03  0.99552141428E+03  0.92975898475E+03 0.  0.
         23    2    4    4    0    0  0.40633625995E+03  0.84690406874E+01 -0.32976780441E+03  0.53082835491E+03  0.88606189129E+02 0.  0.
         23    2    4    4    0    0 -0.44795126255E+03 -0.81651218550E+02 -0.15954160424E+02  0.46469305937E+03  0.91421272573E+02 0.  0.
          2    1    3    3  502    0  0.37967112647E+02  0.92171705653E+02 -0.18902992024E+03  0.21370408445E+03  0.00000000000E+00 0. -1.
         -2    1    3    3    0  502  0.36478899542E+01 -0.18989527791E+02 -0.73175223513E+02  0.75687004189E+02  0.00000000000E+00 0.  1.
         13    1    5    5    0    0  0.75209475247E+02  0.28423731824E+02 -0.37503539592E+02  0.88718031874E+02  0.00000000000E+00 0. -1.
        -13    1    5    5    0    0  0.33112678470E+03 -0.19954691136E+02 -0.29226426482E+03  0.44211032304E+03  0.00000000000E+00 0.  1.
          1    1    6    6  503    0 -0.20798340698E+03 -0.63161812254E+02 -0.45906277168E+02  0.22215737303E+03  0.00000000000E+00 0. -1.
         -1    1    6    6    0  503 -0.23996785557E+03 -0.18489406296E+02  0.29952116744E+02  0.24253568634E+03  0.00000000000E+00 0.  1.
<mgrwt>
<rscale>  0 0.11320003E+04</rscale>
<asrwt>0</asrwt>
<pdfrwt beam="1">  1        2 0.14560305E+00 0.11320003E+04</pdfrwt>
<pdfrwt beam="2">  1       -2 0.52075800E-01 0.11320003E+04</pdfrwt>
<totfact> 0.94168193E+01</totfact>
</mgrwt>
</event>
<event>
12    3  0.4806716E-008  0.2096265E+04  0.7818608E-02  0.8562890E-01
          2   -1    0    0  501    0  0.00000000000E+00  0.00000000000E+00  0.20061614238E+04  0.20061614238E+04  0.00000000000E+00 0.  1.
         -2   -1    0    0    0  501 -0.00000000000E+00 -0.00000000000E+00 -0.54760380659E+03  0.54760380659E+03  0.00000000000E+00 0. -1.
         23    2    1    2    0    0 -0.54405842409E+03  0.65710734769E+03  0.66071115093E+03  0.10828438025E+04  0.90674364379E+02 0.  0.
        254    2    1    2    0    0  0.54405842409E+03 -0.65710734769E+03  0.79784646630E+03  0.14709214280E+04  0.89401410964E+03 0.  0.
         23    2    4    4    0    0  0.25439676952E+03 -0.83453535985E+03  0.64164254906E+03  0.10865595567E+04  0.87974577303E+02 0.  0.
         23    2    4    4    0    0  0.28966165456E+03  0.17742801216E+03  0.15620391724E+03  0.38436187129E+03  0.89161711038E+02 0.  0.
          4    1    3    3  502    0 -0.45478460959E+01  0.23029946171E+02  0.75350097668E+01  0.24654364663E+02  0.00000000000E+00 0. -1.
         -4    1    3    3    0  502 -0.53951057799E+03  0.63407740152E+03  0.65317614117E+03  0.10581894378E+04  0.00000000000E+00 0.  1.
         13    1    5    5    0    0  0.20077913887E+03 -0.71041727355E+03  0.57541709902E+03  0.93600737337E+03  0.00000000000E+00 0. -1.
        -13    1    5    5    0    0  0.53617630657E+02 -0.12411808630E+03  0.66225450039E+02  0.15055218330E+03  0.00000000000E+00 0.  1.
          3    1    6    6  503    0  0.23098298897E+03  0.11139751152E+03  0.82708833785E+02  0.26944999156E+03  0.00000000000E+00 0. -1.
         -3    1    6    6    0  503  0.58678665598E+02  0.66030500640E+02  0.73495083455E+02  0.11491187973E+03  0.00000000000E+00 0.  1.
<mgrwt>
<rscale>  0 0.20962649E+04</rscale>
<asrwt>0</asrwt>
<pdfrwt beam="1">  1        2 0.30864022E+00 0.20962649E+04</pdfrwt>
<pdfrwt beam="2">  1       -2 0.84246740E-01 0.20962649E+04</pdfrwt>
<totfact> 0.75126732E+00</totfact>
</mgrwt>
</event>
<event>
12    3  0.4806716E-008  0.2626712E+04  0.7818608E-02  0.8359184E-01
          2   -1    0    0  501    0  0.00000000000E+00  0.00000000000E+00  0.25590058755E+04  0.25590058755E+04  0.00000000000E+00 0. -1.
         -2   -1    0    0    0  501 -0.00000000000E+00 -0.00000000000E+00 -0.67405217441E+03  0.67405217441E+03  0.00000000000E+00 0.  1.
         23    2    1    2    0    0 -0.10783198524E+04 -0.44462521149E+03  0.74184706101E+03  0.13853317091E+04  0.91332357687E+02 0.  0.
        254    2    1    2    0    0  0.10783198524E+04  0.44462521149E+03  0.11431066401E+04  0.18477263408E+04  0.86425375739E+03 0.  0.
         23    2    4    4    0    0  0.68576097724E+03  0.47154011343E+03  0.25964137244E+03  0.87627305725E+03  0.88445644955E+02 0.  0.
         23    2    4    4    0    0  0.39255887515E+03 -0.26914901936E+02  0.88346526766E+03  0.97145328356E+03  0.91562659335E+02 0.  0.
          3    1    3    3  502    0 -0.24127117052E+02 -0.18610908503E+02  0.35457205600E+02  0.46751439781E+02  0.00000000000E+00 0. -1.
         -3    1    3    3    0  502 -0.10541927353E+04 -0.42601430299E+03  0.70638985541E+03  0.13385802693E+04  0.00000000000E+00 0.  1.
         13    1    5    5    0    0  0.53132177428E+03  0.32772390697E+03  0.17004887905E+03  0.64701036181E+03  0.00000000000E+00 0. -1.
        -13    1    5    5    0    0  0.15443920296E+03  0.14381620646E+03  0.89592493385E+02  0.22926269545E+03  0.00000000000E+00 0.  1.
          2    1    6    6  503    0  0.35928568611E+03 -0.47671409670E+02  0.82442831674E+03  0.90057804603E+03  0.00000000000E+00 0. -1.
         -2    1    6    6    0  503  0.33273189041E+02  0.20756507733E+02  0.59036950913E+02  0.70875237533E+02  0.00000000000E+00 0.  1.
<mgrwt>
<rscale>  0 0.26267116E+04</rscale>
<asrwt>0</asrwt>
<pdfrwt beam="1">  1        2 0.39369321E+00 0.26267116E+04</pdfrwt>
<pdfrwt beam="2">  1       -2 0.10370034E+00 0.26267116E+04</pdfrwt>
<totfact> 0.21495279E+00</totfact>
</mgrwt>
</event>
<event>
12    3  0.4806716E-008  0.3239042E+04  0.7818608E-02  0.8178582E-01
          2   -1    0    0  501    0  0.00000000000E+00  0.00000000000E+00  0.18615545453E+04  0.18615545453E+04  0.00000000000E+00 0. -1.
         -2   -1    0    0    0  501 -0.00000000000E+00 -0.00000000000E+00 -0.14089561318E+04  0.14089561318E+04  0.00000000000E+00 0.  1.
         23    2    1    2    0    0 -0.52868327486E+03  0.49247248604E+02  0.16123648618E+04  0.16999509244E+04  0.90451098344E+02 0.  0.
        254    2    1    2    0    0  0.52868327486E+03 -0.49247248604E+02 -0.11597664483E+04  0.15705597526E+04  0.91633423234E+03 0.  0.
         23    2    4    4    0    0  0.48513447726E+03 -0.16994081610E+03 -0.12740082164E+04  0.13771324985E+04  0.95716461167E+02 0.  0.
         23    2    4    4    0    0  0.43548797599E+02  0.12069356750E+03  0.11424176805E+03  0.19342725418E+03  0.88879053116E+02 0.  0.
          4    1    3    3  502    0 -0.10958671798E+03  0.18745157971E+02  0.23611944509E+03  0.26098471613E+03  0.00000000000E+00 0.  1.
         -4    1    3    3    0  502 -0.41909655688E+03  0.30502090634E+02  0.13762454168E+04  0.14389662083E+04  0.00000000000E+00 0. -1.
         13    1    5    5    0    0  0.38141744052E+02  0.50863543734E+01 -0.56042605375E+02  0.67981153692E+02  0.00000000000E+00 0. -1.
        -13    1    5    5    0    0  0.44699273321E+03 -0.17502717048E+03 -0.12179656110E+04  0.13091513448E+04  0.00000000000E+00 0.  1.
          3    1    6    6  503    0  0.16272521960E+02 -0.89815909595E+01  0.33338077039E+02  0.38169245837E+02  0.00000000000E+00 0. -1.
         -3    1    6    6    0  503  0.27276275639E+02  0.12967515846E+03  0.80903691013E+02  0.15525800834E+03  0.00000000000E+00 0.  1.
<mgrwt>
<rscale>  0 0.32390423E+04</rscale>
<asrwt>0</asrwt>
<pdfrwt beam="1">  1        2 0.28639301E+00 0.32390423E+04</pdfrwt>
<pdfrwt beam="2">  1       -2 0.21676248E+00 0.32390423E+04</pdfrwt>
<totfact> 0.69383660E-01</totfact>
</mgrwt>
</event>
<event>
12    3  0.4806716E-008  0.2327667E+04  0.7818608E-02  0.8467092E-01
         -1   -1    0    0    0  501 -0.00000000000E+00  0.00000000000E+00  0.97064671334E+03  0.97064671334E+03  0.00000000000E+00 0.  1.
          1   -1    0    0  501    0  0.00000000000E+00 -0.00000000000E+00 -0.13954697934E+04  0.13954697934E+04  0.00000000000E+00 0. -1.
         23    2    1    2    0    0 -0.27513315349E+03 -0.15157275098E+03  0.79132862153E+03  0.85619374314E+03  0.90521751812E+02 0.  0.
        254    2    1    2    0    0  0.27513315349E+03  0.15157275098E+03 -0.12161517016E+04  0.15099227636E+04  0.83795539251E+03 0.  0.
         23    2    4    4    0    0  0.44078849893E+03  0.23321999166E+03 -0.12007413656E+04  0.13030289722E+04  0.86131354328E+02 0.  0.
         23    2    4    4    0    0 -0.16565534544E+03 -0.81647240673E+02 -0.15410336066E+02  0.20689379142E+03  0.91976068019E+02 0.  0.
          3    1    3    3  502    0 -0.10794083652E+03 -0.18470377456E+02  0.33177938455E+03  0.34938508703E+03  0.00000000000E+00 0. -1.
         -3    1    3    3    0  502 -0.16719231697E+03 -0.13310237353E+03  0.45954923698E+03  0.50680865610E+03  0.00000000000E+00 0.  1.
         13    1    5    5    0    0  0.11996718020E+03  0.77587223045E+02 -0.25494760584E+03  0.29225020655E+03  0.00000000000E+00 0. -1.
        -13    1    5    5    0    0  0.32082131873E+03  0.15563276861E+03 -0.94579375971E+03  0.10107787657E+04  0.00000000000E+00 0.  1.
          2    1    6    6  503    0 -0.14320337474E+03 -0.92744452282E+02 -0.36121520983E+02  0.17439467952E+03  0.00000000000E+00 0. -1.
         -2    1    6    6    0  503 -0.22451970704E+02  0.11097211609E+02  0.20711184917E+02  0.32499111906E+02  0.00000000000E+00 0.  1.
<mgrwt>
<rscale>  0 0.23276668E+04</rscale>
<asrwt>0</asrwt>
<pdfrwt beam="1">  1        1 0.21468766E+00 0.23276668E+04</pdfrwt>
<pdfrwt beam="2">  1       -1 0.14933026E+00 0.23276668E+04</pdfrwt>
<totfact> 0.24646580E+00</totfact>
</mgrwt>
</event>
<event>
12    3  0.4806716E-008  0.2742205E+04  0.7818608E-02  0.8321439E-01
          2   -1    0    0  501    0  0.00000000000E+00  0.00000000000E+00  0.18500579911E+04  0.18500579911E+04  0.00000000000E+00 0. -1.
         -2   -1    0    0    0  501 -0.00000000000E+00 -0.00000000000E+00 -0.10161424159E+04  0.10161424159E+04  0.00000000000E+00 0.  1.
         23    2    1    2    0    0 -0.14510552820E+03 -0.68862224054E+03 -0.65759406105E+03  0.96934939282E+03  0.10932562261E+03 0.  0.
        254    2    1    2    0    0  0.14510552820E+03  0.68862224054E+03  0.14915096362E+04  0.18968510142E+04  0.93711609246E+03 0.  0.
         23    2    4    4    0    0  0.24321960723E+03  0.39814536762E+03  0.12351155678E+03  0.49199395814E+03  0.95537631794E+02 0.  0.
         23    2    4    4    0    0 -0.98114079032E+02  0.29047687292E+03  0.13679980794E+04  0.14048570560E+04  0.90561672340E+02 0.  0.
          4    1    3    3  502    0  0.17736608998E+02 -0.58752822342E+02 -0.49873471262E+02  0.79081252946E+02  0.00000000000E+00 0. -1.
         -4    1    3    3    0  502 -0.16284213720E+03 -0.62986941820E+03 -0.60772058979E+03  0.89026813988E+03  0.00000000000E+00 0.  1.
         13    1    5    5    0    0  0.20977791675E+03  0.33700649106E+03  0.67662934923E+02  0.40268898933E+03  0.00000000000E+00 0. -1.
        -13    1    5    5    0    0  0.33441690489E+02  0.61138876564E+02  0.55848621860E+02  0.89304968808E+02  0.00000000000E+00 0.  1.
          4    1    6    6  503    0 -0.67093530881E+02  0.27128123848E+03  0.11279300146E+04  0.11620332053E+04  0.00000000000E+00 0. -1.
         -4    1    6    6    0  503 -0.31020548151E+02  0.19195634438E+02  0.24006806475E+03  0.24282385077E+03  0.00000000000E+00 0.  1.
<mgrwt>
<rscale>  0 0.27422052E+04</rscale>
<asrwt>0</asrwt>
<pdfrwt beam="1">  1        2 0.28462431E+00 0.27422052E+04</pdfrwt>
<pdfrwt beam="2">  1       -2 0.15632960E+00 0.27422052E+04</pdfrwt>
<totfact> 0.18986342E+00</totfact>
</mgrwt>
</event>
<event>
12    3  0.4806716E-008  0.1100624E+04  0.7818608E-02  0.9204584E-01
         -1   -1    0    0    0  501 -0.00000000000E+00  0.00000000000E+00  0.88436858637E+02  0.88436858637E+02  0.00000000000E+00 0. -1.
          1   -1    0    0  501    0  0.00000000000E+00 -0.00000000000E+00 -0.34244028437E+04  0.34244028437E+04  0.00000000000E+00 0.  1.
         23    2    1    2    0    0 -0.10947497291E+03 -0.76021817109E+02 -0.74959931462E+03  0.76676005367E+03  0.90872223832E+02 0.  0.
        254    2    1    2    0    0  0.10947497291E+03  0.76021817109E+02 -0.25863666705E+04  0.27460796487E+04  0.91317949848E+03 0.  0.
         23    2    4    4    0    0  0.39656176602E+03 -0.23483232492E+03 -0.16269467850E+04  0.16936205104E+04  0.94800511113E+02 0.  0.
         23    2    4    4    0    0 -0.28708679311E+03  0.31085414203E+03 -0.95941988547E+03  0.10524591383E+04  0.90191999361E+02 0.  0.
          3    1    3    3  502    0  0.58270415835E+01 -0.83479352100E+01 -0.73256160456E+01  0.12542212179E+02  0.00000000000E+00 0. -1.
         -3    1    3    3    0  502 -0.11530201450E+03 -0.67673881899E+02 -0.74227369857E+03  0.75421784149E+03  0.00000000000E+00 0.  1.
         13    1    5    5    0    0  0.19091764508E+00 -0.18950066678E+02 -0.55911762735E+02  0.59036147306E+02  0.00000000000E+00 0. -1.
        -13    1    5    5    0    0  0.39637084838E+03 -0.21588225824E+03 -0.15710350223E+04  0.16345843631E+04  0.00000000000E+00 0.  1.
          1    1    6    6  503    0 -0.42548594223E+02  0.10045304192E+03 -0.21303983844E+03  0.23934738199E+03  0.00000000000E+00 0. -1.
         -1    1    6    6    0  503 -0.24453819889E+03  0.21040110011E+03 -0.74638004703E+03  0.81311175631E+03  0.00000000000E+00 0.  1.
<mgrwt>
<rscale>  0 0.11006242E+04</rscale>
<asrwt>0</asrwt>
<pdfrwt beam="1">  1        1 0.52683124E+00 0.11006242E+04</pdfrwt>
<pdfrwt beam="2">  1       -1 0.13605670E-01 0.11006242E+04</pdfrwt>
<totfact> 0.11297399E+01</totfact>
</mgrwt>
</event>
<event>
12    3  0.4806716E-008  0.1218052E+04  0.7818608E-02  0.9097201E-01
          1   -1    0    0  501    0  0.00000000000E+00  0.00000000000E+00  0.15542870125E+04  0.15542870125E+04  0.00000000000E+00 0. -1.
         -1   -1    0    0    0  501 -0.00000000000E+00 -0.00000000000E+00 -0.23863832315E+03  0.23863832315E+03  0.00000000000E+00 0.  1.
         23    2    1    2    0    0 -0.17317168247E+03  0.10570554679E+03  0.52399549772E+02  0.22913168312E+03  0.92701246811E+02 0.  0.
        254    2    1    2    0    0  0.17317168247E+03 -0.10570554679E+03  0.12632491395E+04  0.15637936525E+04  0.89916077807E+03 0.  0.
         23    2    4    4    0    0  0.10599523535E+03  0.15871999299E+03  0.12596023861E+04  0.12772990943E+04  0.92020535804E+02 0.  0.
         23    2    4    4    0    0  0.67176447114E+02 -0.26442553978E+03  0.36467534052E+01  0.28649455822E+03  0.87362989550E+02 0.  0.
          3    1    3    3  502    0 -0.97026964555E+01 -0.11613521186E+02  0.20387175754E+02  0.25390020246E+02  0.00000000000E+00 0. -1.
         -3    1    3    3    0  502 -0.16346898601E+03  0.11731906798E+03  0.32012374017E+02  0.20374166287E+03  0.00000000000E+00 0.  1.
         13    1    5    5    0    0  0.10349757900E+03  0.98786343415E+02  0.69872118218E+03  0.71321930774E+03  0.00000000000E+00 0.  1.
        -13    1    5    5    0    0  0.24976563501E+01  0.59933649573E+02  0.56088120396E+03  0.56407978655E+03  0.00000000000E+00 0. -1.
          2    1    6    6  503    0  0.57967304996E+01 -0.95549693552E+01 -0.20375179155E+02  0.23238921005E+02  0.00000000000E+00 0.  1.
         -2    1    6    6    0  503  0.61379716615E+02 -0.25487057043E+03  0.24021932560E+02  0.26325563721E+03  0.00000000000E+00 0. -1.
<mgrwt>
<rscale>  0 0.12180516E+04</rscale>
<asrwt>0</asrwt>
<pdfrwt beam="1">  1        1 0.23912107E+00 0.12180516E+04</pdfrwt>
<pdfrwt beam="2">  1       -1 0.36713589E-01 0.12180516E+04</pdfrwt>
<totfact> 0.42216472E+01</totfact>
</mgrwt>
</event>
<event>
12    3  0.4806716E-008  0.2358011E+04  0.7818608E-02  0.8455393E-01
         -1   -1    0    0    0  501 -0.00000000000E+00  0.00000000000E+00  0.98676837984E+03  0.98676837984E+03  0.00000000000E+00 0.  1.
          1   -1    0    0  501    0  0.00000000000E+00 -0.00000000000E+00 -0.14086928527E+04  0.14086928527E+04  0.00000000000E+00 0. -1.
         23    2    1    2    0    0 -0.73874239561E+03  0.12394289598E+03 -0.85799272029E+03  0.11426911774E+04  0.92138212972E+02 0.  0.
        254    2    1    2    0    0  0.73874239561E+03 -0.12394289598E+03  0.43606824744E+03  0.12527700551E+04  0.90453033451E+03 0.  0.
         23    2    4    4    0    0  0.19306992213E+03 -0.16900889946E+03 -0.25081183789E+03  0.37013571201E+03  0.90850780670E+02 0.  0.
         23    2    4    4    0    0  0.54567247348E+03  0.45066003480E+02  0.68688008533E+03  0.88263434312E+03  0.86311870796E+02 0.  0.
          2    1    3    3  502    0 -0.50548982910E+03  0.12493950172E+03 -0.61587823466E+03  0.80649602996E+03  0.00000000000E+00 0. -1.
         -2    1    3    3    0  502 -0.23325256652E+03 -0.99660573839E+00 -0.24211448563E+03  0.33619514744E+03  0.00000000000E+00 0.  1.
         13    1    5    5    0    0  0.30856151759E+02 -0.33240213027E+02 -0.10162402284E+03  0.11128547022E+03  0.00000000000E+00 0. -1.
        -13    1    5    5    0    0  0.16221377037E+03 -0.13576868643E+03 -0.14918781505E+03  0.25885024178E+03  0.00000000000E+00 0.  1.
          2    1    6    6  503    0  0.53915776824E+03  0.34016917842E+02  0.67855118739E+03  0.86734074254E+03  0.00000000000E+00 0.  1.
         -2    1    6    6    0  503  0.65147052415E+01  0.11049085638E+02  0.83288979374E+01  0.15293600579E+02  0.00000000000E+00 0. -1.
<mgrwt>
<rscale>  0 0.23580107E+04</rscale>
<asrwt>0</asrwt>
<pdfrwt beam="1">  1        1 0.21672198E+00 0.23580107E+04</pdfrwt>
<pdfrwt beam="2">  1       -1 0.15181052E+00 0.23580107E+04</pdfrwt>
<totfact> 0.23013107E+00</totfact>
</mgrwt>
</event>
<event>
12    3  0.4806716E-008  0.2085802E+04  0.7818608E-02  0.8567524E-01
         -2   -1    0    0    0  501 -0.00000000000E+00  0.00000000000E+00  0.22373796303E+03  0.22373796303E+03  0.00000000000E+00 0.  1.
          2   -1    0    0  501    0  0.00000000000E+00 -0.00000000000E+00 -0.48612342334E+04  0.48612342334E+04  0.00000000000E+00 0. -1.
         23    2    1    2    0    0  0.50699646135E+03 -0.63017287963E+03 -0.13974588664E+04  0.16171850310E+04  0.90735170439E+02 0.  0.
        254    2    1    2    0    0 -0.50699646135E+03  0.63017287963E+03 -0.32400374040E+04  0.34677871654E+04  0.93463478191E+03 0.  0.
         23    2    4    4    0    0 -0.36016867249E+03  0.75196051485E+03 -0.15305810371E+04  0.17452909266E+04  0.90531866049E+02 0.  0.
         23    2    4    4    0    0 -0.14682778886E+03 -0.12178763523E+03 -0.17094563669E+04  0.17224962389E+04  0.91441756846E+02 0.  0.
          1    1    3    3  502    0  0.68481348221E+02 -0.46823992906E+02 -0.11833570558E+03  0.14451823615E+03  0.00000000000E+00 0. -1.
         -1    1    3    3    0  502  0.43851511313E+03 -0.58334888672E+03 -0.12791231608E+04  0.14726667948E+04  0.00000000000E+00 0.  1.
         13    1    5    5    0    0 -0.36322518109E+03  0.74283373496E+03 -0.14950741374E+04  0.17085026094E+04  0.00000000000E+00 0.  1.
        -13    1    5    5    0    0  0.30565085992E+01  0.91267798940E+01 -0.35506899719E+02  0.36788317218E+02  0.00000000000E+00 0. -1.
          1    1    6    6  503    0  0.47022977832E+00 -0.17956674424E+01  0.57513166885E+00  0.19432740529E+01  0.00000000000E+00 0. -1.
         -1    1    6    6    0  503 -0.14729801864E+03 -0.11999196778E+03 -0.17100314986E+04  0.17205529648E+04  0.00000000000E+00 0.  1.
<mgrwt>
<rscale>  0 0.20858021E+04</rscale>
<asrwt>0</asrwt>
<pdfrwt beam="1">  1        2 0.74788219E+00 0.20858021E+04</pdfrwt>
<pdfrwt beam="2">  1       -2 0.34421225E-01 0.20858021E+04</pdfrwt>
<totfact> 0.37668629E-01</totfact>
</mgrwt>
</event>
<event>
12    3  0.4806716E-008  0.1115565E+04  0.7818608E-02  0.9190153E-01
          2   -1    0    0  501    0  0.00000000000E+00  0.00000000000E+00  0.66670345710E+03  0.66670345710E+03  0.00000000000E+00 0. -1.
         -2   -1    0    0    0  501 -0.00000000000E+00 -0.00000000000E+00 -0.46665590997E+03  0.46665590997E+03  0.00000000000E+00 0.  1.
         23    2    1    2    0    0 -0.16620407048E+03 -0.19412490040E+02  0.75999937826E+02  0.20481481299E+03  0.90401765779E+02 0.  0.
        254    2    1    2    0    0  0.16620407048E+03  0.19412490040E+02  0.12404760930E+03  0.92854455409E+03  0.90487929678E+03 0.  0.
         23    2    4    4    0    0 -0.26275056156E+03  0.82196174824E+02 -0.22204642457E+03  0.36659793704E+03  0.96412468196E+02 0.  0.
         23    2    4    4    0    0  0.42895463204E+03 -0.62783684783E+02  0.34609403387E+03  0.56194661705E+03  0.89772226767E+02 0.  0.
          3    1    3    3  502    0 -0.61746944101E+02 -0.37867046706E+02  0.66474722598E+02  0.98313209065E+02  0.00000000000E+00 0. -1.
         -3    1    3    3    0  502 -0.10445712638E+03  0.18454556666E+02  0.95252152275E+01  0.10650160392E+03  0.00000000000E+00 0.  1.
         13    1    5    5    0    0 -0.63578894974E+02 -0.18828448025E+02 -0.70031266210E+02  0.96442545529E+02  0.00000000000E+00 0. -1.
        -13    1    5    5    0    0 -0.19917166659E+03  0.10102462285E+03 -0.15201515836E+03  0.27015539152E+03  0.00000000000E+00 0.  1.
          4    1    6    6  503    0  0.26676609321E+03 -0.11886740168E+01  0.18037390586E+03  0.32202532097E+03  0.00000000000E+00 0. -1.
         -4    1    6    6    0  503  0.16218853884E+03 -0.61595010766E+02  0.16572012801E+03  0.23992129607E+03  0.00000000000E+00 0.  1.
<mgrwt>
<rscale>  0 0.11155646E+04</rscale>
<asrwt>0</asrwt>
<pdfrwt beam="1">  1        2 0.10256976E+00 0.11155646E+04</pdfrwt>
<pdfrwt beam="2">  1       -2 0.71793217E-01 0.11155646E+04</pdfrwt>
<totfact> 0.76044228E+01</totfact>
</mgrwt>
</event>
<event>
12    3  0.4806716E-008  0.2513465E+04  0.7818608E-02  0.8398204E-01
         -2   -1    0    0    0  501 -0.00000000000E+00  0.00000000000E+00  0.61513015886E+03  0.61513015886E+03  0.00000000000E+00 0. -1.
          2   -1    0    0  501    0  0.00000000000E+00 -0.00000000000E+00 -0.25675480614E+04  0.25675480614E+04  0.00000000000E+00 0.  1.
         23    2    1    2    0    0 -0.64158857836E+03  0.45149988345E+03  0.10791561552E+03  0.79737863406E+03  0.93160385054E+02 0.  0.
        254    2    1    2    0    0  0.64158857836E+03 -0.45149988345E+03 -0.20603335181E+04  0.23852995862E+04  0.91059972635E+03 0.  0.
         23    2    4    4    0    0  0.22736246701E+03 -0.15365494922E+03 -0.17645988837E+04  0.17881072770E+04  0.90635968851E+02 0.  0.
         23    2    4    4    0    0  0.41422611134E+03 -0.29784493423E+03 -0.29573463439E+03  0.59719230923E+03  0.94259238603E+02 0.  0.
          1    1    3    3  502    0 -0.14309943913E+03  0.13090691091E+03  0.58821716122E+02  0.20266737056E+03  0.00000000000E+00 0. -1.
         -1    1    3    3    0  502 -0.49848913922E+03  0.32059297254E+03  0.49093899402E+02  0.59471126349E+03  0.00000000000E+00 0.  1.
         13    1    5    5    0    0  0.19533131270E+03 -0.14884951169E+03 -0.16734670506E+04  0.16913906906E+04  0.00000000000E+00 0.  1.
        -13    1    5    5    0    0  0.32031154311E+02 -0.48054375363E+01 -0.91131833090E+02  0.96716586368E+02  0.00000000000E+00 0. -1.
          1    1    6    6  503    0  0.49711690593E+02 -0.28061978929E+02 -0.70903549734E+02  0.91027689238E+02  0.00000000000E+00 0. -1.
         -1    1    6    6    0  503  0.36451442075E+03 -0.26978295530E+03 -0.22483108465E+03  0.50616461999E+03  0.00000000000E+00 0.  1.
<mgrwt>
<rscale>  0 0.25134647E+04</rscale>
<asrwt>0</asrwt>
<pdfrwt beam="1">  1        2 0.39500740E+00 0.25134647E+04</pdfrwt>
<pdfrwt beam="2">  1       -2 0.94635408E-01 0.25134647E+04</pdfrwt>
<totfact> 0.26634169E+00</totfact>
</mgrwt>
</event>
<event>
12    3  0.4806716E-008  0.1581748E+04  0.7818608E-02  0.8831840E-01
          2   -1    0    0  501    0  0.00000000000E+00  0.00000000000E+00  0.11166239031E+04  0.11166239031E+04  0.00000000000E+00 0. -1.
         -2   -1    0    0    0  501 -0.00000000000E+00 -0.00000000000E+00 -0.56015396752E+03  0.56015396752E+03  0.00000000000E+00 0.  1.
         23    2    1    2    0    0  0.35763447952E+03 -0.37115794077E+03  0.85744551427E+02  0.53782663008E+03  0.12745476839E+03 0.  0.
        254    2    1    2    0    0 -0.35763447952E+03  0.37115794077E+03  0.47072538417E+03  0.11389512405E+04  0.89998161265E+03 0.  0.
         23    2    4    4    0    0 -0.85036048037E+02  0.74025205597E+02 -0.26078809697E+03  0.29821383186E+03  0.90610139957E+02 0.  0.
         23    2    4    4    0    0 -0.27259843148E+03  0.29713273517E+03  0.73151348113E+03  0.84073740869E+03  0.95549202656E+02 0.  0.
          1    1    3    3  502    0  0.34903342750E+03 -0.37584964747E+03  0.67800462475E+02  0.51738205779E+03  0.00000000000E+00 0. -1.
         -1    1    3    3    0  502  0.86010520194E+01  0.46917066992E+01  0.17944088952E+02  0.20444572284E+02  0.00000000000E+00 0.  1.
         13    1    5    5    0    0 -0.19933717387E+02 -0.16905943595E+02 -0.20645355831E+02  0.33307577743E+02  0.00000000000E+00 0. -1.
        -13    1    5    5    0    0 -0.65102330650E+02  0.90931149192E+02 -0.24014274114E+03  0.26490625412E+03  0.00000000000E+00 0.  1.
          3    1    6    6  503    0 -0.48930558818E+02  0.96422616451E+01  0.78428606949E+02  0.92942020550E+02  0.00000000000E+00 0. -1.
         -3    1    6    6    0  503 -0.22366787266E+03  0.28749047353E+03  0.65308487418E+03  0.74779538814E+03  0.00000000000E+00 0.  1.
<mgrwt>
<rscale>  0 0.15817475E+04</rscale>
<asrwt>0</asrwt>
<pdfrwt beam="1">  1        2 0.17178829E+00 0.15817475E+04</pdfrwt>
<pdfrwt beam="2">  1       -2 0.86177534E-01 0.15817475E+04</pdfrwt>
<totfact> 0.23862888E+01</totfact>
</mgrwt>
</event>
<event>
12    3  0.4806716E-008  0.1454125E+04  0.7818608E-02  0.8915545E-01
          2   -1    0    0  501    0  0.00000000000E+00  0.00000000000E+00  0.11693372740E+04  0.11693372740E+04  0.00000000000E+00 0. -1.
         -2   -1    0    0    0  501 -0.00000000000E+00 -0.00000000000E+00 -0.45206820639E+03  0.45206820639E+03  0.00000000000E+00 0.  1.
         23    2    1    2    0    0  0.40295210575E+03  0.16660915579E+03  0.20974353934E+03  0.49244148170E+03  0.91527319848E+02 0.  0.
        254    2    1    2    0    0 -0.40295210575E+03 -0.16660915579E+03  0.50752552829E+03  0.11289639987E+04  0.90931212364E+03 0.  0.
         23    2    4    4    0    0 -0.47514574242E+03  0.78523139493E+02  0.65653589890E+03  0.81934348064E+03  0.91405649437E+02 0.  0.
         23    2    4    4    0    0  0.72193636666E+02 -0.24513229528E+03 -0.14901037061E+03  0.30962051808E+03  0.91427628759E+02 0.  0.
          1    1    3    3  502    0  0.38143306834E+03  0.17460451088E+03  0.18437209234E+03  0.45822591511E+03  0.00000000000E+00 0. -1.
         -1    1    3    3    0  502  0.21519037414E+02 -0.79953550902E+01  0.25371447001E+02  0.34215566591E+02  0.00000000000E+00 0.  1.
         13    1    5    5    0    0 -0.36978585959E+03  0.83084801821E+02  0.56111904574E+03  0.67712572668E+03  0.00000000000E+00 0. -1.
        -13    1    5    5    0    0 -0.10535988284E+03 -0.45616623279E+01  0.95416853159E+02  0.14221775396E+03  0.00000000000E+00 0.  1.
          4    1    6    6  503    0  0.90335764129E+02 -0.15447080145E+03 -0.98206178303E+02  0.20412308110E+03  0.00000000000E+00 0. -1.
         -4    1    6    6    0  503 -0.18142127463E+02 -0.90661493832E+02 -0.50804192304E+02  0.10549743698E+03  0.00000000000E+00 0.  1.
<mgrwt>
<rscale>  0 0.14541254E+04</rscale>
<asrwt>0</asrwt>
<pdfrwt beam="1">  1        2 0.17989804E+00 0.14541254E+04</pdfrwt>
<pdfrwt beam="2">  1       -2 0.69548955E-01 0.14541254E+04</pdfrwt>
<totfact> 0.36125620E+01</totfact>
</mgrwt>
</event>
<event>
12    3  0.4806716E-008  0.1640158E+04  0.7818608E-02  0.8796251E-01
          2   -1    0    0  501    0  0.00000000000E+00  0.00000000000E+00  0.18626188398E+04  0.18626188398E+04  0.00000000000E+00 0. -1.
         -2   -1    0    0    0  501 -0.00000000000E+00 -0.00000000000E+00 -0.36106645620E+03  0.36106645620E+03  0.00000000000E+00 0.  1.
         23    2    1    2    0    0 -0.23110904345E+03 -0.45524045130E+03  0.18999499979E+03  0.55241415429E+03  0.91695362192E+02 0.  0.
        254    2    1    2    0    0  0.23110904345E+03  0.45524045130E+03  0.13115573838E+04  0.16712711417E+04  0.90128197562E+03 0.  0.
         23    2    4    4    0    0 -0.26626256539E+03  0.40375216269E+03  0.42916190630E+03  0.65289119929E+03  0.90417994292E+02 0.  0.
         23    2    4    4    0    0  0.49737160884E+03  0.51488288611E+02  0.88239547751E+03  0.10183799424E+04  0.91904119694E+02 0.  0.
          3    1    3    3  502    0 -0.15114807333E+02 -0.85355879269E+02  0.81026863014E+01  0.87061685326E+02  0.00000000000E+00 0. -1.
         -3    1    3    3    0  502 -0.21599423612E+03 -0.36988457203E+03  0.18189231349E+03  0.46535246896E+03  0.00000000000E+00 0.  1.
         13    1    5    5    0    0 -0.24263356491E+03  0.37425821913E+03  0.35651368271E+03  0.57100110977E+03  0.00000000000E+00 0. -1.
        -13    1    5    5    0    0 -0.23629000478E+02  0.29493943563E+02  0.72648223590E+02  0.81890089519E+02  0.00000000000E+00 0.  1.
          1    1    6    6  503    0  0.33091109218E+03 -0.86141807804E+01  0.59410253256E+03  0.68009865037E+03  0.00000000000E+00 0. -1.
         -1    1    6    6    0  503  0.16646051666E+03  0.60102469391E+02  0.28829294495E+03  0.33828129204E+03  0.00000000000E+00 0.  1.
<mgrwt>
<rscale>  0 0.16401575E+04</rscale>
<asrwt>0</asrwt>
<pdfrwt beam="1">  1        2 0.28655674E+00 0.16401575E+04</pdfrwt>
<pdfrwt beam="2">  1       -2 0.55548687E-01 0.16401575E+04</pdfrwt>
<totfact> 0.23188199E+01</totfact>
</mgrwt>
</event>
<event>
12    3  0.4806716E-008  0.1728988E+04  0.7818608E-02  0.8745002E-01
         -2   -1    0    0    0  501 -0.00000000000E+00  0.00000000000E+00  0.73575137128E+03  0.73575137128E+03  0.00000000000E+00 0.  1.
          2   -1    0    0  501    0  0.00000000000E+00 -0.00000000000E+00 -0.10157644953E+04  0.10157644953E+04  0.00000000000E+00 0. -1.
         23    2    1    2    0    0 -0.40265571272E+03 -0.47776281227E+03 -0.94196130160E+02  0.63850707573E+03  0.91812020181E+02 0.  0.
        254    2    1    2    0    0  0.40265571272E+03  0.47776281227E+03 -0.18581699387E+03  0.11130087909E+04  0.90214837225E+03 0.  0.
         23    2    4    4    0    0  0.84045513316E+02 -0.28831544156E+02 -0.43864753493E+03  0.45698530364E+03  0.92352593875E+02 0.  0.
         23    2    4    4    0    0  0.31861019940E+03  0.50659435643E+03  0.25283054106E+03  0.65602348722E+03  0.91067184908E+02 0.  0.
          1    1    3    3  502    0 -0.33900856798E+03 -0.38069351724E+03 -0.10961820793E+03  0.52141203932E+03  0.00000000000E+00 0. -1.
         -1    1    3    3    0  502 -0.63647144732E+02 -0.97069295034E+02  0.15422077766E+02  0.11709503642E+03  0.00000000000E+00 0.  1.
         13    1    5    5    0    0  0.10307648323E+02 -0.19036976881E+02 -0.13795292666E+02  0.25670298059E+02  0.00000000000E+00 0. -1.
        -13    1    5    5    0    0  0.73737864993E+02 -0.97945672750E+01 -0.42485224227E+03  0.43131500558E+03  0.00000000000E+00 0.  1.
          1    1    6    6  503    0  0.33654952575E+02  0.15595628328E+02  0.89417986571E+01  0.38155408778E+02  0.00000000000E+00 0. -1.
         -1    1    6    6    0  503  0.28495524683E+03  0.49099872810E+03  0.24388874240E+03  0.61786807845E+03  0.00000000000E+00 0.  1.
<mgrwt>
<rscale>  0 0.17289883E+04</rscale>
<asrwt>0</asrwt>
<pdfrwt beam="1">  1        2 0.15627146E+00 0.17289883E+04</pdfrwt>
<pdfrwt beam="2">  1       -2 0.11319252E+00 0.17289883E+04</pdfrwt>
<totfact> 0.14320866E+01</totfact>
</mgrwt>
</event>
<event>
12    3  0.4806716E-008  0.1754705E+04  0.7818608E-02  0.8730765E-01
         -1   -1    0    0    0  501 -0.00000000000E+00  0.00000000000E+00  0.20643484300E+03  0.20643484300E+03  0.00000000000E+00 0.  1.
          1   -1    0    0  501    0  0.00000000000E+00 -0.00000000000E+00 -0.37287654070E+04  0.37287654070E+04  0.00000000000E+00 0. -1.
         23    2    1    2    0    0  0.42090662696E+03 -0.36472149972E+03 -0.20705581935E+04  0.21461472518E+04  0.92480445619E+02 0.  0.
        254    2    1    2    0    0 -0.42090662696E+03  0.36472149972E+03 -0.14517723705E+04  0.17890529982E+04  0.88480701489E+03 0.  0.
         23    2    4    4    0    0 -0.37340270431E+03  0.64274319514E+03 -0.10253455189E+04  0.12699597259E+04  0.94423926891E+02 0.  0.
         23    2    4    4    0    0 -0.47503922653E+02 -0.27802169541E+03 -0.42642685164E+03  0.51909327225E+03  0.89806902362E+02 0.  0.
          1    1    3    3  502    0  0.12934958315E+03 -0.16586861559E+03 -0.84519883227E+03  0.87097920662E+03  0.00000000000E+00 0. -1.
         -1    1    3    3    0  502  0.29155704381E+03 -0.19885288413E+03 -0.12253593612E+04  0.12751680452E+04  0.00000000000E+00 0.  1.
         13    1    5    5    0    0 -0.40650846540E+02  0.25638741915E+02 -0.72145391710E+02  0.86687911247E+02  0.00000000000E+00 0. -1.
        -13    1    5    5    0    0 -0.33275185777E+03  0.61710445322E+03 -0.95320012716E+03  0.11832718147E+04  0.00000000000E+00 0.  1.
          2    1    6    6  503    0 -0.59900935087E+02 -0.94509876403E+02 -0.15259404520E+03  0.18922257104E+03  0.00000000000E+00 0. -1.
         -2    1    6    6    0  503  0.12397012435E+02 -0.18351181901E+03 -0.27383280644E+03  0.32987070121E+03  0.00000000000E+00 0.  1.
<mgrwt>
<rscale>  0 0.17547046E+04</rscale>
<asrwt>0</asrwt>
<pdfrwt beam="1">  1        1 0.57365621E+00 0.17547046E+04</pdfrwt>
<pdfrwt beam="2">  1       -1 0.31759207E-01 0.17547046E+04</pdfrwt>
<totfact> 0.14415759E+00</totfact>
</mgrwt>
</event>
<event>
12    3  0.4806716E-008  0.2173157E+04  0.7818608E-02  0.8529684E-01
         -2   -1    0    0    0  501 -0.00000000000E+00  0.00000000000E+00  0.61289021575E+03  0.61289021575E+03  0.00000000000E+00 0.  1.
          2   -1    0    0  501    0  0.00000000000E+00 -0.00000000000E+00 -0.19263698736E+04  0.19263698736E+04  0.00000000000E+00 0. -1.
         23    2    1    2    0    0 -0.47940482133E+03 -0.54322913232E+03 -0.11570216429E+04  0.13681683980E+04  0.90877997707E+02 0.  0.
        254    2    1    2    0    0  0.47940482133E+03  0.54322913232E+03 -0.15645801502E+03  0.11710916913E+04  0.90666960141E+03 0.  0.
         23    2    4    4    0    0  0.30934333418E+03  0.48050133847E+03  0.31415628411E+03  0.65858930279E+03  0.92037298037E+02 0.  0.
         23    2    4    4    0    0  0.17006148715E+03  0.62727793849E+02 -0.47061429913E+03  0.51250238854E+03  0.91242502040E+02 0.  0.
          1    1    3    3  502    0 -0.39677991130E+03 -0.42284952382E+03 -0.98003162294E+03  0.11387264815E+04  0.00000000000E+00 0. -1.
         -1    1    3    3    0  502 -0.82624910026E+02 -0.12037960850E+03 -0.17699001992E+03  0.22944191650E+03  0.00000000000E+00 0.  1.
         13    1    5    5    0    0  0.30072717877E+03  0.48365388488E+03  0.31087055483E+03  0.64884390902E+03  0.00000000000E+00 0.  1.
        -13    1    5    5    0    0  0.86161554110E+01 -0.31525464053E+01  0.32857292730E+01  0.97453937714E+01  0.00000000000E+00 0. -1.
          1    1    6    6  503    0  0.20795982317E+02  0.15897493562E+01 -0.76035537864E+01  0.22199419221E+02  0.00000000000E+00 0. -1.
         -1    1    6    6    0  503  0.14926550483E+03  0.61138044493E+02 -0.46301074534E+03  0.49030296931E+03  0.00000000000E+00 0.  1.
<mgrwt>
<rscale>  0 0.21731574E+04</rscale>
<asrwt>0</asrwt>
<pdfrwt beam="1">  1        2 0.29636459E+00 0.21731574E+04</pdfrwt>
<pdfrwt beam="2">  1       -2 0.94290805E-01 0.21731574E+04</pdfrwt>
<totfact> 0.63784574E+00</totfact>
</mgrwt>
</event>
<event>
12    3  0.4806716E-008  0.2457586E+04  0.7818608E-02  0.8418253E-01
          2   -1    0    0  501    0  0.00000000000E+00  0.00000000000E+00  0.19124539283E+04  0.19124539283E+04  0.00000000000E+00 0. -1.
         -2   -1    0    0    0  501 -0.00000000000E+00 -0.00000000000E+00 -0.78952630203E+03  0.78952630203E+03  0.00000000000E+00 0.  1.
         23    2    1    2    0    0  0.22276578973E+03  0.10196234237E+04  0.20787771276E+03  0.10680965725E+04  0.91436434247E+02 0.  0.
        254    2    1    2    0    0 -0.22276578973E+03 -0.10196234237E+04  0.91504991353E+03  0.16338836578E+04  0.86197618282E+03 0.  0.
         23    2    4    4    0    0  0.27399942885E+03 -0.21920132683E+03  0.45189265809E+03  0.58023205375E+03  0.96629980182E+02 0.  0.
         23    2    4    4    0    0 -0.49676521857E+03 -0.80042209689E+03  0.46315725544E+03  0.10536516041E+04  0.90641292526E+02 0.  0.
          1    1    3    3  502    0  0.33942365781E+01  0.98019696538E+02  0.40306090112E+02  0.10603755302E+03  0.00000000000E+00 0. -1.
         -1    1    3    3    0  502  0.21937155315E+03  0.92160372719E+03  0.16757162265E+03  0.96205901951E+03  0.00000000000E+00 0.  1.
         13    1    5    5    0    0  0.23769958977E+03 -0.15082455210E+03  0.31111843136E+03  0.41957576053E+03  0.00000000000E+00 0. -1.
        -13    1    5    5    0    0  0.36299839078E+02 -0.68376774735E+02  0.14077422673E+03  0.16065629322E+03  0.00000000000E+00 0.  1.
          4    1    6    6  503    0 -0.40517419527E+03 -0.71021071602E+03  0.40722784085E+03  0.91345492720E+03  0.00000000000E+00 0. -1.
         -4    1    6    6    0  503 -0.91591023302E+02 -0.90211380875E+02  0.55929414588E+02  0.14019667687E+03  0.00000000000E+00 0.  1.
<mgrwt>
<rscale>  0 0.24575864E+04</rscale>
<asrwt>0</asrwt>
<pdfrwt beam="1">  1        2 0.29422368E+00 0.24575864E+04</pdfrwt>
<pdfrwt beam="2">  1       -2 0.12146559E+00 0.24575864E+04</pdfrwt>
<totfact> 0.34460557E+00</totfact>
</mgrwt>
</event>
<event>
12    3  0.4806716E-008  0.2011139E+04  0.7818608E-02  0.8601430E-01
          1   -1    0    0  501    0  0.00000000000E+00  0.00000000000E+00  0.23290108511E+04  0.23290108511E+04  0.00000000000E+00 0. -1.
         -1   -1    0    0    0  501 -0.00000000000E+00 -0.00000000000E+00 -0.43416297178E+03  0.43416297178E+03  0.00000000000E+00 0.  1.
         23    2    1    2    0    0  0.60201832370E+03 -0.51812481238E+03  0.59675191811E+03  0.99770493648E+03  0.91776387025E+02 0.  0.
        254    2    1    2    0    0 -0.60201832370E+03  0.51812481238E+03  0.12980959612E+04  0.17654688864E+04  0.89495691579E+03 0.  0.
         23    2    4    4    0    0 -0.50646987088E+03  0.25408212118E+03  0.16917361667E+03  0.59842681951E+03  0.91790475087E+02 0.  0.
         23    2    4    4    0    0 -0.95548452826E+02  0.26404269120E+03  0.11289223446E+04  0.11670420669E+04  0.93131500141E+02 0.  0.
          1    1    3    3  502    0  0.37046465809E+03 -0.26769245117E+03  0.37106059962E+03  0.58871833664E+03  0.00000000000E+00 0. -1.
         -1    1    3    3    0  502  0.23155366562E+03 -0.25043236121E+03  0.22569131850E+03  0.40898659984E+03  0.00000000000E+00 0.  1.
         13    1    5    5    0    0 -0.16408408036E+03  0.99016827003E+02  0.10029982479E+03  0.21630527573E+03  0.00000000000E+00 0. -1.
        -13    1    5    5    0    0 -0.34238579052E+03  0.15506529417E+03  0.68873791882E+02  0.38212154377E+03  0.00000000000E+00 0.  1.
          4    1    6    6  503    0  0.48991961469E+01 -0.55159537398E+01  0.44810375240E+02  0.45413627886E+02  0.00000000000E+00 0. -1.
         -4    1    6    6    0  503 -0.10044764897E+03  0.26955864494E+03  0.10841119693E+04  0.11216284390E+04  0.00000000000E+00 0.  1.
<mgrwt>
<rscale>  0 0.20111393E+04</rscale>
<asrwt>0</asrwt>
<pdfrwt beam="1">  1        1 0.35830935E+00 0.20111393E+04</pdfrwt>
<pdfrwt beam="2">  1       -1 0.66794305E-01 0.20111393E+04</pdfrwt>
<totfact> 0.37421293E+00</totfact>
</mgrwt>
</event>
<event>
12    3  0.4806716E-008  0.1539892E+04  0.7818608E-02  0.8858350E-01
         -2   -1    0    0    0  501 -0.00000000000E+00  0.00000000000E+00  0.41458067823E+03  0.41458067823E+03  0.00000000000E+00 0.  1.
          2   -1    0    0  501    0  0.00000000000E+00 -0.00000000000E+00 -0.14299185165E+04  0.14299185165E+04  0.00000000000E+00 0. -1.
         23    2    1    2    0    0 -0.30239281341E+03 -0.27531076304E+03 -0.16833846262E+02  0.41921235174E+03  0.90654220073E+02 0.  0.
        254    2    1    2    0    0  0.30239281341E+03  0.27531076304E+03 -0.99850399202E+03  0.14252868430E+04  0.93123301753E+03 0.  0.
         23    2    4    4    0    0  0.56463472188E+03  0.31186731142E+03 -0.40158777628E+03  0.76528360972E+03  0.91173856795E+02 0.  0.
         23    2    4    4    0    0 -0.26224190847E+03 -0.36556548381E+02 -0.59691621574E+03  0.66000323329E+03  0.95854575042E+02 0.  0.
          1    1    3    3  502    0 -0.24116886659E+01 -0.32404652095E+02 -0.61404843535E+01  0.33069370537E+02  0.00000000000E+00 0. -1.
         -1    1    3    3    0  502 -0.29998112475E+03 -0.24290611095E+03 -0.10693361908E+02  0.38614298120E+03  0.00000000000E+00 0.  1.
         13    1    5    5    0    0  0.34568843795E+03  0.13974026280E+03 -0.22395226793E+03  0.43495109552E+03  0.00000000000E+00 0.  1.
        -13    1    5    5    0    0  0.21894628393E+03  0.17212704862E+03 -0.17763550835E+03  0.33033251420E+03  0.00000000000E+00 0. -1.
          1    1    6    6  503    0 -0.11379590069E+03 -0.56212374026E+02 -0.33597342008E+03  0.35914826605E+03  0.00000000000E+00 0. -1.
         -1    1    6    6    0  503 -0.14844600777E+03  0.19655825645E+02 -0.26094279566E+03  0.30085496724E+03  0.00000000000E+00 0.  1.
<mgrwt>
<rscale>  0 0.15398917E+04</rscale>
<asrwt>0</asrwt>
<pdfrwt beam="1">  1        2 0.21998747E+00 0.15398917E+04</pdfrwt>
<pdfrwt beam="2">  1       -2 0.63781642E-01 0.15398917E+04</pdfrwt>
<totfact> 0.30468141E+01</totfact>
</mgrwt>
</event>
<event>
12    3  0.4806716E-008  0.1361776E+04  0.7818608E-02  0.8981962E-01
          3   -1    0    0  501    0  0.00000000000E+00  0.00000000000E+00  0.34783339953E+03  0.34783339953E+03  0.00000000000E+00 0. -1.
         -3   -1    0    0    0  501 -0.00000000000E+00 -0.00000000000E+00 -0.13328460171E+04  0.13328460171E+04  0.00000000000E+00 0.  1.
         23    2    1    2    0    0 -0.15329973179E+03 -0.33141312888E+03 -0.39038496654E+03  0.54238224644E+03  0.91883673146E+02 0.  0.
        254    2    1    2    0    0  0.15329973179E+03  0.33141312888E+03 -0.59462765100E+03  0.11382971702E+04  0.89933471773E+03 0.  0.
         23    2    4    4    0    0  0.32023471664E+03 -0.20286304671E+03 -0.33853036309E+03  0.51598800880E+03  0.89090566446E+02 0.  0.
         23    2    4    4    0    0 -0.16693498485E+03  0.53427617559E+03 -0.25609728791E+03  0.62230916136E+03  0.91457916411E+02 0.  0.
          2    1    3    3  502    0  0.47318609925E+01 -0.76029714476E+02 -0.76112792376E+02  0.10768502753E+03  0.00000000000E+00 0. -1.
         -2    1    3    3    0  502 -0.15803159278E+03 -0.25538341440E+03 -0.31427217417E+03  0.43469721891E+03  0.00000000000E+00 0.  1.
         13    1    5    5    0    0  0.10277449853E+03 -0.29736005075E+02 -0.13078533793E+03  0.16897228223E+03  0.00000000000E+00 0.  1.
        -13    1    5    5    0    0  0.21746021811E+03 -0.17312704164E+03 -0.20774502516E+03  0.34701572657E+03  0.00000000000E+00 0. -1.
          2    1    6    6  503    0 -0.16019966934E+03  0.49612931899E+03 -0.20989848715E+03  0.56201922577E+03  0.00000000000E+00 0. -1.
         -2    1    6    6    0  503 -0.67353155159E+01  0.38146856594E+02 -0.46198800757E+02  0.60289935598E+02  0.00000000000E+00 0.  1.
<mgrwt>
<rscale>  0 0.13617758E+04</rscale>
<asrwt>0</asrwt>
<pdfrwt beam="1">  1        3 0.53512830E-01 0.13617758E+04</pdfrwt>
<pdfrwt beam="2">  1       -3 0.20505323E+00 0.13617758E+04</pdfrwt>
<totfact> 0.12014033E+00</totfact>
</mgrwt>
</event>
<event>
12    3  0.4806716E-008  0.1787233E+04  0.7818608E-02  0.8713118E-01
          2   -1    0    0  501    0  0.00000000000E+00  0.00000000000E+00  0.11948835730E+04  0.11948835730E+04  0.00000000000E+00 0. -1.
         -2   -1    0    0    0  501 -0.00000000000E+00 -0.00000000000E+00 -0.66830815830E+03  0.66830815830E+03  0.00000000000E+00 0.  1.
         23    2    1    2    0    0 -0.49129548373E+03  0.33111983589E+02  0.65979713488E+03  0.82866165308E+03  0.94234920810E+02 0.  0.
        254    2    1    2    0    0  0.49129548373E+03 -0.33111983589E+02 -0.13322172013E+03  0.10345300783E+04  0.90002044440E+03 0.  0.
         23    2    4    4    0    0  0.83199990073E+02  0.27193192078E+02 -0.47451328948E+03  0.49101024462E+03  0.90920241878E+02 0.  0.
         23    2    4    4    0    0  0.40809549366E+03 -0.60305175667E+02  0.34129156935E+03  0.54351983365E+03  0.93569375869E+02 0.  0.
          4    1    3    3  502    0 -0.23541686559E+03 -0.18693659965E+02  0.36656999416E+03  0.43605517329E+03  0.00000000000E+00 0. -1.
         -4    1    3    3    0  502 -0.25587861814E+03  0.51805643555E+02  0.29322714071E+03  0.39260647979E+03  0.00000000000E+00 0.  1.
         13    1    5    5    0    0  0.52945616906E+02  0.53982941957E+02 -0.39087190418E+03  0.39811837668E+03  0.00000000000E+00 0. -1.
        -13    1    5    5    0    0  0.30254373167E+02 -0.26789749880E+02 -0.83641385299E+02  0.92891867938E+02  0.00000000000E+00 0.  1.
          1    1    6    6  503    0  0.24670566216E+03 -0.19381691674E+01  0.16096322594E+03  0.29457868278E+03  0.00000000000E+00 0. -1.
         -1    1    6    6    0  503  0.16138983150E+03 -0.58367006500E+02  0.18032834341E+03  0.24894115087E+03  0.00000000000E+00 0.  1.
<mgrwt>
<rscale>  0 0.17872330E+04</rscale>
<asrwt>0</asrwt>
<pdfrwt beam="1">  1        2 0.18382824E+00 0.17872330E+04</pdfrwt>
<pdfrwt beam="2">  1       -2 0.10281664E+00 0.17872330E+04</pdfrwt>
<totfact> 0.13938050E+01</totfact>
</mgrwt>
</event>
<event>
12    3  0.4806716E-008  0.1215328E+04  0.7818608E-02  0.9099545E-01
          2   -1    0    0  501    0  0.00000000000E+00  0.00000000000E+00  0.48129690166E+03  0.48129690166E+03  0.00000000000E+00 0. -1.
         -2   -1    0    0    0  501 -0.00000000000E+00 -0.00000000000E+00 -0.76720916480E+03  0.76720916480E+03  0.00000000000E+00 0.  1.
         23    2    1    2    0    0 -0.25081754725E+03  0.89192037789E+02 -0.94039363769E+02  0.29548638138E+03  0.87201708876E+02 0.  0.
        254    2    1    2    0    0  0.25081754725E+03 -0.89192037789E+02 -0.19187289937E+03  0.95301968507E+03  0.89474390135E+03 0.  0.
         23    2    4    4    0    0  0.15731703691E+03  0.29584214949E+01  0.34638834614E+03  0.39161182767E+03  0.92830678488E+02 0.  0.
         23    2    4    4    0    0  0.93500510343E+02 -0.92150459283E+02 -0.53826124551E+03  0.56140785740E+03  0.90661796582E+02 0.  0.
          1    1    3    3  502    0 -0.21110720026E+03  0.78630043870E+02 -0.41962121477E+02  0.22915006751E+03  0.00000000000E+00 0. -1.
         -1    1    3    3    0  502 -0.39710346992E+02  0.10561993919E+02 -0.52077242292E+02  0.66336313875E+02  0.00000000000E+00 0.  1.
         13    1    5    5    0    0  0.14765356423E+03 -0.55701176044E+01  0.34851978616E+03  0.37854807170E+03  0.00000000000E+00 0.  1.
        -13    1    5    5    0    0  0.96634726840E+01  0.85285390992E+01 -0.21314400240E+01  0.13063755971E+02  0.00000000000E+00 0. -1.
          3    1    6    6  503    0  0.36979328789E+02 -0.95505480149E+02 -0.32472518655E+03  0.34049260531E+03  0.00000000000E+00 0. -1.
         -3    1    6    6    0  503  0.56521181554E+02  0.33550208659E+01 -0.21353605896E+03  0.22091525209E+03  0.00000000000E+00 0.  1.
<mgrwt>
<rscale>  0 0.12153278E+04</rscale>
<asrwt>0</asrwt>
<pdfrwt beam="1">  1        2 0.74045678E-01 0.12153278E+04</pdfrwt>
<pdfrwt beam="2">  1       -2 0.11803218E+00 0.12153278E+04</pdfrwt>
<totfact> 0.35092733E+01</totfact>
</mgrwt>
</event>
<event>
12    3  0.4806716E-008  0.3024459E+04  0.7818608E-02  0.8236781E-01
         -1   -1    0    0    0  501 -0.00000000000E+00  0.00000000000E+00  0.12326242184E+04  0.12326242184E+04  0.00000000000E+00 0.  1.
          1   -1    0    0  501    0  0.00000000000E+00 -0.00000000000E+00 -0.18552600473E+04  0.18552600473E+04  0.00000000000E+00 0. -1.
         23    2    1    2    0    0 -0.34757782657E+03 -0.10751469704E+04 -0.10958825063E+04  0.15760877599E+04  0.79641734165E+02 0.  0.
        254    2    1    2    0    0  0.34757782657E+03  0.10751469704E+04  0.47324667737E+03  0.15117965057E+04  0.88589779521E+03 0.  0.
         23    2    4    4    0    0 -0.47037170371E+02  0.36815428653E+03 -0.22022117774E+03  0.44100907884E+03  0.90783073353E+02 0.  0.
         23    2    4    4    0    0  0.39461499694E+03  0.70699268391E+03  0.69346785511E+03  0.10707874269E+04  0.10063993555E+03 0.  0.
          4    1    3    3  502    0 -0.22552403978E+03 -0.61863639960E+03 -0.59478761213E+03  0.88732428738E+03  0.00000000000E+00 0. -1.
         -4    1    3    3    0  502 -0.12205378679E+03 -0.45651057084E+03 -0.50109489419E+03  0.68876347257E+03  0.00000000000E+00 0.  1.
         13    1    5    5    0    0 -0.16623872927E+02  0.31280255611E+03 -0.15245034709E+03  0.34837178501E+03  0.00000000000E+00 0.  1.
        -13    1    5    5    0    0 -0.30413297444E+02  0.55351730421E+02 -0.67770830653E+02  0.92637293837E+02  0.00000000000E+00 0. -1.
          3    1    6    6  503    0  0.35155007714E+03  0.65894229317E+03  0.60425280943E+03  0.96068405846E+03  0.00000000000E+00 0. -1.
         -3    1    6    6    0  503  0.43064919797E+02  0.48050390735E+02  0.89215045673E+02  0.11010336844E+03  0.00000000000E+00 0.  1.
<mgrwt>
<rscale>  0 0.30244593E+04</rscale>
<asrwt>0</asrwt>
<pdfrwt beam="1">  1        1 0.28542462E+00 0.30244593E+04</pdfrwt>
<pdfrwt beam="2">  1       -1 0.18963450E+00 0.30244593E+04</pdfrwt>
<totfact> 0.56408222E-01</totfact>
</mgrwt>
</event>
<event>
12    3  0.4806716E-008  0.3263886E+04  0.7818608E-02  0.8172146E-01
          1   -1    0    0  501    0  0.00000000000E+00  0.00000000000E+00  0.21966879769E+04  0.21966879769E+04  0.00000000000E+00 0. -1.
         -1   -1    0    0    0  501 -0.00000000000E+00 -0.00000000000E+00 -0.12123875803E+04  0.12123875803E+04  0.00000000000E+00 0.  1.
         23    2    1    2    0    0  0.12030667933E+04 -0.42406574601E+03 -0.38072654707E+03  0.13341451652E+04  0.88256172698E+02 0.  0.
        254    2    1    2    0    0 -0.12030667933E+04  0.42406574601E+03  0.13650269437E+04  0.20749303921E+04  0.90268272877E+03 0.  0.
         23    2    4    4    0    0 -0.85010173089E+03  0.27490006961E+03  0.31223986178E+03  0.95088883103E+03  0.91939309018E+02 0.  0.
         23    2    4    4    0    0 -0.35296506243E+03  0.14916567640E+03  0.10527870819E+04  0.11240415610E+04  0.90961842737E+02 0.  0.
          1    1    3    3  502    0  0.11622442600E+03 -0.67761392728E+02 -0.50087281293E+02  0.14355646726E+03  0.00000000000E+00 0. -1.
         -1    1    3    3    0  502  0.10868423673E+04 -0.35630435328E+03 -0.33063926577E+03  0.11905886979E+04  0.00000000000E+00 0.  1.
         13    1    5    5    0    0 -0.34535321603E+03  0.81937320401E+02  0.86980424932E+02  0.36544242039E+03  0.00000000000E+00 0. -1.
        -13    1    5    5    0    0 -0.50474851486E+03  0.19296274921E+03  0.22525943685E+03  0.58544641064E+03  0.00000000000E+00 0.  1.
          2    1    6    6  503    0 -0.18353702187E+03  0.12372021700E+03  0.63594199126E+03  0.67336078497E+03  0.00000000000E+00 0. -1.
         -2    1    6    6    0  503 -0.16942804056E+03  0.25445459398E+02  0.41684509063E+03  0.45068077607E+03  0.00000000000E+00 0.  1.
<mgrwt>
<rscale>  0 0.32638856E+04</rscale>
<asrwt>0</asrwt>
<pdfrwt beam="1">  1        1 0.33795200E+00 0.32638856E+04</pdfrwt>
<pdfrwt beam="2">  1       -1 0.18652117E+00 0.32638856E+04</pdfrwt>
<totfact> 0.34069953E-01</totfact>
</mgrwt>
</event>
